Protein in INSANE! Membrane UpperLeaflet>POPC=1.0 LowerLeaflet>POPC=1.0
249030
    1AU     AUC    1  24.950  38.789   7.485
    1AU     AUC    2  25.245  38.835   7.322
    1AU     AUC    3  25.216  38.798   7.655
    1AU     AUC    4  24.673  38.774   7.317
    1AU     AUC    5  24.670  38.774   7.666
    1AU     AUC    6  24.763  39.032   7.508
    1AU     AUC    7  25.097  39.061   7.492
    1AU     AUC    8  24.793  38.511   7.487
    1AU     AUC    9  25.145  38.555   7.468
    1AU     AUC   10  24.979  38.616   7.756
    1AU     AUC   11  24.931  38.939   7.761
    1AU     AUC   12  24.975  38.643   7.207
    1AU     AUC   13  24.970  38.979   7.225
    1AU     AUC   14  25.560  38.866   7.168
    1AU     AUC   15  25.596  38.842   7.488
    1AU     AUC   16  25.527  38.790   7.852
    1AU     AUC   17  24.369  38.749   7.139
    1AU     AUC   18  24.328  38.791   7.505
    1AU     AUC   19  24.377  38.763   7.844
    1AU     AUC   20  24.591  39.337   7.501
    1AU     AUC   21  24.924  39.404   7.497
    1AU     AUC   22  25.245  39.381   7.517
    1AU     AUC   23  24.609  38.188   7.486
    1AU     AUC   24  24.957  38.233   7.478
    1AU     AUC   25  25.345  38.271   7.435
    1AU     AUC   26  24.982  38.388   8.046
    1AU     AUC   27  24.947  38.709   8.091
    1AU     AUC   28  24.951  39.084   8.061
    1AU     AUC   29  24.972  38.452   6.914
    1AU     AUC   30  24.971  38.801   6.899
    1AU     AUC   31  24.989  39.161   6.930
    1AU     AUC   32  25.276  38.547   7.950
    1AU     AUC   33  25.254  38.911   8.005
    1AU     AUC   34  25.257  38.667   6.996
    1AU     AUC   35  25.288  39.033   7.001
    1AU     AUC   36  24.653  38.558   7.973
    1AU     AUC   37  24.655  38.912   7.978
    1AU     AUC   38  24.632  38.574   7.032
    1AU     AUC   39  24.641  38.954   7.009
    1AU     AUC   40  25.453  39.129   7.348
    1AU     AUC   41  25.397  39.080   7.705
    1AU     AUC   42  24.475  39.053   7.291
    1AU     AUC   43  24.451  39.078   7.687
    1AU     AUC   44  25.460  38.555   7.280
    1AU     AUC   45  25.463  38.509   7.613
    1AU     AUC   46  24.437  38.481   7.329
    1AU     AUC   47  24.460  38.494   7.651
    1AU     AUC   48  24.755  39.262   7.789
    1AU     AUC   49  25.091  39.262   7.804
    1AU     AUC   50  24.744  38.283   7.767
    1AU     AUC   51  25.162  38.288   7.780
    1AU     AUC   52  24.759  39.237   7.172
    1AU     AUC   53  25.153  39.284   7.180
    1AU     AUC   54  24.766  38.310   7.200
    1AU     AUC   55  25.144  38.337   7.150
    1AU    AUSL   56  25.537  38.681   8.225
    1AU    AUSL   57  25.387  38.206   8.078
    1AU     AUL   58  25.658  38.303   8.257
    1AU       S   59  25.756  37.886   8.092
    1AU     LIG   60  25.723  37.630   8.466
    1AU     LIG   61  25.758  37.510   8.924
    1AU       S   62  25.783  38.708   8.433
    1AU     LIG   63  25.847  38.941   8.777
    1AU     LIG   64  26.140  38.946   9.121
    1AU    AUSL   65  25.129  38.502   8.279
    1AU    AUSL   66  24.814  38.838   8.397
    1AU     AUL   67  24.998  38.686   8.628
    1AU       S   68  25.381  38.434   8.595
    1AU     LIG   69  25.447  38.675   8.942
    1AU     LIG   70  25.729  38.590   9.294
    1AU       S   71  24.296  38.665   8.669
    1AU     LIG   72  24.309  38.947   9.029
    1AU     LIG   73  24.302  38.942   9.505
    1AU    AUSL   74  25.153  38.932   8.159
    1AU    AUSL   75  25.580  39.106   8.135
    1AU     AUL   76  25.383  38.935   8.457
    1AU       S   77  25.004  39.191   8.625
    1AU     LIG   78  25.387  39.185   8.892
    1AU     LIG   79  25.658  39.098   9.237
    1AU       S   80  25.735  39.255   8.373
    1AU     LIG   81  26.079  39.379   8.721
    1AU     LIG   82  26.538  39.555   8.684
    1AU    AUSL   83  25.536  38.930   6.748
    1AU    AUSL   84  25.416  39.372   6.837
    1AU     AUL   85  25.570  39.199   6.511
    1AU       S   86  25.456  38.801   6.272
    1AU     LIG   87  25.924  38.836   6.138
    1AU     LIG   88  26.138  38.720   5.737
    1AU       S   89  25.743  39.504   6.810
    1AU     LIG   90  25.885  39.598   6.380
    1AU     LIG   91  26.203  39.904   6.198
    1AU    AUSL   92  25.179  38.690   6.697
    1AU    AUSL   93  25.490  38.590   7.023
    1AU     AUL   94  25.598  38.624   6.671
    1AU       S   95  25.744  38.156   6.565
    1AU     LIG   96  26.211  38.084   6.641
    1AU     LIG   97  26.604  38.091   6.365
    1AU       S   98  25.271  38.498   6.342
    1AU     LIG   99  25.198  38.388   5.867
    1AU     LIG  100  25.474  38.334   5.471
    1AU    AUSL  101  25.110  39.126   6.644
    1AU    AUSL  102  24.809  38.515   6.586
    1AU     AUL  103  24.991  38.859   6.405
    1AU       S  104  24.647  38.548   6.282
    1AU     LIG  105  24.684  38.290   5.905
    1AU     LIG  106  24.450  38.272   5.522
    1AU       S  107  25.548  38.498   6.201
    1AU     LIG  108  25.583  38.731   5.772
    1AU     LIG  109  25.553  38.810   5.290
    1AU    AUSL  110  24.455  38.727   8.165
    1AU    AUSL  111  24.688  39.150   8.128
    1AU     AUL  112  24.550  39.026   8.439
    1AU       S  113  24.186  38.724   8.405
    1AU     LIG  114  23.849  38.807   8.785
    1AU     LIG  115  23.911  38.681   9.250
    1AU       S  116  24.266  39.385   8.298
    1AU     LIG  117  24.084  39.697   8.554
    1AU     LIG  118  23.878  40.114   8.609
    1AU    AUSL  119  24.711  38.405   8.357
    1AU    AUSL  120  24.286  38.342   8.046
    1AU     AUL  121  24.397  38.317   8.326
    1AU       S  122  24.063  38.015   8.170
    1AU     LIG  123  23.686  37.963   8.461
    1AU     LIG  124  23.335  37.912   8.796
    1AU       S  125  24.516  38.587   8.680
    1AU     LIG  126  24.456  38.469   9.133
    1AU     LIG  127  24.269  38.429   9.562
    1AU    AUSL  128  24.423  38.673   6.724
    1AU    AUSL  129  24.691  38.369   6.978
    1AU     AUL  130  24.539  38.292   6.657
    1AU       S  131  24.242  38.592   6.436
    1AU     LIG  132  23.973  38.573   6.005
    1AU     LIG  133  23.998  38.542   5.524
    1AU       S  134  24.101  38.086   6.660
    1AU     LIG  135  24.065  37.677   6.455
    1AU     LIG  136  24.201  37.500   6.019
    1AU    AUSL  137  24.777  38.923   6.818
    1AU    AUSL  138  24.321  39.055   6.899
    1AU     AUL  139  24.525  38.960   6.540
    1AU       S  140  24.152  39.201   6.713
    1AU     LIG  141  23.779  39.470   6.697
    1AU     LIG  142  23.504  39.762   6.486
    1AU       S  143  24.415  38.582   6.217
    1AU     LIG  144  24.427  38.731   5.779
    1AU     LIG  145  24.434  38.748   5.298
    1AU    AUSL  146  25.650  39.401   7.558
    1AU    AUSL  147  25.631  39.127   7.124
    1AU     AUL  148  25.792  39.508   7.282
    1AU       S  149  25.890  39.188   6.939
    1AU     LIG  150  26.083  39.109   6.533
    1AU     LIG  151  26.302  39.363   6.213
    1AU       S  152  26.181  39.278   7.835
    1AU     LIG  153  26.272  39.716   7.658
    1AU     LIG  154  26.592  39.943   7.845
    1AU    AUSL  155  25.929  39.064   7.424
    1AU    AUSL  156  25.913  38.648   7.649
    1AU     AUL  157  26.223  38.825   7.522
    1AU       S  158  26.096  39.259   7.601
    1AU     LIG  159  26.447  39.358   7.278
    1AU     LIG  160  26.980  39.367   7.321
    1AU       S  161  26.137  38.355   7.469
    1AU     LIG  162  26.368  38.057   7.680
    1AU     LIG  163  26.397  37.666   7.898
    1AU    AUSL  164  25.642  38.976   7.735
    1AU    AUSL  165  25.321  39.294   7.813
    1AU     AUL  166  25.696  39.370   7.897
    1AU       S  167  25.716  39.557   8.354
    1AU     LIG  168  26.152  39.739   8.364
    1AU     LIG  169  26.415  40.083   8.560
    1AU       S  170  26.018  39.026   7.919
    1AU     LIG  171  26.534  38.933   7.963
    1AU     LIG  172  26.984  38.741   7.899
    1AU    AUSL  173  24.309  39.285   7.529
    1AU    AUSL  174  24.288  39.067   7.947
    1AU     AUL  175  24.032  39.415   7.783
    1AU       S  176  24.163  39.132   8.141
    1AU     LIG  177  23.759  39.338   8.239
    1AU     LIG  178  23.567  39.689   8.473
    1AU       S  179  24.259  39.710   7.494
    1AU     LIG  180  23.788  39.636   7.391
    1AU     LIG  181  23.383  39.739   7.613
    1AU    AUSL  182  24.228  38.917   7.287
    1AU    AUSL  183  24.357  39.436   7.129
    1AU     AUL  184  24.073  39.257   7.193
    1AU       S  185  23.927  38.795   6.908
    1AU     LIG  186  23.569  39.102   6.997
    1AU     LIG  187  23.249  39.425   6.843
    1AU       S  188  24.183  39.650   6.928
    1AU     LIG  189  23.843  39.981   6.840
    1AU     LIG  190  23.798  40.400   6.655
    1AU    AUSL  191  23.986  38.980   7.649
    1AU    AUSL  192  23.987  38.573   7.389
    1AU     AUL  193  23.839  38.882   7.355
    1AU       S  194  23.757  38.525   7.651
    1AU     LIG  195  23.479  38.372   7.309
    1AU     LIG  196  23.078  38.241   7.069
    1AU       S  197  23.746  39.039   7.815
    1AU     LIG  198  23.374  39.305   7.874
    1AU     LIG  199  23.211  39.695   8.097
    1AU    AUSL  200  25.638  38.385   7.419
    1AU    AUSL  201  25.535  38.527   7.826
    1AU     AUL  202  25.860  38.399   7.838
    1AU       S  203  25.935  38.196   7.417
    1AU     LIG  204  26.066  37.801   7.308
    1AU     LIG  205  26.240  37.429   7.478
    1AU       S  206  25.979  37.942   7.959
    1AU     LIG  207  26.191  37.829   8.354
    1AU     LIG  208  26.232  37.707   8.806
    1AU    AUSL  209  25.864  38.700   7.194
    1AU    AUSL  210  25.587  38.141   7.070
    1AU     AUL  211  25.813  38.402   7.019
    1AU       S  212  26.182  38.417   7.282
    1AU     LIG  213  26.457  38.096   7.122
    1AU     LIG  214  26.913  38.143   7.035
    1AU       S  215  25.689  38.005   6.802
    1AU     LIG  216  25.939  37.651   6.817
    1AU     LIG  217  26.313  37.563   6.599
    1AU    AUSL  218  24.361  38.332   7.473
    1AU    AUSL  219  24.257  38.480   7.063
    1AU     AUL  220  23.996  38.265   7.293
    1AU       S  221  24.075  38.314   6.831
    1AU     LIG  222  23.619  38.038   6.742
    1AU     LIG  223  23.429  37.733   6.386
    1AU       S  224  23.699  38.533   7.816
    1AU     LIG  225  23.667  38.058   7.840
    1AU     LIG  226  23.599  37.659   7.634
    1AU    AUSL  227  24.225  38.642   7.754
    1AU    AUSL  228  24.398  38.023   7.762
    1AU     AUL  229  24.110  38.228   7.752
    1AU       S  230  24.180  37.796   7.944
    1AU     LIG  231  23.740  37.592   8.115
    1AU     LIG  232  23.403  37.522   8.465
    1AU       S  233  23.892  38.602   7.946
    1AU     LIG  234  23.493  38.374   8.218
    1AU     LIG  235  23.273  37.963   8.136
    1AU    AUSL  236  24.926  39.477   7.964
    1AU    AUSL  237  24.485  39.458   7.888
    1AU     AUL  238  24.728  39.478   8.253
    1AU       S  239  24.360  39.657   8.024
    1AU     LIG  240  23.919  39.807   8.079
    1AU     LIG  241  23.598  40.122   8.173
    1AU       S  242  24.895  39.868   8.027
    1AU     LIG  243  25.157  40.144   8.300
    1AU     LIG  244  25.140  40.599   8.461
    1AU    AUSL  245  24.733  39.687   7.621
    1AU    AUSL  246  25.056  39.745   7.281
    1AU     AUL  247  24.745  39.947   7.399
    1AU       S  248  24.925  40.096   7.844
    1AU     LIG  249  24.812  40.450   8.084
    1AU     LIG  250  24.625  40.513   8.489
    1AU       S  251  25.023  39.987   7.009
    1AU     LIG  252  25.198  40.387   7.157
    1AU     LIG  253  25.145  40.865   7.111
    1AU    AUSL  254  25.204  39.679   7.679
    1AU    AUSL  255  25.217  39.344   8.249
    1AU     AUL  256  25.300  39.616   8.034
    1AU       S  257  25.439  39.437   8.466
    1AU     LIG  258  25.664  39.637   8.843
    1AU     LIG  259  26.101  39.848   8.911
    1AU       S  260  25.138  39.952   7.734
    1AU     LIG  261  25.359  40.350   7.865
    1AU     LIG  262  25.237  40.771   7.985
    1AU    AUSL  263  24.992  38.038   8.111
    1AU    AUSL  264  25.553  38.053   7.687
    1AU     AUL  265  25.302  37.849   7.992
    1AU       S  266  24.851  37.509   8.070
    1AU     LIG  267  24.694  37.280   8.418
    1AU     LIG  268  25.022  37.095   8.695
    1AU       S  269  25.754  37.877   7.770
    1AU     LIG  270  25.944  37.441   8.006
    1AU     LIG  271  26.144  37.315   8.430
    1AU    AUSL  272  24.803  37.884   7.736
    1AU    AUSL  273  24.717  38.308   7.939
    1AU     AUL  274  24.630  37.959   8.082
    1AU       S  275  24.734  37.588   7.806
    1AU     LIG  276  24.385  37.324   7.935
    1AU     LIG  277  24.321  36.971   8.215
    1AU       S  278  24.201  37.766   8.243
    1AU     LIG  279  24.062  37.357   8.453
    1AU     LIG  280  24.041  37.215   8.917
    1AU    AUSL  281  25.142  38.146   7.667
    1AU    AUSL  282  24.787  38.028   7.333
    1AU     AUL  283  25.098  37.791   7.538
    1AU       S  284  24.628  37.672   7.338
    1AU     LIG  285  24.425  37.240   7.151
    1AU     LIG  286  24.446  36.878   6.796
    1AU       S  287  24.982  37.421   7.849
    1AU     LIG  288  25.206  37.041   7.871
    1AU     LIG  289  25.615  36.894   8.062
    1AU    AUSL  290  25.014  39.477   6.943
    1AU    AUSL  291  25.322  39.400   7.281
    1AU     AUL  292  25.369  39.679   7.063
    1AU       S  293  25.017  39.752   6.737
    1AU     LIG  294  24.903  40.092   6.400
    1AU     LIG  295  24.713  40.533   6.417
    1AU       S  296  26.014  39.468   6.854
    1AU     LIG  297  25.984  39.958   6.725
    1AU     LIG  298  26.349  40.259   6.729
    1AU    AUSL  299  24.749  39.418   7.294
    1AU    AUSL  300  24.643  39.336   6.797
    1AU     AUL  301  24.647  39.652   7.014
    1AU       S  302  24.828  40.083   6.882
    1AU     LIG  303  24.756  40.551   6.926
    1AU     LIG  304  24.785  40.994   6.733
    1AU       S  305  24.379  39.467   6.641
    1AU     LIG  306  24.174  39.859   6.462
    1AU     LIG  307  23.821  40.095   6.240
    1AU    AUSL  308  24.932  38.021   6.909
    1AU    AUSL  309  24.401  38.061   7.138
    1AU     AUL  310  24.646  37.934   6.950
    1AU       S  311  24.173  38.012   6.921
    1AU     LIG  312  23.887  37.652   6.967
    1AU     LIG  313  23.596  37.371   6.712
    1AU       S  314  24.899  37.564   7.137
    1AU     LIG  315  25.198  37.395   6.861
    1AU     LIG  316  25.137  36.999   6.619
    1AU    AUSL  317  25.201  38.148   7.245
    1AU    AUSL  318  25.254  38.282   6.803
    1AU     AUL  319  25.268  37.904   7.002
    1AU       S  320  24.808  37.488   7.315
    1AU     LIG  321  25.211  37.249   7.391
    1AU     LIG  322  25.405  36.978   7.075
    1AU       S  323  25.436  38.134   6.610
    1AU     LIG  324  25.522  37.656   6.497
    1AU     LIG  325  25.888  37.372   6.355
    2AU     AUC  326  26.605  11.066   7.498
    2AU     AUC  327  26.896  11.105   7.325
    2AU     AUC  328  26.875  11.087   7.659
    2AU     AUC  329  26.323  11.044   7.339
    2AU     AUC  330  26.332  11.059   7.688
    2AU     AUC  331  26.416  11.309   7.517
    2AU     AUC  332  26.750  11.339   7.490
    2AU     AUC  333  26.450  10.789   7.517
    2AU     AUC  334  26.802  10.832   7.486
    2AU     AUC  335  26.644  10.907   7.775
    2AU     AUC  336  26.591  11.230   7.767
    2AU     AUC  337  26.625  10.909   7.229
    2AU     AUC  338  26.617  11.244   7.230
    2AU     AUC  339  27.206  11.130   7.163
    2AU     AUC  340  27.251  11.124   7.483
    2AU     AUC  341  27.192  11.091   7.849
    2AU     AUC  342  26.015  11.010   7.171
    2AU     AUC  343  25.984  11.062   7.535
    2AU     AUC  344  26.041  11.053   7.876
    2AU     AUC  345  26.241  11.614   7.501
    2AU     AUC  346  26.576  11.683   7.483
    2AU     AUC  347  26.897  11.663   7.495
    2AU     AUC  348  26.271  10.465   7.536
    2AU     AUC  349  26.618  10.509   7.518
    2AU     AUC  350  27.004  10.549   7.462
    2AU     AUC  351  26.659  10.695   8.076
    2AU     AUC  352  26.620  11.016   8.107
    2AU     AUC  353  26.617  11.389   8.059
    2AU     AUC  354  26.614  10.704   6.944
    2AU     AUC  355  26.608  11.055   6.913
    2AU     AUC  356  26.627  11.413   6.926
    2AU     AUC  357  26.948  10.849   7.964
    2AU     AUC  358  26.920  11.217   8.002
    2AU     AUC  359  26.901  10.922   7.010
    2AU     AUC  360  26.929  11.288   6.994
    2AU     AUC  361  26.325  10.857   8.004
    2AU     AUC  362  26.322  11.211   7.994
    2AU     AUC  363  26.276  10.833   7.062
    2AU     AUC  364  26.281  11.212   7.025
    2AU     AUC  365  27.102  11.402   7.332
    2AU     AUC  366  27.054  11.371   7.692
    2AU     AUC  367  26.122  11.321   7.309
    2AU     AUC  368  26.108  11.361   7.704
    2AU     AUC  369  27.113  10.824   7.292
    2AU     AUC  370  27.125  10.797   7.624
    2AU     AUC  371  26.093  10.747   7.367
    2AU     AUC  372  26.125  10.775   7.690
    2AU     AUC  373  26.413  11.554   7.785
    2AU     AUC  374  26.748  11.557   7.792
    2AU     AUC  375  26.412  10.576   7.808
    2AU     AUC  376  26.831  10.582   7.809
    2AU     AUC  377  26.402  11.500   7.173
    2AU     AUC  378  26.798  11.547   7.166
    2AU     AUC  379  26.419  10.576   7.239
    2AU     AUC  380  26.796  10.599   7.182
    2AU    AUSL  381  27.214  10.999   8.226
    2AU    AUSL  382  27.073  10.517   8.104
    2AU     AUL  383  27.340  10.622   8.287
    2AU       S  384  27.482  10.241   8.077
    2AU     LIG  385  27.333  10.074   8.432
    2AU     LIG  386  27.509   9.732   8.665
    2AU       S  387  27.466  11.053   8.385
    2AU     LIG  388  27.384  11.073   8.825
    2AU     LIG  389  27.430  10.816   9.205
    2AU    AUSL  390  26.810  10.816   8.299
    2AU    AUSL  391  26.493  11.158   8.410
    2AU     AUL  392  26.675  11.023   8.645
    2AU       S  393  27.054  10.769   8.605
    2AU     LIG  394  26.936  10.848   9.030
    2AU     LIG  395  26.972  10.739   9.473
    2AU       S  396  25.956  10.975   8.705
    2AU     LIG  397  26.092  11.230   9.080
    2AU     LIG  398  26.010  11.230   9.544
    2AU    AUSL  399  26.824  11.240   8.157
    2AU    AUSL  400  27.243  11.422   8.115
    2AU     AUL  401  27.055  11.255   8.451
    2AU       S  402  26.680  11.523   8.619
    2AU     LIG  403  27.001  11.402   8.919
    2AU     LIG  404  27.136  11.225   9.320
    2AU       S  405  27.384  11.576   8.321
    2AU     LIG  406  27.824  11.621   8.386
    2AU     LIG  407  28.080  11.853   8.731
    2AU    AUSL  408  27.165  11.173   6.735
    2AU    AUSL  409  27.053  11.619   6.812
    2AU     AUL  410  27.184  11.459   6.486
    2AU       S  411  27.063  11.043   6.293
    2AU     LIG  412  27.441  11.096   6.044
    2AU     LIG  413  27.496  10.822   5.666
    2AU       S  414  27.433  11.716   6.778
    2AU     LIG  415  27.345  12.110   6.671
    2AU     LIG  416  27.415  12.421   6.356
    2AU    AUSL  417  26.806  10.929   6.723
    2AU    AUSL  418  27.139  10.849   7.033
    2AU     AUL  419  27.231  10.858   6.677
    2AU       S  420  27.379  10.371   6.585
    2AU     LIG  421  27.665   9.986   6.434
    2AU     LIG  422  27.881   9.597   6.212
    2AU       S  423  26.883  10.720   6.374
    2AU     LIG  424  26.792  10.515   5.923
    2AU     LIG  425  27.016  10.549   5.489
    2AU    AUSL  426  26.741  11.361   6.638
    2AU    AUSL  427  26.434  10.761   6.608
    2AU     AUL  428  26.605  11.086   6.416
    2AU       S  429  26.238  10.786   6.304
    2AU     LIG  430  26.287  10.630   5.850
    2AU     LIG  431  25.968  10.541   5.517
    2AU       S  432  27.120  10.744   6.213
    2AU     LIG  433  27.003  10.963   5.800
    2AU     LIG  434  27.145  11.073   5.372
    2AU    AUSL  435  26.131  11.032   8.191
    2AU    AUSL  436  26.357  11.457   8.132
    2AU     AUL  437  26.229  11.346   8.454
    2AU       S  438  25.877  11.039   8.411
    2AU     LIG  439  25.681  11.378   8.707
    2AU     LIG  440  25.588  11.245   9.161
    2AU       S  441  25.937  11.701   8.308
    2AU     LIG  442  25.710  11.908   8.663
    2AU     LIG  443  25.478  12.211   8.970
    2AU    AUSL  444  26.394  10.722   8.396
    2AU    AUSL  445  25.957  10.642   8.097
    2AU     AUL  446  26.081  10.622   8.371
    2AU       S  447  25.744  10.316   8.228
    2AU     LIG  448  25.306  10.377   8.272
    2AU     LIG  449  24.992  10.086   8.464
    2AU       S  450  26.197  10.919   8.699
    2AU     LIG  451  26.394  10.806   9.091
    2AU     LIG  452  26.241  10.743   9.535
    2AU    AUSL  453  26.054  10.923   6.756
    2AU    AUSL  454  26.340  10.630   7.012
    2AU     AUL  455  26.176  10.537   6.701
    2AU       S  456  25.867  10.833   6.483
    2AU     LIG  457  25.524  10.853   6.144
    2AU     LIG  458  25.546  10.823   5.663
    2AU       S  459  25.730  10.330   6.717
    2AU     LIG  460  25.660   9.859   6.644
    2AU     LIG  461  25.360   9.547   6.421
    2AU    AUSL  462  26.410  11.176   6.832
    2AU    AUSL  463  25.958  11.310   6.925
    2AU     AUL  464  26.147  11.204   6.560
    2AU       S  465  25.777  11.451   6.734
    2AU     LIG  466  25.421  11.765   6.699
    2AU     LIG  467  25.053  11.990   6.542
    2AU       S  468  25.973  10.663   6.265
    2AU     LIG  469  25.961  11.006   5.936
    2AU     LIG  470  26.115  11.039   5.505
    2AU    AUSL  471  27.302  11.689   7.525
    2AU    AUSL  472  27.273  11.382   7.102
    2AU     AUL  473  27.436  11.776   7.239
    2AU       S  474  27.529  11.420   6.913
    2AU     LIG  475  27.667  11.389   6.460
    2AU     LIG  476  27.687  11.841   6.340
    2AU       S  477  27.812  11.718   7.744
    2AU     LIG  478  27.922  11.914   7.291
    2AU     LIG  479  28.372  11.928   7.122
    2AU    AUSL  480  27.579  11.346   7.399
    2AU    AUSL  481  27.576  10.944   7.651
    2AU     AUL  482  27.877  11.112   7.512
    2AU       S  483  27.744  11.546   7.589
    2AU     LIG  484  28.188  11.508   7.430
    2AU     LIG  485  28.604  11.409   7.254
    2AU       S  486  27.821  10.629   7.502
    2AU     LIG  487  28.139  10.511   7.819
    2AU     LIG  488  28.614  10.494   7.908
    2AU    AUSL  489  27.300  11.274   7.721
    2AU    AUSL  490  26.976  11.593   7.791
    2AU     AUL  491  27.338  11.689   7.858
    2AU       S  492  27.344  11.883   8.306
    2AU     LIG  493  27.301  12.323   8.316
    2AU     LIG  494  27.635  12.594   8.442
    2AU       S  495  27.672  11.366   7.881
    2AU     LIG  496  28.136  11.392   7.940
    2AU     LIG  497  28.563  11.505   7.787
    2AU    AUSL  498  25.958  11.557   7.541
    2AU    AUSL  499  25.953  11.362   7.970
    2AU     AUL  500  25.685  11.698   7.792
    2AU       S  501  25.840  11.455   8.170
    2AU     LIG  502  25.420  11.626   8.320
    2AU     LIG  503  25.214  11.733   8.737
    2AU       S  504  25.904  11.989   7.494
    2AU     LIG  505  25.470  11.943   7.301
    2AU     LIG  506  25.192  12.250   7.081
    2AU    AUSL  507  25.873  11.180   7.318
    2AU    AUSL  508  25.999  11.701   7.138
    2AU     AUL  509  25.715  11.516   7.215
    2AU       S  510  25.565  11.050   6.961
    2AU     LIG  511  25.228  11.381   7.058
    2AU     LIG  512  25.011  11.776   7.027
    2AU       S  513  25.828  11.904   6.930
    2AU     LIG  514  25.597  12.296   6.801
    2AU     LIG  515  25.518  12.691   6.548
    2AU    AUSL  516  25.645  11.253   7.688
    2AU    AUSL  517  25.642  10.836   7.437
    2AU     AUL  518  25.483  11.148   7.409
    2AU       S  519  25.419  10.796   7.716
    2AU     LIG  520  25.162  10.719   7.328
    2AU     LIG  521  24.784  10.616   7.099
    2AU       S  522  25.442  11.299   7.883
    2AU     LIG  523  25.081  11.407   7.650
    2AU     LIG  524  24.806  11.712   7.856
    2AU    AUSL  525  27.303  10.666   7.436
    2AU    AUSL  526  27.199  10.828   7.834
    2AU     AUL  527  27.522  10.693   7.852
    2AU       S  528  27.598  10.485   7.434
    2AU     LIG  529  27.799  10.104   7.386
    2AU     LIG  530  28.213  10.103   7.521
    2AU       S  531  27.719  10.222   7.895
    2AU     LIG  532  27.854  10.061   8.355
    2AU     LIG  533  28.007   9.801   8.718
    2AU    AUSL  534  27.518  10.969   7.191
    2AU    AUSL  535  27.237  10.402   7.104
    2AU     AUL  536  27.460  10.658   7.030
    2AU       S  537  27.843  10.699   7.279
    2AU     LIG  538  28.136  10.377   7.090
    2AU     LIG  539  28.441  10.088   6.855
    2AU       S  540  27.350  10.234   6.850
    2AU     LIG  541  27.620   9.847   6.919
    2AU     LIG  542  27.688   9.426   6.712
    2AU    AUSL  543  26.020  10.598   7.518
    2AU    AUSL  544  25.907  10.739   7.109
    2AU     AUL  545  25.652  10.528   7.350
    2AU       S  546  25.728  10.575   6.892
    2AU     LIG  547  25.282  10.373   6.947
    2AU     LIG  548  25.157   9.985   6.680
    2AU       S  549  25.335  10.626   7.791
    2AU     LIG  550  25.339  10.236   7.623
    2AU     LIG  551  25.092   9.882   7.734
    2AU    AUSL  552  25.895  10.922   7.787
    2AU    AUSL  553  26.077  10.313   7.829
    2AU     AUL  554  25.791  10.494   7.800
    2AU       S  555  25.912  10.095   8.027
    2AU     LIG  556  25.883   9.667   8.173
    2AU     LIG  557  25.511   9.409   8.288
    2AU       S  558  25.520  10.840   7.953
    2AU     LIG  559  25.015  10.776   8.099
    2AU     LIG  560  24.896  10.326   7.947
    2AU    AUSL  561  26.584  11.779   7.945
    2AU    AUSL  562  26.143  11.752   7.884
    2AU     AUL  563  26.394  11.790   8.240
    2AU       S  564  26.022  11.957   8.008
    2AU     LIG  565  25.606  12.083   8.170
    2AU     LIG  566  25.296  12.175   8.501
    2AU       S  567  26.539  12.173   7.991
    2AU     LIG  568  26.782  12.411   8.288
    2AU     LIG  569  26.753  12.832   8.506
    2AU    AUSL  570  26.381  11.970   7.597
    2AU    AUSL  571  26.707  12.010   7.247
    2AU     AUL  572  26.409  12.220   7.364
    2AU       S  573  26.523  12.410   7.816
    2AU     LIG  574  26.475  12.785   8.079
    2AU     LIG  575  26.485  13.221   8.256
    2AU       S  576  26.653  12.223   6.948
    2AU     LIG  577  26.916  12.564   7.097
    2AU     LIG  578  26.891  13.005   6.971
    2AU    AUSL  579  26.853  11.973   7.649
    2AU    AUSL  580  26.880  11.656   8.229
    2AU     AUL  581  26.945  11.925   8.010
    2AU       S  582  27.110  11.752   8.452
    2AU     LIG  583  27.500  11.854   8.762
    2AU     LIG  584  27.720  12.258   8.868
    2AU       S  585  26.774  12.256   7.708
    2AU     LIG  586  26.971  12.653   7.882
    2AU     LIG  587  27.159  12.959   8.202
    2AU    AUSL  588  26.680  10.350   8.155
    2AU    AUSL  589  27.217  10.341   7.708
    2AU     AUL  590  27.002  10.161   8.038
    2AU       S  591  26.389   9.789   8.171
    2AU     LIG  592  26.389   9.382   8.377
    2AU     LIG  593  26.530   9.051   8.693
    2AU       S  594  27.427  10.172   7.786
    2AU     LIG  595  27.557   9.757   8.070
    2AU     LIG  596  27.883   9.497   8.318
    2AU    AUSL  597  26.477  10.170   7.797
    2AU    AUSL  598  26.391  10.608   7.983
    2AU     AUL  599  26.337  10.271   8.148
    2AU       S  600  26.372   9.876   7.888
    2AU     LIG  601  26.269   9.406   7.872
    2AU     LIG  602  26.425   8.973   8.046
    2AU       S  603  25.904  10.139   8.325
    2AU     LIG  604  25.988   9.814   8.641
    2AU     LIG  605  25.665   9.602   8.898
    2AU    AUSL  606  26.808  10.435   7.708
    2AU    AUSL  607  26.439  10.301   7.389
    2AU     AUL  608  26.749  10.064   7.598
    2AU       S  609  26.304   9.954   7.407
    2AU     LIG  610  26.016   9.754   7.082
    2AU     LIG  611  25.965   9.296   6.892
    2AU       S  612  26.641   9.743   7.996
    2AU     LIG  613  26.803   9.311   7.873
    2AU     LIG  614  27.109   8.931   7.973
    2AU    AUSL  615  26.653  11.722   6.926
    2AU    AUSL  616  26.969  11.664   7.257
    2AU     AUL  617  27.017  11.932   7.020
    2AU       S  618  26.665  11.947   6.695
    2AU     LIG  619  26.935  12.381   6.572
    2AU     LIG  620  27.092  12.810   6.508
    2AU       S  621  27.743  11.628   6.889
    2AU     LIG  622  27.836  12.081   6.811
    2AU     LIG  623  28.040  12.504   6.773
    2AU    AUSL  624  26.398  11.685   7.285
    2AU    AUSL  625  26.273  11.589   6.800
    2AU     AUL  626  26.290  11.909   7.001
    2AU       S  627  26.483  12.222   6.685
    2AU     LIG  628  26.477  12.685   6.815
    2AU     LIG  629  26.372  13.019   7.129
    2AU       S  630  26.013  11.708   6.648
    2AU     LIG  631  25.796  12.042   6.409
    2AU     LIG  632  25.405  12.279   6.257
    2AU    AUSL  633  26.576  10.275   6.962
    2AU    AUSL  634  26.058  10.324   7.185
    2AU     AUL  635  26.295  10.192   7.004
    2AU       S  636  25.818  10.263   6.985
    2AU     LIG  637  25.486   9.939   7.115
    2AU     LIG  638  25.272   9.549   6.926
    2AU       S  639  26.526   9.823   7.227
    2AU     LIG  640  26.466   9.475   6.949
    2AU     LIG  641  26.634   9.309   6.535
    2AU    AUSL  642  26.854  10.410   7.286
    2AU    AUSL  643  26.900  10.527   6.836
    2AU     AUL  644  26.917  10.160   7.047
    2AU       S  645  26.437   9.678   7.442
    2AU     LIG  646  26.862   9.463   7.326
    2AU     LIG  647  26.996   9.360   6.900
    2AU       S  648  27.084  10.368   6.644
    2AU     LIG  649  27.158   9.883   6.560
    2AU     LIG  650  27.379   9.548   6.315
    3AU     AUC  651  11.181  18.002   7.490
    3AU     AUC  652  11.476  18.047   7.323
    3AU     AUC  653  11.448  18.022   7.657
    3AU     AUC  654  10.904  17.980   7.324
    3AU     AUC  655  10.904  17.986   7.674
    3AU     AUC  656  10.990  18.241   7.510
    3AU     AUC  657  11.323  18.276   7.490
    3AU     AUC  658  11.029  17.722   7.499
    3AU     AUC  659  11.379  17.773   7.480
    3AU     AUC  660  11.218  17.837   7.764
    3AU     AUC  661  11.161  18.159   7.763
    3AU     AUC  662  11.207  17.850   7.216
    3AU     AUC  663  11.197  18.185   7.225
    3AU     AUC  664  11.790  18.079   7.168
    3AU     AUC  665  11.827  18.066   7.489
    3AU     AUC  666  11.758  18.025   7.852
    3AU     AUC  667  10.599  17.948   7.150
    3AU     AUC  668  10.560  17.995   7.516
    3AU     AUC  669  10.613  17.975   7.854
    3AU     AUC  670  10.812  18.545   7.497
    3AU     AUC  671  11.145  18.617   7.485
    3AU     AUC  672  11.467  18.600   7.504
    3AU     AUC  673  10.853  17.397   7.506
    3AU     AUC  674  11.199  17.446   7.497
    3AU     AUC  675  11.585  17.489   7.451
    3AU     AUC  676  11.229  17.615   8.058
    3AU     AUC  677  11.186  17.937   8.097
    3AU     AUC  678  11.179  18.312   8.058
    3AU     AUC  679  11.205  17.651   6.925
    3AU     AUC  680  11.198  18.000   6.904
    3AU     AUC  681  11.212  18.358   6.925
    3AU     AUC  682  11.516  17.778   7.959
    3AU     AUC  683  11.484  18.147   8.004
    3AU     AUC  684  11.489  17.870   7.004
    3AU     AUC  685  11.515  18.237   6.998
    3AU     AUC  686  10.895  17.776   7.983
    3AU     AUC  687  10.889  18.132   7.984
    3AU     AUC  688  10.864  17.774   7.042
    3AU     AUC  689  10.867  18.152   7.011
    3AU     AUC  690  11.679  18.345   7.342
    3AU     AUC  691  11.622  18.306   7.699
    3AU     AUC  692  10.701  18.254   7.296
    3AU     AUC  693  10.679  18.289   7.692
    3AU     AUC  694  11.694  17.772   7.288
    3AU     AUC  695  11.700  17.735   7.622
    3AU     AUC  696  10.673  17.684   7.345
    3AU     AUC  697  10.700  17.703   7.666
    3AU     AUC  698  10.978  18.480   7.784
    3AU     AUC  699  11.313  18.486   7.796
    3AU     AUC  700  10.993  17.498   7.783
    3AU     AUC  701  11.407  17.510   7.795
    3AU     AUC  702  10.981  18.437   7.168
    3AU     AUC  703  11.376  18.490   7.171
    3AU     AUC  704  11.000  17.516   7.216
    3AU     AUC  705  11.379  17.546   7.164
    3AU    AUSL  706  11.779  17.933   8.226
    3AU    AUSL  707  11.637  17.440   8.093
    3AU     AUL  708  11.881  17.559   8.284
    3AU       S  709  12.015  17.145   8.121
    3AU     LIG  710  12.021  16.818   8.459
    3AU     LIG  711  12.192  16.611   8.863
    3AU       S  712  12.040  17.988   8.380
    3AU     LIG  713  12.019  18.121   8.803
    3AU     LIG  714  12.092  17.856   9.174
    3AU    AUSL  715  11.380  17.739   8.292
    3AU    AUSL  716  11.053  18.070   8.402
    3AU     AUL  717  11.256  17.910   8.630
    3AU       S  718  11.697  17.753   8.656
    3AU     LIG  719  11.581  17.913   9.043
    3AU     LIG  720  11.672  17.802   9.484
    3AU       S  721  10.506  17.875   8.684
    3AU     LIG  722  10.631  18.177   9.032
    3AU     LIG  723  10.542  18.290   9.489
    3AU    AUSL  724  11.386  18.166   8.158
    3AU    AUSL  725  11.803  18.359   8.126
    3AU     AUL  726  11.621  18.185   8.453
    3AU       S  727  11.240  18.425   8.626
    3AU     LIG  728  11.619  18.428   8.897
    3AU     LIG  729  11.835  18.290   9.285
    3AU       S  730  11.937  18.517   8.336
    3AU     LIG  731  12.240  18.572   8.621
    3AU     LIG  732  12.459  18.968   8.654
    3AU    AUSL  733  11.759  18.131   6.747
    3AU    AUSL  734  11.637  18.574   6.825
    3AU     AUL  735  11.790  18.414   6.510
    3AU       S  736  11.672  18.007   6.295
    3AU     LIG  737  12.065  18.115   6.078
    3AU     LIG  738  12.173  17.992   5.624
    3AU       S  739  12.002  18.706   6.803
    3AU     LIG  740  11.976  19.035   6.499
    3AU     LIG  741  12.079  19.327   6.142
    3AU    AUSL  742  11.405  17.882   6.713
    3AU    AUSL  743  11.725  17.794   7.030
    3AU     AUL  744  11.835  17.822   6.684
    3AU       S  745  11.997  17.359   6.593
    3AU     LIG  746  12.385  17.070   6.611
    3AU     LIG  747  12.680  16.798   6.366
    3AU       S  748  11.504  17.688   6.363
    3AU     LIG  749  11.385  17.563   5.902
    3AU     LIG  750  11.547  17.606   5.440
    3AU    AUSL  751  11.336  18.315   6.636
    3AU    AUSL  752  11.038  17.706   6.594
    3AU     AUL  753  11.208  18.038   6.407
    3AU       S  754  10.845  17.734   6.280
    3AU     LIG  755  10.874  17.559   5.821
    3AU     LIG  756  10.583  17.528   5.458
    3AU       S  757  11.753  17.723   6.204
    3AU     LIG  758  11.671  17.970   5.783
    3AU     LIG  759  11.747  18.078   5.314
    3AU    AUSL  760  10.695  17.946   8.174
    3AU    AUSL  761  10.917  18.375   8.130
    3AU     AUL  762  10.784  18.255   8.445
    3AU       S  763  10.435  17.944   8.397
    3AU     LIG  764  10.243  18.287   8.699
    3AU     LIG  765  10.136  18.180   9.167
    3AU       S  766  10.488  18.608   8.303
    3AU     LIG  767  10.411  19.013   8.525
    3AU     LIG  768  10.118  19.286   8.790
    3AU    AUSL  769  10.961  17.634   8.370
    3AU    AUSL  770  10.531  17.555   8.062
    3AU     AUL  771  10.646  17.535   8.342
    3AU       S  772  10.294  17.245   8.192
    3AU     LIG  773   9.846  17.346   8.261
    3AU     LIG  774   9.507  17.098   8.449
    3AU       S  775  10.762  17.820   8.682
    3AU     LIG  776  10.751  17.687   9.112
    3AU     LIG  777  10.446  17.783   9.443
    3AU    AUSL  778  10.652  17.863   6.733
    3AU    AUSL  779  10.926  17.570   6.992
    3AU     AUL  780  10.782  17.479   6.674
    3AU       S  781  10.472  17.777   6.459
    3AU     LIG  782  10.138  17.826   6.121
    3AU     LIG  783  10.147  17.765   5.646
    3AU       S  784  10.344  17.265   6.681
    3AU     LIG  785  10.397  16.789   6.628
    3AU     LIG  786  10.114  16.480   6.415
    3AU    AUSL  787  11.002  18.120   6.820
    3AU    AUSL  788  10.545  18.244   6.905
    3AU     AUL  789  10.749  18.147   6.542
    3AU       S  790  10.373  18.372   6.720
    3AU     LIG  791  10.035  18.655   6.615
    3AU     LIG  792   9.898  19.026   6.399
    3AU       S  793  10.582  17.619   6.239
    3AU     LIG  794  10.575  17.960   5.896
    3AU     LIG  795  10.539  18.045   5.430
    3AU    AUSL  796  11.874  18.624   7.544
    3AU    AUSL  797  11.859  18.339   7.116
    3AU     AUL  798  12.013  18.725   7.270
    3AU       S  799  12.113  18.394   6.925
    3AU     LIG  800  12.281  18.460   6.456
    3AU     LIG  801  12.440  18.888   6.338
    3AU       S  802  12.377  18.543   7.961
    3AU     LIG  803  12.593  18.890   7.698
    3AU     LIG  804  12.957  18.915   7.421
    3AU    AUSL  805  12.155  18.288   7.419
    3AU    AUSL  806  12.146  17.879   7.651
    3AU     AUL  807  12.447  18.057   7.513
    3AU       S  808  12.316  18.476   7.659
    3AU     LIG  809  12.663  18.484   7.347
    3AU     LIG  810  13.038  18.534   7.052
    3AU       S  811  12.363  17.584   7.479
    3AU     LIG  812  12.624  17.572   7.811
    3AU     LIG  813  13.054  17.443   7.817
    3AU    AUSL  814  11.871  18.207   7.735
    3AU    AUSL  815  11.541  18.526   7.800
    3AU     AUL  816  11.907  18.618   7.873
    3AU       S  817  11.928  18.840   8.309
    3AU     LIG  818  12.237  19.214   8.233
    3AU     LIG  819  12.566  19.605   8.205
    3AU       S  820  12.224  18.259   7.920
    3AU     LIG  821  12.713  18.178   7.895
    3AU     LIG  822  13.027  18.474   7.737
    3AU    AUSL  823  10.533  18.491   7.531
    3AU    AUSL  824  10.519  18.280   7.954
    3AU     AUL  825  10.252  18.620   7.782
    3AU       S  826  10.398  18.352   8.142
    3AU     LIG  827   9.997  18.480   8.288
    3AU     LIG  828   9.935  18.808   8.602
    3AU       S  829  10.467  18.915   7.486
    3AU     LIG  830   9.996  19.027   7.599
    3AU     LIG  831   9.556  19.195   7.754
    3AU    AUSL  832  10.456  18.117   7.297
    3AU    AUSL  833  10.577  18.631   7.127
    3AU     AUL  834  10.298  18.455   7.198
    3AU       S  835  10.150  17.982   6.929
    3AU     LIG  836   9.836  18.346   7.008
    3AU     LIG  837   9.524  18.617   7.268
    3AU       S  838  10.404  18.829   6.900
    3AU     LIG  839  10.260  19.246   6.755
    3AU     LIG  840  10.216  19.612   6.465
    3AU    AUSL  841  10.217  18.183   7.660
    3AU    AUSL  842  10.222  17.771   7.407
    3AU     AUL  843  10.065  18.084   7.373
    3AU       S  844   9.994  17.726   7.676
    3AU     LIG  845   9.743  17.727   7.269
    3AU     LIG  846   9.320  17.581   7.172
    3AU       S  847   9.970  18.239   7.826
    3AU     LIG  848   9.735  18.652   7.875
    3AU     LIG  849   9.446  18.904   8.169
    3AU    AUSL  850  11.871  17.609   7.432
    3AU    AUSL  851  11.770  17.761   7.836
    3AU     AUL  852  12.094  17.645   7.859
    3AU       S  853  12.190  17.425   7.445
    3AU     LIG  854  12.278  17.092   7.183
    3AU     LIG  855  12.586  16.788   7.048
    3AU       S  856  12.270  17.210   7.954
    3AU     LIG  857  12.448  17.092   8.357
    3AU     LIG  858  12.573  16.922   8.738
    3AU    AUSL  859  12.097  17.918   7.194
    3AU    AUSL  860  11.825  17.344   7.098
    3AU     AUL  861  12.046  17.599   7.039
    3AU       S  862  12.443  17.648   7.267
    3AU     LIG  863  12.683  17.340   6.978
    3AU     LIG  864  13.035  17.004   6.970
    3AU       S  865  11.932  17.182   6.828
    3AU     LIG  866  12.109  16.714   6.838
    3AU     LIG  867  12.492  16.441   6.689
    3AU    AUSL  868  10.600  17.535   7.495
    3AU    AUSL  869  10.495  17.681   7.084
    3AU     AUL  870  10.232  17.465   7.314
    3AU       S  871  10.331  17.515   6.860
    3AU     LIG  872   9.909  17.300   6.936
    3AU     LIG  873   9.769  16.847   6.757
    3AU       S  874   9.905  17.557   7.799
    3AU     LIG  875   9.695  17.280   7.482
    3AU     LIG  876   9.477  17.091   7.095
    3AU    AUSL  877  10.462  17.850   7.767
    3AU    AUSL  878  10.655  17.231   7.786
    3AU     AUL  879  10.363  17.421   7.766
    3AU       S  880  10.455  17.007   7.990
    3AU     LIG  881  10.297  16.599   8.198
    3AU     LIG  882   9.939  16.374   8.407
    3AU       S  883  10.120  17.790   7.929
    3AU     LIG  884   9.653  17.904   8.019
    3AU     LIG  885   9.412  17.686   7.675
    3AU    AUSL  886  11.143  18.701   7.948
    3AU    AUSL  887  10.703  18.676   7.887
    3AU     AUL  888  10.946  18.707   8.243
    3AU       S  889  10.565  18.881   8.024
    3AU     LIG  890  10.102  18.956   8.122
    3AU     LIG  891   9.802  19.256   8.321
    3AU       S  892  11.100  19.095   8.006
    3AU     LIG  893  11.476  19.337   8.176
    3AU     LIG  894  11.556  19.720   8.421
    3AU    AUSL  895  10.940  18.898   7.603
    3AU    AUSL  896  11.274  18.951   7.257
    3AU     AUL  897  10.968  19.150   7.371
    3AU       S  898  11.047  19.333   7.840
    3AU     LIG  899  11.081  19.663   8.165
    3AU     LIG  900  11.102  20.095   8.332
    3AU       S  901  11.224  19.164   6.960
    3AU     LIG  902  11.551  19.426   7.040
    3AU     LIG  903  11.489  19.841   7.128
    3AU    AUSL  904  11.413  18.906   7.661
    3AU    AUSL  905  11.433  18.582   8.239
    3AU     AUL  906  11.509  18.850   8.018
    3AU       S  907  11.663  18.690   8.458
    3AU     LIG  908  11.918  18.953   8.785
    3AU     LIG  909  12.163  19.371   8.774
    3AU       S  910  11.321  19.180   7.721
    3AU     LIG  911  11.433  19.622   7.694
    3AU     LIG  912  11.480  19.972   7.991
    3AU    AUSL  913  11.245  17.269   8.134
    3AU    AUSL  914  11.806  17.281   7.707
    3AU     AUL  915  11.561  17.078   8.011
    3AU       S  916  11.157  16.750   8.122
    3AU     LIG  917  10.804  16.554   8.356
    3AU     LIG  918  10.821  16.156   8.575
    3AU       S  919  12.021  17.127   7.813
    3AU     LIG  920  12.310  16.722   8.008
    3AU     LIG  921  12.371  16.452   8.393
    3AU    AUSL  922  11.062  17.099   7.763
    3AU    AUSL  923  10.963  17.527   7.955
    3AU     AUL  924  10.889  17.183   8.111
    3AU       S  925  11.044  16.827   7.855
    3AU     LIG  926  10.739  16.581   7.856
    3AU     LIG  927  10.850  16.148   8.027
    3AU       S  928  10.448  17.061   8.298
    3AU     LIG  929  10.442  16.771   8.657
    3AU     LIG  930  10.578  16.605   9.050
    3AU    AUSL  931  11.394  17.365   7.683
    3AU    AUSL  932  11.028  17.232   7.356
    3AU     AUL  933  11.351  17.004   7.543
    3AU       S  934  10.885  16.881   7.381
    3AU     LIG  935  10.611  16.625   7.102
    3AU     LIG  936  10.566  16.291   6.780
    3AU       S  937  11.262  16.627   7.872
    3AU     LIG  938  11.332  16.176   7.767
    3AU     LIG  939  11.486  15.793   7.992
    3AU    AUSL  940  11.233  18.664   6.933
    3AU    AUSL  941  11.545  18.610   7.270
    3AU     AUL  942  11.591  18.883   7.038
    3AU       S  943  11.242  18.884   6.706
    3AU     LIG  944  11.524  19.259   6.552
    3AU     LIG  945  11.482  19.721   6.601
    3AU       S  946  12.327  18.614   6.919
    3AU     LIG  947  12.361  19.082   6.837
    3AU     LIG  948  12.442  19.407   6.497
    3AU    AUSL  949  10.972  18.621   7.286
    3AU    AUSL  950  10.858  18.531   6.791
    3AU     AUL  951  10.863  18.846   7.000
    3AU       S  952  11.064  19.196   6.727
    3AU     LIG  953  11.065  19.651   6.887
    3AU     LIG  954  11.108  20.088   6.708
    3AU       S  955  10.602  18.642   6.633
    3AU     LIG  956  10.411  18.960   6.356
    3AU     LIG  957  10.212  19.291   6.070
    3AU    AUSL  958  11.171  17.223   6.930
    3AU    AUSL  959  10.642  17.261   7.162
    3AU     AUL  960  10.889  17.129   6.980
    3AU       S  961  10.424  17.219   6.945
    3AU     LIG  962  10.172  16.882   7.073
    3AU     LIG  963  10.085  16.442   6.926
    3AU       S  964  11.123  16.755   7.185
    3AU     LIG  965  10.969  16.672   6.746
    3AU     LIG  966  10.984  16.272   6.488
    3AU    AUSL  967  11.435  17.371   7.260
    3AU    AUSL  968  11.498  17.476   6.815
    3AU     AUL  969  11.505  17.110   7.029
    3AU       S  970  11.036  16.609   7.398
    3AU     LIG  971  11.047  16.270   7.046
    3AU     LIG  972  11.346  15.981   6.792
    3AU       S  973  11.689  17.330   6.632
    3AU     LIG  974  11.841  16.912   6.418
    3AU     LIG  975  12.183  16.611   6.319
    4AU     AUC  976  41.072  14.691   7.489
    4AU     AUC  977  41.370  14.729   7.324
    4AU     AUC  978  41.339  14.709   7.657
    4AU     AUC  979  40.792  14.673   7.322
    4AU     AUC  980  40.791  14.680   7.671
    4AU     AUC  981  40.884  14.932   7.506
    4AU     AUC  982  41.219  14.962   7.488
    4AU     AUC  983  40.918  14.413   7.497
    4AU     AUC  984  41.269  14.458   7.482
    4AU     AUC  985  41.107  14.526   7.762
    4AU     AUC  986  41.053  14.850   7.759
    4AU     AUC  987  41.096  14.537   7.216
    4AU     AUC  988  41.092  14.871   7.223
    4AU     AUC  989  41.685  14.756   7.173
    4AU     AUC  990  41.720  14.748   7.493
    4AU     AUC  991  41.649  14.709   7.856
    4AU     AUC  992  40.487  14.647   7.146
    4AU     AUC  993  40.447  14.700   7.512
    4AU     AUC  994  40.503  14.675   7.847
    4AU     AUC  995  40.713  15.241   7.490
    4AU     AUC  996  41.048  15.307   7.479
    4AU     AUC  997  41.368  15.284   7.501
    4AU     AUC  998  40.736  14.092   7.505
    4AU     AUC  999  41.084  14.132   7.498
    4AU     AUC 1000  41.472  14.171   7.456
    4AU     AUC 1001  41.116  14.304   8.056
    4AU     AUC 1002  41.075  14.627   8.093
    4AU     AUC 1003  41.072  15.004   8.053
    4AU     AUC 1004  41.091  14.336   6.927
    4AU     AUC 1005  41.090  14.686   6.904
    4AU     AUC 1006  41.111  15.041   6.921
    4AU     AUC 1007  41.404  14.463   7.959
    4AU     AUC 1008  41.374  14.834   8.003
    4AU     AUC 1009  41.382  14.548   7.008
    4AU     AUC 1010  41.414  14.915   6.998
    4AU     AUC 1011  40.783  14.471   7.977
    4AU     AUC 1012  40.780  14.828   7.977
    4AU     AUC 1013  40.751  14.470   7.042
    4AU     AUC 1014  40.760  14.847   7.008
    4AU     AUC 1015  41.578  15.025   7.343
    4AU     AUC 1016  41.518  14.992   7.700
    4AU     AUC 1017  40.594  14.953   7.289
    4AU     AUC 1018  40.573  14.988   7.684
    4AU     AUC 1019  41.585  14.451   7.295
    4AU     AUC 1020  41.590  14.416   7.626
    4AU     AUC 1021  40.557  14.384   7.345
    4AU     AUC 1022  40.585  14.399   7.667
    4AU     AUC 1023  40.876  15.176   7.777
    4AU     AUC 1024  41.210  15.176   7.792
    4AU     AUC 1025  40.877  14.190   7.781
    4AU     AUC 1026  41.293  14.194   7.795
    4AU     AUC 1027  40.880  15.128   7.165
    4AU     AUC 1028  41.277  15.171   7.169
    4AU     AUC 1029  40.884  14.206   7.218
    4AU     AUC 1030  41.265  14.230   7.167
    4AU    AUSL 1031  41.668  14.619   8.229
    4AU    AUSL 1032  41.522  14.123   8.093
    4AU     AUL 1033  41.751  14.243   8.297
    4AU       S 1034  41.916  13.848   8.111
    4AU     LIG 1035  41.749  13.489   8.383
    4AU     LIG 1036  41.828  13.187   8.743
    4AU       S 1037  41.929  14.670   8.375
    4AU     LIG 1038  41.907  14.844   8.788
    4AU     LIG 1039  41.969  14.608   9.182
    4AU    AUSL 1040  41.267  14.426   8.291
    4AU    AUSL 1041  40.940  14.765   8.397
    4AU     AUL 1042  41.144  14.598   8.626
    4AU       S 1043  41.592  14.456   8.669
    4AU     LIG 1044  41.460  14.579   9.058
    4AU     LIG 1045  41.561  14.475   9.493
    4AU       S 1046  40.410  14.593   8.656
    4AU     LIG 1047  40.413  14.842   9.020
    4AU     LIG 1048  40.457  14.720   9.465
    4AU    AUSL 1049  41.277  14.853   8.154
    4AU    AUSL 1050  41.693  15.045   8.129
    4AU     AUL 1051  41.510  14.872   8.452
    4AU       S 1052  41.126  15.116   8.624
    4AU     LIG 1053  41.468  15.080   8.911
    4AU     LIG 1054  41.649  14.983   9.324
    4AU       S 1055  41.837  15.194   8.335
    4AU     LIG 1056  42.283  15.206   8.409
    4AU     LIG 1057  42.579  15.498   8.638
    4AU    AUSL 1058  41.653  14.801   6.752
    4AU    AUSL 1059  41.541  15.247   6.822
    4AU     AUL 1060  41.706  15.071   6.512
    4AU       S 1061  41.555  14.676   6.294
    4AU     LIG 1062  41.939  14.789   6.074
    4AU     LIG 1063  42.055  14.664   5.626
    4AU       S 1064  41.884  15.384   6.801
    4AU     LIG 1065  41.858  15.603   6.444
    4AU     LIG 1066  42.126  15.851   6.163
    4AU    AUSL 1067  41.293  14.558   6.722
    4AU    AUSL 1068  41.619  14.469   7.037
    4AU     AUL 1069  41.723  14.496   6.682
    4AU       S 1070  41.871  14.007   6.609
    4AU     LIG 1071  42.337  13.868   6.626
    4AU     LIG 1072  42.624  13.828   6.255
    4AU       S 1073  41.386  14.360   6.371
    4AU     LIG 1074  41.254  14.207   5.931
    4AU     LIG 1075  41.390  14.208   5.465
    4AU    AUSL 1076  41.239  14.990   6.631
    4AU    AUSL 1077  40.920  14.396   6.597
    4AU     AUL 1078  41.095  14.715   6.408
    4AU       S 1079  40.712  14.431   6.287
    4AU     LIG 1080  40.753  14.314   5.837
    4AU     LIG 1081  40.605  14.475   5.431
    4AU       S 1082  41.636  14.386   6.208
    4AU     LIG 1083  41.552  14.600   5.782
    4AU     LIG 1084  41.598  14.685   5.313
    4AU    AUSL 1085  40.584  14.645   8.165
    4AU    AUSL 1086  40.814  15.073   8.121
    4AU     AUL 1087  40.671  14.955   8.433
    4AU       S 1088  40.315  14.645   8.376
    4AU     LIG 1089  39.937  14.661   8.687
    4AU     LIG 1090  40.057  14.473   9.109
    4AU       S 1091  40.384  15.317   8.286
    4AU     LIG 1092  40.080  15.519   8.570
    4AU     LIG 1093  39.782  15.881   8.631
    4AU    AUSL 1094  40.846  14.330   8.362
    4AU    AUSL 1095  40.424  14.251   8.055
    4AU     AUL 1096  40.539  14.239   8.338
    4AU       S 1097  40.283  13.878   8.184
    4AU     LIG 1098  40.063  14.183   8.472
    4AU     LIG 1099  39.937  14.019   8.888
    4AU       S 1100  40.644  14.524   8.681
    4AU     LIG 1101  40.577  14.351   9.101
    4AU     LIG 1102  40.370  14.197   9.492
    4AU    AUSL 1103  40.540  14.562   6.739
    4AU    AUSL 1104  40.807  14.261   6.996
    4AU     AUL 1105  40.656  14.174   6.678
    4AU       S 1106  40.340  14.484   6.483
    4AU     LIG 1107  39.963  14.471   6.189
    4AU     LIG 1108  39.983  14.406   5.710
    4AU       S 1109  40.212  13.971   6.707
    4AU     LIG 1110  40.416  13.544   6.622
    4AU     LIG 1111  40.287  13.207   6.327
    4AU    AUSL 1112  40.895  14.815   6.817
    4AU    AUSL 1113  40.436  14.951   6.896
    4AU     AUL 1114  40.637  14.845   6.540
    4AU       S 1115  40.265  15.091   6.708
    4AU     LIG 1116  39.888  15.365   6.646
    4AU     LIG 1117  39.633  15.514   6.267
    4AU       S 1118  40.441  14.323   6.256
    4AU     LIG 1119  40.388  14.665   5.937
    4AU     LIG 1120  40.243  14.840   5.516
    4AU    AUSL 1121  41.772  15.306   7.545
    4AU    AUSL 1122  41.763  15.016   7.116
    4AU     AUL 1123  41.915  15.401   7.268
    4AU       S 1124  42.017  15.064   6.927
    4AU     LIG 1125  42.251  15.064   6.470
    4AU     LIG 1126  42.550  15.416   6.337
    4AU       S 1127  42.276  15.174   7.888
    4AU     LIG 1128  42.488  15.575   7.771
    4AU     LIG 1129  42.612  15.953   7.965
    4AU    AUSL 1130  42.052  14.965   7.428
    4AU    AUSL 1131  42.036  14.559   7.667
    4AU     AUL 1132  42.346  14.729   7.580
    4AU       S 1133  42.218  15.171   7.606
    4AU     LIG 1134  42.491  15.001   7.207
    4AU     LIG 1135  42.937  14.931   7.074
    4AU       S 1136  42.261  14.264   7.492
    4AU     LIG 1137  42.493  14.262   7.858
    4AU     LIG 1138  42.664  13.958   8.176
    4AU    AUSL 1139  41.763  14.891   7.739
    4AU    AUSL 1140  41.437  15.213   7.799
    4AU     AUL 1141  41.807  15.304   7.872
    4AU       S 1142  41.823  15.506   8.327
    4AU     LIG 1143  42.263  15.700   8.269
    4AU     LIG 1144  42.552  16.039   8.465
    4AU       S 1145  42.108  14.948   7.929
    4AU     LIG 1146  42.498  14.760   8.074
    4AU     LIG 1147  42.946  14.808   8.119
    4AU    AUSL 1148  40.430  15.192   7.521
    4AU    AUSL 1149  40.414  14.984   7.946
    4AU     AUL 1150  40.151  15.332   7.774
    4AU       S 1151  40.295  15.061   8.134
    4AU     LIG 1152  39.888  15.108   8.329
    4AU     LIG 1153  39.563  15.450   8.465
    4AU       S 1154  40.382  15.613   7.479
    4AU     LIG 1155  39.968  15.607   7.293
    4AU     LIG 1156  39.633  15.763   7.535
    4AU    AUSL 1157  40.347  14.820   7.287
    4AU    AUSL 1158  40.481  15.334   7.119
    4AU     AUL 1159  40.195  15.162   7.186
    4AU       S 1160  40.039  14.690   6.920
    4AU     LIG 1161  39.681  15.027   6.983
    4AU     LIG 1162  39.464  15.460   7.066
    4AU       S 1163  40.307  15.548   6.899
    4AU     LIG 1164  40.088  15.977   6.823
    4AU     LIG 1165  39.890  16.270   6.486
    4AU    AUSL 1166  40.110  14.893   7.651
    4AU    AUSL 1167  40.108  14.481   7.404
    4AU     AUL 1168  39.950  14.798   7.363
    4AU       S 1169  39.888  14.443   7.665
    4AU     LIG 1170  39.678  14.347   7.212
    4AU     LIG 1171  39.256  14.236   7.341
    4AU       S 1172  39.866  14.960   7.837
    4AU     LIG 1173  39.648  15.391   7.958
    4AU     LIG 1174  39.190  15.483   8.110
    4AU    AUSL 1175  41.764  14.290   7.440
    4AU    AUSL 1176  41.655  14.445   7.840
    4AU     AUL 1177  41.977  14.310   7.872
    4AU       S 1178  42.064  14.123   7.447
    4AU     LIG 1179  42.181  13.784   7.274
    4AU     LIG 1180  42.576  13.840   7.528
    4AU       S 1181  42.180  13.849   7.918
    4AU     LIG 1182  42.314  13.633   8.354
    4AU     LIG 1183  42.711  13.649   8.644
    4AU    AUSL 1184  41.991  14.597   7.205
    4AU    AUSL 1185  41.710  14.018   7.113
    4AU     AUL 1186  41.932  14.278   7.037
    4AU       S 1187  42.311  14.375   7.275
    4AU     LIG 1188  42.549  14.066   7.074
    4AU     LIG 1189  42.987  13.909   7.097
    4AU       S 1190  41.823  13.856   6.859
    4AU     LIG 1191  42.072  13.485   6.831
    4AU     LIG 1192  42.434  13.295   6.598
    4AU    AUSL 1193  40.482  14.245   7.496
    4AU    AUSL 1194  40.373  14.371   7.080
    4AU     AUL 1195  40.118  14.165   7.328
    4AU       S 1196  40.212  14.213   6.874
    4AU     LIG 1197  39.793  14.260   6.673
    4AU     LIG 1198  39.693  14.025   6.281
    4AU       S 1199  39.709  14.494   7.722
    4AU     LIG 1200  39.678  14.016   7.581
    4AU     LIG 1201  39.638  13.748   7.196
    4AU    AUSL 1202  40.340  14.555   7.773
    4AU    AUSL 1203  40.538  13.928   7.770
    4AU     AUL 1204  40.234  14.134   7.782
    4AU       S 1205  40.364  13.685   7.919
    4AU     LIG 1206  40.135  13.316   8.131
    4AU     LIG 1207  39.703  13.392   8.285
    4AU       S 1208  39.991  14.506   7.927
    4AU     LIG 1209  39.571  14.310   8.144
    4AU     LIG 1210  39.219  14.095   7.858
    4AU    AUSL 1211  41.044  15.400   7.942
    4AU    AUSL 1212  40.607  15.375   7.873
    4AU     AUL 1213  40.846  15.402   8.238
    4AU       S 1214  40.488  15.578   7.995
    4AU     LIG 1215  40.077  15.757   8.106
    4AU     LIG 1216  39.963  16.209   8.225
    4AU       S 1217  41.003  15.782   7.994
    4AU     LIG 1218  41.171  16.019   8.308
    4AU     LIG 1219  41.199  16.467   8.409
    4AU    AUSL 1220  40.849  15.599   7.591
    4AU    AUSL 1221  41.185  15.634   7.246
    4AU     AUL 1222  40.904  15.856   7.351
    4AU       S 1223  41.015  16.017   7.802
    4AU     LIG 1224  40.606  16.092   7.918
    4AU     LIG 1225  40.713  16.276   8.300
    4AU       S 1226  41.128  15.838   6.902
    4AU     LIG 1227  41.214  16.238   7.149
    4AU     LIG 1228  41.494  16.642   7.094
    4AU    AUSL 1229  41.321  15.593   7.652
    4AU    AUSL 1230  41.323  15.268   8.237
    4AU     AUL 1231  41.410  15.536   8.019
    4AU       S 1232  41.547  15.366   8.463
    4AU     LIG 1233  41.888  15.379   8.803
    4AU     LIG 1234  42.167  15.750   8.791
    4AU       S 1235  41.249  15.874   7.719
    4AU     LIG 1236  41.404  16.294   7.943
    4AU     LIG 1237  41.371  16.769   8.027
    4AU    AUSL 1238  41.128  13.956   8.137
    4AU    AUSL 1239  41.688  13.957   7.706
    4AU     AUL 1240  41.451  13.765   8.018
    4AU       S 1241  41.028  13.413   8.120
    4AU     LIG 1242  40.870  12.989   8.301
    4AU     LIG 1243  40.912  12.636   8.648
    4AU       S 1244  41.897  13.801   7.794
    4AU     LIG 1245  42.054  13.369   8.004
    4AU     LIG 1246  42.106  13.071   8.337
    4AU    AUSL 1247  40.943  13.785   7.766
    4AU    AUSL 1248  40.852  14.216   7.949
    4AU     AUL 1249  40.772  13.871   8.104
    4AU       S 1250  40.906  13.490   7.857
    4AU     LIG 1251  40.708  13.087   7.797
    4AU     LIG 1252  40.765  12.646   7.892
    4AU       S 1253  40.086  13.804   8.118
    4AU     LIG 1254  40.057  13.630   8.563
    4AU     LIG 1255  39.940  13.455   8.980
    4AU    AUSL 1256  41.277  14.048   7.686
    4AU    AUSL 1257  40.910  13.919   7.359
    4AU     AUL 1258  41.227  13.689   7.550
    4AU       S 1259  40.765  13.582   7.383
    4AU     LIG 1260  40.455  13.403   7.135
    4AU     LIG 1261  40.598  12.999   7.100
    4AU       S 1262  41.181  13.338   7.892
    4AU     LIG 1263  41.189  12.915   7.903
    4AU     LIG 1264  41.198  12.595   8.225
    4AU    AUSL 1265  41.137  15.337   6.931
    4AU    AUSL 1266  41.448  15.288   7.266
    4AU     AUL 1267  41.490  15.562   7.033
    4AU       S 1268  41.150  15.526   6.692
    4AU     LIG 1269  41.372  15.889   6.452
    4AU     LIG 1270  41.075  16.266   6.391
    4AU       S 1271  42.153  15.318   6.861
    4AU     LIG 1272  42.337  15.716   6.693
    4AU     LIG 1273  42.588  15.990   6.365
    4AU    AUSL 1274  40.874  15.311   7.283
    4AU    AUSL 1275  40.758  15.228   6.783
    4AU     AUL 1276  40.768  15.540   7.004
    4AU       S 1277  40.932  15.740   6.604
    4AU     LIG 1278  40.729  16.110   6.775
    4AU     LIG 1279  40.910  16.516   6.830
    4AU       S 1280  40.505  15.360   6.628
    4AU     LIG 1281  40.423  15.813   6.462
    4AU     LIG 1282  40.170  16.037   6.117
    4AU    AUSL 1283  41.051  13.914   6.931
    4AU    AUSL 1284  40.521  13.957   7.173
    4AU     AUL 1285  40.761  13.823   6.980
    4AU       S 1286  40.284  13.891   6.971
    4AU     LIG 1287  39.960  13.533   6.851
    4AU     LIG 1288  39.666  13.481   6.470
    4AU       S 1289  40.995  13.448   7.186
    4AU     LIG 1290  40.855  13.298   6.788
    4AU     LIG 1291  40.654  12.908   6.597
    4AU    AUSL 1292  41.316  14.055   7.263
    4AU    AUSL 1293  41.392  14.153   6.820
    4AU     AUL 1294  41.384  13.789   7.039
    4AU       S 1295  40.919  13.307   7.389
    4AU     LIG 1296  41.314  13.060   7.262
    4AU     LIG 1297  41.429  12.570   7.234
    4AU       S 1298  41.573  14.009   6.649
    4AU     LIG 1299  41.590  13.529   6.569
    4AU     LIG 1300  41.740  13.217   6.252
    5AU     AUC 1301   8.080  40.532   7.490
    5AU     AUC 1302   8.376  40.564   7.323
    5AU     AUC 1303   8.347  40.542   7.657
    5AU     AUC 1304   7.804  40.518   7.324
    5AU     AUC 1305   7.798  40.531   7.673
    5AU     AUC 1306   7.901  40.781   7.503
    5AU     AUC 1307   8.234  40.799   7.486
    5AU     AUC 1308   7.917  40.258   7.504
    5AU     AUC 1309   8.271  40.292   7.480
    5AU     AUC 1310   8.107  40.370   7.766
    5AU     AUC 1311   8.065  40.693   7.758
    5AU     AUC 1312   8.101  40.374   7.219
    5AU     AUC 1313   8.106  40.711   7.222
    5AU     AUC 1314   8.691  40.583   7.167
    5AU     AUC 1315   8.728  40.572   7.488
    5AU     AUC 1316   8.658  40.535   7.852
    5AU     AUC 1317   7.498  40.494   7.148
    5AU     AUC 1318   7.458  40.551   7.512
    5AU     AUC 1319   7.506  40.536   7.850
    5AU     AUC 1320   7.738  41.090   7.484
    5AU     AUC 1321   8.073  41.148   7.478
    5AU     AUC 1322   8.392  41.120   7.498
    5AU     AUC 1323   7.728  39.940   7.519
    5AU     AUC 1324   8.078  39.974   7.508
    5AU     AUC 1325   8.465  40.005   7.458
    5AU     AUC 1326   8.108  40.156   8.065
    5AU     AUC 1327   8.077  40.477   8.097
    5AU     AUC 1328   8.089  40.850   8.053
    5AU     AUC 1329   8.092  40.171   6.934
    5AU     AUC 1330   8.099  40.521   6.904
    5AU     AUC 1331   8.129  40.882   6.919
    5AU     AUC 1332   8.405  40.301   7.961
    5AU     AUC 1333   8.388  40.669   8.003
    5AU     AUC 1334   8.382  40.383   7.005
    5AU     AUC 1335   8.423  40.748   6.992
    5AU     AUC 1336   7.779  40.329   7.986
    5AU     AUC 1337   7.789  40.682   7.976
    5AU     AUC 1338   7.756  40.308   7.047
    5AU     AUC 1339   7.775  40.688   7.009
    5AU     AUC 1340   8.592  40.854   7.338
    5AU     AUC 1341   8.533  40.821   7.696
    5AU     AUC 1342   7.614  40.801   7.287
    5AU     AUC 1343   7.589  40.842   7.682
    5AU     AUC 1344   8.585  40.279   7.290
    5AU     AUC 1345   8.589  40.246   7.624
    5AU     AUC 1346   7.562  40.231   7.349
    5AU     AUC 1347   7.584  40.256   7.672
    5AU     AUC 1348   7.898  41.022   7.774
    5AU     AUC 1349   8.232  41.016   7.791
    5AU     AUC 1350   7.866  40.044   7.794
    5AU     AUC 1351   8.285  40.040   7.803
    5AU     AUC 1352   7.903  40.974   7.158
    5AU     AUC 1353   8.300  41.010   7.162
    5AU     AUC 1354   7.886  40.046   7.228
    5AU     AUC 1355   8.265  40.061   7.174
    5AU    AUSL 1356   8.668  40.439   8.228
    5AU    AUSL 1357   8.515  39.966   8.101
    5AU     AUL 1358   8.791  40.047   8.285
    5AU       S 1359   8.909  39.649   8.086
    5AU     LIG 1360   8.841  39.370   8.416
    5AU     LIG 1361   9.140  39.185   8.707
    5AU       S 1362   8.909  40.480   8.358
    5AU     LIG 1363   8.942  40.673   8.752
    5AU     LIG 1364   9.036  40.438   9.137
    5AU    AUSL 1365   8.255  40.271   8.293
    5AU    AUSL 1366   7.947  40.624   8.399
    5AU     AUL 1367   8.116  40.476   8.643
    5AU       S 1368   8.471  40.195   8.571
    5AU     LIG 1369   8.538  40.415   8.941
    5AU     LIG 1370   8.592  40.290   9.382
    5AU       S 1371   7.384  40.568   8.703
    5AU     LIG 1372   7.515  40.649   9.142
    5AU     LIG 1373   7.413  40.672   9.595
    5AU    AUSL 1374   8.287  40.694   8.154
    5AU    AUSL 1375   8.711  40.863   8.125
    5AU     AUL 1376   8.512  40.697   8.456
    5AU       S 1377   8.148  40.976   8.620
    5AU     LIG 1378   8.519  40.943   8.889
    5AU     LIG 1379   8.696  40.793   9.277
    5AU       S 1380   8.858  41.006   8.337
    5AU     LIG 1381   9.164  41.150   8.645
    5AU     LIG 1382   9.382  41.534   8.786
    5AU    AUSL 1383   8.662  40.631   6.742
    5AU    AUSL 1384   8.562  41.077   6.816
    5AU     AUL 1385   8.699  40.905   6.497
    5AU       S 1386   8.568  40.496   6.285
    5AU     LIG 1387   8.977  40.526   6.069
    5AU     LIG 1388   9.084  40.289   5.663
    5AU       S 1389   8.929  41.183   6.791
    5AU     LIG 1390   8.834  41.578   6.620
    5AU     LIG 1391   8.907  41.840   6.229
    5AU    AUSL 1392   8.300  40.396   6.708
    5AU    AUSL 1393   8.615  40.303   7.032
    5AU     AUL 1394   8.722  40.325   6.682
    5AU       S 1395   8.866  39.863   6.602
    5AU     LIG 1396   9.204  39.655   6.380
    5AU     LIG 1397   9.422  39.480   6.008
    5AU       S 1398   8.383  40.194   6.366
    5AU     LIG 1399   8.247  40.010   5.940
    5AU     LIG 1400   8.435  39.977   5.488
    5AU    AUSL 1401   8.244  40.832   6.636
    5AU    AUSL 1402   7.924  40.230   6.601
    5AU     AUL 1403   8.107  40.559   6.407
    5AU       S 1404   7.737  40.263   6.289
    5AU     LIG 1405   7.747  40.154   5.808
    5AU     LIG 1406   7.507  40.191   5.395
    5AU       S 1407   8.635  40.176   6.219
    5AU     LIG 1408   8.573  40.376   5.789
    5AU     LIG 1409   8.693  40.453   5.348
    5AU    AUSL 1410   7.586  40.512   8.170
    5AU    AUSL 1411   7.830  40.924   8.113
    5AU     AUL 1412   7.692  40.826   8.428
    5AU       S 1413   7.325  40.527   8.382
    5AU     LIG 1414   7.082  40.192   8.633
    5AU     LIG 1415   7.145  40.266   9.107
    5AU       S 1416   7.412  41.186   8.284
    5AU     LIG 1417   7.345  41.597   8.482
    5AU     LIG 1418   7.159  41.999   8.677
    5AU    AUSL 1419   7.833  40.193   8.377
    5AU    AUSL 1420   7.410  40.124   8.070
    5AU     AUL 1421   7.519  40.110   8.356
    5AU       S 1422   7.211  39.781   8.205
    5AU     LIG 1423   6.759  39.851   8.306
    5AU     LIG 1424   6.413  39.574   8.497
    5AU       S 1425   7.615  40.415   8.681
    5AU     LIG 1426   7.655  40.164   9.040
    5AU     LIG 1427   7.512  40.170   9.482
    5AU    AUSL 1428   7.545  40.405   6.740
    5AU    AUSL 1429   7.811  40.098   7.001
    5AU     AUL 1430   7.659  40.014   6.682
    5AU       S 1431   7.358  40.322   6.474
    5AU     LIG 1432   7.034  40.387   6.133
    5AU     LIG 1433   7.092  40.363   5.665
    5AU       S 1434   7.224  39.800   6.707
    5AU     LIG 1435   7.258  39.338   6.617
    5AU     LIG 1436   7.013  39.006   6.362
    5AU    AUSL 1437   7.907  40.645   6.820
    5AU    AUSL 1438   7.456  40.798   6.897
    5AU     AUL 1439   7.652  40.683   6.542
    5AU       S 1440   7.291  40.940   6.711
    5AU     LIG 1441   7.006  41.267   6.536
    5AU     LIG 1442   6.747  41.582   6.296
    5AU       S 1443   7.473  40.175   6.246
    5AU     LIG 1444   7.482  40.564   5.962
    5AU     LIG 1445   7.492  40.696   5.506
    5AU    AUSL 1446   8.795  41.132   7.539
    5AU    AUSL 1447   8.773  40.835   7.109
    5AU     AUL 1448   8.941  41.219   7.257
    5AU       S 1449   9.029  40.874   6.920
    5AU     LIG 1450   9.190  40.928   6.450
    5AU     LIG 1451   9.256  41.395   6.377
    5AU       S 1452   9.288  41.031   7.983
    5AU     LIG 1453   9.647  41.280   7.767
    5AU     LIG 1454  10.051  41.432   7.553
    5AU    AUSL 1455   9.063  40.785   7.418
    5AU    AUSL 1456   9.042  40.378   7.655
    5AU     AUL 1457   9.342  40.558   7.522
    5AU       S 1458   9.237  40.988   7.663
    5AU     LIG 1459   9.580  40.971   7.359
    5AU     LIG 1460   9.986  41.097   7.178
    5AU       S 1461   9.261  40.083   7.485
    5AU     LIG 1462   9.608  40.152   7.740
    5AU     LIG 1463   9.976  39.886   7.777
    5AU    AUSL 1464   8.776  40.715   7.732
    5AU    AUSL 1465   8.459  41.044   7.795
    5AU     AUL 1466   8.825  41.123   7.872
    5AU       S 1467   8.827  41.308   8.320
    5AU     LIG 1468   9.115  41.604   8.251
    5AU     LIG 1469   9.204  41.924   8.522
    5AU       S 1470   9.136  40.761   7.920
    5AU     LIG 1471   9.647  40.708   7.863
    5AU     LIG 1472  10.023  40.920   7.705
    5AU    AUSL 1473   7.461  41.044   7.516
    5AU    AUSL 1474   7.425  40.849   7.943
    5AU     AUL 1475   7.184  41.200   7.749
    5AU       S 1476   7.308  40.941   8.131
    5AU     LIG 1477   6.925  41.220   8.196
    5AU     LIG 1478   6.825  41.613   8.452
    5AU       S 1479   7.431  41.487   7.467
    5AU     LIG 1480   7.017  41.473   7.330
    5AU     LIG 1481   6.643  41.703   7.411
    5AU    AUSL 1482   7.363  40.670   7.288
    5AU    AUSL 1483   7.504  41.187   7.113
    5AU     AUL 1484   7.221  41.018   7.192
    5AU       S 1485   7.061  40.538   6.914
    5AU     LIG 1486   6.818  40.941   6.922
    5AU     LIG 1487   6.580  41.214   7.214
    5AU       S 1488   7.335  41.397   6.900
    5AU     LIG 1489   7.022  41.757   6.723
    5AU     LIG 1490   6.691  42.065   6.455
    5AU    AUSL 1491   7.124  40.758   7.646
    5AU    AUSL 1492   7.112  40.339   7.402
    5AU     AUL 1493   6.963  40.656   7.353
    5AU       S 1494   6.873  40.310   7.665
    5AU     LIG 1495   6.643  40.223   7.245
    5AU     LIG 1496   6.263  39.921   7.189
    5AU       S 1497   6.916  40.817   7.821
    5AU     LIG 1498   6.662  41.202   7.732
    5AU     LIG 1499   6.221  41.165   7.888
    5AU    AUSL 1500   8.763  40.112   7.434
    5AU    AUSL 1501   8.662  40.272   7.835
    5AU     AUL 1502   8.982  40.129   7.855
    5AU       S 1503   9.064  39.919   7.435
    5AU     LIG 1504   9.350  39.651   7.215
    5AU     LIG 1505   9.551  39.625   7.604
    5AU       S 1506   9.139  39.648   7.887
    5AU     LIG 1507   9.332  39.415   8.254
    5AU     LIG 1508   9.654  39.313   8.554
    5AU    AUSL 1509   8.993  40.415   7.197
    5AU    AUSL 1510   8.702  39.853   7.099
    5AU     AUL 1511   8.931  40.102   7.036
    5AU       S 1512   9.324  40.160   7.269
    5AU     LIG 1513   9.767  39.969   7.282
    5AU     LIG 1514  10.211  39.821   7.306
    5AU       S 1515   8.816  39.682   6.827
    5AU     LIG 1516   9.191  39.357   6.797
    5AU     LIG 1517   9.427  39.166   6.422
    5AU    AUSL 1518   7.479  40.091   7.503
    5AU    AUSL 1519   7.382  40.220   7.085
    5AU     AUL 1520   7.116  40.028   7.328
    5AU       S 1521   7.212  40.055   6.873
    5AU     LIG 1522   6.785  39.823   6.937
    5AU     LIG 1523   6.736  39.464   6.630
    5AU       S 1524   6.782  40.124   7.728
    5AU     LIG 1525   6.694  39.767   7.452
    5AU     LIG 1526   6.399  39.449   7.489
    5AU    AUSL 1527   7.345  40.414   7.770
    5AU    AUSL 1528   7.521  39.791   7.800
    5AU     AUL 1529   7.236  39.989   7.786
    5AU       S 1530   7.353  39.551   7.967
    5AU     LIG 1531   7.200  39.067   8.079
    5AU     LIG 1532   7.207  38.738   8.429
    5AU       S 1533   6.972  40.353   7.907
    5AU     LIG 1534   6.494  40.246   8.089
    5AU     LIG 1535   6.367  39.821   7.902
    5AU    AUSL 1536   8.071  41.244   7.944
    5AU    AUSL 1537   7.632  41.234   7.870
    5AU     AUL 1538   7.873  41.253   8.234
    5AU       S 1539   7.515  41.443   7.994
    5AU     LIG 1540   7.116  41.673   8.019
    5AU     LIG 1541   6.932  42.081   8.220
    5AU       S 1542   8.036  41.629   8.000
    5AU     LIG 1543   8.210  41.969   8.277
    5AU     LIG 1544   8.398  42.345   8.498
    5AU    AUSL 1545   7.887  41.431   7.585
    5AU    AUSL 1546   8.221  41.473   7.250
    5AU     AUL 1547   7.942  41.684   7.361
    5AU       S 1548   7.910  41.811   7.871
    5AU     LIG 1549   7.870  42.193   7.956
    5AU     LIG 1550   8.142  42.501   8.099
    5AU       S 1551   8.193  41.705   6.951
    5AU     LIG 1552   8.419  42.120   6.964
    5AU     LIG 1553   8.240  42.567   6.937
    5AU    AUSL 1554   8.355  41.432   7.657
    5AU    AUSL 1555   8.355  41.107   8.233
    5AU     AUL 1556   8.439  41.374   8.015
    5AU       S 1557   8.587  41.207   8.458
    5AU     LIG 1558   8.843  41.585   8.722
    5AU     LIG 1559   9.065  41.900   9.020
    5AU       S 1560   8.236  41.719   7.755
    5AU     LIG 1561   8.356  42.122   7.814
    5AU     LIG 1562   8.636  42.403   7.988
    5AU    AUSL 1563   8.116  39.811   8.147
    5AU    AUSL 1564   8.668  39.792   7.709
    5AU     AUL 1565   8.433  39.613   8.035
    5AU       S 1566   7.749  39.248   8.113
    5AU     LIG 1567   7.739  38.835   8.282
    5AU     LIG 1568   7.949  38.416   8.410
    5AU       S 1569   8.853  39.625   7.777
    5AU     LIG 1570   8.961  39.160   7.960
    5AU     LIG 1571   8.992  38.845   8.318
    5AU    AUSL 1572   7.919  39.638   7.784
    5AU    AUSL 1573   7.841  40.076   7.965
    5AU     AUL 1574   7.760  39.746   8.134
    5AU       S 1575   7.827  39.374   7.859
    5AU     LIG 1576   7.499  39.136   7.695
    5AU     LIG 1577   7.622  38.729   7.763
    5AU       S 1578   7.318  39.545   8.241
    5AU     LIG 1579   7.316  39.228   8.553
    5AU     LIG 1580   7.048  39.003   8.872
    5AU    AUSL 1581   8.259  39.892   7.699
    5AU    AUSL 1582   7.903  39.767   7.374
    5AU     AUL 1583   8.202  39.526   7.585
    5AU       S 1584   7.757  39.422   7.383
    5AU     LIG 1585   7.460  39.104   7.195
    5AU     LIG 1586   7.714  38.723   7.108
    5AU       S 1587   7.997  39.161   7.942
    5AU     LIG 1588   8.128  38.725   7.840
    5AU     LIG 1589   8.252  38.314   8.022
    5AU    AUSL 1590   8.165  41.202   6.916
    5AU    AUSL 1591   8.470  41.118   7.260
    5AU     AUL 1592   8.533  41.391   7.028
    5AU       S 1593   8.186  41.438   6.696
    5AU     LIG 1594   8.419  41.849   6.508
    5AU     LIG 1595   8.231  42.285   6.506
    5AU       S 1596   9.250  41.076   6.915
    5AU     LIG 1597   9.279  41.546   6.898
    5AU     LIG 1598   9.245  41.917   6.613
    5AU    AUSL 1599   7.899  41.156   7.266
    5AU    AUSL 1600   7.788  41.062   6.787
    5AU     AUL 1601   7.803  41.389   6.989
    5AU       S 1602   7.993  41.747   6.728
    5AU     LIG 1603   7.902  42.119   7.003
    5AU     LIG 1604   7.737  42.529   6.936
    5AU       S 1605   7.538  41.188   6.625
    5AU     LIG 1606   7.437  41.579   6.436
    5AU     LIG 1607   7.172  41.882   6.248
    5AU    AUSL 1608   8.044  39.741   6.950
    5AU    AUSL 1609   7.517  39.803   7.181
    5AU     AUL 1610   7.757  39.665   6.989
    5AU       S 1611   7.287  39.742   6.982
    5AU     LIG 1612   7.008  39.365   7.060
    5AU     LIG 1613   6.826  38.991   6.843
    5AU       S 1614   7.979  39.283   7.211
    5AU     LIG 1615   7.786  39.162   6.816
    5AU     LIG 1616   7.828  38.763   6.587
    5AU    AUSL 1617   8.319  39.872   7.278
    5AU    AUSL 1618   8.371  39.991   6.829
    5AU     AUL 1619   8.382  39.623   7.034
    5AU       S 1620   7.924  39.124   7.427
    5AU     LIG 1621   8.192  38.755   7.293
    5AU     LIG 1622   8.096  38.390   6.990
    5AU       S 1623   8.561  39.842   6.638
    5AU     LIG 1624   8.677  39.582   6.249
    5AU     LIG 1625   8.982  39.229   6.165
    6AU     AUC 1626  20.748  44.645   7.500
    6AU     AUC 1627  21.045  44.691   7.340
    6AU     AUC 1628  21.012  44.672   7.673
    6AU     AUC 1629  20.472  44.614   7.329
    6AU     AUC 1630  20.471  44.628   7.679
    6AU     AUC 1631  20.552  44.881   7.511
    6AU     AUC 1632  20.886  44.922   7.496
    6AU     AUC 1633  20.597  44.361   7.511
    6AU     AUC 1634  20.951  44.419   7.499
    6AU     AUC 1635  20.781  44.485   7.779
    6AU     AUC 1636  20.720  44.808   7.769
    6AU     AUC 1637  20.782  44.488   7.232
    6AU     AUC 1638  20.765  44.821   7.231
    6AU     AUC 1639  21.362  44.724   7.195
    6AU     AUC 1640  21.394  44.720   7.515
    6AU     AUC 1641  21.321  44.685   7.875
    6AU     AUC 1642  20.173  44.573   7.149
    6AU     AUC 1643  20.129  44.619   7.514
    6AU     AUC 1644  20.173  44.612   7.859
    6AU     AUC 1645  20.368   0.179   7.488
    6AU     AUC 1646  20.701   0.258   7.479
    6AU     AUC 1647  21.022   0.248   7.504
    6AU     AUC 1648  20.427  44.033   7.520
    6AU     AUC 1649  20.771  44.090   7.518
    6AU     AUC 1650  21.161  44.138   7.483
    6AU     AUC 1651  20.790  44.271   8.078
    6AU     AUC 1652  20.745  44.594   8.108
    6AU     AUC 1653  20.731  44.970   8.061
    6AU     AUC 1654  20.792  44.283   6.943
    6AU     AUC 1655  20.776  44.633   6.915
    6AU     AUC 1656  20.782  44.988   6.927
    6AU     AUC 1657  21.080  44.435   7.980
    6AU     AUC 1658  21.040  44.806   8.016
    6AU     AUC 1659  21.070  44.505   7.029
    6AU     AUC 1660  21.088  44.874   7.013
    6AU     AUC 1661  20.458  44.426   7.996
    6AU     AUC 1662  20.447  44.782   7.986
    6AU     AUC 1663  20.445  44.405   7.046
    6AU     AUC 1664  20.438  44.780   7.012
    6AU     AUC 1665  21.241  44.995   7.355
    6AU     AUC 1666  21.180  44.963   7.711
    6AU     AUC 1667  20.264  44.882   7.294
    6AU     AUC 1668  20.238  44.923   7.689
    6AU     AUC 1669  21.272  44.417   7.320
    6AU     AUC 1670  21.271  44.388   7.650
    6AU     AUC 1671  20.250  44.311   7.345
    6AU     AUC 1672  20.266  44.335   7.671
    6AU     AUC 1673  20.532   0.127   7.779
    6AU     AUC 1674  20.866   0.139   7.796
    6AU     AUC 1675  20.553  44.146   7.802
    6AU     AUC 1676  20.973  44.164   7.819
    6AU     AUC 1677  20.543   0.070   7.166
    6AU     AUC 1678  20.938   0.129   7.174
    6AU     AUC 1679  20.581  44.152   7.227
    6AU     AUC 1680  20.962  44.184   7.191
    6AU    AUSL 1681  21.336  44.598   8.251
    6AU    AUSL 1682  21.205  44.099   8.122
    6AU     AUL 1683  21.478  44.204   8.329
    6AU       S 1684  21.603  43.812   8.122
    6AU     LIG 1685  21.431  43.622   8.473
    6AU     LIG 1686  21.555  43.225   8.676
    6AU       S 1687  21.562  44.648   8.343
    6AU     LIG 1688  21.587  44.815   8.754
    6AU     LIG 1689  21.695  44.530   9.114
    6AU    AUSL 1690  20.933  44.402   8.299
    6AU    AUSL 1691  20.605  44.733   8.407
    6AU     AUL 1692  20.771  44.611   8.658
    6AU       S 1693  21.100  44.324   8.543
    6AU     LIG 1694  21.196  44.523   8.932
    6AU     LIG 1695  21.261  44.392   9.379
    6AU       S 1696  20.033  44.543   8.656
    6AU     LIG 1697  20.083  44.901   8.932
    6AU     LIG 1698  20.062  44.901   9.397
    6AU    AUSL 1699  20.941  44.827   8.165
    6AU    AUSL 1700  21.351   0.025   8.141
    6AU     AUL 1701  21.158  44.843   8.471
    6AU       S 1702  20.775   0.104   8.626
    6AU     LIG 1703  21.153   0.075   8.901
    6AU     LIG 1704  21.370  44.897   9.258
    6AU       S 1705  21.468   0.183   8.349
    6AU     LIG 1706  21.891   0.210   8.426
    6AU     LIG 1707  22.287   0.423   8.354
    6AU    AUSL 1708  21.337  44.761   6.770
    6AU    AUSL 1709  21.208   0.206   6.832
    6AU     AUL 1710  21.375   0.036   6.521
    6AU       S 1711  21.264  44.615   6.331
    6AU     LIG 1712  21.624  44.726   6.095
    6AU     LIG 1713  21.713  44.514   5.690
    6AU       S 1714  21.578   0.323   6.821
    6AU     LIG 1715  21.504   0.671   6.599
    6AU     LIG 1716  21.665   0.965   6.275
    6AU    AUSL 1717  20.985  44.507   6.750
    6AU    AUSL 1718  21.310  44.434   7.066
    6AU     AUL 1719  21.430  44.461   6.728
    6AU       S 1720  21.593  43.999   6.645
    6AU     LIG 1721  22.027  43.858   6.560
    6AU     LIG 1722  22.442  43.910   6.306
    6AU       S 1723  21.104  44.315   6.405
    6AU     LIG 1724  20.997  44.083   6.002
    6AU     LIG 1725  21.163  44.103   5.549
    6AU    AUSL 1726  20.919  44.935   6.641
    6AU    AUSL 1727  20.628  44.337   6.598
    6AU     AUL 1728  20.801  44.659   6.420
    6AU       S 1729  20.439  44.361   6.289
    6AU     LIG 1730  20.517  44.255   5.853
    6AU     LIG 1731  20.215  44.310   5.510
    6AU       S 1732  21.360  44.315   6.260
    6AU     LIG 1733  21.209  44.524   5.849
    6AU     LIG 1734  21.277  44.617   5.403
    6AU    AUSL 1735  20.257  44.594   8.174
    6AU    AUSL 1736  20.472   0.034   8.128
    6AU     AUL 1737  20.338  44.912   8.443
    6AU       S 1738  19.996  44.594   8.373
    6AU     LIG 1739  19.687  44.892   8.589
    6AU     LIG 1740  19.570  44.971   9.040
    6AU       S 1741  20.044   0.256   8.294
    6AU     LIG 1742  19.849   0.379   8.695
    6AU     LIG 1743  19.527   0.720   8.817
    6AU    AUSL 1744  20.521  44.293   8.391
    6AU    AUSL 1745  20.087  44.203   8.080
    6AU     AUL 1746  20.220  44.184   8.360
    6AU       S 1747  19.851  43.925   8.213
    6AU     LIG 1748  19.519  43.773   8.522
    6AU     LIG 1749  19.111  43.649   8.707
    6AU       S 1750  20.291  44.495   8.688
    6AU     LIG 1751  20.325  44.483   9.138
    6AU     LIG 1752  20.120  44.390   9.552
    6AU    AUSL 1753  20.236  44.486   6.730
    6AU    AUSL 1754  20.515  44.206   6.997
    6AU     AUL 1755  20.374  44.106   6.678
    6AU       S 1756  20.063  44.407   6.477
    6AU     LIG 1757  19.822  44.701   6.278
    6AU     LIG 1758  19.721  44.559   5.864
    6AU       S 1759  19.915  43.956   6.672
    6AU     LIG 1760  19.843  43.570   6.475
    6AU     LIG 1761  19.633  43.298   6.164
    6AU    AUSL 1762  20.578  44.753   6.822
    6AU    AUSL 1763  20.117  44.862   6.903
    6AU     AUL 1764  20.339  44.774   6.537
    6AU       S 1765  19.943  44.965   6.707
    6AU     LIG 1766  19.576   0.202   6.568
    6AU     LIG 1767  19.182   0.442   6.447
    6AU       S 1768  20.162  44.301   6.237
    6AU     LIG 1769  20.215  44.664   5.934
    6AU     LIG 1770  20.035  44.802   5.510
    6AU    AUSL 1771  21.426   0.284   7.553
    6AU    AUSL 1772  21.422  44.981   7.136
    6AU     AUL 1773  21.569   0.382   7.278
    6AU       S 1774  21.678   0.031   6.949
    6AU     LIG 1775  21.878   0.127   6.487
    6AU     LIG 1776  21.999   0.585   6.443
    6AU       S 1777  21.951   0.214   7.922
    6AU     LIG 1778  22.358   0.416   7.779
    6AU     LIG 1779  22.513   0.587   7.336
    6AU    AUSL 1780  21.718  44.954   7.444
    6AU    AUSL 1781  21.716  44.549   7.696
    6AU     AUL 1782  22.012  44.751   7.568
    6AU       S 1783  21.883   0.189   7.653
    6AU     LIG 1784  22.226   0.160   7.353
    6AU     LIG 1785  22.387   0.302   6.930
    6AU       S 1786  21.956  44.278   7.528
    6AU     LIG 1787  22.223  44.316   7.865
    6AU     LIG 1788  22.340  43.955   8.164
    6AU    AUSL 1789  21.428  44.870   7.753
    6AU    AUSL 1790  21.093   0.183   7.806
    6AU     AUL 1791  21.460   0.281   7.883
    6AU       S 1792  21.465   0.509   8.317
    6AU     LIG 1793  21.891   0.680   8.126
    6AU     LIG 1794  22.314   0.919   8.193
    6AU       S 1795  21.791  44.949   7.948
    6AU     LIG 1796  22.315  44.878   7.932
    6AU     LIG 1797  22.753   0.071   7.870
    6AU    AUSL 1798  20.088   0.116   7.521
    6AU    AUSL 1799  20.081  44.919   7.947
    6AU     AUL 1800  19.806   0.237   7.757
    6AU       S 1801  19.963   0.018   8.149
    6AU     LIG 1802  19.548   0.239   8.240
    6AU     LIG 1803  19.343   0.275   8.667
    6AU       S 1804  20.023   0.538   7.473
    6AU     LIG 1805  19.645   0.550   7.229
    6AU     LIG 1806  19.396   0.891   7.101
    6AU    AUSL 1807  20.018  44.741   7.296
    6AU    AUSL 1808  20.132   0.256   7.116
    6AU     AUL 1809  19.860   0.075   7.180
    6AU       S 1810  19.713  44.604   6.944
    6AU     LIG 1811  19.406  44.972   6.993
    6AU     LIG 1812  19.192   0.390   6.961
    6AU       S 1813  19.959   0.428   6.848
    6AU     LIG 1814  19.614   0.711   6.663
    6AU     LIG 1815  19.560   1.077   6.325
    6AU    AUSL 1816  19.780  44.795   7.665
    6AU    AUSL 1817  19.795  44.387   7.401
    6AU     AUL 1818  19.637  44.716   7.390
    6AU       S 1819  19.571  44.332   7.653
    6AU     LIG 1820  19.305  44.139   7.284
    6AU     LIG 1821  18.869  44.061   7.132
    6AU       S 1822  19.576  44.847   7.891
    6AU     LIG 1823  19.236  44.912   7.711
    6AU     LIG 1824  18.808  44.972   7.834
    6AU    AUSL 1825  21.462  44.263   7.472
    6AU    AUSL 1826  21.335  44.420   7.864
    6AU     AUL 1827  21.661  44.286   7.893
    6AU       S 1828  21.791  44.073   7.491
    6AU     LIG 1829  22.184  43.847   7.646
    6AU     LIG 1830  22.546  43.659   7.458
    6AU       S 1831  21.799  43.692   7.926
    6AU     LIG 1832  21.878  43.416   8.300
    6AU     LIG 1833  22.155  43.477   8.671
    6AU    AUSL 1834  21.676  44.576   7.233
    6AU    AUSL 1835  21.412  43.984   7.150
    6AU     AUL 1836  21.632  44.241   7.087
    6AU       S 1837  22.007  44.346   7.326
    6AU     LIG 1838  22.085  43.965   7.084
    6AU     LIG 1839  22.465  43.952   6.843
    6AU       S 1840  21.535  43.824   6.876
    6AU     LIG 1841  21.682  43.472   6.626
    6AU     LIG 1842  21.975  43.222   6.389
    6AU    AUSL 1843  20.173  44.151   7.491
    6AU    AUSL 1844  20.078  44.309   7.083
    6AU     AUL 1845  19.818  44.074   7.309
    6AU       S 1846  19.909  44.150   6.862
    6AU     LIG 1847  19.449  43.970   6.823
    6AU     LIG 1848  19.297  43.567   6.597
    6AU       S 1849  19.413  44.376   7.742
    6AU     LIG 1850  19.444  43.856   7.656
    6AU     LIG 1851  19.235  43.615   7.256
    6AU    AUSL 1852  20.041  44.472   7.758
    6AU    AUSL 1853  20.222  43.879   7.814
    6AU     AUL 1854  19.931  44.047   7.768
    6AU       S 1855  20.022  43.662   8.025
    6AU     LIG 1856  19.561  43.548   8.070
    6AU     LIG 1857  19.247  43.313   8.329
    6AU       S 1858  19.665  44.389   7.915
    6AU     LIG 1859  19.359  44.069   8.115
    6AU     LIG 1860  18.997  44.030   7.846
    6AU    AUSL 1861  20.692   0.361   7.939
    6AU    AUSL 1862  20.254   0.320   7.869
    6AU     AUL 1863  20.492   0.375   8.225
    6AU       S 1864  20.090   0.509   8.016
    6AU     LIG 1865  19.742   0.697   8.316
    6AU     LIG 1866  19.527   1.087   8.450
    6AU       S 1867  20.642   0.757   7.977
    6AU     LIG 1868  20.824   0.952   8.346
    6AU     LIG 1869  20.791   1.367   8.599
    6AU    AUSL 1870  20.492   0.540   7.584
    6AU    AUSL 1871  20.824   0.588   7.241
    6AU     AUL 1872  20.518   0.792   7.346
    6AU       S 1873  20.637   0.985   7.793
    6AU     LIG 1874  20.600   1.317   8.080
    6AU     LIG 1875  20.623   1.740   8.275
    6AU       S 1876  20.772   0.795   6.935
    6AU     LIG 1877  20.901   1.231   7.101
    6AU     LIG 1878  21.057   1.696   7.019
    6AU    AUSL 1879  20.964   0.555   7.646
    6AU    AUSL 1880  20.974   0.244   8.240
    6AU     AUL 1881  21.053   0.513   8.014
    6AU       S 1882  21.194   0.353   8.463
    6AU     LIG 1883  21.561   0.408   8.788
    6AU     LIG 1884  21.921   0.703   8.646
    6AU       S 1885  20.879   0.823   7.691
    6AU     LIG 1886  21.131   1.082   7.947
    6AU     LIG 1887  21.071   1.457   8.189
    6AU    AUSL 1888  20.811  43.926   8.155
    6AU    AUSL 1889  21.367  43.931   7.731
    6AU     AUL 1890  21.126  43.739   8.051
    6AU       S 1891  20.685  43.365   8.124
    6AU     LIG 1892  20.574  42.909   8.248
    6AU     LIG 1893  20.619  42.596   8.629
    6AU       S 1894  21.544  43.802   7.825
    6AU     LIG 1895  21.424  43.340   8.036
    6AU     LIG 1896  21.572  42.921   8.234
    6AU    AUSL 1897  20.628  43.746   7.784
    6AU    AUSL 1898  20.524  44.181   7.976
    6AU     AUL 1899  20.465  43.829   8.130
    6AU       S 1900  20.552  43.448   7.861
    6AU     LIG 1901  20.380  43.020   7.758
    6AU     LIG 1902  20.459  42.587   7.843
    6AU       S 1903  20.013  43.719   8.306
    6AU     LIG 1904  19.814  43.351   8.465
    6AU     LIG 1905  19.489  43.267   8.775
    6AU    AUSL 1906  20.957  44.017   7.713
    6AU    AUSL 1907  20.604  43.872   7.374
    6AU     AUL 1908  20.917  43.651   7.587
    6AU       S 1909  20.481  43.510   7.384
    6AU     LIG 1910  20.186  43.126   7.270
    6AU     LIG 1911  20.095  42.774   6.947
    6AU       S 1912  20.816  43.283   7.896
    6AU     LIG 1913  21.056  42.958   8.026
    6AU     LIG 1914  20.976  42.589   8.225
    6AU    AUSL 1915  20.798   0.287   6.927
    6AU    AUSL 1916  21.104   0.257   7.272
    6AU     AUL 1917  21.147   0.520   7.029
    6AU       S 1918  20.803   0.502   6.696
    6AU     LIG 1919  21.056   0.928   6.554
    6AU     LIG 1920  20.888   1.374   6.579
    6AU       S 1921  21.887   0.170   6.976
    6AU     LIG 1922  21.967   0.615   6.970
    6AU     LIG 1923  21.881   1.024   6.769
    6AU    AUSL 1924  20.527   0.253   7.275
    6AU    AUSL 1925  20.421   0.158   6.788
    6AU     AUL 1926  20.414   0.472   6.989
    6AU       S 1927  20.599   0.772   6.661
    6AU     LIG 1928  20.431   1.170   6.864
    6AU     LIG 1929  20.571   1.586   6.909
    6AU       S 1930  20.163   0.253   6.616
    6AU     LIG 1931  20.043   0.531   6.242
    6AU     LIG 1932  20.029   0.703   5.770
    6AU    AUSL 1933  20.765  43.860   6.954
    6AU    AUSL 1934  20.233  43.891   7.151
    6AU     AUL 1935  20.484  43.762   6.988
    6AU       S 1936  20.010  43.849   6.926
    6AU     LIG 1937  19.682  43.525   6.965
    6AU     LIG 1938  19.598  43.158   6.682
    6AU       S 1939  20.724  43.396   7.206
    6AU     LIG 1940  20.554  43.081   6.913
    6AU     LIG 1941  20.652  42.671   6.730
    6AU    AUSL 1942  21.015  44.009   7.293
    6AU    AUSL 1943  21.101  44.107   6.848
    6AU     AUL 1944  21.099  43.747   7.070
    6AU       S 1945  20.670  43.235   7.406
    6AU     LIG 1946  20.970  42.937   7.183
    6AU     LIG 1947  21.179  42.735   6.812
    6AU       S 1948  21.292  43.973   6.683
    6AU     LIG 1949  21.356  43.757   6.275
    6AU     LIG 1950  21.601  43.394   6.085
    7AU     AUC 1951  38.416   7.160   7.491
    7AU     AUC 1952  38.714   7.201   7.326
    7AU     AUC 1953  38.685   7.183   7.659
    7AU     AUC 1954  38.133   7.143   7.328
    7AU     AUC 1955  38.133   7.150   7.667
    7AU     AUC 1956  38.230   7.401   7.510
    7AU     AUC 1957  38.568   7.433   7.490
    7AU     AUC 1958  38.245   6.877   7.500
    7AU     AUC 1959  38.613   6.930   7.487
    7AU     AUC 1960  38.453   7.001   7.757
    7AU     AUC 1961  38.394   7.324   7.757
    7AU     AUC 1962  38.445   7.007   7.225
    7AU     AUC 1963  38.442   7.340   7.230
    7AU     AUC 1964  39.026   7.225   7.171
    7AU     AUC 1965  39.063   7.223   7.494
    7AU     AUC 1966  38.993   7.186   7.858
    7AU     AUC 1967  37.832   7.127   7.143
    7AU     AUC 1968  37.794   7.154   7.486
    7AU     AUC 1969  37.843   7.125   7.849
    7AU     AUC 1970  38.056   7.718   7.483
    7AU     AUC 1971  38.398   7.781   7.472
    7AU     AUC 1972  38.716   7.756   7.495
    7AU     AUC 1973  38.073   6.566   7.517
    7AU     AUC 1974  38.428   6.593   7.494
    7AU     AUC 1975  38.818   6.644   7.460
    7AU     AUC 1976  38.457   6.789   8.059
    7AU     AUC 1977  38.420   7.115   8.099
    7AU     AUC 1978  38.408   7.488   8.049
    7AU     AUC 1979  38.437   6.811   6.923
    7AU     AUC 1980  38.431   7.161   6.906
    7AU     AUC 1981  38.457   7.512   6.920
    7AU     AUC 1982  38.747   6.940   7.963
    7AU     AUC 1983  38.713   7.312   8.003
    7AU     AUC 1984  38.725   7.015   7.009
    7AU     AUC 1985  38.755   7.379   6.991
    7AU     AUC 1986  38.122   6.952   7.991
    7AU     AUC 1987  38.124   7.301   7.976
    7AU     AUC 1988  38.089   6.935   7.041
    7AU     AUC 1989  38.121   7.321   7.037
    7AU     AUC 1990  38.924   7.494   7.342
    7AU     AUC 1991  38.861   7.468   7.701
    7AU     AUC 1992  37.918   7.438   7.304
    7AU     AUC 1993  37.915   7.437   7.672
    7AU     AUC 1994  38.936   6.925   7.300
    7AU     AUC 1995  38.933   6.892   7.630
    7AU     AUC 1996  37.906   6.832   7.338
    7AU     AUC 1997  37.905   6.838   7.657
    7AU     AUC 1998  38.216   7.648   7.766
    7AU     AUC 1999  38.550   7.653   7.786
    7AU     AUC 2000  38.218   6.683   7.775
    7AU     AUC 2001  38.630   6.675   7.796
    7AU     AUC 2002  38.247   7.614   7.173
    7AU     AUC 2003  38.630   7.639   7.160
    7AU     AUC 2004  38.246   6.678   7.233
    7AU     AUC 2005  38.615   6.700   7.169
    7AU    AUSL 2006  39.010   7.099   8.228
    7AU    AUSL 2007  38.859   6.607   8.106
    7AU     AUL 2008  39.138   6.713   8.287
    7AU       S 2009  39.255   6.305   8.106
    7AU     LIG 2010  39.084   5.978   8.358
    7AU     LIG 2011  39.219   5.652   8.637
    7AU       S 2012  39.244   7.150   8.374
    7AU     LIG 2013  39.245   7.318   8.780
    7AU     LIG 2014  39.320   7.111   9.193
    7AU    AUSL 2015  38.603   6.912   8.295
    7AU    AUSL 2016  38.285   7.258   8.397
    7AU     AUL 2017  38.453   7.116   8.651
    7AU       S 2018  38.821   6.853   8.578
    7AU     LIG 2019  38.857   7.024   8.973
    7AU     LIG 2020  38.890   6.894   9.415
    7AU       S 2021  37.730   7.188   8.702
    7AU     LIG 2022  37.785   7.197   9.150
    7AU     LIG 2023  37.584   7.189   9.557
    7AU    AUSL 2024  38.619   7.332   8.148
    7AU    AUSL 2025  39.027   7.529   8.137
    7AU     AUL 2026  38.832   7.346   8.457
    7AU       S 2027  38.463   7.613   8.633
    7AU     LIG 2028  38.797   7.535   8.921
    7AU     LIG 2029  39.120   7.579   9.248
    7AU       S 2030  39.137   7.682   8.337
    7AU     LIG 2031  39.523   7.621   8.435
    7AU     LIG 2032  39.717   7.954   8.668
    7AU    AUSL 2033  38.978   7.260   6.742
    7AU    AUSL 2034  38.884   7.709   6.809
    7AU     AUL 2035  39.035   7.531   6.497
    7AU       S 2036  38.866   7.133   6.300
    7AU     LIG 2037  39.196   7.167   5.959
    7AU     LIG 2038  39.378   6.926   5.596
    7AU       S 2039  39.231   7.840   6.781
    7AU     LIG 2040  39.132   8.070   6.435
    7AU     LIG 2041  39.375   8.393   6.203
    7AU    AUSL 2042  38.615   7.012   6.729
    7AU    AUSL 2043  38.965   6.943   7.042
    7AU     AUL 2044  39.066   6.973   6.682
    7AU       S 2045  39.066   6.181   6.664
    7AU     LIG 2046  39.482   6.150   6.448
    7AU     LIG 2047  39.763   5.923   6.135
    7AU       S 2048  38.688   6.826   6.396
    7AU     LIG 2049  38.628   6.551   5.977
    7AU     LIG 2050  38.945   6.623   5.629
    7AU    AUSL 2051  38.576   7.450   6.624
    7AU    AUSL 2052  38.223   6.909   6.584
    7AU     AUL 2053  38.405   7.195   6.405
    7AU       S 2054  37.967   6.953   6.304
    7AU     LIG 2055  38.179   6.865   5.906
    7AU     LIG 2056  38.034   6.757   5.466
    7AU       S 2057  38.917   6.846   6.234
    7AU     LIG 2058  38.710   7.032   5.839
    7AU     LIG 2059  38.913   7.116   5.433
    7AU    AUSL 2060  37.931   7.124   8.174
    7AU    AUSL 2061  38.151   7.560   8.116
    7AU     AUL 2062  38.038   7.452   8.432
    7AU       S 2063  37.686   7.135   8.404
    7AU     LIG 2064  37.344   6.900   8.636
    7AU     LIG 2065  37.368   6.862   9.100
    7AU       S 2066  37.729   7.762   8.271
    7AU     LIG 2067  37.963   7.974   8.645
    7AU     LIG 2068  37.562   8.373   8.870
    7AU    AUSL 2069  38.190   6.818   8.390
    7AU    AUSL 2070  37.748   6.736   8.107
    7AU     AUL 2071  37.887   6.718   8.379
    7AU       S 2072  37.620   6.368   8.201
    7AU     LIG 2073  37.314   6.390   8.545
    7AU     LIG 2074  37.017   6.004   8.683
    7AU       S 2075  37.964   7.044   8.689
    7AU     LIG 2076  37.834   6.705   8.945
    7AU     LIG 2077  37.788   6.714   9.413
    7AU    AUSL 2078  37.857   7.054   6.803
    7AU    AUSL 2079  38.166   6.749   6.983
    7AU     AUL 2080  38.017   6.652   6.658
    7AU       S 2081  37.642   6.937   6.580
    7AU     LIG 2082  37.460   7.280   6.351
    7AU     LIG 2083  37.359   7.493   5.958
    7AU       S 2084  37.650   6.204   6.971
    7AU     LIG 2085  37.702   5.973   6.603
    7AU     LIG 2086  37.557   5.663   6.293
    7AU    AUSL 2087  38.240   7.290   6.830
    7AU    AUSL 2088  37.858   7.421   7.035
    7AU     AUL 2089  37.930   7.313   6.607
    7AU       S 2090  37.607   7.626   6.736
    7AU     LIG 2091  37.466   7.900   6.354
    7AU     LIG 2092  37.352   8.011   5.910
    7AU       S 2093  37.695   6.827   6.303
    7AU     LIG 2094  37.676   7.069   5.895
    7AU     LIG 2095  37.853   7.246   5.490
    7AU    AUSL 2096  39.113   7.784   7.544
    7AU    AUSL 2097  39.107   7.474   7.100
    7AU     AUL 2098  39.265   7.864   7.250
    7AU       S 2099  39.353   7.526   6.912
    7AU     LIG 2100  39.522   7.524   6.455
    7AU     LIG 2101  39.635   7.951   6.306
    7AU       S 2102  39.622   7.731   7.928
    7AU     LIG 2103  39.898   8.033   7.655
    7AU     LIG 2104  40.277   8.207   7.422
    7AU    AUSL 2105  39.383   7.439   7.425
    7AU    AUSL 2106  39.380   7.041   7.666
    7AU     AUL 2107  39.681   7.228   7.532
    7AU       S 2108  39.552   7.650   7.662
    7AU     LIG 2109  39.779   7.694   7.273
    7AU     LIG 2110  40.203   7.779   7.133
    7AU       S 2111  39.627   6.748   7.509
    7AU     LIG 2112  39.949   6.495   7.717
    7AU     LIG 2113  40.382   6.350   7.841
    7AU    AUSL 2114  39.107   7.370   7.750
    7AU    AUSL 2115  38.779   7.690   7.801
    7AU     AUL 2116  39.142   7.785   7.877
    7AU       S 2117  39.141   7.995   8.336
    7AU     LIG 2118  39.313   8.438   8.244
    7AU     LIG 2119  39.586   8.846   8.255
    7AU       S 2120  39.451   7.428   7.933
    7AU     LIG 2121  39.913   7.338   7.949
    7AU     LIG 2122  40.151   7.576   7.631
    7AU    AUSL 2123  37.777   7.617   7.493
    7AU    AUSL 2124  37.769   7.437   7.924
    7AU     AUL 2125  37.492   7.738   7.724
    7AU       S 2126  37.645   7.530   8.137
    7AU     LIG 2127  37.333   7.484   8.515
    7AU     LIG 2128  37.151   7.671   8.918
    7AU       S 2129  37.689   8.095   7.507
    7AU     LIG 2130  37.222   8.046   7.371
    7AU     LIG 2131  36.898   8.396   7.507
    7AU    AUSL 2132  37.475   7.409   7.208
    7AU    AUSL 2133  37.840   7.861   7.138
    7AU     AUL 2134  37.552   7.710   7.204
    7AU       S 2135  37.384   7.245   6.910
    7AU     LIG 2136  37.059   7.603   7.034
    7AU     LIG 2137  36.693   7.771   6.803
    7AU       S 2138  37.669   8.080   6.892
    7AU     LIG 2139  37.459   8.407   6.618
    7AU     LIG 2140  37.172   8.730   6.427
    7AU    AUSL 2141  37.478   7.293   7.644
    7AU    AUSL 2142  37.655   7.034   7.304
    7AU     AUL 2143  37.288   7.253   7.373
    7AU       S 2144  37.191   6.856   7.571
    7AU     LIG 2145  36.910   6.895   7.178
    7AU     LIG 2146  36.400   6.849   7.157
    7AU       S 2147  37.289   7.335   7.875
    7AU     LIG 2148  36.999   7.740   7.765
    7AU     LIG 2149  36.549   7.742   7.876
    7AU    AUSL 2150  39.116   6.764   7.443
    7AU    AUSL 2151  39.001   6.918   7.841
    7AU     AUL 2152  39.329   6.791   7.862
    7AU       S 2153  39.429   6.583   7.445
    7AU     LIG 2154  39.641   6.171   7.454
    7AU     LIG 2155  40.093   6.007   7.553
    7AU       S 2156  39.494   6.315   7.922
    7AU     LIG 2157  39.623   6.017   8.283
    7AU     LIG 2158  39.737   5.736   8.644
    7AU    AUSL 2159  39.341   7.066   7.203
    7AU    AUSL 2160  39.065   6.483   7.124
    7AU     AUL 2161  39.273   6.745   7.036
    7AU       S 2162  39.650   6.826   7.283
    7AU     LIG 2163  39.950   6.489   7.199
    7AU     LIG 2164  40.375   6.373   7.321
    7AU       S 2165  39.197   6.307   6.876
    7AU     LIG 2166  39.454   5.909   6.903
    7AU     LIG 2167  39.625   5.629   6.559
    7AU    AUSL 2168  37.594   6.628   7.463
    7AU    AUSL 2169  37.716   6.709   7.021
    7AU     AUL 2170  37.415   6.810   7.164
    7AU       S 2171  37.653   6.454   6.954
    7AU     LIG 2172  37.419   6.434   6.572
    7AU     LIG 2173  37.224   6.058   6.355
    7AU       S 2174  37.096   6.647   7.562
    7AU     LIG 2175  36.934   6.224   7.654
    7AU     LIG 2176  36.490   6.076   7.598
    7AU    AUSL 2177  37.712   6.955   7.744
    7AU    AUSL 2178  37.872   6.490   7.765
    7AU     AUL 2179  37.528   6.634   7.834
    7AU       S 2180  37.742   6.226   7.880
    7AU     LIG 2181  37.373   6.077   7.866
    7AU     LIG 2182  37.352   5.811   8.228
    7AU       S 2183  37.184   6.904   7.710
    7AU     LIG 2184  36.952   6.631   8.026
    7AU     LIG 2185  36.555   6.286   8.097
    7AU    AUSL 2186  38.378   7.881   7.925
    7AU    AUSL 2187  37.937   7.837   7.839
    7AU     AUL 2188  38.161   7.915   8.184
    7AU       S 2189  37.706   8.008   8.047
    7AU     LIG 2190  37.281   8.320   8.314
    7AU     LIG 2191  37.285   8.677   8.575
    7AU       S 2192  38.371   8.285   7.958
    7AU     LIG 2193  38.292   8.384   8.362
    7AU     LIG 2194  38.425   8.713   8.641
    7AU    AUSL 2195  38.186   8.077   7.574
    7AU    AUSL 2196  38.539   8.101   7.235
    7AU     AUL 2197  38.261   8.333   7.346
    7AU       S 2198  38.414   8.491   7.799
    7AU     LIG 2199  38.226   8.826   7.974
    7AU     LIG 2200  38.302   9.096   8.328
    7AU       S 2201  38.498   8.322   6.922
    7AU     LIG 2202  38.808   8.555   7.102
    7AU     LIG 2203  38.893   9.016   7.059
    7AU    AUSL 2204  38.668   8.065   7.642
    7AU    AUSL 2205  38.644   7.747   8.233
    7AU     AUL 2206  38.744   8.011   8.018
    7AU       S 2207  38.871   7.850   8.465
    7AU     LIG 2208  39.205   7.840   8.811
    7AU     LIG 2209  39.448   8.092   9.107
    7AU       S 2210  38.624   8.328   7.681
    7AU     LIG 2211  38.951   8.600   7.889
    7AU     LIG 2212  39.192   9.036   7.961
    7AU    AUSL 2213  38.460   6.442   8.116
    7AU    AUSL 2214  39.026   6.444   7.718
    7AU     AUL 2215  38.786   6.254   8.036
    7AU       S 2216  38.355   5.935   8.083
    7AU     LIG 2217  38.377   5.658   8.438
    7AU     LIG 2218  38.220   5.319   8.756
    7AU       S 2219  39.210   6.294   7.786
    7AU     LIG 2220  39.293   5.829   7.915
    7AU     LIG 2221  39.509   5.518   8.205
    7AU    AUSL 2222  38.247   6.291   7.751
    7AU    AUSL 2223  38.183   6.731   7.971
    7AU     AUL 2224  38.118   6.378   8.105
    7AU       S 2225  38.197   6.006   7.797
    7AU     LIG 2226  38.095   5.502   7.696
    7AU     LIG 2227  38.064   5.241   8.063
    7AU       S 2228  37.705   6.170   8.233
    7AU     LIG 2229  37.726   6.154   8.691
    7AU     LIG 2230  37.381   6.187   9.004
    7AU    AUSL 2231  38.612   6.515   7.684
    7AU    AUSL 2232  38.335   6.267   7.331
    7AU     AUL 2233  38.602   6.159   7.581
    7AU       S 2234  38.209   5.977   7.312
    7AU     LIG 2235  37.950   5.584   7.138
    7AU     LIG 2236  37.878   5.125   6.921
    7AU       S 2237  38.428   5.808   7.875
    7AU     LIG 2238  38.785   5.622   8.073
    7AU     LIG 2239  39.014   5.307   8.308
    7AU    AUSL 2240  38.484   7.809   6.919
    7AU    AUSL 2241  38.798   7.752   7.255
    7AU     AUL 2242  38.846   8.025   7.019
    7AU       S 2243  38.503   8.013   6.682
    7AU     LIG 2244  38.658   8.323   6.334
    7AU     LIG 2245  38.263   8.603   6.273
    7AU       S 2246  39.522   7.823   6.837
    7AU     LIG 2247  39.532   8.289   6.711
    7AU     LIG 2248  39.543   8.744   6.553
    7AU    AUSL 2249  38.231   7.774   7.281
    7AU    AUSL 2250  38.094   7.702   6.795
    7AU     AUL 2251  38.129   8.017   6.993
    7AU       S 2252  38.372   8.322   6.716
    7AU     LIG 2253  38.009   8.546   6.791
    7AU     LIG 2254  37.783   8.754   6.467
    7AU       S 2255  37.854   7.810   6.655
    7AU     LIG 2256  37.876   8.219   6.402
    7AU     LIG 2257  37.539   8.458   6.119
    7AU    AUSL 2258  38.407   6.406   6.916
    7AU    AUSL 2259  37.978   6.495   7.305
    7AU     AUL 2260  38.121   6.313   6.988
    7AU       S 2261  37.748   6.230   7.263
    7AU     LIG 2262  37.459   5.822   7.185
    7AU     LIG 2263  37.262   5.761   6.786
    7AU       S 2264  38.378   5.862   7.060
    7AU     LIG 2265  38.157   5.697   6.686
    7AU     LIG 2266  38.052   5.454   6.298
    7AU    AUSL 2267  38.671   6.538   7.262
    7AU    AUSL 2268  38.767   6.619   6.817
    7AU     AUL 2269  38.740   6.267   7.030
    7AU       S 2270  38.395   5.752   7.347
    7AU     LIG 2271  38.759   5.534   7.133
    7AU     LIG 2272  38.842   5.231   6.779
    7AU       S 2273  38.970   6.486   6.642
    7AU     LIG 2274  39.055   6.317   6.190
    7AU     LIG 2275  39.239   5.866   6.092
    8AU     AUC 2276  39.634   0.280   7.516
    8AU     AUC 2277  39.910   0.313   7.330
    8AU     AUC 2278  39.899   0.293   7.684
    8AU     AUC 2279  39.362   0.256   7.350
    8AU     AUC 2280  39.382   0.284   7.707
    8AU     AUC 2281  39.452   0.523   7.542
    8AU     AUC 2282  39.782   0.555   7.509
    8AU     AUC 2283  39.467  44.992   7.524
    8AU     AUC 2284  39.823   0.048   7.497
    8AU     AUC 2285  39.660   0.113   7.786
    8AU     AUC 2286  39.631   0.446   7.797
    8AU     AUC 2287  39.640   0.126   7.241
    8AU     AUC 2288  39.639   0.470   7.255
    8AU     AUC 2289  40.202   0.341   7.150
    8AU     AUC 2290  40.250   0.306   7.508
    8AU     AUC 2291  40.213   0.271   7.864
    8AU     AUC 2292  39.059   0.223   7.177
    8AU     AUC 2293  39.034   0.244   7.535
    8AU     AUC 2294  39.074   0.263   7.893
    8AU     AUC 2295  39.271   0.825   7.544
    8AU     AUC 2296  39.613   0.905   7.525
    8AU     AUC 2297  39.941   0.871   7.522
    8AU     AUC 2298  39.299  44.674   7.534
    8AU     AUC 2299  39.639  44.697   7.513
    8AU     AUC 2300  40.003  44.733   7.501
    8AU     AUC 2301  39.661  44.913   8.088
    8AU     AUC 2302  39.650   0.249   8.134
    8AU     AUC 2303  39.674   0.609   8.094
    8AU     AUC 2304  39.669  44.960   6.942
    8AU     AUC 2305  39.625   0.314   6.928
    8AU     AUC 2306  39.630   0.655   6.965
    8AU     AUC 2307  39.952   0.057   7.987
    8AU     AUC 2308  39.962   0.425   8.016
    8AU     AUC 2309  39.939   0.170   7.003
    8AU     AUC 2310  39.941   0.541   7.017
    8AU     AUC 2311  39.330   0.104   8.039
    8AU     AUC 2312  39.371   0.431   8.035
    8AU     AUC 2313  39.338   0.050   7.051
    8AU     AUC 2314  39.300   0.445   7.049
    8AU     AUC 2315  40.123   0.608   7.341
    8AU     AUC 2316  40.095   0.562   7.700
    8AU     AUC 2317  39.150   0.537   7.335
    8AU     AUC 2318  39.151   0.553   7.722
    8AU     AUC 2319  40.100   0.032   7.323
    8AU     AUC 2320  40.124  44.960   7.680
    8AU     AUC 2321  39.173  44.919   7.333
    8AU     AUC 2322  39.155  44.969   7.682
    8AU     AUC 2323  39.465   0.762   7.826
    8AU     AUC 2324  39.805   0.766   7.812
    8AU     AUC 2325  39.418  44.816   7.828
    8AU     AUC 2326  39.817  44.782   7.830
    8AU     AUC 2327  39.416   0.729   7.222
    8AU     AUC 2328  39.803   0.779   7.216
    8AU     AUC 2329  39.488  44.782   7.244
    8AU     AUC 2330  39.841  44.831   7.202
    8AU    AUSL 2331  40.211   0.181   8.255
    8AU    AUSL 2332  40.083  44.740   8.194
    8AU     AUL 2333  40.201  44.920   8.581
    8AU       S 2334  40.342  44.576   8.285
    8AU     LIG 2335  40.442  44.489   8.766
    8AU     LIG 2336  40.405  44.063   9.030
    8AU       S 2337  40.430   0.117   8.263
    8AU     LIG 2338  40.534   0.262   8.701
    8AU     LIG 2339  40.431  44.954   9.043
    8AU    AUSL 2340  39.782   0.041   8.258
    8AU    AUSL 2341  39.558   0.384   8.459
    8AU     AUL 2342  39.794   0.200   8.628
    8AU       S 2343  39.804  44.726   8.542
    8AU     LIG 2344  39.982  44.650   8.955
    8AU     LIG 2345  40.277  44.495   9.272
    8AU       S 2346  39.071   0.219   8.788
    8AU     LIG 2347  39.166   0.329   9.217
    8AU     LIG 2348  39.057   0.382   9.676
    8AU    AUSL 2349  39.870   0.473   8.184
    8AU    AUSL 2350  40.312   0.584   8.104
    8AU     AUL 2351  40.153   0.463   8.451
    8AU       S 2352  39.793   0.743   8.623
    8AU     LIG 2353  40.160   0.635   8.905
    8AU     LIG 2354  40.349   0.417   9.268
    8AU       S 2355  40.504   0.750   8.310
    8AU     LIG 2356  40.895   0.836   8.531
    8AU     LIG 2357  41.073   1.123   8.860
    8AU    AUSL 2358  40.145   0.453   6.704
    8AU    AUSL 2359  40.046   0.876   6.851
    8AU     AUL 2360  40.127   0.755   6.458
    8AU       S 2361  40.065   0.314   6.279
    8AU     LIG 2362  40.485   0.447   6.223
    8AU     LIG 2363  40.734   0.334   5.826
    8AU       S 2364  40.358   0.972   6.787
    8AU     LIG 2365  40.444   1.322   6.477
    8AU     LIG 2366  40.652   1.591   6.127
    8AU    AUSL 2367  39.816   0.181   6.790
    8AU    AUSL 2368  40.261   0.096   6.928
    8AU     AUL 2369  40.276   0.166   6.658
    8AU       S 2370  40.471  44.718   6.584
    8AU     LIG 2371  40.893  44.581   6.421
    8AU     LIG 2372  41.004  44.559   5.989
    8AU       S 2373  39.915   0.038   6.370
    8AU     LIG 2374  39.705   0.070   5.976
    8AU     LIG 2375  39.865  44.997   5.564
    8AU    AUSL 2376  39.731   0.623   6.671
    8AU    AUSL 2377  39.468   0.091   6.562
    8AU     AUL 2378  39.635   0.395   6.449
    8AU       S 2379  39.277   0.098   6.275
    8AU     LIG 2380  39.246  44.830   5.885
    8AU     LIG 2381  39.016  44.849   5.485
    8AU       S 2382  40.154   0.034   6.205
    8AU     LIG 2383  40.218   0.277   5.803
    8AU     LIG 2384  40.402   0.553   5.462
    8AU    AUSL 2385  39.177   0.272   8.271
    8AU    AUSL 2386  39.394   0.683   8.190
    8AU     AUL 2387  39.312   0.583   8.516
    8AU       S 2388  38.938   0.306   8.549
    8AU     LIG 2389  38.649   0.462   8.890
    8AU     LIG 2390  38.663   0.278   9.325
    8AU       S 2391  39.005   0.892   8.308
    8AU     LIG 2392  39.072   1.171   8.659
    8AU     LIG 2393  38.807   1.428   8.977
    8AU    AUSL 2394  39.410  44.950   8.464
    8AU    AUSL 2395  38.877   0.008   8.106
    8AU     AUL 2396  39.053  44.887   8.394
    8AU       S 2397  38.635  44.707   8.259
    8AU     LIG 2398  38.312  44.500   8.524
    8AU     LIG 2399  38.259  44.324   8.955
    8AU       S 2400  39.293   0.103   8.736
    8AU     LIG 2401  39.234  44.822   9.085
    8AU     LIG 2402  39.017  44.881   9.488
    8AU    AUSL 2403  39.075   0.156   6.765
    8AU    AUSL 2404  39.412  44.869   6.925
    8AU     AUL 2405  39.262  44.803   6.637
    8AU       S 2406  38.901   0.071   6.480
    8AU     LIG 2407  38.600  44.931   6.125
    8AU     LIG 2408  38.559  44.998   5.666
    8AU       S 2409  38.877  44.516   6.696
    8AU     LIG 2410  38.976  44.613   6.270
    8AU     LIG 2411  38.804  44.534   5.841
    8AU    AUSL 2412  39.408   0.432   6.866
    8AU    AUSL 2413  38.971   0.538   6.951
    8AU     AUL 2414  39.150   0.462   6.588
    8AU       S 2415  38.769   0.684   6.759
    8AU     LIG 2416  38.495   1.041   6.591
    8AU     LIG 2417  38.391   1.240   6.159
    8AU       S 2418  39.033   0.137   6.230
    8AU     LIG 2419  38.989   0.269   5.794
    8AU     LIG 2420  38.862   0.323   5.332
    8AU    AUSL 2421  40.373   0.855   7.520
    8AU    AUSL 2422  40.256   0.585   7.108
    8AU     AUL 2423  40.484   0.952   7.229
    8AU       S 2424  40.532   0.631   6.888
    8AU     LIG 2425  41.000   0.742   6.917
    8AU     LIG 2426  41.202   0.980   6.564
    8AU       S 2427  40.894   0.847   7.720
    8AU     LIG 2428  40.965   1.165   7.344
    8AU     LIG 2429  41.073   1.557   7.052
    8AU    AUSL 2430  40.602   0.495   7.344
    8AU    AUSL 2431  40.596   0.092   7.709
    8AU     AUL 2432  40.826   0.224   7.423
    8AU       S 2433  40.816   0.685   7.513
    8AU     LIG 2434  41.249   0.681   7.356
    8AU     LIG 2435  41.577   0.440   7.093
    8AU       S 2436  40.880  44.788   7.627
    8AU     LIG 2437  41.282  44.938   7.782
    8AU     LIG 2438  41.713  44.732   7.874
    8AU    AUSL 2439  40.346   0.446   7.704
    8AU    AUSL 2440  40.046   0.790   7.794
    8AU     AUL 2441  40.414   0.853   7.853
    8AU       S 2442  40.491   1.071   8.288
    8AU     LIG 2443  40.891   1.328   8.362
    8AU     LIG 2444  41.224   1.558   8.589
    8AU       S 2445  40.743   0.530   7.815
    8AU     LIG 2446  41.211   0.447   7.806
    8AU     LIG 2447  41.622   0.670   7.767
    8AU    AUSL 2448  38.953   0.748   7.573
    8AU    AUSL 2449  39.026   0.542   7.973
    8AU     AUL 2450  38.721   0.844   7.831
    8AU       S 2451  38.910   0.663   8.217
    8AU     LIG 2452  38.520   0.692   8.415
    8AU     LIG 2453  38.170   0.717   8.723
    8AU       S 2454  38.917   1.175   7.549
    8AU     LIG 2455  38.478   1.116   7.378
    8AU     LIG 2456  38.169   1.305   7.070
    8AU    AUSL 2457  38.903   0.377   7.339
    8AU    AUSL 2458  39.025   0.912   7.183
    8AU     AUL 2459  38.734   0.717   7.242
    8AU       S 2460  38.606   0.243   6.984
    8AU     LIG 2461  38.177   0.506   7.045
    8AU     LIG 2462  37.676   0.576   6.913
    8AU       S 2463  38.836   1.114   6.983
    8AU     LIG 2464  38.775   1.462   6.713
    8AU     LIG 2465  38.363   1.570   6.546
    8AU    AUSL 2466  38.700   0.387   7.741
    8AU    AUSL 2467  38.690   0.003   7.395
    8AU     AUL 2468  38.536   0.343   7.446
    8AU       S 2469  38.395  44.920   7.609
    8AU     LIG 2470  38.211   0.015   7.222
    8AU     LIG 2471  37.850   0.107   6.975
    8AU       S 2472  38.559   0.410   7.981
    8AU     LIG 2473  38.243   0.689   7.775
    8AU     LIG 2474  37.835   0.869   7.906
    8AU    AUSL 2475  40.369  44.742   7.519
    8AU    AUSL 2476  40.199   0.004   7.858
    8AU     AUL 2477  40.515  44.827   7.905
    8AU       S 2478  40.595  44.563   7.505
    8AU     LIG 2479  40.909  44.197   7.401
    8AU     LIG 2480  41.252  44.022   7.710
    8AU       S 2481  40.582  44.490   8.261
    8AU     LIG 2482  40.914  44.610   8.572
    8AU     LIG 2483  41.225  44.341   8.812
    8AU    AUSL 2484  40.351   0.145   7.340
    8AU    AUSL 2485  40.108  44.775   7.181
    8AU     AUL 2486  40.485  44.876   7.135
    8AU       S 2487  40.828  44.756   7.416
    8AU     LIG 2488  41.231  44.898   7.225
    8AU     LIG 2489  41.402  44.529   6.981
    8AU       S 2490  40.401  44.614   6.760
    8AU     LIG 2491  40.637  44.185   6.583
    8AU     LIG 2492  40.886  43.736   6.568
    8AU    AUSL 2493  39.035  44.681   7.507
    8AU    AUSL 2494  39.030  44.957   7.141
    8AU     AUL 2495  38.739  44.682   7.323
    8AU       S 2496  38.824  44.775   6.878
    8AU     LIG 2497  38.446  44.734   6.595
    8AU     LIG 2498  38.433  44.438   6.231
    8AU       S 2499  38.341  44.955   7.943
    8AU     LIG 2500  38.266  44.525   7.919
    8AU     LIG 2501  37.881  44.466   7.721
    8AU    AUSL 2502  38.991   0.074   7.706
    8AU    AUSL 2503  39.034  44.631   7.936
    8AU     AUL 2504  38.783  44.742   7.805
    8AU       S 2505  38.823  44.467   8.175
    8AU     LIG 2506  38.421  44.128   8.198
    8AU     LIG 2507  38.098  43.699   8.189
    8AU       S 2508  38.413   0.009   7.780
    8AU     LIG 2509  37.994   0.216   7.642
    8AU     LIG 2510  37.744  44.884   7.451
    8AU    AUSL 2511  39.654   0.962   7.982
    8AU    AUSL 2512  39.207   0.929   7.878
    8AU     AUL 2513  39.456   1.024   8.250
    8AU       S 2514  39.066   1.112   8.014
    8AU     LIG 2515  39.203   1.475   8.248
    8AU     LIG 2516  38.913   1.667   8.535
    8AU       S 2517  39.668   1.410   8.059
    8AU     LIG 2518  39.616   1.795   8.347
    8AU     LIG 2519  39.555   2.243   8.498
    8AU    AUSL 2520  39.447   1.221   7.681
    8AU    AUSL 2521  39.727   1.237   7.300
    8AU     AUL 2522  39.445   1.458   7.427
    8AU       S 2523  39.612   1.653   7.861
    8AU     LIG 2524  39.340   2.013   7.973
    8AU     LIG 2525  39.078   2.113   8.318
    8AU       S 2526  39.653   1.456   6.987
    8AU     LIG 2527  39.906   1.872   6.983
    8AU     LIG 2528  40.187   2.246   6.817
    8AU    AUSL 2529  39.910   1.179   7.686
    8AU    AUSL 2530  39.994   0.877   8.231
    8AU     AUL 2531  40.041   1.121   8.008
    8AU       S 2532  40.231   0.945   8.428
    8AU     LIG 2533  40.502   1.053   8.787
    8AU     LIG 2534  40.700   1.465   8.828
    8AU       S 2535  39.856   1.486   7.750
    8AU     LIG 2536  40.042   1.883   7.990
    8AU     LIG 2537  40.108   2.341   8.135
    8AU    AUSL 2538  39.678  44.591   8.094
    8AU    AUSL 2539  40.148  44.518   7.819
    8AU     AUL 2540  39.932  44.392   8.125
    8AU       S 2541  39.516  44.082   8.138
    8AU     LIG 2542  39.538  43.973   8.588
    8AU     LIG 2543  39.252  43.553   8.813
    8AU       S 2544  40.391  44.371   8.005
    8AU     LIG 2545  40.574  43.992   8.276
    8AU     LIG 2546  41.021  43.738   8.503
    8AU    AUSL 2547  39.393  44.471   7.775
    8AU    AUSL 2548  39.371  44.889   8.044
    8AU     AUL 2549  39.319  44.525   8.177
    8AU       S 2550  39.244  44.185   7.841
    8AU     LIG 2551  39.036  43.718   7.771
    8AU     LIG 2552  38.878  43.422   8.121
    8AU       S 2553  38.810  44.447   8.384
    8AU     LIG 2554  38.663  44.160   8.656
    8AU     LIG 2555  38.784  44.378   9.032
    8AU    AUSL 2556  39.779  44.639   7.648
    8AU    AUSL 2557  39.509  44.384   7.373
    8AU     AUL 2558  39.695  44.268   7.709
    8AU       S 2559  39.527  44.127   7.277
    8AU     LIG 2560  39.288  43.803   7.006
    8AU     LIG 2561  39.332  43.429   6.721
    8AU       S 2562  39.352  44.014   8.001
    8AU     LIG 2563  39.615  43.795   7.739
    8AU     LIG 2564  39.813  43.550   7.982
    8AU    AUSL 2565  39.649   0.925   7.012
    8AU    AUSL 2566  40.009   0.904   7.301
    8AU     AUL 2567  40.017   1.170   7.076
    8AU       S 2568  39.658   1.159   6.756
    8AU     LIG 2569  39.962   1.517   6.595
    8AU     LIG 2570  39.888   1.983   6.476
    8AU       S 2571  40.566   0.809   6.689
    8AU     LIG 2572  40.806   1.201   6.818
    8AU     LIG 2573  40.902   1.602   6.577
    8AU    AUSL 2574  39.404   0.929   7.376
    8AU    AUSL 2575  39.277   0.844   6.825
    8AU     AUL 2576  39.296   1.143   7.075
    8AU       S 2577  39.479   1.426   6.722
    8AU     LIG 2578  39.397   1.887   6.811
    8AU     LIG 2579  39.628   2.290   6.829
    8AU       S 2580  39.018   0.955   6.695
    8AU     LIG 2581  38.902   1.197   6.306
    8AU     LIG 2582  38.741   1.635   6.187
    8AU    AUSL 2583  39.709  44.599   7.058
    8AU    AUSL 2584  39.190  44.544   7.128
    8AU     AUL 2585  39.445  44.445   6.928
    8AU       S 2586  38.963  44.516   6.936
    8AU     LIG 2587  38.472  44.340   6.930
    8AU     LIG 2588  38.382  43.876   6.848
    8AU       S 2589  39.707  44.051   7.004
    8AU     LIG 2590  39.511  43.881   6.546
    8AU     LIG 2591  39.555  43.461   6.259
    8AU    AUSL 2592  39.984  44.399   7.356
    8AU    AUSL 2593  39.959  44.779   6.760
    8AU     AUL 2594  40.023  44.449   6.995
    8AU       S 2595  39.737  43.934   7.270
    8AU     LIG 2596  39.679  43.494   7.138
    8AU     LIG 2597  39.854  43.203   6.795
    8AU       S 2598  40.170  44.682   6.585
    8AU     LIG 2599  40.395  44.418   6.204
    8AU     LIG 2600  40.662  44.171   5.887
    9AU     AUC 2601  23.391  17.842   7.484
    9AU     AUC 2602  23.687  17.893   7.321
    9AU     AUC 2603  23.654  17.861   7.652
    9AU     AUC 2604  23.114  17.821   7.315
    9AU     AUC 2605  23.117  17.819   7.666
    9AU     AUC 2606  23.198  18.079   7.510
    9AU     AUC 2607  23.532  18.116   7.491
    9AU     AUC 2608  23.241  17.560   7.485
    9AU     AUC 2609  23.592  17.613   7.467
    9AU     AUC 2610  23.426  17.669   7.756
    9AU     AUC 2611  23.369  17.992   7.763
    9AU     AUC 2612  23.421  17.697   7.208
    9AU     AUC 2613  23.408  18.031   7.225
    9AU     AUC 2614  24.004  17.930   7.171
    9AU     AUC 2615  24.037  17.908   7.490
    9AU     AUC 2616  23.966  17.859   7.853
    9AU     AUC 2617  22.812  17.788   7.141
    9AU     AUC 2618  22.771  17.818   7.504
    9AU     AUC 2619  22.819  17.796   7.847
    9AU     AUC 2620  23.017  18.380   7.503
    9AU     AUC 2621  23.353  18.456   7.495
    9AU     AUC 2622  23.675  18.443   7.515
    9AU     AUC 2623  23.071  17.231   7.483
    9AU     AUC 2624  23.414  17.285   7.477
    9AU     AUC 2625  23.801  17.331   7.437
    9AU     AUC 2626  23.436  17.441   8.045
    9AU     AUC 2627  23.393  17.763   8.090
    9AU     AUC 2628  23.387  18.138   8.060
    9AU     AUC 2629  23.424  17.505   6.912
    9AU     AUC 2630  23.410  17.858   6.899
    9AU     AUC 2631  23.423  18.215   6.929
    9AU     AUC 2632  23.724  17.609   7.950
    9AU     AUC 2633  23.692  17.978   8.004
    9AU     AUC 2634  23.705  17.722   7.001
    9AU     AUC 2635  23.728  18.091   7.001
    9AU     AUC 2636  23.103  17.601   7.974
    9AU     AUC 2637  23.096  17.956   7.979
    9AU     AUC 2638  23.080  17.626   7.027
    9AU     AUC 2639  23.078  18.005   7.013
    9AU     AUC 2640  23.889  18.193   7.344
    9AU     AUC 2641  23.830  18.144   7.702
    9AU     AUC 2642  22.908  18.094   7.297
    9AU     AUC 2643  22.885  18.113   7.690
    9AU     AUC 2644  23.911  17.617   7.285
    9AU     AUC 2645  23.910  17.573   7.614
    9AU     AUC 2646  22.890  17.516   7.322
    9AU     AUC 2647  22.916  17.532   7.646
    9AU     AUC 2648  23.184  18.309   7.788
    9AU     AUC 2649  23.520  18.321   7.803
    9AU     AUC 2650  23.199  17.331   7.767
    9AU     AUC 2651  23.615  17.342   7.779
    9AU     AUC 2652  23.189  18.288   7.175
    9AU     AUC 2653  23.585  18.339   7.179
    9AU     AUC 2654  23.223  17.361   7.193
    9AU     AUC 2655  23.600  17.393   7.151
    9AU    AUSL 2656  23.986  17.749   8.230
    9AU    AUSL 2657  23.854  17.264   8.077
    9AU     AUL 2658  24.127  17.343   8.307
    9AU       S 2659  24.227  16.956   8.075
    9AU     LIG 2660  24.199  16.611   8.403
    9AU     LIG 2661  24.525  16.409   8.700
    9AU       S 2662  24.213  17.784   8.300
    9AU     LIG 2663  24.298  17.948   8.705
    9AU     LIG 2664  24.541  17.841   9.089
    9AU    AUSL 2665  23.578  17.560   8.263
    9AU    AUSL 2666  23.258  17.886   8.394
    9AU     AUL 2667  23.431  17.762   8.634
    9AU       S 2668  23.736  17.462   8.498
    9AU     LIG 2669  23.886  17.695   8.866
    9AU     LIG 2670  24.085  17.667   9.280
    9AU       S 2671  22.713  17.680   8.662
    9AU     LIG 2672  22.791  17.994   8.991
    9AU     LIG 2673  22.729  18.076   9.452
    9AU    AUSL 2674  23.595  17.994   8.160
    9AU    AUSL 2675  24.011  18.179   8.129
    9AU     AUL 2676  23.825  17.994   8.456
    9AU       S 2677  23.434  18.252   8.616
    9AU     LIG 2678  23.803  18.216   8.890
    9AU     LIG 2679  24.155  18.174   9.156
    9AU       S 2680  24.154  18.325   8.352
    9AU     LIG 2681  24.538  18.389   8.597
    9AU     LIG 2682  24.869  18.661   8.780
    9AU    AUSL 2683  23.970  17.988   6.750
    9AU    AUSL 2684  23.848  18.431   6.836
    9AU     AUL 2685  24.017  18.262   6.521
    9AU       S 2686  23.877  17.865   6.295
    9AU     LIG 2687  24.349  17.866   6.321
    9AU     LIG 2688  24.716  17.762   6.039
    9AU       S 2689  24.177  18.590   6.804
    9AU     LIG 2690  24.191  18.954   6.514
    9AU     LIG 2691  24.436  19.163   6.170
    9AU    AUSL 2692  23.614  17.739   6.720
    9AU    AUSL 2693  23.944  17.651   7.030
    9AU     AUL 2694  24.052  17.689   6.683
    9AU       S 2695  24.224  17.238   6.576
    9AU     LIG 2696  24.643  17.045   6.552
    9AU     LIG 2697  24.783  16.638   6.365
    9AU       S 2698  23.712  17.560   6.377
    9AU     LIG 2699  23.445  17.474   6.011
    9AU     LIG 2700  23.377  17.521   5.544
    9AU    AUSL 2701  23.551  18.174   6.639
    9AU    AUSL 2702  23.248  17.582   6.572
    9AU     AUL 2703  23.414  17.909   6.403
    9AU       S 2704  23.036  17.619   6.264
    9AU     LIG 2705  22.938  17.368   5.871
    9AU     LIG 2706  22.778  17.423   5.434
    9AU       S 2707  23.933  17.565   6.208
    9AU     LIG 2708  23.794  17.779   5.798
    9AU     LIG 2709  23.807  18.069   5.426
    9AU    AUSL 2710  22.903  17.760   8.163
    9AU    AUSL 2711  23.121  18.198   8.132
    9AU     AUL 2712  22.991  18.062   8.444
    9AU       S 2713  22.639  17.755   8.379
    9AU     LIG 2714  22.344  17.997   8.698
    9AU     LIG 2715  22.323  17.855   9.167
    9AU       S 2716  22.706  18.420   8.309
    9AU     LIG 2717  22.586  18.827   8.492
    9AU     LIG 2718  22.335  19.162   8.717
    9AU    AUSL 2719  23.168  17.449   8.364
    9AU    AUSL 2720  22.732  17.376   8.046
    9AU     AUL 2721  22.851  17.343   8.322
    9AU       S 2722  22.506  17.051   8.151
    9AU     LIG 2723  22.188  16.983   8.461
    9AU     LIG 2724  22.021  16.963   8.900
    9AU       S 2725  22.958  17.626   8.665
    9AU     LIG 2726  23.008  17.536   9.091
    9AU     LIG 2727  22.727  17.558   9.449
    9AU    AUSL 2728  22.863  17.728   6.725
    9AU    AUSL 2729  23.148  17.425   6.966
    9AU     AUL 2730  23.004  17.346   6.646
    9AU       S 2731  22.696  17.638   6.431
    9AU     LIG 2732  22.448  17.442   6.088
    9AU     LIG 2733  22.390  17.665   5.676
    9AU       S 2734  22.562  17.160   6.627
    9AU     LIG 2735  22.532  16.789   6.380
    9AU     LIG 2736  22.271  16.422   6.237
    9AU    AUSL 2737  23.213  17.984   6.818
    9AU    AUSL 2738  22.757  18.102   6.913
    9AU     AUL 2739  22.953  18.021   6.550
    9AU       S 2740  22.568  18.250   6.718
    9AU     LIG 2741  22.181  18.547   6.680
    9AU     LIG 2742  21.797  18.632   6.403
    9AU       S 2743  22.817  17.769   6.156
    9AU     LIG 2744  22.891  17.851   5.708
    9AU     LIG 2745  22.673  17.935   5.299
    9AU    AUSL 2746  24.083  18.471   7.556
    9AU    AUSL 2747  24.073  18.190   7.121
    9AU     AUL 2748  24.227  18.570   7.271
    9AU       S 2749  24.336  18.255   6.925
    9AU     LIG 2750  24.766  18.189   6.676
    9AU     LIG 2751  25.046  18.412   6.344
    9AU       S 2752  24.589  18.423   7.892
    9AU     LIG 2753  24.591  18.814   7.578
    9AU     LIG 2754  24.878  18.847   7.214
    9AU    AUSL 2755  24.366  18.137   7.427
    9AU    AUSL 2756  24.356  17.722   7.671
    9AU     AUL 2757  24.660  17.903   7.528
    9AU       S 2758  24.528  18.330   7.633
    9AU     LIG 2759  24.781  18.345   7.213
    9AU     LIG 2760  25.267  18.492   7.165
    9AU       S 2761  24.626  17.417   7.562
    9AU     LIG 2762  24.905  17.204   7.915
    9AU     LIG 2763  25.273  17.002   7.755
    9AU    AUSL 2764  24.074  18.047   7.731
    9AU    AUSL 2765  23.749  18.362   7.806
    9AU     AUL 2766  24.110  18.451   7.890
    9AU       S 2767  24.151  18.641   8.341
    9AU     LIG 2768  24.581  18.888   8.399
    9AU     LIG 2769  24.808  19.261   8.645
    9AU       S 2770  24.450  18.121   7.920
    9AU     LIG 2771  24.969  18.108   7.952
    9AU     LIG 2772  25.415  17.929   7.840
    9AU    AUSL 2773  22.734  18.310   7.533
    9AU    AUSL 2774  22.727  18.097   7.950
    9AU     AUL 2775  22.453  18.432   7.780
    9AU       S 2776  22.616  18.178   8.149
    9AU     LIG 2777  22.230  18.379   8.241
    9AU     LIG 2778  22.076  18.736   8.490
    9AU       S 2779  22.673  18.749   7.512
    9AU     LIG 2780  22.238  18.708   7.313
    9AU     LIG 2781  21.969  18.923   6.988
    9AU    AUSL 2782  22.658  17.943   7.291
    9AU    AUSL 2783  22.780  18.485   7.142
    9AU     AUL 2784  22.499  18.284   7.203
    9AU       S 2785  22.367  17.835   6.924
    9AU     LIG 2786  22.032  18.173   7.023
    9AU     LIG 2787  21.630  18.288   7.231
    9AU       S 2788  22.606  18.689   6.930
    9AU     LIG 2789  22.396  19.102   6.760
    9AU     LIG 2790  22.299  19.471   6.458
    9AU    AUSL 2791  22.423  17.991   7.662
    9AU    AUSL 2792  22.435  17.586   7.388
    9AU     AUL 2793  22.267  17.900   7.374
    9AU       S 2794  22.215  17.520   7.655
    9AU     LIG 2795  21.929  17.413   7.294
    9AU     LIG 2796  21.493  17.265   7.322
    9AU       S 2797  22.233  18.016   7.861
    9AU     LIG 2798  21.942  18.236   7.647
    9AU     LIG 2799  21.520  18.261   7.813
    9AU    AUSL 2800  24.094  17.451   7.433
    9AU    AUSL 2801  23.971  17.599   7.831
    9AU     AUL 2802  24.283  17.457   7.867
    9AU       S 2803  24.397  17.277   7.438
    9AU     LIG 2804  24.355  16.848   7.280
    9AU     LIG 2805  24.557  16.477   7.465
    9AU       S 2806  24.461  16.986   7.900
    9AU     LIG 2807  24.640  16.844   8.332
    9AU     LIG 2808  24.914  16.785   8.694
    9AU    AUSL 2809  24.314  17.766   7.208
    9AU    AUSL 2810  24.051  17.204   7.085
    9AU     AUL 2811  24.271  17.465   7.030
    9AU       S 2812  24.608  17.469   7.338
    9AU     LIG 2813  24.818  17.237   7.049
    9AU     LIG 2814  25.237  17.085   7.218
    9AU       S 2815  24.181  17.045   6.819
    9AU     LIG 2816  24.447  16.627   6.776
    9AU     LIG 2817  24.586  16.160   6.704
    9AU    AUSL 2818  22.819  17.355   7.462
    9AU    AUSL 2819  22.710  17.518   7.060
    9AU     AUL 2820  22.456  17.281   7.281
    9AU       S 2821  22.541  17.370   6.829
    9AU     LIG 2822  22.086  17.225   6.685
    9AU     LIG 2823  22.034  16.906   6.331
    9AU       S 2824  22.125  17.301   7.730
    9AU     LIG 2825  22.295  16.850   7.593
    9AU     LIG 2826  22.089  16.523   7.265
    9AU    AUSL 2827  22.686  17.665   7.742
    9AU    AUSL 2828  22.870  17.063   7.767
    9AU     AUL 2829  22.593  17.234   7.732
    9AU       S 2830  22.688  16.827   7.953
    9AU     LIG 2831  22.344  16.547   8.052
    9AU     LIG 2832  22.087  16.406   8.411
    9AU       S 2833  22.300  17.552   7.894
    9AU     LIG 2834  21.923  17.368   8.158
    9AU     LIG 2835  21.610  17.233   7.818
    9AU    AUSL 2836  23.347  18.527   7.961
    9AU    AUSL 2837  22.908  18.497   7.887
    9AU     AUL 2838  23.155  18.527   8.251
    9AU       S 2839  22.772  18.686   8.025
    9AU     LIG 2840  22.328  18.885   8.044
    9AU     LIG 2841  22.069  19.216   8.281
    9AU       S 2842  23.293  18.925   8.032
    9AU     LIG 2843  23.340  19.267   8.368
    9AU     LIG 2844  23.084  19.644   8.592
    9AU    AUSL 2845  23.149  18.732   7.618
    9AU    AUSL 2846  23.481  18.795   7.279
    9AU     AUL 2847  23.182  18.995   7.399
    9AU       S 2848  23.182  19.159   7.881
    9AU     LIG 2849  23.044  19.562   8.095
    9AU     LIG 2850  23.243  19.989   8.196
    9AU       S 2851  23.434  19.039   6.986
    9AU     LIG 2852  23.676  19.469   7.040
    9AU     LIG 2853  24.015  19.802   6.930
    9AU    AUSL 2854  23.617  18.747   7.683
    9AU    AUSL 2855  23.646  18.408   8.244
    9AU     AUL 2856  23.711  18.685   8.033
    9AU       S 2857  23.868  18.499   8.463
    9AU     LIG 2858  24.144  18.613   8.837
    9AU     LIG 2859  24.459  18.962   8.905
    9AU       S 2860  23.496  19.044   7.783
    9AU     LIG 2861  23.534  19.536   7.861
    9AU     LIG 2862  23.810  19.935   7.918
    9AU    AUSL 2863  23.458  17.096   8.108
    9AU    AUSL 2864  24.008  17.106   7.679
    9AU     AUL 2865  23.766  16.907   7.989
    9AU       S 2866  23.362  16.571   8.070
    9AU     LIG 2867  23.031  16.468   8.368
    9AU     LIG 2868  23.017  16.035   8.561
    9AU       S 2869  24.199  16.953   7.759
    9AU     LIG 2870  24.283  16.482   7.902
    9AU     LIG 2871  24.491  16.209   8.231
    9AU    AUSL 2872  23.275  16.930   7.732
    9AU    AUSL 2873  23.169  17.359   7.944
    9AU     AUL 2874  23.114  17.007   8.088
    9AU       S 2875  23.208  16.650   7.803
    9AU     LIG 2876  22.903  16.377   7.870
    9AU     LIG 2877  23.133  16.073   8.053
    9AU       S 2878  22.680  16.858   8.252
    9AU     LIG 2879  22.528  16.611   8.587
    9AU     LIG 2880  22.225  16.486   8.922
    9AU    AUSL 2881  23.600  17.207   7.666
    9AU    AUSL 2882  23.246  17.078   7.330
    9AU     AUL 2883  23.561  16.843   7.530
    9AU       S 2884  23.117  16.716   7.325
    9AU     LIG 2885  22.933  16.346   7.028
    9AU     LIG 2886  22.872  15.939   6.741
    9AU       S 2887  23.446  16.451   7.836
    9AU     LIG 2888  23.673  16.079   7.985
    9AU     LIG 2889  23.642  15.630   8.108
    9AU    AUSL 2890  23.444  18.520   6.943
    9AU    AUSL 2891  23.755  18.456   7.281
    9AU     AUL 2892  23.793  18.740   7.063
    9AU       S 2893  23.456  18.758   6.724
    9AU     LIG 2894  23.729  19.187   6.600
    9AU     LIG 2895  23.686  19.675   6.541
    9AU       S 2896  24.465  18.555   6.836
    9AU     LIG 2897  24.572  19.033   6.837
    9AU     LIG 2898  24.778  19.343   6.510
    9AU    AUSL 2899  23.178  18.463   7.293
    9AU    AUSL 2900  23.065  18.395   6.806
    9AU     AUL 2901  23.073  18.703   7.018
    9AU       S 2902  23.271  19.039   6.723
    9AU     LIG 2903  23.233  19.519   6.746
    9AU     LIG 2904  23.129  19.991   6.718
    9AU       S 2905  22.809  18.508   6.651
    9AU     LIG 2906  22.542  18.768   6.390
    9AU     LIG 2907  22.136  19.003   6.313
    9AU    AUSL 2908  23.396  17.080   6.906
    9AU    AUSL 2909  22.870  17.102   7.115
    9AU     AUL 2910  23.115  16.985   6.938
    9AU       S 2911  22.639  17.059   6.887
    9AU     LIG 2912  22.275  16.764   6.835
    9AU     LIG 2913  21.961  16.497   6.644
    9AU       S 2914  23.354  16.617   7.152
    9AU     LIG 2915  23.349  16.432   6.745
    9AU     LIG 2916  23.376  16.249   6.321
    9AU    AUSL 2917  23.659  17.207   7.245
    9AU    AUSL 2918  23.727  17.334   6.803
    9AU     AUL 2919  23.739  16.965   6.999
    9AU       S 2920  23.291  16.439   7.356
    9AU     LIG 2921  23.630  16.208   7.131
    9AU     LIG 2922  23.732  15.803   7.052
    9AU       S 2923  23.931  17.191   6.613
    9AU     LIG 2924  24.098  16.762   6.410
    9AU     LIG 2925  24.345  16.358   6.287
   10AU     AUC 2926  35.928  32.492   7.485
   10AU     AUC 2927  36.224  32.537   7.322
   10AU     AUC 2928  36.193  32.509   7.655
   10AU     AUC 2929  35.653  32.474   7.318
   10AU     AUC 2930  35.649  32.476   7.667
   10AU     AUC 2931  35.739  32.735   7.506
   10AU     AUC 2932  36.072  32.765   7.490
   10AU     AUC 2933  35.778  32.212   7.488
   10AU     AUC 2934  36.127  32.260   7.474
   10AU     AUC 2935  35.962  32.322   7.756
   10AU     AUC 2936  35.906  32.645   7.760
   10AU     AUC 2937  35.955  32.342   7.210
   10AU     AUC 2938  35.948  32.678   7.223
   10AU     AUC 2939  36.540  32.569   7.170
   10AU     AUC 2940  36.574  32.554   7.491
   10AU     AUC 2941  36.503  32.508   7.854
   10AU     AUC 2942  35.347  32.446   7.141
   10AU     AUC 2943  35.306  32.493   7.508
   10AU     AUC 2944  35.358  32.466   7.843
   10AU     AUC 2945  35.563  33.035   7.495
   10AU     AUC 2946  35.896  33.106   7.489
   10AU     AUC 2947  36.217  33.089   7.511
   10AU     AUC 2948  35.598  31.888   7.487
   10AU     AUC 2949  35.944  31.933   7.482
   10AU     AUC 2950  36.333  31.976   7.444
   10AU     AUC 2951  35.971  32.095   8.046
   10AU     AUC 2952  35.927  32.416   8.090
   10AU     AUC 2953  35.923  32.792   8.058
   10AU     AUC 2954  35.954  32.147   6.916
   10AU     AUC 2955  35.949  32.496   6.901
   10AU     AUC 2956  35.967  32.856   6.925
   10AU     AUC 2957  36.259  32.260   7.953
   10AU     AUC 2958  36.227  32.628   8.004
   10AU     AUC 2959  36.240  32.363   7.001
   10AU     AUC 2960  36.266  32.730   6.998
   10AU     AUC 2961  35.637  32.260   7.970
   10AU     AUC 2962  35.631  32.615   7.978
   10AU     AUC 2963  35.610  32.268   7.034
   10AU     AUC 2964  35.619  32.648   7.009
   10AU     AUC 2965  36.428  32.834   7.345
   10AU     AUC 2966  36.368  32.792   7.702
   10AU     AUC 2967  35.451  32.751   7.292
   10AU     AUC 2968  35.425  32.781   7.689
   10AU     AUC 2969  36.443  32.261   7.287
   10AU     AUC 2970  36.447  32.220   7.619
   10AU     AUC 2971  35.418  32.180   7.334
   10AU     AUC 2972  35.447  32.196   7.654
   10AU     AUC 2973  35.724  32.965   7.785
   10AU     AUC 2974  36.060  32.971   7.800
   10AU     AUC 2975  35.737  31.985   7.765
   10AU     AUC 2976  36.152  31.993   7.784
   10AU     AUC 2977  35.735  32.936   7.165
   10AU     AUC 2978  36.131  32.984   7.172
   10AU     AUC 2979  35.747  32.010   7.204
   10AU     AUC 2980  36.128  32.039   7.155
   10AU    AUSL 2981  36.519  32.408   8.228
   10AU    AUSL 2982  36.380  31.921   8.083
   10AU     AUL 2983  36.608  32.032   8.289
   10AU       S 2984  36.789  31.646   8.092
   10AU     LIG 2985  36.756  31.398   8.473
   10AU     LIG 2986  36.654  31.174   8.886
   10AU       S 2987  36.780  32.455   8.403
   10AU     LIG 2988  36.771  32.565   8.851
   10AU     LIG 2989  36.841  32.302   9.238
   10AU    AUSL 2990  36.118  32.214   8.283
   10AU    AUSL 2991  35.792  32.544   8.397
   10AU     AUL 2992  35.996  32.380   8.621
   10AU       S 2993  36.439  32.234   8.665
   10AU     LIG 2994  36.332  32.306   9.091
   10AU     LIG 2995  36.436  32.153   9.532
   10AU       S 2996  35.293  32.348   8.673
   10AU     LIG 2997  35.379  32.674   8.985
   10AU     LIG 2998  35.410  32.650   9.457
   10AU    AUSL 2999  36.128  32.645   8.157
   10AU    AUSL 3000  36.546  32.835   8.132
   10AU     AUL 3001  36.362  32.660   8.453
   10AU       S 3002  35.978  32.896   8.627
   10AU     LIG 3003  36.343  32.848   8.913
   10AU     LIG 3004  36.541  32.718   9.316
   10AU       S 3005  36.689  32.991   8.349
   10AU     LIG 3006  37.102  33.085   8.485
   10AU     LIG 3007  37.306  33.375   8.784
   10AU    AUSL 3008  36.510  32.624   6.747
   10AU    AUSL 3009  36.393  33.066   6.829
   10AU     AUL 3010  36.538  32.891   6.500
   10AU       S 3011  36.418  32.481   6.285
   10AU     LIG 3012  36.771  32.592   6.034
   10AU     LIG 3013  36.892  32.466   5.591
   10AU       S 3014  36.719  33.192   6.801
   10AU     LIG 3015  36.683  33.381   6.408
   10AU     LIG 3016  36.836  33.808   6.275
   10AU    AUSL 3017  36.154  32.378   6.712
   10AU    AUSL 3018  36.477  32.288   7.030
   10AU     AUL 3019  36.588  32.322   6.682
   10AU       S 3020  36.725  31.841   6.591
   10AU     LIG 3021  37.141  31.613   6.680
   10AU     LIG 3022  37.494  31.330   6.557
   10AU       S 3023  36.251  32.191   6.371
   10AU     LIG 3024  36.046  32.019   6.008
   10AU     LIG 3025  36.033  32.006   5.528
   10AU    AUSL 3026  36.086  32.814   6.641
   10AU    AUSL 3027  35.788  32.206   6.586
   10AU     AUL 3028  35.960  32.544   6.405
   10AU       S 3029  35.619  32.225   6.267
   10AU     LIG 3030  35.576  32.049   5.806
   10AU     LIG 3031  35.331  32.048   5.405
   10AU       S 3032  36.497  32.172   6.219
   10AU     LIG 3033  36.409  32.310   5.779
   10AU     LIG 3034  36.394  32.575   5.390
   10AU    AUSL 3035  35.434  32.428   8.164
   10AU    AUSL 3036  35.659  32.853   8.128
   10AU     AUL 3037  35.525  32.726   8.440
   10AU       S 3038  35.169  32.420   8.407
   10AU     LIG 3039  34.891  32.569   8.807
   10AU     LIG 3040  35.011  32.391   9.236
   10AU       S 3041  35.236  33.082   8.306
   10AU     LIG 3042  35.299  33.446   8.575
   10AU     LIG 3043  35.383  33.896   8.714
   10AU    AUSL 3044  35.698  32.109   8.353
   10AU    AUSL 3045  35.276  32.039   8.038
   10AU     AUL 3046  35.382  32.016   8.319
   10AU       S 3047  35.047  31.721   8.153
   10AU     LIG 3048  34.624  31.710   8.284
   10AU     LIG 3049  34.453  31.565   8.666
   10AU       S 3050  35.512  32.276   8.676
   10AU     LIG 3051  35.512  32.204   9.140
   10AU     LIG 3052  35.351  32.138   9.577
   10AU    AUSL 3053  35.400  32.365   6.721
   10AU    AUSL 3054  35.671  32.068   6.982
   10AU     AUL 3055  35.518  31.985   6.657
   10AU       S 3056  35.236  32.274   6.409
   10AU     LIG 3057  34.955  32.229   5.999
   10AU     LIG 3058  34.875  32.289   5.523
   10AU       S 3059  35.070  31.757   6.678
   10AU     LIG 3060  35.145  31.281   6.587
   10AU     LIG 3061  35.218  30.980   6.203
   10AU    AUSL 3062  35.753  32.615   6.818
   10AU    AUSL 3063  35.298  32.745   6.901
   10AU     AUL 3064  35.502  32.649   6.543
   10AU       S 3065  35.131  32.886   6.712
   10AU     LIG 3066  34.756  33.126   6.722
   10AU     LIG 3067  34.540  33.489   6.534
   10AU       S 3068  35.407  32.348   6.170
   10AU     LIG 3069  35.321  32.491   5.732
   10AU     LIG 3070  35.266  32.549   5.268
   10AU    AUSL 3071  36.621  33.113   7.551
   10AU    AUSL 3072  36.610  32.826   7.119
   10AU     AUL 3073  36.767  33.209   7.271
   10AU       S 3074  36.868  32.895   6.916
   10AU     LIG 3075  37.024  32.967   6.439
   10AU     LIG 3076  37.194  33.416   6.378
   10AU       S 3077  37.122  33.019   7.968
   10AU     LIG 3078  37.452  33.309   7.787
   10AU     LIG 3079  37.699  33.418   7.397
   10AU    AUSL 3080  36.903  32.777   7.426
   10AU    AUSL 3081  36.893  32.366   7.661
   10AU     AUL 3082  37.192  32.553   7.533
   10AU       S 3083  37.067  32.981   7.665
   10AU     LIG 3084  37.447  32.956   7.385
   10AU     LIG 3085  37.874  32.719   7.313
   10AU       S 3086  37.129  32.073   7.510
   10AU     LIG 3087  37.371  32.086   7.897
   10AU     LIG 3088  37.728  31.785   8.052
   10AU    AUSL 3089  36.615  32.693   7.738
   10AU    AUSL 3090  36.288  33.011   7.806
   10AU     AUL 3091  36.650  33.102   7.884
   10AU       S 3092  36.659  33.307   8.326
   10AU     LIG 3093  37.037  33.594   8.380
   10AU     LIG 3094  37.236  34.021   8.479
   10AU       S 3095  36.966  32.747   7.929
   10AU     LIG 3096  37.419  32.621   7.959
   10AU     LIG 3097  37.756  32.876   7.793
   10AU    AUSL 3098  35.284  32.987   7.529
   10AU    AUSL 3099  35.261  32.768   7.950
   10AU     AUL 3100  35.001  33.118   7.781
   10AU       S 3101  35.127  32.830   8.140
   10AU     LIG 3102  34.753  33.140   8.217
   10AU     LIG 3103  34.620  33.338   8.600
   10AU       S 3104  35.225  33.409   7.489
   10AU     LIG 3105  34.784  33.334   7.350
   10AU     LIG 3106  34.431  33.608   7.347
   10AU    AUSL 3107  35.206  32.613   7.291
   10AU    AUSL 3108  35.329  33.130   7.125
   10AU     AUL 3109  35.045  32.942   7.192
   10AU       S 3110  34.897  32.495   6.918
   10AU     LIG 3111  34.520  32.807   7.057
   10AU     LIG 3112  34.343  33.245   7.003
   10AU       S 3113  35.164  33.330   6.925
   10AU     LIG 3114  34.878  33.697   6.866
   10AU     LIG 3115  34.733  34.101   6.642
   10AU    AUSL 3116  34.962  32.683   7.648
   10AU    AUSL 3117  34.966  32.268   7.394
   10AU     AUL 3118  34.816  32.564   7.367
   10AU       S 3119  34.729  32.221   7.695
   10AU     LIG 3120  34.408  32.006   7.416
   10AU     LIG 3121  34.128  31.766   7.088
   10AU       S 3122  34.711  32.743   7.807
   10AU     LIG 3123  34.340  32.936   8.001
   10AU     LIG 3124  33.983  32.752   8.265
   10AU    AUSL 3125  36.624  32.097   7.432
   10AU    AUSL 3126  36.512  32.247   7.833
   10AU     AUL 3127  36.832  32.119   7.867
   10AU       S 3128  36.935  31.922   7.439
   10AU     LIG 3129  37.120  31.517   7.399
   10AU     LIG 3130  37.299  31.273   7.041
   10AU       S 3131  37.054  31.679   7.900
   10AU     LIG 3132  37.246  31.532   8.328
   10AU     LIG 3133  37.147  31.230   8.749
   10AU    AUSL 3134  36.849  32.408   7.201
   10AU    AUSL 3135  36.573  31.836   7.096
   10AU     AUL 3136  36.793  32.091   7.032
   10AU       S 3137  37.167  32.147   7.290
   10AU     LIG 3138  37.405  31.822   7.087
   10AU     LIG 3139  37.870  31.825   7.136
   10AU       S 3140  36.675  31.669   6.843
   10AU     LIG 3141  36.827  31.214   6.840
   10AU     LIG 3142  37.184  30.931   6.632
   10AU    AUSL 3143  35.345  32.038   7.481
   10AU    AUSL 3144  35.239  32.182   7.069
   10AU     AUL 3145  34.973  31.971   7.293
   10AU       S 3146  35.071  32.022   6.839
   10AU     LIG 3147  34.623  31.855   6.917
   10AU     LIG 3148  34.320  31.666   6.603
   10AU       S 3149  34.723  32.104   7.964
   10AU     LIG 3150  34.659  31.685   7.755
   10AU     LIG 3151  34.490  31.509   7.356
   10AU    AUSL 3152  35.202  32.347   7.758
   10AU    AUSL 3153  35.396  31.719   7.756
   10AU     AUL 3154  35.101  31.921   7.741
   10AU       S 3155  35.202  31.490   7.927
   10AU     LIG 3156  34.790  31.278   8.072
   10AU     LIG 3157  34.665  31.093   8.463
   10AU       S 3158  34.884  32.309   7.938
   10AU     LIG 3159  34.379  32.434   8.015
   10AU     LIG 3160  34.100  32.189   7.807
   10AU    AUSL 3161  35.888  33.181   7.956
   10AU    AUSL 3162  35.450  33.163   7.892
   10AU     AUL 3163  35.692  33.178   8.255
   10AU       S 3164  35.320  33.363   8.034
   10AU     LIG 3165  35.361  33.793   8.199
   10AU     LIG 3166  35.121  34.170   8.313
   10AU       S 3167  35.829  33.563   8.018
   10AU     LIG 3168  35.890  33.835   8.359
   10AU     LIG 3169  35.794  34.229   8.560
   10AU    AUSL 3170  35.692  33.377   7.607
   10AU    AUSL 3171  36.030  33.443   7.272
   10AU     AUL 3172  35.720  33.639   7.386
   10AU       S 3173  35.761  33.794   7.865
   10AU     LIG 3174  35.706  34.207   8.040
   10AU     LIG 3175  36.020  34.543   8.178
   10AU       S 3176  36.001  33.692   6.992
   10AU     LIG 3177  36.310  34.093   6.991
   10AU     LIG 3178  36.450  34.534   6.817
   10AU    AUSL 3179  36.161  33.395   7.678
   10AU    AUSL 3180  36.178  33.059   8.245
   10AU     AUL 3181  36.250  33.332   8.034
   10AU       S 3182  36.410  33.159   8.475
   10AU     LIG 3183  36.759  33.340   8.800
   10AU     LIG 3184  36.987  33.768   8.869
   10AU       S 3185  36.048  33.675   7.764
   10AU     LIG 3186  36.200  34.092   7.940
   10AU     LIG 3187  36.480  34.490   7.883
   10AU    AUSL 3188  35.989  31.746   8.115
   10AU    AUSL 3189  36.551  31.763   7.695
   10AU     AUL 3190  36.320  31.568   8.007
   10AU       S 3191  35.897  31.238   8.090
   10AU     LIG 3192  35.936  30.926   8.388
   10AU     LIG 3193  35.890  30.500   8.518
   10AU       S 3194  36.761  31.616   7.784
   10AU     LIG 3195  36.985  31.188   7.902
   10AU     LIG 3196  37.174  31.047   8.276
   10AU    AUSL 3197  35.803  31.585   7.740
   10AU    AUSL 3198  35.708  32.007   7.937
   10AU     AUL 3199  35.632  31.663   8.085
   10AU       S 3200  35.751  31.304   7.805
   10AU     LIG 3201  35.476  30.998   7.913
   10AU     LIG 3202  35.698  30.630   8.045
   10AU       S 3203  35.186  31.542   8.225
   10AU     LIG 3204  34.988  31.451   8.608
   10AU     LIG 3205  35.021  31.044   8.855
   10AU    AUSL 3206  36.139  31.849   7.673
   10AU    AUSL 3207  35.776  31.714   7.333
   10AU     AUL 3208  36.109  31.499   7.547
   10AU       S 3209  35.694  31.353   7.319
   10AU     LIG 3210  35.472  30.938   7.174
   10AU     LIG 3211  35.484  30.472   7.028
   10AU       S 3212  36.023  31.158   7.892
   10AU     LIG 3213  36.200  30.777   7.907
   10AU     LIG 3214  36.334  30.607   8.275
   10AU    AUSL 3215  35.992  33.177   6.930
   10AU    AUSL 3216  36.295  33.099   7.273
   10AU     AUL 3217  36.347  33.379   7.055
   10AU       S 3218  36.014  33.398   6.714
   10AU     LIG 3219  36.375  33.721   6.633
   10AU     LIG 3220  36.318  34.166   6.472
   10AU       S 3221  37.022  33.204   6.859
   10AU     LIG 3222  36.910  33.661   6.776
   10AU     LIG 3223  36.771  34.094   6.704
   10AU    AUSL 3224  35.725  33.114   7.277
   10AU    AUSL 3225  35.619  33.028   6.797
   10AU     AUL 3226  35.629  33.352   6.996
   10AU       S 3227  35.879  33.712   6.740
   10AU     LIG 3228  35.841  34.215   6.793
   10AU     LIG 3229  35.697  34.701   6.777
   10AU       S 3230  35.367  33.144   6.637
   10AU     LIG 3231  35.066  33.414   6.428
   10AU     LIG 3232  34.885  33.797   6.259
   10AU    AUSL 3233  35.918  31.725   6.909
   10AU    AUSL 3234  35.385  31.760   7.151
   10AU     AUL 3235  35.630  31.634   6.955
   10AU       S 3236  35.168  31.725   6.931
   10AU     LIG 3237  34.907  31.431   7.068
   10AU     LIG 3238  34.652  31.305   6.748
   10AU       S 3239  35.870  31.218   7.016
   10AU     LIG 3240  36.230  31.025   6.806
   10AU     LIG 3241  36.225  30.601   6.624
   10AU    AUSL 3242  36.180  31.860   7.249
   10AU    AUSL 3243  36.254  31.973   6.809
   10AU     AUL 3244  36.243  31.600   7.023
   10AU       S 3245  35.922  31.225   7.210
   10AU     LIG 3246  36.288  30.973   7.312
   10AU     LIG 3247  36.451  30.586   7.083
   10AU       S 3248  36.423  31.826   6.636
   10AU     LIG 3249  36.520  31.391   6.458
   10AU     LIG 3250  36.954  31.272   6.329
   11POPC   NC3 3251  10.993  21.929   9.313
   11POPC   PO4 3252  10.558  22.576   9.349
   11POPC   GL1 3253  10.589  22.292   9.016
   11POPC   GL2 3254  10.771  22.017   8.858
   11POPC   C1A 3255  10.517  22.388   8.609
   11POPC   D2A 3256  10.616  22.106   8.327
   11POPC   C3A 3257  10.361  22.099   8.003
   11POPC   C4A 3258  10.444  22.268   7.643
   11POPC   C1B 3259  10.549  21.693   8.612
   11POPC   C2B 3260  10.235  21.675   8.282
   11POPC   C3B 3261  10.331  21.605   7.819
   11POPC   C4B 3262  10.544  21.788   7.475
   12POPC   NC3 3263  13.702  39.777   9.540
   12POPC   PO4 3264  14.038  40.386   9.366
   12POPC   GL1 3265  13.663  40.139   9.148
   12POPC   GL2 3266  13.691  39.768   9.041
   12POPC   C1A 3267  13.358  40.040   8.767
   12POPC   D2A 3268  13.340  39.733   8.452
   12POPC   C3A 3269  13.399  39.935   8.053
   12POPC   C4A 3270  13.320  40.086   7.639
   12POPC   C1B 3271  13.853  39.964   8.686
   12POPC   C2B 3272  14.057  40.070   8.340
   12POPC   C3B 3273  13.881  40.112   7.921
   12POPC   C4B 3274  13.782  39.966   7.506
   13POPC   NC3 3275  21.495  31.215   9.505
   13POPC   PO4 3276  21.197  31.806   9.440
   13POPC   GL1 3277  21.214  31.514   9.103
   13POPC   GL2 3278  21.124  31.186   9.148
   13POPC   C1A 3279  21.025  31.437   8.691
   13POPC   D2A 3280  21.109  31.620   8.300
   13POPC   C3A 3281  21.521  31.662   8.052
   13POPC   C4A 3282  21.521  31.797   7.616
   13POPC   C1B 3283  21.419  31.148   8.791
   13POPC   C2B 3284  21.511  31.328   8.435
   13POPC   C3B 3285  21.464  31.161   8.005
   13POPC   C4B 3286  21.297  31.154   7.596
   14POPC   NC3 3287  16.446  30.114   9.454
   14POPC   PO4 3288  16.982  30.234   9.176
   14POPC   GL1 3289  16.873  29.807   9.126
   14POPC   GL2 3290  16.508  29.753   9.090
   14POPC   C1A 3291  16.867  29.717   8.700
   14POPC   D2A 3292  16.679  29.976   8.357
   14POPC   C3A 3293  16.865  29.954   7.940
   14POPC   C4A 3294  16.777  30.076   7.496
   14POPC   C1B 3295  16.358  29.653   8.656
   14POPC   C2B 3296  16.504  29.518   8.236
   14POPC   C3B 3297  16.539  29.578   7.799
   14POPC   C4B 3298  16.744  29.578   7.371
   15POPC   NC3 3299  36.769  42.450   9.430
   15POPC   PO4 3300  37.282  42.918   9.512
   15POPC   GL1 3301  37.151  42.622   9.143
   15POPC   GL2 3302  37.102  42.259   9.044
   15POPC   C1A 3303  36.803  42.597   8.804
   15POPC   D2A 3304  36.778  42.834   8.464
   15POPC   C3A 3305  36.949  42.621   8.124
   15POPC   C4A 3306  36.768  42.384   7.767
   15POPC   C1B 3307  36.938  42.107   8.628
   15POPC   C2B 3308  36.921  42.070   8.166
   15POPC   C3B 3309  37.177  42.047   7.763
   15POPC   C4B 3310  37.313  42.196   7.315
   16POPC   NC3 3311  30.493  11.337   9.563
   16POPC   PO4 3312  29.912  11.210   9.655
   16POPC   GL1 3313  29.760  11.163   9.219
   16POPC   GL2 3314  29.606  11.494   9.113
   16POPC   C1A 3315  29.873  11.218   8.777
   16POPC   D2A 3316  29.993  11.383   8.385
   16POPC   C3A 3317  29.936  11.095   8.063
   16POPC   C4A 3318  29.886  11.203   7.660
   16POPC   C1B 3319  29.500  11.536   8.657
   16POPC   C2B 3320  29.523  11.358   8.227
   16POPC   C3B 3321  29.460  11.460   7.802
   16POPC   C4B 3322  29.503  11.302   7.360
   17POPC   NC3 3323  34.433   7.764   9.537
   17POPC   PO4 3324  34.684   7.220   9.473
   17POPC   GL1 3325  34.619   7.530   9.111
   17POPC   GL2 3326  34.274   7.714   9.056
   17POPC   C1A 3327  34.663   7.397   8.669
   17POPC   D2A 3328  35.009   7.279   8.379
   17POPC   C3A 3329  34.842   7.214   7.962
   17POPC   C4A 3330  34.441   7.107   7.743
   17POPC   C1B 3331  34.331   7.784   8.610
   17POPC   C2B 3332  34.498   7.700   8.212
   17POPC   C3B 3333  34.308   7.583   7.844
   17POPC   C4B 3334  34.175   7.837   7.506
   18POPC   NC3 3335  28.729  16.536   9.537
   18POPC   PO4 3336  28.342  17.137   9.480
   18POPC   GL1 3337  28.444  16.811   9.165
   18POPC   GL2 3338  28.761  16.623   9.023
   18POPC   C1A 3339  28.321  16.691   8.747
   18POPC   D2A 3340  28.497  16.516   8.375
   18POPC   C3A 3341  28.240  16.615   8.031
   18POPC   C4A 3342  28.095  16.365   7.704
   18POPC   C1B 3343  28.748  16.990   8.768
   18POPC   C2B 3344  28.529  17.044   8.380
   18POPC   C3B 3345  28.688  16.850   8.036
   18POPC   C4B 3346  28.706  16.513   7.762
   19POPC   NC3 3347   4.697  17.401   9.552
   19POPC   PO4 3348   4.418  17.964   9.790
   19POPC   GL1 3349   4.359  17.704   9.313
   19POPC   GL2 3350   4.511  17.402   9.091
   19POPC   C1A 3351   4.281  17.733   8.836
   19POPC   D2A 3352   4.342  17.430   8.474
   19POPC   C3A 3353   4.207  17.580   8.080
   19POPC   C4A 3354   4.456  17.555   7.735
   19POPC   C1B 3355   4.733  17.207   8.779
   19POPC   C2B 3356   4.871  17.232   8.401
   19POPC   C3B 3357   4.657  17.231   8.066
   19POPC   C4B 3358   4.848  17.196   7.691
   20POPC   NC3 3359  33.152   9.782   9.543
   20POPC   PO4 3360  32.670  10.157   9.786
   20POPC   GL1 3361  32.790  10.156   9.300
   20POPC   GL2 3362  33.155  10.115   9.147
   20POPC   C1A 3363  32.794   9.956   8.849
   20POPC   D2A 3364  33.060   9.939   8.453
   20POPC   C3A 3365  32.820   9.774   8.074
   20POPC   C4A 3366  32.928   9.457   7.776
   20POPC   C1B 3367  33.265   9.686   8.928
   20POPC   C2B 3368  33.205   9.403   8.585
   20POPC   C3B 3369  33.315   9.534   8.177
   20POPC   C4B 3370  33.277   9.870   7.895
   21POPC   NC3 3371  15.496  42.440   9.455
   21POPC   PO4 3372  16.087  42.071   9.333
   21POPC   GL1 3373  16.100  42.366   9.051
   21POPC   GL2 3374  15.765  42.421   9.039
   21POPC   C1A 3375  15.971  42.214   8.648
   21POPC   D2A 3376  15.704  42.332   8.357
   21POPC   C3A 3377  15.864  42.046   8.119
   21POPC   C4A 3378  16.218  41.958   7.943
   21POPC   C1B 3379  15.502  42.594   8.736
   21POPC   C2B 3380  15.282  42.646   8.357
   21POPC   C3B 3381  15.592  42.794   8.098
   21POPC   C4B 3382  15.781  42.490   7.878
   22POPC   NC3 3383  16.112  11.435   9.671
   22POPC   PO4 3384  16.091  10.721   9.395
   22POPC   GL1 3385  15.933  11.004   9.069
   22POPC   GL2 3386  16.036  11.369   9.154
   22POPC   C1A 3387  15.750  11.295   8.747
   22POPC   D2A 3388  15.770  11.508   8.354
   22POPC   C3A 3389  15.696  11.213   8.066
   22POPC   C4A 3390  15.709  11.140   7.675
   22POPC   C1B 3391  16.277  11.370   8.745
   22POPC   C2B 3392  16.280  11.536   8.334
   22POPC   C3B 3393  16.149  11.395   7.905
   22POPC   C4B 3394  16.082  11.396   7.454
   23POPC   NC3 3395  28.770  12.877   9.468
   23POPC   PO4 3396  28.133  12.667   9.558
   23POPC   GL1 3397  28.319  12.842   9.160
   23POPC   GL2 3398  28.598  13.054   9.036
   23POPC   C1A 3399  28.458  12.661   8.760
   23POPC   D2A 3400  28.596  12.496   8.376
   23POPC   C3A 3401  28.493  12.754   8.055
   23POPC   C4A 3402  28.310  12.689   7.666
   23POPC   C1B 3403  28.296  13.165   8.727
   23POPC   C2B 3404  28.363  13.262   8.319
   23POPC   C3B 3405  28.142  13.133   7.964
   23POPC   C4B 3406  28.355  13.213   7.620
   24POPC   NC3 3407  39.396  38.735   9.403
   24POPC   PO4 3408  38.942  38.162   9.398
   24POPC   GL1 3409  39.343  38.261   9.178
   24POPC   GL2 3410  39.316  38.543   8.947
   24POPC   C1A 3411  39.558  38.127   8.784
   24POPC   D2A 3412  39.335  38.393   8.455
   24POPC   C3A 3413  39.295  38.400   8.002
   24POPC   C4A 3414  38.987  38.400   7.668
   24POPC   C1B 3415  39.019  38.888   8.870
   24POPC   C2B 3416  38.939  39.005   8.462
   24POPC   C3B 3417  38.983  38.783   8.082
   24POPC   C4B 3418  39.008  38.909   7.664
   25POPC   NC3 3419  16.005  27.098   9.685
   25POPC   PO4 3420  15.754  26.477   9.424
   25POPC   GL1 3421  15.900  26.718   9.080
   25POPC   GL2 3422  16.213  26.621   9.156
   25POPC   C1A 3423  15.883  26.890   8.640
   25POPC   D2A 3424  15.662  26.979   8.248
   25POPC   C3A 3425  15.946  26.980   7.919
   25POPC   C4A 3426  16.247  27.258   7.832
   25POPC   C1B 3427  16.240  26.523   8.695
   25POPC   C2B 3428  16.043  26.503   8.265
   25POPC   C3B 3429  16.204  26.555   7.820
   25POPC   C4B 3430  16.519  26.661   7.449
   26POPC   NC3 3431  27.505  14.144   9.403
   26POPC   PO4 3432  27.945  13.637   9.514
   26POPC   GL1 3433  27.694  13.649   9.126
   26POPC   GL2 3434  27.719  13.969   8.971
   26POPC   C1A 3435  27.641  13.549   8.666
   26POPC   D2A 3436  27.922  13.520   8.299
   26POPC   C3A 3437  27.735  13.442   7.889
   26POPC   C4A 3438  27.482  13.115   7.703
   26POPC   C1B 3439  27.465  14.029   8.583
   26POPC   C2B 3440  27.443  13.837   8.181
   26POPC   C3B 3441  27.513  13.866   7.732
   26POPC   C4B 3442  27.511  13.560   7.395
   27POPC   NC3 3443  24.575  15.557   9.318
   27POPC   PO4 3444  24.631  16.252   9.362
   27POPC   GL1 3445  24.610  15.990   9.010
   27POPC   GL2 3446  24.276  15.894   9.070
   27POPC   C1A 3447  24.780  15.917   8.589
   27POPC   D2A 3448  24.884  15.808   8.153
   27POPC   C3A 3449  24.577  15.898   7.851
   27POPC   C4A 3450  24.494  15.935   7.430
   27POPC   C1B 3451  24.273  15.925   8.624
   27POPC   C2B 3452  24.139  15.766   8.244
   27POPC   C3B 3453  24.084  15.798   7.824
   27POPC   C4B 3454  23.978  16.042   7.467
   28POPC   NC3 3455  26.400  20.487   9.625
   28POPC   PO4 3456  27.078  20.322   9.491
   28POPC   GL1 3457  26.854  20.540   9.165
   28POPC   GL2 3458  26.570  20.740   9.092
   28POPC   C1A 3459  26.627  20.321   8.806
   28POPC   D2A 3460  26.580  20.436   8.357
   28POPC   C3A 3461  26.936  20.618   8.126
   28POPC   C4A 3462  27.078  20.376   7.808
   28POPC   C1B 3463  26.801  20.789   8.673
   28POPC   C2B 3464  26.610  20.975   8.276
   28POPC   C3B 3465  26.514  20.906   7.824
   28POPC   C4B 3466  26.453  20.800   7.370
   29POPC   NC3 3467   6.354   5.751   9.468
   29POPC   PO4 3468   5.916   6.249   9.442
   29POPC   GL1 3469   5.818   6.025   9.078
   29POPC   GL2 3470   5.953   5.685   9.149
   29POPC   C1A 3471   5.938   5.954   8.647
   29POPC   D2A 3472   5.780   6.009   8.226
   29POPC   C3A 3473   6.011   5.881   7.854
   29POPC   C4A 3474   6.056   6.141   7.482
   29POPC   C1B 3475   5.632   5.574   8.870
   29POPC   C2B 3476   5.518   5.604   8.435
   29POPC   C3B 3477   5.590   5.538   8.008
   29POPC   C4B 3478   5.517   5.810   7.660
   30POPC   NC3 3479  16.829  38.786   9.375
   30POPC   PO4 3480  16.535  39.413   9.433
   30POPC   GL1 3481  16.872  39.295   9.125
   30POPC   GL2 3482  17.084  39.594   9.002
   30POPC   C1A 3483  16.943  39.206   8.703
   30POPC   D2A 3484  16.707  39.042   8.390
   30POPC   C3A 3485  16.862  38.853   8.034
   30POPC   C4A 3486  16.722  38.854   7.617
   30POPC   C1B 3487  16.998  39.748   8.621
   30POPC   C2B 3488  16.670  39.564   8.370
   30POPC   C3B 3489  16.697  39.372   7.965
   30POPC   C4B 3490  17.051  39.235   7.725
   31POPC   NC3 3491  36.938  13.342   9.576
   31POPC   PO4 3492  36.532  12.739   9.483
   31POPC   GL1 3493  36.812  12.679   9.099
   31POPC   GL2 3494  37.175  12.689   9.189
   31POPC   C1A 3495  36.831  12.503   8.656
   31POPC   D2A 3496  36.701  12.380   8.223
   31POPC   C3A 3497  36.844  12.672   7.897
   31POPC   C4A 3498  36.870  13.009   7.576
   31POPC   C1B 3499  37.185  12.858   8.765
   31POPC   C2B 3500  37.157  12.755   8.310
   31POPC   C3B 3501  37.274  12.957   7.906
   31POPC   C4B 3502  37.373  13.044   7.461
   32POPC   NC3 3503  43.030  42.608   9.553
   32POPC   PO4 3504  43.194  41.980   9.565
   32POPC   GL1 3505  43.020  42.174   9.208
   32POPC   GL2 3506  43.297  42.179   8.948
   32POPC   C1A 3507  42.813  42.202   8.823
   32POPC   D2A 3508  43.039  42.271   8.457
   32POPC   C3A 3509  42.851  42.260   8.088
   32POPC   C4A 3510  42.917  42.413   7.698
   32POPC   C1B 3511  43.144  42.611   8.824
   32POPC   C2B 3512  43.269  42.761   8.402
   32POPC   C3B 3513  43.267  42.619   7.967
   32POPC   C4B 3514  43.368  42.546   7.497
   33POPC   NC3 3515  14.467  18.734   9.422
   33POPC   PO4 3516  14.683  19.328   9.635
   33POPC   GL1 3517  14.591  19.199   9.177
   33POPC   GL2 3518  14.248  19.164   9.173
   33POPC   C1A 3519  14.422  19.265   8.713
   33POPC   D2A 3520  14.362  19.357   8.275
   33POPC   C3A 3521  14.711  19.158   8.066
   33POPC   C4A 3522  14.581  18.894   7.716
   33POPC   C1B 3523  14.123  18.856   8.836
   33POPC   C2B 3524  13.990  18.719   8.434
   33POPC   C3B 3525  14.139  18.749   8.008
   33POPC   C4B 3526  13.944  18.639   7.636
   34POPC   NC3 3527   1.569  28.880   9.402
   34POPC   PO4 3528   1.174  29.382   9.441
   34POPC   GL1 3529   1.040  29.248   9.066
   34POPC   GL2 3530   1.349  29.119   8.991
   34POPC   C1A 3531   0.876  29.430   8.711
   34POPC   D2A 3532   0.828  29.219   8.340
   34POPC   C3A 3533   0.978  29.351   7.977
   34POPC   C4A 3534   1.039  28.968   7.745
   34POPC   C1B 3535   1.663  28.953   8.723
   34POPC   C2B 3536   1.655  28.835   8.308
   34POPC   C3B 3537   1.445  29.109   8.047
   34POPC   C4B 3538   1.507  29.077   7.623
   35POPC   NC3 3539   0.489  19.140   9.553
   35POPC   PO4 3540  44.935  18.918   9.440
   35POPC   GL1 3541   0.204  19.048   9.072
   35POPC   GL2 3542   0.514  18.892   9.100
   35POPC   C1A 3543   0.392  19.073   8.623
   35POPC   D2A 3544   0.489  19.296   8.240
   35POPC   C3A 3545   0.446  19.189   7.792
   35POPC   C4A 3546   0.476  19.216   7.338
   35POPC   C1B 3547   0.734  18.692   8.773
   35POPC   C2B 3548   0.753  18.699   8.341
   35POPC   C3B 3549   0.845  18.881   7.957
   35POPC   C4B 3550   0.695  18.800   7.514
   36POPC   NC3 3551  17.876  34.532   9.791
   36POPC   PO4 3552  18.498  34.445   9.752
   36POPC   GL1 3553  18.323  34.574   9.302
   36POPC   GL2 3554  18.434  34.915   9.204
   36POPC   C1A 3555  18.277  34.618   8.808
   36POPC   D2A 3556  18.223  34.750   8.346
   36POPC   C3A 3557  18.097  34.499   7.955
   36POPC   C4A 3558  18.026  34.409   7.499
   36POPC   C1B 3559  18.740  34.831   8.839
   36POPC   C2B 3560  18.738  34.736   8.391
   36POPC   C3B 3561  18.578  34.834   7.975
   36POPC   C4B 3562  18.759  34.828   7.546
   37POPC   NC3 3563  37.011   8.046   9.537
   37POPC   PO4 3564  36.682   8.574   9.645
   37POPC   GL1 3565  36.742   8.346   9.223
   37POPC   GL2 3566  37.156   8.406   9.210
   37POPC   C1A 3567  36.590   7.998   8.867
   37POPC   D2A 3568  36.515   7.854   8.400
   37POPC   C3A 3569  36.779   8.159   8.084
   37POPC   C4A 3570  37.001   8.594   7.986
   37POPC   C1B 3571  37.067   8.214   8.830
   37POPC   C2B 3572  36.990   7.941   8.513
   37POPC   C3B 3573  37.243   7.858   8.169
   37POPC   C4B 3574  37.279   8.180   7.841
   38POPC   NC3 3575  18.802  24.405   9.551
   38POPC   PO4 3576  19.254  24.764   9.274
   38POPC   GL1 3577  18.924  24.572   9.037
   38POPC   GL2 3578  18.946  24.221   9.097
   38POPC   C1A 3579  18.927  24.708   8.617
   38POPC   D2A 3580  19.314  24.739   8.333
   38POPC   C3A 3581  19.165  24.758   7.907
   38POPC   C4A 3582  18.730  24.852   7.869
   38POPC   C1B 3583  19.135  24.239   8.676
   38POPC   C2B 3584  18.967  24.333   8.261
   38POPC   C3B 3585  18.847  24.280   7.844
   38POPC   C4B 3586  18.994  24.085   7.454
   39POPC   NC3 3587  25.457  21.623   9.532
   39POPC   PO4 3588  25.158  20.998   9.674
   39POPC   GL1 3589  25.397  21.177   9.256
   39POPC   GL2 3590  25.229  21.453   9.119
   39POPC   C1A 3591  25.326  21.040   8.783
   39POPC   D2A 3592  25.419  21.217   8.413
   39POPC   C3A 3593  25.275  21.110   8.044
   39POPC   C4A 3594  25.380  21.300   7.664
   39POPC   C1B 3595  25.079  21.480   8.726
   39POPC   C2B 3596  25.030  21.541   8.312
   39POPC   C3B 3597  24.968  21.489   7.901
   39POPC   C4B 3598  24.884  21.404   7.482
   40POPC   NC3 3599  31.633  27.274   9.551
   40POPC   PO4 3600  31.842  26.711   9.582
   40POPC   GL1 3601  31.702  26.828   9.191
   40POPC   GL2 3602  31.402  26.968   9.146
   40POPC   C1A 3603  31.548  26.642   8.774
   40POPC   D2A 3604  31.369  26.707   8.343
   40POPC   C3A 3605  31.585  26.760   7.945
   40POPC   C4A 3606  31.785  27.138   7.792
   40POPC   C1B 3607  31.628  27.206   8.854
   40POPC   C2B 3608  31.455  27.349   8.489
   40POPC   C3B 3609  31.359  27.189   8.119
   40POPC   C4B 3610  31.246  27.100   7.722
   41POPC   NC3 3611  37.684  10.111   9.428
   41POPC   PO4 3612  37.258  10.425   9.829
   41POPC   GL1 3613  37.315  10.557   9.317
   41POPC   GL2 3614  37.691  10.504   9.117
   41POPC   C1A 3615  37.274  10.521   8.859
   41POPC   D2A 3616  37.643  10.454   8.566
   41POPC   C3A 3617  37.612  10.392   8.112
   41POPC   C4A 3618  37.555  10.446   7.687
   41POPC   C1B 3619  37.956  10.773   8.808
   41POPC   C2B 3620  38.126  10.694   8.369
   41POPC   C3B 3621  38.133  10.448   7.942
   41POPC   C4B 3622  38.004  10.591   7.490
   42POPC   NC3 3623  39.749  20.911   9.408
   42POPC   PO4 3624  40.271  20.488   9.439
   42POPC   GL1 3625  40.068  20.631   9.104
   42POPC   GL2 3626  40.328  20.913   9.138
   42POPC   C1A 3627  39.790  20.485   8.761
   42POPC   D2A 3628  39.894  20.577   8.346
   42POPC   C3A 3629  39.904  20.326   7.974
   42POPC   C4A 3630  39.727  20.394   7.561
   42POPC   C1B 3631  40.423  20.732   8.753
   42POPC   C2B 3632  40.374  20.922   8.410
   42POPC   C3B 3633  40.279  20.763   8.055
   42POPC   C4B 3634  40.194  20.628   7.678
   43POPC   NC3 3635  12.195  38.954   9.558
   43POPC   PO4 3636  12.191  38.336   9.445
   43POPC   GL1 3637  12.068  38.453   9.099
   43POPC   GL2 3638  11.785  38.695   9.154
   43POPC   C1A 3639  12.230  38.516   8.674
   43POPC   D2A 3640  12.122  38.336   8.297
   43POPC   C3A 3641  12.303  38.489   7.968
   43POPC   C4A 3642  12.169  38.667   7.650
   43POPC   C1B 3643  11.722  38.431   8.759
   43POPC   C2B 3644  11.615  38.369   8.353
   43POPC   C3B 3645  11.768  38.625   8.016
   43POPC   C4B 3646  11.641  38.565   7.602
   44POPC   NC3 3647  44.471  10.594   9.882
   44POPC   PO4 3648  43.815  10.772   9.710
   44POPC   GL1 3649  43.797  10.678   9.209
   44POPC   GL2 3650  44.098  10.522   9.125
   44POPC   C1A 3651  43.711  10.486   8.794
   44POPC   D2A 3652  43.855  10.460   8.382
   44POPC   C3A 3653  43.691  10.166   8.099
   44POPC   C4A 3654  43.851  10.321   7.703
   44POPC   C1B 3655  44.214  10.341   8.762
   44POPC   C2B 3656  44.309  10.171   8.393
   44POPC   C3B 3657  44.265  10.326   8.005
   44POPC   C4B 3658  44.313  10.119   7.631
   45POPC   NC3 3659   7.949   0.804   9.299
   45POPC   PO4 3660   8.375   1.107   9.664
   45POPC   GL1 3661   8.286   1.217   9.190
   45POPC   GL2 3662   7.947   1.219   8.995
   45POPC   C1A 3663   8.337   1.452   8.791
   45POPC   D2A 3664   8.045   1.409   8.459
   45POPC   C3A 3665   8.281   1.452   8.107
   45POPC   C4A 3666   8.560   1.507   7.769
   45POPC   C1B 3667   7.988   0.931   8.638
   45POPC   C2B 3668   8.167   0.892   8.222
   45POPC   C3B 3669   8.142   1.052   7.832
   45POPC   C4B 3670   7.864   1.276   7.668
   46POPC   NC3 3671  10.302  12.140   9.438
   46POPC   PO4 3672  10.806  11.916   9.768
   46POPC   GL1 3673  10.804  11.952   9.294
   46POPC   GL2 3674  10.846  12.282   9.218
   46POPC   C1A 3675  10.642  11.991   8.835
   46POPC   D2A 3676  10.413  11.837   8.458
   46POPC   C3A 3677  10.633  11.952   8.079
   46POPC   C4A 3678  10.415  12.169   7.747
   46POPC   C1B 3679  10.892  12.476   8.821
   46POPC   C2B 3680  10.909  12.284   8.415
   46POPC   C3B 3681  10.799  12.443   8.009
   46POPC   C4B 3682  10.859  12.360   7.599
   47POPC   NC3 3683   1.997  13.455   9.468
   47POPC   PO4 3684   2.188  13.967   9.220
   47POPC   GL1 3685   2.102  13.789   8.851
   47POPC   GL2 3686   1.986  13.462   8.963
   47POPC   C1A 3687   2.332  13.528   8.571
   47POPC   D2A 3688   2.351  13.215   8.279
   47POPC   C3A 3689   2.100  13.341   7.974
   47POPC   C4A 3690   1.932  13.751   7.943
   47POPC   C1B 3691   1.610  13.614   8.781
   47POPC   C2B 3692   1.699  13.546   8.361
   47POPC   C3B 3693   1.580  13.376   7.988
   47POPC   C4B 3694   1.755  13.462   7.559
   48POPC   NC3 3695  24.915  22.751   9.202
   48POPC   PO4 3696  25.466  22.988   9.530
   48POPC   GL1 3697  25.387  22.964   9.116
   48POPC   GL2 3698  25.649  22.717   9.064
   48POPC   C1A 3699  25.190  23.172   8.747
   48POPC   D2A 3700  25.371  23.286   8.353
   48POPC   C3A 3701  25.186  23.087   8.009
   48POPC   C4A 3702  24.858  23.186   7.750
   48POPC   C1B 3703  25.589  22.854   8.640
   48POPC   C2B 3704  25.627  22.859   8.189
   48POPC   C3B 3705  25.497  22.733   7.786
   48POPC   C4B 3706  25.091  22.757   7.608
   49POPC   NC3 3707  25.083  17.890   9.471
   49POPC   PO4 3708  25.431  18.333   9.584
   49POPC   GL1 3709  25.379  18.123   9.129
   49POPC   GL2 3710  25.019  18.028   8.983
   49POPC   C1A 3711  25.425  17.895   8.725
   49POPC   D2A 3712  25.497  17.990   8.325
   49POPC   C3A 3713  25.406  18.372   8.104
   49POPC   C4A 3714  25.523  18.439   7.669
   49POPC   C1B 3715  25.006  18.124   8.520
   49POPC   C2B 3716  24.926  18.502   8.288
   49POPC   C3B 3717  24.950  18.775   7.963
   49POPC   C4B 3718  25.031  18.551   7.616
   50POPC   NC3 3719  25.533  14.127   9.546
   50POPC   PO4 3720  25.007  14.523   9.496
   50POPC   GL1 3721  25.356  14.474   9.184
   50POPC   GL2 3722  25.732  14.542   9.232
   50POPC   C1A 3723  25.477  14.628   8.780
   50POPC   D2A 3724  25.337  14.469   8.406
   50POPC   C3A 3725  25.130  14.719   8.098
   50POPC   C4A 3726  25.229  14.468   7.757
   50POPC   C1B 3727  25.703  14.185   8.913
   50POPC   C2B 3728  25.618  14.023   8.496
   50POPC   C3B 3729  25.543  14.151   8.062
   50POPC   C4B 3730  25.662  13.897   7.731
   51POPC   NC3 3731   1.716  31.376   9.552
   51POPC   PO4 3732   2.175  31.102   9.321
   51POPC   GL1 3733   1.954  31.388   9.068
   51POPC   GL2 3734   2.220  31.634   8.917
   51POPC   C1A 3735   1.960  31.323   8.643
   51POPC   D2A 3736   2.315  31.397   8.412
   51POPC   C3A 3737   2.144  31.268   8.048
   51POPC   C4A 3738   2.204  31.136   7.649
   51POPC   C1B 3739   1.868  31.848   8.745
   51POPC   C2B 3740   1.648  31.783   8.367
   51POPC   C3B 3741   1.580  31.521   8.014
   51POPC   C4B 3742   1.904  31.588   7.726
   52POPC   NC3 3743  27.982  41.746   9.579
   52POPC   PO4 3744  28.468  41.296   9.533
   52POPC   GL1 3745  28.348  41.603   9.243
   52POPC   GL2 3746  28.575  41.902   9.241
   52POPC   C1A 3747  28.253  41.571   8.823
   52POPC   D2A 3748  28.371  41.358   8.447
   52POPC   C3A 3749  28.254  41.648   8.128
   52POPC   C4A 3750  28.217  41.777   7.722
   52POPC   C1B 3751  28.653  42.146   8.844
   52POPC   C2B 3752  28.788  42.098   8.370
   52POPC   C3B 3753  28.698  41.857   7.971
   52POPC   C4B 3754  28.593  41.397   7.872
   53POPC   NC3 3755  36.500  44.814   9.435
   53POPC   PO4 3756  37.024  44.517   9.640
   53POPC   GL1 3757  36.896  44.479   9.192
   53POPC   GL2 3758  36.928  44.834   9.139
   53POPC   C1A 3759  36.862  44.580   8.708
   53POPC   D2A 3760  37.042  44.725   8.311
   53POPC   C3A 3761  36.921  44.510   8.011
   53POPC   C4A 3762  36.603  44.370   7.758
   53POPC   C1B 3763  36.614   0.042   8.845
   53POPC   C2B 3764  36.609  44.963   8.420
   53POPC   C3B 3765  36.532  44.878   7.998
   53POPC   C4B 3766  36.583   0.052   7.595
   54POPC   NC3 3767  23.098  27.450   9.489
   54POPC   PO4 3768  22.612  27.869   9.502
   54POPC   GL1 3769  22.840  27.819   9.104
   54POPC   GL2 3770  22.914  27.453   9.016
   54POPC   C1A 3771  23.192  27.816   8.793
   54POPC   D2A 3772  23.166  27.551   8.422
   54POPC   C3A 3773  23.154  27.757   8.037
   54POPC   C4A 3774  23.037  27.887   7.615
   54POPC   C1B 3775  23.088  27.149   8.718
   54POPC   C2B 3776  22.867  27.042   8.374
   54POPC   C3B 3777  22.865  27.273   7.995
   54POPC   C4B 3778  22.808  27.435   7.565
   55POPC   NC3 3779  11.022  28.036   9.541
   55POPC   PO4 3780  10.493  28.494   9.606
   55POPC   GL1 3781  10.739  28.391   9.266
   55POPC   GL2 3782  10.574  28.099   9.226
   55POPC   C1A 3783  10.768  28.380   8.818
   55POPC   D2A 3784  10.517  28.200   8.505
   55POPC   C3A 3785  10.690  28.232   8.112
   55POPC   C4A 3786  10.870  28.351   7.727
   55POPC   C1B 3787  10.185  28.083   8.920
   55POPC   C2B 3788   9.995  28.006   8.487
   55POPC   C3B 3789  10.239  27.971   8.115
   55POPC   C4B 3790  10.351  28.169   7.727
   56POPC   NC3 3791  27.771  44.395   9.502
   56POPC   PO4 3792  27.222  44.857   9.538
   56POPC   GL1 3793  27.442  44.722   9.131
   56POPC   GL2 3794  27.719  44.533   9.030
   56POPC   C1A 3795  27.518  44.825   8.677
   56POPC   D2A 3796  27.617  44.608   8.268
   56POPC   C3A 3797  27.441  44.807   7.948
   56POPC   C4A 3798  27.550   0.178   7.791
   56POPC   C1B 3799  27.927  44.471   8.661
   56POPC   C2B 3800  28.102  44.395   8.275
   56POPC   C3B 3801  27.977  44.512   7.862
   56POPC   C4B 3802  27.591  44.369   7.749
   57POPC   NC3 3803  18.057   5.482   9.513
   57POPC   PO4 3804  18.363   4.882   9.490
   57POPC   GL1 3805  18.394   5.106   9.116
   57POPC   GL2 3806  18.427   4.839   8.901
   57POPC   C1A 3807  18.194   5.243   8.716
   57POPC   D2A 3808  18.299   5.186   8.297
   57POPC   C3A 3809  18.109   5.331   7.931
   57POPC   C4A 3810  17.942   4.977   7.736
   57POPC   C1B 3811  18.742   4.973   8.643
   57POPC   C2B 3812  18.725   4.902   8.219
   57POPC   C3B 3813  18.443   4.904   7.891
   57POPC   C4B 3814  18.258   4.558   7.668
   58POPC   NC3 3815  16.959  16.913   9.392
   58POPC   PO4 3816  16.513  16.464   9.552
   58POPC   GL1 3817  16.638  16.606   9.161
   58POPC   GL2 3818  16.679  16.274   9.052
   58POPC   C1A 3819  16.498  16.938   8.824
   58POPC   D2A 3820  16.420  17.153   8.400
   58POPC   C3A 3821  16.425  16.851   8.076
   58POPC   C4A 3822  16.677  16.847   7.720
   58POPC   C1B 3823  16.856  16.538   8.711
   58POPC   C2B 3824  16.793  16.636   8.332
   58POPC   C3B 3825  16.728  16.419   7.985
   58POPC   C4B 3826  17.043  16.350   7.760
   59POPC   NC3 3827  13.784  26.799   9.566
   59POPC   PO4 3828  13.177  26.504   9.460
   59POPC   GL1 3829  13.457  26.610   9.152
   59POPC   GL2 3830  13.335  26.938   9.099
   59POPC   C1A 3831  13.438  26.623   8.705
   59POPC   D2A 3832  13.370  26.780   8.290
   59POPC   C3A 3833  13.683  26.714   7.996
   59POPC   C4A 3834  13.783  26.514   7.632
   59POPC   C1B 3835  13.414  27.140   8.660
   59POPC   C2B 3836  13.738  27.147   8.325
   59POPC   C3B 3837  13.795  27.218   7.894
   59POPC   C4B 3838  13.758  27.093   7.453
   60POPC   NC3 3839  27.392  24.052   9.236
   60POPC   PO4 3840  27.530  23.398   9.405
   60POPC   GL1 3841  27.560  23.602   9.011
   60POPC   GL2 3842  27.212  23.658   8.973
   60POPC   C1A 3843  27.601  23.866   8.631
   60POPC   D2A 3844  27.792  24.058   8.271
   60POPC   C3A 3845  27.751  23.775   7.912
   60POPC   C4A 3846  27.401  23.829   7.650
   60POPC   C1B 3847  27.150  23.597   8.543
   60POPC   C2B 3848  27.260  23.669   8.118
   60POPC   C3B 3849  27.120  23.415   7.713
   60POPC   C4B 3850  27.203  23.491   7.239
   61POPC   NC3 3851  32.081  26.298   9.558
   61POPC   PO4 3852  32.640  25.986   9.457
   61POPC   GL1 3853  32.408  26.213   9.142
   61POPC   GL2 3854  32.662  26.366   8.958
   61POPC   C1A 3855  32.065  26.356   8.879
   61POPC   D2A 3856  31.881  26.390   8.469
   61POPC   C3A 3857  32.187  26.190   8.230
   61POPC   C4A 3858  32.225  26.021   7.867
   61POPC   C1B 3859  32.672  25.943   8.762
   61POPC   C2B 3860  32.499  25.765   8.383
   61POPC   C3B 3861  32.658  25.762   7.978
   61POPC   C4B 3862  32.603  26.007   7.549
   62POPC   NC3 3863   2.407  38.025   9.461
   62POPC   PO4 3864   2.813  38.544   9.691
   62POPC   GL1 3865   2.833  38.313   9.276
   62POPC   GL2 3866   2.762  38.581   9.032
   62POPC   C1A 3867   2.999  38.164   8.868
   62POPC   D2A 3868   2.953  38.425   8.508
   62POPC   C3A 3869   2.850  38.219   8.128
   62POPC   C4A 3870   2.835  38.469   7.744
   62POPC   C1B 3871   2.511  38.303   8.727
   62POPC   C2B 3872   2.371  38.328   8.293
   62POPC   C3B 3873   2.368  38.593   7.919
   62POPC   C4B 3874   2.555  38.858   7.585
   63POPC   NC3 3875  27.116  27.090   9.827
   63POPC   PO4 3876  26.659  27.504   9.572
   63POPC   GL1 3877  26.843  27.613   9.230
   63POPC   GL2 3878  27.108  27.391   9.190
   63POPC   C1A 3879  26.784  27.616   8.842
   63POPC   D2A 3880  26.613  27.507   8.470
   63POPC   C3A 3881  26.921  27.601   8.162
   63POPC   C4A 3882  27.068  27.701   7.765
   63POPC   C1B 3883  27.237  27.264   8.758
   63POPC   C2B 3884  27.340  27.342   8.330
   63POPC   C3B 3885  27.251  27.244   7.901
   63POPC   C4B 3886  27.258  27.413   7.403
   64POPC   NC3 3887  32.397  23.295   9.873
   64POPC   PO4 3888  32.221  23.879   9.528
   64POPC   GL1 3889  32.291  23.828   9.108
   64POPC   GL2 3890  32.577  24.015   9.032
   64POPC   C1A 3891  32.069  23.656   8.748
   64POPC   D2A 3892  32.161  23.854   8.358
   64POPC   C3A 3893  32.017  23.723   7.944
   64POPC   C4A 3894  32.194  23.742   7.493
   64POPC   C1B 3895  32.582  23.737   8.693
   64POPC   C2B 3896  32.646  23.664   8.288
   64POPC   C3B 3897  32.504  23.881   7.941
   64POPC   C4B 3898  32.444  24.185   7.610
   65POPC   NC3 3899  19.548   4.660   9.423
   65POPC   PO4 3900  19.919   5.198   9.451
   65POPC   GL1 3901  19.902   4.882   9.113
   65POPC   GL2 3902  20.248   4.850   8.993
   65POPC   C1A 3903  19.609   4.940   8.760
   65POPC   D2A 3904  19.603   5.287   8.460
   65POPC   C3A 3905  19.513   5.105   8.062
   65POPC   C4A 3906  19.528   5.089   7.615
   65POPC   C1B 3907  20.094   5.099   8.668
   65POPC   C2B 3908  19.981   4.973   8.270
   65POPC   C3B 3909  19.971   5.118   7.863
   65POPC   C4B 3910  20.046   4.906   7.469
   66POPC   NC3 3911  21.362  25.241   9.637
   66POPC   PO4 3912  21.758  25.599   9.207
   66POPC   GL1 3913  21.507  25.386   8.946
   66POPC   GL2 3914  21.437  25.086   9.021
   66POPC   C1A 3915  21.624  25.176   8.574
   66POPC   D2A 3916  21.427  24.999   8.259
   66POPC   C3A 3917  21.625  25.049   7.873
   66POPC   C4A 3918  21.535  25.452   7.691
   66POPC   C1B 3919  21.130  25.001   8.696
   66POPC   C2B 3920  20.957  25.190   8.347
   66POPC   C3B 3921  21.108  25.211   7.937
   66POPC   C4B 3922  21.215  25.058   7.566
   67POPC   NC3 3923  44.685  21.103   9.813
   67POPC   PO4 3924  44.714  20.492   9.527
   67POPC   GL1 3925  44.814  20.611   9.119
   67POPC   GL2 3926  44.453  20.611   9.055
   67POPC   C1A 3927   0.015  20.948   8.824
   67POPC   D2A 3928  44.998  20.851   8.395
   67POPC   C3A 3929  44.720  21.000   8.120
   67POPC   C4A 3930  44.634  20.853   7.745
   67POPC   C1B 3931  44.565  20.431   8.709
   67POPC   C2B 3932  44.554  20.567   8.351
   67POPC   C3B 3933  44.733  20.446   8.031
   67POPC   C4B 3934  44.504  20.295   7.723
   68POPC   NC3 3935   1.584  11.599   9.429
   68POPC   PO4 3936   2.174  11.852   9.520
   68POPC   GL1 3937   2.066  11.930   9.115
   68POPC   GL2 3938   1.719  11.997   9.088
   68POPC   C1A 3939   2.128  12.225   8.811
   68POPC   D2A 3940   2.294  12.129   8.417
   68POPC   C3A 3941   2.111  12.299   8.080
   68POPC   C4A 3942   2.307  12.224   7.724
   68POPC   C1B 3943   1.579  12.346   8.817
   68POPC   C2B 3944   1.689  12.436   8.387
   68POPC   C3B 3945   1.590  12.278   7.980
   68POPC   C4B 3946   1.832  11.921   7.790
   69POPC   NC3 3947  31.109  34.427   9.497
   69POPC   PO4 3948  31.750  34.711   9.641
   69POPC   GL1 3949  31.540  34.664   9.275
   69POPC   GL2 3950  31.796  34.386   9.228
   69POPC   C1A 3951  31.553  34.638   8.829
   69POPC   D2A 3952  31.807  34.623   8.465
   69POPC   C3A 3953  31.587  34.745   8.107
   69POPC   C4A 3954  31.485  34.728   7.690
   69POPC   C1B 3955  31.775  34.175   8.821
   69POPC   C2B 3956  31.544  34.170   8.420
   69POPC   C3B 3957  31.611  34.254   7.955
   69POPC   C4B 3958  31.703  34.078   7.534
   70POPC   NC3 3959  25.229  31.216   9.431
   70POPC   PO4 3960  25.841  31.435   9.645
   70POPC   GL1 3961  25.627  31.379   9.172
   70POPC   GL2 3962  25.446  31.096   8.994
   70POPC   C1A 3963  25.436  31.593   8.765
   70POPC   D2A 3964  25.161  31.612   8.366
   70POPC   C3A 3965  25.271  31.575   7.937
   70POPC   C4A 3966  25.137  31.394   7.557
   70POPC   C1B 3967  25.073  31.266   8.738
   70POPC   C2B 3968  24.776  31.246   8.430
   70POPC   C3B 3969  24.913  31.204   8.000
   70POPC   C4B 3970  24.835  30.994   7.588
   71POPC   NC3 3971   4.754  38.518   9.521
   71POPC   PO4 3972   5.351  38.668   9.612
   71POPC   GL1 3973   5.157  38.663   9.192
   71POPC   GL2 3974   5.048  38.313   9.152
   71POPC   C1A 3975   4.837  38.673   8.846
   71POPC   D2A 3976   4.781  38.575   8.387
   71POPC   C3A 3977   5.064  38.620   8.006
   71POPC   C4A 3978   5.062  38.660   7.543
   71POPC   C1B 3979   5.212  38.337   8.740
   71POPC   C2B 3980   5.592  38.314   8.482
   71POPC   C3B 3981   5.661  38.273   8.046
   71POPC   C4B 3982   5.322  38.210   7.728
   72POPC   NC3 3983  17.689  27.239   9.543
   72POPC   PO4 3984  17.354  27.782   9.560
   72POPC   GL1 3985  17.688  27.663   9.260
   72POPC   GL2 3986  17.913  27.903   9.145
   72POPC   C1A 3987  17.750  27.419   8.881
   72POPC   D2A 3988  17.532  27.306   8.498
   72POPC   C3A 3989  17.703  27.375   8.106
   72POPC   C4A 3990  17.531  27.389   7.711
   72POPC   C1B 3991  17.545  27.934   8.851
   72POPC   C2B 3992  17.361  27.815   8.456
   72POPC   C3B 3993  17.579  27.875   8.077
   72POPC   C4B 3994  17.682  27.873   7.649
   73POPC   NC3 3995  37.407   9.380   9.472
   73POPC   PO4 3996  37.321   8.742   9.593
   73POPC   GL1 3997  37.494   8.911   9.204
   73POPC   GL2 3998  37.759   9.184   9.180
   73POPC   C1A 3999  37.685   8.875   8.808
   73POPC   D2A 4000  37.562   9.090   8.414
   73POPC   C3A 4001  37.834   9.134   8.080
   73POPC   C4A 4002  37.829   9.029   7.696
   73POPC   C1B 4003  37.477   9.364   8.822
   73POPC   C2B 4004  37.257   9.482   8.383
   73POPC   C3B 4005  37.496   9.502   8.022
   73POPC   C4B 4006  37.451   9.343   7.557
   74POPC   NC3 4007   7.196  44.269   9.506
   74POPC   PO4 4008   7.692  43.716   9.495
   74POPC   GL1 4009   7.451  43.918   9.185
   74POPC   GL2 4010   7.075  43.863   9.189
   74POPC   C1A 4011   7.360  43.802   8.778
   74POPC   D2A 4012   7.537  43.784   8.387
   74POPC   C3A 4013   7.520  44.146   8.154
   74POPC   C4A 4014   7.374  43.946   7.804
   74POPC   C1B 4015   7.053  44.220   8.851
   74POPC   C2B 4016   7.011  44.310   8.368
   74POPC   C3B 4017   7.100  44.346   7.887
   74POPC   C4B 4018   7.142  44.172   7.423
   75POPC   NC3 4019  18.935   0.027   9.943
   75POPC   PO4 4020  18.805  44.452   9.607
   75POPC   GL1 4021  19.012  44.710   9.229
   75POPC   GL2 4022  18.703  44.738   9.017
   75POPC   C1A 4023  19.131  44.825   8.786
   75POPC   D2A 4024  18.876  44.626   8.475
   75POPC   C3A 4025  19.071  44.558   8.077
   75POPC   C4A 4026  18.922  44.509   7.668
   75POPC   C1B 4027  18.611  44.303   8.820
   75POPC   C2B 4028  18.701  44.113   8.399
   75POPC   C3B 4029  18.617  44.302   8.007
   75POPC   C4B 4030  18.567  44.174   7.557
   76POPC   NC3 4031   8.369  29.624   9.908
   76POPC   PO4 4032   7.919  29.849   9.448
   76POPC   GL1 4033   7.962  29.971   9.065
   76POPC   GL2 4034   8.306  30.032   9.073
   76POPC   C1A 4035   7.868  30.039   8.630
   76POPC   D2A 4036   7.887  29.930   8.218
   76POPC   C3A 4037   8.137  30.071   7.903
   76POPC   C4A 4038   8.098  29.752   7.596
   76POPC   C1B 4039   8.331  29.853   8.703
   76POPC   C2B 4040   8.429  29.926   8.302
   76POPC   C3B 4041   8.455  29.672   7.950
   76POPC   C4B 4042   8.581  29.670   7.472
   77POPC   NC3 4043  18.529   8.244   9.324
   77POPC   PO4 4044  18.053   8.518   9.668
   77POPC   GL1 4045  18.039   8.198   9.170
   77POPC   GL2 4046  18.105   7.853   9.139
   77POPC   C1A 4047  18.179   8.146   8.715
   77POPC   D2A 4048  17.926   7.976   8.372
   77POPC   C3A 4049  18.143   8.045   7.984
   77POPC   C4A 4050  18.407   8.384   7.777
   77POPC   C1B 4051  18.131   7.641   8.731
   77POPC   C2B 4052  18.479   7.765   8.428
   77POPC   C3B 4053  18.642   7.982   8.046
   77POPC   C4B 4054  18.464   7.889   7.612
   78POPC   NC3 4055  43.468  17.641   9.578
   78POPC   PO4 4056  42.899  17.662   9.562
   78POPC   GL1 4057  43.109  17.635   9.201
   78POPC   GL2 4058  43.204  17.290   9.243
   78POPC   C1A 4059  43.004  17.759   8.803
   78POPC   D2A 4060  42.738  17.772   8.469
   78POPC   C3A 4061  43.033  17.759   8.148
   78POPC   C4A 4062  43.061  17.652   7.735
   78POPC   C1B 4063  43.421  17.406   8.853
   78POPC   C2B 4064  43.428  17.556   8.430
   78POPC   C3B 4065  43.433  17.422   8.014
   78POPC   C4B 4066  43.532  17.482   7.577
   79POPC   NC3 4067  15.498  32.427   9.478
   79POPC   PO4 4068  14.885  32.050   9.494
   79POPC   GL1 4069  15.155  32.222   9.173
   79POPC   GL2 4070  14.957  32.378   8.984
   79POPC   C1A 4071  15.460  32.360   8.815
   79POPC   D2A 4072  15.508  32.562   8.413
   79POPC   C3A 4073  15.517  32.357   8.002
   79POPC   C4A 4074  15.342  32.051   7.765
   79POPC   C1B 4075  15.120  32.005   8.715
   79POPC   C2B 4076  15.174  32.019   8.271
   79POPC   C3B 4077  15.021  32.366   8.021
   79POPC   C4B 4078  15.134  32.503   7.626
   80POPC   NC3 4079  21.313   3.856   9.552
   80POPC   PO4 4080  21.145   3.190   9.615
   80POPC   GL1 4081  21.185   3.391   9.200
   80POPC   GL2 4082  21.457   3.641   9.106
   80POPC   C1A 4083  21.084   3.450   8.765
   80POPC   D2A 4084  21.336   3.612   8.449
   80POPC   C3A 4085  21.248   3.381   8.111
   80POPC   C4A 4086  21.178   3.573   7.725
   80POPC   C1B 4087  21.689   3.860   8.764
   80POPC   C2B 4088  21.658   4.010   8.342
   80POPC   C3B 4089  21.619   3.734   7.979
   80POPC   C4B 4090  21.664   3.590   7.553
   81POPC   NC3 4091  27.177   3.532   9.313
   81POPC   PO4 4092  26.722   3.814   9.732
   81POPC   GL1 4093  26.669   3.441   9.259
   81POPC   GL2 4094  26.867   3.526   8.922
   81POPC   C1A 4095  26.415   3.367   8.795
   81POPC   D2A 4096  26.290   3.430   8.337
   81POPC   C3A 4097  26.628   3.641   8.123
   81POPC   C4A 4098  26.822   3.779   7.738
   81POPC   C1B 4099  27.169   3.680   8.607
   81POPC   C2B 4100  27.139   3.621   8.158
   81POPC   C3B 4101  27.048   3.321   7.858
   81POPC   C4B 4102  26.920   3.362   7.439
   82POPC   NC3 4103  34.010  30.386   9.512
   82POPC   PO4 4104  33.887  30.969   9.705
   82POPC   GL1 4105  33.755  30.817   9.254
   82POPC   GL2 4106  33.684  30.494   9.073
   82POPC   C1A 4107  33.922  30.846   8.804
   82POPC   D2A 4108  33.992  30.881   8.349
   82POPC   C3A 4109  33.656  30.886   8.060
   82POPC   C4A 4110  33.766  30.690   7.713
   82POPC   C1B 4111  33.785  30.384   8.610
   82POPC   C2B 4112  33.750  30.341   8.153
   82POPC   C3B 4113  33.679  30.218   7.718
   82POPC   C4B 4114  33.482  30.461   7.349
   83POPC   NC3 4115  41.274  42.146   9.602
   83POPC   PO4 4116  41.859  42.491   9.502
   83POPC   GL1 4117  41.638  42.499   9.134
   83POPC   GL2 4118  41.262  42.351   9.120
   83POPC   C1A 4119  41.624  42.250   8.782
   83POPC   D2A 4120  41.313  42.373   8.524
   83POPC   C3A 4121  41.445  42.324   8.128
   83POPC   C4A 4122  41.558  42.465   7.722
   83POPC   C1B 4123  41.218  41.949   8.825
   83POPC   C2B 4124  41.359  41.867   8.384
   83POPC   C3B 4125  41.206  41.913   7.927
   83POPC   C4B 4126  41.255  42.128   7.479
   84POPC   NC3 4127  30.319  16.780   9.617
   84POPC   PO4 4128  29.830  16.439   9.345
   84POPC   GL1 4129  30.032  16.724   9.166
   84POPC   GL2 4130  29.729  16.887   9.060
   84POPC   C1A 4131  30.138  16.577   8.759
   84POPC   D2A 4132  30.029  16.736   8.384
   84POPC   C3A 4133  29.915  16.573   8.021
   84POPC   C4A 4134  29.727  16.697   7.625
   84POPC   C1B 4135  30.063  17.066   8.779
   84POPC   C2B 4136  30.387  17.077   8.462
   84POPC   C3B 4137  30.221  17.104   8.055
   84POPC   C4B 4138  30.220  16.857   7.711
   85POPC   NC3 4139  34.423  10.741   9.324
   85POPC   PO4 4140  35.079  10.618   9.372
   85POPC   GL1 4141  34.742  10.424   9.071
   85POPC   GL2 4142  34.406  10.205   8.977
   85POPC   C1A 4143  34.530  10.548   8.653
   85POPC   D2A 4144  34.351  10.743   8.287
   85POPC   C3A 4145  34.652  10.711   7.987
   85POPC   C4A 4146  34.664  10.638   7.499
   85POPC   C1B 4147  34.779  10.082   8.722
   85POPC   C2B 4148  34.894  10.319   8.365
   85POPC   C3B 4149  34.499  10.266   8.183
   85POPC   C4B 4150  34.378  10.341   7.782
   86POPC   NC3 4151   8.487  14.987   9.414
   86POPC   PO4 4152   7.906  15.142   9.532
   86POPC   GL1 4153   8.058  15.174   9.134
   86POPC   GL2 4154   8.125  14.825   9.071
   86POPC   C1A 4155   8.062  15.331   8.710
   86POPC   D2A 4156   8.012  15.646   8.403
   86POPC   C3A 4157   8.323  15.507   8.129
   86POPC   C4A 4158   8.260  15.219   7.790
   86POPC   C1B 4159   8.058  14.848   8.633
   86POPC   C2B 4160   8.173  14.897   8.182
   86POPC   C3B 4161   8.158  14.713   7.769
   86POPC   C4B 4162   8.053  14.959   7.396
   87POPC   NC3 4163  43.293  24.799   9.533
   87POPC   PO4 4164  43.015  24.090   9.520
   87POPC   GL1 4165  42.947  24.398   9.237
   87POPC   GL2 4166  43.272  24.442   9.180
   87POPC   C1A 4167  42.875  24.456   8.812
   87POPC   D2A 4168  43.103  24.749   8.591
   87POPC   C3A 4169  43.075  24.712   8.133
   87POPC   C4A 4170  42.914  24.395   7.857
   87POPC   C1B 4171  43.408  24.374   8.779
   87POPC   C2B 4172  43.256  24.286   8.358
   87POPC   C3B 4173  43.445  24.314   7.936
   87POPC   C4B 4174  43.512  24.266   7.461
   88POPC   NC3 4175   2.041   1.511   9.401
   88POPC   PO4 4176   2.038   0.789   9.384
   88POPC   GL1 4177   1.862   1.090   9.112
   88POPC   GL2 4178   2.128   1.237   8.956
   88POPC   C1A 4179   1.682   1.113   8.714
   88POPC   D2A 4180   1.828   1.284   8.314
   88POPC   C3A 4181   2.114   1.193   7.964
   88POPC   C4A 4182   1.837   1.261   7.616
   88POPC   C1B 4183   1.908   1.573   8.725
   88POPC   C2B 4184   2.030   1.842   8.398
   88POPC   C3B 4185   1.967   1.677   7.999
   88POPC   C4B 4186   2.220   1.592   7.649
   89POPC   NC3 4187  10.510  24.971   9.640
   89POPC   PO4 4188  11.054  25.274   9.855
   89POPC   GL1 4189  10.924  25.170   9.299
   89POPC   GL2 4190  10.562  25.042   9.142
   89POPC   C1A 4191  10.839  25.281   8.816
   89POPC   D2A 4192  10.689  25.365   8.390
   89POPC   C3A 4193  10.962  25.276   8.047
   89POPC   C4A 4194  10.822  25.132   7.639
   89POPC   C1B 4195  10.335  25.126   8.698
   89POPC   C2B 4196  10.216  25.162   8.201
   89POPC   C3B 4197  10.288  25.096   7.719
   89POPC   C4B 4198  10.260  24.698   7.454
   90POPC   NC3 4199  43.617  43.948   9.568
   90POPC   PO4 4200  44.352  44.099   9.498
   90POPC   GL1 4201  43.994  43.901   9.210
   90POPC   GL2 4202  43.659  43.734   9.113
   90POPC   C1A 4203  44.034  43.952   8.787
   90POPC   D2A 4204  44.114  43.774   8.383
   90POPC   C3A 4205  44.019  44.019   8.046
   90POPC   C4A 4206  43.895  43.757   7.743
   90POPC   C1B 4207  43.520  44.047   8.855
   90POPC   C2B 4208  43.671  44.049   8.439
   90POPC   C3B 4209  43.516  43.914   8.055
   90POPC   C4B 4210  43.610  44.205   7.783
   91POPC   NC3 4211  11.894  27.289   9.394
   91POPC   PO4 4212  12.034  27.889   9.546
   91POPC   GL1 4213  12.155  27.859   9.123
   91POPC   GL2 4214  12.210  27.515   9.042
   91POPC   C1A 4215  12.019  27.808   8.690
   91POPC   D2A 4216  11.960  27.406   8.450
   91POPC   C3A 4217  11.831  27.509   8.024
   91POPC   C4A 4218  12.112  27.781   7.753
   91POPC   C1B 4219  12.395  27.244   8.728
   91POPC   C2B 4220  12.431  27.128   8.320
   91POPC   C3B 4221  12.283  27.295   7.963
   91POPC   C4B 4222  12.439  27.395   7.607
   92POPC   NC3 4223  38.448  25.157   9.455
   92POPC   PO4 4224  38.905  25.620   9.541
   92POPC   GL1 4225  38.631  25.674   9.168
   92POPC   GL2 4226  38.523  25.371   9.023
   92POPC   C1A 4227  38.678  25.703   8.703
   92POPC   D2A 4228  38.620  25.424   8.368
   92POPC   C3A 4229  38.740  25.598   8.000
   92POPC   C4A 4230  38.759  25.495   7.574
   92POPC   C1B 4231  38.202  25.466   8.750
   92POPC   C2B 4232  38.132  25.278   8.373
   92POPC   C3B 4233  38.243  25.443   8.003
   92POPC   C4B 4234  38.275  25.299   7.596
   93POPC   NC3 4235  29.385   5.578   9.424
   93POPC   PO4 4236  28.988   6.121   9.591
   93POPC   GL1 4237  29.022   5.957   9.168
   93POPC   GL2 4238  29.107   5.635   9.017
   93POPC   C1A 4239  29.121   6.066   8.751
   93POPC   D2A 4240  29.249   5.815   8.408
   93POPC   C3A 4241  29.264   6.043   8.035
   93POPC   C4A 4242  28.932   6.048   7.735
   93POPC   C1B 4243  29.354   5.393   8.717
   93POPC   C2B 4244  29.644   5.449   8.376
   93POPC   C3B 4245  29.403   5.508   8.004
   93POPC   C4B 4246  29.315   5.725   7.638
   94POPC   NC3 4247  32.143   0.681   9.473
   94POPC   PO4 4248  32.326   0.000   9.512
   94POPC   GL1 4249  32.373   0.188   9.143
   94POPC   GL2 4250  32.542   0.468   9.172
   94POPC   C1A 4251  32.118   0.375   8.818
   94POPC   D2A 4252  31.899   0.541   8.466
   94POPC   C3A 4253  31.996   0.420   8.075
   94POPC   C4A 4254  32.176   0.319   7.699
   94POPC   C1B 4255  32.596   0.548   8.788
   94POPC   C2B 4256  32.416   0.633   8.417
   94POPC   C3B 4257  32.647   0.773   8.056
   94POPC   C4B 4258  32.609   0.645   7.669
   95POPC   NC3 4259   5.553  43.455   9.498
   95POPC   PO4 4260   6.163  43.681   9.630
   95POPC   GL1 4261   6.027  43.352   9.323
   95POPC   GL2 4262   6.251  43.236   9.124
   95POPC   C1A 4263   5.797  43.155   8.938
   95POPC   D2A 4264   5.664  43.348   8.537
   95POPC   C3A 4265   5.859  43.207   8.154
   95POPC   C4A 4266   5.759  43.054   7.745
   95POPC   C1B 4267   6.237  42.945   8.791
   95POPC   C2B 4268   6.306  43.063   8.380
   95POPC   C3B 4269   6.321  43.014   7.976
   95POPC   C4B 4270   6.208  42.864   7.587
   96POPC   NC3 4271   3.791  24.360   9.622
   96POPC   PO4 4272   3.349  24.849   9.569
   96POPC   GL1 4273   3.658  24.684   9.231
   96POPC   GL2 4274   3.567  24.323   9.167
   96POPC   C1A 4275   3.808  24.578   8.809
   96POPC   D2A 4276   3.587  24.506   8.413
   96POPC   C3A 4277   3.776  24.659   8.049
   96POPC   C4A 4278   3.677  24.738   7.622
   96POPC   C1B 4279   3.350  24.223   8.781
   96POPC   C2B 4280   3.203  24.155   8.357
   96POPC   C3B 4281   3.327  24.354   7.985
   96POPC   C4B 4282   3.504  24.251   7.606
   97POPC   NC3 4283  18.436  10.319   9.416
   97POPC   PO4 4284  18.453   9.672   9.658
   97POPC   GL1 4285  18.165   9.753   9.303
   97POPC   GL2 4286  18.453   9.871   9.165
   97POPC   C1A 4287  18.079   9.872   8.842
   97POPC   D2A 4288  18.290   9.842   8.427
   97POPC   C3A 4289  18.035   9.746   8.066
   97POPC   C4A 4290  17.990   9.594   7.626
   97POPC   C1B 4291  18.637   9.726   8.798
   97POPC   C2B 4292  18.701   9.471   8.424
   97POPC   C3B 4293  18.430   9.405   8.077
   97POPC   C4B 4294  18.479   9.702   7.746
   98POPC   NC3 4295   1.802   5.592   9.331
   98POPC   PO4 4296   2.159   4.985   9.500
   98POPC   GL1 4297   1.963   4.839   9.125
   98POPC   GL2 4298   1.583   4.893   9.141
   98POPC   C1A 4299   2.059   4.855   8.698
   98POPC   D2A 4300   1.848   4.959   8.363
   98POPC   C3A 4301   2.102   5.215   8.147
   98POPC   C4A 4302   2.218   4.956   7.833
   98POPC   C1B 4303   1.540   5.128   8.737
   98POPC   C2B 4304   1.403   5.175   8.264
   98POPC   C3B 4305   1.693   5.075   7.878
   98POPC   C4B 4306   1.970   5.367   7.669
   99POPC   NC3 4307  37.154   9.910   9.818
   99POPC   PO4 4308  37.796   9.646   9.507
   99POPC   GL1 4309  37.818   9.682   9.088
   99POPC   GL2 4310  37.488   9.763   9.115
   99POPC   C1A 4311  38.011   9.878   8.732
   99POPC   D2A 4312  37.976  10.126   8.352
   99POPC   C3A 4313  37.840   9.911   8.013
   99POPC   C4A 4314  37.861   9.581   7.707
   99POPC   C1B 4315  37.490  10.034   8.795
   99POPC   C2B 4316  37.489   9.948   8.402
   99POPC   C3B 4317  37.289   9.961   8.049
   99POPC   C4B 4318  37.456   9.923   7.672
  100POPC   NC3 4319   3.183  35.594   9.321
  100POPC   PO4 4320   2.857  35.199   9.706
  100POPC   GL1 4321   2.693  35.216   9.263
  100POPC   GL2 4322   2.664  35.543   9.108
  100POPC   C1A 4323   2.533  35.125   8.824
  100POPC   D2A 4324   2.692  35.332   8.442
  100POPC   C3A 4325   2.753  35.119   8.068
  100POPC   C4A 4326   2.855  35.241   7.664
  100POPC   C1B 4327   2.368  35.613   8.747
  100POPC   C2B 4328   2.440  35.786   8.332
  100POPC   C3B 4329   2.565  35.706   7.910
  100POPC   C4B 4330   2.291  35.790   7.531
  101POPC   NC3 4331  43.425  44.915   9.493
  101POPC   PO4 4332  42.736  44.798   9.617
  101POPC   GL1 4333  42.974  44.734   9.247
  101POPC   GL2 4334  42.771  44.857   9.021
  101POPC   C1A 4335  43.246  44.668   8.869
  101POPC   D2A 4336  43.359  44.432   8.501
  101POPC   C3A 4337  43.299  44.577   8.091
  101POPC   C4A 4338  43.303  44.585   7.655
  101POPC   C1B 4339  42.900  44.989   8.625
  101POPC   C2B 4340  42.867  44.849   8.194
  101POPC   C3B 4341  43.007  44.982   7.811
  101POPC   C4B 4342  43.017  44.877   7.357
  102POPC   NC3 4343  36.230  25.124   9.601
  102POPC   PO4 4344  36.102  25.714   9.415
  102POPC   GL1 4345  36.169  25.350   9.114
  102POPC   GL2 4346  36.063  25.000   9.107
  102POPC   C1A 4347  36.160  25.307   8.664
  102POPC   D2A 4348  36.386  25.577   8.385
  102POPC   C3A 4349  36.328  25.392   8.001
  102POPC   C4A 4350  36.488  25.050   7.797
  102POPC   C1B 4351  35.805  24.855   8.756
  102POPC   C2B 4352  35.696  24.899   8.333
  102POPC   C3B 4353  35.904  24.861   7.952
  102POPC   C4B 4354  36.004  25.145   7.654
  103POPC   NC3 4355  11.892  32.248   9.596
  103POPC   PO4 4356  12.487  32.051   9.590
  103POPC   GL1 4357  12.180  32.094   9.207
  103POPC   GL2 4358  11.795  31.998   9.166
  103POPC   C1A 4359  12.086  32.317   8.813
  103POPC   D2A 4360  12.377  32.494   8.490
  103POPC   C3A 4361  12.185  32.424   8.094
  103POPC   C4A 4362  12.108  32.199   7.732
  103POPC   C1B 4363  11.604  31.878   8.764
  103POPC   C2B 4364  11.786  31.913   8.341
  103POPC   C3B 4365  11.646  32.041   7.913
  103POPC   C4B 4366  11.672  32.175   7.451
  104POPC   NC3 4367  13.249   4.905   9.344
  104POPC   PO4 4368  13.804   5.291   9.518
  104POPC   GL1 4369  13.756   5.150   9.084
  104POPC   GL2 4370  13.636   4.806   9.040
  104POPC   C1A 4371  13.754   5.057   8.624
  104POPC   D2A 4372  13.553   5.270   8.282
  104POPC   C3A 4373  13.799   5.066   7.979
  104POPC   C4A 4374  13.942   5.157   7.590
  104POPC   C1B 4375  13.268   4.953   8.722
  104POPC   C2B 4376  13.104   5.019   8.311
  104POPC   C3B 4377  13.274   4.947   7.930
  104POPC   C4B 4378  13.518   4.820   7.559
  105POPC   NC3 4379   2.588   7.954   9.583
  105POPC   PO4 4380   2.905   7.328   9.462
  105POPC   GL1 4381   2.714   7.432   9.085
  105POPC   GL2 4382   2.633   7.115   8.990
  105POPC   C1A 4383   2.767   7.711   8.713
  105POPC   D2A 4384   2.943   7.867   8.334
  105POPC   C3A 4385   2.627   7.803   8.055
  105POPC   C4A 4386   2.470   7.483   7.819
  105POPC   C1B 4387   2.549   7.229   8.626
  105POPC   C2B 4388   2.761   7.365   8.303
  105POPC   C3B 4389   2.804   7.101   7.981
  105POPC   C4B 4390   2.826   6.880   7.639
  106POPC   NC3 4391  37.082  19.324   9.462
  106POPC   PO4 4392  36.623  18.845   9.457
  106POPC   GL1 4393  36.983  18.884   9.142
  106POPC   GL2 4394  36.902  19.182   8.994
  106POPC   C1A 4395  37.068  18.813   8.707
  106POPC   D2A 4396  36.885  19.035   8.380
  106POPC   C3A 4397  36.957  18.834   8.023
  106POPC   C4A 4398  36.933  18.996   7.612
  106POPC   C1B 4399  37.226  19.382   8.762
  106POPC   C2B 4400  37.271  19.577   8.372
  106POPC   C3B 4401  37.137  19.334   8.020
  106POPC   C4B 4402  36.829  19.479   7.770
  107POPC   NC3 4403  41.130  40.550   9.464
  107POPC   PO4 4404  41.806  40.821   9.489
  107POPC   GL1 4405  41.536  40.752   9.158
  107POPC   GL2 4406  41.330  40.988   8.986
  107POPC   C1A 4407  41.633  40.613   8.742
  107POPC   D2A 4408  41.580  40.837   8.346
  107POPC   C3A 4409  41.633  40.642   7.943
  107POPC   C4A 4410  41.909  40.794   7.641
  107POPC   C1B 4411  41.137  40.719   8.610
  107POPC   C2B 4412  41.154  40.616   8.149
  107POPC   C3B 4413  41.143  40.666   7.693
  107POPC   C4B 4414  41.199  40.453   7.252
  108POPC   NC3 4415   8.459  26.523   9.525
  108POPC   PO4 4416   9.136  26.885   9.457
  108POPC   GL1 4417   8.985  26.751   9.106
  108POPC   GL2 4418   8.808  26.451   9.131
  108POPC   C1A 4419   8.822  26.810   8.713
  108POPC   D2A 4420   8.977  26.596   8.389
  108POPC   C3A 4421   8.890  26.708   7.984
  108POPC   C4A 4422   8.761  26.842   7.577
  108POPC   C1B 4423   8.623  26.353   8.704
  108POPC   C2B 4424   8.469  26.533   8.285
  108POPC   C3B 4425   8.520  26.414   7.820
  108POPC   C4B 4426   8.579  26.358   7.349
  109POPC   NC3 4427  37.559  10.764   9.698
  109POPC   PO4 4428  37.644  11.431   9.471
  109POPC   GL1 4429  37.575  11.295   9.109
  109POPC   GL2 4430  37.576  10.981   9.179
  109POPC   C1A 4431  37.696  11.458   8.686
  109POPC   D2A 4432  37.898  11.337   8.298
  109POPC   C3A 4433  37.681  11.405   7.888
  109POPC   C4A 4434  37.694  11.407   7.427
  109POPC   C1B 4435  37.492  10.961   8.736
  109POPC   C2B 4436  37.643  10.896   8.324
  109POPC   C3B 4437  37.880  10.906   7.951
  109POPC   C4B 4438  37.604  10.958   7.633
  110POPC   NC3 4439  44.625  36.604   9.667
  110POPC   PO4 4440  44.386  36.012   9.556
  110POPC   GL1 4441  44.401  36.109   9.144
  110POPC   GL2 4442  44.440  36.461   9.197
  110POPC   C1A 4443  44.444  36.240   8.711
  110POPC   D2A 4444  44.751  36.083   8.419
  110POPC   C3A 4445  44.649  36.029   7.982
  110POPC   C4A 4446  44.995  36.090   7.752
  110POPC   C1B 4447  44.804  36.529   8.939
  110POPC   C2B 4448  44.766  36.588   8.497
  110POPC   C3B 4449  44.830  36.498   8.075
  110POPC   C4B 4450  44.786  36.550   7.635
  111POPC   NC3 4451  28.799  31.623   9.547
  111POPC   PO4 4452  28.254  31.446   9.311
  111POPC   GL1 4453  28.655  31.462   9.076
  111POPC   GL2 4454  28.669  31.818   9.059
  111POPC   C1A 4455  28.634  31.359   8.633
  111POPC   D2A 4456  28.373  31.497   8.276
  111POPC   C3A 4457  28.288  31.366   7.858
  111POPC   C4A 4458  28.483  31.170   7.503
  111POPC   C1B 4459  28.357  31.807   8.737
  111POPC   C2B 4460  28.307  31.986   8.348
  111POPC   C3B 4461  28.492  31.913   7.929
  111POPC   C4B 4462  28.566  31.674   7.543
  112POPC   NC3 4463  30.066  22.871   9.371
  112POPC   PO4 4464  29.453  23.348   9.283
  112POPC   GL1 4465  29.702  23.077   9.093
  112POPC   GL2 4466  29.647  22.720   9.131
  112POPC   C1A 4467  29.892  22.964   8.718
  112POPC   D2A 4468  29.745  23.165   8.357
  112POPC   C3A 4469  29.881  23.001   7.989
  112POPC   C4A 4470  29.713  23.149   7.585
  112POPC   C1B 4471  29.800  22.452   8.824
  112POPC   C2B 4472  30.047  22.480   8.462
  112POPC   C3B 4473  29.914  22.511   8.050
  112POPC   C4B 4474  30.099  22.656   7.646
  113POPC   NC3 4475  39.232  41.911   9.432
  113POPC   PO4 4476  39.382  41.331   9.374
  113POPC   GL1 4477  39.205  41.521   9.034
  113POPC   GL2 4478  39.445  41.807   8.966
  113POPC   C1A 4479  39.055  41.273   8.673
  113POPC   D2A 4480  39.370  41.147   8.338
  113POPC   C3A 4481  39.239  41.278   7.953
  113POPC   C4A 4482  38.848  41.491   7.814
  113POPC   C1B 4483  39.356  41.648   8.551
  113POPC   C2B 4484  39.013  41.690   8.258
  113POPC   C3B 4485  39.059  41.945   7.884
  113POPC   C4B 4486  39.486  41.730   7.859
  114POPC   NC3 4487  26.924  25.376   9.884
  114POPC   PO4 4488  26.650  25.066   9.363
  114POPC   GL1 4489  26.629  25.448   9.110
  114POPC   GL2 4490  26.368  25.316   8.936
  114POPC   C1A 4491  26.748  25.593   8.724
  114POPC   D2A 4492  26.675  25.381   8.350
  114POPC   C3A 4493  26.932  25.460   8.059
  114POPC   C4A 4494  27.101  25.176   7.776
  114POPC   C1B 4495  26.688  25.037   8.728
  114POPC   C2B 4496  26.546  24.877   8.349
  114POPC   C3B 4497  26.596  25.041   7.940
  114POPC   C4B 4498  26.453  24.747   7.679
  115POPC   NC3 4499   7.464  22.276   9.570
  115POPC   PO4 4500   7.533  21.631   9.355
  115POPC   GL1 4501   7.329  21.901   9.064
  115POPC   GL2 4502   7.224  22.218   9.089
  115POPC   C1A 4503   7.280  22.007   8.620
  115POPC   D2A 4504   7.398  21.724   8.336
  115POPC   C3A 4505   7.523  21.990   8.018
  115POPC   C4A 4506   7.278  22.234   7.699
  115POPC   C1B 4507   7.595  22.344   8.842
  115POPC   C2B 4508   7.624  22.389   8.378
  115POPC   C3B 4509   7.652  22.466   7.918
  115POPC   C4B 4510   7.614  22.529   7.441
  116POPC   NC3 4511  12.095  43.399   9.429
  116POPC   PO4 4512  11.740  42.922   9.134
  116POPC   GL1 4513  12.128  43.118   8.993
  116POPC   GL2 4514  12.282  43.474   8.971
  116POPC   C1A 4515  12.365  42.991   8.671
  116POPC   D2A 4516  12.279  43.053   8.228
  116POPC   C3A 4517  12.293  42.785   7.908
  116POPC   C4A 4518  12.213  43.001   7.546
  116POPC   C1B 4519  11.932  43.527   8.679
  116POPC   C2B 4520  11.855  43.394   8.236
  116POPC   C3B 4521  12.062  43.427   7.822
  116POPC   C4B 4522  11.923  43.401   7.387
  117POPC   NC3 4523  23.212  20.684   9.504
  117POPC   PO4 4524  22.548  20.946   9.446
  117POPC   GL1 4525  22.810  20.895   9.092
  117POPC   GL2 4526  22.837  20.551   9.119
  117POPC   C1A 4527  23.155  20.753   8.769
  117POPC   D2A 4528  23.256  20.493   8.390
  117POPC   C3A 4529  23.030  20.521   8.013
  117POPC   C4A 4530  22.831  20.853   7.797
  117POPC   C1B 4531  22.659  20.567   8.720
  117POPC   C2B 4532  22.685  20.760   8.317
  117POPC   C3B 4533  22.534  20.485   7.984
  117POPC   C4B 4534  22.623  20.441   7.522
  118POPC   NC3 4535  33.920  16.765   9.332
  118POPC   PO4 4536  33.887  16.153   9.555
  118POPC   GL1 4537  33.683  16.360   9.163
  118POPC   GL2 4538  33.544  16.745   9.025
  118POPC   C1A 4539  33.784  16.377   8.731
  118POPC   D2A 4540  33.900  16.282   8.319
  118POPC   C3A 4541  33.699  16.583   8.063
  118POPC   C4A 4542  33.920  16.779   7.733
  118POPC   C1B 4543  33.877  16.902   8.719
  118POPC   C2B 4544  34.031  16.863   8.329
  118POPC   C3B 4545  33.924  17.182   8.035
  118POPC   C4B 4546  33.514  17.261   7.837
  119POPC   NC3 4547  17.480  12.309   9.596
  119POPC   PO4 4548  17.493  11.661   9.623
  119POPC   GL1 4549  17.250  11.771   9.237
  119POPC   GL2 4550  17.513  11.992   9.161
  119POPC   C1A 4551  17.210  11.838   8.769
  119POPC   D2A 4552  17.498  11.850   8.408
  119POPC   C3A 4553  17.419  12.022   8.028
  119POPC   C4A 4554  17.287  11.871   7.686
  119POPC   C1B 4555  17.662  12.152   8.770
  119POPC   C2B 4556  17.532  12.383   8.373
  119POPC   C3B 4557  17.710  12.428   7.952
  119POPC   C4B 4558  17.690  12.208   7.563
  120POPC   NC3 4559  26.758  13.166   9.631
  120POPC   PO4 4560  26.643  13.850   9.436
  120POPC   GL1 4561  26.805  13.697   9.053
  120POPC   GL2 4562  27.186  13.817   9.077
  120POPC   C1A 4563  26.640  13.728   8.593
  120POPC   D2A 4564  26.497  13.839   8.185
  120POPC   C3A 4565  26.629  13.555   7.857
  120POPC   C4A 4566  26.809  13.138   7.870
  120POPC   C1B 4567  27.140  13.636   8.659
  120POPC   C2B 4568  26.995  13.497   8.249
  120POPC   C3B 4569  27.170  13.493   7.835
  120POPC   C4B 4570  27.049  13.744   7.490
  121POPC   NC3 4571  40.012  34.204   9.929
  121POPC   PO4 4572  40.050  33.640   9.526
  121POPC   GL1 4573  40.107  33.782   9.134
  121POPC   GL2 4574  40.440  33.841   9.192
  121POPC   C1A 4575  39.885  33.926   8.757
  121POPC   D2A 4576  39.735  33.775   8.377
  121POPC   C3A 4577  39.910  33.909   8.004
  121POPC   C4A 4578  39.968  33.672   7.632
  121POPC   C1B 4579  40.399  33.959   8.766
  121POPC   C2B 4580  40.307  34.046   8.320
  121POPC   C3B 4581  40.452  33.831   7.934
  121POPC   C4B 4582  40.443  33.644   7.473
  122POPC   NC3 4583   1.648   6.656   9.132
  122POPC   PO4 4584   2.042   7.006   9.499
  122POPC   GL1 4585   2.210   6.865   9.140
  122POPC   GL2 4586   2.156   6.554   9.072
  122POPC   C1A 4587   2.133   6.927   8.721
  122POPC   D2A 4588   1.822   6.714   8.464
  122POPC   C3A 4589   1.902   6.816   8.041
  122POPC   C4A 4590   1.747   6.799   7.627
  122POPC   C1B 4591   2.142   6.365   8.690
  122POPC   C2B 4592   2.428   6.175   8.402
  122POPC   C3B 4593   2.378   6.172   7.961
  122POPC   C4B 4594   1.987   6.373   7.777
  123POPC   NC3 4595  29.965  35.566   9.399
  123POPC   PO4 4596  29.848  34.958   9.579
  123POPC   GL1 4597  29.873  35.191   9.081
  123POPC   GL2 4598  29.748  35.554   8.952
  123POPC   C1A 4599  29.620  35.167   8.666
  123POPC   D2A 4600  29.632  35.231   8.248
  123POPC   C3A 4601  29.984  35.318   8.078
  123POPC   C4A 4602  30.052  35.120   7.687
  123POPC   C1B 4603  30.105  35.359   8.666
  123POPC   C2B 4604  30.429  35.415   8.346
  123POPC   C3B 4605  30.305  35.702   8.019
  123POPC   C4B 4606  30.037  35.636   7.687
  124POPC   NC3 4607  41.080  36.849   9.356
  124POPC   PO4 4608  40.472  37.018   9.497
  124POPC   GL1 4609  40.608  36.894   9.116
  124POPC   GL2 4610  40.820  37.179   9.101
  124POPC   C1A 4611  40.714  36.908   8.687
  124POPC   D2A 4612  40.554  37.051   8.327
  124POPC   C3A 4613  40.617  36.663   8.116
  124POPC   C4A 4614  40.985  36.526   7.882
  124POPC   C1B 4615  40.995  37.334   8.739
  124POPC   C2B 4616  40.863  37.488   8.379
  124POPC   C3B 4617  40.896  37.269   8.013
  124POPC   C4B 4618  40.733  36.978   7.738
  125POPC   NC3 4619  41.154   7.259   9.480
  125POPC   PO4 4620  41.536   6.679   9.480
  125POPC   GL1 4621  41.620   6.818   9.097
  125POPC   GL2 4622  41.274   6.897   9.059
  125POPC   C1A 4623  41.576   6.702   8.678
  125POPC   D2A 4624  41.584   6.849   8.289
  125POPC   C3A 4625  41.663   6.470   8.124
  125POPC   C4A 4626  41.690   6.482   7.719
  125POPC   C1B 4627  41.151   6.485   8.826
  125POPC   C2B 4628  41.198   6.466   8.372
  125POPC   C3B 4629  41.223   6.617   7.930
  125POPC   C4B 4630  41.221   6.351   7.568
  126POPC   NC3 4631  16.165   0.369   9.709
  126POPC   PO4 4632  15.601   0.020   9.564
  126POPC   GL1 4633  15.862   0.318   9.240
  126POPC   GL2 4634  16.241   0.289   9.217
  126POPC   C1A 4635  15.987   0.604   8.839
  126POPC   D2A 4636  15.791   0.639   8.407
  126POPC   C3A 4637  15.816   0.846   7.965
  126POPC   C4A 4638  15.874   0.856   7.495
  126POPC   C1B 4639  16.374   0.261   8.803
  126POPC   C2B 4640  16.176   0.312   8.437
  126POPC   C3B 4641  16.051   0.375   8.046
  126POPC   C4B 4642  16.230   0.525   7.694
  127POPC   NC3 4643  39.680   2.757   9.760
  127POPC   PO4 4644  39.162   3.108   9.593
  127POPC   GL1 4645  39.220   2.995   9.181
  127POPC   GL2 4646  39.196   2.630   9.167
  127POPC   C1A 4647  39.098   2.935   8.739
  127POPC   D2A 4648  38.777   2.897   8.391
  127POPC   C3A 4649  38.820   2.619   8.004
  127POPC   C4A 4650  39.198   2.539   7.784
  127POPC   C1B 4651  39.092   2.437   8.731
  127POPC   C2B 4652  39.231   2.604   8.307
  127POPC   C3B 4653  39.610   2.466   8.042
  127POPC   C4B 4654  39.610   2.271   7.596
  128POPC   NC3 4655  13.429  29.271   9.526
  128POPC   PO4 4656  13.963  28.945   9.354
  128POPC   GL1 4657  13.750  29.061   8.991
  128POPC   GL2 4658  13.587  29.373   9.068
  128POPC   C1A 4659  13.795  29.102   8.536
  128POPC   D2A 4660  13.697  28.740   8.275
  128POPC   C3A 4661  13.514  28.851   7.921
  128POPC   C4A 4662  13.658  28.872   7.479
  128POPC   C1B 4663  13.936  29.521   8.883
  128POPC   C2B 4664  13.946  29.646   8.462
  128POPC   C3B 4665  13.866  29.521   8.069
  128POPC   C4B 4666  13.653  29.300   7.767
  129POPC   NC3 4667   8.715  35.667   9.405
  129POPC   PO4 4668   9.135  35.070   9.414
  129POPC   GL1 4669   9.012  35.380   9.115
  129POPC   GL2 4670   9.160  35.727   9.080
  129POPC   C1A 4671   8.827  35.397   8.724
  129POPC   D2A 4672   9.002  35.281   8.324
  129POPC   C3A 4673   8.695  35.241   8.006
  129POPC   C4A 4674   8.620  35.468   7.649
  129POPC   C1B 4675   9.353  35.543   8.704
  129POPC   C2B 4676   9.429  35.581   8.244
  129POPC   C3B 4677   9.145  35.518   7.862
  129POPC   C4B 4678   9.067  35.165   7.608
  130POPC   NC3 4679   1.037   5.897   9.450
  130POPC   PO4 4680   1.550   6.277   9.366
  130POPC   GL1 4681   1.200   6.179   9.050
  130POPC   GL2 4682   0.833   6.264   9.154
  130POPC   C1A 4683   1.127   5.789   8.779
  130POPC   D2A 4684   1.032   5.652   8.351
  130POPC   C3A 4685   1.122   5.927   8.032
  130POPC   C4A 4686   1.096   5.736   7.665
  130POPC   C1B 4687   0.738   6.126   8.739
  130POPC   C2B 4688   0.810   6.252   8.314
  130POPC   C3B 4689   0.675   6.194   7.889
  130POPC   C4B 4690   0.925   6.245   7.511
  131POPC   NC3 4691  42.587  10.251   9.460
  131POPC   PO4 4692  41.911  10.612   9.501
  131POPC   GL1 4693  42.252  10.608   9.243
  131POPC   GL2 4694  42.190  10.293   9.125
  131POPC   C1A 4695  42.508  10.614   8.854
  131POPC   D2A 4696  42.631  10.489   8.449
  131POPC   C3A 4697  42.352  10.673   8.125
  131POPC   C4A 4698  42.520  10.725   7.756
  131POPC   C1B 4699  42.092  10.354   8.697
  131POPC   C2B 4700  42.211  10.215   8.300
  131POPC   C3B 4701  42.533  10.211   7.996
  131POPC   C4B 4702  42.230  10.293   7.706
  132POPC   NC3 4703  12.667  21.195   9.300
  132POPC   PO4 4704  13.077  21.821   9.434
  132POPC   GL1 4705  12.851  21.636   9.124
  132POPC   GL2 4706  12.547  21.670   9.049
  132POPC   C1A 4707  12.890  21.512   8.702
  132POPC   D2A 4708  12.995  21.260   8.344
  132POPC   C3A 4709  12.836  21.319   7.934
  132POPC   C4A 4710  12.964  21.116   7.552
  132POPC   C1B 4711  12.377  21.575   8.711
  132POPC   C2B 4712  12.541  21.582   8.315
  132POPC   C3B 4713  12.326  21.496   7.960
  132POPC   C4B 4714  12.411  21.167   7.663
  133POPC   NC3 4715   4.124   7.544   9.433
  133POPC   PO4 4716   4.715   7.280   9.307
  133POPC   GL1 4717   4.382   7.479   9.001
  133POPC   GL2 4718   4.034   7.661   8.956
  133POPC   C1A 4719   4.274   7.506   8.561
  133POPC   D2A 4720   4.464   7.351   8.266
  133POPC   C3A 4721   4.380   7.661   7.985
  133POPC   C4A 4722   4.395   7.432   7.636
  133POPC   C1B 4723   3.995   7.179   8.838
  133POPC   C2B 4724   4.061   7.029   8.412
  133POPC   C3B 4725   4.037   7.294   8.011
  133POPC   C4B 4726   3.959   7.148   7.622
  134POPC   NC3 4727   6.865  18.219   9.224
  134POPC   PO4 4728   7.490  18.238   9.464
  134POPC   GL1 4729   7.361  18.381   9.066
  134POPC   GL2 4730   7.639  18.420   8.895
  134POPC   C1A 4731   7.158  18.571   8.701
  134POPC   D2A 4732   6.828  18.521   8.426
  134POPC   C3A 4733   7.110  18.357   8.161
  134POPC   C4A 4734   7.393  18.506   7.876
  134POPC   C1B 4735   7.367  18.089   8.669
  134POPC   C2B 4736   7.366  17.895   8.279
  134POPC   C3B 4737   7.332  17.999   7.854
  134POPC   C4B 4738   7.591  18.107   7.486
  135POPC   NC3 4739   6.694   8.506   9.512
  135POPC   PO4 4740   6.346   8.006   9.331
  135POPC   GL1 4741   6.603   8.212   9.063
  135POPC   GL2 4742   6.942   8.084   9.100
  135POPC   C1A 4743   6.651   8.070   8.658
  135POPC   D2A 4744   6.761   7.969   8.265
  135POPC   C3A 4745   6.543   8.230   8.007
  135POPC   C4A 4746   6.380   8.048   7.669
  135POPC   C1B 4747   6.989   8.433   8.786
  135POPC   C2B 4748   6.911   8.512   8.343
  135POPC   C3B 4749   7.010   8.379   7.923
  135POPC   C4B 4750   6.899   7.950   7.763
  136POPC   NC3 4751  22.531  44.334   9.801
  136POPC   PO4 4752  23.075  44.685   9.533
  136POPC   GL1 4753  23.124  44.764   9.102
  136POPC   GL2 4754  22.806  44.596   8.995
  136POPC   C1A 4755  23.186  44.673   8.668
  136POPC   D2A 4756  23.139  44.500   8.266
  136POPC   C3A 4757  23.198  44.783   7.926
  136POPC   C4A 4758  23.079  44.790   7.508
  136POPC   C1B 4759  22.786  44.332   8.614
  136POPC   C2B 4760  22.622  44.424   8.195
  136POPC   C3B 4761  22.723  44.560   7.800
  136POPC   C4B 4762  22.519  44.699   7.431
  137POPC   NC3 4763   6.116  28.675   9.426
  137POPC   PO4 4764   5.545  28.308   9.317
  137POPC   GL1 4765   5.929  28.290   9.114
  137POPC   GL2 4766   5.819  28.614   9.007
  137POPC   C1A 4767   5.959  28.228   8.666
  137POPC   D2A 4768   5.640  28.354   8.361
  137POPC   C3A 4769   5.772  28.435   7.946
  137POPC   C4A 4770   5.937  28.195   7.622
  137POPC   C1B 4771   6.051  28.774   8.702
  137POPC   C2B 4772   6.124  28.588   8.317
  137POPC   C3B 4773   6.187  28.735   7.930
  137POPC   C4B 4774   6.054  28.680   7.547
  138POPC   NC3 4775   7.328  32.926   9.638
  138POPC   PO4 4776   7.162  33.605   9.488
  138POPC   GL1 4777   7.372  33.262   9.238
  138POPC   GL2 4778   7.214  32.937   9.147
  138POPC   C1A 4779   7.550  33.207   8.810
  138POPC   D2A 4780   7.428  33.029   8.406
  138POPC   C3A 4781   7.574  33.148   8.014
  138POPC   C4A 4782   7.268  33.252   7.706
  138POPC   C1B 4783   7.223  32.707   8.768
  138POPC   C2B 4784   7.040  32.710   8.314
  138POPC   C3B 4785   7.218  32.757   7.898
  138POPC   C4B 4786   7.145  32.716   7.419
  139POPC   NC3 4787   7.613  44.918   9.335
  139POPC   PO4 4788   7.567   0.519   9.685
  139POPC   GL1 4789   7.395   0.459   9.229
  139POPC   GL2 4790   7.206   0.185   9.139
  139POPC   C1A 4791   7.474   0.324   8.745
  139POPC   D2A 4792   7.360   0.552   8.401
  139POPC   C3A 4793   7.601   0.591   8.071
  139POPC   C4A 4794   7.810   0.694   7.750
  139POPC   C1B 4795   7.063   0.605   8.886
  139POPC   C2B 4796   6.898   0.760   8.500
  139POPC   C3B 4797   7.042   0.788   8.054
  139POPC   C4B 4798   7.213   0.495   7.755
  140POPC   NC3 4799  14.572   0.550   9.455
  140POPC   PO4 4800  14.096   0.066   9.466
  140POPC   GL1 4801  14.448   0.156   9.125
  140POPC   GL2 4802  14.366   0.494   8.996
  140POPC   C1A 4803  14.534   0.198   8.637
  140POPC   D2A 4804  14.360   0.033   8.279
  140POPC   C3A 4805  14.472   0.206   7.871
  140POPC   C4A 4806  14.567   0.627   7.708
  140POPC   C1B 4807  14.054   0.163   8.808
  140POPC   C2B 4808  13.917   0.255   8.436
  140POPC   C3B 4809  14.081   0.445   8.093
  140POPC   C4B 4810  14.072   0.469   7.665
  141POPC   NC3 4811   7.924  13.897   9.480
  141POPC   PO4 4812   8.374  13.381   9.366
  141POPC   GL1 4813   8.266  13.723   9.137
  141POPC   GL2 4814   8.110  13.475   8.943
  141POPC   C1A 4815   8.287  13.894   8.741
  141POPC   D2A 4816   8.469  13.787   8.371
  141POPC   C3A 4817   8.232  13.740   8.022
  141POPC   C4A 4818   8.306  13.722   7.606
  141POPC   C1B 4819   7.853  13.368   8.590
  141POPC   C2B 4820   7.910  13.380   8.151
  141POPC   C3B 4821   7.794  13.178   7.760
  141POPC   C4B 4822   7.672  13.276   7.302
  142POPC   NC3 4823  17.701  10.590   9.443
  142POPC   PO4 4824  17.235  10.082   9.472
  142POPC   GL1 4825  17.320  10.373   9.155
  142POPC   GL2 4826  17.246  10.095   8.966
  142POPC   C1A 4827  17.562  10.409   8.750
  142POPC   D2A 4828  17.407  10.512   8.345
  142POPC   C3A 4829  17.666  10.518   7.937
  142POPC   C4A 4830  17.839  10.857   7.701
  142POPC   C1B 4831  17.020  10.390   8.727
  142POPC   C2B 4832  16.904  10.390   8.296
  142POPC   C3B 4833  17.166  10.378   7.930
  142POPC   C4B 4834  17.312  10.366   7.499
  143POPC   NC3 4835   3.147  42.978   9.388
  143POPC   PO4 4836   3.638  43.425   9.498
  143POPC   GL1 4837   3.603  43.203   9.126
  143POPC   GL2 4838   3.913  43.014   9.080
  143POPC   C1A 4839   3.403  43.088   8.756
  143POPC   D2A 4840   3.137  42.947   8.433
  143POPC   C3A 4841   3.253  43.084   8.026
  143POPC   C4A 4842   3.391  42.886   7.659
  143POPC   C1B 4843   3.828  42.816   8.685
  143POPC   C2B 4844   3.663  42.964   8.317
  143POPC   C3B 4845   3.790  43.078   7.915
  143POPC   C4B 4846   4.016  43.075   7.502
  144POPC   NC3 4847   6.090  42.618   9.394
  144POPC   PO4 4848   5.593  42.125   9.513
  144POPC   GL1 4849   5.617  42.389   9.161
  144POPC   GL2 4850   5.912  42.226   9.110
  144POPC   C1A 4851   5.786  42.630   8.788
  144POPC   D2A 4852   6.089  42.605   8.429
  144POPC   C3A 4853   5.951  42.659   8.018
  144POPC   C4A 4854   5.940  42.421   7.637
  144POPC   C1B 4855   6.092  42.197   8.759
  144POPC   C2B 4856   6.121  42.074   8.376
  144POPC   C3B 4857   5.962  42.073   7.997
  144POPC   C4B 4858   6.179  41.955   7.654
  145POPC   NC3 4859  17.723  39.418   9.526
  145POPC   PO4 4860  17.173  39.069   9.501
  145POPC   GL1 4861  17.399  39.248   9.156
  145POPC   GL2 4862  17.687  39.138   9.087
  145POPC   C1A 4863  17.423  39.374   8.686
  145POPC   D2A 4864  17.193  39.441   8.262
  145POPC   C3A 4865  17.490  39.416   7.926
  145POPC   C4A 4866  17.588  39.168   7.597
  145POPC   C1B 4867  17.857  39.042   8.701
  145POPC   C2B 4868  17.734  39.172   8.300
  145POPC   C3B 4869  17.908  38.959   7.940
  145POPC   C4B 4870  18.041  38.990   7.501
  146POPC   NC3 4871  20.647  29.603   9.558
  146POPC   PO4 4872  20.651  30.244   9.499
  146POPC   GL1 4873  20.521  29.963   9.185
  146POPC   GL2 4874  20.848  29.820   9.124
  146POPC   C1A 4875  20.412  30.090   8.776
  146POPC   D2A 4876  20.553  30.248   8.378
  146POPC   C3A 4877  20.276  30.167   8.035
  146POPC   C4A 4878  20.474  29.932   7.703
  146POPC   C1B 4879  20.751  29.661   8.709
  146POPC   C2B 4880  20.802  29.741   8.260
  146POPC   C3B 4881  20.959  29.883   7.842
  146POPC   C4B 4882  20.875  29.823   7.384
  147POPC   NC3 4883  26.920   2.543   9.542
  147POPC   PO4 4884  26.805   3.196   9.721
  147POPC   GL1 4885  26.886   2.995   9.305
  147POPC   GL2 4886  26.592   2.742   9.212
  147POPC   C1A 4887  26.812   3.042   8.864
  147POPC   D2A 4888  26.862   3.279   8.465
  147POPC   C3A 4889  26.640   3.110   8.127
  147POPC   C4A 4890  26.656   3.001   7.718
  147POPC   C1B 4891  26.799   2.535   8.845
  147POPC   C2B 4892  26.853   2.755   8.440
  147POPC   C3B 4893  26.966   2.698   8.013
  147POPC   C4B 4894  26.795   2.536   7.622
  148POPC   NC3 4895  16.212   3.505   9.617
  148POPC   PO4 4896  15.578   3.683   9.570
  148POPC   GL1 4897  15.923   3.751   9.271
  148POPC   GL2 4898  15.991   3.420   9.117
  148POPC   C1A 4899  16.117   3.873   8.896
  148POPC   D2A 4900  16.004   3.667   8.518
  148POPC   C3A 4901  16.272   3.612   8.220
  148POPC   C4A 4902  16.266   3.642   7.800
  148POPC   C1B 4903  15.624   3.607   8.849
  148POPC   C2B 4904  15.509   3.531   8.398
  148POPC   C3B 4905  15.792   3.565   8.038
  148POPC   C4B 4906  15.821   3.720   7.627
  149POPC   NC3 4907  12.741   2.602   9.451
  149POPC   PO4 4908  12.800   3.229   9.562
  149POPC   GL1 4909  12.839   3.039   9.169
  149POPC   GL2 4910  13.138   2.841   9.204
  149POPC   C1A 4911  12.728   2.826   8.788
  149POPC   D2A 4912  12.519   2.955   8.379
  149POPC   C3A 4913  12.679   2.766   7.978
  149POPC   C4A 4914  12.805   2.549   7.578
  149POPC   C1B 4915  13.219   3.024   8.802
  149POPC   C2B 4916  13.037   2.940   8.406
  149POPC   C3B 4917  13.188   2.815   8.042
  149POPC   C4B 4918  13.118   2.913   7.679
  150POPC   NC3 4919  31.489  23.137  10.005
  150POPC   PO4 4920  31.130  22.759   9.635
  150POPC   GL1 4921  31.402  22.723   9.244
  150POPC   GL2 4922  31.729  22.905   9.272
  150POPC   C1A 4923  31.539  22.812   8.810
  150POPC   D2A 4924  31.410  22.721   8.408
  150POPC   C3A 4925  31.403  23.007   8.095
  150POPC   C4A 4926  31.595  23.016   7.700
  150POPC   C1B 4927  31.873  23.179   8.909
  150POPC   C2B 4928  31.820  23.088   8.465
  150POPC   C3B 4929  31.901  23.215   8.052
  150POPC   C4B 4930  32.009  23.305   7.647
  151POPC   NC3 4931  30.540   1.024   9.631
  151POPC   PO4 4932  30.961   1.384   9.352
  151POPC   GL1 4933  30.539   1.302   9.189
  151POPC   GL2 4934  30.359   1.615   9.090
  151POPC   C1A 4935  30.487   1.227   8.773
  151POPC   D2A 4936  30.860   1.258   8.537
  151POPC   C3A 4937  30.850   1.317   8.087
  151POPC   C4A 4938  30.761   1.076   7.704
  151POPC   C1B 4939  30.198   1.640   8.666
  151POPC   C2B 4940  30.382   1.438   8.295
  151POPC   C3B 4941  30.410   1.406   7.843
  151POPC   C4B 4942  30.423   1.449   7.378
  152POPC   NC3 4943  33.233   3.600   9.590
  152POPC   PO4 4944  32.616   3.430   9.663
  152POPC   GL1 4945  32.797   3.492   9.157
  152POPC   GL2 4946  33.126   3.418   9.139
  152POPC   C1A 4947  32.821   3.748   8.770
  152POPC   D2A 4948  32.772   3.881   8.345
  152POPC   C3A 4949  32.770   3.544   8.045
  152POPC   C4A 4950  32.932   3.585   7.657
  152POPC   C1B 4951  33.137   3.331   8.729
  152POPC   C2B 4952  33.189   3.554   8.356
  152POPC   C3B 4953  33.279   3.388   7.955
  152POPC   C4B 4954  33.335   3.337   7.490
  153POPC   NC3 4955  39.805  16.611   9.429
  153POPC   PO4 4956  39.632  17.188   9.636
  153POPC   GL1 4957  39.853  17.098   9.169
  153POPC   GL2 4958  40.259  17.133   9.099
  153POPC   C1A 4959  39.757  16.892   8.759
  153POPC   D2A 4960  39.968  16.922   8.347
  153POPC   C3A 4961  39.863  16.662   7.958
  153POPC   C4A 4962  39.818  16.668   7.485
  153POPC   C1B 4963  40.254  16.818   8.761
  153POPC   C2B 4964  40.358  16.617   8.366
  153POPC   C3B 4965  40.413  16.582   7.934
  153POPC   C4B 4966  40.199  16.295   7.620
  154POPC   NC3 4967   4.998  28.223   9.429
  154POPC   PO4 4968   5.077  28.921   9.578
  154POPC   GL1 4969   5.196  28.717   9.169
  154POPC   GL2 4970   4.903  28.526   9.016
  154POPC   C1A 4971   5.345  28.553   8.749
  154POPC   D2A 4972   5.108  28.575   8.389
  154POPC   C3A 4973   5.271  28.512   8.027
  154POPC   C4A 4974   5.384  28.081   7.871
  154POPC   C1B 4975   4.991  28.174   8.716
  154POPC   C2B 4976   4.900  28.100   8.280
  154POPC   C3B 4977   4.867  28.204   7.864
  154POPC   C4B 4978   4.525  27.992   7.617
  155POPC   NC3 4979  40.821  34.158   9.342
  155POPC   PO4 4980  40.877  33.661   9.740
  155POPC   GL1 4981  40.896  33.602   9.244
  155POPC   GL2 4982  40.911  33.873   8.949
  155POPC   C1A 4983  40.680  33.450   8.835
  155POPC   D2A 4984  40.697  33.706   8.449
  155POPC   C3A 4985  40.834  33.508   8.101
  155POPC   C4A 4986  40.675  33.289   7.763
  155POPC   C1B 4987  41.248  34.116   8.761
  155POPC   C2B 4988  41.198  34.272   8.329
  155POPC   C3B 4989  40.900  34.069   8.049
  155POPC   C4B 4990  40.883  33.799   7.676
  156POPC   NC3 4991  13.506  21.684   9.539
  156POPC   PO4 4992  13.061  21.225   9.624
  156POPC   GL1 4993  13.294  21.415   9.170
  156POPC   GL2 4994  13.669  21.435   9.119
  156POPC   C1A 4995  13.373  21.292   8.718
  156POPC   D2A 4996  13.492  21.406   8.309
  156POPC   C3A 4997  13.364  21.159   7.947
  156POPC   C4A 4998  13.427  21.352   7.553
  156POPC   C1B 4999  13.887  21.278   8.751
  156POPC   C2B 5000  14.014  21.313   8.319
  156POPC   C3B 5001  13.862  21.379   7.899
  156POPC   C4B 5002  13.867  21.034   7.614
  157POPC   NC3 5003   1.875   4.612   9.570
  157POPC   PO4 5004   2.329   4.149   9.693
  157POPC   GL1 5005   2.215   4.384   9.276
  157POPC   GL2 5006   1.874   4.307   9.172
  157POPC   C1A 5007   2.225   4.386   8.804
  157POPC   D2A 5008   2.337   4.493   8.378
  157POPC   C3A 5009   2.148   4.164   8.136
  157POPC   C4A 5010   1.952   4.078   7.760
  157POPC   C1B 5011   1.709   4.510   8.830
  157POPC   C2B 5012   1.815   4.446   8.415
  157POPC   C3B 5013   1.913   4.592   8.005
  157POPC   C4B 5014   1.735   4.626   7.611
  158POPC   NC3 5015  35.883   0.114   9.635
  158POPC   PO4 5016  36.057  44.490   9.388
  158POPC   GL1 5017  36.056  44.788   9.106
  158POPC   GL2 5018  35.736  44.962   9.119
  158POPC   C1A 5019  36.243  44.726   8.716
  158POPC   D2A 5020  36.123  44.786   8.319
  158POPC   C3A 5021  36.152  44.536   7.998
  158POPC   C4A 5022  36.220  44.680   7.596
  158POPC   C1B 5023  35.740  44.849   8.655
  158POPC   C2B 5024  35.689  44.504   8.294
  158POPC   C3B 5025  35.691  44.266   7.864
  158POPC   C4B 5026  35.796  44.356   7.395
  159POPC   NC3 5027  13.943  39.060   9.730
  159POPC   PO4 5028  13.391  39.457   9.711
  159POPC   GL1 5029  13.566  39.327   9.290
  159POPC   GL2 5030  13.897  39.294   9.168
  159POPC   C1A 5031  13.484  39.176   8.855
  159POPC   D2A 5032  13.464  39.227   8.404
  159POPC   C3A 5033  13.697  39.010   8.087
  159POPC   C4A 5034  13.467  39.140   7.724
  159POPC   C1B 5035  13.941  39.432   8.715
  159POPC   C2B 5036  13.825  39.603   8.289
  159POPC   C3B 5037  13.718  39.590   7.848
  159POPC   C4B 5038  13.752  39.440   7.405
  160POPC   NC3 5039  44.599  27.127   9.600
  160POPC   PO4 5040   0.077  26.635   9.500
  160POPC   GL1 5041  44.764  26.709   9.189
  160POPC   GL2 5042  44.692  27.037   9.115
  160POPC   C1A 5043  44.873  26.696   8.757
  160POPC   D2A 5044  44.746  26.886   8.398
  160POPC   C3A 5045  44.692  26.656   8.022
  160POPC   C4A 5046  44.802  26.739   7.614
  160POPC   C1B 5047  44.424  26.957   8.796
  160POPC   C2B 5048  44.322  27.192   8.447
  160POPC   C3B 5049  44.467  27.123   8.050
  160POPC   C4B 5050  44.308  26.904   7.751
  161POPC   NC3 5051  33.440   7.919   9.531
  161POPC   PO4 5052  33.695   7.331   9.570
  161POPC   GL1 5053  33.755   7.518   9.153
  161POPC   GL2 5054  33.745   7.871   9.104
  161POPC   C1A 5055  33.925   7.507   8.730
  161POPC   D2A 5056  34.148   7.336   8.349
  161POPC   C3A 5057  33.896   7.303   7.963
  161POPC   C4A 5058  33.993   7.334   7.498
  161POPC   C1B 5059  33.456   7.775   8.771
  161POPC   C2B 5060  33.253   7.704   8.395
  161POPC   C3B 5061  33.402   7.507   8.027
  161POPC   C4B 5062  33.506   7.419   7.628
  162POPC   NC3 5063  22.047  31.915   9.607
  162POPC   PO4 5064  21.975  31.189   9.560
  162POPC   GL1 5065  21.940  31.531   9.262
  162POPC   GL2 5066  22.239  31.732   9.178
  162POPC   C1A 5067  21.708  31.588   8.877
  162POPC   D2A 5068  21.854  31.704   8.465
  162POPC   C3A 5069  21.930  31.381   8.156
  162POPC   C4A 5070  21.884  31.479   7.746
  162POPC   C1B 5071  22.220  31.548   8.805
  162POPC   C2B 5072  22.343  31.459   8.417
  162POPC   C3B 5073  22.576  31.658   8.118
  162POPC   C4B 5074  22.377  31.467   7.835
  163POPC   NC3 5075  35.553  34.114   9.482
  163POPC   PO4 5076  35.848  34.696   9.498
  163POPC   GL1 5077  35.543  34.754   9.150
  163POPC   GL2 5078  35.198  34.856   9.229
  163POPC   C1A 5079  35.567  34.674   8.720
  163POPC   D2A 5080  35.471  34.556   8.330
  163POPC   C3A 5081  35.611  34.726   7.950
  163POPC   C4A 5082  35.663  34.460   7.573
  163POPC   C1B 5083  35.140  34.974   8.786
  163POPC   C2B 5084  35.026  34.805   8.363
  163POPC   C3B 5085  35.105  34.599   7.984
  163POPC   C4B 5086  35.226  34.746   7.599
  164POPC   NC3 5087  14.405  23.264   9.543
  164POPC   PO4 5088  14.233  22.669   9.411
  164POPC   GL1 5089  14.522  22.911   9.154
  164POPC   GL2 5090  14.463  23.270   9.038
  164POPC   C1A 5091  14.595  22.878   8.719
  164POPC   D2A 5092  14.361  22.805   8.349
  164POPC   C3A 5093  14.561  22.890   7.953
  164POPC   C4A 5094  14.624  22.636   7.625
  164POPC   C1B 5095  14.076  23.103   8.806
  164POPC   C2B 5096  13.915  23.072   8.378
  164POPC   C3B 5097  14.181  23.222   8.077
  164POPC   C4B 5098  14.386  23.297   7.696
  165POPC   NC3 5099  14.625  37.304   9.518
  165POPC   PO4 5100  14.263  36.687   9.510
  165POPC   GL1 5101  14.407  36.964   9.188
  165POPC   GL2 5102  14.166  37.235   9.114
  165POPC   C1A 5103  14.468  36.997   8.748
  165POPC   D2A 5104  14.200  37.203   8.476
  165POPC   C3A 5105  14.424  37.284   8.117
  165POPC   C4A 5106  14.672  37.017   7.832
  165POPC   C1B 5107  13.975  36.878   8.861
  165POPC   C2B 5108  14.101  36.676   8.474
  165POPC   C3B 5109  14.112  36.881   8.075
  165POPC   C4B 5110  14.215  36.670   7.717
  166POPC   NC3 5111  29.633  12.929   9.339
  166POPC   PO4 5112  30.227  12.810   9.478
  166POPC   GL1 5113  30.034  12.654   9.099
  166POPC   GL2 5114  29.681  12.488   9.089
  166POPC   C1A 5115  29.914  12.880   8.718
  166POPC   D2A 5116  29.794  13.196   8.400
  166POPC   C3A 5117  29.944  13.066   7.986
  166POPC   C4A 5118  30.014  12.705   7.730
  166POPC   C1B 5119  29.509  12.569   8.684
  166POPC   C2B 5120  29.691  12.694   8.275
  166POPC   C3B 5121  29.522  12.606   7.865
  166POPC   C4B 5122  29.284  12.611   7.491
  167POPC   NC3 5123  43.469  31.255   9.536
  167POPC   PO4 5124  42.960  31.674   9.734
  167POPC   GL1 5125  43.044  31.482   9.300
  167POPC   GL2 5126  43.286  31.737   9.213
  167POPC   C1A 5127  42.904  31.202   8.897
  167POPC   D2A 5128  42.852  30.973   8.480
  167POPC   C3A 5129  42.928  31.284   8.181
  167POPC   C4A 5130  43.078  31.305   7.776
  167POPC   C1B 5131  43.034  31.702   8.833
  167POPC   C2B 5132  43.187  31.660   8.425
  167POPC   C3B 5133  43.115  31.767   8.004
  167POPC   C4B 5134  43.279  31.757   7.606
  168POPC   NC3 5135  38.992  15.277   9.443
  168POPC   PO4 5136  39.081  14.748   9.047
  168POPC   GL1 5137  39.149  15.203   8.970
  168POPC   GL2 5138  39.459  15.314   9.072
  168POPC   C1A 5139  39.058  15.329   8.596
  168POPC   D2A 5140  38.869  14.965   8.472
  168POPC   C3A 5141  38.893  14.927   8.067
  168POPC   C4A 5142  38.862  15.231   7.814
  168POPC   C1B 5143  39.540  15.011   8.698
  168POPC   C2B 5144  39.372  14.992   8.261
  168POPC   C3B 5145  39.345  15.020   7.804
  168POPC   C4B 5146  39.628  15.213   7.472
  169POPC   NC3 5147  24.891  20.156   9.708
  169POPC   PO4 5148  24.306  19.854   9.696
  169POPC   GL1 5149  24.512  19.949   9.298
  169POPC   GL2 5150  24.262  20.079   9.075
  169POPC   C1A 5151  24.525  19.668   8.904
  169POPC   D2A 5152  24.473  19.659   8.471
  169POPC   C3A 5153  24.788  19.533   8.184
  169POPC   C4A 5154  24.650  19.680   7.793
  169POPC   C1B 5155  24.221  20.105   8.610
  169POPC   C2B 5156  24.342  20.103   8.175
  169POPC   C3B 5157  24.301  20.069   7.716
  169POPC   C4B 5158  23.983  19.828   7.439
  170POPC   NC3 5159  12.959  13.032   9.855
  170POPC   PO4 5160  12.716  13.039   9.220
  170POPC   GL1 5161  12.782  12.709   8.972
  170POPC   GL2 5162  13.151  12.669   8.923
  170POPC   C1A 5163  12.594  12.781   8.576
  170POPC   D2A 5164  12.698  13.208   8.410
  170POPC   C3A 5165  12.867  13.082   8.050
  170POPC   C4A 5166  12.616  12.821   7.811
  170POPC   C1B 5167  13.089  12.857   8.563
  170POPC   C2B 5168  12.938  12.598   8.232
  170POPC   C3B 5169  13.050  12.556   7.828
  170POPC   C4B 5170  13.029  12.790   7.481
  171POPC   NC3 5171  31.379   9.951   9.379
  171POPC   PO4 5172  31.830   9.618   9.730
  171POPC   GL1 5173  31.659   9.471   9.291
  171POPC   GL2 5174  31.264   9.457   9.244
  171POPC   C1A 5175  31.664   9.580   8.843
  171POPC   D2A 5176  31.811   9.915   8.588
  171POPC   C3A 5177  31.795   9.786   8.157
  171POPC   C4A 5178  31.648  10.038   7.824
  171POPC   C1B 5179  31.166   9.633   8.807
  171POPC   C2B 5180  31.309   9.716   8.373
  171POPC   C3B 5181  31.315   9.634   7.921
  171POPC   C4B 5182  31.389   9.409   7.520
  172POPC   NC3 5183  26.725  19.822   9.442
  172POPC   PO4 5184  27.440  19.583   9.431
  172POPC   GL1 5185  27.071  19.538   9.146
  172POPC   GL2 5186  26.707  19.492   9.047
  172POPC   C1A 5187  27.068  19.767   8.759
  172POPC   D2A 5188  26.770  19.922   8.463
  172POPC   C3A 5189  26.919  19.924   8.060
  172POPC   C4A 5190  26.844  19.948   7.662
  172POPC   C1B 5191  26.722  19.386   8.615
  172POPC   C2B 5192  26.830  19.425   8.179
  172POPC   C3B 5193  26.611  19.525   7.798
  172POPC   C4B 5194  26.672  19.557   7.357
  173POPC   NC3 5195  33.896  34.626   9.527
  173POPC   PO4 5196  33.433  34.956   9.181
  173POPC   GL1 5197  33.717  34.758   8.946
  173POPC   GL2 5198  33.953  34.927   9.106
  173POPC   C1A 5199  33.854  34.604   8.534
  173POPC   D2A 5200  34.022  34.343   8.210
  173POPC   C3A 5201  33.722  34.468   7.846
  173POPC   C4A 5202  33.466  34.884   7.818
  173POPC   C1B 5203  34.153  34.957   8.758
  173POPC   C2B 5204  34.152  35.051   8.357
  173POPC   C3B 5205  34.079  34.795   7.995
  173POPC   C4B 5206  34.275  34.427   7.782
  174POPC   NC3 5207  11.838   4.291   9.815
  174POPC   PO4 5208  12.125   4.767   9.466
  174POPC   GL1 5209  12.132   4.584   9.060
  174POPC   GL2 5210  12.171   4.221   9.110
  174POPC   C1A 5211  11.964   4.416   8.676
  174POPC   D2A 5212  11.935   4.301   8.261
  174POPC   C3A 5213  12.126   4.598   7.952
  174POPC   C4A 5214  12.168   4.645   7.507
  174POPC   C1B 5215  12.458   4.306   8.736
  174POPC   C2B 5216  12.435   4.355   8.295
  174POPC   C3B 5217  12.280   4.089   7.918
  174POPC   C4B 5218  12.105   3.900   7.562
  175POPC   NC3 5219  15.598   8.547   9.487
  175POPC   PO4 5220  15.106   9.016   9.649
  175POPC   GL1 5221  15.287   8.962   9.245
  175POPC   GL2 5222  14.953   8.944   9.117
  175POPC   C1A 5223  15.513   8.766   8.869
  175POPC   D2A 5224  15.709   8.691   8.447
  175POPC   C3A 5225  15.451   8.683   8.054
  175POPC   C4A 5226  15.384   8.983   7.706
  175POPC   C1B 5227  15.017   8.745   8.746
  175POPC   C2B 5228  14.863   8.721   8.346
  175POPC   C3B 5229  14.957   8.889   7.974
  175POPC   C4B 5230  14.783   8.763   7.610
  176POPC   NC3 5231  18.969  19.977   9.581
  176POPC   PO4 5232  19.575  20.131   9.443
  176POPC   GL1 5233  19.259  20.012   9.160
  176POPC   GL2 5234  19.266  19.679   9.057
  176POPC   C1A 5235  19.100  20.068   8.749
  176POPC   D2A 5236  19.189  19.815   8.354
  176POPC   C3A 5237  19.108  19.988   7.947
  176POPC   C4A 5238  19.392  20.265   7.739
  176POPC   C1B 5239  18.935  19.567   8.800
  176POPC   C2B 5240  18.736  19.587   8.403
  176POPC   C3B 5241  18.887  19.507   7.993
  176POPC   C4B 5242  19.275  19.500   7.782
  177POPC   NC3 5243  25.924   6.424   9.555
  177POPC   PO4 5244  25.597   7.098   9.526
  177POPC   GL1 5245  25.816   6.801   9.223
  177POPC   GL2 5246  26.145   6.872   9.098
  177POPC   C1A 5247  25.830   6.586   8.813
  177POPC   D2A 5248  25.764   6.696   8.390
  177POPC   C3A 5249  25.977   6.421   8.106
  177POPC   C4A 5250  25.921   6.155   7.741
  177POPC   C1B 5251  26.334   6.693   8.737
  177POPC   C2B 5252  26.462   6.554   8.331
  177POPC   C3B 5253  26.369   6.729   7.928
  177POPC   C4B 5254  26.461   6.812   7.512
  178POPC   NC3 5255  32.701  11.570   9.448
  178POPC   PO4 5256  33.366  11.512   9.742
  178POPC   GL1 5257  33.145  11.523   9.254
  178POPC   GL2 5258  32.883  11.170   9.219
  178POPC   C1A 5259  33.037  11.370   8.799
  178POPC   D2A 5260  33.137  11.393   8.364
  178POPC   C3A 5261  32.778  11.412   8.115
  178POPC   C4A 5262  32.883  11.329   7.719
  178POPC   C1B 5263  32.661  10.986   8.887
  178POPC   C2B 5264  32.832  10.969   8.474
  178POPC   C3B 5265  32.989  10.965   8.055
  178POPC   C4B 5266  32.904  10.842   7.647
  179POPC   NC3 5267   8.529   4.463   9.374
  179POPC   PO4 5268   8.091   3.986   9.606
  179POPC   GL1 5269   8.139   4.162   9.183
  179POPC   GL2 5270   8.116   4.508   9.000
  179POPC   C1A 5271   8.202   4.083   8.759
  179POPC   D2A 5272   8.104   4.369   8.450
  179POPC   C3A 5273   7.944   4.232   8.056
  179POPC   C4A 5274   7.900   4.516   7.704
  179POPC   C1B 5275   8.521   4.489   8.735
  179POPC   C2B 5276   8.624   4.494   8.316
  179POPC   C3B 5277   8.372   4.469   7.952
  179POPC   C4B 5278   8.397   4.685   7.520
  180POPC   NC3 5279  27.782  37.710   9.483
  180POPC   PO4 5280  27.073  37.862   9.484
  180POPC   GL1 5281  27.362  37.773   9.111
  180POPC   GL2 5282  27.694  37.931   9.016
  180POPC   C1A 5283  27.573  37.547   8.725
  180POPC   D2A 5284  27.759  37.511   8.297
  180POPC   C3A 5285  27.616  37.530   7.876
  180POPC   C4A 5286  27.545  37.493   7.428
  180POPC   C1B 5287  27.872  38.180   8.686
  180POPC   C2B 5288  27.785  38.283   8.263
  180POPC   C3B 5289  27.884  37.954   8.031
  180POPC   C4B 5290  28.088  38.004   7.666
  181POPC   NC3 5291  29.106  10.484   9.569
  181POPC   PO4 5292  28.688   9.961   9.519
  181POPC   GL1 5293  28.936  10.173   9.149
  181POPC   GL2 5294  29.337  10.239   9.151
  181POPC   C1A 5295  29.071  10.224   8.709
  181POPC   D2A 5296  29.296  10.308   8.317
  181POPC   C3A 5297  29.108  10.611   8.022
  181POPC   C4A 5298  29.015  10.588   7.583
  181POPC   C1B 5299  29.523  10.503   8.816
  181POPC   C2B 5300  29.689  10.776   8.497
  181POPC   C3B 5301  29.613  10.664   8.085
  181POPC   C4B 5302  29.491  10.398   7.719
  182POPC   NC3 5303  14.877  24.824   9.269
  182POPC   PO4 5304  15.223  25.299   9.611
  182POPC   GL1 5305  15.207  25.479   9.198
  182POPC   GL2 5306  15.052  25.240   9.027
  182POPC   C1A 5307  15.475  25.518   8.840
  182POPC   D2A 5308  15.522  25.313   8.427
  182POPC   C3A 5309  15.184  25.333   8.130
  182POPC   C4A 5310  15.342  25.287   7.757
  182POPC   C1B 5311  15.010  25.180   8.595
  182POPC   C2B 5312  14.977  24.867   8.264
  182POPC   C3B 5313  15.033  24.891   7.799
  182POPC   C4B 5314  14.891  25.023   7.363
  183POPC   NC3 5315  14.016  18.240   9.698
  183POPC   PO4 5316  13.624  17.757   9.456
  183POPC   GL1 5317  13.744  18.194   9.240
  183POPC   GL2 5318  13.469  18.337   9.061
  183POPC   C1A 5319  13.923  18.368   8.843
  183POPC   D2A 5320  13.958  18.208   8.410
  183POPC   C3A 5321  13.738  18.414   8.068
  183POPC   C4A 5322  13.652  18.211   7.673
  183POPC   C1B 5323  13.512  18.123   8.638
  183POPC   C2B 5324  13.521  17.962   8.180
  183POPC   C3B 5325  13.196  17.959   7.827
  183POPC   C4B 5326  12.932  17.798   7.454
  184POPC   NC3 5327  25.395  25.006   9.192
  184POPC   PO4 5328  25.258  24.642   9.681
  184POPC   GL1 5329  25.254  24.495   9.179
  184POPC   GL2 5330  25.218  24.678   8.872
  184POPC   C1A 5331  25.169  24.187   8.776
  184POPC   D2A 5332  25.068  24.125   8.317
  184POPC   C3A 5333  25.403  24.288   8.025
  184POPC   C4A 5334  25.468  24.447   7.596
  184POPC   C1B 5335  25.022  24.963   8.587
  184POPC   C2B 5336  25.074  24.712   8.233
  184POPC   C3B 5337  25.271  24.814   7.883
  184POPC   C4B 5338  25.130  24.823   7.468
  185POPC   NC3 5339  44.231  20.630   9.495
  185POPC   PO4 5340  43.563  20.890   9.426
  185POPC   GL1 5341  43.851  20.683   9.121
  185POPC   GL2 5342  43.962  20.400   9.125
  185POPC   C1A 5343  44.081  20.623   8.697
  185POPC   D2A 5344  43.900  20.708   8.309
  185POPC   C3A 5345  44.224  20.828   8.048
  185POPC   C4A 5346  44.167  20.672   7.643
  185POPC   C1B 5347  43.884  20.163   8.795
  185POPC   C2B 5348  43.843  20.207   8.401
  185POPC   C3B 5349  44.130  20.301   8.082
  185POPC   C4B 5350  43.980  20.191   7.697
  186POPC   NC3 5351  38.515  32.477   9.609
  186POPC   PO4 5352  38.275  31.887   9.709
  186POPC   GL1 5353  38.465  31.993   9.259
  186POPC   GL2 5354  38.575  32.339   9.131
  186POPC   C1A 5355  38.273  32.090   8.812
  186POPC   D2A 5356  38.362  32.392   8.441
  186POPC   C3A 5357  38.170  32.312   8.019
  186POPC   C4A 5358  38.253  32.470   7.592
  186POPC   C1B 5359  38.753  32.220   8.746
  186POPC   C2B 5360  38.858  32.315   8.331
  186POPC   C3B 5361  38.679  32.246   7.904
  186POPC   C4B 5362  38.650  31.901   7.584
  187POPC   NC3 5363  42.050   5.430   9.370
  187POPC   PO4 5364  42.561   5.463   9.799
  187POPC   GL1 5365  42.384   5.067   9.341
  187POPC   GL2 5366  42.047   5.059   9.045
  187POPC   C1A 5367  42.467   4.940   8.837
  187POPC   D2A 5368  42.456   5.192   8.436
  187POPC   C3A 5369  42.289   5.042   8.039
  187POPC   C4A 5370  42.461   5.219   7.651
  187POPC   C1B 5371  42.038   5.388   8.683
  187POPC   C2B 5372  42.020   5.470   8.195
  187POPC   C3B 5373  41.938   5.273   7.757
  187POPC   C4B 5374  42.097   5.387   7.352
  188POPC   NC3 5375   4.488  19.641   9.333
  188POPC   PO4 5376   4.263  20.262   9.378
  188POPC   GL1 5377   4.240  19.978   9.056
  188POPC   GL2 5378   4.023  19.652   9.133
  188POPC   C1A 5379   4.558  19.888   8.740
  188POPC   D2A 5380   4.514  19.737   8.333
  188POPC   C3A 5381   4.786  19.860   8.019
  188POPC   C4A 5382   4.378  19.956   7.883
  188POPC   C1B 5383   4.120  19.616   8.709
  188POPC   C2B 5384   4.117  19.408   8.333
  188POPC   C3B 5385   4.004  19.606   7.976
  188POPC   C4B 5386   4.068  19.418   7.607
  189POPC   NC3 5387   3.021  22.627   9.564
  189POPC   PO4 5388   2.415  22.932   9.445
  189POPC   GL1 5389   2.767  22.914   9.179
  189POPC   GL2 5390   2.792  22.545   9.093
  189POPC   C1A 5391   2.812  23.156   8.784
  189POPC   D2A 5392   2.636  22.933   8.404
  189POPC   C3A 5393   2.698  22.991   7.926
  189POPC   C4A 5394   2.735  22.810   7.476
  189POPC   C1B 5395   3.025  22.679   8.697
  189POPC   C2B 5396   3.048  22.636   8.209
  189POPC   C3B 5397   3.153  22.768   7.772
  189POPC   C4B 5398   3.196  22.852   7.295
  190POPC   NC3 5399  44.398  16.070   9.506
  190POPC   PO4 5400  44.775  15.527   9.522
  190POPC   GL1 5401  44.676  15.811   9.160
  190POPC   GL2 5402  44.962  15.971   9.018
  190POPC   C1A 5403  44.515  16.055   8.759
  190POPC   D2A 5404  44.334  16.100   8.303
  190POPC   C3A 5405  44.578  16.152   7.949
  190POPC   C4A 5406  44.929  16.189   7.705
  190POPC   C1B 5407  44.856  15.680   8.685
  190POPC   C2B 5408  44.821  15.837   8.274
  190POPC   C3B 5409  44.925  15.686   7.862
  190POPC   C4B 5410  44.808  15.770   7.427
  191POPC   NC3 5411  20.910  35.936   9.534
  191POPC   PO4 5412  20.331  36.210   9.656
  191POPC   GL1 5413  20.457  36.204   9.222
  191POPC   GL2 5414  20.753  36.065   9.079
  191POPC   C1A 5415  20.304  36.009   8.835
  191POPC   D2A 5416  20.228  36.173   8.432
  191POPC   C3A 5417  20.549  36.091   8.156
  191POPC   C4A 5418  20.550  36.175   7.724
  191POPC   C1B 5419  20.777  35.766   8.748
  191POPC   C2B 5420  20.943  35.825   8.342
  191POPC   C3B 5421  20.869  35.772   7.916
  191POPC   C4B 5422  20.944  35.900   7.501
  192POPC   NC3 5423  38.737   4.121   9.427
  192POPC   PO4 5424  38.029   3.959   9.405
  192POPC   GL1 5425  38.359   4.150   9.100
  192POPC   GL2 5426  38.272   4.456   9.017
  192POPC   C1A 5427  38.672   4.315   8.733
  192POPC   D2A 5428  38.722   4.681   8.421
  192POPC   C3A 5429  38.668   4.597   7.971
  192POPC   C4A 5430  38.684   4.202   7.816
  192POPC   C1B 5431  38.186   4.268   8.650
  192POPC   C2B 5432  38.388   4.294   8.282
  192POPC   C3B 5433  38.183   4.319   7.900
  192POPC   C4B 5434  38.347   4.358   7.475
  193POPC   NC3 5435   2.995  36.439   9.821
  193POPC   PO4 5436   3.601  36.346   9.523
  193POPC   GL1 5437   3.668  36.137   9.170
  193POPC   GL2 5438   3.700  35.794   9.254
  193POPC   C1A 5439   3.626  36.162   8.740
  193POPC   D2A 5440   3.792  35.933   8.416
  193POPC   C3A 5441   3.696  36.189   8.088
  193POPC   C4A 5442   3.638  36.025   7.696
  193POPC   C1B 5443   3.630  35.654   8.843
  193POPC   C2B 5444   3.374  35.597   8.489
  193POPC   C3B 5445   3.475  35.710   8.057
  193POPC   C4B 5446   3.254  35.626   7.654
  194POPC   NC3 5447  13.561  25.528   9.500
  194POPC   PO4 5448  13.502  24.822   9.645
  194POPC   GL1 5449  13.407  25.108   9.232
  194POPC   GL2 5450  13.708  25.324   9.067
  194POPC   C1A 5451  13.356  25.132   8.754
  194POPC   D2A 5452  13.279  25.460   8.434
  194POPC   C3A 5453  13.284  25.459   8.017
  194POPC   C4A 5454  13.434  25.283   7.651
  194POPC   C1B 5455  13.771  25.405   8.620
  194POPC   C2B 5456  13.628  25.155   8.252
  194POPC   C3B 5457  13.554  24.867   7.927
  194POPC   C4B 5458  13.858  24.997   7.644
  195POPC   NC3 5459  23.012  28.223   9.419
  195POPC   PO4 5460  22.418  28.609   9.590
  195POPC   GL1 5461  22.672  28.558   9.187
  195POPC   GL2 5462  23.034  28.665   9.119
  195POPC   C1A 5463  22.808  28.352   8.781
  195POPC   D2A 5464  22.878  28.002   8.447
  195POPC   C3A 5465  22.856  28.171   8.034
  195POPC   C4A 5466  22.648  28.571   7.954
  195POPC   C1B 5467  23.287  28.498   8.751
  195POPC   C2B 5468  23.267  28.332   8.329
  195POPC   C3B 5469  23.182  28.543   7.917
  195POPC   C4B 5470  23.127  28.507   7.465
  196POPC   NC3 5471  13.744  24.743  10.033
  196POPC   PO4 5472  13.911  24.301   9.521
  196POPC   GL1 5473  13.734  24.393   9.129
  196POPC   GL2 5474  13.416  24.187   9.062
  196POPC   C1A 5475  13.902  24.611   8.761
  196POPC   D2A 5476  13.734  24.659   8.356
  196POPC   C3A 5477  14.016  24.622   7.992
  196POPC   C4A 5478  13.951  24.253   7.732
  196POPC   C1B 5479  13.385  24.480   8.720
  196POPC   C2B 5480  13.257  24.447   8.287
  196POPC   C3B 5481  13.414  24.345   7.883
  196POPC   C4B 5482  13.427  24.106   7.448
  197POPC   NC3 5483  32.093  12.263   9.519
  197POPC   PO4 5484  31.861  11.615   9.406
  197POPC   GL1 5485  32.235  11.871   9.184
  197POPC   GL2 5486  32.189  12.245   9.014
  197POPC   C1A 5487  32.451  11.904   8.759
  197POPC   D2A 5488  32.547  11.976   8.300
  197POPC   C3A 5489  32.237  12.114   7.961
  197POPC   C4A 5490  32.219  12.190   7.498
  197POPC   C1B 5491  31.860  12.314   8.662
  197POPC   C2B 5492  31.815  12.305   8.192
  197POPC   C3B 5493  31.771  12.229   7.717
  197POPC   C4B 5494  31.866  12.483   7.287
  198POPC   NC3 5495  29.118  18.064   9.461
  198POPC   PO4 5496  29.335  18.690   9.396
  198POPC   GL1 5497  28.949  18.543   9.216
  198POPC   GL2 5498  29.134  18.332   9.050
  198POPC   C1A 5499  28.803  18.587   8.763
  198POPC   D2A 5500  28.826  18.420   8.312
  198POPC   C3A 5501  29.126  18.470   7.943
  198POPC   C4A 5502  28.844  18.673   7.683
  198POPC   C1B 5503  29.049  18.142   8.704
  198POPC   C2B 5504  29.232  18.098   8.342
  198POPC   C3B 5505  29.087  17.978   7.957
  198POPC   C4B 5506  29.446  18.080   7.642
  199POPC   NC3 5507  35.196  28.312   9.506
  199POPC   PO4 5508  35.722  28.754   9.467
  199POPC   GL1 5509  35.626  28.415   9.183
  199POPC   GL2 5510  35.304  28.360   9.013
  199POPC   C1A 5511  35.739  28.328   8.742
  199POPC   D2A 5512  35.351  28.345   8.461
  199POPC   C3A 5513  35.290  28.336   8.010
  199POPC   C4A 5514  35.437  28.279   7.563
  199POPC   C1B 5515  35.065  28.066   8.785
  199POPC   C2B 5516  34.912  28.100   8.333
  199POPC   C3B 5517  34.921  27.996   7.865
  199POPC   C4B 5518  34.958  28.113   7.372
  200POPC   NC3 5519  25.639  43.436   9.232
  200POPC   PO4 5520  26.053  42.899   9.379
  200POPC   GL1 5521  26.078  43.115   9.054
  200POPC   GL2 5522  26.139  43.451   9.087
  200POPC   C1A 5523  25.862  43.151   8.658
  200POPC   D2A 5524  25.694  43.246   8.259
  200POPC   C3A 5525  25.833  42.942   7.989
  200POPC   C4A 5526  25.929  42.841   7.574
  200POPC   C1B 5527  26.363  43.284   8.690
  200POPC   C2B 5528  26.243  43.068   8.299
  200POPC   C3B 5529  26.365  42.993   7.843
  200POPC   C4B 5530  26.221  43.264   7.533
  201POPC   NC3 5531  38.680   8.788   9.680
  201POPC   PO4 5532  38.065   8.856   9.461
  201POPC   GL1 5533  38.440   8.991   9.212
  201POPC   GL2 5534  38.209   9.047   8.953
  201POPC   C1A 5535  38.735   9.075   8.830
  201POPC   D2A 5536  38.834   8.906   8.367
  201POPC   C3A 5537  38.682   9.020   7.941
  201POPC   C4A 5538  38.641   8.827   7.505
  201POPC   C1B 5539  37.960   9.313   8.711
  201POPC   C2B 5540  37.938   9.545   8.351
  201POPC   C3B 5541  38.223   9.474   8.014
  201POPC   C4B 5542  38.313   9.221   7.651
  202POPC   NC3 5543  23.316   8.890   9.372
  202POPC   PO4 5544  22.837   9.328   9.522
  202POPC   GL1 5545  22.778   9.054   9.181
  202POPC   GL2 5546  22.680   8.693   9.253
  202POPC   C1A 5547  22.993   9.047   8.778
  202POPC   D2A 5548  23.244   8.849   8.480
  202POPC   C3A 5549  23.155   8.953   8.095
  202POPC   C4A 5550  23.174   8.761   7.690
  202POPC   C1B 5551  22.568   8.737   8.810
  202POPC   C2B 5552  22.758   8.701   8.390
  202POPC   C3B 5553  22.706   8.791   7.945
  202POPC   C4B 5554  22.736   8.783   7.457
  203POPC   NC3 5555   4.729  37.692   9.582
  203POPC   PO4 5556   4.148  37.289   9.765
  203POPC   GL1 5557   4.296  37.595   9.360
  203POPC   GL2 5558   4.150  37.925   9.216
  203POPC   C1A 5559   4.485  37.605   8.925
  203POPC   D2A 5560   4.514  37.547   8.455
  203POPC   C3A 5561   4.612  37.805   8.074
  203POPC   C4A 5562   4.511  37.876   7.618
  203POPC   C1B 5563   4.061  38.078   8.777
  203POPC   C2B 5564   4.174  37.935   8.333
  203POPC   C3B 5565   4.081  37.814   7.866
  203POPC   C4B 5566   3.979  37.926   7.354
  204POPC   NC3 5567  32.040  31.804   9.378
  204POPC   PO4 5568  32.486  31.355   9.368
  204POPC   GL1 5569  32.348  31.139   9.027
  204POPC   GL2 5570  32.063  31.356   8.944
  204POPC   C1A 5571  32.454  31.214   8.602
  204POPC   D2A 5572  32.165  31.541   8.431
  204POPC   C3A 5573  32.276  31.697   8.034
  204POPC   C4A 5574  32.323  31.444   7.663
  204POPC   C1B 5575  31.797  31.699   8.797
  204POPC   C2B 5576  31.757  31.870   8.417
  204POPC   C3B 5577  31.732  31.696   8.022
  204POPC   C4B 5578  31.928  31.777   7.643
  205POPC   NC3 5579  16.169   9.691   9.811
  205POPC   PO4 5580  15.607   9.864   9.572
  205POPC   GL1 5581  15.819   9.783   9.154
  205POPC   GL2 5582  16.078   9.561   9.265
  205POPC   C1A 5583  15.659   9.730   8.705
  205POPC   D2A 5584  15.524   9.973   8.319
  205POPC   C3A 5585  15.730   9.848   7.935
  205POPC   C4A 5586  16.144   9.946   7.824
  205POPC   C1B 5587  16.142   9.512   8.802
  205POPC   C2B 5588  16.083   9.645   8.354
  205POPC   C3B 5589  16.091   9.449   7.928
  205POPC   C4B 5590  16.278   9.561   7.501
  206POPC   NC3 5591   9.404  44.680   9.674
  206POPC   PO4 5592   9.928  44.353   9.529
  206POPC   GL1 5593   9.684  44.569   9.198
  206POPC   GL2 5594   9.461  44.867   9.200
  206POPC   C1A 5595   9.870  44.585   8.791
  206POPC   D2A 5596  10.098  44.666   8.433
  206POPC   C3A 5597   9.894  44.720   8.054
  206POPC   C4A 5598   9.975  44.565   7.687
  206POPC   C1B 5599   9.380  44.749   8.767
  206POPC   C2B 5600   9.546  44.509   8.385
  206POPC   C3B 5601   9.450  44.481   7.926
  206POPC   C4B 5602   9.553  44.764   7.557
  207POPC   NC3 5603  42.845  26.599   9.268
  207POPC   PO4 5604  43.416  26.898   9.533
  207POPC   GL1 5605  43.233  26.915   9.152
  207POPC   GL2 5606  43.436  27.127   8.981
  207POPC   C1A 5607  43.066  26.896   8.713
  207POPC   D2A 5608  42.844  27.098   8.374
  207POPC   C3A 5609  42.994  27.145   7.955
  207POPC   C4A 5610  42.867  26.813   7.698
  207POPC   C1B 5611  43.571  26.732   8.808
  207POPC   C2B 5612  43.527  26.627   8.377
  207POPC   C3B 5613  43.458  26.971   8.068
  207POPC   C4B 5614  43.346  26.955   7.615
  208POPC   NC3 5615   8.851  43.482   9.337
  208POPC   PO4 5616   9.279  43.052   9.633
  208POPC   GL1 5617   9.195  43.001   9.161
  208POPC   GL2 5618   8.844  42.970   9.135
  208POPC   C1A 5619   9.137  43.245   8.713
  208POPC   D2A 5620   9.328  43.546   8.351
  208POPC   C3A 5621   9.312  43.446   7.889
  208POPC   C4A 5622   9.001  43.196   7.668
  208POPC   C1B 5623   8.949  42.761   8.754
  208POPC   C2B 5624   8.744  42.713   8.390
  208POPC   C3B 5625   8.827  42.877   8.008
  208POPC   C4B 5626   8.691  42.766   7.598
  209POPC   NC3 5627  10.827  23.094   9.693
  209POPC   PO4 5628  11.420  22.984   9.425
  209POPC   GL1 5629  11.298  23.041   9.051
  209POPC   GL2 5630  10.957  23.183   9.122
  209POPC   C1A 5631  11.453  22.878   8.645
  209POPC   D2A 5632  11.772  22.854   8.314
  209POPC   C3A 5633  11.489  22.843   7.985
  209POPC   C4A 5634  11.408  23.127   7.668
  209POPC   C1B 5635  10.987  23.106   8.675
  209POPC   C2B 5636  11.088  22.961   8.269
  209POPC   C3B 5637  10.956  22.985   7.838
  209POPC   C4B 5638  10.636  23.066   7.512
  210POPC   NC3 5639  17.551  42.036   9.562
  210POPC   PO4 5640  17.836  42.711   9.514
  210POPC   GL1 5641  17.713  42.450   9.139
  210POPC   GL2 5642  17.666  42.131   9.063
  210POPC   C1A 5643  17.432  42.467   8.752
  210POPC   D2A 5644  17.200  42.602   8.381
  210POPC   C3A 5645  17.275  42.439   7.962
  210POPC   C4A 5646  17.171  42.577   7.553
  210POPC   C1B 5647  17.750  42.032   8.613
  210POPC   C2B 5648  17.764  42.404   8.364
  210POPC   C3B 5649  17.741  42.624   8.025
  210POPC   C4B 5650  17.736  42.325   7.664
  211POPC   NC3 5651  27.799  28.466   9.339
  211POPC   PO4 5652  27.272  28.287   9.671
  211POPC   GL1 5653  27.429  28.129   9.186
  211POPC   GL2 5654  27.788  28.106   8.989
  211POPC   C1A 5655  27.424  28.233   8.699
  211POPC   D2A 5656  27.804  28.181   8.446
  211POPC   C3A 5657  27.739  28.203   8.050
  211POPC   C4A 5658  27.407  28.458   7.875
  211POPC   C1B 5659  28.016  28.511   8.754
  211POPC   C2B 5660  28.123  28.547   8.315
  211POPC   C3B 5661  27.855  28.684   7.991
  211POPC   C4B 5662  27.880  28.602   7.542
  212POPC   NC3 5663   2.125  30.193   9.473
  212POPC   PO4 5664   1.827  29.568   9.503
  212POPC   GL1 5665   1.870  29.816   9.178
  212POPC   GL2 5666   2.201  29.773   9.055
  212POPC   C1A 5667   1.758  29.968   8.802
  212POPC   D2A 5668   1.712  30.004   8.382
  212POPC   C3A 5669   1.997  29.791   8.141
  212POPC   C4A 5670   1.862  29.850   7.735
  212POPC   C1B 5671   2.244  30.182   8.805
  212POPC   C2B 5672   2.167  30.343   8.384
  212POPC   C3B 5673   2.066  30.266   7.948
  212POPC   C4B 5674   2.287  30.139   7.597
  213POPC   NC3 5675  43.735  30.485   9.568
  213POPC   PO4 5676  43.792  31.153   9.851
  213POPC   GL1 5677  43.864  30.973   9.357
  213POPC   GL2 5678  43.602  30.970   9.083
  213POPC   C1A 5679  43.955  30.650   8.957
  213POPC   D2A 5680  43.688  30.619   8.544
  213POPC   C3A 5681  43.869  30.535   8.125
  213POPC   C4A 5682  43.975  30.372   7.715
  213POPC   C1B 5683  43.843  31.097   8.736
  213POPC   C2B 5684  44.043  30.960   8.344
  213POPC   C3B 5685  43.889  31.008   7.906
  213POPC   C4B 5686  43.829  30.850   7.473
  214POPC   NC3 5687  14.086  24.743   9.398
  214POPC   PO4 5688  14.730  24.437   9.495
  214POPC   GL1 5689  14.566  24.413   9.115
  214POPC   GL2 5690  14.428  24.716   9.015
  214POPC   C1A 5691  14.298  24.252   8.809
  214POPC   D2A 5692  14.168  24.330   8.411
  214POPC   C3A 5693  14.394  24.264   8.054
  214POPC   C4A 5694  14.466  24.434   7.677
  214POPC   C1B 5695  14.559  24.921   8.681
  214POPC   C2B 5696  14.485  24.720   8.326
  214POPC   C3B 5697  14.549  24.837   7.964
  214POPC   C4B 5698  14.399  24.979   7.626
  215POPC   NC3 5699  28.104  12.211   9.590
  215POPC   PO4 5700  28.360  11.696   9.496
  215POPC   GL1 5701  28.457  12.077   9.206
  215POPC   GL2 5702  28.204  12.334   9.065
  215POPC   C1A 5703  28.575  12.143   8.765
  215POPC   D2A 5704  28.464  11.984   8.358
  215POPC   C3A 5705  28.194  12.164   8.039
  215POPC   C4A 5706  28.286  11.989   7.631
  215POPC   C1B 5707  28.126  12.331   8.577
  215POPC   C2B 5708  27.799  12.124   8.367
  215POPC   C3B 5709  27.636  12.142   7.974
  215POPC   C4B 5710  27.838  12.267   7.641
  216POPC   NC3 5711  26.977  37.303   9.463
  216POPC   PO4 5712  26.340  37.589   9.503
  216POPC   GL1 5713  26.555  37.426   9.165
  216POPC   GL2 5714  26.847  37.634   9.078
  216POPC   C1A 5715  26.599  37.379   8.717
  216POPC   D2A 5716  26.645  37.608   8.365
  216POPC   C3A 5717  26.789  37.395   8.040
  216POPC   C4A 5718  26.714  37.329   7.625
  216POPC   C1B 5719  27.075  37.597   8.659
  216POPC   C2B 5720  27.232  37.520   8.215
  216POPC   C3B 5721  27.141  37.618   7.728
  216POPC   C4B 5722  27.208  37.842   7.312
  217POPC   NC3 5723  18.141  28.712   9.445
  217POPC   PO4 5724  18.304  28.074   9.448
  217POPC   GL1 5725  18.373  28.170   9.084
  217POPC   GL2 5726  18.413  28.529   9.053
  217POPC   C1A 5727  18.469  28.158   8.703
  217POPC   D2A 5728  18.386  28.453   8.431
  217POPC   C3A 5729  18.424  28.264   8.033
  217POPC   C4A 5730  18.365  28.461   7.676
  217POPC   C1B 5731  18.090  28.728   8.789
  217POPC   C2B 5732  17.911  28.648   8.423
  217POPC   C3B 5733  18.107  28.685   8.065
  217POPC   C4B 5734  17.929  28.731   7.668
  218POPC   NC3 5735   0.302  42.392   9.462
  218POPC   PO4 5736   0.850  42.003   9.601
  218POPC   GL1 5737   0.578  42.030   9.210
  218POPC   GL2 5738   0.689  42.370   9.119
  218POPC   C1A 5739   0.280  42.130   8.833
  218POPC   D2A 5740   0.206  42.336   8.419
  218POPC   C3A 5741   0.325  42.111   8.073
  218POPC   C4A 5742   0.490  42.166   7.675
  218POPC   C1B 5743   0.642  42.454   8.679
  218POPC   C2B 5744   0.561  42.717   8.334
  218POPC   C3B 5745   0.349  42.707   7.938
  218POPC   C4B 5746   0.719  42.750   7.723
  219POPC   NC3 5747   5.172   4.658   9.591
  219POPC   PO4 5748   5.307   5.209   9.383
  219POPC   GL1 5749   5.141   4.917   9.115
  219POPC   GL2 5750   4.814   4.841   9.279
  219POPC   C1A 5751   5.038   5.009   8.667
  219POPC   D2A 5752   5.022   5.314   8.333
  219POPC   C3A 5753   5.154   5.223   7.917
  219POPC   C4A 5754   5.196   5.428   7.552
  219POPC   C1B 5755   4.794   4.597   8.904
  219POPC   C2B 5756   4.883   4.567   8.460
  219POPC   C3B 5757   4.999   4.768   8.087
  219POPC   C4B 5758   4.917   4.679   7.667
  220POPC   NC3 5759  15.162  23.388   9.387
  220POPC   PO4 5760  14.802  22.898   9.607
  220POPC   GL1 5761  15.038  22.903   9.174
  220POPC   GL2 5762  14.978  23.186   8.956
  220POPC   C1A 5763  15.095  22.752   8.706
  220POPC   D2A 5764  14.928  22.830   8.292
  220POPC   C3A 5765  15.189  22.842   7.918
  220POPC   C4A 5766  15.572  23.039   7.838
  220POPC   C1B 5767  15.429  23.133   8.798
  220POPC   C2B 5768  15.413  23.073   8.350
  220POPC   C3B 5769  15.143  23.326   8.069
  220POPC   C4B 5770  15.280  23.481   7.689
  221POPC   NC3 5771  37.122  26.542   9.504
  221POPC   PO4 5772  36.910  27.213   9.551
  221POPC   GL1 5773  36.836  26.946   9.200
  221POPC   GL2 5774  37.184  26.899   9.152
  221POPC   C1A 5775  36.771  26.933   8.726
  221POPC   D2A 5776  36.589  27.079   8.305
  221POPC   C3A 5777  36.654  26.767   7.951
  221POPC   C4A 5778  36.857  26.662   7.523
  221POPC   C1B 5779  37.270  26.785   8.742
  221POPC   C2B 5780  37.069  26.608   8.381
  221POPC   C3B 5781  37.302  26.588   8.007
  221POPC   C4B 5782  37.310  26.857   7.686
  222POPC   NC3 5783  20.035   5.732   9.534
  222POPC   PO4 5784  19.425   5.758   9.655
  222POPC   GL1 5785  19.573   5.798   9.212
  222POPC   GL2 5786  19.893   5.578   9.080
  222POPC   C1A 5787  19.560   5.725   8.750
  222POPC   D2A 5788  19.874   5.783   8.432
  222POPC   C3A 5789  19.706   5.840   8.023
  222POPC   C4A 5790  19.600   5.606   7.649
  222POPC   C1B 5791  19.956   6.025   8.913
  222POPC   C2B 5792  20.086   6.260   8.547
  222POPC   C3B 5793  20.092   6.168   8.136
  222POPC   C4B 5794  20.062   6.292   7.734
  223POPC   NC3 5795  12.439  16.258   9.391
  223POPC   PO4 5796  11.993  15.772   9.491
  223POPC   GL1 5797  12.097  15.990   9.125
  223POPC   GL2 5798  12.304  15.760   9.013
  223POPC   C1A 5799  12.095  16.138   8.694
  223POPC   D2A 5800  11.848  15.959   8.349
  223POPC   C3A 5801  11.924  16.077   7.921
  223POPC   C4A 5802  11.772  15.902   7.559
  223POPC   C1B 5803  12.242  15.676   8.584
  223POPC   C2B 5804  12.338  15.943   8.217
  223POPC   C3B 5805  12.416  16.208   7.854
  223POPC   C4B 5806  12.217  16.254   7.426
  224POPC   NC3 5807  13.767  35.848   9.499
  224POPC   PO4 5808  13.447  36.399   9.497
  224POPC   GL1 5809  13.561  36.231   9.113
  224POPC   GL2 5810  13.782  35.965   9.000
  224POPC   C1A 5811  13.730  36.416   8.738
  224POPC   D2A 5812  13.663  36.296   8.331
  224POPC   C3A 5813  13.825  36.478   8.000
  224POPC   C4A 5814  13.721  36.468   7.559
  224POPC   C1B 5815  13.743  35.790   8.590
  224POPC   C2B 5816  13.840  35.832   8.174
  224POPC   C3B 5817  13.661  36.014   7.838
  224POPC   C4B 5818  13.766  35.994   7.398
  225POPC   NC3 5819   2.419   9.987   9.797
  225POPC   PO4 5820   1.905   9.514   9.644
  225POPC   GL1 5821   2.141   9.563   9.198
  225POPC   GL2 5822   2.238   9.865   9.034
  225POPC   C1A 5823   2.113   9.464   8.728
  225POPC   D2A 5824   2.169   9.847   8.481
  225POPC   C3A 5825   2.024   9.917   8.065
  225POPC   C4A 5826   2.144   9.996   7.651
  225POPC   C1B 5827   2.577   9.645   8.743
  225POPC   C2B 5828   2.529   9.415   8.362
  225POPC   C3B 5829   2.183   9.429   8.072
  225POPC   C4B 5830   2.091   9.249   7.661
  226POPC   NC3 5831  35.011   9.096   9.689
  226POPC   PO4 5832  34.331   9.155   9.446
  226POPC   GL1 5833  34.436   8.981   9.035
  226POPC   GL2 5834  34.305   8.686   9.125
  226POPC   C1A 5835  34.708   9.055   8.618
  226POPC   D2A 5836  34.865   9.246   8.198
  226POPC   C3A 5837  34.678   9.078   7.825
  226POPC   C4A 5838  34.219   9.047   7.825
  226POPC   C1B 5839  34.408   8.637   8.674
  226POPC   C2B 5840  34.471   8.775   8.238
  226POPC   C3B 5841  34.475   8.596   7.844
  226POPC   C4B 5842  34.565   8.749   7.440
  227POPC   NC3 5843  29.249  28.861   9.449
  227POPC   PO4 5844  28.848  29.442   9.621
  227POPC   GL1 5845  28.879  29.203   9.256
  227POPC   GL2 5846  29.140  29.454   9.199
  227POPC   C1A 5847  29.071  29.078   8.833
  227POPC   D2A 5848  29.066  29.278   8.431
  227POPC   C3A 5849  28.813  29.033   8.158
  227POPC   C4A 5850  28.989  28.761   7.837
  227POPC   C1B 5851  29.276  29.594   8.820
  227POPC   C2B 5852  29.457  29.678   8.413
  227POPC   C3B 5853  29.363  29.555   8.011
  227POPC   C4B 5854  29.127  29.263   7.781
  228POPC   NC3 5855   2.478   0.612   9.409
  228POPC   PO4 5856   2.854   0.001   9.428
  228POPC   GL1 5857   2.781   0.275   9.112
  228POPC   GL2 5858   2.455   0.201   9.121
  228POPC   C1A 5859   2.909   0.299   8.665
  228POPC   D2A 5860   3.174   0.515   8.320
  228POPC   C3A 5861   2.862   0.638   8.013
  228POPC   C4A 5862   2.611   0.259   7.874
  228POPC   C1B 5863   2.404   0.428   8.753
  228POPC   C2B 5864   2.452   0.600   8.342
  228POPC   C3B 5865   2.353   0.685   7.915
  228POPC   C4B 5866   2.426   0.945   7.603
  229POPC   NC3 5867   1.834  19.260   9.428
  229POPC   PO4 5868   2.044  18.685   9.482
  229POPC   GL1 5869   1.902  18.860   9.117
  229POPC   GL2 5870   1.642  18.713   9.042
  229POPC   C1A 5871   1.924  19.173   8.779
  229POPC   D2A 5872   2.025  19.447   8.438
  229POPC   C3A 5873   1.918  19.267   8.035
  229POPC   C4A 5874   1.764  19.239   7.635
  229POPC   C1B 5875   1.732  18.745   8.595
  229POPC   C2B 5876   1.764  18.795   8.150
  229POPC   C3B 5877   1.846  18.738   7.689
  229POPC   C4B 5878   1.614  18.717   7.269
  230POPC   NC3 5879  38.975  22.247   9.613
  230POPC   PO4 5880  39.611  22.340   9.464
  230POPC   GL1 5881  39.525  22.345   9.042
  230POPC   GL2 5882  39.297  22.102   9.041
  230POPC   C1A 5883  39.294  22.338   8.589
  230POPC   D2A 5884  39.146  21.964   8.306
  230POPC   C3A 5885  38.888  22.062   7.956
  230POPC   C4A 5886  39.026  22.455   7.769
  230POPC   C1B 5887  39.652  22.005   8.705
  230POPC   C2B 5888  39.658  22.024   8.242
  230POPC   C3B 5889  39.408  22.120   7.865
  230POPC   C4B 5890  39.426  22.214   7.409
  231POPC   NC3 5891  17.022   6.662   9.557
  231POPC   PO4 5892  16.428   6.478   9.463
  231POPC   GL1 5893  16.711   6.629   9.164
  231POPC   GL2 5894  16.903   6.331   9.177
  231POPC   C1A 5895  16.979   6.742   8.820
  231POPC   D2A 5896  16.952   6.584   8.402
  231POPC   C3A 5897  16.946   6.842   8.065
  231POPC   C4A 5898  16.522   6.865   7.810
  231POPC   C1B 5899  16.762   6.281   8.769
  231POPC   C2B 5900  16.405   6.238   8.504
  231POPC   C3B 5901  16.470   6.495   8.171
  231POPC   C4B 5902  16.775   6.421   7.861
  232POPC   NC3 5903   6.834  33.905   9.275
  232POPC   PO4 5904   6.302  33.392   9.393
  232POPC   GL1 5905   6.547  33.529   9.054
  232POPC   GL2 5906   6.919  33.454   9.046
  232POPC   C1A 5907   6.369  33.779   8.712
  232POPC   D2A 5908   6.139  33.882   8.352
  232POPC   C3A 5909   6.389  33.663   8.051
  232POPC   C4A 5910   6.591  33.784   7.667
  232POPC   C1B 5911   6.887  33.710   8.661
  232POPC   C2B 5912   6.856  33.676   8.229
  232POPC   C3B 5913   7.059  33.755   7.868
  232POPC   C4B 5914   7.023  34.041   7.553
  233POPC   NC3 5915  28.836  25.089   9.412
  233POPC   PO4 5916  29.357  25.501   9.466
  233POPC   GL1 5917  29.225  25.322   9.091
  233POPC   GL2 5918  29.015  25.599   8.994
  233POPC   C1A 5919  28.988  25.090   8.766
  233POPC   D2A 5920  28.730  25.207   8.422
  233POPC   C3A 5921  29.007  25.212   8.065
  233POPC   C4A 5922  29.083  25.455   7.701
  233POPC   C1B 5923  29.309  25.568   8.625
  233POPC   C2B 5924  29.339  25.601   8.165
  233POPC   C3B 5925  29.590  25.449   7.820
  233POPC   C4B 5926  29.559  25.448   7.354
  234POPC   NC3 5927  43.118  28.975   9.487
  234POPC   PO4 5928  42.553  29.308   9.694
  234POPC   GL1 5929  42.705  29.072   9.217
  234POPC   GL2 5930  43.062  29.236   9.065
  234POPC   C1A 5931  42.714  29.115   8.738
  234POPC   D2A 5932  43.101  29.197   8.505
  234POPC   C3A 5933  43.030  29.378   8.120
  234POPC   C4A 5934  43.040  29.253   7.694
  234POPC   C1B 5935  43.306  28.872   8.849
  234POPC   C2B 5936  43.483  28.805   8.434
  234POPC   C3B 5937  43.380  28.978   8.020
  234POPC   C4B 5938  43.506  29.063   7.589
  235POPC   NC3 5939  24.850  24.301   9.469
  235POPC   PO4 5940  24.189  24.570   9.367
  235POPC   GL1 5941  24.561  24.586   9.098
  235POPC   GL2 5942  24.558  24.275   9.057
  235POPC   C1A 5943  24.764  24.524   8.688
  235POPC   D2A 5944  24.571  24.324   8.378
  235POPC   C3A 5945  24.701  24.442   8.001
  235POPC   C4A 5946  24.985  24.393   7.717
  235POPC   C1B 5947  24.229  24.297   8.777
  235POPC   C2B 5948  24.036  24.381   8.411
  235POPC   C3B 5949  24.196  24.398   8.020
  235POPC   C4B 5950  24.167  24.567   7.633
  236POPC   NC3 5951  11.739  35.037   9.796
  236POPC   PO4 5952  12.330  35.198   9.610
  236POPC   GL1 5953  12.036  35.177   9.305
  236POPC   GL2 5954  12.315  35.179   9.096
  236POPC   C1A 5955  11.858  35.306   8.897
  236POPC   D2A 5956  11.883  35.172   8.460
  236POPC   C3A 5957  12.075  35.386   8.104
  236POPC   C4A 5958  12.072  35.236   7.681
  236POPC   C1B 5959  12.556  35.064   8.763
  236POPC   C2B 5960  12.410  35.116   8.366
  236POPC   C3B 5961  12.217  34.881   8.068
  236POPC   C4B 5962  12.480  34.880   7.729
  237POPC   NC3 5963  29.079  38.140   9.552
  237POPC   PO4 5964  29.486  38.603   9.544
  237POPC   GL1 5965  29.254  38.473   9.191
  237POPC   GL2 5966  28.917  38.400   9.148
  237POPC   C1A 5967  29.305  38.581   8.781
  237POPC   D2A 5968  29.116  38.622   8.380
  237POPC   C3A 5969  29.370  38.521   8.030
  237POPC   C4A 5970  29.252  38.643   7.627
  237POPC   C1B 5971  28.929  38.218   8.707
  237POPC   C2B 5972  29.114  38.109   8.276
  237POPC   C3B 5973  29.081  38.160   7.819
  237POPC   C4B 5974  28.888  38.088   7.400
  238POPC   NC3 5975  15.686  15.266   9.327
  238POPC   PO4 5976  16.197  14.903   9.492
  238POPC   GL1 5977  16.015  14.973   9.090
  238POPC   GL2 5978  16.066  15.318   8.974
  238POPC   C1A 5979  15.734  14.993   8.714
  238POPC   D2A 5980  15.698  14.982   8.250
  238POPC   C3A 5981  16.075  14.921   7.926
  238POPC   C4A 5982  16.168  14.810   7.461
  238POPC   C1B 5983  15.771  15.539   8.697
  238POPC   C2B 5984  15.518  15.725   8.342
  238POPC   C3B 5985  15.619  15.640   7.893
  238POPC   C4B 5986  16.026  15.403   7.715
  239POPC   NC3 5987  10.516  34.818   9.358
  239POPC   PO4 5988  10.748  34.234   9.219
  239POPC   GL1 5989  10.457  34.424   8.989
  239POPC   GL2 5990  10.301  34.759   8.913
  239POPC   C1A 5991  10.460  34.335   8.596
  239POPC   D2A 5992  10.492  34.499   8.238
  239POPC   C3A 5993  10.613  34.279   7.914
  239POPC   C4A 5994  10.464  34.373   7.521
  239POPC   C1B 5995  10.657  34.849   8.653
  239POPC   C2B 5996  10.641  34.987   8.224
  239POPC   C3B 5997  10.482  34.806   7.820
  239POPC   C4B 5998  10.048  34.882   7.690
  240POPC   NC3 5999   5.174   2.299   9.618
  240POPC   PO4 6000   4.677   1.871   9.475
  240POPC   GL1 6001   4.996   1.963   9.207
  240POPC   GL2 6002   4.774   1.971   8.974
  240POPC   C1A 6003   5.252   1.882   8.816
  240POPC   D2A 6004   5.431   2.112   8.464
  240POPC   C3A 6005   5.370   1.976   8.047
  240POPC   C4A 6006   5.451   2.294   7.755
  240POPC   C1B 6007   4.664   2.153   8.650
  240POPC   C2B 6008   4.916   2.105   8.352
  240POPC   C3B 6009   4.841   2.079   7.947
  240POPC   C4B 6010   5.073   1.958   7.605
  241POPC   NC3 6011  32.946  28.765   9.264
  241POPC   PO4 6012  33.336  29.204   9.409
  241POPC   GL1 6013  32.996  29.256   9.180
  241POPC   GL2 6014  33.201  29.070   8.931
  241POPC   C1A 6015  32.782  29.286   8.775
  241POPC   D2A 6016  32.890  29.038   8.421
  241POPC   C3A 6017  32.703  29.135   8.042
  241POPC   C4A 6018  32.779  29.086   7.601
  241POPC   C1B 6019  33.520  28.872   8.718
  241POPC   C2B 6020  33.482  28.898   8.284
  241POPC   C3B 6021  33.186  29.001   7.987
  241POPC   C4B 6022  32.981  28.659   7.792
  242POPC   NC3 6023   5.487  32.640   9.448
  242POPC   PO4 6024   5.025  33.173   9.639
  242POPC   GL1 6025   5.087  33.150   9.199
  242POPC   GL2 6026   5.147  32.795   9.082
  242POPC   C1A 6027   4.939  33.209   8.783
  242POPC   D2A 6028   4.906  33.007   8.375
  242POPC   C3A 6029   5.058  33.186   7.993
  242POPC   C4A 6030   4.940  33.177   7.580
  242POPC   C1B 6031   5.387  32.566   8.737
  242POPC   C2B 6032   5.574  32.527   8.329
  242POPC   C3B 6033   5.593  32.687   7.923
  242POPC   C4B 6034   5.370  32.915   7.660
  243POPC   NC3 6035  24.692  43.682   9.442
  243POPC   PO4 6036  24.065  43.974   9.510
  243POPC   GL1 6037  24.258  43.770   9.173
  243POPC   GL2 6038  24.451  44.064   9.118
  243POPC   C1A 6039  24.368  43.784   8.724
  243POPC   D2A 6040  24.423  44.011   8.395
  243POPC   C3A 6041  24.302  43.768   8.068
  243POPC   C4A 6042  24.596  43.754   7.777
  243POPC   C1B 6043  24.101  44.228   8.837
  243POPC   C2B 6044  24.101  44.393   8.407
  243POPC   C3B 6045  24.300  44.296   7.984
  243POPC   C4B 6046  24.165  44.039   7.642
  244POPC   NC3 6047  19.512  27.970   9.530
  244POPC   PO4 6048  19.893  28.565   9.548
  244POPC   GL1 6049  19.788  28.585   9.126
  244POPC   GL2 6050  19.813  28.220   9.053
  244POPC   C1A 6051  19.886  28.640   8.711
  244POPC   D2A 6052  20.146  28.313   8.549
  244POPC   C3A 6053  20.183  28.157   8.126
  244POPC   C4A 6054  20.156  28.347   7.728
  244POPC   C1B 6055  19.662  28.108   8.655
  244POPC   C2B 6056  19.357  28.262   8.351
  244POPC   C3B 6057  19.410  28.533   7.987
  244POPC   C4B 6058  19.654  28.407   7.615
  245POPC   NC3 6059  33.179  43.603   9.343
  245POPC   PO4 6060  32.891  44.197   9.491
  245POPC   GL1 6061  33.139  44.101   9.139
  245POPC   GL2 6062  33.014  43.881   8.974
  245POPC   C1A 6063  33.386  44.241   8.762
  245POPC   D2A 6064  33.548  44.070   8.348
  245POPC   C3A 6065  33.307  43.734   8.109
  245POPC   C4A 6066  33.040  43.863   7.744
  245POPC   C1B 6067  32.743  44.030   8.748
  245POPC   C2B 6068  32.916  43.862   8.427
  245POPC   C3B 6069  32.722  43.811   8.112
  245POPC   C4B 6070  32.486  43.913   7.802
  246POPC   NC3 6071  17.473  23.979   9.454
  246POPC   PO4 6072  17.397  23.288   9.319
  246POPC   GL1 6073  17.662  23.620   9.089
  246POPC   GL2 6074  17.652  24.036   8.999
  246POPC   C1A 6075  17.836  23.690   8.688
  246POPC   D2A 6076  17.625  23.851   8.344
  246POPC   C3A 6077  17.723  23.566   8.043
  246POPC   C4A 6078  17.489  23.432   7.722
  246POPC   C1B 6079  17.292  23.797   8.780
  246POPC   C2B 6080  16.956  23.722   8.463
  246POPC   C3B 6081  17.103  23.717   8.040
  246POPC   C4B 6082  17.429  23.922   7.828
  247POPC   NC3 6083  30.669  25.079   9.516
  247POPC   PO4 6084  30.324  25.755   9.487
  247POPC   GL1 6085  30.564  25.457   9.165
  247POPC   GL2 6086  30.887  25.264   9.084
  247POPC   C1A 6087  30.737  25.623   8.765
  247POPC   D2A 6088  30.999  25.681   8.423
  247POPC   C3A 6089  30.710  25.639   8.102
  247POPC   C4A 6090  30.760  25.569   7.684
  247POPC   C1B 6091  30.613  25.120   8.754
  247POPC   C2B 6092  30.658  25.017   8.336
  247POPC   C3B 6093  30.603  25.160   7.915
  247POPC   C4B 6094  30.747  25.099   7.469
  248POPC   NC3 6095   6.557   0.068   9.486
  248POPC   PO4 6096   7.159  44.752   9.430
  248POPC   GL1 6097   6.855  44.801   9.125
  248POPC   GL2 6098   6.552  44.604   9.196
  248POPC   C1A 6099   6.886  44.696   8.697
  248POPC   D2A 6100   6.865  44.800   8.268
  248POPC   C3A 6101   6.640  44.500   8.012
  248POPC   C4A 6102   6.683  44.314   7.596
  248POPC   C1B 6103   6.416  44.861   8.840
  248POPC   C2B 6104   6.358  44.813   8.405
  248POPC   C3B 6105   6.413  44.946   7.986
  248POPC   C4B 6106   6.143   0.003   7.682
  249POPC   NC3 6107  18.673  25.988   9.459
  249POPC   PO4 6108  18.037  26.199   9.651
  249POPC   GL1 6109  18.221  26.031   9.243
  249POPC   GL2 6110  18.400  26.217   9.042
  249POPC   C1A 6111  18.334  25.772   8.837
  249POPC   D2A 6112  18.278  25.933   8.445
  249POPC   C3A 6113  18.397  25.832   8.043
  249POPC   C4A 6114  18.229  26.039   7.688
  249POPC   C1B 6115  18.611  26.292   8.668
  249POPC   C2B 6116  18.698  26.204   8.229
  249POPC   C3B 6117  18.687  26.390   7.827
  249POPC   C4B 6118  18.732  26.275   7.380
  250POPC   NC3 6119  35.810  21.363   9.470
  250POPC   PO4 6120  36.489  21.464   9.353
  250POPC   GL1 6121  36.100  21.583   9.095
  250POPC   GL2 6122  35.798  21.775   9.137
  250POPC   C1A 6123  35.875  21.415   8.756
  250POPC   D2A 6124  36.047  21.475   8.388
  250POPC   C3A 6125  36.198  21.196   8.084
  250POPC   C4A 6126  36.468  21.229   7.707
  250POPC   C1B 6127  35.864  21.956   8.718
  250POPC   C2B 6128  35.726  21.935   8.293
  250POPC   C3B 6129  35.909  21.665   7.953
  250POPC   C4B 6130  35.952  21.363   7.649
  251POPC   NC3 6131  32.208   9.409   9.519
  251POPC   PO4 6132  32.514   8.679   9.565
  251POPC   GL1 6133  32.334   8.897   9.186
  251POPC   GL2 6134  32.094   9.194   9.045
  251POPC   C1A 6135  32.286   8.751   8.788
  251POPC   D2A 6136  32.088   8.679   8.393
  251POPC   C3A 6137  32.379   8.677   8.045
  251POPC   C4A 6138  32.093   8.809   7.754
  251POPC   C1B 6139  32.492   9.264   8.854
  251POPC   C2B 6140  32.506   9.066   8.451
  251POPC   C3B 6141  32.203   9.160   8.141
  251POPC   C4B 6142  32.469   9.188   7.800
  252POPC   NC3 6143  16.366  21.287   9.512
  252POPC   PO4 6144  16.895  21.665   9.455
  252POPC   GL1 6145  16.679  21.463   9.123
  252POPC   GL2 6146  16.652  21.090   9.133
  252POPC   C1A 6147  16.664  21.361   8.701
  252POPC   D2A 6148  16.593  21.561   8.358
  252POPC   C3A 6149  16.660  21.401   8.015
  252POPC   C4A 6150  16.567  21.623   7.688
  252POPC   C1B 6151  16.474  20.901   8.748
  252POPC   C2B 6152  16.474  21.023   8.327
  252POPC   C3B 6153  16.309  21.006   7.940
  252POPC   C4B 6154  16.551  21.107   7.611
  253POPC   NC3 6155   2.842  37.180   9.823
  253POPC   PO4 6156   2.490  37.565   9.408
  253POPC   GL1 6157   2.634  37.821   9.052
  253POPC   GL2 6158   2.964  37.803   9.221
  253POPC   C1A 6159   2.624  37.819   8.566
  253POPC   D2A 6160   2.636  37.430   8.269
  253POPC   C3A 6161   2.638  37.583   7.832
  253POPC   C4A 6162   2.690  37.983   7.702
  253POPC   C1B 6163   3.027  37.622   8.793
  253POPC   C2B 6164   3.101  37.677   8.356
  253POPC   C3B 6165   3.085  37.418   8.015
  253POPC   C4B 6166   2.964  37.227   7.634
  254POPC   NC3 6167  27.903   1.839   9.433
  254POPC   PO4 6168  27.341   2.314   9.552
  254POPC   GL1 6169  27.641   2.266   9.243
  254POPC   GL2 6170  27.489   1.933   9.132
  254POPC   C1A 6171  27.800   2.197   8.833
  254POPC   D2A 6172  27.778   1.989   8.446
  254POPC   C3A 6173  27.920   2.267   8.144
  254POPC   C4A 6174  27.756   2.281   7.737
  254POPC   C1B 6175  27.668   1.637   8.819
  254POPC   C2B 6176  27.723   1.425   8.424
  254POPC   C3B 6177  27.721   1.497   7.993
  254POPC   C4B 6178  27.968   1.814   7.833
  255POPC   NC3 6179  16.839  20.310   9.386
  255POPC   PO4 6180  16.346  20.829   9.442
  255POPC   GL1 6181  16.489  20.547   9.105
  255POPC   GL2 6182  16.847  20.635   9.009
  255POPC   C1A 6183  16.579  20.374   8.695
  255POPC   D2A 6184  16.797  20.604   8.396
  255POPC   C3A 6185  16.576  20.533   8.033
  255POPC   C4A 6186  16.535  20.589   7.597
  255POPC   C1B 6187  17.000  20.964   8.783
  255POPC   C2B 6188  16.969  21.118   8.352
  255POPC   C3B 6189  16.909  20.933   7.952
  255POPC   C4B 6190  17.109  20.563   7.774
  256POPC   NC3 6191  44.328  21.476   9.278
  256POPC   PO4 6192  44.911  21.418   9.555
  256POPC   GL1 6193  44.854  21.315   9.173
  256POPC   GL2 6194  44.645  21.073   9.167
  256POPC   C1A 6195  44.738  21.431   8.781
  256POPC   D2A 6196  44.946  21.346   8.443
  256POPC   C3A 6197  44.834  21.500   8.056
  256POPC   C4A 6198  44.982  21.254   7.735
  256POPC   C1B 6199  44.537  20.967   8.692
  256POPC   C2B 6200  44.409  21.285   8.402
  256POPC   C3B 6201  44.334  21.371   7.972
  256POPC   C4B 6202  44.231  21.175   7.613
  257POPC   NC3 6203  15.268   5.414   9.593
  257POPC   PO4 6204  14.766   5.046   9.391
  257POPC   GL1 6205  14.900   5.125   9.068
  257POPC   GL2 6206  15.239   5.156   9.139
  257POPC   C1A 6207  14.793   5.017   8.676
  257POPC   D2A 6208  15.045   5.035   8.319
  257POPC   C3A 6209  14.870   5.072   7.909
  257POPC   C4A 6210  14.970   4.934   7.469
  257POPC   C1B 6211  15.203   5.330   8.720
  257POPC   C2B 6212  15.285   5.512   8.314
  257POPC   C3B 6213  15.219   5.450   7.888
  257POPC   C4B 6214  15.618   5.381   7.698
  258POPC   NC3 6215  18.537   7.286   9.615
  258POPC   PO4 6216  18.159   6.746   9.420
  258POPC   GL1 6217  18.259   6.606   9.066
  258POPC   GL2 6218  17.913   6.551   8.970
  258POPC   C1A 6219  18.556   6.704   8.768
  258POPC   D2A 6220  18.386   6.736   8.354
  258POPC   C3A 6221  18.567   6.564   7.974
  258POPC   C4A 6222  18.495   6.865   7.702
  258POPC   C1B 6223  17.927   6.564   8.517
  258POPC   C2B 6224  17.887   6.598   8.070
  258POPC   C3B 6225  17.814   6.714   7.639
  258POPC   C4B 6226  17.813   6.539   7.207
  259POPC   NC3 6227   7.486   7.533   9.653
  259POPC   PO4 6228   7.823   7.976   9.288
  259POPC   GL1 6229   7.420   7.726   9.165
  259POPC   GL2 6230   7.357   7.333   9.183
  259POPC   C1A 6231   7.390   7.571   8.744
  259POPC   D2A 6232   7.553   7.665   8.352
  259POPC   C3A 6233   7.270   7.596   8.040
  259POPC   C4A 6234   7.455   7.554   7.643
  259POPC   C1B 6235   7.063   7.170   8.894
  259POPC   C2B 6236   7.098   7.197   8.455
  259POPC   C3B 6237   7.087   7.015   8.057
  259POPC   C4B 6238   7.048   7.253   7.701
  260POPC   NC3 6239   9.328  28.091   9.566
  260POPC   PO4 6240   8.904  28.590   9.358
  260POPC   GL1 6241   9.277  28.459   9.164
  260POPC   GL2 6242   9.147  28.146   9.087
  260POPC   C1A 6243   9.289  28.504   8.715
  260POPC   D2A 6244   9.071  28.772   8.410
  260POPC   C3A 6245   9.158  28.615   8.010
  260POPC   C4A 6246   9.162  28.513   7.590
  260POPC   C1B 6247   8.855  28.183   8.742
  260POPC   C2B 6248   8.956  28.248   8.315
  260POPC   C3B 6249   8.905  28.160   7.882
  260POPC   C4B 6250   8.734  27.846   7.608
  261POPC   NC3 6251  23.459  11.811   9.438
  261POPC   PO4 6252  23.570  12.406   9.333
  261POPC   GL1 6253  23.657  12.119   9.032
  261POPC   GL2 6254  23.945  11.914   9.083
  261POPC   C1A 6255  23.633  12.296   8.635
  261POPC   D2A 6256  23.343  12.348   8.322
  261POPC   C3A 6257  23.558  12.162   7.995
  261POPC   C4A 6258  23.469  12.010   7.645
  261POPC   C1B 6259  23.906  11.858   8.659
  261POPC   C2B 6260  23.976  12.136   8.292
  261POPC   C3B 6261  24.040  12.271   7.868
  261POPC   C4B 6262  23.940  11.856   7.726
  262POPC   NC3 6263  33.704  41.605   9.648
  262POPC   PO4 6264  34.312  41.300   9.539
  262POPC   GL1 6265  34.019  41.422   9.208
  262POPC   GL2 6266  33.669  41.277   9.254
  262POPC   C1A 6267  33.994  41.720   8.850
  262POPC   D2A 6268  34.013  41.893   8.408
  262POPC   C3A 6269  34.147  41.659   8.051
  262POPC   C4A 6270  34.053  41.326   7.737
  262POPC   C1B 6271  33.648  41.336   8.815
  262POPC   C2B 6272  33.811  41.391   8.398
  262POPC   C3B 6273  33.648  41.528   7.998
  262POPC   C4B 6274  33.549  41.324   7.618
  263POPC   NC3 6275  30.584  26.799   9.708
  263POPC   PO4 6276  31.202  27.097   9.582
  263POPC   GL1 6277  30.918  26.833   9.331
  263POPC   GL2 6278  31.047  26.608   9.150
  263POPC   C1A 6279  30.589  26.780   8.994
  263POPC   D2A 6280  30.569  26.960   8.570
  263POPC   C3A 6281  30.462  26.823   8.137
  263POPC   C4A 6282  30.410  26.736   7.738
  263POPC   C1B 6283  31.034  26.723   8.724
  263POPC   C2B 6284  30.877  26.591   8.314
  263POPC   C3B 6285  31.056  26.632   7.910
  263POPC   C4B 6286  30.898  26.761   7.552
  264POPC   NC3 6287  13.879   5.741   9.513
  264POPC   PO4 6288  13.405   6.213   9.514
  264POPC   GL1 6289  13.686   6.074   9.161
  264POPC   GL2 6290  13.631   5.701   9.076
  264POPC   C1A 6291  13.783   6.037   8.718
  264POPC   D2A 6292  13.544   5.829   8.348
  264POPC   C3A 6293  13.639   6.052   7.947
  264POPC   C4A 6294  13.737   6.011   7.494
  264POPC   C1B 6295  13.786   5.543   8.700
  264POPC   C2B 6296  14.006   5.540   8.279
  264POPC   C3B 6297  13.886   5.613   7.827
  264POPC   C4B 6298  13.902   5.580   7.323
  265POPC   NC3 6299  40.524  29.061   9.520
  265POPC   PO4 6300  41.213  29.074   9.580
  265POPC   GL1 6301  41.119  28.961   9.137
  265POPC   GL2 6302  40.842  29.156   9.152
  265POPC   C1A 6303  41.057  29.113   8.714
  265POPC   D2A 6304  40.808  29.078   8.415
  265POPC   C3A 6305  41.028  29.043   8.085
  265POPC   C4A 6306  41.103  29.369   7.809
  265POPC   C1B 6307  40.603  28.922   8.874
  265POPC   C2B 6308  40.410  28.776   8.502
  265POPC   C3B 6309  40.524  28.764   8.063
  265POPC   C4B 6310  40.629  29.095   7.792
  266POPC   NC3 6311  15.701   6.011   9.479
  266POPC   PO4 6312  14.985   5.818   9.510
  266POPC   GL1 6313  15.106   5.641   9.128
  266POPC   GL2 6314  15.486   5.620   9.149
  266POPC   C1A 6315  15.081   5.823   8.709
  266POPC   D2A 6316  15.035   6.146   8.422
  266POPC   C3A 6317  15.040   5.968   8.003
  266POPC   C4A 6318  15.034   6.243   7.598
  266POPC   C1B 6319  15.586   5.703   8.706
  266POPC   C2B 6320  15.508   5.972   8.333
  266POPC   C3B 6321  15.529   5.855   7.897
  266POPC   C4B 6322  15.288   5.823   7.517
  267POPC   NC3 6323  11.619  15.514   9.415
  267POPC   PO4 6324  10.965  15.344   9.446
  267POPC   GL1 6325  11.285  15.192   9.132
  267POPC   GL2 6326  11.469  14.863   9.104
  267POPC   C1A 6327  11.337  15.225   8.692
  267POPC   D2A 6328  11.127  15.259   8.288
  267POPC   C3A 6329  11.458  15.273   7.931
  267POPC   C4A 6330  11.404  15.512   7.576
  267POPC   C1B 6331  11.512  14.724   8.694
  267POPC   C2B 6332  11.506  14.887   8.274
  267POPC   C3B 6333  11.141  14.874   7.956
  267POPC   C4B 6334  11.169  14.958   7.519
  268POPC   NC3 6335  35.622  35.111   9.504
  268POPC   PO4 6336  34.995  35.216   9.537
  268POPC   GL1 6337  35.262  35.359   9.140
  268POPC   GL2 6338  35.613  35.494   9.132
  268POPC   C1A 6339  35.278  35.486   8.674
  268POPC   D2A 6340  35.062  35.509   8.261
  268POPC   C3A 6341  35.150  35.141   7.966
  268POPC   C4A 6342  35.535  35.151   7.701
  268POPC   C1B 6343  35.646  35.161   8.820
  268POPC   C2B 6344  35.472  35.083   8.394
  268POPC   C3B 6345  35.572  35.417   8.132
  268POPC   C4B 6346  35.776  35.617   7.782
  269POPC   NC3 6347  29.486  35.786   9.532
  269POPC   PO4 6348  28.989  36.206   9.607
  269POPC   GL1 6349  29.158  36.052   9.206
  269POPC   GL2 6350  29.428  36.221   9.093
  269POPC   C1A 6351  29.234  35.861   8.768
  269POPC   D2A 6352  28.960  35.971   8.427
  269POPC   C3A 6353  29.127  35.977   7.993
  269POPC   C4A 6354  29.229  35.730   7.668
  269POPC   C1B 6355  29.323  36.354   8.687
  269POPC   C2B 6356  29.455  36.141   8.324
  269POPC   C3B 6357  29.531  36.301   7.899
  269POPC   C4B 6358  29.566  36.456   7.464
  270POPC   NC3 6359   4.929  31.021   9.459
  270POPC   PO4 6360   5.147  30.375   9.493
  270POPC   GL1 6361   5.288  30.694   9.169
  270POPC   GL2 6362   5.060  30.949   8.982
  270POPC   C1A 6363   5.255  30.540   8.743
  270POPC   D2A 6364   5.231  30.734   8.371
  270POPC   C3A 6365   5.110  30.509   8.020
  270POPC   C4A 6366   4.957  30.777   7.746
  270POPC   C1B 6367   5.456  31.025   8.757
  270POPC   C2B 6368   5.606  31.076   8.300
  270POPC   C3B 6369   5.464  31.086   7.829
  270POPC   C4B 6370   5.645  30.993   7.400
  271POPC   NC3 6371   2.810  42.208   9.415
  271POPC   PO4 6372   2.696  42.927   9.491
  271POPC   GL1 6373   2.778  42.646   9.148
  271POPC   GL2 6374   2.981  42.795   8.914
  271POPC   C1A 6375   2.950  42.319   8.803
  271POPC   D2A 6376   2.944  42.440   8.371
  271POPC   C3A 6377   2.755  42.084   8.189
  271POPC   C4A 6378   2.818  41.959   7.794
  271POPC   C1B 6379   2.555  42.601   8.706
  271POPC   C2B 6380   2.408  42.482   8.300
  271POPC   C3B 6381   2.587  42.462   7.888
  271POPC   C4B 6382   2.621  42.566   7.467
  272POPC   NC3 6383   3.795  40.058   9.555
  272POPC   PO4 6384   3.693  39.455   9.424
  272POPC   GL1 6385   3.663  39.807   9.110
  272POPC   GL2 6386   3.475  40.139   9.176
  272POPC   C1A 6387   3.489  39.959   8.711
  272POPC   D2A 6388   3.292  39.972   8.325
  272POPC   C3A 6389   3.606  39.994   8.041
  272POPC   C4A 6390   3.520  39.799   7.696
  272POPC   C1B 6391   3.298  40.414   8.861
  272POPC   C2B 6392   3.118  40.427   8.430
  272POPC   C3B 6393   3.238  40.379   7.988
  272POPC   C4B 6394   3.190  40.517   7.553
  273POPC   NC3 6395  14.202  43.922   9.501
  273POPC   PO4 6396  14.826  44.389   9.552
  273POPC   GL1 6397  14.712  44.000   9.257
  273POPC   GL2 6398  14.404  43.860   9.054
  273POPC   C1A 6399  14.778  44.030   8.782
  273POPC   D2A 6400  14.552  44.080   8.391
  273POPC   C3A 6401  14.574  43.995   7.968
  273POPC   C4A 6402  14.556  44.252   7.633
  273POPC   C1B 6403  14.210  44.155   8.754
  273POPC   C2B 6404  13.978  44.139   8.333
  273POPC   C3B 6405  14.028  43.978   7.892
  273POPC   C4B 6406  13.956  43.670   7.519
  274POPC   NC3 6407  23.710   7.248   9.439
  274POPC   PO4 6408  23.132   7.691   9.445
  274POPC   GL1 6409  23.473   7.670   9.090
  274POPC   GL2 6410  23.648   7.372   8.971
  274POPC   C1A 6411  23.623   7.747   8.660
  274POPC   D2A 6412  23.570   7.521   8.281
  274POPC   C3A 6413  23.657   7.721   7.882
  274POPC   C4A 6414  23.841   7.540   7.503
  274POPC   C1B 6415  23.916   7.290   8.620
  274POPC   C2B 6416  23.983   7.230   8.158
  274POPC   C3B 6417  23.687   7.201   7.863
  274POPC   C4B 6418  23.308   7.224   7.664
  275POPC   NC3 6419   3.850  19.047   9.574
  275POPC   PO4 6420   3.295  19.008   9.303
  275POPC   GL1 6421   3.455  18.998   8.953
  275POPC   GL2 6422   3.825  19.034   9.072
  275POPC   C1A 6423   3.337  18.701   8.653
  275POPC   D2A 6424   3.441  18.669   8.232
  275POPC   C3A 6425   3.239  18.981   7.992
  275POPC   C4A 6426   3.273  19.228   7.627
  275POPC   C1B 6427   3.831  19.202   8.709
  275POPC   C2B 6428   3.543  19.135   8.415
  275POPC   C3B 6429   3.704  19.196   8.028
  275POPC   C4B 6430   3.706  18.972   7.718
  276POPC   NC3 6431  34.581  23.248   9.517
  276POPC   PO4 6432  34.802  23.840   9.530
  276POPC   GL1 6433  34.506  23.699   9.207
  276POPC   GL2 6434  34.297  23.982   9.122
  276POPC   C1A 6435  34.384  23.556   8.778
  276POPC   D2A 6436  34.289  23.574   8.333
  276POPC   C3A 6437  34.553  23.349   8.054
  276POPC   C4A 6438  34.771  23.238   7.661
  276POPC   C1B 6439  34.443  24.084   8.702
  276POPC   C2B 6440  34.594  24.056   8.284
  276POPC   C3B 6441  34.737  23.909   7.908
  276POPC   C4B 6442  34.493  23.652   7.666
  277POPC   NC3 6443  12.680   7.142   9.645
  277POPC   PO4 6444  12.757   7.810   9.556
  277POPC   GL1 6445  12.795   7.533   9.242
  277POPC   GL2 6446  12.496   7.392   9.239
  277POPC   C1A 6447  12.855   7.423   8.829
  277POPC   D2A 6448  13.107   7.292   8.497
  277POPC   C3A 6449  13.033   7.484   8.110
  277POPC   C4A 6450  12.942   7.651   7.691
  277POPC   C1B 6451  12.387   7.181   8.887
  277POPC   C2B 6452  12.578   7.167   8.488
  277POPC   C3B 6453  12.555   7.316   8.076
  277POPC   C4B 6454  12.844   7.148   7.759
  278POPC   NC3 6455  33.303  23.843   9.525
  278POPC   PO4 6456  32.678  23.459   9.540
  278POPC   GL1 6457  32.805  23.519   9.106
  278POPC   GL2 6458  33.089  23.759   9.076
  278POPC   C1A 6459  33.015  23.460   8.688
  278POPC   D2A 6460  33.155  23.683   8.345
  278POPC   C3A 6461  33.015  23.571   7.934
  278POPC   C4A 6462  33.290  23.371   7.675
  278POPC   C1B 6463  33.007  24.068   8.746
  278POPC   C2B 6464  32.867  24.126   8.323
  278POPC   C3B 6465  32.971  24.104   7.882
  278POPC   C4B 6466  33.036  24.202   7.441
  279POPC   NC3 6467   6.493  13.221   9.513
  279POPC   PO4 6468   7.092  12.905   9.782
  279POPC   GL1 6469   6.924  12.988   9.328
  279POPC   GL2 6470   6.671  12.766   9.238
  279POPC   C1A 6471   6.859  13.004   8.833
  279POPC   D2A 6472   6.807  12.779   8.406
  279POPC   C3A 6473   6.888  12.969   7.977
  279POPC   C4A 6474   6.946  12.792   7.540
  279POPC   C1B 6475   6.408  12.738   8.829
  279POPC   C2B 6476   6.292  12.864   8.402
  279POPC   C3B 6477   6.378  12.804   7.968
  279POPC   C4B 6478   6.459  12.938   7.533
  280POPC   NC3 6479  29.522  26.897   9.353
  280POPC   PO4 6480  30.209  26.990   9.528
  280POPC   GL1 6481  30.013  26.876   9.145
  280POPC   GL2 6482  29.825  26.559   9.138
  280POPC   C1A 6483  29.843  26.947   8.740
  280POPC   D2A 6484  30.045  26.889   8.388
  280POPC   C3A 6485  29.905  26.955   7.963
  280POPC   C4A 6486  30.004  26.908   7.512
  280POPC   C1B 6487  29.537  26.563   8.723
  280POPC   C2B 6488  29.624  26.625   8.276
  280POPC   C3B 6489  29.627  26.408   7.861
  280POPC   C4B 6490  29.711  26.474   7.385
  281POPC   NC3 6491  39.849  40.335   9.597
  281POPC   PO4 6492  39.745  39.612   9.525
  281POPC   GL1 6493  39.979  39.890   9.172
  281POPC   GL2 6494  40.165  40.266   9.212
  281POPC   C1A 6495  39.969  39.809   8.695
  281POPC   D2A 6496  39.793  39.782   8.234
  281POPC   C3A 6497  40.036  39.899   7.848
  281POPC   C4A 6498  39.990  40.207   7.513
  281POPC   C1B 6499  40.306  40.200   8.797
  281POPC   C2B 6500  40.440  39.929   8.478
  281POPC   C3B 6501  40.415  40.135   8.119
  281POPC   C4B 6502  40.392  40.325   7.733
  282POPC   NC3 6503  14.842  15.793   9.421
  282POPC   PO4 6504  14.172  16.022   9.418
  282POPC   GL1 6505  14.413  15.815   9.143
  282POPC   GL2 6506  14.641  16.141   9.108
  282POPC   C1A 6507  14.292  15.569   8.790
  282POPC   D2A 6508  14.087  15.587   8.415
  282POPC   C3A 6509  14.290  15.687   8.040
  282POPC   C4A 6510  14.128  15.634   7.650
  282POPC   C1B 6511  14.591  16.009   8.714
  282POPC   C2B 6512  14.314  16.066   8.401
  282POPC   C3B 6513  14.298  16.205   7.961
  282POPC   C4B 6514  14.525  16.043   7.622
  283POPC   NC3 6515  25.915  22.945   9.415
  283POPC   PO4 6516  25.981  23.589   9.403
  283POPC   GL1 6517  26.240  23.258   9.132
  283POPC   GL2 6518  26.287  22.868   9.094
  283POPC   C1A 6519  26.343  23.157   8.686
  283POPC   D2A 6520  26.327  23.314   8.248
  283POPC   C3A 6521  26.245  23.079   7.896
  283POPC   C4A 6522  25.833  23.092   7.723
  283POPC   C1B 6523  26.078  22.705   8.739
  283POPC   C2B 6524  26.117  22.827   8.314
  283POPC   C3B 6525  25.991  22.588   7.913
  283POPC   C4B 6526  25.805  22.423   7.518
  284POPC   NC3 6527  38.676  28.145   9.503
  284POPC   PO4 6528  38.758  28.855   9.396
  284POPC   GL1 6529  38.589  28.669   9.041
  284POPC   GL2 6530  38.413  28.397   9.116
  284POPC   C1A 6531  38.421  28.678   8.656
  284POPC   D2A 6532  38.539  28.799   8.275
  284POPC   C3A 6533  38.793  28.469   8.098
  284POPC   C4A 6534  38.770  28.344   7.673
  284POPC   C1B 6535  38.382  28.160   8.729
  284POPC   C2B 6536  38.333  28.300   8.298
  284POPC   C3B 6537  38.325  28.474   7.877
  284POPC   C4B 6538  38.308  28.204   7.507
  285POPC   NC3 6539  43.472  16.596   9.667
  285POPC   PO4 6540  44.206  16.632   9.483
  285POPC   GL1 6541  43.987  16.769   9.058
  285POPC   GL2 6542  43.693  16.565   8.926
  285POPC   C1A 6543  44.058  16.708   8.609
  285POPC   D2A 6544  44.105  16.985   8.269
  285POPC   C3A 6545  44.124  16.810   7.860
  285POPC   C4A 6546  44.239  17.035   7.495
  285POPC   C1B 6547  43.552  16.921   8.745
  285POPC   C2B 6548  43.611  17.086   8.377
  285POPC   C3B 6549  43.650  16.963   7.974
  285POPC   C4B 6550  43.341  17.029   7.686
  286POPC   NC3 6551  17.993  13.888   9.612
  286POPC   PO4 6552  18.219  13.196   9.424
  286POPC   GL1 6553  18.360  13.435   9.093
  286POPC   GL2 6554  18.226  13.765   9.169
  286POPC   C1A 6555  18.323  13.350   8.678
  286POPC   D2A 6556  18.436  13.544   8.328
  286POPC   C3A 6557  18.445  13.353   7.947
  286POPC   C4A 6558  18.267  13.629   7.687
  286POPC   C1B 6559  18.433  13.846   8.785
  286POPC   C2B 6560  18.666  13.983   8.408
  286POPC   C3B 6561  18.471  14.015   8.015
  286POPC   C4B 6562  18.331  14.114   7.608
  287POPC   NC3 6563   2.671  23.331   9.498
  287POPC   PO4 6564   3.015  23.912   9.474
  287POPC   GL1 6565   2.840  23.680   9.135
  287POPC   GL2 6566   2.839  23.985   8.958
  287POPC   C1A 6567   2.423  23.525   8.935
  287POPC   D2A 6568   2.252  23.304   8.574
  287POPC   C3A 6569   2.508  23.409   8.233
  287POPC   C4A 6570   2.632  23.517   7.821
  287POPC   C1B 6571   2.741  23.749   8.593
  287POPC   C2B 6572   2.892  23.786   8.170
  287POPC   C3B 6573   2.953  23.997   7.771
  287POPC   C4B 6574   3.072  24.148   7.370
  288POPC   NC3 6575  36.322  34.770   9.535
  288POPC   PO4 6576  35.975  35.411   9.492
  288POPC   GL1 6577  36.274  35.467   9.146
  288POPC   GL2 6578  36.516  35.210   9.276
  288POPC   C1A 6579  36.198  35.445   8.675
  288POPC   D2A 6580  35.985  35.133   8.386
  288POPC   C3A 6581  36.049  35.196   7.944
  288POPC   C4A 6582  36.264  35.524   7.705
  288POPC   C1B 6583  36.641  35.214   8.818
  288POPC   C2B 6584  36.550  35.178   8.351
  288POPC   C3B 6585  36.632  35.198   7.882
  288POPC   C4B 6586  36.616  35.286   7.402
  289POPC   NC3 6587  44.666  35.662   9.395
  289POPC   PO4 6588  44.265  35.115   9.424
  289POPC   GL1 6589  44.444  35.257   9.042
  289POPC   GL2 6590  44.793  35.360   9.007
  289POPC   C1A 6591  44.553  35.168   8.595
  289POPC   D2A 6592  44.647  35.068   8.182
  289POPC   C3A 6593  44.583  35.297   7.832
  289POPC   C4A 6594  44.345  35.145   7.413
  289POPC   C1B 6595  44.548  35.661   8.707
  289POPC   C2B 6596  44.691  35.589   8.272
  289POPC   C3B 6597  44.981  35.623   7.920
  289POPC   C4B 6598  44.795  35.667   7.505
  290POPC   NC3 6599  10.068  28.701   9.551
  290POPC   PO4 6600   9.669  29.230   9.424
  290POPC   GL1 6601   9.752  28.921   9.147
  290POPC   GL2 6602  10.035  29.128   9.090
  290POPC   C1A 6603   9.592  28.921   8.722
  290POPC   D2A 6604   9.661  28.798   8.293
  290POPC   C3A 6605   9.719  29.176   8.018
  290POPC   C4A 6606   9.554  29.228   7.590
  290POPC   C1B 6607  10.122  28.889   8.754
  290POPC   C2B 6608  10.182  28.993   8.356
  290POPC   C3B 6609  10.098  28.833   7.982
  290POPC   C4B 6610   9.998  28.984   7.617
  291POPC   NC3 6611   4.839  25.696   9.447
  291POPC   PO4 6612   5.466  25.961   9.467
  291POPC   GL1 6613   5.229  25.803   9.094
  291POPC   GL2 6614   4.984  26.051   9.076
  291POPC   C1A 6615   5.023  25.764   8.653
  291POPC   D2A 6616   4.851  25.776   8.198
  291POPC   C3A 6617   5.130  25.887   7.824
  291POPC   C4A 6618   5.080  25.876   7.371
  291POPC   C1B 6619   5.173  26.295   8.743
  291POPC   C2B 6620   5.163  26.185   8.306
  291POPC   C3B 6621   4.893  26.292   7.982
  291POPC   C4B 6622   4.978  26.352   7.545
  292POPC   NC3 6623   8.911  12.576   9.445
  292POPC   PO4 6624   9.315  13.069   9.496
  292POPC   GL1 6625   9.035  12.935   9.114
  292POPC   GL2 6626   8.706  13.034   9.166
  292POPC   C1A 6627   8.823  12.705   8.736
  292POPC   D2A 6628   8.829  12.465   8.320
  292POPC   C3A 6629   9.041  12.548   7.935
  292POPC   C4A 6630   9.230  12.899   7.808
  292POPC   C1B 6631   8.752  13.210   8.750
  292POPC   C2B 6632   8.929  13.052   8.370
  292POPC   C3B 6633   8.743  12.974   7.998
  292POPC   C4B 6634   8.541  12.606   7.849
  293POPC   NC3 6635  30.732   0.017   9.435
  293POPC   PO4 6636  30.967   0.695   9.712
  293POPC   GL1 6637  30.850   0.793   9.255
  293POPC   GL2 6638  30.826   0.438   9.146
  293POPC   C1A 6639  30.872   0.770   8.779
  293POPC   D2A 6640  30.880   0.464   8.385
  293POPC   C3A 6641  30.869   0.633   7.943
  293POPC   C4A 6642  30.757   0.594   7.494
  293POPC   C1B 6643  30.601   0.259   8.776
  293POPC   C2B 6644  30.405   0.163   8.377
  293POPC   C3B 6645  30.525   0.245   7.960
  293POPC   C4B 6646  30.893   0.168   7.723
  294POPC   NC3 6647  40.932  16.721   9.498
  294POPC   PO4 6648  40.219  16.813   9.474
  294POPC   GL1 6649  40.593  16.742   9.124
  294POPC   GL2 6650  40.914  16.961   9.057
  294POPC   C1A 6651  40.769  16.627   8.681
  294POPC   D2A 6652  40.861  16.816   8.239
  294POPC   C3A 6653  40.934  16.516   7.894
  294POPC   C4A 6654  40.707  16.388   7.501
  294POPC   C1B 6655  40.664  17.110   8.736
  294POPC   C2B 6656  40.475  17.122   8.369
  294POPC   C3B 6657  40.613  17.240   7.967
  294POPC   C4B 6658  40.750  16.942   7.688
  295POPC   NC3 6659  40.556  10.674   9.347
  295POPC   PO4 6660  40.009  10.257   9.501
  295POPC   GL1 6661  39.895  10.564   9.164
  295POPC   GL2 6662  40.200  10.671   8.961
  295POPC   C1A 6663  39.686  10.572   8.768
  295POPC   D2A 6664  39.701  10.329   8.398
  295POPC   C3A 6665  39.890  10.553   8.063
  295POPC   C4A 6666  39.805  10.621   7.625
  295POPC   C1B 6667  40.175  10.542   8.533
  295POPC   C2B 6668  40.220  10.121   8.404
  295POPC   C3B 6669  40.282   9.965   8.012
  295POPC   C4B 6670  40.042  10.174   7.725
  296POPC   NC3 6671  11.133  39.137   9.447
  296POPC   PO4 6672  11.792  39.190   9.611
  296POPC   GL1 6673  11.624  39.343   9.156
  296POPC   GL2 6674  11.419  39.069   9.057
  296POPC   C1A 6675  11.450  39.372   8.668
  296POPC   D2A 6676  11.667  39.191   8.292
  296POPC   C3A 6677  11.558  39.403   7.901
  296POPC   C4A 6678  11.147  39.294   7.619
  296POPC   C1B 6679  11.520  38.877   8.709
  296POPC   C2B 6680  11.346  38.801   8.331
  296POPC   C3B 6681  11.363  38.934   7.920
  296POPC   C4B 6682  11.177  38.784   7.571
  297POPC   NC3 6683  11.766  24.167   9.439
  297POPC   PO4 6684  11.801  24.795   9.393
  297POPC   GL1 6685  12.097  24.598   9.134
  297POPC   GL2 6686  12.189  24.235   9.129
  297POPC   C1A 6687  12.047  24.556   8.714
  297POPC   D2A 6688  12.244  24.689   8.384
  297POPC   C3A 6689  12.175  24.522   8.020
  297POPC   C4A 6690  12.111  24.648   7.634
  297POPC   C1B 6691  11.961  24.066   8.757
  297POPC   C2B 6692  11.859  24.237   8.344
  297POPC   C3B 6693  11.836  24.128   7.918
  297POPC   C4B 6694  12.076  24.132   7.534
  298POPC   NC3 6695  37.676  41.739   9.586
  298POPC   PO4 6696  37.393  41.143   9.488
  298POPC   GL1 6697  37.397  41.397   9.133
  298POPC   GL2 6698  37.725  41.446   9.181
  298POPC   C1A 6699  37.435  41.567   8.715
  298POPC   D2A 6700  37.328  41.787   8.312
  298POPC   C3A 6701  37.448  41.597   7.901
  298POPC   C4A 6702  37.425  41.708   7.441
  298POPC   C1B 6703  37.879  41.727   8.897
  298POPC   C2B 6704  37.839  41.777   8.452
  298POPC   C3B 6705  38.019  41.680   8.050
  298POPC   C4B 6706  37.909  41.660   7.626
  299POPC   NC3 6707   5.291  27.275   9.559
  299POPC   PO4 6708   5.311  27.920   9.727
  299POPC   GL1 6709   5.182  27.710   9.312
  299POPC   GL2 6710   4.920  27.417   9.241
  299POPC   C1A 6711   5.252  27.559   8.876
  299POPC   D2A 6712   5.146  27.700   8.475
  299POPC   C3A 6713   5.260  27.583   8.052
  299POPC   C4A 6714   4.930  27.700   7.772
  299POPC   C1B 6715   4.866  27.219   8.824
  299POPC   C2B 6716   5.036  27.191   8.401
  299POPC   C3B 6717   4.849  27.248   7.988
  299POPC   C4B 6718   4.917  27.253   7.527
  300POPC   NC3 6719   3.751   9.367   9.425
  300POPC   PO4 6720   3.489   8.776   9.648
  300POPC   GL1 6721   3.513   8.960   9.227
  300POPC   GL2 6722   3.293   9.283   9.225
  300POPC   C1A 6723   3.613   8.913   8.782
  300POPC   D2A 6724   3.245   8.886   8.533
  300POPC   C3A 6725   3.305   8.961   8.112
  300POPC   C4A 6726   3.652   8.951   7.849
  300POPC   C1B 6727   3.378   9.356   8.808
  300POPC   C2B 6728   3.556   9.316   8.408
  300POPC   C3B 6729   3.385   9.460   8.030
  300POPC   C4B 6730   3.286   9.261   7.646
  301POPC   NC3 6731  14.459  14.707   9.393
  301POPC   PO4 6732  14.560  15.384   9.446
  301POPC   GL1 6733  14.501  15.143   9.091
  301POPC   GL2 6734  14.146  15.176   9.090
  301POPC   C1A 6735  14.602  15.026   8.663
  301POPC   D2A 6736  14.389  15.169   8.307
  301POPC   C3A 6737  14.581  15.256   7.954
  301POPC   C4A 6738  14.625  15.534   7.639
  301POPC   C1B 6739  14.019  15.103   8.662
  301POPC   C2B 6740  14.034  14.815   8.305
  301POPC   C3B 6741  14.233  14.867   7.890
  301POPC   C4B 6742  14.418  15.047   7.503
  302POPC   NC3 6743  10.759   7.869   9.547
  302POPC   PO4 6744  10.320   8.348   9.641
  302POPC   GL1 6745  10.426   8.121   9.240
  302POPC   GL2 6746  10.802   8.182   9.156
  302POPC   C1A 6747  10.463   8.209   8.787
  302POPC   D2A 6748  10.340   8.427   8.402
  302POPC   C3A 6749  10.193   8.179   8.050
  302POPC   C4A 6750  10.488   8.021   7.755
  302POPC   C1B 6751  10.984   8.328   8.763
  302POPC   C2B 6752  10.929   8.119   8.375
  302POPC   C3B 6753  10.849   8.292   7.993
  302POPC   C4B 6754  10.488   8.562   7.861
  303POPC   NC3 6755  12.541  25.971   9.467
  303POPC   PO4 6756  13.137  25.671   9.550
  303POPC   GL1 6757  12.960  25.927   9.204
  303POPC   GL2 6758  12.614  25.817   8.992
  303POPC   C1A 6759  13.038  26.047   8.825
  303POPC   D2A 6760  12.969  25.850   8.466
  303POPC   C3A 6761  13.216  25.957   8.117
  303POPC   C4A 6762  12.928  25.783   7.837
  303POPC   C1B 6763  12.531  26.199   8.873
  303POPC   C2B 6764  12.612  26.251   8.512
  303POPC   C3B 6765  12.682  26.115   8.142
  303POPC   C4B 6766  12.568  26.242   7.768
  304POPC   NC3 6767  13.180  19.858   9.350
  304POPC   PO4 6768  12.597  20.048   9.478
  304POPC   GL1 6769  12.781  20.146   9.055
  304POPC   GL2 6770  12.877  19.812   8.929
  304POPC   C1A 6771  13.051  20.226   8.685
  304POPC   D2A 6772  12.991  19.935   8.361
  304POPC   C3A 6773  13.087  19.996   7.935
  304POPC   C4A 6774  12.759  19.788   7.710
  304POPC   C1B 6775  13.303  19.730   8.720
  304POPC   C2B 6776  13.490  19.752   8.302
  304POPC   C3B 6777  13.434  19.479   7.920
  304POPC   C4B 6778  13.214  19.634   7.511
  305POPC   NC3 6779  33.259  15.472   9.521
  305POPC   PO4 6780  32.852  14.921   9.407
  305POPC   GL1 6781  32.925  15.207   9.068
  305POPC   GL2 6782  33.271  15.161   9.057
  305POPC   C1A 6783  32.775  15.497   8.710
  305POPC   D2A 6784  32.552  15.472   8.303
  305POPC   C3A 6785  32.733  15.566   7.895
  305POPC   C4A 6786  32.616  15.374   7.480
  305POPC   C1B 6787  33.097  15.098   8.607
  305POPC   C2B 6788  33.037  15.240   8.182
  305POPC   C3B 6789  33.049  15.210   7.718
  305POPC   C4B 6790  33.314  14.948   7.491
  306POPC   NC3 6791  24.882  42.185   9.575
  306POPC   PO4 6792  25.435  42.441   9.572
  306POPC   GL1 6793  25.244  42.334   9.171
  306POPC   GL2 6794  25.593  42.131   9.162
  306POPC   C1A 6795  25.121  42.552   8.725
  306POPC   D2A 6796  25.371  42.797   8.362
  306POPC   C3A 6797  25.446  42.605   7.931
  306POPC   C4A 6798  25.167  42.484   7.586
  306POPC   C1B 6799  25.503  42.219   8.751
  306POPC   C2B 6800  25.392  42.249   8.359
  306POPC   C3B 6801  25.424  41.928   8.094
  306POPC   C4B 6802  25.407  42.072   7.692
  307POPC   NC3 6803   8.470  19.792   9.769
  307POPC   PO4 6804   8.933  20.096   9.442
  307POPC   GL1 6805   8.904  19.936   9.044
  307POPC   GL2 6806   9.214  20.059   8.919
  307POPC   C1A 6807   8.767  19.950   8.632
  307POPC   D2A 6808   9.014  19.966   8.257
  307POPC   C3A 6809   8.750  19.975   7.885
  307POPC   C4A 6810   8.889  19.874   7.470
  307POPC   C1B 6811   9.175  19.642   8.696
  307POPC   C2B 6812   9.148  19.421   8.295
  307POPC   C3B 6813   9.112  19.577   7.869
  307POPC   C4B 6814   9.337  19.642   7.449
  308POPC   NC3 6815  34.187  42.480   9.616
  308POPC   PO4 6816  33.656  42.053   9.582
  308POPC   GL1 6817  33.967  42.154   9.212
  308POPC   GL2 6818  34.060  42.526   9.122
  308POPC   C1A 6819  33.866  42.240   8.756
  308POPC   D2A 6820  34.054  42.414   8.358
  308POPC   C3A 6821  33.959  42.222   7.957
  308POPC   C4A 6822  33.567  42.259   7.689
  308POPC   C1B 6823  34.243  42.756   8.750
  308POPC   C2B 6824  34.267  42.877   8.310
  308POPC   C3B 6825  34.203  42.699   7.890
  308POPC   C4B 6826  34.178  42.899   7.478
  309POPC   NC3 6827  31.382  11.720   9.312
  309POPC   PO4 6828  31.540  12.193   9.795
  309POPC   GL1 6829  31.486  12.272   9.320
  309POPC   GL2 6830  31.740  12.071   9.166
  309POPC   C1A 6831  31.356  12.185   8.855
  309POPC   D2A 6832  31.505  11.952   8.491
  309POPC   C3A 6833  31.224  11.892   8.167
  309POPC   C4A 6834  31.360  11.927   7.759
  309POPC   C1B 6835  31.909  11.816   8.799
  309POPC   C2B 6836  32.027  11.849   8.388
  309POPC   C3B 6837  31.801  11.786   8.013
  309POPC   C4B 6838  32.022  11.761   7.625
  310POPC   NC3 6839   2.318  33.974   9.629
  310POPC   PO4 6840   1.726  33.720   9.386
  310POPC   GL1 6841   1.998  33.534   9.084
  310POPC   GL2 6842   2.284  33.513   9.320
  310POPC   C1A 6843   2.040  33.611   8.649
  310POPC   D2A 6844   2.127  33.951   8.373
  310POPC   C3A 6845   1.891  34.002   7.990
  310POPC   C4A 6846   2.140  33.991   7.583
  310POPC   C1B 6847   2.496  33.620   8.952
  310POPC   C2B 6848   2.532  33.595   8.526
  310POPC   C3B 6849   2.318  33.558   8.142
  310POPC   C4B 6850   2.037  33.538   7.802
  311POPC   NC3 6851   0.615  16.669   9.401
  311POPC   PO4 6852   0.109  17.035   9.635
  311POPC   GL1 6853   0.094  16.787   9.234
  311POPC   GL2 6854   0.206  16.425   9.148
  311POPC   C1A 6855   0.279  16.845   8.828
  311POPC   D2A 6856   0.299  16.636   8.437
  311POPC   C3A 6857   0.378  16.919   8.109
  311POPC   C4A 6858   0.440  16.803   7.694
  311POPC   C1B 6859   0.556  16.386   8.830
  311POPC   C2B 6860   0.779  16.384   8.428
  311POPC   C3B 6861   0.596  16.434   8.025
  311POPC   C4B 6862   0.417  16.298   7.631
  312POPC   NC3 6863  43.206  22.729   9.426
  312POPC   PO4 6864  42.623  23.171   9.473
  312POPC   GL1 6865  42.834  22.988   9.136
  312POPC   GL2 6866  42.653  23.117   8.877
  312POPC   C1A 6867  43.178  23.070   8.802
  312POPC   D2A 6868  43.290  23.340   8.440
  312POPC   C3A 6869  43.165  23.169   8.030
  312POPC   C4A 6870  43.316  22.832   7.748
  312POPC   C1B 6871  42.821  22.717   8.692
  312POPC   C2B 6872  42.996  22.749   8.294
  312POPC   C3B 6873  42.830  22.778   7.883
  312POPC   C4B 6874  42.929  22.576   7.494
  313POPC   NC3 6875   4.464  27.381   9.507
  313POPC   PO4 6876   4.706  27.886   9.250
  313POPC   GL1 6877   4.446  27.556   9.052
  313POPC   GL2 6878   4.070  27.521   9.110
  313POPC   C1A 6879   4.391  27.336   8.711
  313POPC   D2A 6880   4.638  27.517   8.403
  313POPC   C3A 6881   4.391  27.489   8.060
  313POPC   C4A 6882   4.462  27.455   7.653
  313POPC   C1B 6883   4.165  27.777   8.704
  313POPC   C2B 6884   4.376  27.967   8.372
  313POPC   C3B 6885   4.176  27.956   8.008
  313POPC   C4B 6886   3.960  27.652   7.761
  314POPC   NC3 6887  21.584  29.399   9.544
  314POPC   PO4 6888  20.972  29.368   9.341
  314POPC   GL1 6889  21.349  29.235   9.131
  314POPC   GL2 6890  21.689  29.506   9.071
  314POPC   C1A 6891  21.254  28.970   8.792
  314POPC   D2A 6892  20.957  28.907   8.426
  314POPC   C3A 6893  21.238  28.999   8.086
  314POPC   C4A 6894  21.541  29.163   7.791
  314POPC   C1B 6895  21.364  29.586   8.789
  314POPC   C2B 6896  21.213  29.378   8.440
  314POPC   C3B 6897  21.257  29.522   8.030
  314POPC   C4B 6898  21.160  29.453   7.611
  315POPC   NC3 6899  30.077  14.733   9.430
  315POPC   PO4 6900  29.760  14.072   9.431
  315POPC   GL1 6901  29.858  14.308   9.087
  315POPC   GL2 6902  29.663  14.620   9.128
  315POPC   C1A 6903  29.950  14.176   8.658
  315POPC   D2A 6904  29.738  14.050   8.297
  315POPC   C3A 6905  29.813  14.268   7.948
  315POPC   C4A 6906  30.204  14.379   7.781
  315POPC   C1B 6907  29.862  14.682   8.735
  315POPC   C2B 6908  29.783  14.590   8.334
  315POPC   C3B 6909  30.011  14.774   8.002
  315POPC   C4B 6910  30.287  14.873   7.662
  316POPC   NC3 6911  34.228   4.075   9.409
  316POPC   PO4 6912  34.827   4.067   9.730
  316POPC   GL1 6913  34.708   4.133   9.223
  316POPC   GL2 6914  34.471   4.424   9.136
  316POPC   C1A 6915  34.940   4.292   8.795
  316POPC   D2A 6916  35.098   4.263   8.378
  316POPC   C3A 6917  34.829   4.323   7.997
  316POPC   C4A 6918  34.731   4.249   7.555
  316POPC   C1B 6919  34.451   4.185   8.775
  316POPC   C2B 6920  34.496   4.398   8.413
  316POPC   C3B 6921  34.317   4.247   8.095
  316POPC   C4B 6922  34.241   4.314   7.733
  317POPC   NC3 6923  29.666  37.450   9.662
  317POPC   PO4 6924  30.163  37.956   9.608
  317POPC   GL1 6925  29.987  37.951   9.205
  317POPC   GL2 6926  30.224  38.247   9.152
  317POPC   C1A 6927  29.780  37.716   8.816
  317POPC   D2A 6928  29.763  37.497   8.380
  317POPC   C3A 6929  29.870  37.665   7.960
  317POPC   C4A 6930  30.068  37.449   7.614
  317POPC   C1B 6931  30.018  38.176   8.768
  317POPC   C2B 6932  29.996  37.970   8.410
  317POPC   C3B 6933  30.159  38.074   8.056
  317POPC   C4B 6934  30.226  37.951   7.665
  318POPC   NC3 6935  18.864  25.026   9.268
  318POPC   PO4 6936  19.466  25.109   9.623
  318POPC   GL1 6937  19.378  25.259   9.172
  318POPC   GL2 6938  19.069  25.458   9.075
  318POPC   C1A 6939  19.245  25.112   8.724
  318POPC   D2A 6940  18.976  25.145   8.322
  318POPC   C3A 6941  19.184  25.280   7.935
  318POPC   C4A 6942  19.174  25.586   7.604
  318POPC   C1B 6943  18.691  25.364   8.770
  318POPC   C2B 6944  18.473  25.150   8.458
  318POPC   C3B 6945  18.492  25.315   8.064
  318POPC   C4B 6946  18.729  25.357   7.712
  319POPC   NC3 6947   9.687  30.501   9.594
  319POPC   PO4 6948  10.094  30.870   9.293
  319POPC   GL1 6949   9.782  30.598   9.109
  319POPC   GL2 6950   9.481  30.806   9.228
  319POPC   C1A 6951   9.676  30.403   8.695
  319POPC   D2A 6952   9.477  30.595   8.328
  319POPC   C3A 6953   9.745  30.645   7.987
  319POPC   C4A 6954  10.155  30.506   7.885
  319POPC   C1B 6955   9.538  30.890   8.795
  319POPC   C2B 6956   9.699  31.065   8.426
  319POPC   C3B 6957   9.483  31.106   8.045
  319POPC   C4B 6958   9.585  31.035   7.591
  320POPC   NC3 6959  31.728  10.788   9.415
  320POPC   PO4 6960  31.186  10.459   9.442
  320POPC   GL1 6961  31.298  10.596   9.093
  320POPC   GL2 6962  31.605  10.454   9.061
  320POPC   C1A 6963  31.278  10.368   8.688
  320POPC   D2A 6964  31.482  10.199   8.337
  320POPC   C3A 6965  31.189  10.170   8.031
  320POPC   C4A 6966  31.248  10.311   7.632
  320POPC   C1B 6967  31.601  10.800   8.742
  320POPC   C2B 6968  31.420  10.712   8.326
  320POPC   C3B 6969  31.571  10.547   7.964
  320POPC   C4B 6970  31.722  10.772   7.668
  321POPC   NC3 6971  27.172  23.121   9.453
  321POPC   PO4 6972  26.541  23.341   9.542
  321POPC   GL1 6973  26.737  23.086   9.175
  321POPC   GL2 6974  26.925  22.772   9.129
  321POPC   C1A 6975  26.860  23.131   8.730
  321POPC   D2A 6976  26.673  22.955   8.355
  321POPC   C3A 6977  26.808  23.021   7.944
  321POPC   C4A 6978  26.625  22.938   7.553
  321POPC   C1B 6979  27.110  22.665   8.709
  321POPC   C2B 6980  27.130  22.728   8.255
  321POPC   C3B 6981  26.959  22.561   7.860
  321POPC   C4B 6982  27.025  22.416   7.456
  322POPC   NC3 6983  27.361   0.307   9.531
  322POPC   PO4 6984  27.985   0.458   9.302
  322POPC   GL1 6985  27.659   0.481   9.047
  322POPC   GL2 6986  27.402   0.224   9.043
  322POPC   C1A 6987  27.630   0.376   8.621
  322POPC   D2A 6988  27.616   0.156   8.298
  322POPC   C3A 6989  27.909   0.393   8.113
  322POPC   C4A 6990  27.898   0.536   7.736
  322POPC   C1B 6991  27.228   0.609   8.818
  322POPC   C2B 6992  27.180   0.742   8.398
  322POPC   C3B 6993  27.371   0.617   8.020
  322POPC   C4B 6994  27.234   0.516   7.627
  323POPC   NC3 6995  37.520  21.332   9.573
  323POPC   PO4 6996  38.147  21.213   9.735
  323POPC   GL1 6997  37.970  21.325   9.283
  323POPC   GL2 6998  37.631  21.431   9.097
  323POPC   C1A 6999  37.988  21.172   8.869
  323POPC   D2A 7000  38.016  21.186   8.422
  323POPC   C3A 7001  37.709  21.424   8.193
  323POPC   C4A 7002  37.575  21.197   7.860
  323POPC   C1B 7003  37.306  21.630   8.796
  323POPC   C2B 7004  37.086  21.577   8.396
  323POPC   C3B 7005  37.141  21.778   7.993
  323POPC   C4B 7006  37.525  21.761   7.817
  324POPC   NC3 7007   9.283  22.448   9.475
  324POPC   PO4 7008   8.605  22.555   9.480
  324POPC   GL1 7009   8.890  22.384   9.160
  324POPC   GL2 7010   8.831  22.087   9.018
  324POPC   C1A 7011   9.127  22.436   8.769
  324POPC   D2A 7012   8.847  22.396   8.434
  324POPC   C3A 7013   8.940  22.222   8.056
  324POPC   C4A 7014   8.805  22.276   7.631
  324POPC   C1B 7015   9.100  21.933   8.726
  324POPC   C2B 7016   9.344  22.082   8.407
  324POPC   C3B 7017   9.363  21.959   7.994
  324POPC   C4B 7018   9.038  21.821   7.725
  325POPC   NC3 7019  22.428   9.198   9.712
  325POPC   PO4 7020  21.920   8.929   9.528
  325POPC   GL1 7021  22.189   8.969   9.159
  325POPC   GL2 7022  22.300   9.280   9.182
  325POPC   C1A 7023  22.141   8.990   8.685
  325POPC   D2A 7024  21.882   9.077   8.343
  325POPC   C3A 7025  21.913   8.877   7.955
  325POPC   C4A 7026  21.939   9.104   7.629
  325POPC   C1B 7027  22.536   9.291   8.785
  325POPC   C2B 7028  22.556   9.158   8.342
  325POPC   C3B 7029  22.377   9.197   7.930
  325POPC   C4B 7030  22.419   9.160   7.489
  326POPC   NC3 7031   7.324  11.502   9.573
  326POPC   PO4 7032   7.563  10.905   9.505
  326POPC   GL1 7033   7.621  11.213   9.188
  326POPC   GL2 7034   7.644  11.585   9.200
  326POPC   C1A 7035   7.643  11.236   8.767
  326POPC   D2A 7036   7.335  11.288   8.446
  326POPC   C3A 7037   7.470  11.279   8.028
  326POPC   C4A 7038   7.139  11.235   7.739
  326POPC   C1B 7039   7.321  11.666   8.839
  326POPC   C2B 7040   7.332  11.802   8.375
  326POPC   C3B 7041   7.211  11.712   7.967
  326POPC   C4B 7042   7.476  11.646   7.635
  327POPC   NC3 7043  15.689  21.915   9.448
  327POPC   PO4 7044  16.147  22.402   9.410
  327POPC   GL1 7045  16.057  22.144   9.074
  327POPC   GL2 7046  16.266  21.869   9.172
  327POPC   C1A 7047  15.748  22.118   8.721
  327POPC   D2A 7048  15.726  21.864   8.344
  327POPC   C3A 7049  15.895  22.103   8.029
  327POPC   C4A 7050  15.723  22.145   7.616
  327POPC   C1B 7051  16.380  21.770   8.808
  327POPC   C2B 7052  16.217  21.903   8.437
  327POPC   C3B 7053  16.379  21.948   8.030
  327POPC   C4B 7054  16.269  22.052   7.631
  328POPC   NC3 7055  34.569  24.247   9.476
  328POPC   PO4 7056  34.860  24.770   9.238
  328POPC   GL1 7057  34.750  24.424   9.008
  328POPC   GL2 7058  34.418  24.480   9.043
  328POPC   C1A 7059  34.804  24.437   8.573
  328POPC   D2A 7060  34.733  24.687   8.211
  328POPC   C3A 7061  34.646  24.446   7.868
  328POPC   C4A 7062  34.756  24.460   7.415
  328POPC   C1B 7063  34.204  24.571   8.710
  328POPC   C2B 7064  34.288  24.465   8.303
  328POPC   C3B 7065  34.150  24.358   7.888
  328POPC   C4B 7066  34.383  24.141   7.566
  329POPC   NC3 7067  31.895  43.940   9.712
  329POPC   PO4 7068  31.263  43.828   9.499
  329POPC   GL1 7069  31.425  44.080   9.157
  329POPC   GL2 7070  31.809  44.108   9.217
  329POPC   C1A 7071  31.257  44.122   8.713
  329POPC   D2A 7072  30.974  44.076   8.329
  329POPC   C3A 7073  31.105  43.923   7.913
  329POPC   C4A 7074  31.195  43.632   7.549
  329POPC   C1B 7075  31.742  43.936   8.782
  329POPC   C2B 7076  31.595  43.921   8.362
  329POPC   C3B 7077  31.559  43.710   7.979
  329POPC   C4B 7078  31.552  44.006   7.618
  330POPC   NC3 7079  30.902   5.868   9.861
  330POPC   PO4 7080  30.602   5.445   9.409
  330POPC   GL1 7081  30.580   5.665   9.008
  330POPC   GL2 7082  30.564   6.018   9.009
  330POPC   C1A 7083  30.816   5.628   8.667
  330POPC   D2A 7084  30.691   5.336   8.414
  330POPC   C3A 7085  30.808   5.537   8.076
  330POPC   C4A 7086  30.624   5.587   7.703
  330POPC   C1B 7087  30.516   6.036   8.598
  330POPC   C2B 7088  30.776   6.082   8.277
  330POPC   C3B 7089  30.895   5.996   7.860
  330POPC   C4B 7090  30.540   6.111   7.584
  331POPC   NC3 7091  26.928  43.028   9.524
  331POPC   PO4 7092  27.667  43.015   9.484
  331POPC   GL1 7093  27.430  42.977   9.087
  331POPC   GL2 7094  27.136  43.171   9.095
  331POPC   C1A 7095  27.354  42.945   8.643
  331POPC   D2A 7096  27.597  43.096   8.282
  331POPC   C3A 7097  27.536  42.847   7.904
  331POPC   C4A 7098  27.690  42.985   7.469
  331POPC   C1B 7099  27.413  43.411   8.852
  331POPC   C2B 7100  27.237  43.422   8.457
  331POPC   C3B 7101  27.315  43.554   8.086
  331POPC   C4B 7102  27.454  43.314   7.772
  332POPC   NC3 7103  32.658  44.673   9.458
  332POPC   PO4 7104  32.064  44.376   9.620
  332POPC   GL1 7105  32.217  44.502   9.206
  332POPC   GL2 7106  32.554  44.313   9.134
  332POPC   C1A 7107  32.126  44.826   8.853
  332POPC   D2A 7108  31.908  44.997   8.473
  332POPC   C3A 7109  32.069  44.913   8.062
  332POPC   C4A 7110  32.249  44.804   7.688
  332POPC   C1B 7111  32.443  44.449   8.741
  332POPC   C2B 7112  32.321  44.612   8.378
  332POPC   C3B 7113  32.295  44.380   7.999
  332POPC   C4B 7114  32.334  44.318   7.570
  333POPC   NC3 7115  21.833   7.645   9.227
  333POPC   PO4 7116  21.303   7.438   9.563
  333POPC   GL1 7117  21.404   7.365   9.126
  333POPC   GL2 7118  21.592   7.065   9.012
  333POPC   C1A 7119  21.244   7.481   8.727
  333POPC   D2A 7120  21.239   7.697   8.332
  333POPC   C3A 7121  21.276   7.427   7.995
  333POPC   C4A 7122  20.997   7.238   7.741
  333POPC   C1B 7123  21.746   7.341   8.692
  333POPC   C2B 7124  21.686   7.462   8.322
  333POPC   C3B 7125  21.755   7.250   7.994
  333POPC   C4B 7126  21.671   7.387   7.633
  334POPC   NC3 7127  11.688   2.164   9.391
  334POPC   PO4 7128  12.362   2.325   9.491
  334POPC   GL1 7129  12.128   2.197   9.144
  334POPC   GL2 7130  11.882   2.475   9.061
  334POPC   C1A 7131  12.021   1.790   8.924
  334POPC   D2A 7132  11.955   1.701   8.486
  334POPC   C3A 7133  12.214   1.631   8.104
  334POPC   C4A 7134  12.048   1.642   7.678
  334POPC   C1B 7135  11.896   2.229   8.668
  334POPC   C2B 7136  12.185   2.132   8.311
  334POPC   C3B 7137  12.139   2.109   7.860
  334POPC   C4B 7138  12.048   2.177   7.414
  335POPC   NC3 7139  11.920  11.665   9.843
  335POPC   PO4 7140  11.876  11.116   9.494
  335POPC   GL1 7141  11.865  11.450   9.190
  335POPC   GL2 7142  12.183  11.424   8.984
  335POPC   C1A 7143  11.734  11.491   8.750
  335POPC   D2A 7144  11.869  11.343   8.364
  335POPC   C3A 7145  11.793  11.646   8.071
  335POPC   C4A 7146  11.905  11.556   7.694
  335POPC   C1B 7147  12.020  11.035   8.760
  335POPC   C2B 7148  12.064  10.857   8.321
  335POPC   C3B 7149  12.010  11.084   7.904
  335POPC   C4B 7150  12.313  11.279   7.582
  336POPC   NC3 7151  17.212  29.973   9.493
  336POPC   PO4 7152  17.787  29.684   9.759
  336POPC   GL1 7153  17.651  29.844   9.309
  336POPC   GL2 7154  17.384  29.629   9.110
  336POPC   C1A 7155  17.567  30.055   8.914
  336POPC   D2A 7156  17.362  29.888   8.536
  336POPC   C3A 7157  17.620  29.946   8.159
  336POPC   C4A 7158  17.427  30.086   7.760
  336POPC   C1B 7159  17.639  29.516   8.751
  336POPC   C2B 7160  17.536  29.444   8.323
  336POPC   C3B 7161  17.563  29.499   7.890
  336POPC   C4B 7162  17.655  29.677   7.534
  337POPC   NC3 7163  17.144  18.188   9.496
  337POPC   PO4 7164  16.430  18.229   9.487
  337POPC   GL1 7165  16.589  18.406   9.123
  337POPC   GL2 7166  16.790  18.114   9.085
  337POPC   C1A 7167  16.657  18.412   8.677
  337POPC   D2A 7168  16.852  18.688   8.377
  337POPC   C3A 7169  16.691  18.489   8.020
  337POPC   C4A 7170  16.747  18.282   7.658
  337POPC   C1B 7171  16.541  17.899   8.742
  337POPC   C2B 7172  16.515  18.002   8.286
  337POPC   C3B 7173  16.432  17.877   7.840
  337POPC   C4B 7174  16.496  17.940   7.383
  338POPC   NC3 7175  40.101  37.305   9.553
  338POPC   PO4 7176  39.811  36.643   9.436
  338POPC   GL1 7177  40.058  36.945   9.173
  338POPC   GL2 7178  39.838  37.226   9.069
  338POPC   C1A 7179  40.231  37.088   8.775
  338POPC   D2A 7180  40.031  37.160   8.363
  338POPC   C3A 7181  40.193  36.978   7.971
  338POPC   C4A 7182  40.262  37.014   7.512
  338POPC   C1B 7183  39.738  36.857   8.782
  338POPC   C2B 7184  39.713  36.517   8.452
  338POPC   C3B 7185  39.655  36.654   8.003
  338POPC   C4B 7186  39.762  36.882   7.638
  339POPC   NC3 7187   7.125   8.936   9.906
  339POPC   PO4 7188   7.428   9.482   9.594
  339POPC   GL1 7189   7.467   9.095   9.301
  339POPC   GL2 7190   7.192   8.840   9.263
  339POPC   C1A 7191   7.616   8.952   8.881
  339POPC   D2A 7192   7.710   9.155   8.501
  339POPC   C3A 7193   7.594   9.120   8.068
  339POPC   C4A 7194   7.577   8.918   7.665
  339POPC   C1B 7195   7.119   8.925   8.822
  339POPC   C2B 7196   7.259   8.902   8.405
  339POPC   C3B 7197   7.118   8.898   7.969
  339POPC   C4B 7198   7.118   8.707   7.542
  340POPC   NC3 7199  10.622  37.243   9.439
  340POPC   PO4 7200  10.201  36.732   9.488
  340POPC   GL1 7201  10.452  36.848   9.132
  340POPC   GL2 7202  10.262  37.143   9.083
  340POPC   C1A 7203  10.696  36.694   8.756
  340POPC   D2A 7204  11.010  36.642   8.403
  340POPC   C3A 7205  10.833  36.779   8.010
  340POPC   C4A 7206  10.432  36.789   7.804
  340POPC   C1B 7207  10.227  36.932   8.674
  340POPC   C2B 7208  10.225  36.977   8.234
  340POPC   C3B 7209  10.350  37.273   7.919
  340POPC   C4B 7210  10.389  37.213   7.424
  341POPC   NC3 7211  27.121  39.904   9.504
  341POPC   PO4 7212  26.471  39.561   9.521
  341POPC   GL1 7213  26.784  39.690   9.171
  341POPC   GL2 7214  27.128  39.592   9.091
  341POPC   C1A 7215  26.886  39.958   8.797
  341POPC   D2A 7216  26.849  39.934   8.333
  341POPC   C3A 7217  26.646  40.333   8.159
  341POPC   C4A 7218  26.462  40.420   7.752
  341POPC   C1B 7219  27.149  39.530   8.662
  341POPC   C2B 7220  27.279  39.657   8.255
  341POPC   C3B 7221  27.064  39.747   7.882
  341POPC   C4B 7222  27.209  39.796   7.484
  342POPC   NC3 7223  26.428   1.678   9.395
  342POPC   PO4 7224  25.730   1.664   9.483
  342POPC   GL1 7225  25.866   1.863   9.088
  342POPC   GL2 7226  26.119   2.115   9.171
  342POPC   C1A 7227  25.793   2.185   8.761
  342POPC   D2A 7228  25.997   2.260   8.399
  342POPC   C3A 7229  25.784   2.186   8.040
  342POPC   C4A 7230  25.901   2.266   7.631
  342POPC   C1B 7231  26.271   1.979   8.765
  342POPC   C2B 7232  26.346   1.868   8.343
  342POPC   C3B 7233  26.295   2.114   7.969
  342POPC   C4B 7234  26.473   2.132   7.572
  343POPC   NC3 7235  31.776  43.072   9.229
  343POPC   PO4 7236  31.304  43.047   9.740
  343POPC   GL1 7237  31.116  43.259   9.192
  343POPC   GL2 7238  31.411  43.307   8.992
  343POPC   C1A 7239  31.043  43.082   8.731
  343POPC   D2A 7240  31.433  42.992   8.468
  343POPC   C3A 7241  31.436  43.113   8.042
  343POPC   C4A 7242  31.271  42.862   7.705
  343POPC   C1B 7243  31.585  43.471   8.628
  343POPC   C2B 7244  31.899  43.481   8.314
  343POPC   C3B 7245  31.980  43.119   8.042
  343POPC   C4B 7246  31.767  43.020   7.642
  344POPC   NC3 7247  38.097  43.208   9.500
  344POPC   PO4 7248  38.683  43.176   9.842
  344POPC   GL1 7249  38.602  43.058   9.377
  344POPC   GL2 7250  38.556  43.383   9.224
  344POPC   C1A 7251  38.543  42.858   8.930
  344POPC   D2A 7252  38.649  42.981   8.498
  344POPC   C3A 7253  38.452  42.801   8.142
  344POPC   C4A 7254  38.590  42.834   7.728
  344POPC   C1B 7255  38.354  43.322   8.806
  344POPC   C2B 7256  38.185  43.198   8.384
  344POPC   C3B 7257  38.259  43.240   7.944
  344POPC   C4B 7258  38.209  43.111   7.494
  345POPC   NC3 7259   3.399  40.699   9.484
  345POPC   PO4 7260   3.981  41.130   9.575
  345POPC   GL1 7261   3.695  41.145   9.171
  345POPC   GL2 7262   3.351  41.051   9.131
  345POPC   C1A 7263   3.656  40.797   8.791
  345POPC   D2A 7264   3.633  40.428   8.448
  345POPC   C3A 7265   3.738  40.523   7.999
  345POPC   C4A 7266   3.707  40.925   7.795
  345POPC   C1B 7267   3.165  40.903   8.756
  345POPC   C2B 7268   3.290  40.880   8.307
  345POPC   C3B 7269   3.216  40.908   7.867
  345POPC   C4B 7270   3.105  40.988   7.384
  346POPC   NC3 7271  33.962  21.790   9.483
  346POPC   PO4 7272  33.713  21.103   9.499
  346POPC   GL1 7273  33.956  21.333   9.230
  346POPC   GL2 7274  33.670  21.553   9.165
  346POPC   C1A 7275  33.982  21.271   8.810
  346POPC   D2A 7276  33.739  21.311   8.411
  346POPC   C3A 7277  33.960  21.296   7.996
  346POPC   C4A 7278  34.018  21.528   7.588
  346POPC   C1B 7279  33.456  21.498   8.823
  346POPC   C2B 7280  33.434  21.740   8.460
  346POPC   C3B 7281  33.564  21.645   8.032
  346POPC   C4B 7282  33.552  21.297   7.718
  347POPC   NC3 7283   3.642  12.115   9.519
  347POPC   PO4 7284   3.154  11.660   9.561
  347POPC   GL1 7285   3.317  11.831   9.137
  347POPC   GL2 7286   3.636  12.009   9.030
  347POPC   C1A 7287   3.434  11.704   8.688
  347POPC   D2A 7288   3.617  11.745   8.297
  347POPC   C3A 7289   3.400  11.853   7.919
  347POPC   C4A 7290   3.522  11.895   7.485
  347POPC   C1B 7291   3.947  11.876   8.715
  347POPC   C2B 7292   4.101  12.000   8.308
  347POPC   C3B 7293   3.887  11.997   7.945
  347POPC   C4B 7294   3.682  12.305   7.772
  348POPC   NC3 7295  21.240  38.935   9.517
  348POPC   PO4 7296  21.529  39.455   9.806
  348POPC   GL1 7297  21.401  39.330   9.261
  348POPC   GL2 7298  21.498  39.006   9.052
  348POPC   C1A 7299  21.165  39.306   8.818
  348POPC   D2A 7300  21.039  39.169   8.368
  348POPC   C3A 7301  21.349  39.249   8.019
  348POPC   C4A 7302  21.644  39.583   7.854
  348POPC   C1B 7303  21.694  39.279   8.699
  348POPC   C2B 7304  21.839  39.267   8.250
  348POPC   C3B 7305  21.783  39.020   7.865
  348POPC   C4B 7306  21.613  38.839   7.497
  349POPC   NC3 7307  21.143  18.830   9.611
  349POPC   PO4 7308  21.504  19.330   9.560
  349POPC   GL1 7309  21.264  19.094   9.176
  349POPC   GL2 7310  21.226  18.703   9.118
  349POPC   C1A 7311  21.289  19.014   8.686
  349POPC   D2A 7312  21.610  18.893   8.339
  349POPC   C3A 7313  21.741  19.115   7.907
  349POPC   C4A 7314  21.812  19.203   7.420
  349POPC   C1B 7315  21.273  18.475   8.710
  349POPC   C2B 7316  21.274  18.491   8.265
  349POPC   C3B 7317  21.367  18.737   7.921
  349POPC   C4B 7318  21.329  19.045   7.620
  350POPC   NC3 7319   5.700  18.590   9.858
  350POPC   PO4 7320   5.163  18.530   9.436
  350POPC   GL1 7321   5.246  18.106   9.239
  350POPC   GL2 7322   5.359  18.341   9.005
  350POPC   C1A 7323   5.214  17.928   8.799
  350POPC   D2A 7324   5.308  18.229   8.471
  350POPC   C3A 7325   5.119  18.114   8.101
  350POPC   C4A 7326   5.189  18.126   7.666
  350POPC   C1B 7327   4.927  18.342   8.826
  350POPC   C2B 7328   4.741  18.176   8.459
  350POPC   C3B 7329   4.614  18.160   8.025
  350POPC   C4B 7330   4.791  18.438   7.737
  351POPC   NC3 7331  16.196  31.887   9.488
  351POPC   PO4 7332  15.965  32.572   9.483
  351POPC   GL1 7333  15.907  32.228   9.169
  351POPC   GL2 7334  16.054  31.881   9.013
  351POPC   C1A 7335  15.968  32.318   8.750
  351POPC   D2A 7336  16.185  32.176   8.428
  351POPC   C3A 7337  16.119  32.397   8.078
  351POPC   C4A 7338  15.927  32.378   7.699
  351POPC   C1B 7339  15.664  31.896   8.797
  351POPC   C2B 7340  15.668  32.064   8.395
  351POPC   C3B 7341  15.837  31.950   7.981
  351POPC   C4B 7342  15.764  31.882   7.532
  352POPC   NC3 7343  37.275  30.107   9.371
  352POPC   PO4 7344  36.554  29.943   9.532
  352POPC   GL1 7345  36.777  29.902   9.167
  352POPC   GL2 7346  36.529  29.640   9.104
  352POPC   C1A 7347  37.048  29.875   8.793
  352POPC   D2A 7348  36.933  29.803   8.366
  352POPC   C3A 7349  37.006  30.102   8.065
  352POPC   C4A 7350  36.823  30.203   7.707
  352POPC   C1B 7351  36.454  29.824   8.729
  352POPC   C2B 7352  36.439  29.655   8.348
  352POPC   C3B 7353  36.585  29.786   7.961
  352POPC   C4B 7354  36.687  29.732   7.568
  353POPC   NC3 7355   5.735   0.857   9.359
  353POPC   PO4 7356   6.199   1.267   9.451
  353POPC   GL1 7357   6.050   1.184   9.093
  353POPC   GL2 7358   6.148   0.851   8.983
  353POPC   C1A 7359   5.851   1.443   8.776
  353POPC   D2A 7360   6.071   1.477   8.391
  353POPC   C3A 7361   5.872   1.695   8.066
  353POPC   C4A 7362   5.833   1.397   7.761
  353POPC   C1B 7363   5.901   0.968   8.659
  353POPC   C2B 7364   5.816   1.061   8.259
  353POPC   C3B 7365   5.943   0.912   7.901
  353POPC   C4B 7366   5.629   0.906   7.613
  354POPC   NC3 7367  28.630  43.546   9.380
  354POPC   PO4 7368  28.575  42.810   9.544
  354POPC   GL1 7369  28.477  43.032   9.162
  354POPC   GL2 7370  28.141  43.170   9.197
  354POPC   C1A 7371  28.451  43.094   8.706
  354POPC   D2A 7372  28.669  43.021   8.318
  354POPC   C3A 7373  28.495  43.189   7.953
  354POPC   C4A 7374  28.300  43.600   7.893
  354POPC   C1B 7375  27.938  43.204   8.777
  354POPC   C2B 7376  28.113  43.261   8.345
  354POPC   C3B 7377  27.995  43.089   7.944
  354POPC   C4B 7378  28.168  42.911   7.601
  355POPC   NC3 7379   4.047  18.053   9.485
  355POPC   PO4 7380   3.563  17.484   9.425
  355POPC   GL1 7381   3.664  17.694   9.075
  355POPC   GL2 7382   3.960  17.447   9.088
  355POPC   C1A 7383   3.381  17.644   8.695
  355POPC   D2A 7384   3.316  17.246   8.459
  355POPC   C3A 7385   3.165  17.311   8.064
  355POPC   C4A 7386   3.304  17.545   7.757
  355POPC   C1B 7387   3.864  17.493   8.645
  355POPC   C2B 7388   3.776  17.805   8.327
  355POPC   C3B 7389   3.755  17.757   7.867
  355POPC   C4B 7390   3.741  17.875   7.432
  356POPC   NC3 7391  28.744   9.526   9.713
  356POPC   PO4 7392  29.204   9.781   9.302
  356POPC   GL1 7393  29.225   9.680   8.947
  356POPC   GL2 7394  29.390   9.381   9.024
  356POPC   C1A 7395  28.979   9.737   8.575
  356POPC   D2A 7396  28.956   9.731   8.129
  356POPC   C3A 7397  29.043  10.115   7.894
  356POPC   C4A 7398  29.227  10.024   7.504
  356POPC   C1B 7399  29.292   9.321   8.599
  356POPC   C2B 7400  29.465   9.316   8.200
  356POPC   C3B 7401  29.253   9.445   7.825
  356POPC   C4B 7402  29.407   9.548   7.430
  357POPC   NC3 7403  39.369  30.198   9.433
  357POPC   PO4 7404  38.660  30.401   9.484
  357POPC   GL1 7405  38.960  30.154   9.149
  357POPC   GL2 7406  39.249  30.341   8.953
  357POPC   C1A 7407  39.174  29.858   8.827
  357POPC   D2A 7408  39.345  30.028   8.448
  357POPC   C3A 7409  39.245  29.778   8.071
  357POPC   C4A 7410  39.276  29.671   7.631
  357POPC   C1B 7411  39.670  30.378   8.748
  357POPC   C2B 7412  39.743  30.310   8.290
  357POPC   C3B 7413  39.370  30.297   7.988
  357POPC   C4B 7414  39.399  30.178   7.543
  358POPC   NC3 7415   4.823  18.119   9.558
  358POPC   PO4 7416   5.156  17.534   9.517
  358POPC   GL1 7417   5.010  17.538   9.122
  358POPC   GL2 7418   4.811  17.836   9.115
  358POPC   C1A 7419   5.197  17.430   8.736
  358POPC   D2A 7420   5.179  17.649   8.349
  358POPC   C3A 7421   5.232  17.338   8.003
  358POPC   C4A 7422   5.377  17.399   7.564
  358POPC   C1B 7423   4.759  17.706   8.681
  358POPC   C2B 7424   4.692  17.707   8.243
  358POPC   C3B 7425   4.917  17.707   7.870
  358POPC   C4B 7426   4.727  17.947   7.579
  359POPC   NC3 7427  15.917  23.648   9.599
  359POPC   PO4 7428  16.400  23.343   9.271
  359POPC   GL1 7429  16.103  23.602   9.119
  359POPC   GL2 7430  16.267  23.893   9.053
  359POPC   C1A 7431  15.839  23.478   8.747
  359POPC   D2A 7432  15.885  23.306   8.377
  359POPC   C3A 7433  15.655  23.496   8.062
  359POPC   C4A 7434  15.805  23.445   7.640
  359POPC   C1B 7435  16.305  23.659   8.671
  359POPC   C2B 7436  16.035  23.815   8.398
  359POPC   C3B 7437  16.144  23.661   8.067
  359POPC   C4B 7438  16.237  23.705   7.689
  360POPC   NC3 7439  40.183  39.405   9.442
  360POPC   PO4 7440  39.780  38.979   9.418
  360POPC   GL1 7441  40.004  39.031   9.073
  360POPC   GL2 7442  39.888  39.379   9.013
  360POPC   C1A 7443  40.044  39.028   8.642
  360POPC   D2A 7444  39.922  39.345   8.441
  360POPC   C3A 7445  39.838  39.266   8.032
  360POPC   C4A 7446  39.911  39.041   7.654
  360POPC   C1B 7447  40.314  39.427   8.834
  360POPC   C2B 7448  40.454  39.406   8.472
  360POPC   C3B 7449  40.306  39.559   8.117
  360POPC   C4B 7450  40.214  39.430   7.725
  361POPC   NC3 7451   3.188  18.548   9.357
  361POPC   PO4 7452   3.817  18.410   9.706
  361POPC   GL1 7453   3.621  18.250   9.283
  361POPC   GL2 7454   3.643  18.557   9.123
  361POPC   C1A 7455   3.496  18.153   8.831
  361POPC   D2A 7456   3.261  18.217   8.448
  361POPC   C3A 7457   3.493  18.172   8.073
  361POPC   C4A 7458   3.333  18.048   7.692
  361POPC   C1B 7459   3.841  18.637   8.734
  361POPC   C2B 7460   3.878  18.416   8.358
  361POPC   C3B 7461   3.832  18.541   7.940
  361POPC   C4B 7462   3.410  18.559   7.710
  362POPC   NC3 7463   5.882  10.027   9.778
  362POPC   PO4 7464   5.710   9.430   9.463
  362POPC   GL1 7465   5.908   9.396   9.080
  362POPC   GL2 7466   6.034   9.704   9.106
  362POPC   C1A 7467   5.981   9.473   8.642
  362POPC   D2A 7468   5.723   9.395   8.265
  362POPC   C3A 7469   5.753   9.679   7.900
  362POPC   C4A 7470   6.140   9.764   7.759
  362POPC   C1B 7471   6.041   9.985   8.732
  362POPC   C2B 7472   5.913  10.098   8.319
  362POPC   C3B 7473   5.587  10.285   8.089
  362POPC   C4B 7474   5.511  10.125   7.709
  363POPC   NC3 7475   4.013  36.098   9.559
  363POPC   PO4 7476   4.584  36.484   9.645
  363POPC   GL1 7477   4.386  36.284   9.269
  363POPC   GL2 7478   4.447  35.975   9.081
  363POPC   C1A 7479   4.075  36.337   8.943
  363POPC   D2A 7480   4.013  36.419   8.500
  363POPC   C3A 7481   4.231  36.187   8.187
  363POPC   C4A 7482   4.083  36.269   7.770
  363POPC   C1B 7483   4.237  35.942   8.679
  363POPC   C2B 7484   4.244  35.691   8.329
  363POPC   C3B 7485   4.016  35.740   7.961
  363POPC   C4B 7486   4.060  35.822   7.519
  364POPC   NC3 7487   7.085  21.540   9.420
  364POPC   PO4 7488   7.622  21.095   9.609
  364POPC   GL1 7489   7.498  21.151   9.159
  364POPC   GL2 7490   7.294  21.385   8.979
  364POPC   C1A 7491   7.641  21.087   8.743
  364POPC   D2A 7492   7.492  20.926   8.385
  364POPC   C3A 7493   7.484  21.131   8.039
  364POPC   C4A 7494   7.419  21.493   7.874
  364POPC   C1B 7495   6.987  21.638   8.787
  364POPC   C2B 7496   6.863  21.747   8.370
  364POPC   C3B 7497   7.055  21.857   7.985
  364POPC   C4B 7498   7.192  21.773   7.544
  365POPC   NC3 7499   2.375  43.965   9.272
  365POPC   PO4 7500   2.821  44.090   9.806
  365POPC   GL1 7501   2.946  43.979   9.335
  365POPC   GL2 7502   2.887  44.252   9.130
  365POPC   C1A 7503   2.998  43.898   8.836
  365POPC   D2A 7504   2.663  43.772   8.527
  365POPC   C3A 7505   2.820  43.840   8.123
  365POPC   C4A 7506   2.847  43.857   7.711
  365POPC   C1B 7507   2.612  44.249   8.753
  365POPC   C2B 7508   2.734  44.278   8.353
  365POPC   C3B 7509   2.521  44.240   7.992
  365POPC   C4B 7510   2.589  44.319   7.625
  366POPC   NC3 7511  38.725  26.062   9.497
  366POPC   PO4 7512  38.088  25.749   9.382
  366POPC   GL1 7513  38.297  26.122   9.166
  366POPC   GL2 7514  38.670  26.164   9.018
  366POPC   C1A 7515  38.282  26.110   8.719
  366POPC   D2A 7516  38.260  25.830   8.394
  366POPC   C3A 7517  38.412  26.031   8.065
  366POPC   C4A 7518  38.371  25.829   7.702
  366POPC   C1B 7519  38.949  26.118   8.705
  366POPC   C2B 7520  38.880  26.015   8.279
  366POPC   C3B 7521  38.879  26.063   7.828
  366POPC   C4B 7522  38.625  26.284   7.624
  367POPC   NC3 7523  34.423  24.953   9.297
  367POPC   PO4 7524  34.408  25.612   9.432
  367POPC   GL1 7525  34.666  25.548   9.050
  367POPC   GL2 7526  34.776  25.214   9.026
  367POPC   C1A 7527  34.602  25.407   8.605
  367POPC   D2A 7528  34.698  25.202   8.231
  367POPC   C3A 7529  34.400  25.375   7.967
  367POPC   C4A 7530  34.523  25.507   7.579
  367POPC   C1B 7531  34.590  24.914   8.670
  367POPC   C2B 7532  34.260  24.969   8.364
  367POPC   C3B 7533  34.304  24.873   7.970
  367POPC   C4B 7534  34.671  25.003   7.731
  368POPC   NC3 7535  40.713  20.647   9.384
  368POPC   PO4 7536  41.112  20.046   9.414
  368POPC   GL1 7537  40.944  20.337   9.072
  368POPC   GL2 7538  41.148  20.653   9.098
  368POPC   C1A 7539  40.743  20.294   8.653
  368POPC   D2A 7540  40.754  20.601   8.267
  368POPC   C3A 7541  40.968  20.512   7.872
  368POPC   C4A 7542  41.105  20.333   7.480
  368POPC   C1B 7543  40.932  20.769   8.735
  368POPC   C2B 7544  40.893  21.079   8.441
  368POPC   C3B 7545  40.673  21.152   8.074
  368POPC   C4B 7546  40.654  20.891   7.743
  369POPC   NC3 7547   4.925  22.044   9.541
  369POPC   PO4 7548   5.585  22.016   9.476
  369POPC   GL1 7549   5.313  22.248   9.178
  369POPC   GL2 7550   4.947  22.277   9.099
  369POPC   C1A 7551   5.361  22.319   8.750
  369POPC   D2A 7552   5.270  22.093   8.387
  369POPC   C3A 7553   5.259  22.330   8.035
  369POPC   C4A 7554   5.380  22.109   7.724
  369POPC   C1B 7555   4.899  22.553   8.768
  369POPC   C2B 7556   4.895  22.426   8.366
  369POPC   C3B 7557   4.677  22.078   8.139
  369POPC   C4B 7558   4.866  22.078   7.746
  370POPC   NC3 7559  20.336   4.043   9.445
  370POPC   PO4 7560  20.939   4.054   9.768
  370POPC   GL1 7561  20.772   4.337   9.321
  370POPC   GL2 7562  20.461   4.423   9.153
  370POPC   C1A 7563  20.845   4.371   8.843
  370POPC   D2A 7564  20.601   4.628   8.569
  370POPC   C3A 7565  20.717   4.578   8.125
  370POPC   C4A 7566  20.610   4.338   7.805
  370POPC   C1B 7567  20.343   4.215   8.760
  370POPC   C2B 7568  20.443   4.176   8.314
  370POPC   C3B 7569  20.224   4.053   7.934
  370POPC   C4B 7570  20.371   3.979   7.503
  371POPC   NC3 7571  25.491  17.198   9.847
  371POPC   PO4 7572  25.419  17.639   9.315
  371POPC   GL1 7573  25.178  17.542   9.059
  371POPC   GL2 7574  24.918  17.425   9.228
  371POPC   C1A 7575  25.221  17.427   8.681
  371POPC   D2A 7576  25.135  17.621   8.305
  371POPC   C3A 7577  25.374  17.424   8.018
  371POPC   C4A 7578  25.466  17.433   7.591
  371POPC   C1B 7579  24.730  17.463   8.800
  371POPC   C2B 7580  24.657  17.374   8.359
  371POPC   C3B 7581  24.698  17.666   8.035
  371POPC   C4B 7582  25.020  17.655   7.743
  372POPC   NC3 7583  20.980   5.459   9.390
  372POPC   PO4 7584  20.469   5.934   9.537
  372POPC   GL1 7585  20.721   5.867   9.189
  372POPC   GL2 7586  20.519   5.577   9.103
  372POPC   C1A 7587  20.740   5.879   8.733
  372POPC   D2A 7588  20.473   5.887   8.349
  372POPC   C3A 7589  20.662   5.603   8.053
  372POPC   C4A 7590  21.017   5.828   7.890
  372POPC   C1B 7591  20.270   5.582   8.714
  372POPC   C2B 7592  20.207   5.434   8.258
  372POPC   C3B 7593  20.176   5.696   7.883
  372POPC   C4B 7594  20.488   6.013   7.821
  373POPC   NC3 7595  20.898  16.002   9.386
  373POPC   PO4 7596  21.505  15.870   9.604
  373POPC   GL1 7597  21.584  15.973   9.164
  373POPC   GL2 7598  21.252  15.905   9.040
  373POPC   C1A 7599  21.500  16.211   8.741
  373POPC   D2A 7600  21.258  16.103   8.362
  373POPC   C3A 7601  21.449  16.225   7.984
  373POPC   C4A 7602  21.618  15.864   7.835
  373POPC   C1B 7603  20.908  16.098   8.750
  373POPC   C2B 7604  20.819  16.370   8.387
  373POPC   C3B 7605  20.882  16.172   7.991
  373POPC   C4B 7606  21.119  15.828   7.889
  374POPC   NC3 7607   3.256  21.897   9.431
  374POPC   PO4 7608   3.491  22.475   9.640
  374POPC   GL1 7609   3.595  22.272   9.280
  374POPC   GL2 7610   3.246  22.318   9.172
  374POPC   C1A 7611   3.634  22.043   8.891
  374POPC   D2A 7612   3.565  22.205   8.477
  374POPC   C3A 7613   3.675  21.991   8.086
  374POPC   C4A 7614   3.737  22.175   7.694
  374POPC   C1B 7615   3.148  22.172   8.763
  374POPC   C2B 7616   3.062  22.122   8.302
  374POPC   C3B 7617   3.271  22.239   7.909
  374POPC   C4B 7618   3.345  22.377   7.453
  375POPC   NC3 7619  43.493  27.369   9.416
  375POPC   PO4 7620  44.005  27.784   9.551
  375POPC   GL1 7621  43.883  27.612   9.172
  375POPC   GL2 7622  43.563  27.804   9.096
  375POPC   C1A 7623  44.133  27.581   8.791
  375POPC   D2A 7624  43.995  27.587   8.408
  375POPC   C3A 7625  44.268  27.601   8.095
  375POPC   C4A 7626  44.229  27.428   7.721
  375POPC   C1B 7627  43.605  27.539   8.744
  375POPC   C2B 7628  43.521  27.432   8.328
  375POPC   C3B 7629  43.718  27.615   7.973
  375POPC   C4B 7630  43.427  27.424   7.775
  376POPC   NC3 7631   9.220  33.601   9.460
  376POPC   PO4 7632   9.792  34.026   9.428
  376POPC   GL1 7633   9.833  33.967   9.005
  376POPC   GL2 7634   9.528  34.144   8.945
  376POPC   C1A 7635  10.151  33.904   8.672
  376POPC   D2A 7636  10.217  34.039   8.250
  376POPC   C3A 7637   9.850  33.934   8.014
  376POPC   C4A 7638   9.818  33.762   7.609
  376POPC   C1B 7639   9.457  33.707   8.705
  376POPC   C2B 7640   9.364  33.371   8.343
  376POPC   C3B 7641   9.409  33.480   7.885
  376POPC   C4B 7642   9.286  33.888   7.703
  377POPC   NC3 7643  41.254  44.421   9.595
  377POPC   PO4 7644  41.799  44.657   9.936
  377POPC   GL1 7645  41.866  44.687   9.408
  377POPC   GL2 7646  41.556  44.597   9.186
  377POPC   C1A 7647  41.899  44.852   8.912
  377POPC   D2A 7648  41.862  44.829   8.400
  377POPC   C3A 7649  41.707   0.191   8.058
  377POPC   C4A 7650  41.641   0.203   7.565
  377POPC   C1B 7651  41.418  44.801   8.751
  377POPC   C2B 7652  41.346  44.775   8.292
  377POPC   C3B 7653  41.282  44.475   7.963
  377POPC   C4B 7654  41.281  44.498   7.527
  378POPC   NC3 7655  26.413  18.878   9.557
  378POPC   PO4 7656  25.770  19.196   9.594
  378POPC   GL1 7657  26.002  19.084   9.235
  378POPC   GL2 7658  26.295  19.297   9.306
  378POPC   C1A 7659  25.956  18.869   8.806
  378POPC   D2A 7660  25.798  18.653   8.407
  378POPC   C3A 7661  25.906  18.870   8.002
  378POPC   C4A 7662  26.021  19.087   7.615
  378POPC   C1B 7663  26.273  19.275   8.855
  378POPC   C2B 7664  26.009  19.337   8.517
  378POPC   C3B 7665  25.904  19.366   8.099
  378POPC   C4B 7666  26.102  19.602   7.797
  379POPC   NC3 7667  39.012  16.051   9.667
  379POPC   PO4 7668  39.327  15.510   9.645
  379POPC   GL1 7669  39.158  15.716   9.241
  379POPC   GL2 7670  39.059  16.088   9.169
  379POPC   C1A 7671  39.253  15.769   8.799
  379POPC   D2A 7672  39.133  16.125   8.538
  379POPC   C3A 7673  38.966  16.017   8.158
  379POPC   C4A 7674  39.269  15.943   7.863
  379POPC   C1B 7675  38.745  16.231   8.856
  379POPC   C2B 7676  38.821  16.539   8.510
  379POPC   C3B 7677  38.975  16.533   8.078
  379POPC   C4B 7678  38.889  16.275   7.711
  380POPC   NC3 7679  17.832  33.590   9.458
  380POPC   PO4 7680  17.531  32.978   9.518
  380POPC   GL1 7681  17.535  33.025   9.101
  380POPC   GL2 7682  17.570  32.645   9.124
  380POPC   C1A 7683  17.612  33.183   8.671
  380POPC   D2A 7684  17.386  33.178   8.276
  380POPC   C3A 7685  17.704  33.183   7.956
  380POPC   C4A 7686  17.618  33.582   7.737
  380POPC   C1B 7687  17.496  32.698   8.722
  380POPC   C2B 7688  17.594  32.737   8.307
  380POPC   C3B 7689  17.487  32.726   7.864
  380POPC   C4B 7690  17.376  32.665   7.430
  381POPC   NC3 7691  31.968  28.028   9.893
  381POPC   PO4 7692  32.232  27.493   9.501
  381POPC   GL1 7693  32.374  27.648   9.131
  381POPC   GL2 7694  32.042  27.620   9.013
  381POPC   C1A 7695  32.578  27.753   8.743
  381POPC   D2A 7696  32.425  27.620   8.369
  381POPC   C3A 7697  32.494  27.787   8.003
  381POPC   C4A 7698  32.170  27.676   7.785
  381POPC   C1B 7699  32.066  27.929   8.657
  381POPC   C2B 7700  32.002  27.981   8.202
  381POPC   C3B 7701  31.893  28.086   7.758
  381POPC   C4B 7702  32.063  27.875   7.338
  382POPC   NC3 7703  44.229  17.894   9.255
  382POPC   PO4 7704  44.539  17.257   9.480
  382POPC   GL1 7705  44.384  17.407   9.114
  382POPC   GL2 7706  44.665  17.620   9.136
  382POPC   C1A 7707  44.396  17.550   8.682
  382POPC   D2A 7708  44.453  17.365   8.289
  382POPC   C3A 7709  44.452  17.524   7.852
  382POPC   C4A 7710  44.509  17.463   7.380
  382POPC   C1B 7711  44.884  17.672   8.798
  382POPC   C2B 7712  44.817  17.722   8.401
  382POPC   C3B 7713   0.019  17.807   8.053
  382POPC   C4B 7714  44.909  17.645   7.685
  383POPC   NC3 7715  37.000   4.202   9.405
  383POPC   PO4 7716  36.549   4.631   9.495
  383POPC   GL1 7717  36.649   4.419   9.113
  383POPC   GL2 7718  36.998   4.579   9.042
  383POPC   C1A 7719  36.585   4.027   8.844
  383POPC   D2A 7720  36.728   3.863   8.415
  383POPC   C3A 7721  36.757   4.109   8.005
  383POPC   C4A 7722  36.493   4.233   7.590
  383POPC   C1B 7723  37.009   4.268   8.718
  383POPC   C2B 7724  37.195   4.024   8.402
  383POPC   C3B 7725  37.411   4.045   8.058
  383POPC   C4B 7726  37.178   4.123   7.709
  384POPC   NC3 7727  19.478  38.960   9.800
  384POPC   PO4 7728  19.939  39.422   9.717
  384POPC   GL1 7729  19.886  39.395   9.216
  384POPC   GL2 7730  19.552  39.379   9.071
  384POPC   C1A 7731  20.009  39.187   8.810
  384POPC   D2A 7732  19.862  39.237   8.365
  384POPC   C3A 7733  20.038  39.028   8.000
  384POPC   C4A 7734  19.941  39.247   7.629
  384POPC   C1B 7735  19.521  39.048   8.684
  384POPC   C2B 7736  19.315  38.918   8.316
  384POPC   C3B 7737  19.535  38.965   7.925
  384POPC   C4B 7738  19.557  38.964   7.468
  385POPC   NC3 7739  17.840  23.251   9.483
  385POPC   PO4 7740  18.533  22.959   9.538
  385POPC   GL1 7741  18.193  22.936   9.241
  385POPC   GL2 7742  18.108  22.558   9.155
  385POPC   C1A 7743  18.144  23.259   8.887
  385POPC   D2A 7744  18.213  23.201   8.440
  385POPC   C3A 7745  18.586  23.102   8.150
  385POPC   C4A 7746  18.470  23.001   7.724
  385POPC   C1B 7747  18.142  22.761   8.767
  385POPC   C2B 7748  17.936  22.772   8.393
  385POPC   C3B 7749  18.146  22.747   8.014
  385POPC   C4B 7750  17.982  22.778   7.613
  386POPC   NC3 7751  21.626   9.776   9.866
  386POPC   PO4 7752  22.190   9.604   9.593
  386POPC   GL1 7753  21.933   9.664   9.245
  386POPC   GL2 7754  22.097   9.884   9.032
  386POPC   C1A 7755  21.947   9.441   8.843
  386POPC   D2A 7756  22.167   9.468   8.457
  386POPC   C3A 7757  22.010   9.538   8.049
  386POPC   C4A 7758  22.135   9.563   7.610
  386POPC   C1B 7759  22.263   9.923   8.633
  386POPC   C2B 7760  22.105  10.032   8.230
  386POPC   C3B 7761  22.363   9.907   7.899
  386POPC   C4B 7762  22.738  10.022   7.734
  387POPC   NC3 7763  25.230  34.641   9.605
  387POPC   PO4 7764  25.233  34.084   9.347
  387POPC   GL1 7765  25.397  34.420   9.151
  387POPC   GL2 7766  25.130  34.651   9.097
  387POPC   C1A 7767  25.546  34.500   8.755
  387POPC   D2A 7768  25.532  34.764   8.396
  387POPC   C3A 7769  25.577  34.584   7.985
  387POPC   C4A 7770  25.309  34.312   7.784
  387POPC   C1B 7771  25.060  34.628   8.633
  387POPC   C2B 7772  25.021  34.860   8.245
  387POPC   C3B 7773  25.084  34.798   7.807
  387POPC   C4B 7774  25.052  35.045   7.433
  388POPC   NC3 7775  17.009  39.603   9.500
  388POPC   PO4 7776  16.629  40.192   9.509
  388POPC   GL1 7777  16.764  39.972   9.173
  388POPC   GL2 7778  17.124  40.042   9.212
  388POPC   C1A 7779  16.541  39.913   8.777
  388POPC   D2A 7780  16.683  40.090   8.380
  388POPC   C3A 7781  16.592  39.915   8.003
  388POPC   C4A 7782  16.492  39.824   7.605
  388POPC   C1B 7783  17.129  40.233   8.840
  388POPC   C2B 7784  17.200  40.205   8.418
  388POPC   C3B 7785  17.022  40.245   8.012
  388POPC   C4B 7786  16.854  40.178   7.623
  389POPC   NC3 7787  39.201  23.436   9.649
  389POPC   PO4 7788  39.386  24.052   9.779
  389POPC   GL1 7789  39.220  23.846   9.337
  389POPC   GL2 7790  38.901  23.597   9.252
  389POPC   C1A 7791  39.123  23.859   8.873
  389POPC   D2A 7792  39.345  23.744   8.485
  389POPC   C3A 7793  39.245  23.918   8.069
  389POPC   C4A 7794  38.934  23.978   7.718
  389POPC   C1B 7795  38.813  23.432   8.797
  389POPC   C2B 7796  38.916  23.185   8.428
  389POPC   C3B 7797  39.201  23.372   8.142
  389POPC   C4B 7798  39.179  23.508   7.734
  390POPC   NC3 7799  31.079   1.833   9.395
  390POPC   PO4 7800  30.543   2.283   9.486
  390POPC   GL1 7801  30.664   2.059   9.145
  390POPC   GL2 7802  30.916   2.282   9.025
  390POPC   C1A 7803  30.699   1.820   8.768
  390POPC   D2A 7804  30.497   1.942   8.401
  390POPC   C3A 7805  30.562   1.846   8.008
  390POPC   C4A 7806  30.290   1.859   7.666
  390POPC   C1B 7807  30.782   2.324   8.617
  390POPC   C2B 7808  30.857   2.215   8.189
  390POPC   C3B 7809  30.759   2.250   7.740
  390POPC   C4B 7810  30.981   2.221   7.343
  391POPC   NC3 7811  42.407  40.190   9.737
  391POPC   PO4 7812  42.022  39.854   9.354
  391POPC   GL1 7813  42.312  39.956   9.079
  391POPC   GL2 7814  42.414  40.254   9.101
  391POPC   C1A 7815  42.205  39.969   8.667
  391POPC   D2A 7816  42.396  39.774   8.342
  391POPC   C3A 7817  42.255  39.927   7.952
  391POPC   C4A 7818  42.225  39.794   7.517
  391POPC   C1B 7819  42.623  40.225   8.691
  391POPC   C2B 7820  42.480  40.276   8.299
  391POPC   C3B 7821  42.585  40.364   7.888
  391POPC   C4B 7822  42.543  40.390   7.424
  392POPC   NC3 7823   9.363  23.432   9.459
  392POPC   PO4 7824   9.465  24.167   9.428
  392POPC   GL1 7825   9.636  23.874   9.078
  392POPC   GL2 7826   9.497  23.557   9.011
  392POPC   C1A 7827   9.858  23.783   8.708
  392POPC   D2A 7828   9.724  23.949   8.311
  392POPC   C3A 7829   9.884  23.726   7.946
  392POPC   C4A 7830  10.067  23.805   7.544
  392POPC   C1B 7831   9.651  23.324   8.700
  392POPC   C2B 7832   9.950  23.221   8.402
  392POPC   C3B 7833   9.968  23.057   8.008
  392POPC   C4B 7834   9.800  23.273   7.672
  393POPC   NC3 7835  34.947  17.928   9.474
  393POPC   PO4 7836  34.266  18.205   9.409
  393POPC   GL1 7837  34.651  18.222   9.164
  393POPC   GL2 7838  34.737  17.881   9.023
  393POPC   C1A 7839  34.775  18.365   8.767
  393POPC   D2A 7840  34.819  18.136   8.396
  393POPC   C3A 7841  34.793  18.270   7.969
  393POPC   C4A 7842  35.153  18.327   7.728
  393POPC   C1B 7843  34.389  18.006   8.780
  393POPC   C2B 7844  34.273  18.130   8.383
  393POPC   C3B 7845  34.352  17.996   7.954
  393POPC   C4B 7846  34.257  18.365   7.692
  394POPC   NC3 7847  19.621  34.176   9.438
  394POPC   PO4 7848  20.015  34.776   9.447
  394POPC   GL1 7849  19.837  34.572   9.100
  394POPC   GL2 7850  20.036  34.305   9.074
  394POPC   C1A 7851  19.914  34.639   8.655
  394POPC   D2A 7852  20.141  34.501   8.298
  394POPC   C3A 7853  19.973  34.697   7.929
  394POPC   C4A 7854  19.688  34.888   7.649
  394POPC   C1B 7855  19.756  34.174   8.750
  394POPC   C2B 7856  19.591  34.268   8.335
  394POPC   C3B 7857  19.784  34.222   7.921
  394POPC   C4B 7858  19.729  34.394   7.517
  395POPC   NC3 7859   2.096  41.834   9.383
  395POPC   PO4 7860   2.041  41.256   9.609
  395POPC   GL1 7861   1.833  41.364   9.208
  395POPC   GL2 7862   2.005  41.556   9.000
  395POPC   C1A 7863   1.601  41.398   8.772
  395POPC   D2A 7864   1.641  41.095   8.429
  395POPC   C3A 7865   1.771  41.307   8.050
  395POPC   C4A 7866   1.943  41.485   7.638
  395POPC   C1B 7867   1.905  41.833   8.700
  395POPC   C2B 7868   1.682  41.726   8.351
  395POPC   C3B 7869   1.824  41.824   7.972
  395POPC   C4B 7870   1.860  42.022   7.587
  396POPC   NC3 7871  10.248   3.951   9.875
  396POPC   PO4 7872   9.862   4.434   9.571
  396POPC   GL1 7873   9.793   4.577   9.165
  396POPC   GL2 7874   9.646   4.288   9.059
  396POPC   C1A 7875  10.009   4.483   8.766
  396POPC   D2A 7876   9.851   4.191   8.438
  396POPC   C3A 7877   9.989   4.307   8.023
  396POPC   C4A 7878   9.757   4.326   7.631
  396POPC   C1B 7879   9.472   4.019   8.745
  396POPC   C2B 7880   9.369   4.083   8.315
  396POPC   C3B 7881   9.578   3.972   7.953
  396POPC   C4B 7882   9.381   3.996   7.510
  397POPC   NC3 7883  19.707  18.596   9.466
  397POPC   PO4 7884  20.165  18.131   9.576
  397POPC   GL1 7885  19.924  18.041   9.214
  397POPC   GL2 7886  19.592  17.939   9.256
  397POPC   C1A 7887  19.922  18.253   8.845
  397POPC   D2A 7888  20.197  18.258   8.514
  397POPC   C3A 7889  20.026  18.446   8.136
  397POPC   C4A 7890  20.035  18.307   7.720
  397POPC   C1B 7891  19.629  17.825   8.808
  397POPC   C2B 7892  19.770  17.961   8.398
  397POPC   C3B 7893  19.663  18.074   7.972
  397POPC   C4B 7894  19.512  18.460   7.763
  398POPC   NC3 7895  21.860  16.192   9.579
  398POPC   PO4 7896  22.474  16.111   9.660
  398POPC   GL1 7897  22.346  16.046   9.200
  398POPC   GL2 7898  22.140  15.803   9.231
  398POPC   C1A 7899  22.002  16.044   8.803
  398POPC   D2A 7900  21.805  15.972   8.367
  398POPC   C3A 7901  22.095  16.066   8.011
  398POPC   C4A 7902  22.319  16.226   7.618
  398POPC   C1B 7903  22.295  15.636   8.818
  398POPC   C2B 7904  22.312  15.783   8.414
  398POPC   C3B 7905  22.293  15.550   8.082
  398POPC   C4B 7906  22.040  15.633   7.739
  399POPC   NC3 7907  29.004   1.306   9.260
  399POPC   PO4 7908  29.496   0.805   9.403
  399POPC   GL1 7909  29.440   1.084   9.034
  399POPC   GL2 7910  29.464   1.455   9.048
  399POPC   C1A 7911  29.190   1.061   8.627
  399POPC   D2A 7912  28.943   0.845   8.273
  399POPC   C3A 7913  29.255   0.830   7.951
  399POPC   C4A 7914  29.543   1.231   7.850
  399POPC   C1B 7915  29.178   1.593   8.687
  399POPC   C2B 7916  29.216   1.581   8.240
  399POPC   C3B 7917  29.053   1.315   7.905
  399POPC   C4B 7918  28.849   1.393   7.526
  400POPC   NC3 7919  22.867  30.394   9.497
  400POPC   PO4 7920  22.775  31.082   9.462
  400POPC   GL1 7921  22.707  30.751   9.167
  400POPC   GL2 7922  23.066  30.706   9.120
  400POPC   C1A 7923  22.596  30.619   8.750
  400POPC   D2A 7924  22.838  30.713   8.380
  400POPC   C3A 7925  22.649  30.740   7.986
  400POPC   C4A 7926  22.571  30.424   7.714
  400POPC   C1B 7927  23.218  30.840   8.710
  400POPC   C2B 7928  23.338  30.715   8.269
  400POPC   C3B 7929  23.146  30.674   7.839
  400POPC   C4B 7930  23.329  30.811   7.424
  401POPC   NC3 7931  29.497  11.402   9.622
  401POPC   PO4 7932  28.948  10.963   9.566
  401POPC   GL1 7933  29.225  11.159   9.250
  401POPC   GL2 7934  29.097  11.493   9.107
  401POPC   C1A 7935  29.339  11.086   8.810
  401POPC   D2A 7936  29.074  11.285   8.460
  401POPC   C3A 7937  29.096  11.149   8.009
  401POPC   C4A 7938  29.388  10.944   7.714
  401POPC   C1B 7939  29.037  11.761   8.714
  401POPC   C2B 7940  29.221  11.761   8.298
  401POPC   C3B 7941  29.016  11.723   7.895
  401POPC   C4B 7942  28.786  11.853   7.483
  402POPC   NC3 7943  24.131   1.126   9.431
  402POPC   PO4 7944  23.509   1.412   9.537
  402POPC   GL1 7945  23.557   1.126   9.171
  402POPC   GL2 7946  23.873   1.125   8.993
  402POPC   C1A 7947  23.363   1.049   8.772
  402POPC   D2A 7948  23.389   1.098   8.330
  402POPC   C3A 7949  23.772   0.952   8.098
  402POPC   C4A 7950  23.835   0.971   7.628
  402POPC   C1B 7951  23.763   1.331   8.635
  402POPC   C2B 7952  23.883   1.488   8.265
  402POPC   C3B 7953  23.785   1.427   7.866
  402POPC   C4B 7954  24.061   1.494   7.565
  403POPC   NC3 7955  28.521   2.625   9.447
  403POPC   PO4 7956  28.027   3.024   9.714
  403POPC   GL1 7957  28.059   2.901   9.232
  403POPC   GL2 7958  28.163   2.544   9.081
  403POPC   C1A 7959  28.183   2.953   8.780
  403POPC   D2A 7960  28.189   2.579   8.491
  403POPC   C3A 7961  28.190   2.728   8.079
  403POPC   C4A 7962  28.189   2.567   7.688
  403POPC   C1B 7963  28.582   2.624   8.809
  403POPC   C2B 7964  28.691   2.803   8.388
  403POPC   C3B 7965  28.696   2.646   7.968
  403POPC   C4B 7966  28.678   2.756   7.564
  404POPC   NC3 7967   3.369   4.896   9.524
  404POPC   PO4 7968   3.655   5.449   9.203
  404POPC   GL1 7969   3.593   5.066   9.054
  404POPC   GL2 7970   3.271   4.913   9.027
  404POPC   C1A 7971   3.495   5.104   8.617
  404POPC   D2A 7972   3.712   5.371   8.404
  404POPC   C3A 7973   3.573   5.337   8.024
  404POPC   C4A 7974   3.663   5.198   7.678
  404POPC   C1B 7975   3.521   4.641   8.787
  404POPC   C2B 7976   3.608   4.633   8.371
  404POPC   C3B 7977   3.728   4.813   8.005
  404POPC   C4B 7978   3.387   4.768   7.757
  405POPC   NC3 7979   1.301  30.694   9.526
  405POPC   PO4 7980   0.690  31.051   9.521
  405POPC   GL1 7981   0.918  30.713   9.181
  405POPC   GL2 7982   1.312  30.607   9.038
  405POPC   C1A 7983   0.900  30.512   8.766
  405POPC   D2A 7984   1.259  30.710   8.523
  405POPC   C3A 7985   1.256  30.690   8.087
  405POPC   C4A 7986   1.197  30.818   7.698
  405POPC   C1B 7987   1.656  30.467   8.721
  405POPC   C2B 7988   1.698  30.501   8.251
  405POPC   C3B 7989   1.524  30.216   7.896
  405POPC   C4B 7990   1.332  30.328   7.476
  406POPC   NC3 7991  28.771  37.609   9.546
  406POPC   PO4 7992  28.161  37.315   9.822
  406POPC   GL1 7993  28.274  37.509   9.369
  406POPC   GL2 7994  28.534  37.373   9.136
  406POPC   C1A 7995  28.203  37.751   8.952
  406POPC   D2A 7996  28.185  37.714   8.470
  406POPC   C3A 7997  28.344  37.712   8.021
  406POPC   C4A 7998  28.570  38.046   7.807
  406POPC   C1B 7999  28.276  37.275   8.775
  406POPC   C2B 8000  28.097  37.140   8.385
  406POPC   C3B 8001  28.087  37.268   7.959
  406POPC   C4B 8002  28.040  37.502   7.601
  407POPC   NC3 8003  27.806  19.307   9.276
  407POPC   PO4 8004  27.714  18.893   9.773
  407POPC   GL1 8005  27.565  18.859   9.239
  407POPC   GL2 8006  27.352  19.110   9.084
  407POPC   C1A 8007  27.706  18.914   8.760
  407POPC   D2A 8008  27.791  18.692   8.349
  407POPC   C3A 8009  27.759  18.978   8.002
  407POPC   C4A 8010  27.536  19.211   7.699
  407POPC   C1B 8011  27.234  19.251   8.640
  407POPC   C2B 8012  27.288  19.219   8.161
  407POPC   C3B 8013  27.159  19.533   7.783
  407POPC   C4B 8014  27.168  19.425   7.309
  408POPC   NC3 8015  32.056  22.459   9.538
  408POPC   PO4 8016  32.536  22.027   9.300
  408POPC   GL1 8017  32.353  22.365   9.109
  408POPC   GL2 8018  32.061  22.178   9.084
  408POPC   C1A 8019  32.343  22.322   8.662
  408POPC   D2A 8020  32.444  21.944   8.405
  408POPC   C3A 8021  32.329  22.001   7.986
  408POPC   C4A 8022  32.412  22.364   7.718
  408POPC   C1B 8023  31.835  22.404   8.825
  408POPC   C2B 8024  31.908  22.576   8.442
  408POPC   C3B 8025  31.778  22.613   8.018
  408POPC   C4B 8026  31.902  22.344   7.643
  409POPC   NC3 8027   9.986  29.565   9.409
  409POPC   PO4 8028   9.627  30.053   9.634
  409POPC   GL1 8029   9.640  30.099   9.204
  409POPC   GL2 8030   9.998  30.104   9.128
  409POPC   C1A 8031   9.513  29.926   8.803
  409POPC   D2A 8032   9.304  30.070   8.436
  409POPC   C3A 8033   9.599  30.127   8.114
  409POPC   C4A 8034   9.560  30.054   7.700
  409POPC   C1B 8035  10.034  29.967   8.693
  409POPC   C2B 8036   9.831  29.721   8.372
  409POPC   C3B 8037   9.859  29.688   7.921
  409POPC   C4B 8038  10.048  30.046   7.701
  410POPC   NC3 8039  33.026  23.164   9.520
  410POPC   PO4 8040  33.273  22.589   9.533
  410POPC   GL1 8041  33.163  22.852   9.143
  410POPC   GL2 8042  33.239  23.227   9.073
  410POPC   C1A 8043  32.881  22.971   8.788
  410POPC   D2A 8044  32.751  23.168   8.387
  410POPC   C3A 8045  32.715  22.929   8.047
  410POPC   C4A 8046  32.903  23.064   7.713
  410POPC   C1B 8047  33.438  23.058   8.749
  410POPC   C2B 8048  33.250  23.007   8.377
  410POPC   C3B 8049  33.412  22.992   7.993
  410POPC   C4B 8050  33.373  22.756   7.641
  411POPC   NC3 8051  25.761  40.928   9.624
  411POPC   PO4 8052  25.980  40.433   9.339
  411POPC   GL1 8053  26.010  40.892   9.156
  411POPC   GL2 8054  25.690  41.084   9.131
  411POPC   C1A 8055  26.117  40.942   8.701
  411POPC   D2A 8056  26.306  40.616   8.453
  411POPC   C3A 8057  26.128  40.661   8.063
  411POPC   C4A 8058  26.256  40.875   7.718
  411POPC   C1B 8059  25.604  41.161   8.722
  411POPC   C2B 8060  25.714  40.998   8.303
  411POPC   C3B 8061  25.719  40.914   7.855
  411POPC   C4B 8062  25.469  40.713   7.505
  412POPC   NC3 8063  26.925  36.530   9.316
  412POPC   PO4 8064  26.663  36.099   9.810
  412POPC   GL1 8065  26.754  36.005   9.312
  412POPC   GL2 8066  26.499  36.143   9.089
  412POPC   C1A 8067  26.950  36.044   8.840
  412POPC   D2A 8068  26.741  36.072   8.413
  412POPC   C3A 8069  26.914  36.118   7.972
  412POPC   C4A 8070  26.805  36.028   7.512
  412POPC   C1B 8071  26.593  36.442   8.727
  412POPC   C2B 8072  26.776  36.562   8.286
  412POPC   C3B 8073  26.554  36.539   7.886
  412POPC   C4B 8074  26.554  36.464   7.392
  413POPC   NC3 8075  21.169  12.731   9.454
  413POPC   PO4 8076  21.727  13.146   9.427
  413POPC   GL1 8077  21.576  12.905   9.098
  413POPC   GL2 8078  21.614  12.596   9.229
  413POPC   C1A 8079  21.701  12.855   8.669
  413POPC   D2A 8080  21.721  13.057   8.272
  413POPC   C3A 8081  21.351  12.973   8.094
  413POPC   C4A 8082  21.113  13.034   7.756
  413POPC   C1B 8083  21.342  12.487   8.855
  413POPC   C2B 8084  21.367  12.490   8.415
  413POPC   C3B 8085  21.697  12.568   8.112
  413POPC   C4B 8086  21.485  12.612   7.741
  414POPC   NC3 8087  11.940  40.282   9.583
  414POPC   PO4 8088  12.434  40.689   9.372
  414POPC   GL1 8089  12.185  40.624   9.078
  414POPC   GL2 8090  12.169  40.981   8.960
  414POPC   C1A 8091  12.260  40.579   8.655
  414POPC   D2A 8092  11.993  40.649   8.321
  414POPC   C3A 8093  12.208  40.793   7.949
  414POPC   C4A 8094  12.242  40.577   7.563
  414POPC   C1B 8095  11.835  41.184   8.734
  414POPC   C2B 8096  11.708  41.085   8.313
  414POPC   C3B 8097  11.496  41.045   7.937
  414POPC   C4B 8098  11.865  41.172   7.741
  415POPC   NC3 8099  14.085  11.545   9.502
  415POPC   PO4 8100  14.728  11.647   9.519
  415POPC   GL1 8101  14.499  11.293   9.259
  415POPC   GL2 8102  14.722  10.964   9.206
  415POPC   C1A 8103  14.220  11.330   8.884
  415POPC   D2A 8104  14.446  11.396   8.532
  415POPC   C3A 8105  14.406  11.414   8.116
  415POPC   C4A 8106  14.450  11.470   7.675
  415POPC   C1B 8107  14.838  11.173   8.824
  415POPC   C2B 8108  14.828  11.085   8.373
  415POPC   C3B 8109  14.723  10.990   7.958
  415POPC   C4B 8110  14.754  11.106   7.529
  416POPC   NC3 8111  43.528  42.231   9.386
  416POPC   PO4 8112  44.170  42.348   9.462
  416POPC   GL1 8113  43.979  42.229   9.108
  416POPC   GL2 8114  43.796  42.525   9.061
  416POPC   C1A 8115  44.124  42.364   8.706
  416POPC   D2A 8116  44.061  42.705   8.429
  416POPC   C3A 8117  44.161  42.555   8.046
  416POPC   C4A 8118  44.289  42.125   7.876
  416POPC   C1B 8119  43.620  42.491   8.658
  416POPC   C2B 8120  43.517  42.302   8.268
  416POPC   C3B 8121  43.720  42.393   7.878
  416POPC   C4B 8122  43.903  42.623   7.557
  417POPC   NC3 8123   1.675  21.366   9.668
  417POPC   PO4 8124   2.316  21.294   9.452
  417POPC   GL1 8125   2.086  21.522   9.163
  417POPC   GL2 8126   1.721  21.483   9.188
  417POPC   C1A 8127   2.063  21.360   8.746
  417POPC   D2A 8128   1.997  21.142   8.366
  417POPC   C3A 8129   2.222  21.156   7.973
  417POPC   C4A 8130   2.343  21.020   7.573
  417POPC   C1B 8131   1.576  21.489   8.783
  417POPC   C2B 8132   1.798  21.624   8.406
  417POPC   C3B 8133   1.789  21.465   7.995
  417POPC   C4B 8134   2.035  21.609   7.686
  418POPC   NC3 8135  20.288  15.824   9.561
  418POPC   PO4 8136  20.909  15.545   9.380
  418POPC   GL1 8137  20.808  15.652   9.005
  418POPC   GL2 8138  20.493  15.801   9.076
  418POPC   C1A 8139  20.678  15.655   8.606
  418POPC   D2A 8140  20.555  15.936   8.318
  418POPC   C3A 8141  20.628  15.706   7.935
  418POPC   C4A 8142  20.762  15.836   7.487
  418POPC   C1B 8143  20.252  16.095   8.839
  418POPC   C2B 8144  20.060  16.120   8.435
  418POPC   C3B 8145  20.126  15.939   8.054
  418POPC   C4B 8146  20.390  16.102   7.746
  419POPC   NC3 8147  12.120  28.133   9.917
  419POPC   PO4 8148  12.013  28.756   9.646
  419POPC   GL1 8149  12.125  28.544   9.284
  419POPC   GL2 8150  11.829  28.701   9.141
  419POPC   C1A 8151  12.102  28.306   8.877
  419POPC   D2A 8152  12.323  28.221   8.473
  419POPC   C3A 8153  12.130  28.194   8.069
  419POPC   C4A 8154  12.335  28.280   7.674
  419POPC   C1B 8155  12.170  28.812   8.828
  419POPC   C2B 8156  12.164  28.716   8.403
  419POPC   C3B 8157  12.257  28.689   7.989
  419POPC   C4B 8158  12.183  28.978   7.698
  420POPC   NC3 8159   1.774   8.213   9.493
  420POPC   PO4 8160   2.426   8.364   9.686
  420POPC   GL1 8161   2.241   8.344   9.183
  420POPC   GL2 8162   2.001   8.152   9.053
  420POPC   C1A 8163   2.056   8.456   8.676
  420POPC   D2A 8164   1.846   8.260   8.252
  420POPC   C3A 8165   1.970   8.540   7.863
  420POPC   C4A 8166   2.215   8.426   7.444
  420POPC   C1B 8167   1.823   7.940   8.711
  420POPC   C2B 8168   1.798   7.725   8.338
  420POPC   C3B 8169   2.015   7.838   7.971
  420POPC   C4B 8170   1.864   8.113   7.615
  421POPC   NC3 8171  26.185  23.489   9.790
  421POPC   PO4 8172  26.242  24.172   9.549
  421POPC   GL1 8173  26.093  24.058   9.116
  421POPC   GL2 8174  25.788  23.900   9.026
  421POPC   C1A 8175  26.210  23.983   8.705
  421POPC   D2A 8176  26.089  23.758   8.350
  421POPC   C3A 8177  26.381  23.797   8.037
  421POPC   C4A 8178  26.402  23.860   7.590
  421POPC   C1B 8179  25.998  23.532   8.789
  421POPC   C2B 8180  25.871  23.258   8.506
  421POPC   C3B 8181  25.831  23.371   8.129
  421POPC   C4B 8182  25.987  23.594   7.782
  422POPC   NC3 8183  13.717  44.795   9.555
  422POPC   PO4 8184  13.097  44.469   9.390
  422POPC   GL1 8185  13.374  44.690   9.150
  422POPC   GL2 8186  13.710  44.619   9.099
  422POPC   C1A 8187  13.391  44.820   8.748
  422POPC   D2A 8188  13.401  44.532   8.432
  422POPC   C3A 8189  13.464  44.711   8.059
  422POPC   C4A 8190  13.390  44.854   7.678
  422POPC   C1B 8191  13.821  44.488   8.713
  422POPC   C2B 8192  13.868  44.758   8.374
  422POPC   C3B 8193  13.987  44.898   7.964
  422POPC   C4B 8194  13.911   0.008   7.544
  423POPC   NC3 8195  12.721  40.337   9.431
  423POPC   PO4 8196  13.221  40.706   9.654
  423POPC   GL1 8197  13.013  40.697   9.218
  423POPC   GL2 8198  13.181  40.354   9.184
  423POPC   C1A 8199  12.721  40.819   8.805
  423POPC   D2A 8200  12.700  41.208   8.502
  423POPC   C3A 8201  12.867  41.117   8.055
  423POPC   C4A 8202  12.767  40.876   7.648
  423POPC   C1B 8203  13.010  40.401   8.766
  423POPC   C2B 8204  13.119  40.505   8.329
  423POPC   C3B 8205  12.967  40.334   7.910
  423POPC   C4B 8206  12.694  40.371   7.534
  424POPC   NC3 8207  29.024   7.189   9.497
  424POPC   PO4 8208  29.489   7.625   9.674
  424POPC   GL1 8209  29.278   7.523   9.202
  424POPC   GL2 8210  28.958   7.665   9.140
  424POPC   C1A 8211  29.275   7.327   8.733
  424POPC   D2A 8212  29.405   7.405   8.277
  424POPC   C3A 8213  29.319   7.213   7.870
  424POPC   C4A 8214  28.960   7.338   7.548
  424POPC   C1B 8215  28.815   7.532   8.739
  424POPC   C2B 8216  28.911   7.437   8.336
  424POPC   C3B 8217  29.023   7.639   7.949
  424POPC   C4B 8218  28.947   7.856   7.521
  425POPC   NC3 8219  32.639  24.190   9.498
  425POPC   PO4 8220  32.412  24.863   9.392
  425POPC   GL1 8221  32.304  24.569   9.111
  425POPC   GL2 8222  32.152  24.309   9.261
  425POPC   C1A 8223  32.261  24.667   8.696
  425POPC   D2A 8224  32.463  24.458   8.376
  425POPC   C3A 8225  32.397  24.706   8.016
  425POPC   C4A 8226  32.137  24.617   7.672
  425POPC   C1B 8227  32.145  24.186   8.802
  425POPC   C2B 8228  31.954  24.326   8.428
  425POPC   C3B 8229  32.109  24.242   8.018
  425POPC   C4B 8230  31.928  24.151   7.618
  426POPC   NC3 8231   5.405  36.598   9.484
  426POPC   PO4 8232   4.937  37.208   9.510
  426POPC   GL1 8233   5.093  36.921   9.225
  426POPC   GL2 8234   4.764  36.769   9.219
  426POPC   C1A 8235   5.179  36.873   8.788
  426POPC   D2A 8236   5.288  36.948   8.338
  426POPC   C3A 8237   5.213  36.605   8.039
  426POPC   C4A 8238   5.276  36.601   7.586
  426POPC   C1B 8239   4.728  37.110   8.902
  426POPC   C2B 8240   4.799  37.126   8.465
  426POPC   C3B 8241   4.810  36.908   8.105
  426POPC   C4B 8242   4.841  36.872   7.686
  427POPC   NC3 8243  42.985  34.369   9.384
  427POPC   PO4 8244  43.408  34.967   9.445
  427POPC   GL1 8245  43.406  34.626   9.197
  427POPC   GL2 8246  43.070  34.762   9.049
  427POPC   C1A 8247  43.435  34.532   8.777
  427POPC   D2A 8248  43.251  34.791   8.462
  427POPC   C3A 8249  43.083  34.533   8.102
  427POPC   C4A 8250  43.246  34.645   7.706
  427POPC   C1B 8251  42.945  34.453   8.704
  427POPC   C2B 8252  42.735  34.257   8.365
  427POPC   C3B 8253  42.603  34.339   7.930
  427POPC   C4B 8254  42.826  34.406   7.580
  428POPC   NC3 8255  16.060  41.613   9.462
  428POPC   PO4 8256  15.421  41.339   9.474
  428POPC   GL1 8257  15.766  41.353   9.102
  428POPC   GL2 8258  16.131  41.370   9.024
  428POPC   C1A 8259  15.871  41.656   8.705
  428POPC   D2A 8260  16.029  41.587   8.272
  428POPC   C3A 8261  15.734  41.610   7.890
  428POPC   C4A 8262  15.646  41.277   7.586
  428POPC   C1B 8263  16.371  41.379   8.657
  428POPC   C2B 8264  16.553  41.561   8.288
  428POPC   C3B 8265  16.386  41.464   7.921
  428POPC   C4B 8266  16.053  41.205   7.867
  429POPC   NC3 8267  29.678  21.665   9.445
  429POPC   PO4 8268  29.670  22.396   9.499
  429POPC   GL1 8269  29.764  22.083   9.168
  429POPC   GL2 8270  30.099  21.897   9.180
  429POPC   C1A 8271  29.667  21.928   8.754
  429POPC   D2A 8272  29.627  22.148   8.354
  429POPC   C3A 8273  29.821  22.028   7.960
  429POPC   C4A 8274  29.748  22.289   7.612
  429POPC   C1B 8275  30.149  22.085   8.790
  429POPC   C2B 8276  30.105  21.943   8.383
  429POPC   C3B 8277  30.345  21.978   8.000
  429POPC   C4B 8278  30.243  22.154   7.588
  430POPC   NC3 8279  27.484  42.591   9.388
  430POPC   PO4 8280  27.752  42.044   9.317
  430POPC   GL1 8281  27.516  42.163   8.956
  430POPC   GL2 8282  27.365  42.487   8.898
  430POPC   C1A 8283  27.632  42.245   8.514
  430POPC   D2A 8284  27.867  41.994   8.198
  430POPC   C3A 8285  27.771  42.090   7.769
  430POPC   C4A 8286  27.431  42.395   7.665
  430POPC   C1B 8287  27.804  42.675   8.782
  430POPC   C2B 8288  28.043  42.735   8.369
  430POPC   C3B 8289  27.947  42.565   7.931
  430POPC   C4B 8290  27.901  42.511   7.429
  431POPC   NC3 8291  35.170  23.585   9.643
  431POPC   PO4 8292  35.678  23.491   9.195
  431POPC   GL1 8293  35.417  23.716   8.951
  431POPC   GL2 8294  35.157  23.764   9.162
  431POPC   C1A 8295  35.489  23.770   8.537
  431POPC   D2A 8296  35.457  23.381   8.334
  431POPC   C3A 8297  35.584  23.395   7.925
  431POPC   C4A 8298  35.672  23.711   7.652
  431POPC   C1B 8299  34.863  23.775   8.829
  431POPC   C2B 8300  34.824  23.587   8.430
  431POPC   C3B 8301  35.047  23.452   8.054
  431POPC   C4B 8302  35.147  23.668   7.701
  432POPC   NC3 8303  41.167   8.236   9.395
  432POPC   PO4 8304  41.627   8.587   9.664
  432POPC   GL1 8305  41.709   8.433   9.229
  432POPC   GL2 8306  41.631   8.094   9.144
  432POPC   C1A 8307  41.804   8.461   8.761
  432POPC   D2A 8308  41.949   8.507   8.310
  432POPC   C3A 8309  41.741   8.276   7.968
  432POPC   C4A 8310  41.579   8.302   7.554
  432POPC   C1B 8311  41.424   8.125   8.704
  432POPC   C2B 8312  41.359   7.992   8.245
  432POPC   C3B 8313  41.361   7.908   7.792
  432POPC   C4B 8314  41.299   7.875   7.335
  433POPC   NC3 8315  15.983   5.747  10.116
  433POPC   PO4 8316  15.950   5.600   9.462
  433POPC   GL1 8317  16.015   5.515   9.050
  433POPC   GL2 8318  16.200   5.790   9.069
  433POPC   C1A 8319  16.042   5.462   8.590
  433POPC   D2A 8320  15.799   5.485   8.195
  433POPC   C3A 8321  16.021   5.689   7.837
  433POPC   C4A 8322  16.281   5.725   7.458
  433POPC   C1B 8323  15.998   5.995   8.761
  433POPC   C2B 8324  16.010   5.948   8.341
  433POPC   C3B 8325  15.903   6.170   8.001
  433POPC   C4B 8326  15.998   6.158   7.535
  434POPC   NC3 8327  28.291   0.096   9.348
  434POPC   PO4 8328  28.089   0.528   9.829
  434POPC   GL1 8329  28.449   0.605   9.325
  434POPC   GL2 8330  28.393   0.381   8.972
  434POPC   C1A 8331  28.291   0.842   8.880
  434POPC   D2A 8332  28.160   0.592   8.529
  434POPC   C3A 8333  28.505   0.500   8.236
  434POPC   C4A 8334  28.446   0.494   7.780
  434POPC   C1B 8335  28.602   0.042   8.783
  434POPC   C2B 8336  28.812   0.037   8.397
  434POPC   C3B 8337  28.530   0.025   8.022
  434POPC   C4B 8338  28.554   0.042   7.583
  435POPC   NC3 8339  10.312  21.183   9.425
  435POPC   PO4 8340  10.558  21.798   9.289
  435POPC   GL1 8341  10.597  21.442   9.053
  435POPC   GL2 8342  10.293  21.444   8.994
  435POPC   C1A 8343  10.843  21.133   8.802
  435POPC   D2A 8344  11.115  21.177   8.440
  435POPC   C3A 8345  10.887  21.212   8.067
  435POPC   C4A 8346  10.626  21.150   7.692
  435POPC   C1B 8347  10.370  21.216   8.616
  435POPC   C2B 8348  10.381  21.207   8.157
  435POPC   C3B 8349  10.181  20.979   7.811
  435POPC   C4B 8350  10.259  20.851   7.352
  436POPC   NC3 8351   5.236  11.504   9.407
  436POPC   PO4 8352   4.832  11.023   9.579
  436POPC   GL1 8353   5.010  11.144   9.156
  436POPC   GL2 8354   5.390  11.092   9.142
  436POPC   C1A 8355   5.101  11.504   8.785
  436POPC   D2A 8356   5.329  11.623   8.373
  436POPC   C3A 8357   5.069  11.690   8.023
  436POPC   C4A 8358   4.937  11.393   7.740
  436POPC   C1B 8359   5.202  10.994   8.725
  436POPC   C2B 8360   5.214  11.059   8.327
  436POPC   C3B 8361   5.334  11.239   7.988
  436POPC   C4B 8362   5.272  11.096   7.543
  437POPC   NC3 8363  18.036  40.159   9.495
  437POPC   PO4 8364  18.428  39.596   9.574
  437POPC   GL1 8365  18.433  39.879   9.221
  437POPC   GL2 8366  18.100  39.944   9.054
  437POPC   C1A 8367  18.454  39.659   8.843
  437POPC   D2A 8368  18.748  39.595   8.532
  437POPC   C3A 8369  18.585  39.531   8.133
  437POPC   C4A 8370  18.413  39.776   7.823
  437POPC   C1B 8371  18.288  40.115   8.694
  437POPC   C2B 8372  18.167  40.082   8.268
  437POPC   C3B 8373  18.066  40.149   7.847
  437POPC   C4B 8374  18.227  40.492   7.627
  438POPC   NC3 8375  34.681  26.531   9.439
  438POPC   PO4 8376  34.733  27.185   9.688
  438POPC   GL1 8377  34.476  26.960   9.233
  438POPC   GL2 8378  34.684  26.740   8.972
  438POPC   C1A 8379  34.400  27.042   8.730
  438POPC   D2A 8380  34.578  26.856   8.337
  438POPC   C3A 8381  34.534  27.017   7.902
  438POPC   C4A 8382  34.291  26.908   7.525
  438POPC   C1B 8383  34.921  27.054   8.663
  438POPC   C2B 8384  35.069  27.046   8.258
  438POPC   C3B 8385  34.946  26.694   7.996
  438POPC   C4B 8386  34.904  26.803   7.571
  439POPC   NC3 8387  25.518  33.731   9.306
  439POPC   PO4 8388  24.878  33.571   9.373
  439POPC   GL1 8389  25.055  33.737   9.003
  439POPC   GL2 8390  25.197  33.437   8.871
  439POPC   C1A 8391  25.199  34.097   8.711
  439POPC   D2A 8392  25.277  34.217   8.279
  439POPC   C3A 8393  25.018  33.922   7.977
  439POPC   C4A 8394  25.039  33.470   7.876
  439POPC   C1B 8395  25.529  33.679   8.656
  439POPC   C2B 8396  25.730  33.781   8.268
  439POPC   C3B 8397  25.507  33.814   7.856
  439POPC   C4B 8398  25.430  33.512   7.522
  440POPC   NC3 8399   9.106  25.624   9.434
  440POPC   PO4 8400   8.595  26.063   9.459
  440POPC   GL1 8401   8.812  25.926   9.101
  440POPC   GL2 8402   9.155  26.056   9.059
  440POPC   C1A 8403   8.850  25.870   8.665
  440POPC   D2A 8404   8.749  26.098   8.294
  440POPC   C3A 8405   8.841  25.873   7.978
  440POPC   C4A 8406   8.640  25.927   7.625
  440POPC   C1B 8407   9.413  25.789   8.793
  440POPC   C2B 8408   9.293  25.636   8.414
  440POPC   C3B 8409   9.374  25.808   8.024
  440POPC   C4B 8410   9.231  25.938   7.635
  441POPC   NC3 8411   2.330  20.089   9.390
  441POPC   PO4 8412   1.685  19.703   9.457
  441POPC   GL1 8413   1.850  19.889   9.113
  441POPC   GL2 8414   1.709  19.640   8.878
  441POPC   C1A 8415   2.100  20.011   8.752
  441POPC   D2A 8416   2.274  19.914   8.365
  441POPC   C3A 8417   2.026  19.776   8.036
  441POPC   C4A 8418   2.169  19.613   7.661
  441POPC   C1B 8419   1.590  20.054   8.705
  441POPC   C2B 8420   1.529  20.269   8.274
  441POPC   C3B 8421   1.449  20.096   7.880
  441POPC   C4B 8422   1.775  19.933   7.614
  442POPC   NC3 8423  29.380  27.873   9.531
  442POPC   PO4 8424  29.043  28.466   9.529
  442POPC   GL1 8425  29.012  28.416   9.146
  442POPC   GL2 8426  29.047  28.079   9.162
  442POPC   C1A 8427  29.235  28.553   8.786
  442POPC   D2A 8428  29.167  28.733   8.373
  442POPC   C3A 8429  29.454  28.642   8.013
  442POPC   C4A 8430  29.542  28.413   7.590
  442POPC   C1B 8431  28.937  28.140   8.727
  442POPC   C2B 8432  28.855  28.159   8.346
  442POPC   C3B 8433  29.062  28.321   8.086
  442POPC   C4B 8434  29.106  28.234   7.734
  443POPC   NC3 8435  26.606  37.973   9.491
  443POPC   PO4 8436  26.832  38.628   9.537
  443POPC   GL1 8437  26.919  38.534   9.127
  443POPC   GL2 8438  26.926  38.168   9.105
  443POPC   C1A 8439  27.016  38.520   8.709
  443POPC   D2A 8440  26.802  38.702   8.380
  443POPC   C3A 8441  26.642  38.407   8.075
  443POPC   C4A 8442  26.600  38.499   7.643
  443POPC   C1B 8443  26.773  38.016   8.732
  443POPC   C2B 8444  26.954  38.017   8.342
  443POPC   C3B 8445  26.835  37.950   7.943
  443POPC   C4B 8446  27.016  38.201   7.620
  444POPC   NC3 8447  18.137  22.582   9.660
  444POPC   PO4 8448  18.435  21.963   9.551
  444POPC   GL1 8449  18.328  22.101   9.156
  444POPC   GL2 8450  18.635  22.268   9.158
  444POPC   C1A 8451  18.337  22.301   8.729
  444POPC   D2A 8452  18.165  22.322   8.312
  444POPC   C3A 8453  18.376  22.185   7.957
  444POPC   C4A 8454  18.389  22.447   7.580
  444POPC   C1B 8455  18.682  21.946   8.797
  444POPC   C2B 8456  18.424  21.883   8.437
  444POPC   C3B 8457  18.470  21.704   8.110
  444POPC   C4B 8458  18.617  21.773   7.730
  445POPC   NC3 8459   2.855  24.832   9.696
  445POPC   PO4 8460   2.652  25.509   9.420
  445POPC   GL1 8461   2.839  25.432   8.980
  445POPC   GL2 8462   2.940  25.123   8.850
  445POPC   C1A 8463   2.702  25.455   8.552
  445POPC   D2A 8464   2.827  25.235   8.229
  445POPC   C3A 8465   2.684  25.360   7.857
  445POPC   C4A 8466   2.951  25.427   7.539
  445POPC   C1B 8467   2.697  24.898   8.585
  445POPC   C2B 8468   2.533  24.761   8.224
  445POPC   C3B 8469   2.427  24.908   7.812
  445POPC   C4B 8470   2.675  24.955   7.462
  446POPC   NC3 8471  43.695  21.473   9.526
  446POPC   PO4 8472  44.299  21.095   9.546
  446POPC   GL1 8473  43.940  21.175   9.204
  446POPC   GL2 8474  44.165  21.056   9.004
  446POPC   C1A 8475  43.641  21.459   8.888
  446POPC   D2A 8476  43.419  21.518   8.484
  446POPC   C3A 8477  43.554  21.476   8.057
  446POPC   C4A 8478  43.835  21.516   7.745
  446POPC   C1B 8479  43.889  21.084   8.674
  446POPC   C2B 8480  43.921  21.210   8.250
  446POPC   C3B 8481  43.793  21.016   7.861
  446POPC   C4B 8482  43.802  21.032   7.386
  447POPC   NC3 8483  28.622  42.332   9.566
  447POPC   PO4 8484  29.326  42.503   9.518
  447POPC   GL1 8485  29.141  42.484   9.118
  447POPC   GL2 8486  28.853  42.652   9.148
  447POPC   C1A 8487  29.144  42.248   8.722
  447POPC   D2A 8488  29.389  42.204   8.346
  447POPC   C3A 8489  29.133  42.153   7.962
  447POPC   C4A 8490  29.097  42.150   7.494
  447POPC   C1B 8491  28.906  42.783   8.744
  447POPC   C2B 8492  29.115  42.707   8.367
  447POPC   C3B 8493  28.970  42.798   7.958
  447POPC   C4B 8494  29.130  42.730   7.532
  448POPC   NC3 8495  10.704   9.729   9.411
  448POPC   PO4 8496  11.319   9.521   9.487
  448POPC   GL1 8497  11.336   9.758   9.107
  448POPC   GL2 8498  10.999   9.759   9.002
  448POPC   C1A 8499  11.469   9.522   8.744
  448POPC   D2A 8500  11.575   9.316   8.361
  448POPC   C3A 8501  11.433   9.479   7.968
  448POPC   C4A 8502  11.393   9.851   7.781
  448POPC   C1B 8503  11.148   9.902   8.623
  448POPC   C2B 8504  11.051   9.746   8.225
  448POPC   C3B 8505  10.898   9.848   7.838
  448POPC   C4B 8506  11.032   9.927   7.401
  449POPC   NC3 8507  12.267  25.032   9.424
  449POPC   PO4 8508  11.708  25.354   9.745
  449POPC   GL1 8509  11.700  25.257   9.246
  449POPC   GL2 8510  11.956  25.406   9.179
  449POPC   C1A 8511  12.014  25.091   8.802
  449POPC   D2A 8512  12.355  25.174   8.435
  449POPC   C3A 8513  12.185  25.077   8.005
  449POPC   C4A 8514  11.787  25.087   7.758
  449POPC   C1B 8515  11.743  25.524   8.790
  449POPC   C2B 8516  11.943  25.457   8.382
  449POPC   C3B 8517  11.931  25.546   7.946
  449POPC   C4B 8518  12.185  25.394   7.596
  450POPC   NC3 8519  28.175   7.188   9.412
  450POPC   PO4 8520  27.609   7.529   9.450
  450POPC   GL1 8521  27.763   7.351   9.088
  450POPC   GL2 8522  27.828   7.696   9.001
  450POPC   C1A 8523  27.563   7.207   8.678
  450POPC   D2A 8524  27.289   7.296   8.316
  450POPC   C3A 8525  27.431   7.265   7.888
  450POPC   C4A 8526  27.361   7.578   7.580
  450POPC   C1B 8527  27.972   7.516   8.644
  450POPC   C2B 8528  27.814   7.721   8.338
  450POPC   C3B 8529  27.676   7.693   7.984
  450POPC   C4B 8530  27.758   7.871   7.642
  451POPC   NC3 8531  26.376   0.501   9.711
  451POPC   PO4 8532  27.017   0.651   9.464
  451POPC   GL1 8533  26.879   0.417   9.120
  451POPC   GL2 8534  26.581   0.255   9.159
  451POPC   C1A 8535  26.737   0.504   8.693
  451POPC   D2A 8536  26.627   0.681   8.308
  451POPC   C3A 8537  26.788   0.504   7.937
  451POPC   C4A 8538  26.780   0.423   7.452
  451POPC   C1B 8539  26.585   0.008   8.760
  451POPC   C2B 8540  26.608   0.153   8.316
  451POPC   C3B 8541  26.445   0.132   7.880
  451POPC   C4B 8542  26.631  44.958   7.521
  452POPC   NC3 8543  31.101  27.582   9.584
  452POPC   PO4 8544  31.713  27.695   9.705
  452POPC   GL1 8545  31.551  27.641   9.233
  452POPC   GL2 8546  31.273  27.469   9.132
  452POPC   C1A 8547  31.605  27.728   8.799
  452POPC   D2A 8548  31.529  27.852   8.391
  452POPC   C3A 8549  31.680  27.594   8.059
  452POPC   C4A 8550  31.663  27.647   7.636
  452POPC   C1B 8551  31.096  27.700   8.780
  452POPC   C2B 8552  31.016  27.802   8.357
  452POPC   C3B 8553  31.068  27.611   7.952
  452POPC   C4B 8554  31.167  27.586   7.514
  453POPC   NC3 8555   4.072  44.182   9.486
  453POPC   PO4 8556   4.433  43.542   9.477
  453POPC   GL1 8557   4.322  43.831   9.182
  453POPC   GL2 8558   4.561  44.136   9.227
  453POPC   C1A 8559   4.090  43.813   8.777
  453POPC   D2A 8560   3.896  43.963   8.392
  453POPC   C3A 8561   4.226  43.885   8.046
  453POPC   C4A 8562   4.533  43.551   7.883
  453POPC   C1B 8563   4.606  43.984   8.811
  453POPC   C2B 8564   4.594  43.785   8.424
  453POPC   C3B 8565   4.803  43.935   8.080
  453POPC   C4B 8566   4.649  44.066   7.689
  454POPC   NC3 8567  32.745   6.564   9.284
  454POPC   PO4 8568  33.209   6.771   9.717
  454POPC   GL1 8569  33.187   6.748   9.162
  454POPC   GL2 8570  32.982   6.491   8.872
  454POPC   C1A 8571  33.315   6.784   8.705
  454POPC   D2A 8572  32.987   6.764   8.387
  454POPC   C3A 8573  32.948   6.485   8.049
  454POPC   C4A 8574  33.210   6.594   7.723
  454POPC   C1B 8575  32.591   6.612   8.666
  454POPC   C2B 8576  32.444   6.545   8.284
  454POPC   C3B 8577  32.616   6.866   8.045
  454POPC   C4B 8578  32.745   6.928   7.663
  455POPC   NC3 8579  30.866  17.617   9.623
  455POPC   PO4 8580  30.480  17.203   9.513
  455POPC   GL1 8581  30.544  17.495   9.208
  455POPC   GL2 8582  30.806  17.714   9.139
  455POPC   C1A 8583  30.689  17.363   8.792
  455POPC   D2A 8584  30.560  17.556   8.426
  455POPC   C3A 8585  30.673  17.343   8.098
  455POPC   C4A 8586  30.606  17.505   7.733
  455POPC   C1B 8587  30.818  17.864   8.745
  455POPC   C2B 8588  31.019  17.734   8.401
  455POPC   C3B 8589  30.939  17.788   8.010
  455POPC   C4B 8590  30.903  17.898   7.588
  456POPC   NC3 8591  40.526  18.940   9.584
  456POPC   PO4 8592  41.175  19.052   9.318
  456POPC   GL1 8593  40.809  19.028   9.122
  456POPC   GL2 8594  40.578  18.700   9.159
  456POPC   C1A 8595  40.817  19.242   8.728
  456POPC   D2A 8596  40.851  19.018   8.359
  456POPC   C3A 8597  40.685  19.265   8.061
  456POPC   C4A 8598  40.731  19.093   7.661
  456POPC   C1B 8599  40.502  18.838   8.760
  456POPC   C2B 8600  40.342  18.986   8.384
  456POPC   C3B 8601  40.449  18.822   7.984
  456POPC   C4B 8602  40.437  18.689   7.560
  457POPC   NC3 8603  21.975  39.482   9.916
  457POPC   PO4 8604  21.884  39.191   9.339
  457POPC   GL1 8605  22.191  39.225   9.037
  457POPC   GL2 8606  22.332  39.528   9.133
  457POPC   C1A 8607  22.157  39.015   8.640
  457POPC   D2A 8608  22.098  38.809   8.242
  457POPC   C3A 8609  22.295  39.032   7.905
  457POPC   C4A 8610  22.087  39.398   7.693
  457POPC   C1B 8611  22.525  39.420   8.712
  457POPC   C2B 8612  22.354  39.370   8.314
  457POPC   C3B 8613  22.481  39.512   7.938
  457POPC   C4B 8614  22.486  39.714   7.536
  458POPC   NC3 8615   6.418  18.242   9.666
  458POPC   PO4 8616   6.741  18.656   9.208
  458POPC   GL1 8617   6.438  18.375   8.987
  458POPC   GL2 8618   6.369  18.051   9.156
  458POPC   C1A 8619   6.366  18.313   8.539
  458POPC   D2A 8620   6.307  18.595   8.152
  458POPC   C3A 8621   6.534  18.502   7.770
  458POPC   C4A 8622   6.905  18.260   7.711
  458POPC   C1B 8623   6.591  17.903   8.764
  458POPC   C2B 8624   6.868  17.998   8.452
  458POPC   C3B 8625   6.603  18.122   8.111
  458POPC   C4B 8626   6.483  17.924   7.719
  459POPC   NC3 8627  19.523  33.611   9.515
  459POPC   PO4 8628  20.066  33.993   9.489
  459POPC   GL1 8629  19.968  33.797   9.117
  459POPC   GL2 8630  19.633  33.808   9.068
  459POPC   C1A 8631  19.999  33.724   8.681
  459POPC   D2A 8632  20.010  33.987   8.330
  459POPC   C3A 8633  20.206  33.907   7.949
  459POPC   C4A 8634  20.063  33.893   7.496
  459POPC   C1B 8635  19.508  33.604   8.704
  459POPC   C2B 8636  19.676  33.445   8.369
  459POPC   C3B 8637  19.655  33.725   8.049
  459POPC   C4B 8638  19.601  33.825   7.640
  460POPC   NC3 8639  32.296   3.123   9.824
  460POPC   PO4 8640  32.235   2.529   9.549
  460POPC   GL1 8641  32.325   2.665   9.115
  460POPC   GL2 8642  32.668   2.628   9.143
  460POPC   C1A 8643  32.115   2.827   8.743
  460POPC   D2A 8644  32.022   3.171   8.437
  460POPC   C3A 8645  31.988   2.952   8.025
  460POPC   C4A 8646  32.085   3.061   7.603
  460POPC   C1B 8647  32.645   2.862   8.750
  460POPC   C2B 8648  32.406   2.852   8.338
  460POPC   C3B 8649  32.467   2.844   7.902
  460POPC   C4B 8650  32.818   2.936   7.695
  461POPC   NC3 8651  35.472   8.044   9.560
  461POPC   PO4 8652  35.139   8.658   9.760
  461POPC   GL1 8653  35.207   8.395   9.300
  461POPC   GL2 8654  35.551   8.228   9.091
  461POPC   C1A 8655  35.118   8.132   8.886
  461POPC   D2A 8656  35.314   8.135   8.469
  461POPC   C3A 8657  35.192   8.244   8.072
  461POPC   C4A 8658  35.374   8.495   7.731
  461POPC   C1B 8659  35.589   7.854   8.801
  461POPC   C2B 8660  35.421   7.634   8.475
  461POPC   C3B 8661  35.479   7.805   8.086
  461POPC   C4B 8662  35.390   7.995   7.684
  462POPC   NC3 8663   6.710  33.492   9.567
  462POPC   PO4 8664   6.857  32.853   9.607
  462POPC   GL1 8665   6.706  33.025   9.203
  462POPC   GL2 8666   6.363  33.016   9.057
  462POPC   C1A 8667   6.747  32.934   8.749
  462POPC   D2A 8668   6.401  32.726   8.531
  462POPC   C3A 8669   6.437  32.780   8.079
  462POPC   C4A 8670   6.732  32.845   7.733
  462POPC   C1B 8671   6.309  33.247   8.682
  462POPC   C2B 8672   6.562  33.229   8.338
  462POPC   C3B 8673   6.943  33.173   8.123
  462POPC   C4B 8674   6.775  33.339   7.779
  463POPC   NC3 8675  16.025   6.713   9.509
  463POPC   PO4 8676  16.068   6.067   9.783
  463POPC   GL1 8677  16.045   6.258   9.239
  463POPC   GL2 8678  16.337   6.285   9.014
  463POPC   C1A 8679  15.915   6.505   8.818
  463POPC   D2A 8680  15.999   6.534   8.373
  463POPC   C3A 8681  15.700   6.658   8.077
  463POPC   C4A 8682  15.563   6.841   7.735
  463POPC   C1B 8683  16.421   6.688   8.741
  463POPC   C2B 8684  16.223   7.017   8.483
  463POPC   C3B 8685  16.091   6.979   8.072
  463POPC   C4B 8686  16.113   6.575   7.805
  464POPC   NC3 8687  20.786  11.911   9.505
  464POPC   PO4 8688  21.395  12.211   9.490
  464POPC   GL1 8689  21.570  12.078   9.098
  464POPC   GL2 8690  21.225  11.996   9.040
  464POPC   C1A 8691  21.580  11.857   8.703
  464POPC   D2A 8692  21.264  11.927   8.414
  464POPC   C3A 8693  21.501  12.096   8.073
  464POPC   C4A 8694  21.718  12.165   7.660
  464POPC   C1B 8695  20.868  12.183   8.855
  464POPC   C2B 8696  20.753  12.269   8.430
  464POPC   C3B 8697  20.971  12.163   8.053
  464POPC   C4B 8698  21.196  12.196   7.680
  465POPC   NC3 8699  26.220  36.281   9.983
  465POPC   PO4 8700  25.991  36.680   9.459
  465POPC   GL1 8701  25.956  36.319   9.140
  465POPC   GL2 8702  25.641  36.092   9.188
  465POPC   C1A 8703  26.131  36.171   8.732
  465POPC   D2A 8704  26.213  35.878   8.399
  465POPC   C3A 8705  26.400  36.045   8.038
  465POPC   C4A 8706  26.227  36.217   7.684
  465POPC   C1B 8707  25.779  35.810   8.842
  465POPC   C2B 8708  25.740  35.687   8.388
  465POPC   C3B 8709  25.930  35.839   7.932
  465POPC   C4B 8710  25.963  35.879   7.442
  466POPC   NC3 8711  25.863  16.408   9.441
  466POPC   PO4 8712  26.297  15.926   9.430
  466POPC   GL1 8713  25.940  15.958   9.126
  466POPC   GL2 8714  25.856  15.592   9.110
  466POPC   C1A 8715  25.894  16.095   8.665
  466POPC   D2A 8716  25.720  16.172   8.232
  466POPC   C3A 8717  26.002  16.074   7.922
  466POPC   C4A 8718  26.421  16.244   7.848
  466POPC   C1B 8719  26.170  15.654   8.754
  466POPC   C2B 8720  26.283  15.869   8.317
  466POPC   C3B 8721  26.402  15.733   7.866
  466POPC   C4B 8722  26.521  15.645   7.413
  467POPC   NC3 8723  36.244   7.417   9.667
  467POPC   PO4 8724  35.834   7.818   9.379
  467POPC   GL1 8725  36.158   7.623   9.192
  467POPC   GL2 8726  36.045   7.292   9.205
  467POPC   C1A 8727  36.254   7.542   8.778
  467POPC   D2A 8728  35.903   7.491   8.533
  467POPC   C3A 8729  35.926   7.543   8.108
  467POPC   C4A 8730  35.883   7.796   7.743
  467POPC   C1B 8731  35.966   7.049   8.815
  467POPC   C2B 8732  36.023   7.019   8.352
  467POPC   C3B 8733  35.801   6.957   8.005
  467POPC   C4B 8734  35.838   7.238   7.697
  468POPC   NC3 8735  33.007   6.347   9.680
  468POPC   PO4 8736  32.815   5.687   9.528
  468POPC   GL1 8737  33.058   5.691   9.153
  468POPC   GL2 8738  33.035   6.055   9.144
  468POPC   C1A 8739  32.954   5.758   8.712
  468POPC   D2A 8740  32.858   6.122   8.446
  468POPC   C3A 8741  32.819   5.958   8.024
  468POPC   C4A 8742  33.034   5.794   7.659
  468POPC   C1B 8743  33.314   6.144   8.779
  468POPC   C2B 8744  33.334   6.323   8.365
  468POPC   C3B 8745  33.313   6.141   7.933
  468POPC   C4B 8746  33.516   5.906   7.602
  469POPC   NC3 8747  27.203   3.393   9.830
  469POPC   PO4 8748  27.554   3.785   9.418
  469POPC   GL1 8749  27.629   3.543   9.068
  469POPC   GL2 8750  27.404   3.271   8.953
  469POPC   C1A 8751  27.684   3.688   8.702
  469POPC   D2A 8752  27.625   3.663   8.313
  469POPC   C3A 8753  27.441   4.035   8.175
  469POPC   C4A 8754  27.234   4.056   7.809
  469POPC   C1B 8755  27.282   2.919   8.705
  469POPC   C2B 8756  27.296   2.976   8.268
  469POPC   C3B 8757  27.543   3.235   7.996
  469POPC   C4B 8758  27.546   3.668   7.823
  470POPC   NC3 8759  20.146   6.979   9.392
  470POPC   PO4 8760  19.654   6.515   9.531
  470POPC   GL1 8761  19.749   6.677   9.145
  470POPC   GL2 8762  20.073   6.497   9.164
  470POPC   C1A 8763  19.657   6.458   8.762
  470POPC   D2A 8764  19.561   6.193   8.410
  470POPC   C3A 8765  19.587   6.398   8.027
  470POPC   C4A 8766  19.690   6.623   7.650
  470POPC   C1B 8767  20.158   6.705   8.797
  470POPC   C2B 8768  19.927   6.804   8.450
  470POPC   C3B 8769  20.010   6.669   8.066
  470POPC   C4B 8770  20.139   6.842   7.709
  471POPC   NC3 8771   8.644  28.152   9.385
  471POPC   PO4 8772   8.004  28.162   9.636
  471POPC   GL1 8773   8.050  28.330   9.227
  471POPC   GL2 8774   7.879  28.086   9.108
  471POPC   C1A 8775   8.287  28.558   8.900
  471POPC   D2A 8776   8.541  28.557   8.511
  471POPC   C3A 8777   8.422  28.229   8.217
  471POPC   C4A 8778   8.391  28.243   7.774
  471POPC   C1B 8779   8.097  28.093   8.753
  471POPC   C2B 8780   8.011  27.921   8.385
  471POPC   C3B 8781   7.880  28.028   8.010
  471POPC   C4B 8782   7.986  28.003   7.619
  472POPC   NC3 8783   6.020  41.939   9.519
  472POPC   PO4 8784   5.689  41.376   9.483
  472POPC   GL1 8785   5.741  41.688   9.157
  472POPC   GL2 8786   5.488  41.884   9.067
  472POPC   C1A 8787   5.889  41.665   8.727
  472POPC   D2A 8788   5.901  41.436   8.303
  472POPC   C3A 8789   5.884  41.572   7.852
  472POPC   C4A 8790   6.204  41.478   7.492
  472POPC   C1B 8791   5.587  42.075   8.729
  472POPC   C2B 8792   5.643  41.887   8.345
  472POPC   C3B 8793   5.449  41.853   7.982
  472POPC   C4B 8794   5.570  41.999   7.606
  473POPC   NC3 8795  13.508  44.223   9.485
  473POPC   PO4 8796  13.862  43.565   9.459
  473POPC   GL1 8797  13.683  43.847   9.150
  473POPC   GL2 8798  13.840  44.134   9.098
  473POPC   C1A 8799  13.742  43.850   8.693
  473POPC   D2A 8800  13.612  43.617   8.335
  473POPC   C3A 8801  13.619  43.669   7.904
  473POPC   C4A 8802  13.246  43.810   7.764
  473POPC   C1B 8803  13.409  44.205   8.857
  473POPC   C2B 8804  13.311  44.025   8.462
  473POPC   C3B 8805  13.508  44.150   8.078
  473POPC   C4B 8806  13.281  44.322   7.761
  474POPC   NC3 8807   4.587  32.341   9.584
  474POPC   PO4 8808   4.168  32.843   9.484
  474POPC   GL1 8809   4.336  32.510   9.192
  474POPC   GL2 8810   4.146  32.234   9.081
  474POPC   C1A 8811   4.460  32.513   8.764
  474POPC   D2A 8812   4.459  32.280   8.374
  474POPC   C3A 8813   4.426  32.474   7.950
  474POPC   C4A 8814   4.540  32.334   7.537
  474POPC   C1B 8815   4.036  31.922   8.776
  474POPC   C2B 8816   4.065  31.960   8.331
  474POPC   C3B 8817   4.131  31.988   7.882
  474POPC   C4B 8818   4.097  31.646   7.577
  475POPC   NC3 8819  24.104   8.814   9.516
  475POPC   PO4 8820  23.593   9.283   9.434
  475POPC   GL1 8821  23.770   9.022   9.126
  475POPC   GL2 8822  23.943   8.708   9.035
  475POPC   C1A 8823  23.662   9.041   8.697
  475POPC   D2A 8824  23.609   9.210   8.302
  475POPC   C3A 8825  23.639   8.949   7.943
  475POPC   C4A 8826  23.671   8.757   7.559
  475POPC   C1B 8827  24.148   9.009   8.787
  475POPC   C2B 8828  24.280   9.139   8.435
  475POPC   C3B 8829  24.133   9.051   8.056
  475POPC   C4B 8830  24.078   9.072   7.636
  476POPC   NC3 8831   0.297   2.164   9.499
  476POPC   PO4 8832   0.817   1.832   9.587
  476POPC   GL1 8833   0.670   2.027   9.191
  476POPC   GL2 8834   0.641   1.736   9.049
  476POPC   C1A 8835   0.340   2.194   8.853
  476POPC   D2A 8836   0.144   2.079   8.419
  476POPC   C3A 8837   0.271   2.181   7.965
  476POPC   C4A 8838   0.226   2.019   7.513
  476POPC   C1B 8839   0.550   1.793   8.620
  476POPC   C2B 8840   0.414   1.640   8.224
  476POPC   C3B 8841   0.568   1.767   7.823
  476POPC   C4B 8842   0.601   1.729   7.349
  477POPC   NC3 8843  15.401  25.796   9.531
  477POPC   PO4 8844  14.767  25.977   9.498
  477POPC   GL1 8845  14.960  25.968   9.127
  477POPC   GL2 8846  15.279  26.151   9.111
  477POPC   C1A 8847  14.974  25.707   8.782
  477POPC   D2A 8848  15.237  25.733   8.450
  477POPC   C3A 8849  15.165  25.998   8.169
  477POPC   C4A 8850  15.099  25.757   7.811
  477POPC   C1B 8851  15.106  26.208   8.689
  477POPC   C2B 8852  14.946  26.444   8.363
  477POPC   C3B 8853  15.117  26.488   8.003
  477POPC   C4B 8854  15.351  26.208   7.748
  478POPC   NC3 8855   7.626  33.649   9.608
  478POPC   PO4 8856   7.234  34.132   9.334
  478POPC   GL1 8857   7.310  33.821   9.041
  478POPC   GL2 8858   7.632  33.672   9.103
  478POPC   C1A 8859   7.410  33.798   8.615
  478POPC   D2A 8860   7.332  33.521   8.275
  478POPC   C3A 8861   7.542  33.659   7.912
  478POPC   C4A 8862   7.461  33.747   7.447
  478POPC   C1B 8863   7.886  33.617   8.758
  478POPC   C2B 8864   7.842  33.541   8.331
  478POPC   C3B 8865   8.015  33.429   7.937
  478POPC   C4B 8866   7.759  33.343   7.572
  479POPC   NC3 8867  13.199  24.470   9.449
  479POPC   PO4 8868  12.692  24.855   9.538
  479POPC   GL1 8869  12.627  24.578   9.186
  479POPC   GL2 8870  12.804  24.245   9.133
  479POPC   C1A 8871  12.548  24.499   8.765
  479POPC   D2A 8872  12.751  24.540   8.369
  479POPC   C3A 8873  12.636  24.845   8.087
  479POPC   C4A 8874  12.607  24.790   7.648
  479POPC   C1B 8875  12.955  24.172   8.688
  479POPC   C2B 8876  12.816  24.048   8.250
  479POPC   C3B 8877  12.798  24.352   7.875
  479POPC   C4B 8878  13.098  24.621   7.621
  480POPC   NC3 8879  21.914  22.861   9.516
  480POPC   PO4 8880  21.248  23.174   9.510
  480POPC   GL1 8881  21.428  23.083   9.102
  480POPC   GL2 8882  21.618  22.782   9.115
  480POPC   C1A 8883  21.392  23.162   8.639
  480POPC   D2A 8884  21.062  23.307   8.363
  480POPC   C3A 8885  20.916  23.195   7.958
  480POPC   C4A 8886  21.221  23.129   7.661
  480POPC   C1B 8887  21.267  22.694   8.838
  480POPC   C2B 8888  21.163  22.750   8.445
  480POPC   C3B 8889  21.282  22.880   8.103
  480POPC   C4B 8890  21.239  22.595   7.786
  481POPC   NC3 8891  14.660   7.286   9.670
  481POPC   PO4 8892  14.103   7.653   9.601
  481POPC   GL1 8893  14.284   7.361   9.256
  481POPC   GL2 8894  14.650   7.264   9.162
  481POPC   C1A 8895  14.280   7.224   8.808
  481POPC   D2A 8896  14.081   7.351   8.424
  481POPC   C3A 8897  14.342   7.437   8.063
  481POPC   C4A 8898  14.473   7.490   7.630
  481POPC   C1B 8899  14.787   7.270   8.730
  481POPC   C2B 8900  14.905   7.301   8.309
  481POPC   C3B 8901  14.793   7.212   7.913
  481POPC   C4B 8902  14.731   7.081   7.494
  482POPC   NC3 8903  39.403  18.558   9.544
  482POPC   PO4 8904  38.840  18.164   9.565
  482POPC   GL1 8905  39.012  18.025   9.152
  482POPC   GL2 8906  39.263  18.259   9.128
  482POPC   C1A 8907  39.014  18.076   8.717
  482POPC   D2A 8908  38.872  17.846   8.359
  482POPC   C3A 8909  38.907  18.104   8.025
  482POPC   C4A 8910  39.113  18.182   7.648
  482POPC   C1B 8911  39.282  18.506   8.767
  482POPC   C2B 8912  39.218  18.399   8.347
  482POPC   C3B 8913  39.283  18.572   7.931
  482POPC   C4B 8914  39.657  18.451   7.701
  483POPC   NC3 8915   8.737  27.260   9.425
  483POPC   PO4 8916   8.951  27.845   9.670
  483POPC   GL1 8917   9.047  27.663   9.219
  483POPC   GL2 8918   8.777  27.486   8.981
  483POPC   C1A 8919   9.127  27.737   8.757
  483POPC   D2A 8920   8.853  27.510   8.465
  483POPC   C3A 8921   8.824  27.678   8.089
  483POPC   C4A 8922   9.191  27.698   7.847
  483POPC   C1B 8923   9.091  27.225   8.824
  483POPC   C2B 8924   9.124  27.086   8.389
  483POPC   C3B 8925   9.027  27.198   7.967
  483POPC   C4B 8926   8.741  27.349   7.685
  484POPC   NC3 8927  35.619  41.419   9.378
  484POPC   PO4 8928  35.092  41.758   9.539
  484POPC   GL1 8929  35.175  41.571   9.126
  484POPC   GL2 8930  34.992  41.733   8.864
  484POPC   C1A 8931  35.400  41.481   8.717
  484POPC   D2A 8932  35.199  41.695   8.373
  484POPC   C3A 8933  35.295  41.596   7.957
  484POPC   C4A 8934  35.552  41.708   7.610
  484POPC   C1B 8935  34.894  41.344   8.701
  484POPC   C2B 8936  35.133  41.200   8.354
  484POPC   C3B 8937  35.044  41.138   7.932
  484POPC   C4B 8938  34.991  41.426   7.591
  485POPC   NC3 8939  43.835  34.291   9.905
  485POPC   PO4 8940  43.941  33.645   9.593
  485POPC   GL1 8941  43.981  33.671   9.145
  485POPC   GL2 8942  44.191  33.373   9.148
  485POPC   C1A 8943  44.016  33.938   8.748
  485POPC   D2A 8944  43.779  34.046   8.375
  485POPC   C3A 8945  43.952  34.026   7.962
  485POPC   C4A 8946  43.612  33.792   7.743
  485POPC   C1B 8947  44.164  33.450   8.705
  485POPC   C2B 8948  44.161  33.668   8.324
  485POPC   C3B 8949  43.980  33.514   7.983
  485POPC   C4B 8950  44.162  33.323   7.677
  486POPC   NC3 8951  42.750   9.318   9.782
  486POPC   PO4 8952  43.415   9.157   9.609
  486POPC   GL1 8953  43.207   9.024   9.204
  486POPC   GL2 8954  43.005   8.716   9.149
  486POPC   C1A 8955  43.364   8.856   8.818
  486POPC   D2A 8956  43.438   9.051   8.439
  486POPC   C3A 8957  43.568   8.917   8.073
  486POPC   C4A 8958  43.367   8.781   7.714
  486POPC   C1B 8959  42.820   8.815   8.758
  486POPC   C2B 8960  42.946   8.943   8.354
  486POPC   C3B 8961  42.765   8.963   7.952
  486POPC   C4B 8962  42.858   8.746   7.579
  487POPC   NC3 8963  41.248  23.389   9.497
  487POPC   PO4 8964  41.697  23.915   9.326
  487POPC   GL1 8965  41.439  23.672   9.089
  487POPC   GL2 8966  41.156  23.822   9.148
  487POPC   C1A 8967  41.558  23.640   8.678
  487POPC   D2A 8968  41.688  23.778   8.296
  487POPC   C3A 8969  41.589  23.516   7.998
  487POPC   C4A 8970  41.723  23.524   7.615
  487POPC   C1B 8971  41.125  23.967   8.732
  487POPC   C2B 8972  41.211  24.045   8.325
  487POPC   C3B 8973  41.178  23.828   7.970
  487POPC   C4B 8974  41.266  23.858   7.548
  488POPC   NC3 8975  33.783  22.773   9.507
  488POPC   PO4 8976  33.454  23.379   9.502
  488POPC   GL1 8977  33.743  23.166   9.146
  488POPC   GL2 8978  33.890  22.807   9.028
  488POPC   C1A 8979  33.956  23.204   8.735
  488POPC   D2A 8980  33.804  22.989   8.369
  488POPC   C3A 8981  33.882  23.228   8.007
  488POPC   C4A 8982  33.727  23.130   7.593
  488POPC   C1B 8983  33.935  22.534   8.665
  488POPC   C2B 8984  34.054  22.544   8.221
  488POPC   C3B 8985  33.857  22.731   7.859
  488POPC   C4B 8986  33.975  22.740   7.388
  489POPC   NC3 8987  23.188   3.256   9.451
  489POPC   PO4 8988  22.669   3.666   9.637
  489POPC   GL1 8989  22.736   3.467   9.246
  489POPC   GL2 8990  23.050   3.591   9.108
  489POPC   C1A 8991  22.667   3.398   8.796
  489POPC   D2A 8992  22.990   3.527   8.520
  489POPC   C3A 8993  22.859   3.643   8.122
  489POPC   C4A 8994  23.049   3.368   7.817
  489POPC   C1B 8995  23.004   3.915   8.868
  489POPC   C2B 8996  23.084   4.034   8.478
  489POPC   C3B 8997  23.298   3.881   8.136
  489POPC   C4B 8998  23.082   3.899   7.738
  490POPC   NC3 8999  42.850  14.964   9.636
  490POPC   PO4 9000  43.112  15.543   9.563
  490POPC   GL1 9001  43.303  15.359   9.177
  490POPC   GL2 9002  43.372  15.028   9.275
  490POPC   C1A 9003  43.468  15.150   8.776
  490POPC   D2A 9004  43.374  14.935   8.369
  490POPC   C3A 9005  43.257  15.260   8.098
  490POPC   C4A 9006  43.154  15.341   7.709
  490POPC   C1B 9007  43.016  15.002   8.947
  490POPC   C2B 9008  42.954  15.184   8.513
  490POPC   C3B 9009  42.739  15.279   8.103
  490POPC   C4B 9010  42.721  15.090   7.664
  491POPC   NC3 9011   8.076  19.160   9.458
  491POPC   PO4 9012   8.604  19.632   9.355
  491POPC   GL1 9013   8.371  19.348   9.091
  491POPC   GL2 9014   8.424  18.995   9.100
  491POPC   C1A 9015   8.063  19.272   8.792
  491POPC   D2A 9016   8.246  19.339   8.400
  491POPC   C3A 9017   8.040  19.284   8.062
  491POPC   C4A 9018   8.135  19.029   7.748
  491POPC   C1B 9019   8.433  18.955   8.672
  491POPC   C2B 9020   8.297  18.833   8.233
  491POPC   C3B 9021   8.583  18.804   7.866
  491POPC   C4B 9022   8.780  18.862   7.491
  492POPC   NC3 9023  18.622  27.272   9.661
  492POPC   PO4 9024  18.975  27.851   9.507
  492POPC   GL1 9025  19.090  27.695   9.064
  492POPC   GL2 9026  19.404  27.887   9.048
  492POPC   C1A 9027  19.037  27.343   8.693
  492POPC   D2A 9028  18.785  27.356   8.291
  492POPC   C3A 9029  19.042  27.448   7.912
  492POPC   C4A 9030  18.958  27.642   7.484
  492POPC   C1B 9031  19.445  27.639   8.679
  492POPC   C2B 9032  19.427  27.465   8.260
  492POPC   C3B 9033  19.550  27.681   7.842
  492POPC   C4B 9034  19.690  27.801   7.375
  493POPC   NC3 9035  37.238  43.206   9.886
  493POPC   PO4 9036  36.725  42.987   9.446
  493POPC   GL1 9037  36.849  43.036   9.064
  493POPC   GL2 9038  37.206  43.122   9.002
  493POPC   C1A 9039  36.593  43.191   8.802
  493POPC   D2A 9040  36.661  43.375   8.464
  493POPC   C3A 9041  36.755  43.186   8.103
  493POPC   C4A 9042  36.889  43.405   7.735
  493POPC   C1B 9043  37.275  42.826   8.690
  493POPC   C2B 9044  37.239  43.044   8.325
  493POPC   C3B 9045  37.226  43.045   7.925
  493POPC   C4B 9046  36.845  42.891   7.706
  494POPC   NC3 9047  18.546  36.445   9.579
  494POPC   PO4 9048  18.354  35.813   9.462
  494POPC   GL1 9049  18.540  36.034   9.162
  494POPC   GL2 9050  18.296  36.296   9.154
  494POPC   C1A 9051  18.476  35.939   8.728
  494POPC   D2A 9052  18.287  36.019   8.319
  494POPC   C3A 9053  18.463  35.953   7.918
  494POPC   C4A 9054  18.361  35.976   7.478
  494POPC   C1B 9055  17.938  36.351   8.883
  494POPC   C2B 9056  17.907  36.342   8.399
  494POPC   C3B 9057  18.168  36.407   7.978
  494POPC   C4B 9058  18.047  36.373   7.490
  495POPC   NC3 9059   9.935  10.477   9.588
  495POPC   PO4 9060   9.264  10.369   9.679
  495POPC   GL1 9061   9.470  10.479   9.255
  495POPC   GL2 9062   9.716  10.778   9.210
  495POPC   C1A 9063   9.477  10.564   8.779
  495POPC   D2A 9064   9.744  10.348   8.457
  495POPC   C3A 9065   9.763  10.473   8.030
  495POPC   C4A 9066   9.922  10.330   7.674
  495POPC   C1B 9067   9.762  10.989   8.815
  495POPC   C2B 9068   9.719  10.861   8.400
  495POPC   C3B 9069   9.611  10.954   8.001
  495POPC   C4B 9070   9.890  10.877   7.681
  496POPC   NC3 9071  20.775  42.066   9.541
  496POPC   PO4 9072  20.362  42.498   9.386
  496POPC   GL1 9073  20.543  42.175   9.092
  496POPC   GL2 9074  20.875  42.276   9.052
  496POPC   C1A 9075  20.584  42.060   8.666
  496POPC   D2A 9076  20.565  42.249   8.270
  496POPC   C3A 9077  20.327  42.095   7.913
  496POPC   C4A 9078  20.478  42.212   7.475
  496POPC   C1B 9079  21.057  42.246   8.623
  496POPC   C2B 9080  21.090  42.111   8.184
  496POPC   C3B 9081  20.839  42.237   7.848
  496POPC   C4B 9082  20.908  42.654   7.612
  497POPC   NC3 9083  34.513  19.384   9.498
  497POPC   PO4 9084  34.857  19.992   9.525
  497POPC   GL1 9085  34.703  19.809   9.158
  497POPC   GL2 9086  34.359  19.734   9.175
  497POPC   C1A 9087  34.814  19.918   8.747
  497POPC   D2A 9088  34.896  19.846   8.334
  497POPC   C3A 9089  34.671  20.026   8.029
  497POPC   C4A 9090  34.771  19.714   7.803
  497POPC   C1B 9091  34.324  19.979   8.818
  497POPC   C2B 9092  34.356  20.072   8.426
  497POPC   C3B 9093  34.157  19.933   8.042
  497POPC   C4B 9094  34.244  19.678   7.697
  498POPC   NC3 9095  21.644   9.285   9.445
  498POPC   PO4 9096  21.315   8.651   9.443
  498POPC   GL1 9097  21.536   8.858   9.165
  498POPC   GL2 9098  21.255   9.118   9.177
  498POPC   C1A 9099  21.605   9.055   8.789
  498POPC   D2A 9100  21.396   9.251   8.460
  498POPC   C3A 9101  21.436   8.994   8.121
  498POPC   C4A 9102  21.441   9.074   7.711
  498POPC   C1B 9103  21.106   8.854   8.839
  498POPC   C2B 9104  20.974   8.913   8.426
  498POPC   C3B 9105  21.008   8.761   8.019
  498POPC   C4B 9106  21.209   8.603   7.679
  499POPC   NC3 9107  34.410   2.360   9.307
  499POPC   PO4 9108  34.645   1.938   9.690
  499POPC   GL1 9109  34.697   1.943   9.183
  499POPC   GL2 9110  34.426   1.825   9.158
  499POPC   C1A 9111  34.790   2.166   8.712
  499POPC   D2A 9112  34.899   2.201   8.229
  499POPC   C3A 9113  34.736   2.246   7.749
  499POPC   C4A 9114  34.505   1.883   7.524
  499POPC   C1B 9115  34.316   2.032   8.778
  499POPC   C2B 9116  34.324   1.873   8.406
  499POPC   C3B 9117  34.432   1.991   8.056
  499POPC   C4B 9118  34.185   2.164   7.800
  500POPC   NC3 9119  17.789  41.665   9.151
  500POPC   PO4 9120  17.354  41.457   9.592
  500POPC   GL1 9121  17.209  41.428   9.167
  500POPC   GL2 9122  17.274  41.761   9.143
  500POPC   C1A 9123  17.391  41.345   8.731
  500POPC   D2A 9124  17.512  41.617   8.386
  500POPC   C3A 9125  17.846  41.582   8.080
  500POPC   C4A 9126  17.841  41.312   7.692
  500POPC   C1B 9127  17.260  41.956   8.760
  500POPC   C2B 9128  17.321  42.116   8.359
  500POPC   C3B 9129  17.516  41.978   8.022
  500POPC   C4B 9130  17.381  41.552   7.848
  501POPC   NC3 9131   5.449  30.246   9.818
  501POPC   PO4 9132   5.788  30.634   9.371
  501POPC   GL1 9133   5.855  30.817   9.024
  501POPC   GL2 9134   6.105  31.058   9.099
  501POPC   C1A 9135   5.780  30.656   8.655
  501POPC   D2A 9136   5.910  30.604   8.289
  501POPC   C3A 9137   5.605  30.622   8.044
  501POPC   C4A 9138   5.591  30.569   7.649
  501POPC   C1B 9139   5.955  31.191   8.692
  501POPC   C2B 9140   6.118  31.041   8.320
  501POPC   C3B 9141   5.951  30.965   7.874
  501POPC   C4B 9142   6.161  31.014   7.445
  502POPC   NC3 9143  29.610   9.895   9.477
  502POPC   PO4 9144  30.091   9.371   9.472
  502POPC   GL1 9145  29.885   9.475   9.072
  502POPC   GL2 9146  29.776   9.808   9.021
  502POPC   C1A 9147  29.779   9.492   8.618
  502POPC   D2A 9148  29.925   9.715   8.231
  502POPC   C3A 9149  29.782   9.502   7.839
  502POPC   C4A 9150  29.905   9.425   7.404
  502POPC   C1B 9151  29.539   9.986   8.718
  502POPC   C2B 9152  29.430   9.812   8.348
  502POPC   C3B 9153  29.484   9.894   7.936
  502POPC   C4B 9154  29.737   9.932   7.563
  503POPC   NC3 9155   2.919  32.556   9.468
  503POPC   PO4 9156   2.451  32.037   9.543
  503POPC   GL1 9157   2.758  32.097   9.244
  503POPC   GL2 9158   2.590  32.387   9.110
  503POPC   C1A 9159   2.941  32.084   8.833
  503POPC   D2A 9160   2.754  32.099   8.438
  503POPC   C3A 9161   2.939  32.116   8.050
  503POPC   C4A 9162   2.646  32.047   7.766
  503POPC   C1B 9163   2.495  32.674   8.783
  503POPC   C2B 9164   2.671  32.602   8.411
  503POPC   C3B 9165   2.509  32.430   8.063
  503POPC   C4B 9166   2.510  32.721   7.752
  504POPC   NC3 9167  43.826   0.594   9.463
  504POPC   PO4 9168  43.875  44.976   9.434
  504POPC   GL1 9169  44.047   0.263   9.104
  504POPC   GL2 9170  44.244   0.561   9.153
  504POPC   C1A 9171  43.890   0.460   8.731
  504POPC   D2A 9172  43.769   0.267   8.344
  504POPC   C3A 9173  43.963   0.293   7.988
  504POPC   C4A 9174  43.884   0.156   7.592
  504POPC   C1B 9175  44.283   0.812   8.765
  504POPC   C2B 9176  44.159   0.687   8.344
  504POPC   C3B 9177  43.761   0.748   8.121
  504POPC   C4B 9178  43.881   0.702   7.687
  505POPC   NC3 9179  13.391  32.743   9.390
  505POPC   PO4 9180  13.329  33.321   9.502
  505POPC   GL1 9181  13.629  33.154   9.136
  505POPC   GL2 9182  13.529  32.844   8.923
  505POPC   C1A 9183  13.984  33.027   8.808
  505POPC   D2A 9184  13.942  32.908   8.361
  505POPC   C3A 9185  13.634  33.167   8.134
  505POPC   C4A 9186  13.649  33.357   7.707
  505POPC   C1B 9187  13.466  33.198   8.642
  505POPC   C2B 9188  13.140  33.189   8.336
  505POPC   C3B 9189  13.178  33.001   7.941
  505POPC   C4B 9190  13.267  33.051   7.532
  506POPC   NC3 9191  27.376  28.923   9.510
  506POPC   PO4 9192  27.882  29.278   9.602
  506POPC   GL1 9193  27.823  29.088   9.220
  506POPC   GL2 9194  27.773  29.426   9.110
  506POPC   C1A 9195  27.643  28.966   8.809
  506POPC   D2A 9196  27.590  28.684   8.447
  506POPC   C3A 9197  27.434  28.920   8.095
  506POPC   C4A 9198  27.497  28.923   7.672
  506POPC   C1B 9199  27.421  29.454   8.833
  506POPC   C2B 9200  27.384  29.307   8.415
  506POPC   C3B 9201  27.442  29.421   7.978
  506POPC   C4B 9202  27.774  29.701   7.848
  507POPC   NC3 9203  11.999  39.592   9.445
  507POPC   PO4 9204  12.426  40.021   9.615
  507POPC   GL1 9205  12.142  40.026   9.210
  507POPC   GL2 9206  12.110  39.741   8.984
  507POPC   C1A 9207  11.949  40.214   8.829
  507POPC   D2A 9208  11.735  40.191   8.399
  507POPC   C3A 9209  12.000  40.251   7.991
  507POPC   C4A 9210  12.164  40.053   7.600
  507POPC   C1B 9211  11.725  39.769   8.783
  507POPC   C2B 9212  11.761  39.682   8.359
  507POPC   C3B 9213  12.061  39.723   8.042
  507POPC   C4B 9214  12.003  39.535   7.637
  508POPC   NC3 9215  12.672  23.745   9.414
  508POPC   PO4 9216  11.959  23.751   9.485
  508POPC   GL1 9217  11.933  23.677   9.079
  508POPC   GL2 9218  12.292  23.722   9.083
  508POPC   C1A 9219  12.104  23.561   8.663
  508POPC   D2A 9220  12.033  23.759   8.317
  508POPC   C3A 9221  12.223  23.557   8.032
  508POPC   C4A 9222  12.002  23.682   7.723
  508POPC   C1B 9223  12.480  23.977   8.777
  508POPC   C2B 9224  12.355  24.179   8.404
  508POPC   C3B 9225  12.357  24.046   7.972
  508POPC   C4B 9226  12.562  23.968   7.582
  509POPC   NC3 9227  41.782  31.151   9.261
  509POPC   PO4 9228  41.160  31.272   9.382
  509POPC   GL1 9229  41.340  31.467   9.063
  509POPC   GL2 9230  41.663  31.655   9.130
  509POPC   C1A 9231  41.480  31.283   8.685
  509POPC   D2A 9232  41.673  31.475   8.354
  509POPC   C3A 9233  41.468  31.449   7.953
  509POPC   C4A 9234  41.709  31.221   7.690
  509POPC   C1B 9235  41.966  31.744   8.776
  509POPC   C2B 9236  42.142  31.710   8.351
  509POPC   C3B 9237  41.900  31.720   7.972
  509POPC   C4B 9238  41.813  31.708   7.547
  510POPC   NC3 9239   8.615  36.484   9.441
  510POPC   PO4 9240   9.037  35.996   9.496
  510POPC   GL1 9241   8.990  36.240   9.130
  510POPC   GL2 9242   8.695  36.082   9.090
  510POPC   C1A 9243   8.853  36.439   8.723
  510POPC   D2A 9244   8.973  36.578   8.290
  510POPC   C3A 9245   8.860  36.370   7.892
  510POPC   C4A 9246   9.069  36.380   7.468
  510POPC   C1B 9247   8.808  35.918   8.722
  510POPC   C2B 9248   8.744  36.086   8.336
  510POPC   C3B 9249   8.791  35.863   7.973
  510POPC   C4B 9250   8.853  35.923   7.570
  511POPC   NC3 9251  10.851  41.508   9.642
  511POPC   PO4 9252  10.471  41.984   9.548
  511POPC   GL1 9253  10.664  41.716   9.190
  511POPC   GL2 9254  10.603  41.340   9.169
  511POPC   C1A 9255  10.527  41.653   8.751
  511POPC   D2A 9256  10.573  41.841   8.341
  511POPC   C3A 9257  10.440  41.613   7.999
  511POPC   C4A 9258  10.268  41.874   7.696
  511POPC   C1B 9259  10.804  41.212   8.772
  511POPC   C2B 9260  10.811  41.399   8.353
  511POPC   C3B 9261  10.788  41.216   7.956
  511POPC   C4B 9262  10.483  41.141   7.595
  512POPC   NC3 9263  30.011  32.285   9.529
  512POPC   PO4 9264  30.671  32.149   9.496
  512POPC   GL1 9265  30.462  32.169   9.150
  512POPC   GL2 9266  30.341  32.535   9.207
  512POPC   C1A 9267  30.705  32.005   8.806
  512POPC   D2A 9268  30.864  31.924   8.411
  512POPC   C3A 9269  30.929  32.196   8.087
  512POPC   C4A 9270  30.841  31.977   7.711
  512POPC   C1B 9271  30.634  32.549   8.851
  512POPC   C2B 9272  30.593  32.391   8.445
  512POPC   C3B 9273  30.436  32.239   8.055
  512POPC   C4B 9274  30.540  32.376   7.645
  513POPC   NC3 9275   9.391  24.647   9.359
  513POPC   PO4 9276   8.774  24.504   9.584
  513POPC   GL1 9277   8.942  24.393   9.182
  513POPC   GL2 9278   8.967  24.682   9.073
  513POPC   C1A 9279   9.024  24.263   8.721
  513POPC   D2A 9280   9.275  24.284   8.367
  513POPC   C3A 9281   9.069  24.336   7.983
  513POPC   C4A 9282   9.025  24.663   7.684
  513POPC   C1B 9283   8.659  24.602   8.755
  513POPC   C2B 9284   8.813  24.609   8.369
  513POPC   C3B 9285   8.635  24.634   7.998
  513POPC   C4B 9286   8.512  24.863   7.682
  514POPC   NC3 9287  40.775  22.508   9.520
  514POPC   PO4 9288  40.636  21.812   9.412
  514POPC   GL1 9289  40.772  22.143   9.142
  514POPC   GL2 9290  40.519  22.422   9.100
  514POPC   C1A 9291  40.988  22.163   8.755
  514POPC   D2A 9292  41.195  21.989   8.398
  514POPC   C3A 9293  41.047  22.151   8.035
  514POPC   C4A 9294  40.793  22.070   7.689
  514POPC   C1B 9295  40.477  22.262   8.693
  514POPC   C2B 9296  40.605  22.198   8.272
  514POPC   C3B 9297  40.458  22.414   7.891
  514POPC   C4B 9298  40.373  22.266   7.477
  515POPC   NC3 9299  15.466  33.980   9.415
  515POPC   PO4 9300  14.809  33.670   9.472
  515POPC   GL1 9301  15.104  33.774   9.064
  515POPC   GL2 9302  15.279  34.069   8.942
  515POPC   C1A 9303  15.144  33.668   8.608
  515POPC   D2A 9304  14.843  33.481   8.254
  515POPC   C3A 9305  15.063  33.542   7.850
  515POPC   C4A 9306  15.483  33.730   7.945
  515POPC   C1B 9307  14.964  34.189   8.676
  515POPC   C2B 9308  14.963  34.000   8.263
  515POPC   C3B 9309  15.149  34.136   7.865
  515POPC   C4B 9310  15.105  34.096   7.415
  516POPC   NC3 9311  32.191  41.099   9.833
  516POPC   PO4 9312  32.108  40.578   9.377
  516POPC   GL1 9313  32.408  40.645   9.067
  516POPC   GL2 9314  32.724  40.468   9.228
  516POPC   C1A 9315  32.273  40.955   8.711
  516POPC   D2A 9316  32.106  40.850   8.341
  516POPC   C3A 9317  32.259  40.943   7.961
  516POPC   C4A 9318  31.992  40.936   7.632
  516POPC   C1B 9319  32.783  40.443   8.798
  516POPC   C2B 9320  32.551  40.616   8.462
  516POPC   C3B 9321  32.552  40.530   8.059
  516POPC   C4B 9322  32.608  40.331   7.705
  517POPC   NC3 9323   0.169  27.701   9.526
  517POPC   PO4 9324   0.530  27.223   9.658
  517POPC   GL1 9325   0.435  27.505   9.173
  517POPC   GL2 9326   0.705  27.705   9.024
  517POPC   C1A 9327   0.258  27.731   8.821
  517POPC   D2A 9328   0.255  27.632   8.405
  517POPC   C3A 9329   0.436  27.835   8.060
  517POPC   C4A 9330   0.254  27.518   7.832
  517POPC   C1B 9331   0.622  27.408   8.654
  517POPC   C2B 9332   0.741  27.130   8.339
  517POPC   C3B 9333   0.574  27.102   7.932
  517POPC   C4B 9334   0.705  27.420   7.633
  518POPC   NC3 9335  17.532  20.358   9.554
  518POPC   PO4 9336  16.963  20.749   9.496
  518POPC   GL1 9337  17.314  20.735   9.248
  518POPC   GL2 9338  17.291  20.398   9.109
  518POPC   C1A 9339  17.512  20.779   8.850
  518POPC   D2A 9340  17.314  20.745   8.452
  518POPC   C3A 9341  17.452  21.001   8.133
  518POPC   C4A 9342  17.587  20.737   7.824
  518POPC   C1B 9343  17.672  20.271   8.874
  518POPC   C2B 9344  17.826  20.196   8.450
  518POPC   C3B 9345  17.707  20.266   8.025
  518POPC   C4B 9346  17.775  20.060   7.636
  519POPC   NC3 9347  22.717  19.797   9.695
  519POPC   PO4 9348  22.878  20.357   9.586
  519POPC   GL1 9349  22.677  20.091   9.254
  519POPC   GL2 9350  22.649  19.741   9.155
  519POPC   C1A 9351  22.806  20.075   8.791
  519POPC   D2A 9352  22.792  20.232   8.355
  519POPC   C3A 9353  22.796  20.042   7.937
  519POPC   C4A 9354  23.133  19.843   7.704
  519POPC   C1B 9355  22.541  19.650   8.689
  519POPC   C2B 9356  22.506  19.693   8.213
  519POPC   C3B 9357  22.650  19.564   7.788
  519POPC   C4B 9358  22.936  19.438   7.460
  520POPC   NC3 9359  44.993  43.339   9.542
  520POPC   PO4 9360  44.372  43.166   9.447
  520POPC   GL1 9361  44.713  43.056   9.219
  520POPC   GL2 9362  44.698  43.366   9.072
  520POPC   C1A 9363  44.791  42.949   8.810
  520POPC   D2A 9364  44.553  42.864   8.463
  520POPC   C3A 9365  44.639  43.130   8.153
  520POPC   C4A 9366  44.534  43.063   7.750
  520POPC   C1B 9367  44.311  43.168   8.797
  520POPC   C2B 9368  44.153  43.241   8.345
  520POPC   C3B 9369  44.301  43.499   7.980
  520POPC   C4B 9370  44.734  43.539   7.839
  521POPC   NC3 9371  26.948   8.763   9.442
  521POPC   PO4 9372  26.939   8.102   9.358
  521POPC   GL1 9373  27.127   8.376   9.046
  521POPC   GL2 9374  26.912   8.647   8.941
  521POPC   C1A 9375  27.091   8.244   8.614
  521POPC   D2A 9376  26.722   8.058   8.407
  521POPC   C3A 9377  26.807   8.009   7.984
  521POPC   C4A 9378  26.911   8.157   7.569
  521POPC   C1B 9379  26.648   8.537   8.599
  521POPC   C2B 9380  26.865   8.498   8.198
  521POPC   C3B 9381  26.778   8.582   7.801
  521POPC   C4B 9382  26.425   8.685   7.617
  522POPC   NC3 9383  39.896  30.591   9.582
  522POPC   PO4 9384  40.565  30.473   9.674
  522POPC   GL1 9385  40.306  30.545   9.273
  522POPC   GL2 9386  40.015  30.754   9.124
  522POPC   C1A 9387  40.307  30.476   8.816
  522POPC   D2A 9388  40.283  30.696   8.401
  522POPC   C3A 9389  40.174  30.474   8.030
  522POPC   C4A 9390  39.815  30.431   7.770
  522POPC   C1B 9391  40.032  31.025   8.771
  522POPC   C2B 9392  39.770  30.958   8.395
  522POPC   C3B 9393  39.823  30.911   7.960
  522POPC   C4B 9394  40.137  30.994   7.680
  523POPC   NC3 9395  36.699   9.940   9.416
  523POPC   PO4 9396  37.046   9.451   9.749
  523POPC   GL1 9397  37.022   9.609   9.248
  523POPC   GL2 9398  36.683   9.647   9.017
  523POPC   C1A 9399  37.103   9.697   8.800
  523POPC   D2A 9400  36.940   9.966   8.517
  523POPC   C3A 9401  36.785   9.927   8.119
  523POPC   C4A 9402  36.874   9.936   7.709
  523POPC   C1B 9403  36.596   9.417   8.672
  523POPC   C2B 9404  36.719   9.433   8.248
  523POPC   C3B 9405  36.540   9.568   7.852
  523POPC   C4B 9406  36.720   9.455   7.421
  524POPC   NC3 9407   8.656  22.077   9.495
  524POPC   PO4 9408   8.078  22.141   9.662
  524POPC   GL1 9409   8.263  22.269   9.232
  524POPC   GL2 9410   8.347  21.965   9.108
  524POPC   C1A 9411   8.472  22.365   8.806
  524POPC   D2A 9412   8.392  22.152   8.400
  524POPC   C3A 9413   8.455  22.376   7.996
  524POPC   C4A 9414   8.327  22.137   7.597
  524POPC   C1B 9415   8.029  22.047   8.813
  524POPC   C2B 9416   7.890  21.961   8.415
  524POPC   C3B 9417   8.019  22.121   8.029
  524POPC   C4B 9418   7.826  22.091   7.628
  525POPC   NC3 9419  39.145  37.782   9.571
  525POPC   PO4 9420  39.687  37.500   9.482
  525POPC   GL1 9421  39.362  37.460   9.182
  525POPC   GL2 9422  39.311  37.777   9.091
  525POPC   C1A 9423  39.056  37.482   8.796
  525POPC   D2A 9424  39.212  37.644   8.409
  525POPC   C3A 9425  39.045  37.451   8.095
  525POPC   C4A 9426  39.013  37.430   7.675
  525POPC   C1B 9427  39.061  38.005   8.762
  525POPC   C2B 9428  38.924  38.064   8.318
  525POPC   C3B 9429  39.043  37.927   7.896
  525POPC   C4B 9430  38.774  37.865   7.536
  526POPC   NC3 9431  18.881  39.737   9.550
  526POPC   PO4 9432  19.474  40.104   9.455
  526POPC   GL1 9433  19.187  39.982   9.132
  526POPC   GL2 9434  18.877  40.207   9.205
  526POPC   C1A 9435  19.303  39.893   8.672
  526POPC   D2A 9436  19.479  40.114   8.270
  526POPC   C3A 9437  19.141  40.186   7.977
  526POPC   C4A 9438  18.922  39.829   7.799
  526POPC   C1B 9439  18.801  40.027   8.805
  526POPC   C2B 9440  18.709  40.085   8.359
  526POPC   C3B 9441  18.563  40.252   7.979
  526POPC   C4B 9442  18.680  40.261   7.577
  527POPC   NC3 9443  15.388  39.534   9.466
  527POPC   PO4 9444  15.015  39.018   9.458
  527POPC   GL1 9445  15.140  39.170   9.140
  527POPC   GL2 9446  15.481  39.215   9.087
  527POPC   C1A 9447  14.989  39.225   8.769
  527POPC   D2A 9448  15.230  39.240   8.436
  527POPC   C3A 9449  15.050  39.108   8.067
  527POPC   C4A 9450  15.052  39.288   7.689
  527POPC   C1B 9451  15.713  39.106   8.720
  527POPC   C2B 9452  15.617  38.928   8.364
  527POPC   C3B 9453  15.557  39.154   7.995
  527POPC   C4B 9454  15.797  39.234   7.638
  528POPC   NC3 9455   6.980  34.412   9.595
  528POPC   PO4 9456   6.372  34.625   9.455
  528POPC   GL1 9457   6.696  34.712   9.156
  528POPC   GL2 9458   6.843  34.394   9.093
  528POPC   C1A 9459   6.743  34.724   8.703
  528POPC   D2A 9460   6.499  34.592   8.356
  528POPC   C3A 9461   6.518  34.731   7.951
  528POPC   C4A 9462   6.867  34.990   7.798
  528POPC   C1B 9463   6.529  34.264   8.779
  528POPC   C2B 9464   6.592  34.095   8.345
  528POPC   C3B 9465   6.681  34.234   7.921
  528POPC   C4B 9466   7.017  34.509   7.739
  529POPC   NC3 9467  35.433  43.333   9.329
  529POPC   PO4 9468  35.425  44.062   9.351
  529POPC   GL1 9469  35.557  43.816   9.057
  529POPC   GL2 9470  35.250  43.629   8.948
  529POPC   C1A 9471  35.478  43.942   8.630
  529POPC   D2A 9472  35.241  43.725   8.366
  529POPC   C3A 9473  35.248  43.965   8.018
  529POPC   C4A 9474  35.075  43.888   7.652
  529POPC   C1B 9475  35.578  43.436   8.673
  529POPC   C2B 9476  35.671  43.480   8.252
  529POPC   C3B 9477  35.441  43.485   7.852
  529POPC   C4B 9478  35.581  43.823   7.588
  530POPC   NC3 9479  14.410  25.687   9.463
  530POPC   PO4 9480  13.943  26.258   9.460
  530POPC   GL1 9481  14.205  26.178   9.119
  530POPC   GL2 9482  14.434  25.919   9.013
  530POPC   C1A 9483  14.284  26.369   8.737
  530POPC   D2A 9484  14.234  26.177   8.350
  530POPC   C3A 9485  14.632  26.032   8.209
  530POPC   C4A 9486  14.786  26.158   7.819
  530POPC   C1B 9487  14.129  25.788   8.675
  530POPC   C2B 9488  14.200  25.666   8.220
  530POPC   C3B 9489  14.322  25.901   7.816
  530POPC   C4B 9490  14.234  25.805   7.331
  531POPC   NC3 9491  40.324  34.783   9.364
  531POPC   PO4 9492  39.828  34.417   9.568
  531POPC   GL1 9493  40.064  34.310   9.148
  531POPC   GL2 9494  40.439  34.368   9.080
  531POPC   C1A 9495  40.110  34.375   8.688
  531POPC   D2A 9496  40.106  34.650   8.359
  531POPC   C3A 9497  40.113  34.451   8.021
  531POPC   C4A 9498  39.783  34.362   7.792
  531POPC   C1B 9499  40.500  34.679   8.735
  531POPC   C2B 9500  40.479  34.976   8.404
  531POPC   C3B 9501  40.339  34.926   7.948
  531POPC   C4B 9502  40.246  34.652   7.542
  532POPC   NC3 9503   4.710  11.418   9.778
  532POPC   PO4 9504   4.094  11.207   9.647
  532POPC   GL1 9505   4.188  11.242   9.230
  532POPC   GL2 9506   4.492  11.064   9.176
  532POPC   C1A 9507   4.218  11.328   8.811
  532POPC   D2A 9508   4.291  11.549   8.455
  532POPC   C3A 9509   4.022  11.461   8.094
  532POPC   C4A 9510   4.083  11.610   7.691
  532POPC   C1B 9511   4.697  11.194   8.772
  532POPC   C2B 9512   4.809  11.378   8.378
  532POPC   C3B 9513   4.535  11.313   8.078
  532POPC   C4B 9514   4.478  11.229   7.671
  533POPC   NC3 9515   2.337  43.195   9.330
  533POPC   PO4 9516   2.862  43.432   9.584
  533POPC   GL1 9517   3.053  43.433   9.165
  533POPC   GL2 9518   2.781  43.227   9.071
  533POPC   C1A 9519   3.048  43.431   8.693
  533POPC   D2A 9520   2.881  43.366   8.282
  533POPC   C3A 9521   2.732  43.368   7.884
  533POPC   C4A 9522   3.043  43.314   7.587
  533POPC   C1B 9523   2.674  43.089   8.642
  533POPC   C2B 9524   2.677  42.902   8.203
  533POPC   C3B 9525   2.875  42.876   7.769
  533POPC   C4B 9526   2.675  43.060   7.365
  534POPC   NC3 9527  36.123  20.432   9.661
  534POPC   PO4 9528  36.140  21.101   9.666
  534POPC   GL1 9529  36.261  20.766   9.297
  534POPC   GL2 9530  35.936  20.550   9.203
  534POPC   C1A 9531  36.339  20.441   8.922
  534POPC   D2A 9532  36.188  20.396   8.502
  534POPC   C3A 9533  36.440  20.339   8.135
  534POPC   C4A 9534  36.325  20.398   7.718
  534POPC   C1B 9535  35.962  20.935   8.938
  534POPC   C2B 9536  36.003  20.956   8.506
  534POPC   C3B 9537  36.045  20.704   8.117
  534POPC   C4B 9538  36.116  20.859   7.717
  535POPC   NC3 9539  28.645   6.281   9.313
  535POPC   PO4 9540  28.213   6.749   9.525
  535POPC   GL1 9541  28.391   6.735   9.146
  535POPC   GL2 9542  28.205   6.434   9.083
  535POPC   C1A 9543  28.385   6.696   8.693
  535POPC   D2A 9544  28.581   6.570   8.329
  535POPC   C3A 9545  28.367   6.780   7.996
  535POPC   C4A 9546  28.505   6.891   7.599
  535POPC   C1B 9547  27.925   6.410   8.739
  535POPC   C2B 9548  28.029   6.504   8.314
  535POPC   C3B 9549  28.091   6.291   7.945
  535POPC   C4B 9550  28.394   6.393   7.664
  536POPC   NC3 9551  35.517  14.679   9.713
  536POPC   PO4 9552  35.209  14.124   9.731
  536POPC   GL1 9553  35.301  14.228   9.283
  536POPC   GL2 9554  35.231  14.577   9.205
  536POPC   C1A 9555  35.597  14.115   8.917
  536POPC   D2A 9556  35.437  13.966   8.514
  536POPC   C3A 9557  35.514  14.164   8.107
  536POPC   C4A 9558  35.743  14.150   7.732
  536POPC   C1B 9559  35.185  14.370   8.760
  536POPC   C2B 9560  35.026  14.231   8.332
  536POPC   C3B 9561  35.057  14.347   7.894
  536POPC   C4B 9562  35.322  14.331   7.540
  537POPC   NC3 9563  43.356  12.599   9.482
  537POPC   PO4 9564  42.762  12.988   9.366
  537POPC   GL1 9565  43.090  12.788   9.084
  537POPC   GL2 9566  43.242  12.436   9.039
  537POPC   C1A 9567  43.244  12.831   8.671
  537POPC   D2A 9568  43.147  13.121   8.345
  537POPC   C3A 9569  43.063  12.947   7.950
  537POPC   C4A 9570  42.885  12.859   7.515
  537POPC   C1B 9571  42.980  12.338   8.748
  537POPC   C2B 9572  42.972  12.534   8.349
  537POPC   C3B 9573  42.836  12.496   7.941
  537POPC   C4B 9574  43.206  12.497   7.693
  538POPC   NC3 9575   3.468  21.278   9.879
  538POPC   PO4 9576   3.745  21.776   9.550
  538POPC   GL1 9577   3.706  21.537   9.177
  538POPC   GL2 9578   3.361  21.483   9.123
  538POPC   C1A 9579   3.684  21.545   8.714
  538POPC   D2A 9580   3.367  21.735   8.461
  538POPC   C3A 9581   3.344  21.598   8.053
  538POPC   C4A 9582   3.753  21.484   8.000
  538POPC   C1B 9583   3.282  21.222   8.713
  538POPC   C2B 9584   3.418  21.120   8.300
  538POPC   C3B 9585   3.305  21.077   7.875
  538POPC   C4B 9586   3.455  21.363   7.589
  539POPC   NC3 9587  32.451  43.191   9.891
  539POPC   PO4 9588  32.210  42.982   9.321
  539POPC   GL1 9589  32.264  43.196   9.004
  539POPC   GL2 9590  32.007  43.439   8.926
  539POPC   C1A 9591  32.479  43.172   8.642
  539POPC   D2A 9592  32.438  42.934   8.286
  539POPC   C3A 9593  32.558  43.026   7.893
  539POPC   C4A 9594  32.266  43.034   7.575
  539POPC   C1B 9595  31.965  43.073   8.609
  539POPC   C2B 9596  32.012  42.689   8.392
  539POPC   C3B 9597  31.784  42.635   8.027
  539POPC   C4B 9598  31.928  42.536   7.627
  540POPC   NC3 9599  30.452  29.093   9.395
  540POPC   PO4 9600  31.092  29.147   9.204
  540POPC   GL1 9601  30.725  29.253   8.982
  540POPC   GL2 9602  30.438  28.992   8.903
  540POPC   C1A 9603  30.791  29.205   8.565
  540POPC   D2A 9604  30.573  29.042   8.263
  540POPC   C3A 9605  30.657  29.239   7.894
  540POPC   C4A 9606  30.334  29.513   7.776
  540POPC   C1B 9607  30.746  28.711   8.745
  540POPC   C2B 9608  30.980  28.715   8.374
  540POPC   C3B 9609  30.819  28.724   7.954
  540POPC   C4B 9610  30.953  28.919   7.553
  541POPC   NC3 9611  17.717   4.615   9.520
  541POPC   PO4 9612  17.598   5.287   9.592
  541POPC   GL1 9613  17.627   5.091   9.206
  541POPC   GL2 9614  17.354   5.293   9.079
  541POPC   C1A 9615  17.908   4.831   8.927
  541POPC   D2A 9616  18.041   4.775   8.498
  541POPC   C3A 9617  17.766   5.037   8.220
  541POPC   C4A 9618  17.449   4.957   7.872
  541POPC   C1B 9619  17.344   4.969   8.722
  541POPC   C2B 9620  17.185   5.054   8.305
  541POPC   C3B 9621  17.413   5.415   8.126
  541POPC   C4B 9622  17.556   5.431   7.701
  542POPC   NC3 9623  36.219   8.015   9.519
  542POPC   PO4 9624  35.747   8.414   9.515
  542POPC   GL1 9625  36.151   8.460   9.258
  542POPC   GL2 9626  36.073   8.167   9.070
  542POPC   C1A 9627  36.390   8.469   8.831
  542POPC   D2A 9628  36.361   8.323   8.397
  542POPC   C3A 9629  36.215   8.102   8.047
  542POPC   C4A 9630  36.418   8.180   7.657
  542POPC   C1B 9631  36.086   8.010   8.692
  542POPC   C2B 9632  35.822   8.036   8.379
  542POPC   C3B 9633  35.714   8.238   8.030
  542POPC   C4B 9634  35.901   8.335   7.676
  543POPC   NC3 9635  15.176  33.389   9.378
  543POPC   PO4 9636  15.154  32.731   9.448
  543POPC   GL1 9637  15.327  32.752   9.084
  543POPC   GL2 9638  15.449  33.065   9.096
  543POPC   C1A 9639  15.117  32.745   8.690
  543POPC   D2A 9640  14.996  32.978   8.359
  543POPC   C3A 9641  15.253  32.843   8.050
  543POPC   C4A 9642  15.161  33.018   7.703
  543POPC   C1B 9643  15.342  33.204   8.681
  543POPC   C2B 9644  15.354  33.328   8.235
  543POPC   C3B 9645  15.605  33.246   7.852
  543POPC   C4B 9646  15.588  33.203   7.386
  544POPC   NC3 9647  32.682  17.768   9.436
  544POPC   PO4 9648  31.948  17.826   9.482
  544POPC   GL1 9649  32.038  17.428   9.228
  544POPC   GL2 9650  32.371  17.456   9.177
  544POPC   C1A 9651  32.114  17.258   8.782
  544POPC   D2A 9652  31.937  17.310   8.350
  544POPC   C3A 9653  32.127  17.505   7.992
  544POPC   C4A 9654  32.005  17.525   7.557
  544POPC   C1B 9655  32.613  17.426   8.814
  544POPC   C2B 9656  32.632  17.264   8.424
  544POPC   C3B 9657  32.638  17.456   8.051
  544POPC   C4B 9658  32.500  17.380   7.661
  545POPC   NC3 9659  26.807  28.584   9.366
  545POPC   PO4 9660  27.076  29.282   9.458
  545POPC   GL1 9661  26.851  29.272   9.053
  545POPC   GL2 9662  26.834  28.931   8.993
  545POPC   C1A 9663  26.912  29.384   8.601
  545POPC   D2A 9664  26.966  29.478   8.151
  545POPC   C3A 9665  26.678  29.241   7.939
  545POPC   C4A 9666  26.455  28.902   7.887
  545POPC   C1B 9667  27.113  28.903   8.649
  545POPC   C2B 9668  26.955  28.946   8.231
  545POPC   C3B 9669  26.993  28.846   7.755
  545POPC   C4B 9670  27.156  28.982   7.303
  546POPC   NC3 9671   8.340  29.594   9.382
  546POPC   PO4 9672   7.867  29.111   9.539
  546POPC   GL1 9673   7.908  29.385   9.208
  546POPC   GL2 9674   8.193  29.225   9.072
  546POPC   C1A 9675   7.867  29.528   8.786
  546POPC   D2A 9676   8.092  29.498   8.408
  546POPC   C3A 9677   7.946  29.461   8.005
  546POPC   C4A 9678   8.253  29.270   7.731
  546POPC   C1B 9679   8.096  29.005   8.706
  546POPC   C2B 9680   7.992  28.991   8.281
  546POPC   C3B 9681   8.264  28.785   7.971
  546POPC   C4B 9682   8.551  28.717   7.630
  547POPC   NC3 9683  15.636  15.902   9.415
  547POPC   PO4 9684  15.050  16.256   9.435
  547POPC   GL1 9685  15.125  15.964   9.028
  547POPC   GL2 9686  15.465  15.856   8.935
  547POPC   C1A 9687  15.059  15.860   8.573
  547POPC   D2A 9688  14.816  16.096   8.249
  547POPC   C3A 9689  14.993  16.090   7.860
  547POPC   C4A 9690  15.069  15.781   7.568
  547POPC   C1B 9691  15.434  16.179   8.642
  547POPC   C2B 9692  15.345  16.208   8.227
  547POPC   C3B 9693  15.517  16.157   7.822
  547POPC   C4B 9694  15.530  15.954   7.452
  548POPC   NC3 9695  36.385  16.723   9.557
  548POPC   PO4 9696  35.692  16.959   9.444
  548POPC   GL1 9697  36.060  16.936   9.188
  548POPC   GL2 9698  36.110  16.600   9.112
  548POPC   C1A 9699  36.255  16.967   8.760
  548POPC   D2A 9700  36.136  16.696   8.389
  548POPC   C3A 9701  36.054  16.892   8.016
  548POPC   C4A 9702  36.150  16.860   7.574
  548POPC   C1B 9703  36.076  16.352   8.759
  548POPC   C2B 9704  35.743  16.355   8.463
  548POPC   C3B 9705  35.684  16.513   8.053
  548POPC   C4B 9706  35.987  16.436   7.784
  549POPC   NC3 9707  14.109  41.468   9.412
  549POPC   PO4 9708  14.612  41.850   9.726
  549POPC   GL1 9709  14.620  41.824   9.269
  549POPC   GL2 9710  14.389  41.634   9.026
  549POPC   C1A 9711  14.619  42.032   8.869
  549POPC   D2A 9712  14.428  41.808   8.509
  549POPC   C3A 9713  14.592  41.637   8.115
  549POPC   C4A 9714  14.431  41.535   7.694
  549POPC   C1B 9715  14.536  41.319   8.731
  549POPC   C2B 9716  14.312  41.038   8.472
  549POPC   C3B 9717  14.327  41.174   8.074
  549POPC   C4B 9718  14.281  41.048   7.688
  550POPC   NC3 9719  31.180  16.870   9.519
  550POPC   PO4 9720  30.738  16.523   9.756
  550POPC   GL1 9721  30.731  16.812   9.308
  550POPC   GL2 9722  30.931  17.174   9.223
  550POPC   C1A 9723  30.572  16.857   8.889
  550POPC   D2A 9724  30.624  16.591   8.520
  550POPC   C3A 9725  30.451  16.631   8.122
  550POPC   C4A 9726  30.578  16.467   7.724
  550POPC   C1B 9727  31.097  16.973   8.851
  550POPC   C2B 9728  30.922  17.029   8.457
  550POPC   C3B 9729  30.888  16.874   8.061
  550POPC   C4B 9730  30.737  16.998   7.683
  551POPC   NC3 9731  22.084   4.588   9.693
  551POPC   PO4 9732  22.321   5.281   9.656
  551POPC   GL1 9733  22.087   5.170   9.252
  551POPC   GL2 9734  22.045   4.814   9.207
  551POPC   C1A 9735  22.146   5.259   8.792
  551POPC   D2A 9736  22.414   5.369   8.435
  551POPC   C3A 9737  22.268   5.187   8.042
  551POPC   C4A 9738  22.271   5.274   7.608
  551POPC   C1B 9739  22.065   4.731   8.767
  551POPC   C2B 9740  21.989   4.906   8.383
  551POPC   C3B 9741  22.015   4.732   7.965
  551POPC   C4B 9742  21.923   4.877   7.541
  552POPC   NC3 9743  13.125  12.900   9.370
  552POPC   PO4 9744  13.818  12.852   9.545
  552POPC   GL1 9745  13.712  13.046   9.171
  552POPC   GL2 9746  14.063  13.136   9.157
  552POPC   C1A 9747  13.458  13.184   8.789
  552POPC   D2A 9748  13.245  13.301   8.377
  552POPC   C3A 9749  13.342  12.925   8.122
  552POPC   C4A 9750  13.494  12.888   7.734
  552POPC   C1B 9751  13.983  13.050   8.728
  552POPC   C2B 9752  13.820  12.872   8.369
  552POPC   C3B 9753  13.962  12.817   7.984
  552POPC   C4B 9754  13.934  12.635   7.598
  553POPC   NC3 9755   1.623  23.795   9.434
  553POPC   PO4 9756   1.003  24.074   9.610
  553POPC   GL1 9757   1.087  23.900   9.190
  553POPC   GL2 9758   1.036  23.551   9.236
  553POPC   C1A 9759   1.318  23.900   8.764
  553POPC   D2A 9760   1.327  23.709   8.312
  553POPC   C3A 9761   1.409  23.830   7.852
  553POPC   C4A 9762   1.351  23.638   7.436
  553POPC   C1B 9763   0.941  23.438   8.792
  553POPC   C2B 9764   0.984  23.325   8.352
  553POPC   C3B 9765   1.000  23.500   7.929
  553POPC   C4B 9766   0.896  23.379   7.519
  554POPC   NC3 9767  24.556   1.947   9.560
  554POPC   PO4 9768  24.186   1.505   9.175
  554POPC   GL1 9769  24.289   1.932   9.050
  554POPC   GL2 9770  24.611   2.072   9.084
  554POPC   C1A 9771  24.385   2.180   8.657
  554POPC   D2A 9772  24.419   2.018   8.253
  554POPC   C3A 9773  24.615   2.197   7.912
  554POPC   C4A 9774  24.680   2.097   7.496
  554POPC   C1B 9775  24.878   1.922   8.774
  554POPC   C2B 9776  24.964   1.766   8.391
  554POPC   C3B 9777  24.935   1.817   7.984
  554POPC   C4B 9778  24.979   1.710   7.583
  555POPC   NC3 9779  13.626  42.460   9.536
  555POPC   PO4 9780  13.783  41.817   9.446
  555POPC   GL1 9781  13.690  42.180   9.125
  555POPC   GL2 9782  13.376  42.399   9.076
  555POPC   C1A 9783  13.834  42.511   8.813
  555POPC   D2A 9784  14.024  42.726   8.429
  555POPC   C3A 9785  13.890  42.495   8.059
  555POPC   C4A 9786  13.814  42.148   7.821
  555POPC   C1B 9787  13.450  42.159   8.681
  555POPC   C2B 9788  13.514  42.169   8.254
  555POPC   C3B 9789  13.347  42.364   7.947
  555POPC   C4B 9790  13.340  42.114   7.640
  556POPC   NC3 9791  21.047  25.332   9.227
  556POPC   PO4 9792  20.397  25.177   9.428
  556POPC   GL1 9793  20.634  25.047   9.044
  556POPC   GL2 9794  20.658  25.358   8.871
  556POPC   C1A 9795  20.657  24.852   8.611
  556POPC   D2A 9796  20.482  25.063   8.220
  556POPC   C3A 9797  20.637  25.143   7.795
  556POPC   C4A 9798  20.892  25.459   7.543
  556POPC   C1B 9799  20.297  25.576   8.690
  556POPC   C2B 9800  20.166  25.620   8.291
  556POPC   C3B 9801  20.254  25.480   7.901
  556POPC   C4B 9802  20.270  25.892   7.752
  557POPC   NC3 9803  18.587  29.277   9.495
  557POPC   PO4 9804  17.992  29.486   9.301
  557POPC   GL1 9805  18.395  29.465   9.078
  557POPC   GL2 9806  18.343  29.071   9.095
  557POPC   C1A 9807  18.659  29.244   8.758
  557POPC   D2A 9808  18.463  28.961   8.466
  557POPC   C3A 9809  18.317  29.182   8.105
  557POPC   C4A 9810  18.433  28.960   7.762
  557POPC   C1B 9811  18.122  29.254   8.719
  557POPC   C2B 9812  17.917  29.134   8.404
  557POPC   C3B 9813  17.800  29.079   8.029
  557POPC   C4B 9814  18.006  29.255   7.680
  558POPC   NC3 9815  33.801  37.140   9.582
  558POPC   PO4 9816  34.224  36.598   9.443
  558POPC   GL1 9817  34.049  36.864   9.156
  558POPC   GL2 9818  33.746  36.672   9.210
  558POPC   C1A 9819  34.179  36.919   8.710
  558POPC   D2A 9820  33.901  37.034   8.353
  558POPC   C3A 9821  33.953  37.099   7.923
  558POPC   C4A 9822  33.970  36.808   7.562
  558POPC   C1B 9823  33.666  36.815   8.791
  558POPC   C2B 9824  33.490  36.699   8.428
  558POPC   C3B 9825  33.636  36.695   8.013
  558POPC   C4B 9826  33.453  36.623   7.617
  559POPC   NC3 9827  35.489  38.179   9.599
  559POPC   PO4 9828  34.978  38.437   9.247
  559POPC   GL1 9829  35.171  38.610   8.940
  559POPC   GL2 9830  35.455  38.461   9.029
  559POPC   C1A 9831  35.240  38.590   8.520
  559POPC   D2A 9832  35.278  38.235   8.298
  559POPC   C3A 9833  35.126  38.295   7.931
  559POPC   C4A 9834  35.302  38.332   7.563
  559POPC   C1B 9835  35.631  38.273   8.675
  559POPC   C2B 9836  35.740  38.465   8.268
  559POPC   C3B 9837  35.479  38.692   7.937
  559POPC   C4B 9838  35.375  38.840   7.509
  560POPC   NC3 9839  43.734  13.753   9.533
  560POPC   PO4 9840  43.550  13.093   9.388
  560POPC   GL1 9841  43.801  13.396   9.132
  560POPC   GL2 9842  44.091  13.662   9.176
  560POPC   C1A 9843  43.709  13.700   8.815
  560POPC   D2A 9844  43.763  13.958   8.445
  560POPC   C3A 9845  43.866  13.744   8.069
  560POPC   C4A 9846  43.637  13.770   7.685
  560POPC   C1B 9847  44.125  13.975   8.811
  560POPC   C2B 9848  44.293  13.927   8.370
  560POPC   C3B 9849  44.253  14.050   7.941
  560POPC   C4B 9850  44.155  13.717   7.627
  561POPC   NC3 9851  35.085  29.835   9.556
  561POPC   PO4 9852  34.447  30.238   9.554
  561POPC   GL1 9853  34.479  29.947   9.183
  561POPC   GL2 9854  34.753  29.697   9.188
  561POPC   C1A 9855  34.495  29.867   8.730
  561POPC   D2A 9856  34.318  29.702   8.332
  561POPC   C3A 9857  34.481  29.912   7.957
  561POPC   C4A 9858  34.430  30.116   7.523
  561POPC   C1B 9859  34.899  29.544   8.796
  561POPC   C2B 9860  34.858  29.724   8.390
  561POPC   C3B 9861  35.024  29.700   7.994
  561POPC   C4B 9862  34.862  29.866   7.624
  562POPC   NC3 9863   3.899   9.239   9.901
  562POPC   PO4 9864   3.440   9.712   9.550
  562POPC   GL1 9865   3.342   9.915   9.186
  562POPC   GL2 9866   3.623   9.720   9.063
  562POPC   C1A 9867   3.458  10.102   8.780
  562POPC   D2A 9868   3.484   9.830   8.438
  562POPC   C3A 9869   3.412   9.992   8.031
  562POPC   C4A 9870   3.512   9.784   7.652
  562POPC   C1B 9871   3.881   9.432   8.811
  562POPC   C2B 9872   4.047   9.459   8.429
  562POPC   C3B 9873   3.849   9.669   8.099
  562POPC   C4B 9874   3.825   9.407   7.749
  563POPC   NC3 9875  13.244   4.185   9.581
  563POPC   PO4 9876  13.635   4.762   9.566
  563POPC   GL1 9877  13.847   4.425   9.326
  563POPC   GL2 9878  13.558   4.263   9.188
  563POPC   C1A 9879  13.936   4.311   8.864
  563POPC   D2A 9880  13.722   4.216   8.452
  563POPC   C3A 9881  13.847   4.416   8.093
  563POPC   C4A 9882  13.926   4.034   7.900
  563POPC   C1B 9883  13.415   4.433   8.786
  563POPC   C2B 9884  13.409   4.599   8.345
  563POPC   C3B 9885  13.381   4.459   7.899
  563POPC   C4B 9886  13.039   4.617   7.624
  564POPC   NC3 9887  42.598  12.173   9.374
  564POPC   PO4 9888  42.366  11.501   9.454
  564POPC   GL1 9889  42.361  11.795   9.092
  564POPC   GL2 9890  42.708  11.624   9.065
  564POPC   C1A 9891  42.323  12.188   8.764
  564POPC   D2A 9892  42.533  12.258   8.340
  564POPC   C3A 9893  42.317  12.136   7.939
  564POPC   C4A 9894  42.065  11.877   7.619
  564POPC   C1B 9895  42.665  11.838   8.674
  564POPC   C2B 9896  42.298  11.784   8.416
  564POPC   C3B 9897  42.225  11.620   8.022
  564POPC   C4B 9898  42.523  11.590   7.684
  565POPC   NC3 9899   3.469  21.044   9.355
  565POPC   PO4 9900   3.643  20.441   9.502
  565POPC   GL1 9901   3.412  20.350   9.105
  565POPC   GL2 9902   3.507  20.693   8.989
  565POPC   C1A 9903   3.426  20.383   8.615
  565POPC   D2A 9904   3.647  20.657   8.328
  565POPC   C3A 9905   3.488  20.591   7.915
  565POPC   C4A 9906   3.191  20.417   7.629
  565POPC   C1B 9907   3.748  21.004   8.734
  565POPC   C2B 9908   3.957  21.119   8.327
  565POPC   C3B 9909   3.802  20.992   7.911
  565POPC   C4B 9910   3.611  20.887   7.496
  566POPC   NC3 9911  40.860  39.916   9.484
  566POPC   PO4 9912  40.658  40.490   9.449
  566POPC   GL1 9913  40.709  40.198   9.098
  566POPC   GL2 9914  40.492  39.869   9.129
  566POPC   C1A 9915  40.791  40.265   8.667
  566POPC   D2A 9916  40.971  40.162   8.294
  566POPC   C3A 9917  40.857  40.259   7.895
  566POPC   C4A 9918  40.934  40.090   7.498
  566POPC   C1B 9919  40.769  39.714   8.839
  566POPC   C2B 9920  40.922  39.690   8.454
  566POPC   C3B 9921  40.788  39.737   8.044
  566POPC   C4B 9922  40.533  39.836   7.706
  567POPC   NC3 9923   8.803  30.968   9.597
  567POPC   PO4 9924   9.222  30.496   9.611
  567POPC   GL1 9925   9.036  30.536   9.209
  567POPC   GL2 9926   9.268  30.391   8.998
  567POPC   C1A 9927   9.032  30.897   8.916
  567POPC   D2A 9928   9.166  30.992   8.469
  567POPC   C3A 9929   8.908  31.115   8.158
  567POPC   C4A 9930   8.721  30.851   7.868
  567POPC   C1B 9931   9.063  30.488   8.616
  567POPC   C2B 9932   8.988  30.545   8.189
  567POPC   C3B 9933   9.236  30.687   7.849
  567POPC   C4B 9934   9.530  30.523   7.544
  568POPC   NC3 9935  32.173  16.988   9.492
  568POPC   PO4 9936  32.627  16.457   9.494
  568POPC   GL1 9937  32.373  16.635   9.174
  568POPC   GL2 9938  32.533  16.958   9.107
  568POPC   C1A 9939  32.008  16.739   8.916
  568POPC   D2A 9940  31.928  16.830   8.498
  568POPC   C3A 9941  32.010  16.698   8.104
  568POPC   C4A 9942  32.327  16.514   7.880
  568POPC   C1B 9943  32.448  16.869   8.708
  568POPC   C2B 9944  32.501  16.735   8.330
  568POPC   C3B 9945  32.381  17.026   8.032
  568POPC   C4B 9946  32.099  17.047   7.698
  569POPC   NC3 9947  36.272  13.180   9.448
  569POPC   PO4 9948  35.768  12.795   9.481
  569POPC   GL1 9949  35.848  12.662   9.076
  569POPC   GL2 9950  36.164  12.775   9.127
  569POPC   C1A 9951  35.909  12.711   8.617
  569POPC   D2A 9952  35.970  12.941   8.222
  569POPC   C3A 9953  35.879  12.812   7.809
  569POPC   C4A 9954  35.760  12.594   7.429
  569POPC   C1B 9955  36.378  12.653   8.831
  569POPC   C2B 9956  36.429  12.787   8.420
  569POPC   C3B 9957  36.354  12.710   7.996
  569POPC   C4B 9958  36.429  13.104   7.802
  570POPC   NC3 9959  10.444   3.203   9.565
  570POPC   PO4 9960  10.830   2.563   9.501
  570POPC   GL1 9961  10.627   2.863   9.186
  570POPC   GL2 9962  10.821   3.200   9.181
  570POPC   C1A 9963  10.560   2.767   8.712
  570POPC   D2A 9964  10.299   2.662   8.338
  570POPC   C3A 9965  10.387   2.816   7.915
  570POPC   C4A 9966  10.490   2.887   7.491
  570POPC   C1B 9967  11.034   2.877   8.897
  570POPC   C2B 9968  11.073   2.793   8.481
  570POPC   C3B 9969  10.818   2.655   8.166
  570POPC   C4B 9970  10.861   2.660   7.735
  571POPC   NC3 9971   0.460   1.531   9.506
  571POPC   PO4 9972   0.920   1.074   9.502
  571POPC   GL1 9973   0.777   1.244   9.154
  571POPC   GL2 9974   0.423   1.159   9.154
  571POPC   C1A 9975   0.667   1.308   8.735
  571POPC   D2A 9976   0.796   1.250   8.345
  571POPC   C3A 9977   0.510   1.160   8.020
  571POPC   C4A 9978   0.657   1.307   7.638
  571POPC   C1B 9979   0.149   1.340   8.806
  571POPC   C2B 9980   0.116   1.209   8.390
  571POPC   C3B 9981  44.998   1.347   7.988
  571POPC   C4B 9982   0.155   1.191   7.608
  572POPC   NC3 9983   4.380  40.865   9.586
  572POPC   PO4 9984   3.832  40.479   9.361
  572POPC   GL1 9985   4.085  40.850   9.122
  572POPC   GL2 9986   4.471  40.860   9.090
  572POPC   C1A 9987   4.145  40.882   8.683
  572POPC   D2A 9988   4.175  40.607   8.349
  572POPC   C3A 9989   4.172  40.838   7.989
  572POPC   C4A 9990   4.139  40.618   7.636
  572POPC   C1B 9991   4.636  40.782   8.669
  572POPC   C2B 9992   4.628  40.873   8.239
  572POPC   C3B 9993   4.647  40.757   7.840
  572POPC   C4B 9994   4.532  40.912   7.431
  573POPC   NC3 9995  27.363  15.749   9.520
  573POPC   PO4 9996  27.648  16.420   9.424
  573POPC   GL1 9997  27.482  16.150   9.103
  573POPC   GL2 9998  27.330  15.831   9.033
  573POPC   C1A 9999  27.628  16.049   8.680
  573POPC   D2A10000  27.597  15.773   8.324
  573POPC   C3A10001  27.762  16.003   7.960
  573POPC   C4A10002  27.650  15.891   7.531
  573POPC   C1B10003  27.147  15.885   8.619
  573POPC   C2B10004  27.211  16.135   8.260
  573POPC   C3B10005  27.330  16.253   7.845
  573POPC   C4B10006  27.608  16.393   7.533
  574POPC   NC310007  15.111   3.697   9.667
  574POPC   PO410008  14.777   3.169   9.311
  574POPC   GL110009  15.083   3.420   9.154
  574POPC   GL210010  15.436   3.329   9.231
  574POPC   C1A10011  15.097   3.531   8.721
  574POPC   D2A10012  14.841   3.452   8.342
  574POPC   C3A10013  14.931   3.724   7.982
  574POPC   C4A10014  15.340   3.687   7.823
  574POPC   C1B10015  15.399   3.131   8.824
  574POPC   C2B10016  15.376   3.014   8.392
  574POPC   C3B10017  15.478   3.165   7.975
  574POPC   C4B10018  15.518   3.327   7.526
  575POPC   NC310019  32.345  39.197   9.587
  575POPC   PO410020  31.713  39.065   9.684
  575POPC   GL110021  32.009  39.046   9.227
  575POPC   GL210022  32.236  39.351   9.131
  575POPC   C1A10023  32.260  39.037   8.781
  575POPC   D2A10024  32.527  39.126   8.388
  575POPC   C3A10025  32.384  39.010   7.941
  575POPC   C4A10026  31.951  39.023   7.721
  575POPC   C1B10027  32.343  39.556   8.756
  575POPC   C2B10028  32.203  39.766   8.404
  575POPC   C3B10029  32.339  39.506   8.061
  575POPC   C4B10030  32.201  39.460   7.664
  576POPC   NC310031  20.916   2.792   9.569
  576POPC   PO410032  21.315   2.271   9.779
  576POPC   GL110033  21.395   2.476   9.306
  576POPC   GL210034  21.380   2.857   9.299
  576POPC   C1A10035  21.220   2.615   8.895
  576POPC   D2A10036  21.258   2.969   8.587
  576POPC   C3A10037  21.392   2.831   8.176
  576POPC   C4A10038  21.308   2.523   7.834
  576POPC   C1B10039  21.575   3.134   8.966
  576POPC   C2B10040  21.693   3.210   8.509
  576POPC   C3B10041  21.712   3.192   8.031
  576POPC   C4B10042  21.396   3.075   7.686
  577POPC   NC310043  11.297  21.948   9.779
  577POPC   PO410044  11.377  21.348   9.644
  577POPC   GL110045  11.328  21.529   9.231
  577POPC   GL210046  11.066  21.355   9.194
  577POPC   C1A10047  11.446  21.301   8.809
  577POPC   D2A10048  11.588  21.382   8.388
  577POPC   C3A10049  11.384  21.356   7.994
  577POPC   C4A10050  11.441  21.547   7.589
  577POPC   C1B10051  11.048  21.596   8.778
  577POPC   C2B10052  11.011  21.751   8.385
  577POPC   C3B10053  10.775  21.725   8.029
  577POPC   C4B10054  10.941  21.562   7.679
  578POPC   NC310055  14.448  33.378   9.528
  578POPC   PO410056  14.325  32.767   9.437
  578POPC   GL110057  14.520  33.043   9.155
  578POPC   GL210058  14.844  32.938   9.088
  578POPC   C1A10059  14.471  33.300   8.799
  578POPC   D2A10060  14.480  33.054   8.444
  578POPC   C3A10061  14.370  33.187   8.077
  578POPC   C4A10062  14.037  33.056   7.834
  578POPC   C1B10063  14.610  32.683   8.773
  578POPC   C2B10064  14.684  32.586   8.313
  578POPC   C3B10065  14.729  32.787   7.884
  578POPC   C4B10066  14.795  32.783   7.381
  579POPC   NC310067  15.837  24.637   9.476
  579POPC   PO410068  16.221  24.067   9.537
  579POPC   GL110069  16.211  24.371   9.227
  579POPC   GL210070  15.861  24.230   9.167
  579POPC   C1A10071  16.171  24.351   8.775
  579POPC   D2A10072  15.928  24.334   8.383
  579POPC   C3A10073  16.032  24.647   8.073
  579POPC   C4A10074  16.226  24.609   7.647
  579POPC   C1B10075  15.661  24.488   8.823
  579POPC   C2B10076  15.635  24.797   8.477
  579POPC   C3B10077  15.475  24.866   8.067
  579POPC   C4B10078  15.731  24.786   7.688
  580POPC   NC310079  44.058  41.136   9.471
  580POPC   PO410080  43.363  41.319   9.585
  580POPC   GL110081  43.642  41.370   9.197
  580POPC   GL210082  43.701  41.761   9.138
  580POPC   C1A10083  43.769  41.422   8.737
  580POPC   D2A10084  43.715  41.581   8.296
  580POPC   C3A10085  43.878  41.389   7.901
  580POPC   C4A10086  43.814  41.263   7.429
  580POPC   C1B10087  43.736  41.981   8.715
  580POPC   C2B10088  43.957  42.069   8.303
  580POPC   C3B10089  43.809  41.904   7.901
  580POPC   C4B10090  43.951  41.732   7.525
  581POPC   NC310091  33.464  20.668   9.396
  581POPC   PO410092  33.973  20.184   9.347
  581POPC   GL110093  33.752  20.419   9.058
  581POPC   GL210094  33.439  20.240   9.026
  581POPC   C1A10095  33.757  20.804   8.803
  581POPC   D2A10096  34.003  20.874   8.467
  581POPC   C3A10097  33.902  20.783   8.085
  581POPC   C4A10098  33.842  20.875   7.684
  581POPC   C1B10099  33.461  20.436   8.635
  581POPC   C2B10100  33.310  20.390   8.241
  581POPC   C3B10101  33.319  20.110   7.918
  581POPC   C4B10102  33.456  20.261   7.532
  582POPC   NC310103   3.463  14.621   9.375
  582POPC   PO410104   4.010  14.255   9.444
  582POPC   GL110105   3.719  14.262   9.119
  582POPC   GL210106   3.716  14.600   8.936
  582POPC   C1A10107   3.514  14.156   8.746
  582POPC   D2A10108   3.468  14.337   8.346
  582POPC   C3A10109   3.626  14.103   7.998
  582POPC   C4A10110   3.384  14.090   7.623
  582POPC   C1B10111   3.307  14.666   8.710
  582POPC   C2B10112   3.275  14.851   8.268
  582POPC   C3B10113   3.513  14.628   7.927
  582POPC   C4B10114   3.811  14.802   7.683
  583POPC   NC310115  15.192  37.652   9.467
  583POPC   PO410116  14.623  37.539   9.130
  583POPC   GL110117  15.091  37.654   8.972
  583POPC   GL210118  15.435  37.833   9.044
  583POPC   C1A10119  15.151  37.826   8.593
  583POPC   D2A10120  14.779  37.781   8.343
  583POPC   C3A10121  14.981  37.665   8.016
  583POPC   C4A10122  15.127  37.878   7.704
  583POPC   C1B10123  15.753  37.983   8.744
  583POPC   C2B10124  15.823  37.801   8.344
  583POPC   C3B10125  15.502  37.939   8.056
  583POPC   C4B10126  15.476  38.295   7.819
  584POPC   NC310127   0.108  23.306   9.400
  584POPC   PO410128   0.266  22.694   9.588
  584POPC   GL110129   0.354  22.807   9.177
  584POPC   GL210130   0.673  22.764   9.175
  584POPC   C1A10131   0.174  23.010   8.802
  584POPC   D2A10132  44.961  22.944   8.406
  584POPC   C3A10133   0.171  23.033   8.004
  584POPC   C4A10134   0.285  23.334   7.682
  584POPC   C1B10135   0.703  22.987   8.829
  584POPC   C2B10136   0.560  23.039   8.465
  584POPC   C3B10137   0.739  22.946   8.110
  584POPC   C4B10138   0.635  22.986   7.727
  585POPC   NC310139  14.691  42.273   9.522
  585POPC   PO410140  15.119  42.750   9.426
  585POPC   GL110141  14.954  42.485   9.095
  585POPC   GL210142  15.248  42.311   9.038
  585POPC   C1A10143  14.971  42.330   8.641
  585POPC   D2A10144  14.829  42.080   8.298
  585POPC   C3A10145  14.914  42.333   7.935
  585POPC   C4A10146  15.259  42.587   7.778
  585POPC   C1B10147  15.487  42.058   8.764
  585POPC   C2B10148  15.431  41.894   8.363
  585POPC   C3B10149  15.395  42.134   7.977
  585POPC   C4B10150  15.252  42.060   7.573
  586POPC   NC310151  16.968  19.533   9.503
  586POPC   PO410152  16.460  19.951   9.447
  586POPC   GL110153  16.727  19.844   9.122
  586POPC   GL210154  16.644  19.505   9.105
  586POPC   C1A10155  16.794  19.703   8.670
  586POPC   D2A10156  16.753  19.993   8.396
  586POPC   C3A10157  16.809  19.861   8.053
  586POPC   C4A10158  16.802  20.162   7.743
  586POPC   C1B10159  16.377  19.396   8.751
  586POPC   C2B10160  16.340  19.587   8.348
  586POPC   C3B10161  16.403  19.470   7.952
  586POPC   C4B10162  16.635  19.677   7.623
  587POPC   NC310163  18.301  17.137   9.424
  587POPC   PO410164  18.191  16.464   9.422
  587POPC   GL110165  18.463  16.526   9.090
  587POPC   GL210166  18.349  16.848   9.019
  587POPC   C1A10167  18.483  16.539   8.642
  587POPC   D2A10168  18.237  16.618   8.278
  587POPC   C3A10169  18.490  16.410   8.028
  587POPC   C4A10170  18.665  16.403   7.637
  587POPC   C1B10171  18.071  16.882   8.682
  587POPC   C2B10172  18.103  17.110   8.283
  587POPC   C3B10173  18.137  17.000   7.836
  587POPC   C4B10174  18.025  17.113   7.352
  588POPC   NC310175  12.648   1.889   9.438
  588POPC   PO410176  13.185   2.413   9.494
  588POPC   GL110177  13.082   2.186   9.135
  588POPC   GL210178  13.006   1.831   9.078
  588POPC   C1A10179  12.833   2.214   8.747
  588POPC   D2A10180  12.617   2.447   8.402
  588POPC   C3A10181  12.627   2.254   7.998
  588POPC   C4A10182  12.565   2.096   7.575
  588POPC   C1B10183  12.952   1.690   8.662
  588POPC   C2B10184  12.999   1.919   8.279
  588POPC   C3B10185  12.929   1.856   7.853
  588POPC   C4B10186  13.074   1.664   7.500
  589POPC   NC310187  42.965  14.028   9.970
  589POPC   PO410188  43.134  14.609   9.666
  589POPC   GL110189  43.202  14.547   9.206
  589POPC   GL210190  43.414  14.247   9.129
  589POPC   C1A10191  43.358  14.642   8.783
  589POPC   D2A10192  43.529  14.431   8.416
  589POPC   C3A10193  43.378  14.560   7.987
  589POPC   C4A10194  43.106  14.737   7.635
  589POPC   C1B10195  43.032  14.269   8.812
  589POPC   C2B10196  43.021  14.324   8.344
  589POPC   C3B10197  43.007  14.220   7.891
  589POPC   C4B10198  42.849  14.283   7.458
  590POPC   NC310199  43.589  14.618   9.528
  590POPC   PO410200  44.029  14.127   9.469
  590POPC   GL110201  43.949  14.457   9.151
  590POPC   GL210202  43.756  14.752   9.056
  590POPC   C1A10203  44.170  14.529   8.771
  590POPC   D2A10204  44.075  14.376   8.358
  590POPC   C3A10205  43.799  14.269   8.011
  590POPC   C4A10206  44.015  14.486   7.714
  590POPC   C1B10207  43.818  14.827   8.600
  590POPC   C2B10208  43.832  14.804   8.149
  590POPC   C3B10209  43.602  14.985   7.802
  590POPC   C4B10210  43.596  14.655   7.507
  591POPC   NC310211   4.691  36.071   9.810
  591POPC   PO410212   5.236  36.089   9.403
  591POPC   GL110213   5.152  36.406   9.082
  591POPC   GL210214   4.854  36.291   9.087
  591POPC   C1A10215   5.105  36.399   8.605
  591POPC   D2A10216   5.245  36.082   8.308
  591POPC   C3A10217   5.264  36.122   7.886
  591POPC   C4A10218   5.178  35.813   7.650
  591POPC   C1B10219   4.637  36.247   8.717
  591POPC   C2B10220   4.721  35.972   8.406
  591POPC   C3B10221   4.810  35.898   8.015
  591POPC   C4B10222   4.487  35.944   7.753
  592POPC   NC310223  44.001  39.706   9.355
  592POPC   PO410224  44.151  39.052   9.527
  592POPC   GL110225  43.974  39.239   9.163
  592POPC   GL210226  43.871  38.959   9.059
  592POPC   C1A10227  43.975  39.445   8.742
  592POPC   D2A10228  44.203  39.316   8.375
  592POPC   C3A10229  44.220  39.425   7.924
  592POPC   C4A10230  44.048  39.152   7.603
  592POPC   C1B10231  43.676  39.041   8.663
  592POPC   C2B10232  43.740  39.138   8.235
  592POPC   C3B10233  43.693  39.407   7.888
  592POPC   C4B10234  43.517  39.279   7.486
  593POPC   NC310235  43.327  40.861   9.581
  593POPC   PO410236  43.974  40.610   9.535
  593POPC   GL110237  43.806  40.800   9.188
  593POPC   GL210238  43.640  40.543   9.121
  593POPC   C1A10239  43.733  40.907   8.770
  593POPC   D2A10240  43.581  41.047   8.414
  593POPC   C3A10241  43.782  40.923   8.078
  593POPC   C4A10242  44.047  40.944   7.741
  593POPC   C1B10243  43.635  40.377   8.713
  593POPC   C2B10244  43.670  40.461   8.292
  593POPC   C3B10245  43.913  40.471   7.905
  593POPC   C4B10246  43.859  40.602   7.454
  594POPC   NC310247  32.698   8.167   9.571
  594POPC   PO410248  33.273   8.185   9.869
  594POPC   GL110249  33.149   8.324   9.387
  594POPC   GL210250  33.231   8.079   9.112
  594POPC   C1A10251  33.153   8.520   8.929
  594POPC   D2A10252  33.175   8.353   8.499
  594POPC   C3A10253  32.856   8.482   8.188
  594POPC   C4A10254  32.747   8.394   7.764
  594POPC   C1B10255  32.938   7.933   8.802
  594POPC   C2B10256  32.832   7.987   8.375
  594POPC   C3B10257  33.053   8.030   7.996
  594POPC   C4B10258  33.370   7.902   7.732
  595POPC   NC310259  26.042  20.960   9.411
  595POPC   PO410260  25.913  21.616   9.455
  595POPC   GL110261  26.078  21.430   9.084
  595POPC   GL210262  25.927  21.112   8.927
  595POPC   C1A10263  26.126  21.513   8.647
  595POPC   D2A10264  25.896  21.376   8.324
  595POPC   C3A10265  26.164  21.205   8.040
  595POPC   C4A10266  26.060  21.124   7.639
  595POPC   C1B10267  25.636  21.457   8.814
  595POPC   C2B10268  25.476  21.729   8.493
  595POPC   C3B10269  25.486  21.604   8.067
  595POPC   C4B10270  25.821  21.540   7.816
  596POPC   NC310271  29.347  39.761   9.605
  596POPC   PO410272  29.227  40.370   9.538
  596POPC   GL110273  29.229  40.029   9.181
  596POPC   GL210274  28.939  39.775   9.259
  596POPC   C1A10275  29.333  40.053   8.720
  596POPC   D2A10276  29.359  40.365   8.347
  596POPC   C3A10277  29.506  40.279   7.916
  596POPC   C4A10278  29.443  39.862   7.676
  596POPC   C1B10279  28.831  39.858   8.825
  596POPC   C2B10280  28.992  39.824   8.415
  596POPC   C3B10281  29.085  40.031   8.043
  596POPC   C4B10282  29.021  40.478   7.944
  597POPC   NC310283  20.830  31.881   9.166
  597POPC   PO410284  20.723  31.461   9.705
  597POPC   GL110285  20.592  31.395   9.217
  597POPC   GL210286  20.240  31.275   9.087
  597POPC   C1A10287  20.511  31.504   8.741
  597POPC   D2A10288  20.624  31.305   8.358
  597POPC   C3A10289  20.697  31.580   8.015
  597POPC   C4A10290  21.083  31.578   7.796
  597POPC   C1B10291  20.103  31.200   8.646
  597POPC   C2B10292  20.185  31.064   8.235
  597POPC   C3B10293  20.410  31.200   7.880
  597POPC   C4B10294  20.333  31.389   7.460
  598POPC   NC310295  32.696   1.514   9.463
  598POPC   PO410296  32.623   0.796   9.529
  598POPC   GL110297  32.397   1.082   9.222
  598POPC   GL210298  32.465   1.427   9.018
  598POPC   C1A10299  32.351   0.999   8.784
  598POPC   D2A10300  32.453   1.150   8.370
  598POPC   C3A10301  32.153   0.915   8.090
  598POPC   C4A10302  32.121   0.817   7.675
  598POPC   C1B10303  32.095   1.464   8.709
  598POPC   C2B10304  32.010   1.366   8.254
  598POPC   C3B10305  32.287   1.355   7.858
  598POPC   C4B10306  32.100   1.515   7.470
  599POPC   NC310307  15.438  16.586   9.545
  599POPC   PO410308  15.085  16.956   9.225
  599POPC   GL110309  15.165  16.524   9.026
  599POPC   GL210310  15.474  16.326   9.122
  599POPC   C1A10311  14.967  16.375   8.664
  599POPC   D2A10312  15.060  16.633   8.307
  599POPC   C3A10313  15.199  16.566   7.883
  599POPC   C4A10314  14.982  16.721   7.516
  599POPC   C1B10315  15.596  16.646   8.805
  599POPC   C2B10316  15.510  16.995   8.540
  599POPC   C3B10317  15.451  16.973   8.104
  599POPC   C4B10318  15.711  16.640   7.870
  600POPC   NC310319  17.147  28.609   9.450
  600POPC   PO410320  16.537  28.249   9.576
  600POPC   GL110321  16.533  28.122   9.149
  600POPC   GL210322  16.565  28.466   9.075
  600POPC   C1A10323  16.672  28.134   8.715
  600POPC   D2A10324  16.661  28.337   8.361
  600POPC   C3A10325  16.946  28.123   8.097
  600POPC   C4A10326  16.923  28.205   7.671
  600POPC   C1B10327  16.349  28.655   8.729
  600POPC   C2B10328  16.205  28.563   8.318
  600POPC   C3B10329  16.506  28.690   8.010
  600POPC   C4B10330  16.579  28.567   7.615
  601POPC   NC310331  36.550  17.698   9.416
  601POPC   PO410332  37.256  17.459   9.498
  601POPC   GL110333  37.012  17.533   9.132
  601POPC   GL210334  36.846  17.227   9.043
  601POPC   C1A10335  36.891  17.840   8.811
  601POPC   D2A10336  36.842  17.880   8.360
  601POPC   C3A10337  36.540  17.747   8.024
  601POPC   C4A10338  36.738  17.534   7.662
  601POPC   C1B10339  36.870  17.377   8.622
  601POPC   C2B10340  36.810  17.365   8.185
  601POPC   C3B10341  36.921  17.080   7.873
  601POPC   C4B10342  37.122  17.181   7.501
  602POPC   NC310343  18.609  13.516   9.529
  602POPC   PO410344  19.263  13.781   9.455
  602POPC   GL110345  18.970  13.599   9.159
  602POPC   GL210346  19.252  13.663   8.963
  602POPC   C1A10347  18.838  13.567   8.716
  602POPC   D2A10348  19.116  13.693   8.377
  602POPC   C3A10349  18.853  13.650   8.022
  602POPC   C4A10350  18.781  13.826   7.631
  602POPC   C1B10351  19.495  13.944   8.752
  602POPC   C2B10352  19.652  13.845   8.384
  602POPC   C3B10353  19.547  14.026   8.018
  602POPC   C4B10354  19.294  13.785   7.760
  603POPC   NC310355  27.518  32.193   9.632
  603POPC   PO410356  27.416  32.779   9.354
  603POPC   GL110357  27.513  32.469   9.055
  603POPC   GL210358  27.419  32.139   9.128
  603POPC   C1A10359  27.526  32.304   8.627
  603POPC   D2A10360  27.710  32.186   8.235
  603POPC   C3A10361  27.461  32.387   7.910
  603POPC   C4A10362  27.423  32.716   7.588
  603POPC   C1B10363  27.294  31.885   8.773
  603POPC   C2B10364  27.440  31.765   8.357
  603POPC   C3B10365  27.467  31.851   7.899
  603POPC   C4B10366  27.471  32.082   7.494
  604POPC   NC310367  21.027  21.151   9.380
  604POPC   PO410368  21.563  21.565   9.544
  604POPC   GL110369  21.427  21.638   9.138
  604POPC   GL210370  21.168  21.466   9.013
  604POPC   C1A10371  21.591  21.551   8.735
  604POPC   D2A10372  21.725  21.448   8.339
  604POPC   C3A10373  21.397  21.390   8.026
  604POPC   C4A10374  21.389  21.041   7.743
  604POPC   C1B10375  20.997  21.666   8.654
  604POPC   C2B10376  21.122  21.781   8.268
  604POPC   C3B10377  20.950  21.676   7.866
  604POPC   C4B10378  20.831  21.827   7.429
  605POPC   NC310379  22.990  24.144   9.505
  605POPC   PO410380  23.236  24.821   9.428
  605POPC   GL110381  22.902  24.628   9.191
  605POPC   GL210382  22.902  24.291   9.031
  605POPC   C1A10383  22.598  24.700   8.869
  605POPC   D2A10384  22.446  24.635   8.458
  605POPC   C3A10385  22.597  24.876   8.133
  605POPC   C4A10386  22.775  24.514   7.954
  605POPC   C1B10387  22.887  24.346   8.591
  605POPC   C2B10388  23.168  24.336   8.237
  605POPC   C3B10389  23.138  24.166   7.820
  605POPC   C4B10390  23.207  24.203   7.365
  606POPC   NC310391  38.900  23.020   9.302
  606POPC   PO410392  39.398  23.041   9.776
  606POPC   GL110393  39.356  22.765   9.323
  606POPC   GL210394  39.072  22.559   9.155
  606POPC   C1A10395  39.417  22.781   8.839
  606POPC   D2A10396  39.329  22.892   8.425
  606POPC   C3A10397  39.413  22.569   8.130
  606POPC   C4A10398  39.532  22.603   7.713
  606POPC   C1B10399  38.915  22.687   8.714
  606POPC   C2B10400  38.902  22.672   8.245
  606POPC   C3B10401  39.068  22.934   7.912
  606POPC   C4B10402  38.878  23.069   7.540
  607POPC   NC310403   4.867   0.732   9.304
  607POPC   PO410404   5.272   0.217   9.541
  607POPC   GL110405   5.078   0.290   9.139
  607POPC   GL210406   5.440   0.211   9.052
  607POPC   C1A10407   4.781   0.499   8.750
  607POPC   D2A10408   4.723   0.722   8.344
  607POPC   C3A10409   4.976   0.517   8.041
  607POPC   C4A10410   5.172   0.667   7.643
  607POPC   C1B10411   5.258   0.287   8.644
  607POPC   C2B10412   5.361   0.137   8.245
  607POPC   C3B10413   5.293   0.208   7.811
  607POPC   C4B10414   5.298   0.263   7.375
  608POPC   NC310415  44.794  25.575   9.474
  608POPC   PO410416  44.594  24.905   9.505
  608POPC   GL110417  44.519  25.138   9.069
  608POPC   GL210418  44.472  25.467   9.040
  608POPC   C1A10419  44.489  25.279   8.579
  608POPC   D2A10420  44.657  25.054   8.237
  608POPC   C3A10421  44.812  25.303   7.944
  608POPC   C4A10422  44.457  25.505   7.805
  608POPC   C1B10423  44.912  25.384   8.830
  608POPC   C2B10424   0.019  25.500   8.390
  608POPC   C3B10425   0.003  25.782   7.995
  608POPC   C4B10426  44.810  25.802   7.581
  609POPC   NC310427  24.282  11.844   9.469
  609POPC   PO410428  24.340  12.505   9.495
  609POPC   GL110429  24.322  12.257   9.127
  609POPC   GL210430  24.483  11.917   9.019
  609POPC   C1A10431  24.245  12.239   8.713
  609POPC   D2A10432  24.388  11.882   8.480
  609POPC   C3A10433  24.447  12.014   8.080
  609POPC   C4A10434  24.430  11.986   7.647
  609POPC   C1B10435  24.786  12.093   8.731
  609POPC   C2B10436  24.903  11.907   8.334
  609POPC   C3B10437  25.116  12.109   8.000
  609POPC   C4B10438  25.169  12.255   7.591
  610POPC   NC310439   1.760   9.915   9.376
  610POPC   PO410440   1.053   9.831   9.571
  610POPC   GL110441   1.051   9.686   9.144
  610POPC   GL210442   1.299   9.918   9.096
  610POPC   C1A10443   1.073   9.770   8.672
  610POPC   D2A10444   0.929  10.031   8.325
  610POPC   C3A10445   0.971   9.679   8.044
  610POPC   C4A10446   1.268   9.562   7.726
  610POPC   C1B10447   1.490  10.074   8.699
  610POPC   C2B10448   1.433   9.995   8.233
  610POPC   C3B10449   1.588  10.016   7.816
  610POPC   C4B10450   1.773   9.651   7.586
  611POPC   NC310451   5.749  28.006   9.594
  611POPC   PO410452   5.748  27.368   9.593
  611POPC   GL110453   5.639  27.471   9.188
  611POPC   GL210454   5.644  27.835   9.127
  611POPC   C1A10455   5.770  27.512   8.746
  611POPC   D2A10456   6.115  27.589   8.449
  611POPC   C3A10457   6.071  27.381   8.062
  611POPC   C4A10458   6.172  27.598   7.722
  611POPC   C1B10459   5.493  28.001   8.739
  611POPC   C2B10460   5.638  27.845   8.364
  611POPC   C3B10461   5.882  27.895   8.032
  611POPC   C4B10462   5.684  27.720   7.667
  612POPC   NC310463  37.556   2.918   9.491
  612POPC   PO410464  37.162   2.443   9.292
  612POPC   GL110465  37.428   2.702   9.022
  612POPC   GL210466  37.746   2.654   9.105
  612POPC   C1A10467  37.655   3.046   8.802
  612POPC   D2A10468  37.528   3.176   8.398
  612POPC   C3A10469  37.667   2.977   8.004
  612POPC   C4A10470  37.531   2.571   7.831
  612POPC   C1B10471  37.805   2.504   8.675
  612POPC   C2B10472  37.989   2.608   8.259
  612POPC   C3B10473  38.027   2.647   7.804
  612POPC   C4B10474  38.011   2.515   7.373
  613POPC   NC310475  16.729   2.474   9.471
  613POPC   PO410476  16.373   3.077   9.530
  613POPC   GL110477  16.473   2.788   9.146
  613POPC   GL210478  16.810   2.842   9.083
  613POPC   C1A10479  16.582   2.668   8.694
  613POPC   D2A10480  16.687   2.811   8.297
  613POPC   C3A10481  16.518   2.660   7.948
  613POPC   C4A10482  16.464   2.987   7.689
  613POPC   C1B10483  16.995   3.009   8.703
  613POPC   C2B10484  17.176   2.915   8.298
  613POPC   C3B10485  17.038   2.699   7.932
  613POPC   C4B10486  17.040   2.656   7.483
  614POPC   NC310487  39.275  39.727   9.411
  614POPC   PO410488  39.380  40.395   9.562
  614POPC   GL110489  39.196  40.186   9.185
  614POPC   GL210490  39.499  40.035   9.058
  614POPC   C1A10491  39.070  39.900   8.811
  614POPC   D2A10492  39.053  39.709   8.382
  614POPC   C3A10493  39.065  39.926   8.022
  614POPC   C4A10494  39.121  40.269   7.812
  614POPC   C1B10495  39.494  40.064   8.587
  614POPC   C2B10496  39.480  40.245   8.180
  614POPC   C3B10497  39.545  39.978   7.824
  614POPC   C4B10498  39.429  39.561   7.909
  615POPC   NC310499  42.061  28.311   9.473
  615POPC   PO410500  42.691  28.597   9.482
  615POPC   GL110501  42.455  28.621   9.079
  615POPC   GL210502  42.249  28.335   9.009
  615POPC   C1A10503  42.365  28.596   8.600
  615POPC   D2A10504  42.532  28.477   8.205
  615POPC   C3A10505  42.314  28.712   7.881
  615POPC   C4A10506  42.211  28.474   7.503
  615POPC   C1B10507  42.530  28.115   8.716
  615POPC   C2B10508  42.506  27.875   8.347
  615POPC   C3B10509  42.432  28.031   7.957
  615POPC   C4B10510  42.794  28.045   7.743
  616POPC   NC310511   9.527   3.463   9.262
  616POPC   PO410512   9.076   3.821   9.660
  616POPC   GL110513   9.072   3.711   9.212
  616POPC   GL210514   9.024   3.336   9.140
  616POPC   C1A10515   9.071   3.703   8.744
  616POPC   D2A10516   8.989   3.502   8.332
  616POPC   C3A10517   9.109   3.766   7.955
  616POPC   C4A10518   8.877   3.846   7.581
  616POPC   C1B10519   9.235   3.185   8.736
  616POPC   C2B10520   9.364   3.098   8.312
  616POPC   C3B10521   9.239   3.291   7.935
  616POPC   C4B10522   8.804   3.371   7.745
  617POPC   NC310523   7.921  17.218   9.475
  617POPC   PO410524   8.318  17.819   9.427
  617POPC   GL110525   8.432  17.529   9.098
  617POPC   GL210526   8.106  17.469   9.005
  617POPC   C1A10527   8.468  17.273   8.697
  617POPC   D2A10528   8.115  17.043   8.453
  617POPC   C3A10529   8.010  17.262   8.054
  617POPC   C4A10530   8.264  17.511   7.755
  617POPC   C1B10531   8.287  17.762   8.664
  617POPC   C2B10532   8.389  17.812   8.211
  617POPC   C3B10533   8.641  17.889   7.848
  617POPC   C4B10534   8.499  17.837   7.411
  618POPC   NC310535  11.722  13.848   9.607
  618POPC   PO410536  11.221  13.499   9.565
  618POPC   GL110537  11.447  13.470   9.216
  618POPC   GL210538  11.485  13.836   9.144
  618POPC   C1A10539  11.351  13.321   8.819
  618POPC   D2A10540  11.433  13.619   8.496
  618POPC   C3A10541  11.444  13.543   8.040
  618POPC   C4A10542  11.067  13.468   7.821
  618POPC   C1B10543  11.136  13.858   8.849
  618POPC   C2B10544  11.069  14.067   8.438
  618POPC   C3B10545  11.095  13.935   8.039
  618POPC   C4B10546  11.098  14.028   7.627
  619POPC   NC310547  32.491  30.136   9.503
  619POPC   PO410548  32.026  29.683   9.647
  619POPC   GL110549  32.201  29.617   9.236
  619POPC   GL210550  31.883  29.455   9.106
  619POPC   C1A10551  32.381  29.876   8.879
  619POPC   D2A10552  32.387  30.197   8.557
  619POPC   C3A10553  32.411  30.179   8.106
  619POPC   C4A10554  32.328  29.907   7.793
  619POPC   C1B10555  31.923  29.732   8.735
  619POPC   C2B10556  32.101  29.772   8.290
  619POPC   C3B10557  31.922  29.582   7.885
  619POPC   C4B10558  32.072  29.663   7.443
  620POPC   NC310559  35.674  44.385   9.119
  620POPC   PO410560  35.442  44.921   9.534
  620POPC   GL110561  35.232  44.742   9.195
  620POPC   GL210562  35.060  44.460   9.319
  620POPC   C1A10563  35.216  44.806   8.739
  620POPC   D2A10564  35.383   0.032   8.341
  620POPC   C3A10565  35.381  44.780   7.974
  620POPC   C4A10566  35.768  44.768   7.797
  620POPC   C1B10567  34.913  44.379   8.905
  620POPC   C2B10568  35.051  44.238   8.509
  620POPC   C3B10569  34.906  44.358   8.122
  620POPC   C4B10570  35.065  44.386   7.737
  621POPC   NC310571  42.320   1.610   9.436
  621POPC   PO410572  42.633   1.094   9.712
  621POPC   GL110573  42.633   1.188   9.277
  621POPC   GL210574  42.677   0.846   9.217
  621POPC   C1A10575  42.586   1.368   8.861
  621POPC   D2A10576  42.291   1.298   8.545
  621POPC   C3A10577  42.430   1.304   8.125
  621POPC   C4A10578  42.135   1.468   7.832
  621POPC   C1B10579  42.511   0.859   8.804
  621POPC   C2B10580  42.368   0.812   8.363
  621POPC   C3B10581  42.565   0.812   7.973
  621POPC   C4B10582  42.513   1.134   7.636
  622POPC   NC310583   8.578  32.048   9.459
  622POPC   PO410584   9.243  32.277   9.574
  622POPC   GL110585   9.169  32.354   9.166
  622POPC   GL210586   8.842  32.459   9.184
  622POPC   C1A10587   9.079  32.192   8.776
  622POPC   D2A10588   9.010  31.980   8.398
  622POPC   C3A10589   9.007  32.184   8.007
  622POPC   C4A10590   8.997  31.986   7.630
  622POPC   C1B10591   8.736  32.571   8.780
  622POPC   C2B10592   8.847  32.484   8.387
  622POPC   C3B10593   8.737  32.628   7.980
  622POPC   C4B10594   8.871  32.486   7.583
  623POPC   NC310595  20.507  17.110   9.500
  623POPC   PO410596  20.626  16.343   9.547
  623POPC   GL110597  20.763  16.445   9.172
  623POPC   GL210598  20.754  16.781   9.185
  623POPC   C1A10599  20.550  16.512   8.797
  623POPC   D2A10600  20.416  16.742   8.441
  623POPC   C3A10601  20.400  16.454   8.116
  623POPC   C4A10602  20.657  16.566   7.789
  623POPC   C1B10603  20.769  16.979   8.770
  623POPC   C2B10604  20.903  17.078   8.375
  623POPC   C3B10605  20.819  17.013   7.962
  623POPC   C4B10606  21.129  17.088   7.664
  624POPC   NC310607  44.049  22.408   9.511
  624POPC   PO410608  44.007  21.781   9.329
  624POPC   GL110609  43.898  22.174   9.062
  624POPC   GL210610  43.591  22.304   9.198
  624POPC   C1A10611  43.826  22.226   8.599
  624POPC   D2A10612  43.831  21.873   8.263
  624POPC   C3A10613  44.004  22.020   7.860
  624POPC   C4A10614  44.263  22.410   7.906
  624POPC   C1B10615  43.352  22.463   8.844
  624POPC   C2B10616  43.419  22.491   8.421
  624POPC   C3B10617  43.701  22.390   8.090
  624POPC   C4B10618  43.702  22.412   7.627
  625POPC   NC310619  21.127   7.017   9.416
  625POPC   PO410620  21.258   6.439   9.588
  625POPC   GL110621  21.406   6.490   9.153
  625POPC   GL210622  21.724   6.564   9.225
  625POPC   C1A10623  21.512   6.683   8.710
  625POPC   D2A10624  21.386   7.034   8.456
  625POPC   C3A10625  21.166   6.899   8.094
  625POPC   C4A10626  21.431   6.934   7.768
  625POPC   C1B10627  21.801   6.300   8.860
  625POPC   C2B10628  21.579   6.232   8.465
  625POPC   C3B10629  21.584   6.585   8.172
  625POPC   C4B10630  21.671   6.494   7.712
  626POPC   NC310631  37.736   8.524   9.480
  626POPC   PO410632  37.441   7.947   9.426
  626POPC   GL110633  37.786   8.010   9.104
  626POPC   GL210634  37.680   7.662   8.909
  626POPC   C1A10635  38.037   8.440   8.826
  626POPC   D2A10636  37.950   8.761   8.409
  626POPC   C3A10637  37.525   8.715   8.084
  626POPC   C4A10638  37.364   8.637   7.633
  626POPC   C1B10639  37.475   7.963   8.629
  626POPC   C2B10640  37.749   8.326   8.403
  626POPC   C3B10641  37.915   8.437   7.993
  626POPC   C4B10642  37.865   8.542   7.586
  627POPC   NC310643  30.795  33.580   9.512
  627POPC   PO410644  30.407  34.137   9.465
  627POPC   GL110645  30.597  33.852   9.124
  627POPC   GL210646  30.900  33.611   9.033
  627POPC   C1A10647  30.620  34.014   8.718
  627POPC   D2A10648  30.740  34.231   8.394
  627POPC   C3A10649  30.636  34.013   8.020
  627POPC   C4A10650  30.561  33.956   7.602
  627POPC   C1B10651  30.646  33.497   8.693
  627POPC   C2B10652  30.666  33.546   8.276
  627POPC   C3B10653  30.965  33.619   7.976
  627POPC   C4B10654  30.939  33.622   7.546
  628POPC   NC310655   1.169  16.398   9.669
  628POPC   PO410656   1.005  16.901   9.290
  628POPC   GL110657   1.414  16.763   9.100
  628POPC   GL210658   1.617  16.512   9.273
  628POPC   C1A10659   1.539  16.906   8.671
  628POPC   D2A10660   1.621  17.012   8.220
  628POPC   C3A10661   1.396  16.708   7.912
  628POPC   C4A10662   0.938  16.749   7.807
  628POPC   C1B10663   1.778  16.489   8.843
  628POPC   C2B10664   1.807  16.552   8.384
  628POPC   C3B10665   1.755  16.341   7.985
  628POPC   C4B10666   1.452  16.191   7.722
  629POPC   NC310667  14.557  38.994   9.417
  629POPC   PO410668  14.135  39.473   9.597
  629POPC   GL110669  14.384  39.436   9.195
  629POPC   GL210670  14.732  39.478   9.179
  629POPC   C1A10671  14.461  39.281   8.766
  629POPC   D2A10672  14.664  39.114   8.387
  629POPC   C3A10673  14.445  39.036   8.003
  629POPC   C4A10674  14.088  39.242   7.851
  629POPC   C1B10675  14.783  39.709   8.780
  629POPC   C2B10676  14.864  39.587   8.368
  629POPC   C3B10677  14.685  39.481   7.975
  629POPC   C4B10678  14.620  39.460   7.493
  630POPC   NC310679   0.523  26.766   9.527
  630POPC   PO410680   0.847  27.232   9.197
  630POPC   GL110681   0.502  27.003   9.076
  630POPC   GL210682   0.182  27.076   9.253
  630POPC   C1A10683   0.385  26.728   8.755
  630POPC   D2A10684   0.527  26.657   8.346
  630POPC   C3A10685   0.279  26.660   7.993
  630POPC   C4A10686   0.623  26.567   7.762
  630POPC   C1B10687   0.129  27.205   8.805
  630POPC   C2B10688   0.219  27.100   8.375
  630POPC   C3B10689  45.000  27.086   7.981
  630POPC   C4B10690   0.167  27.085   7.590
  631POPC   NC310691  43.038  27.137   9.679
  631POPC   PO410692  43.264  27.772   9.514
  631POPC   GL110693  43.069  27.683   9.149
  631POPC   GL210694  42.969  27.349   9.129
  631POPC   C1A10695  43.040  27.903   8.761
  631POPC   D2A10696  43.369  27.906   8.429
  631POPC   C3A10697  43.251  27.872   7.975
  631POPC   C4A10698  43.421  27.888   7.535
  631POPC   C1B10699  43.115  27.406   8.697
  631POPC   C2B10700  42.955  27.607   8.334
  631POPC   C3B10701  42.749  27.597   7.963
  631POPC   C4B10702  42.988  27.569   7.600
  632POPC   NC310703   9.249  38.102   9.576
  632POPC   PO410704   9.379  38.822   9.420
  632POPC   GL110705   9.213  38.548   9.067
  632POPC   GL210706   9.144  38.176   9.072
  632POPC   C1A10707   9.164  38.426   8.619
  632POPC   D2A10708   9.414  38.313   8.289
  632POPC   C3A10709   9.215  38.527   7.952
  632POPC   C4A10710   9.042  38.397   7.551
  632POPC   C1B10711   8.754  38.236   8.854
  632POPC   C2B10712   8.603  38.234   8.413
  632POPC   C3B10713   8.743  38.257   7.963
  632POPC   C4B10714   8.516  38.429   7.587
  633POPC   NC310715  28.343  19.188   9.713
  633POPC   PO410716  28.044  18.792   9.331
  633POPC   GL110717  28.374  18.941   9.088
  633POPC   GL210718  28.315  19.277   9.128
  633POPC   C1A10719  28.435  18.921   8.649
  633POPC   D2A10720  28.205  18.997   8.269
  633POPC   C3A10721  28.460  19.051   7.908
  633POPC   C4A10722  28.539  19.147   7.447
  633POPC   C1B10723  28.118  19.326   8.694
  633POPC   C2B10724  28.052  19.481   8.269
  633POPC   C3B10725  28.052  19.370   7.822
  633POPC   C4B10726  28.292  19.596   7.522
  634POPC   NC310727  10.223  14.395   9.625
  634POPC   PO410728  10.836  14.630   9.457
  634POPC   GL110729  10.762  14.263   9.201
  634POPC   GL210730  10.461  14.386   9.141
  634POPC   C1A10731  10.698  14.125   8.780
  634POPC   D2A10732  10.634  14.406   8.470
  634POPC   C3A10733  10.830  14.372   8.055
  634POPC   C4A10734  10.797  14.584   7.678
  634POPC   C1B10735  10.214  14.245   8.763
  634POPC   C2B10736  10.128  14.352   8.391
  634POPC   C3B10737  10.313  14.435   8.056
  634POPC   C4B10738  10.427  14.220   7.751
  635POPC   NC310739  37.598  28.510   9.702
  635POPC   PO410740  38.153  28.141   9.476
  635POPC   GL110741  37.911  28.448   9.231
  635POPC   GL210742  37.561  28.398   9.194
  635POPC   C1A10743  37.926  28.518   8.777
  635POPC   D2A10744  38.006  28.707   8.333
  635POPC   C3A10745  37.840  28.428   7.981
  635POPC   C4A10746  37.780  27.999   7.869
  635POPC   C1B10747  37.367  28.594   8.848
  635POPC   C2B10748  37.522  28.526   8.427
  635POPC   C3B10749  37.332  28.478   8.047
  635POPC   C4B10750  37.270  28.670   7.669
  636POPC   NC310751  27.214  22.192   9.703
  636POPC   PO410752  27.831  21.883   9.646
  636POPC   GL110753  27.766  22.095   9.239
  636POPC   GL210754  27.431  22.294   9.229
  636POPC   C1A10755  27.770  21.969   8.796
  636POPC   D2A10756  27.589  21.877   8.423
  636POPC   C3A10757  27.740  22.081   8.076
  636POPC   C4A10758  27.692  21.995   7.709
  636POPC   C1B10759  27.585  22.441   8.830
  636POPC   C2B10760  27.495  22.400   8.407
  636POPC   C3B10761  27.264  22.217   8.059
  636POPC   C4B10762  27.446  22.431   7.733
  637POPC   NC310763   8.877  42.778   9.625
  637POPC   PO410764   9.294  42.402   9.479
  637POPC   GL110765   9.249  42.469   9.063
  637POPC   GL210766   8.896  42.435   9.129
  637POPC   C1A10767   9.323  42.406   8.622
  637POPC   D2A10768   9.088  42.336   8.247
  637POPC   C3A10769   9.122  42.480   7.847
  637POPC   C4A10770   8.888  42.308   7.496
  637POPC   C1B10771   8.846  42.242   8.702
  637POPC   C2B10772   8.735  41.976   8.307
  637POPC   C3B10773   8.832  41.920   7.843
  637POPC   C4B10774   8.592  41.877   7.410
  638POPC   NC310775  11.414  31.555   9.871
  638POPC   PO410776  10.746  31.636   9.581
  638POPC   GL110777  11.057  31.549   9.203
  638POPC   GL210778  11.420  31.639   9.267
  638POPC   C1A10779  11.241  31.430   8.770
  638POPC   D2A10780  11.380  31.612   8.369
  638POPC   C3A10781  11.284  31.405   7.947
  638POPC   C4A10782  11.008  31.389   7.570
  638POPC   C1B10783  11.709  31.430   8.965
  638POPC   C2B10784  11.842  31.404   8.554
  638POPC   C3B10785  11.798  31.427   8.123
  638POPC   C4B10786  11.728  31.333   7.722
  639POPC   NC310787  29.820  25.536   9.479
  639POPC   PO410788  30.242  25.051   9.342
  639POPC   GL110789  29.968  25.268   9.066
  639POPC   GL210790  30.097  25.609   9.054
  639POPC   C1A10791  29.736  25.236   8.670
  639POPC   D2A10792  29.604  25.119   8.234
  639POPC   C3A10793  29.946  25.121   7.918
  639POPC   C4A10794  29.888  25.025   7.448
  639POPC   C1B10795  30.232  25.435   8.673
  639POPC   C2B10796  30.273  25.344   8.273
  639POPC   C3B10797  30.221  25.544   7.907
  639POPC   C4B10798  30.269  25.349   7.561
  640POPC   NC310799  37.202  14.282   9.828
  640POPC   PO410800  36.569  14.448   9.552
  640POPC   GL110801  36.891  14.493   9.225
  640POPC   GL210802  36.999  14.127   9.215
  640POPC   C1A10803  37.047  14.652   8.796
  640POPC   D2A10804  36.940  14.479   8.373
  640POPC   C3A10805  36.915  14.720   8.004
  640POPC   C4A10806  37.049  14.743   7.617
  640POPC   C1B10807  36.876  14.160   8.772
  640POPC   C2B10808  36.494  14.160   8.473
  640POPC   C3B10809  36.586  14.281   8.032
  640POPC   C4B10810  36.990  14.261   7.812
  641POPC   NC310811   8.561   0.017   9.382
  641POPC   PO410812   8.258  44.447   9.408
  641POPC   GL110813   8.035  44.577   9.114
  641POPC   GL210814   8.112  44.914   9.137
  641POPC   C1A10815   8.002  44.394   8.727
  641POPC   D2A10816   7.868  44.530   8.321
  641POPC   C3A10817   7.964  44.353   7.943
  641POPC   C4A10818   7.837  44.500   7.519
  641POPC   C1B10819   8.261  44.840   8.718
  641POPC   C2B10820   8.212  44.927   8.288
  641POPC   C3B10821   7.995  44.875   7.881
  641POPC   C4B10822   8.237  44.830   7.473
  642POPC   NC310823  35.188   1.705   9.454
  642POPC   PO410824  34.945   2.341   9.321
  642POPC   GL110825  35.224   2.061   9.033
  642POPC   GL210826  35.123   1.769   8.964
  642POPC   C1A10827  35.593   1.885   8.779
  642POPC   D2A10828  35.593   1.645   8.381
  642POPC   C3A10829  35.601   1.981   8.064
  642POPC   C4A10830  35.250   2.159   7.849
  642POPC   C1B10831  35.144   1.839   8.548
  642POPC   C2B10832  35.053   1.585   8.237
  642POPC   C3B10833  34.882   1.780   7.911
  642POPC   C4B10834  35.009   1.857   7.508
  643POPC   NC310835  38.329  14.871   9.438
  643POPC   PO410836  38.579  15.502   9.447
  643POPC   GL110837  38.436  15.291   9.110
  643POPC   GL210838  38.673  15.039   9.098
  643POPC   C1A10839  38.529  15.363   8.681
  643POPC   D2A10840  38.653  15.385   8.248
  643POPC   C3A10841  38.378  15.409   7.868
  643POPC   C4A10842  38.551  15.340   7.451
  643POPC   C1B10843  38.464  14.848   8.755
  643POPC   C2B10844  38.303  15.000   8.383
  643POPC   C3B10845  38.396  14.923   7.992
  643POPC   C4B10846  38.197  14.976   7.634
  644POPC   NC310847  25.608   9.447   9.533
  644POPC   PO410848  25.276   8.902   9.497
  644POPC   GL110849  25.106   8.872   9.046
  644POPC   GL210850  25.021   9.218   8.956
  644POPC   C1A10851  25.099   8.829   8.577
  644POPC   D2A10852  25.115   8.626   8.157
  644POPC   C3A10853  25.073   8.813   7.737
  644POPC   C4A10854  25.243   8.680   7.295
  644POPC   C1B10855  25.434   9.168   8.751
  644POPC   C2B10856  25.584   8.887   8.402
  644POPC   C3B10857  25.548   8.871   7.928
  644POPC   C4B10858  25.492   9.064   7.502
  645POPC   NC310859  13.099  22.301   9.439
  645POPC   PO410860  13.670  22.120   9.614
  645POPC   GL110861  13.705  22.097   9.173
  645POPC   GL210862  13.443  21.913   9.088
  645POPC   C1A10863  13.844  21.954   8.748
  645POPC   D2A10864  13.768  21.830   8.297
  645POPC   C3A10865  13.841  22.184   8.049
  645POPC   C4A10866  14.073  22.294   7.724
  645POPC   C1B10867  13.320  21.798   8.679
  645POPC   C2B10868  13.062  21.795   8.301
  645POPC   C3B10869  13.237  21.664   7.924
  645POPC   C4B10870  13.612  21.842   7.726
  646POPC   NC310871  24.557  28.030   9.482
  646POPC   PO410872  24.073  28.562   9.510
  646POPC   GL110873  24.447  28.509   9.208
  646POPC   GL210874  24.742  28.256   9.061
  646POPC   C1A10875  24.533  28.590   8.771
  646POPC   D2A10876  24.783  28.504   8.425
  646POPC   C3A10877  24.577  28.406   8.077
  646POPC   C4A10878  24.699  28.513   7.688
  646POPC   C1B10879  25.087  28.233   8.716
  646POPC   C2B10880  25.153  28.160   8.217
  646POPC   C3B10881  24.855  28.050   7.852
  646POPC   C4B10882  24.405  28.110   7.677
  647POPC   NC310883   6.036  21.517   9.806
  647POPC   PO410884   6.592  21.393   9.432
  647POPC   GL110885   6.784  21.246   9.072
  647POPC   GL210886   7.018  21.005   9.271
  647POPC   C1A10887   6.580  21.379   8.647
  647POPC   D2A10888   6.303  21.276   8.295
  647POPC   C3A10889   6.502  21.293   7.883
  647POPC   C4A10890   6.721  21.624   7.708
  647POPC   C1B10891   7.119  20.942   8.833
  647POPC   C2B10892   7.074  21.223   8.490
  647POPC   C3B10893   6.978  21.327   8.077
  647POPC   C4B10894   7.023  21.231   7.640
  648POPC   NC310895   7.138   2.691   9.511
  648POPC   PO410896   7.722   3.057   9.569
  648POPC   GL110897   7.478   2.922   9.161
  648POPC   GL210898   7.422   2.547   9.109
  648POPC   C1A10899   7.238   2.858   8.750
  648POPC   D2A10900   7.302   2.745   8.324
  648POPC   C3A10901   7.448   3.069   8.037
  648POPC   C4A10902   7.599   3.038   7.607
  648POPC   C1B10903   7.650   2.572   8.711
  648POPC   C2B10904   7.645   2.374   8.315
  648POPC   C3B10905   7.524   2.466   7.891
  648POPC   C4B10906   7.839   2.576   7.576
  649POPC   NC310907   9.718   0.736   9.686
  649POPC   PO410908   9.624   0.084   9.691
  649POPC   GL110909   9.715   0.324   9.306
  649POPC   GL210910   9.934   0.041   9.225
  649POPC   C1A10911   9.757   0.597   8.906
  649POPC   D2A10912   9.851   0.519   8.423
  649POPC   C3A10913   9.776   0.735   7.993
  649POPC   C4A10914   9.770   0.745   7.530
  649POPC   C1B10915   9.764   0.091   8.830
  649POPC   C2B10916   9.676   0.022   8.412
  649POPC   C3B10917   9.719   0.199   7.998
  649POPC   C4B10918   9.775   0.230   7.566
  650POPC   NC310919  31.856  44.819   9.526
  650POPC   PO410920  31.181  44.844   9.596
  650POPC   GL110921  31.248  44.582   9.209
  650POPC   GL210922  31.624  44.574   9.109
  650POPC   C1A10923  31.255  44.656   8.744
  650POPC   D2A10924  31.381  44.965   8.417
  650POPC   C3A10925  31.436  44.745   8.028
  650POPC   C4A10926  31.277  44.393   7.788
  650POPC   C1B10927  31.783  44.460   8.676
  650POPC   C2B10928  31.826  44.459   8.201
  650POPC   C3B10929  31.841  44.450   7.716
  650POPC   C4B10930  31.938  44.312   7.247
  651POPC   NC310931  11.344  34.258   9.390
  651POPC   PO410932  11.859  34.586   9.768
  651POPC   GL110933  11.657  34.833   9.333
  651POPC   GL210934  11.322  34.755   9.228
  651POPC   C1A10935  11.607  34.868   8.813
  651POPC   D2A10936  11.323  34.844   8.396
  651POPC   C3A10937  11.441  34.613   8.014
  651POPC   C4A10938  11.731  34.882   7.824
  651POPC   C1B10939  11.174  34.578   8.822
  651POPC   C2B10940  10.955  34.462   8.456
  651POPC   C3B10941  10.947  34.630   8.058
  651POPC   C4B10942  11.038  34.476   7.673
  652POPC   NC310943  26.800  29.661   9.423
  652POPC   PO410944  26.905  30.244   9.401
  652POPC   GL110945  27.000  30.103   9.059
  652POPC   GL210946  27.024  29.757   8.978
  652POPC   C1A10947  26.875  30.196   8.703
  652POPC   D2A10948  26.932  29.914   8.408
  652POPC   C3A10949  26.812  30.152   8.086
  652POPC   C4A10950  26.905  30.126   7.703
  652POPC   C1B10951  26.618  29.751   8.782
  652POPC   C2B10952  26.482  29.617   8.335
  652POPC   C3B10953  26.579  29.727   7.882
  652POPC   C4B10954  26.477  29.521   7.494
  653POPC   NC310955  41.537  33.477   9.489
  653POPC   PO410956  41.239  34.141   9.530
  653POPC   GL110957  41.574  33.963   9.272
  653POPC   GL210958  41.390  33.726   9.084
  653POPC   C1A10959  41.806  33.951   8.868
  653POPC   D2A10960  41.639  33.989   8.450
  653POPC   C3A10961  41.800  33.753   8.109
  653POPC   C4A10962  41.749  33.836   7.667
  653POPC   C1B10963  41.235  33.529   8.735
  653POPC   C2B10964  41.201  33.757   8.365
  653POPC   C3B10965  41.311  33.707   7.947
  653POPC   C4B10966  41.181  33.326   7.741
  654POPC   NC310967   0.002  11.803   9.508
  654POPC   PO410968   0.507  12.196   9.542
  654POPC   GL110969   0.421  12.111   9.134
  654POPC   GL210970   0.271  11.799   9.044
  654POPC   C1A10971   0.465  12.112   8.714
  654POPC   D2A10972   0.222  11.949   8.455
  654POPC   C3A10973   0.436  12.110   8.134
  654POPC   C4A10974   0.367  12.028   7.745
  654POPC   C1B10975   0.699  11.694   8.826
  654POPC   C2B10976   0.837  11.880   8.420
  654POPC   C3B10977   0.806  11.776   7.968
  654POPC   C4B10978   0.738  11.704   7.539
  655POPC   NC310979  32.504  14.596   9.525
  655POPC   PO410980  31.914  14.187   9.373
  655POPC   GL110981  32.076  14.448   9.068
  655POPC   GL210982  32.443  14.448   9.052
  655POPC   C1A10983  32.197  14.604   8.644
  655POPC   D2A10984  32.242  14.761   8.218
  655POPC   C3A10985  32.187  14.412   7.902
  655POPC   C4A10986  32.065  14.084   7.637
  655POPC   C1B10987  32.675  14.397   8.682
  655POPC   C2B10988  32.570  14.343   8.286
  655POPC   C3B10989  32.665  14.517   7.928
  655POPC   C4B10990  32.520  14.386   7.518
  656POPC   NC310991  19.233   3.805   9.305
  656POPC   PO410992  18.692   3.445   9.414
  656POPC   GL110993  18.877   3.480   9.013
  656POPC   GL210994  19.229   3.380   9.018
  656POPC   C1A10995  19.007   3.546   8.570
  656POPC   D2A10996  19.100   3.248   8.236
  656POPC   C3A10997  18.846   3.341   7.908
  656POPC   C4A10998  18.839   3.825   7.738
  656POPC   C1B10999  19.465   3.715   8.739
  656POPC   C2B11000  19.524   3.762   8.351
  656POPC   C3B11001  19.175   3.718   8.088
  656POPC   C4B11002  19.216   3.516   7.635
  657POPC   NC311003  22.907  43.507   9.890
  657POPC   PO411004  22.726  42.941   9.486
  657POPC   GL111005  23.033  43.205   9.206
  657POPC   GL211006  22.849  43.034   8.978
  657POPC   C1A11007  23.277  43.172   8.776
  657POPC   D2A11008  23.009  43.135   8.379
  657POPC   C3A11009  23.135  43.310   7.962
  657POPC   C4A11010  23.245  43.170   7.524
  657POPC   C1B11011  22.823  42.756   8.666
  657POPC   C2B11012  22.691  42.708   8.271
  657POPC   C3B11013  22.632  43.025   8.001
  657POPC   C4B11014  22.751  43.173   7.596
  658POPC   NC311015  39.864  29.438   9.204
  658POPC   PO411016  39.806  30.075   9.555
  658POPC   GL111017  39.981  29.943   9.189
  658POPC   GL211018  39.631  29.909   9.074
  658POPC   C1A11019  40.301  29.931   8.844
  658POPC   D2A11020  40.232  30.123   8.439
  658POPC   C3A11021  40.222  29.866   8.080
  658POPC   C4A11022  40.150  30.052   7.702
  658POPC   C1B11023  39.808  29.880   8.675
  658POPC   C2B11024  39.746  29.741   8.274
  658POPC   C3B11025  39.703  29.926   7.889
  658POPC   C4B11026  39.758  29.780   7.477
  659POPC   NC311027  12.519  38.008   9.564
  659POPC   PO411028  12.780  37.403   9.530
  659POPC   GL111029  12.941  37.497   9.130
  659POPC   GL211030  12.737  37.778   9.086
  659POPC   C1A11031  13.072  37.589   8.711
  659POPC   D2A11032  12.898  37.916   8.486
  659POPC   C3A11033  12.853  37.878   8.084
  659POPC   C4A11034  12.998  37.693   7.728
  659POPC   C1B11035  12.530  38.062   8.768
  659POPC   C2B11036  12.388  37.904   8.350
  659POPC   C3B11037  12.401  37.997   7.905
  659POPC   C4B11038  12.380  38.209   7.505
  660POPC   NC311039   0.571   0.761   9.468
  660POPC   PO411040   0.532   0.151   9.354
  660POPC   GL111041   0.587   0.442   9.058
  660POPC   GL211042   0.289   0.598   9.076
  660POPC   C1A11043   0.510   0.391   8.641
  660POPC   D2A11044   0.685   0.160   8.326
  660POPC   C3A11045   0.499   0.357   7.994
  660POPC   C4A11046   0.319   0.191   7.653
  660POPC   C1B11047   0.318   0.854   8.743
  660POPC   C2B11048   0.135   0.682   8.386
  660POPC   C3B11049   0.080   0.827   7.998
  660POPC   C4B11050   0.311   0.702   7.641
  661POPC   NC311051  17.546   4.056   9.389
  661POPC   PO411052  17.320   4.692   9.295
  661POPC   GL111053  17.522   4.450   9.014
  661POPC   GL211054  17.839   4.335   9.098
  661POPC   C1A11055  17.424   4.188   8.670
  661POPC   D2A11056  17.209   4.145   8.274
  661POPC   C3A11057  17.208   4.543   8.063
  661POPC   C4A11058  17.234   4.569   7.619
  661POPC   C1B11059  17.896   4.018   8.785
  661POPC   C2B11060  17.886   4.203   8.397
  661POPC   C3B11061  17.900   4.058   8.001
  661POPC   C4B11062  17.534   4.217   7.836
  662POPC   NC311063  42.341  38.028   9.542
  662POPC   PO411064  42.221  38.750   9.487
  662POPC   GL111065  42.577  38.605   9.233
  662POPC   GL211066  42.424  38.289   9.062
  662POPC   C1A11067  42.725  38.621   8.806
  662POPC   D2A11068  42.430  38.412   8.516
  662POPC   C3A11069  42.408  38.453   8.074
  662POPC   C4A11070  42.672  38.677   7.758
  662POPC   C1B11071  42.189  38.014   8.737
  662POPC   C2B11072  42.200  37.838   8.304
  662POPC   C3B11073  42.112  38.043   7.888
  662POPC   C4B11074  42.367  38.273   7.584
  663POPC   NC311075   5.321  41.713   9.507
  663POPC   PO411076   4.775  41.133   9.447
  663POPC   GL111077   5.160  41.307   9.227
  663POPC   GL211078   5.018  41.644   9.100
  663POPC   C1A11079   5.386  41.437   8.831
  663POPC   D2A11080   5.225  41.625   8.466
  663POPC   C3A11081   5.108  41.477   8.026
  663POPC   C4A11082   5.318  41.477   7.646
  663POPC   C1B11083   4.764  41.679   8.717
  663POPC   C2B11084   4.788  41.787   8.263
  663POPC   C3B11085   4.705  41.771   7.829
  663POPC   C4B11086   4.974  41.848   7.495
  664POPC   NC311087  34.021  25.796   9.597
  664POPC   PO411088  33.598  25.029   9.497
  664POPC   GL111089  33.760  25.166   9.127
  664POPC   GL211090  33.994  25.400   9.228
  664POPC   C1A11091  34.024  25.097   8.790
  664POPC   D2A11092  33.754  25.063   8.448
  664POPC   C3A11093  33.880  25.198   8.052
  664POPC   C4A11094  33.646  25.454   7.775
  664POPC   C1B11095  33.984  25.598   8.836
  664POPC   C2B11096  34.085  25.491   8.422
  664POPC   C3B11097  34.015  25.710   8.033
  664POPC   C4B11098  34.059  25.680   7.618
  665POPC   NC311099   0.050  38.217   9.244
  665POPC   PO411100  44.434  38.421   9.555
  665POPC   GL111101  44.481  38.422   9.143
  665POPC   GL211102  44.776  38.621   9.172
  665POPC   C1A11103  44.332  38.337   8.721
  665POPC   D2A11104  44.578  38.338   8.344
  665POPC   C3A11105  44.476  38.411   7.951
  665POPC   C4A11106  44.736  38.384   7.521
  665POPC   C1B11107  44.757  38.654   8.735
  665POPC   C2B11108  44.929  38.816   8.368
  665POPC   C3B11109  44.882  38.707   7.951
  665POPC   C4B11110  44.971  38.837   7.539
  666POPC   NC311111  43.905  35.389   9.543
  666POPC   PO411112  43.757  35.952   9.220
  666POPC   GL111113  43.827  35.544   9.036
  666POPC   GL211114  43.731  35.204   9.107
  666POPC   C1A11115  44.071  35.344   8.715
  666POPC   D2A11116  44.219  35.393   8.304
  666POPC   C3A11117  43.913  35.609   8.115
  666POPC   C4A11118  43.731  35.681   7.770
  666POPC   C1B11119  43.670  34.996   8.744
  666POPC   C2B11120  43.720  35.201   8.350
  666POPC   C3B11121  43.958  35.109   7.975
  666POPC   C4B11122  43.654  34.878   7.836
  667POPC   NC311123  26.456  41.474   9.563
  667POPC   PO411124  27.124  41.418   9.493
  667POPC   GL111125  27.017  41.535   9.089
  667POPC   GL211126  27.282  41.689   8.883
  667POPC   C1A11127  26.644  41.398   8.888
  667POPC   D2A11128  26.456  41.524   8.503
  667POPC   C3A11129  26.699  41.371   8.168
  667POPC   C4A11130  26.553  41.266   7.775
  667POPC   C1B11131  26.998  41.583   8.556
  667POPC   C2B11132  26.760  41.876   8.286
  667POPC   C3B11133  26.605  41.772   7.882
  667POPC   C4B11134  26.973  41.547   7.730
  668POPC   NC311135  14.733  22.469   9.443
  668POPC   PO411136  15.227  22.011   9.426
  668POPC   GL111137  14.947  22.052   9.117
  668POPC   GL211138  15.067  22.397   9.075
  668POPC   C1A11139  15.164  22.061   8.715
  668POPC   D2A11140  15.228  21.882   8.349
  668POPC   C3A11141  15.362  22.058   7.985
  668POPC   C4A11142  15.106  22.000   7.625
  668POPC   C1B11143  14.746  22.368   8.759
  668POPC   C2B11144  14.882  22.323   8.342
  668POPC   C3B11145  14.961  22.386   7.932
  668POPC   C4B11146  15.099  22.526   7.525
  669POPC   NC311147  20.216   9.110   9.902
  669POPC   PO411148  19.730   8.893   9.408
  669POPC   GL111149  19.807   9.222   9.102
  669POPC   GL211150  20.217   9.239   9.111
  669POPC   C1A11151  19.613   9.296   8.697
  669POPC   D2A11152  19.788   9.151   8.313
  669POPC   C3A11153  19.533   9.176   7.981
  669POPC   C4A11154  19.538   8.883   7.665
  669POPC   C1B11155  20.085   9.040   8.727
  669POPC   C2B11156  20.145   8.756   8.407
  669POPC   C3B11157  19.959   8.757   8.008
  669POPC   C4B11158  19.801   8.456   7.731
  670POPC   NC311159  17.848   8.813   9.358
  670POPC   PO411160  17.507   9.352   9.591
  670POPC   GL111161  17.372   9.047   9.170
  670POPC   GL211162  17.501   8.713   9.033
  670POPC   C1A11163  17.183   8.852   8.706
  670POPC   D2A11164  17.216   8.822   8.264
  670POPC   C3A11165  17.368   9.121   8.017
  670POPC   C4A11166  17.454   9.126   7.580
  670POPC   C1B11167  17.712   8.875   8.681
  670POPC   C2B11168  17.760   8.888   8.246
  670POPC   C3B11169  17.636   8.728   7.841
  670POPC   C4B11170  17.907   8.614   7.511
  671POPC   NC311171   1.425  35.387   9.525
  671POPC   PO411172   0.830  35.092   9.361
  671POPC   GL111173   1.127  35.392   9.119
  671POPC   GL211174   1.399  35.648   9.093
  671POPC   C1A11175   1.331  35.269   8.745
  671POPC   D2A11176   1.117  35.040   8.429
  671POPC   C3A11177   1.024  35.310   8.094
  671POPC   C4A11178   0.829  35.194   7.722
  671POPC   C1B11179   1.292  35.793   8.680
  671POPC   C2B11180   1.484  35.633   8.325
  671POPC   C3B11181   1.486  35.564   7.895
  671POPC   C4B11182   1.507  35.688   7.436
  672POPC   NC311183  36.079  29.746   9.431
  672POPC   PO411184  35.985  30.425   9.679
  672POPC   GL111185  35.971  30.210   9.244
  672POPC   GL211186  36.314  30.148   9.128
  672POPC   C1A11187  35.939  30.044   8.783
  672POPC   D2A11188  36.086  30.078   8.329
  672POPC   C3A11189  36.076  29.768   8.010
  672POPC   C4A11190  36.195  29.713   7.580
  672POPC   C1B11191  36.433  30.329   8.710
  672POPC   C2B11192  36.571  30.176   8.293
  672POPC   C3B11193  36.341  30.247   7.875
  672POPC   C4B11194  36.130  30.475   7.511
  673POPC   NC311195  37.692   5.475   9.575
  673POPC   PO411196  37.579   6.049   9.620
  673POPC   GL111197  37.680   5.848   9.226
  673POPC   GL211198  37.408   5.646   9.155
  673POPC   C1A11199  37.933   5.726   8.870
  673POPC   D2A11200  37.882   5.558   8.445
  673POPC   C3A11201  37.875   5.754   8.064
  673POPC   C4A11202  37.750   5.834   7.596
  673POPC   C1B11203  37.442   5.695   8.719
  673POPC   C2B11204  37.433   5.355   8.404
  673POPC   C3B11205  37.535   5.423   7.950
  673POPC   C4B11206  37.251   5.660   7.632
  674POPC   NC311207   6.734  31.378   9.607
  674POPC   PO411208   6.748  32.000   9.520
  674POPC   GL111209   6.687  31.642   9.177
  674POPC   GL211210   6.608  31.244   9.146
  674POPC   C1A11211   6.972  31.432   8.854
  674POPC   D2A11212   7.111  31.433   8.416
  674POPC   C3A11213   6.860  31.426   8.000
  674POPC   C4A11214   6.473  31.611   7.818
  674POPC   C1B11215   6.467  31.272   8.741
  674POPC   C2B11216   6.446  31.427   8.319
  674POPC   C3B11217   6.443  31.123   7.943
  674POPC   C4B11218   6.674  31.116   7.575
  675POPC   NC311219  20.272  12.524   9.845
  675POPC   PO411220  19.774  12.879   9.476
  675POPC   GL111221  19.895  12.965   9.075
  675POPC   GL211222  19.945  13.286   9.149
  675POPC   C1A11223  19.721  12.933   8.698
  675POPC   D2A11224  19.807  12.736   8.315
  675POPC   C3A11225  19.580  12.936   8.000
  675POPC   C4A11226  19.465  12.568   7.796
  675POPC   C1B11227  20.139  13.308   8.751
  675POPC   C2B11228  19.973  13.194   8.333
  675POPC   C3B11229  20.106  13.308   7.934
  675POPC   C4B11230  20.344  13.254   7.567
  676POPC   NC311231   6.970  27.114   9.281
  676POPC   PO411232   7.410  26.738   9.667
  676POPC   GL111233   7.617  26.705   9.228
  676POPC   GL211234   7.725  27.076   9.204
  676POPC   C1A11235   7.469  26.577   8.795
  676POPC   D2A11236   7.194  26.697   8.434
  676POPC   C3A11237   7.425  26.647   8.056
  676POPC   C4A11238   7.297  26.620   7.618
  676POPC   C1B11239   7.817  26.973   8.791
  676POPC   C2B11240   7.613  26.983   8.404
  676POPC   C3B11241   7.500  27.166   8.016
  676POPC   C4B11242   7.573  27.035   7.599
  677POPC   NC311243  16.572  34.957   9.296
  677POPC   PO411244  17.082  35.290   9.430
  677POPC   GL111245  16.886  35.358   9.039
  677POPC   GL211246  16.568  35.438   9.099
  677POPC   C1A11247  16.881  35.469   8.607
  677POPC   D2A11248  16.552  35.433   8.282
  677POPC   C3A11249  16.796  35.554   7.974
  677POPC   C4A11250  17.089  35.572   7.766
  677POPC   C1B11251  16.432  35.251   8.745
  677POPC   C2B11252  16.424  34.928   8.441
  677POPC   C3B11253  16.350  34.987   8.020
  677POPC   C4B11254  16.404  35.344   7.754
  678POPC   NC311255  26.544  16.320   9.509
  678POPC   PO411256  27.216  16.116   9.776
  678POPC   GL111257  26.990  16.060   9.364
  678POPC   GL211258  27.014  16.361   9.176
  678POPC   C1A11259  26.806  15.812   8.999
  678POPC   D2A11260  26.693  15.543   8.614
  678POPC   C3A11261  26.798  15.775   8.234
  678POPC   C4A11262  26.879  16.012   7.866
  678POPC   C1B11263  26.833  16.280   8.733
  678POPC   C2B11264  26.724  16.346   8.271
  678POPC   C3B11265  26.866  16.525   7.868
  678POPC   C4B11266  27.053  16.450   7.463
  679POPC   NC311267  18.891  31.446   9.497
  679POPC   PO411268  18.186  31.331   9.597
  679POPC   GL111269  18.249  31.449   9.197
  679POPC   GL211270  18.517  31.616   9.193
  679POPC   C1A11271  18.319  31.369   8.775
  679POPC   D2A11272  18.048  31.491   8.454
  679POPC   C3A11273  18.201  31.503   8.030
  679POPC   C4A11274  17.861  31.637   7.774
  679POPC   C1B11275  18.568  31.855   8.845
  679POPC   C2B11276  18.493  31.721   8.445
  679POPC   C3B11277  18.633  31.852   8.077
  679POPC   C4B11278  18.561  31.687   7.675
  680POPC   NC311279  44.742   8.754   9.922
  680POPC   PO411280  44.851   9.255   9.424
  680POPC   GL111281  44.787   9.083   8.984
  680POPC   GL211282  44.747   8.686   8.921
  680POPC   C1A11283  44.804   9.107   8.514
  680POPC   D2A11284  44.425   9.240   8.245
  680POPC   C3A11285  44.423   9.134   7.805
  680POPC   C4A11286  44.576   9.383   7.463
  680POPC   C1B11287  44.398   8.867   8.721
  680POPC   C2B11288  44.500   8.740   8.335
  680POPC   C3B11289  44.762   8.764   7.995
  680POPC   C4B11290  44.914   9.027   7.669
  681POPC   NC311291  28.307   4.570   9.585
  681POPC   PO411292  28.504   3.896   9.606
  681POPC   GL111293  28.558   4.189   9.215
  681POPC   GL211294  28.231   4.376   9.114
  681POPC   C1A11295  28.514   4.257   8.741
  681POPC   D2A11296  28.402   4.063   8.394
  681POPC   C3A11297  28.527   4.159   8.021
  681POPC   C4A11298  28.262   4.245   7.694
  681POPC   C1B11299  28.062   4.534   8.663
  681POPC   C2B11300  28.189   4.514   8.213
  681POPC   C3B11301  27.923   4.583   7.860
  681POPC   C4B11302  27.968   4.514   7.373
  682POPC   NC311303   8.782  17.684   9.433
  682POPC   PO411304   8.717  17.087   9.308
  682POPC   GL111305   8.929  17.371   9.047
  682POPC   GL211306   9.277  17.250   9.040
  682POPC   C1A11307   8.792  17.682   8.758
  682POPC   D2A11308   8.847  17.626   8.344
  682POPC   C3A11309   8.628  17.377   8.085
  682POPC   C4A11310   8.952  17.486   7.795
  682POPC   C1B11311   9.254  17.496   8.647
  682POPC   C2B11312   9.349  17.532   8.201
  682POPC   C3B11313   9.403  17.212   7.907
  682POPC   C4B11314   9.182  17.137   7.504
  683POPC   NC311315  24.913  21.076   9.283
  683POPC   PO411316  24.772  20.594   9.702
  683POPC   GL111317  24.565  20.509   9.303
  683POPC   GL211318  24.463  20.851   9.198
  683POPC   C1A11319  24.469  20.470   8.851
  683POPC   D2A11320  24.644  20.482   8.426
  683POPC   C3A11321  24.495  20.571   8.012
  683POPC   C4A11322  24.690  20.555   7.621
  683POPC   C1B11323  24.553  20.941   8.759
  683POPC   C2B11324  24.402  20.949   8.352
  683POPC   C3B11325  24.152  20.930   7.953
  683POPC   C4B11326  24.226  20.708   7.548
  684POPC   NC311327  23.147  14.161   9.464
  684POPC   PO411328  22.580  14.497   9.391
  684POPC   GL111329  22.852  14.339   9.035
  684POPC   GL211330  23.201  14.305   8.996
  684POPC   C1A11331  23.009  14.379   8.569
  684POPC   D2A11332  23.205  14.572   8.260
  684POPC   C3A11333  22.940  14.388   7.934
  684POPC   C4A11334  22.795  14.392   7.499
  684POPC   C1B11335  23.441  14.143   8.642
  684POPC   C2B11336  23.339  13.920   8.304
  684POPC   C3B11337  23.408  14.117   7.963
  684POPC   C4B11338  23.248  14.167   7.589
  685POPC   NC311339  17.472  17.259   9.663
  685POPC   PO411340  17.286  16.632   9.570
  685POPC   GL111341  17.431  16.633   9.210
  685POPC   GL211342  17.147  16.467   9.109
  685POPC   C1A11343  17.598  16.899   8.888
  685POPC   D2A11344  17.659  17.130   8.508
  685POPC   C3A11345  17.715  16.849   8.113
  685POPC   C4A11346  17.646  16.999   7.676
  685POPC   C1B11347  17.361  16.488   8.743
  685POPC   C2B11348  17.307  16.770   8.432
  685POPC   C3B11349  17.222  16.746   8.020
  685POPC   C4B11350  17.518  16.527   7.746
  686POPC   NC311351   7.761  37.257   9.394
  686POPC   PO411352   8.318  36.879   9.549
  686POPC   GL111353   8.206  36.849   9.150
  686POPC   GL211354   8.238  37.194   9.116
  686POPC   C1A11355   8.425  36.723   8.766
  686POPC   D2A11356   8.455  36.503   8.321
  686POPC   C3A11357   8.423  36.677   7.903
  686POPC   C4A11358   8.265  36.996   7.563
  686POPC   C1B11359   8.048  37.099   8.732
  686POPC   C2B11360   8.162  36.911   8.352
  686POPC   C3B11361   7.984  36.934   7.976
  686POPC   C4B11362   7.729  36.864   7.618
  687POPC   NC311363   9.384  20.371   9.494
  687POPC   PO411364   9.600  19.706   9.385
  687POPC   GL111365   9.684  19.899   9.014
  687POPC   GL211366   9.721  20.216   9.136
  687POPC   C1A11367   9.628  19.937   8.561
  687POPC   D2A11368   9.892  19.811   8.194
  687POPC   C3A11369   9.613  19.754   7.866
  687POPC   C4A11370   9.263  20.058   7.793
  687POPC   C1B11371   9.906  20.325   8.768
  687POPC   C2B11372  10.114  20.253   8.391
  687POPC   C3B11373  10.254  20.174   7.984
  687POPC   C4B11374  10.124  19.875   7.718
  688POPC   NC311375  26.120  13.781   9.493
  688POPC   PO411376  26.334  13.272   9.803
  688POPC   GL111377  26.353  13.377   9.322
  688POPC   GL211378  25.972  13.334   9.239
  688POPC   C1A11379  26.263  13.577   8.896
  688POPC   D2A11380  26.143  13.531   8.459
  688POPC   C3A11381  25.954  13.790   8.150
  688POPC   C4A11382  26.202  13.842   7.766
  688POPC   C1B11383  25.838  13.282   8.805
  688POPC   C2B11384  25.641  13.461   8.463
  688POPC   C3B11385  25.681  13.322   8.023
  688POPC   C4B11386  25.982  13.400   7.783
  689POPC   NC311387  15.965  30.985   9.352
  689POPC   PO411388  15.771  31.679   9.430
  689POPC   GL111389  15.785  31.396   9.098
  689POPC   GL211390  16.132  31.362   9.068
  689POPC   C1A11391  15.800  31.428   8.669
  689POPC   D2A11392  16.026  31.684   8.414
  689POPC   C3A11393  15.988  31.465   8.053
  689POPC   C4A11394  15.936  31.395   7.614
  689POPC   C1B11395  16.342  31.372   8.680
  689POPC   C2B11396  16.466  31.420   8.240
  689POPC   C3B11397  16.448  31.188   7.861
  689POPC   C4B11398  16.392  31.296   7.428
  690POPC   NC311399  41.726   2.812   9.571
  690POPC   PO411400  41.257   2.381   9.293
  690POPC   GL111401  41.491   2.736   9.118
  690POPC   GL211402  41.384   3.070   9.129
  690POPC   C1A11403  41.681   2.712   8.759
  690POPC   D2A11404  41.555   2.549   8.365
  690POPC   C3A11405  41.676   2.690   7.966
  690POPC   C4A11406  41.523   2.644   7.529
  690POPC   C1B11407  41.589   3.191   8.738
  690POPC   C2B11408  41.787   3.051   8.375
  690POPC   C3B11409  41.809   3.167   7.965
  690POPC   C4B11410  41.565   3.148   7.607
  691POPC   NC311411   4.903  16.090   9.578
  691POPC   PO411412   5.386  15.681   9.543
  691POPC   GL111413   5.152  15.792   9.163
  691POPC   GL211414   5.079  16.159   9.092
  691POPC   C1A11415   5.238  15.858   8.718
  691POPC   D2A11416   4.987  15.994   8.369
  691POPC   C3A11417   5.106  15.832   7.979
  691POPC   C4A11418   5.413  15.967   7.716
  691POPC   C1B11419   4.792  16.396   8.804
  691POPC   C2B11420   4.791  16.473   8.366
  691POPC   C3B11421   4.753  16.226   7.948
  691POPC   C4B11422   4.640  16.250   7.471
  692POPC   NC311423   5.433  39.250   9.477
  692POPC   PO411424   4.688  39.410   9.518
  692POPC   GL111425   4.999  39.208   9.201
  692POPC   GL211426   5.145  39.489   9.030
  692POPC   C1A11427   5.192  39.042   8.781
  692POPC   D2A11428   5.067  39.061   8.300
  692POPC   C3A11429   5.189  39.087   7.803
  692POPC   C4A11430   5.379  39.002   7.338
  692POPC   C1B11431   5.130  39.518   8.574
  692POPC   C2B11432   5.431  39.556   8.293
  692POPC   C3B11433   5.427  39.564   7.875
  692POPC   C4B11434   5.070  39.565   7.655
  693POPC   NC311435  16.749  26.324   9.825
  693POPC   PO411436  16.537  25.855   9.442
  693POPC   GL111437  16.782  26.033   9.135
  693POPC   GL211438  16.628  26.344   9.062
  693POPC   C1A11439  16.774  25.967   8.699
  693POPC   D2A11440  16.856  26.093   8.266
  693POPC   C3A11441  16.856  25.865   7.911
  693POPC   C4A11442  16.947  25.881   7.482
  693POPC   C1B11443  16.765  26.477   8.639
  693POPC   C2B11444  16.551  26.499   8.240
  693POPC   C3B11445  16.678  26.339   7.825
  693POPC   C4B11446  16.516  26.143   7.445
  694POPC   NC311447  32.103  29.215   9.556
  694POPC   PO411448  32.696  28.969   9.575
  694POPC   GL111449  32.475  29.152   9.190
  694POPC   GL211450  32.165  28.985   9.101
  694POPC   C1A11451  32.287  29.371   8.809
  694POPC   D2A11452  32.380  29.314   8.400
  694POPC   C3A11453  32.157  29.115   8.080
  694POPC   C4A11454  32.276  29.249   7.693
  694POPC   C1B11455  32.414  28.883   8.719
  694POPC   C2B11456  32.444  28.741   8.287
  694POPC   C3B11457  32.454  28.766   7.820
  694POPC   C4B11458  32.342  28.898   7.338
  695POPC   NC311459  44.308  43.627   9.495
  695POPC   PO411460  44.962  43.764   9.729
  695POPC   GL111461  44.810  43.823   9.263
  695POPC   GL211462  44.489  43.862   9.080
  695POPC   C1A11463  44.919  43.927   8.813
  695POPC   D2A11464  44.891  44.148   8.424
  695POPC   C3A11465   0.031  43.933   8.063
  695POPC   C4A11466  44.872  44.016   7.683
  695POPC   C1B11467  44.471  43.640   8.719
  695POPC   C2B11468  44.656  43.672   8.336
  695POPC   C3B11469  44.519  43.974   8.039
  695POPC   C4B11470  44.393  43.877   7.605
  696POPC   NC311471   7.553  30.126   9.445
  696POPC   PO411472   7.050  29.686   9.565
  696POPC   GL111473   7.207  29.818   9.179
  696POPC   GL211474   7.512  29.690   9.157
  696POPC   C1A11475   7.416  30.054   8.827
  696POPC   D2A11476   7.358  30.143   8.394
  696POPC   C3A11477   7.649  30.366   8.149
  696POPC   C4A11478   7.704  30.235   7.726
  696POPC   C1B11479   7.339  29.533   8.771
  696POPC   C2B11480   7.524  29.614   8.373
  696POPC   C3B11481   7.440  29.809   7.956
  696POPC   C4B11482   7.259  29.623   7.576
  697POPC   NC311483  10.924   7.310   9.415
  697POPC   PO411484  10.305   7.687   9.552
  697POPC   GL111485  10.489   7.581   9.183
  697POPC   GL211486  10.538   7.227   9.087
  697POPC   C1A11487  10.505   7.669   8.755
  697POPC   D2A11488  10.459   7.896   8.377
  697POPC   C3A11489  10.324   7.643   8.064
  697POPC   C4A11490  10.583   7.522   7.726
  697POPC   C1B11491  10.844   7.260   8.716
  697POPC   C2B11492  10.746   7.168   8.270
  697POPC   C3B11493  10.928   7.182   7.863
  697POPC   C4B11494  10.915   7.317   7.389
  698POPC   NC311495  16.760  33.315   9.778
  698POPC   PO411496  16.946  32.761   9.521
  698POPC   GL111497  17.070  32.821   9.119
  698POPC   GL211498  16.789  33.057   9.103
  698POPC   C1A11499  17.123  33.077   8.729
  698POPC   D2A11500  16.881  33.327   8.438
  698POPC   C3A11501  16.924  33.168   8.040
  698POPC   C4A11502  16.952  33.098   7.606
  698POPC   C1B11503  16.681  32.828   8.793
  698POPC   C2B11504  16.650  32.863   8.390
  698POPC   C3B11505  16.456  32.808   8.053
  698POPC   C4B11506  16.613  32.715   7.674
  699POPC   NC311507  19.323  32.012   9.487
  699POPC   PO411508  18.673  31.848   9.609
  699POPC   GL111509  18.884  31.987   9.228
  699POPC   GL211510  18.974  32.346   9.224
  699POPC   C1A11511  19.137  32.016   8.839
  699POPC   D2A11512  19.003  32.063   8.418
  699POPC   C3A11513  19.276  32.042   8.060
  699POPC   C4A11514  19.045  31.854   7.755
  699POPC   C1B11515  18.753  32.368   8.833
  699POPC   C2B11516  18.809  32.528   8.403
  699POPC   C3B11517  18.904  32.398   7.975
  699POPC   C4B11518  18.740  32.648   7.618
  700POPC   NC311519  17.658   2.231   9.430
  700POPC   PO411520  17.074   1.910   9.495
  700POPC   GL111521  17.337   1.916   9.139
  700POPC   GL211522  17.373   2.276   9.028
  700POPC   C1A11523  17.581   1.904   8.754
  700POPC   D2A11524  17.613   2.179   8.384
  700POPC   C3A11525  17.526   1.906   8.008
  700POPC   C4A11526  17.845   1.681   7.800
  700POPC   C1B11527  16.996   2.394   8.879
  700POPC   C2B11528  16.982   2.440   8.453
  700POPC   C3B11529  17.166   2.254   8.138
  700POPC   C4B11530  17.347   2.308   7.732
  701POPC   NC311531  10.179  35.411   9.397
  701POPC   PO411532  10.717  35.229   9.314
  701POPC   GL111533  10.467  35.253   8.974
  701POPC   GL211534  10.340  35.598   8.954
  701POPC   C1A11535  10.351  35.291   8.547
  701POPC   D2A11536  10.460  35.529   8.190
  701POPC   C3A11537  10.569  35.317   7.838
  701POPC   C4A11538  10.949  35.052   7.767
  701POPC   C1B11539  10.349  35.880   8.593
  701POPC   C2B11540  10.239  36.002   8.161
  701POPC   C3B11541  10.174  35.727   7.786
  701POPC   C4B11542  10.455  35.602   7.426
  702POPC   NC311543   2.297  22.474   9.385
  702POPC   PO411544   2.832  22.150   9.483
  702POPC   GL111545   2.807  21.984   9.113
  702POPC   GL211546   2.472  22.067   9.110
  702POPC   C1A11547   2.684  22.007   8.664
  702POPC   D2A11548   2.387  22.217   8.429
  702POPC   C3A11549   2.526  22.353   8.031
  702POPC   C4A11550   2.837  22.365   7.713
  702POPC   C1B11551   2.223  21.860   8.803
  702POPC   C2B11552   2.292  21.713   8.432
  702POPC   C3B11553   2.167  21.907   8.076
  702POPC   C4B11554   2.431  21.943   7.720
  703POPC   NC311555  31.950  24.890   9.313
  703POPC   PO411556  31.539  24.363   9.410
  703POPC   GL111557  31.697  24.242   9.055
  703POPC   GL211558  31.782  24.542   8.912
  703POPC   C1A11559  31.676  23.987   8.730
  703POPC   D2A11560  31.495  24.078   8.384
  703POPC   C3A11561  31.581  24.293   8.000
  703POPC   C4A11562  31.423  24.145   7.598
  703POPC   C1B11563  31.343  24.455   8.706
  703POPC   C2B11564  31.170  24.679   8.318
  703POPC   C3B11565  31.435  24.913   8.044
  703POPC   C4B11566  31.554  24.710   7.667
  704POPC   NC311567  14.860  43.169   9.477
  704POPC   PO411568  15.326  43.312   9.844
  704POPC   GL111569  15.329  43.180   9.295
  704POPC   GL211570  15.106  43.374   9.091
  704POPC   C1A11571  15.181  42.964   8.830
  704POPC   D2A11572  14.907  43.002   8.443
  704POPC   C3A11573  15.111  43.015   8.015
  704POPC   C4A11574  15.128  43.047   7.545
  704POPC   C1B11575  15.271  43.431   8.659
  704POPC   C2B11576  15.050  43.466   8.256
  704POPC   C3B11577  14.837  43.428   7.830
  704POPC   C4B11578  14.768  43.374   7.364
  705POPC   NC311579  22.871  26.484   9.367
  705POPC   PO411580  23.347  26.711   9.662
  705POPC   GL111581  23.264  26.710   9.157
  705POPC   GL211582  22.957  26.938   9.154
  705POPC   C1A11583  23.070  26.626   8.734
  705POPC   D2A11584  23.223  26.620   8.315
  705POPC   C3A11585  22.995  26.757   7.977
  705POPC   C4A11586  23.007  26.978   7.603
  705POPC   C1B11587  22.626  26.893   8.841
  705POPC   C2B11588  22.417  26.760   8.472
  705POPC   C3B11589  22.486  26.809   8.049
  705POPC   C4B11590  22.603  26.675   7.626
  706POPC   NC311591  34.738  16.326   9.422
  706POPC   PO411592  34.310  16.884   9.579
  706POPC   GL111593  34.406  16.661   9.211
  706POPC   GL211594  34.666  16.837   9.105
  706POPC   C1A11595  34.259  16.556   8.800
  706POPC   D2A11596  34.393  16.483   8.374
  706POPC   C3A11597  34.460  16.833   8.064
  706POPC   C4A11598  34.419  16.724   7.649
  706POPC   C1B11599  34.778  16.566   8.757
  706POPC   C2B11600  34.875  16.654   8.328
  706POPC   C3B11601  34.828  16.499   7.892
  706POPC   C4B11602  34.817  16.516   7.430
  707POPC   NC311603  39.159  32.708   9.546
  707POPC   PO411604  39.300  33.325   9.339
  707POPC   GL111605  39.002  33.056   9.137
  707POPC   GL211606  38.907  32.724   9.126
  707POPC   C1A11607  38.895  33.159   8.714
  707POPC   D2A11608  39.188  33.320   8.396
  707POPC   C3A11609  39.156  33.149   7.973
  707POPC   C4A11610  39.399  32.902   7.701
  707POPC   C1B11611  39.052  32.648   8.732
  707POPC   C2B11612  39.242  32.731   8.335
  707POPC   C3B11613  39.073  32.604   7.963
  707POPC   C4B11614  38.804  32.780   7.704
  708POPC   NC311615  23.912  12.713   9.446
  708POPC   PO411616  23.344  13.103   9.300
  708POPC   GL111617  23.689  12.921   9.032
  708POPC   GL211618  23.881  12.595   8.965
  708POPC   C1A11619  23.614  12.833   8.587
  708POPC   D2A11620  23.786  12.617   8.222
  708POPC   C3A11621  23.534  12.648   7.875
  708POPC   C4A11622  23.477  12.963   7.522
  708POPC   C1B11623  24.112  12.725   8.617
  708POPC   C2B11624  24.291  12.543   8.228
  708POPC   C3B11625  24.310  12.749   7.817
  708POPC   C4B11626  24.332  12.907   7.366
  709POPC   NC311627  30.433  19.387   9.165
  709POPC   PO411628  30.063  18.980   9.558
  709POPC   GL111629  30.023  19.070   9.153
  709POPC   GL211630  30.278  18.799   9.118
  709POPC   C1A11631  29.863  19.295   8.794
  709POPC   D2A11632  29.574  19.219   8.480
  709POPC   C3A11633  29.615  18.916   8.154
  709POPC   C4A11634  29.791  19.101   7.771
  709POPC   C1B11635  30.058  18.811   8.718
  709POPC   C2B11636  30.077  19.076   8.343
  709POPC   C3B11637  30.287  19.005   7.939
  709POPC   C4B11638  30.142  18.756   7.590
  710POPC   NC311639  19.684   3.947   9.616
  710POPC   PO411640  20.069   4.450   9.475
  710POPC   GL111641  19.951   4.357   9.078
  710POPC   GL211642  19.666   4.135   9.140
  710POPC   C1A11643  19.972   4.574   8.662
  710POPC   D2A11644  19.644   4.602   8.341
  710POPC   C3A11645  19.723   4.665   7.900
  710POPC   C4A11646  20.152   4.570   7.846
  710POPC   C1B11647  19.604   4.212   8.724
  710POPC   C2B11648  19.898   4.140   8.394
  710POPC   C3B11649  19.739   4.167   8.000
  710POPC   C4B11650  19.575   3.832   7.831
  711POPC   NC311651   9.761  15.281   9.673
  711POPC   PO411652   9.839  14.626   9.533
  711POPC   GL111653   9.938  15.051   9.261
  711POPC   GL211654   9.585  15.119   9.199
  711POPC   C1A11655   9.903  15.345   8.881
  711POPC   D2A11656   9.886  15.207   8.453
  711POPC   C3A11657   9.680  15.262   8.072
  711POPC   C4A11658   9.875  15.255   7.688
  711POPC   C1B11659   9.563  14.929   8.776
  711POPC   C2B11660   9.348  15.003   8.372
  711POPC   C3B11661   9.323  14.873   7.926
  711POPC   C4B11662   9.486  14.920   7.501
  712POPC   NC311663  25.492  35.731   9.574
  712POPC   PO411664  25.246  35.083   9.483
  712POPC   GL111665  25.306  35.144   9.093
  712POPC   GL211666  25.437  35.471   9.149
  712POPC   C1A11667  25.112  35.150   8.704
  712POPC   D2A11668  25.373  35.289   8.369
  712POPC   C3A11669  25.460  35.079   7.990
  712POPC   C4A11670  25.499  35.264   7.592
  712POPC   C1B11671  25.309  35.633   8.759
  712POPC   C2B11672  25.229  35.797   8.345
  712POPC   C3B11673  25.424  35.626   7.982
  712POPC   C4B11674  25.505  35.774   7.604
  713POPC   NC311675  25.167  14.934   9.321
  713POPC   PO411676  24.875  15.462   9.675
  713POPC   GL111677  25.080  15.500   9.221
  713POPC   GL211678  25.391  15.370   9.111
  713POPC   C1A11679  25.025  15.503   8.757
  713POPC   D2A11680  24.974  15.197   8.409
  713POPC   C3A11681  25.096  15.326   8.002
  713POPC   C4A11682  25.104  15.041   7.667
  713POPC   C1B11683  25.390  15.133   8.724
  713POPC   C2B11684  25.546  14.938   8.340
  713POPC   C3B11685  25.676  14.698   7.967
  713POPC   C4B11686  25.557  14.811   7.536
  714POPC   NC311687   2.811  41.374   9.615
  714POPC   PO411688   2.455  41.968   9.640
  714POPC   GL111689   2.573  41.587   9.238
  714POPC   GL211690   2.396  41.313   9.198
  714POPC   C1A11691   2.779  41.231   8.881
  714POPC   D2A11692   2.979  41.291   8.451
  714POPC   C3A11693   2.806  41.201   8.028
  714POPC   C4A11694   2.830  41.458   7.634
  714POPC   C1B11695   2.389  41.479   8.709
  714POPC   C2B11696   2.554  41.593   8.281
  714POPC   C3B11697   2.372  41.709   7.863
  714POPC   C4B11698   2.402  41.616   7.416
  715POPC   NC311699   4.243  15.720   9.312
  715POPC   PO411700   4.164  16.331   9.506
  715POPC   GL111701   4.283  16.267   9.110
  715POPC   GL211702   4.575  16.130   9.164
  715POPC   C1A11703   4.264  16.102   8.700
  715POPC   D2A11704   4.352  16.223   8.283
  715POPC   C3A11705   4.052  16.106   7.973
  715POPC   C4A11706   4.013  15.672   7.784
  715POPC   C1B11707   4.724  15.877   8.801
  715POPC   C2B11708   4.531  15.730   8.419
  715POPC   C3B11709   4.479  15.784   7.982
  715POPC   C4B11710   4.735  15.772   7.625
  716POPC   NC311711   4.489  36.976   9.605
  716POPC   PO411712   3.948  37.253   9.284
  716POPC   GL111713   4.262  37.094   9.116
  716POPC   GL211714   4.200  36.761   9.241
  716POPC   C1A11715   4.279  37.138   8.662
  716POPC   D2A11716   4.337  37.062   8.238
  716POPC   C3A11717   4.460  37.327   7.971
  716POPC   C4A11718   4.320  37.049   7.671
  716POPC   C1B11719   4.424  36.686   8.849
  716POPC   C2B11720   4.481  36.620   8.404
  716POPC   C3B11721   4.457  36.588   7.934
  716POPC   C4B11722   4.826  36.357   7.760
  717POPC   NC311723  44.423  41.955   9.460
  717POPC   PO411724   0.097  41.911   9.447
  717POPC   GL111725  44.877  42.269   9.192
  717POPC   GL211726  44.506  42.246   9.063
  717POPC   C1A11727  44.835  42.438   8.749
  717POPC   D2A11728  44.558  42.364   8.399
  717POPC   C3A11729  44.665  42.600   8.007
  717POPC   C4A11730  44.418  42.538   7.606
  717POPC   C1B11731  44.770  41.920   8.848
  717POPC   C2B11732  44.926  41.902   8.447
  717POPC   C3B11733  44.796  42.076   8.056
  717POPC   C4B11734  44.984  42.291   7.744
  718POPC   NC311735  30.774   4.238   9.462
  718POPC   PO411736  30.128   4.002   9.430
  718POPC   GL111737  30.369   4.322   9.123
  718POPC   GL211738  30.738   4.501   9.030
  718POPC   C1A11739  30.417   4.290   8.701
  718POPC   D2A11740  30.492   3.918   8.498
  718POPC   C3A11741  30.469   4.086   8.129
  718POPC   C4A11742  30.554   4.491   7.923
  718POPC   C1B11743  30.933   4.188   8.709
  718POPC   C2B11744  30.966   3.965   8.282
  718POPC   C3B11745  31.149   4.098   7.882
  718POPC   C4B11746  31.108   4.004   7.402
  719POPC   NC311747  17.750  37.049   9.580
  719POPC   PO411748  17.134  36.799   9.412
  719POPC   GL111749  17.463  36.855   9.096
  719POPC   GL211750  17.851  36.843   9.121
  719POPC   C1A11751  17.636  36.707   8.690
  719POPC   D2A11752  17.500  36.629   8.294
  719POPC   C3A11753  17.112  36.729   8.125
  719POPC   C4A11754  17.356  36.874   7.789
  719POPC   C1B11755  17.711  37.210   8.824
  719POPC   C2B11756  17.758  37.121   8.398
  719POPC   C3B11757  17.824  36.970   7.990
  719POPC   C4B11758  17.683  37.295   7.703
  720POPC   NC311759  14.735   4.619   9.584
  720POPC   PO411760  15.292   4.265   9.728
  720POPC   GL111761  15.114   4.327   9.302
  720POPC   GL211762  15.141   4.675   9.244
  720POPC   C1A11763  15.217   4.236   8.850
  720POPC   D2A11764  15.208   3.967   8.466
  720POPC   C3A11765  15.266   4.137   8.043
  720POPC   C4A11766  15.554   4.135   7.687
  720POPC   C1B11767  15.237   4.778   8.808
  720POPC   C2B11768  15.296   4.550   8.428
  720POPC   C3B11769  15.082   4.603   8.061
  720POPC   C4B11770  15.235   4.560   7.709
  721POPC   NC311771  24.975  37.119   9.422
  721POPC   PO411772  24.471  36.774   9.457
  721POPC   GL111773  24.393  36.871   9.043
  721POPC   GL211774  24.748  36.816   9.014
  721POPC   C1A11775  24.142  36.741   8.664
  721POPC   D2A11776  24.270  36.457   8.298
  721POPC   C3A11777  24.321  36.624   7.838
  721POPC   C4A11778  24.221  36.985   7.571
  721POPC   C1B11779  24.641  36.755   8.588
  721POPC   C2B11780  24.851  36.838   8.217
  721POPC   C3B11781  24.826  36.678   7.833
  721POPC   C4B11782  25.049  36.716   7.440
  722POPC   NC311783  24.017  36.708   9.469
  722POPC   PO411784  23.603  37.258   9.573
  722POPC   GL111785  23.542  37.052   9.134
  722POPC   GL211786  23.604  36.687   9.128
  722POPC   C1A11787  23.669  36.980   8.674
  722POPC   D2A11788  23.548  37.086   8.257
  722POPC   C3A11789  23.871  37.113   7.955
  722POPC   C4A11790  23.675  37.075   7.581
  722POPC   C1B11791  23.372  36.561   8.761
  722POPC   C2B11792  23.532  36.551   8.346
  722POPC   C3B11793  23.582  36.664   7.953
  722POPC   C4B11794  23.382  36.588   7.592
  723POPC   NC311795  32.532  21.588   9.416
  723POPC   PO411796  32.110  21.083   9.466
  723POPC   GL111797  32.110  21.304   9.078
  723POPC   GL211798  32.121  21.670   9.107
  723POPC   C1A11799  31.967  21.463   8.647
  723POPC   D2A11800  32.043  21.604   8.216
  723POPC   C3A11801  32.095  21.262   7.931
  723POPC   C4A11802  32.415  21.012   7.725
  723POPC   C1B11803  32.448  21.555   8.772
  723POPC   C2B11804  32.460  21.342   8.378
  723POPC   C3B11805  32.590  21.490   7.985
  723POPC   C4B11806  32.332  21.615   7.656
  724POPC   NC311807  12.305   7.959   9.482
  724POPC   PO411808  12.184   7.244   9.605
  724POPC   GL111809  11.990   7.249   9.205
  724POPC   GL211810  12.019   7.621   9.167
  724POPC   C1A11811  11.889   7.315   8.789
  724POPC   D2A11812  12.145   7.430   8.453
  724POPC   C3A11813  11.993   7.276   8.086
  724POPC   C4A11814  12.009   7.545   7.775
  724POPC   C1B11815  12.396   7.685   8.845
  724POPC   C2B11816  12.614   7.708   8.444
  724POPC   C3B11817  12.364   7.789   8.062
  724POPC   C4B11818  12.434   7.763   7.575
  725POPC   NC311819  33.418  16.152   9.639
  725POPC   PO411820  32.825  15.709   9.483
  725POPC   GL111821  33.057  15.955   9.225
  725POPC   GL211822  33.151  15.664   9.069
  725POPC   C1A11823  32.932  16.020   8.793
  725POPC   D2A11824  32.617  15.965   8.477
  725POPC   C3A11825  32.680  16.205   8.100
  725POPC   C4A11826  32.963  16.016   7.849
  725POPC   C1B11827  33.267  15.571   8.684
  725POPC   C2B11828  33.081  15.729   8.299
  725POPC   C3B11829  33.286  15.632   7.898
  725POPC   C4B11830  33.282  15.824   7.483
  726POPC   NC311831   8.658   6.983   9.318
  726POPC   PO411832   8.008   7.034   9.566
  726POPC   GL111833   8.145   7.256   9.200
  726POPC   GL211834   7.846   7.427   9.177
  726POPC   C1A11835   8.390   7.335   8.811
  726POPC   D2A11836   8.545   7.665   8.558
  726POPC   C3A11837   8.479   7.526   8.097
  726POPC   C4A11838   8.445   7.148   7.824
  726POPC   C1B11839   7.883   7.431   8.759
  726POPC   C2B11840   8.067   7.574   8.431
  726POPC   C3B11841   7.969   7.431   8.101
  726POPC   C4B11842   8.006   7.400   7.731
  727POPC   NC311843  32.439  16.024   9.485
  727POPC   PO411844  32.173  15.587   9.112
  727POPC   GL111845  32.210  16.069   9.028
  727POPC   GL211846  31.949  16.253   8.814
  727POPC   C1A11847  32.437  16.357   8.744
  727POPC   D2A11848  32.216  16.308   8.353
  727POPC   C3A11849  32.262  15.916   8.111
  727POPC   C4A11850  32.410  15.942   7.729
  727POPC   C1B11851  32.010  15.882   8.557
  727POPC   C2B11852  31.789  15.732   8.198
  727POPC   C3B11853  31.878  15.803   7.784
  727POPC   C4B11854  31.958  16.220   7.668
  728POPC   NC311855   1.025  40.064   9.498
  728POPC   PO411856   1.640  39.690   9.422
  728POPC   GL111857   1.321  39.841   9.156
  728POPC   GL211858   1.364  40.182   9.122
  728POPC   C1A11859   1.006  39.959   8.815
  728POPC   D2A11860   1.060  40.246   8.437
  728POPC   C3A11861   1.079  40.076   8.015
  728POPC   C4A11862   0.757  40.118   7.735
  728POPC   C1B11863   1.497  40.051   8.703
  728POPC   C2B11864   1.719  40.185   8.366
  728POPC   C3B11865   1.582  40.293   7.948
  728POPC   C4B11866   1.452  39.981   7.645
  729POPC   NC311867   0.059  10.340   9.604
  729POPC   PO411868   0.777  10.523   9.540
  729POPC   GL111869   0.595  10.500   9.086
  729POPC   GL211870   0.302  10.191   9.120
  729POPC   C1A11871   0.549  10.720   8.690
  729POPC   D2A11872   0.308  10.742   8.272
  729POPC   C3A11873   0.563  10.795   7.874
  729POPC   C4A11874   0.756  10.644   7.467
  729POPC   C1B11875   0.195  10.362   8.676
  729POPC   C2B11876   0.419  10.228   8.309
  729POPC   C3B11877   0.289  10.373   7.905
  729POPC   C4B11878   0.026  10.705   7.771
  730POPC   NC311879  30.626  37.944   9.608
  730POPC   PO411880  31.045  37.444   9.569
  730POPC   GL111881  30.960  37.692   9.203
  730POPC   GL211882  30.569  37.660   9.187
  730POPC   C1A11883  30.829  37.735   8.759
  730POPC   D2A11884  30.794  37.424   8.456
  730POPC   C3A11885  30.878  37.567   8.073
  730POPC   C4A11886  31.044  37.729   7.700
  730POPC   C1B11887  30.308  37.735   8.817
  730POPC   C2B11888  30.278  37.553   8.411
  730POPC   C3B11889  30.367  37.587   8.022
  730POPC   C4B11890  30.566  37.591   7.648
  731POPC   NC311891  11.759   5.069   9.470
  731POPC   PO411892  11.158   5.350   9.491
  731POPC   GL111893  11.381   5.194   9.138
  731POPC   GL211894  11.371   4.797   9.145
  731POPC   C1A11895  11.377   5.106   8.709
  731POPC   D2A11896  11.434   5.147   8.286
  731POPC   C3A11897  11.172   5.328   7.943
  731POPC   C4A11898  11.533   5.382   7.663
  731POPC   C1B11899  11.057   4.712   8.781
  731POPC   C2B11900  11.162   4.659   8.321
  731POPC   C3B11901  11.252   4.824   7.908
  731POPC   C4B11902  10.999   4.769   7.553
  732POPC   NC311903  15.366  31.445   9.413
  732POPC   PO411904  14.808  31.316   9.220
  732POPC   GL111905  15.084  31.523   8.964
  732POPC   GL211906  15.309  31.254   8.955
  732POPC   C1A11907  15.314  31.565   8.574
  732POPC   D2A11908  15.514  31.604   8.226
  732POPC   C3A11909  15.193  31.591   7.940
  732POPC   C4A11910  15.309  31.609   7.531
  732POPC   C1B11911  15.453  31.033   8.631
  732POPC   C2B11912  15.612  31.095   8.263
  732POPC   C3B11913  15.541  31.231   7.855
  732POPC   C4B11914  15.531  31.139   7.416
  733POPC   NC311915  15.885  20.940   9.417
  733POPC   PO411916  16.066  21.629   9.554
  733POPC   GL111917  15.897  21.480   9.192
  733POPC   GL211918  16.162  21.268   9.041
  733POPC   C1A11919  15.896  21.637   8.787
  733POPC   D2A11920  16.160  21.384   8.521
  733POPC   C3A11921  16.129  21.505   8.090
  733POPC   C4A11922  15.772  21.667   7.819
  733POPC   C1B11923  15.772  21.161   8.780
  733POPC   C2B11924  15.681  21.350   8.353
  733POPC   C3B11925  15.766  21.167   7.936
  733POPC   C4B11926  15.633  21.269   7.500
  734POPC   NC311927  33.278   7.235   9.799
  734POPC   PO411928  32.968   7.793   9.471
  734POPC   GL111929  33.218   7.566   9.173
  734POPC   GL211930  33.327   7.231   9.231
  734POPC   C1A11931  33.014   7.411   8.794
  734POPC   D2A11932  32.766   7.283   8.438
  734POPC   C3A11933  32.869   7.523   8.083
  734POPC   C4A11934  33.004   7.525   7.662
  734POPC   C1B11935  33.490   7.253   8.788
  734POPC   C2B11936  33.277   7.187   8.386
  734POPC   C3B11937  33.149   7.064   7.948
  734POPC   C4B11938  33.183   7.070   7.463
  735POPC   NC311939  37.932  29.565   9.425
  735POPC   PO411940  37.763  28.885   9.494
  735POPC   GL111941  37.664  28.918   9.096
  735POPC   GL211942  37.674  29.288   9.061
  735POPC   C1A11943  37.687  28.958   8.675
  735POPC   D2A11944  37.700  29.163   8.333
  735POPC   C3A11945  37.652  28.894   8.006
  735POPC   C4A11946  37.663  28.979   7.597
  735POPC   C1B11947  37.340  29.350   8.733
  735POPC   C2B11948  37.336  29.510   8.301
  735POPC   C3B11949  37.470  29.355   7.887
  735POPC   C4B11950  37.437  29.459   7.434
  736POPC   NC311951  37.301  34.970   9.458
  736POPC   PO411952  37.978  34.855   9.437
  736POPC   GL111953  37.814  34.597   9.117
  736POPC   GL211954  37.479  34.483   9.205
  736POPC   C1A11955  37.817  34.588   8.687
  736POPC   D2A11956  37.985  34.816   8.386
  736POPC   C3A11957  37.929  34.552   8.046
  736POPC   C4A11958  37.832  34.693   7.654
  736POPC   C1B11959  37.353  34.715   8.830
  736POPC   C2B11960  37.367  34.520   8.423
  736POPC   C3B11961  37.427  34.619   7.994
  736POPC   C4B11962  37.571  34.252   7.736
  737POPC   NC311963  16.477  32.630   9.477
  737POPC   PO411964  16.659  31.957   9.523
  737POPC   GL111965  16.489  32.194   9.185
  737POPC   GL211966  16.813  32.375   9.169
  737POPC   C1A11967  16.492  32.368   8.777
  737POPC   D2A11968  16.751  32.349   8.420
  737POPC   C3A11969  16.623  32.327   8.033
  737POPC   C4A11970  16.410  32.235   7.658
  737POPC   C1B11971  17.067  32.438   8.799
  737POPC   C2B11972  17.114  32.684   8.410
  737POPC   C3B11973  16.999  32.671   8.019
  737POPC   C4B11974  17.028  32.423   7.687
  738POPC   NC311975  32.823  34.081   9.494
  738POPC   PO411976  33.141  33.451   9.394
  738POPC   GL111977  33.207  33.586   9.027
  738POPC   GL211978  33.099  33.916   9.071
  738POPC   C1A11979  32.960  33.607   8.680
  738POPC   D2A11980  32.815  33.727   8.311
  738POPC   C3A11981  33.080  33.583   8.021
  738POPC   C4A11982  32.835  33.475   7.688
  738POPC   C1B11983  32.942  34.129   8.679
  738POPC   C2B11984  33.080  34.143   8.231
  738POPC   C3B11985  32.931  34.002   7.802
  738POPC   C4B11986  33.133  33.934   7.398
  739POPC   NC311987   4.772  18.769   9.308
  739POPC   PO411988   4.906  19.497   9.443
  739POPC   GL111989   5.156  19.371   9.127
  739POPC   GL211990   5.327  19.052   9.122
  739POPC   C1A11991   5.072  19.218   8.723
  739POPC   D2A11992   5.239  19.112   8.316
  739POPC   C3A11993   5.048  19.239   7.922
  739POPC   C4A11994   5.292  19.288   7.545
  739POPC   C1B11995   5.265  18.759   8.745
  739POPC   C2B11996   5.002  18.645   8.402
  739POPC   C3B11997   5.175  18.617   8.016
  739POPC   C4B11998   5.154  18.816   7.636
  740POPC   NC311999  17.393   5.696   9.512
  740POPC   PO412000  17.279   6.293   9.566
  740POPC   GL112001  17.331   6.048   9.164
  740POPC   GL212002  17.643   6.124   9.060
  740POPC   C1A12003  17.425   5.762   8.788
  740POPC   D2A12004  17.344   5.956   8.354
  740POPC   C3A12005  17.379   5.889   7.909
  740POPC   C4A12006  17.274   5.802   7.484
  740POPC   C1B12007  17.802   6.090   8.636
  740POPC   C2B12008  17.792   6.099   8.174
  740POPC   C3B12009  17.870   5.809   7.852
  740POPC   C4B12010  17.786   5.809   7.417
  741POPC   NC312011  34.278  21.055   9.536
  741POPC   PO412012  34.439  21.731   9.530
  741POPC   GL112013  34.467  21.517   9.116
  741POPC   GL212014  34.587  21.169   9.142
  741POPC   C1A12015  34.677  21.513   8.671
  741POPC   D2A12016  34.726  21.405   8.195
  741POPC   C3A12017  34.436  21.529   7.905
  741POPC   C4A12018  34.561  21.502   7.470
  741POPC   C1B12019  34.436  21.021   8.754
  741POPC   C2B12020  34.294  21.270   8.407
  741POPC   C3B12021  34.366  21.019   8.078
  741POPC   C4B12022  34.306  21.106   7.631
  742POPC   NC312023  35.101  42.214   9.693
  742POPC   PO412024  34.516  42.643   9.338
  742POPC   GL112025  34.535  42.292   9.126
  742POPC   GL212026  34.844  42.068   9.197
  742POPC   C1A12027  34.376  42.257   8.745
  742POPC   D2A12028  34.556  42.470   8.432
  742POPC   C3A12029  34.499  42.286   8.050
  742POPC   C4A12030  34.789  42.396   7.744
  742POPC   C1B12031  34.905  42.226   8.773
  742POPC   C2B12032  34.788  42.006   8.416
  742POPC   C3B12033  34.974  42.023   8.031
  742POPC   C4B12034  34.841  41.904   7.626
  743POPC   NC312035  14.929  34.847   9.463
  743POPC   PO412036  15.061  34.213   9.369
  743POPC   GL112037  15.089  34.556   9.066
  743POPC   GL212038  15.333  34.827   9.133
  743POPC   C1A12039  15.111  34.676   8.650
  743POPC   D2A12040  15.099  34.483   8.247
  743POPC   C3A12041  14.846  34.572   7.901
  743POPC   C4A12042  14.893  34.644   7.469
  743POPC   C1B12043  15.500  34.985   8.717
  743POPC   C2B12044  15.393  34.885   8.287
  743POPC   C3B12045  15.259  34.876   7.845
  743POPC   C4B12046  15.517  35.009   7.550
  744POPC   NC312047  38.889  26.694   9.606
  744POPC   PO412048  39.445  26.442   9.722
  744POPC   GL112049  39.310  26.773   9.313
  744POPC   GL212050  39.016  26.890   9.160
  744POPC   C1A12051  39.380  26.745   8.858
  744POPC   D2A12052  39.320  26.972   8.506
  744POPC   C3A12053  39.291  26.843   8.107
  744POPC   C4A12054  39.431  26.851   7.722
  744POPC   C1B12055  38.850  26.613   8.814
  744POPC   C2B12056  38.616  26.445   8.474
  744POPC   C3B12057  38.745  26.498   8.073
  744POPC   C4B12058  39.004  26.589   7.717
  745POPC   NC312059  32.017   8.597   9.449
  745POPC   PO412060  32.282   7.936   9.444
  745POPC   GL112061  32.347   8.300   9.151
  745POPC   GL212062  32.693   8.467   9.152
  745POPC   C1A12063  32.045   8.305   8.792
  745POPC   D2A12064  31.946   8.098   8.390
  745POPC   C3A12065  31.983   8.325   8.010
  745POPC   C4A12066  32.223   8.318   7.640
  745POPC   C1B12067  32.687   8.381   8.728
  745POPC   C2B12068  32.420   8.300   8.437
  745POPC   C3B12069  32.445   8.151   8.078
  745POPC   C4B12070  32.586   7.876   7.821
  746POPC   NC312071   2.542   3.640   9.551
  746POPC   PO412072   2.921   3.073   9.317
  746POPC   GL112073   2.849   3.460   9.150
  746POPC   GL212074   2.519   3.384   9.108
  746POPC   C1A12075   2.799   3.654   8.753
  746POPC   D2A12076   3.062   3.761   8.416
  746POPC   C3A12077   2.876   3.659   8.031
  746POPC   C4A12078   2.999   3.863   7.700
  746POPC   C1B12079   2.591   3.167   8.714
  746POPC   C2B12080   2.742   3.254   8.298
  746POPC   C3B12081   2.508   3.302   7.888
  746POPC   C4B12082   2.430   3.309   7.436
  747POPC   NC312083   5.473  16.135   9.417
  747POPC   PO412084   6.167  15.971   9.555
  747POPC   GL112085   5.913  15.956   9.164
  747POPC   GL212086   6.050  15.622   9.117
  747POPC   C1A12087   5.681  16.118   8.762
  747POPC   D2A12088   5.523  16.007   8.305
  747POPC   C3A12089   5.843  16.059   7.950
  747POPC   C4A12090   5.913  16.214   7.536
  747POPC   C1B12091   5.817  15.624   8.754
  747POPC   C2B12092   5.970  15.789   8.380
  747POPC   C3B12093   5.918  15.555   8.013
  747POPC   C4B12094   5.848  15.694   7.596
  748POPC   NC312095  39.626   4.245   9.193
  748POPC   PO412096  39.993   4.638   9.615
  748POPC   GL112097  40.124   4.465   9.178
  748POPC   GL212098  40.176   4.086   9.145
  748POPC   C1A12099  40.051   4.426   8.707
  748POPC   D2A12100  39.774   4.544   8.359
  748POPC   C3A12101  39.894   4.379   7.964
  748POPC   C4A12102  40.267   4.532   7.830
  748POPC   C1B12103  40.352   4.005   8.713
  748POPC   C2B12104  40.311   4.158   8.248
  748POPC   C3B12105  40.220   3.998   7.809
  748POPC   C4B12106  40.361   3.954   7.322
  749POPC   NC312107   1.716   7.380   9.452
  749POPC   PO412108   2.140   7.871   9.461
  749POPC   GL112109   1.957   7.659   9.125
  749POPC   GL212110   2.186   7.388   9.109
  749POPC   C1A12111   1.778   7.412   8.776
  749POPC   D2A12112   1.863   7.213   8.395
  749POPC   C3A12113   1.847   7.345   7.974
  749POPC   C4A12114   1.586   7.278   7.636
  749POPC   C1B12115   2.249   7.642   8.721
  749POPC   C2B12116   2.270   7.533   8.312
  749POPC   C3B12117   2.310   7.131   8.161
  749POPC   C4B12118   2.264   7.025   7.745
  750POPC   NC312119   2.486   7.145   9.472
  750POPC   PO412120   2.429   6.458   9.483
  750POPC   GL112121   2.674   6.627   9.165
  750POPC   GL212122   2.954   6.836   9.272
  750POPC   C1A12123   2.573   6.646   8.743
  750POPC   D2A12124   2.768   6.640   8.352
  750POPC   C3A12125   2.494   6.665   8.030
  750POPC   C4A12126   2.434   6.568   7.608
  750POPC   C1B12127   3.038   6.840   8.804
  750POPC   C2B12128   3.140   6.974   8.368
  750POPC   C3B12129   3.225   6.791   7.965
  750POPC   C4B12130   3.281   6.654   7.533
  751POPC   NC312131  12.517   4.464   9.379
  751POPC   PO412132  13.089   4.621   9.690
  751POPC   GL112133  13.087   4.455   9.165
  751POPC   GL212134  12.877   4.228   9.039
  751POPC   C1A12135  12.931   4.551   8.657
  751POPC   D2A12136  12.935   4.488   8.165
  751POPC   C3A12137  12.611   4.445   7.813
  751POPC   C4A12138  12.522   4.315   7.376
  751POPC   C1B12139  13.097   4.042   8.650
  751POPC   C2B12140  13.234   4.054   8.189
  751POPC   C3B12141  13.046   4.114   7.731
  751POPC   C4B12142  12.944   4.086   7.256
  752POPC   NC312143   7.156  17.933   9.636
  752POPC   PO412144   7.487  17.335   9.571
  752POPC   GL112145   7.245  17.502   9.184
  752POPC   GL212146   7.239  17.872   9.137
  752POPC   C1A12147   7.313  17.582   8.718
  752POPC   D2A12148   7.127  17.443   8.364
  752POPC   C3A12149   7.366  17.456   8.014
  752POPC   C4A12150   7.348  17.579   7.596
  752POPC   C1B12151   7.680  17.771   8.997
  752POPC   C2B12152   7.812  17.561   8.593
  752POPC   C3B12153   7.879  17.762   8.210
  752POPC   C4B12154   7.773  17.696   7.812
  753POPC   NC312155   0.782  10.114   9.318
  753POPC   PO412156   0.286   9.854   9.550
  753POPC   GL112157   0.522   9.709   9.130
  753POPC   GL212158   0.658   9.972   8.848
  753POPC   C1A12159   0.649   9.475   8.755
  753POPC   D2A12160   0.560   9.690   8.381
  753POPC   C3A12161   0.468   9.472   8.044
  753POPC   C4A12162   0.658   9.511   7.660
  753POPC   C1B12163   0.230   9.878   8.719
  753POPC   C2B12164  44.946  10.017   8.365
  753POPC   C3B12165   0.125   9.888   8.015
  753POPC   C4B12166   0.566   9.951   7.892
  754POPC   NC312167  35.265  27.107   9.648
  754POPC   PO412168  35.385  27.841   9.513
  754POPC   GL112169  35.316  27.754   9.114
  754POPC   GL212170  35.611  27.923   9.039
  754POPC   C1A12171  35.402  27.417   8.829
  754POPC   D2A12172  35.581  27.389   8.402
  754POPC   C3A12173  35.330  27.425   8.013
  754POPC   C4A12174  35.511  27.348   7.592
  754POPC   C1B12175  35.511  27.874   8.644
  754POPC   C2B12176  35.343  27.856   8.282
  754POPC   C3B12177  35.484  27.889   7.893
  754POPC   C4B12178  35.264  27.774   7.548
  755POPC   NC312179  29.066  42.875   9.566
  755POPC   PO412180  29.079  43.509   9.434
  755POPC   GL112181  28.982  43.199   9.136
  755POPC   GL212182  29.279  42.995   9.131
  755POPC   C1A12183  28.913  43.310   8.714
  755POPC   D2A12184  29.118  43.257   8.333
  755POPC   C3A12185  28.919  43.474   8.004
  755POPC   C4A12186  28.950  43.236   7.690
  755POPC   C1B12187  29.371  43.041   8.732
  755POPC   C2B12188  29.570  43.001   8.360
  755POPC   C3B12189  29.438  42.974   7.945
  755POPC   C4B12190  29.701  42.924   7.618
  756POPC   NC312191  35.886  10.515   9.507
  756POPC   PO412192  36.504  10.286   9.654
  756POPC   GL112193  36.350  10.476   9.221
  756POPC   GL212194  36.181  10.821   9.193
  756POPC   C1A12195  36.213  10.503   8.758
  756POPC   D2A12196  35.953  10.335   8.379
  756POPC   C3A12197  36.100  10.516   7.999
  756POPC   C4A12198  36.060  10.335   7.589
  756POPC   C1B12199  35.955  10.986   8.816
  756POPC   C2B12200  36.090  10.870   8.400
  756POPC   C3B12201  35.957  11.052   8.009
  756POPC   C4B12202  35.857  10.827   7.657
  757POPC   NC312203  11.324  36.531   9.436
  757POPC   PO412204  11.095  37.180   9.494
  757POPC   GL112205  10.997  36.968   9.136
  757POPC   GL212206  11.352  36.910   9.092
  757POPC   C1A12207  11.060  37.053   8.710
  757POPC   D2A12208  11.278  37.119   8.345
  757POPC   C3A12209  11.305  36.957   7.964
  757POPC   C4A12210  11.259  36.519   7.892
  757POPC   C1B12211  11.508  36.804   8.704
  757POPC   C2B12212  11.531  36.621   8.308
  757POPC   C3B12213  11.735  36.708   7.935
  757POPC   C4B12214  11.670  36.540   7.573
  758POPC   NC312215  22.311   1.729   9.482
  758POPC   PO412216  21.964   2.360   9.527
  758POPC   GL112217  22.021   2.062   9.194
  758POPC   GL212218  21.733   2.189   9.019
  758POPC   C1A12219  22.218   2.078   8.785
  758POPC   D2A12220  22.069   2.289   8.423
  758POPC   C3A12221  22.125   2.112   7.991
  758POPC   C4A12222  22.403   1.819   7.727
  758POPC   C1B12223  21.778   1.837   8.734
  758POPC   C2B12224  22.021   1.766   8.359
  758POPC   C3B12225  21.960   1.626   7.912
  758POPC   C4B12226  21.780   1.672   7.487
  759POPC   NC312227   2.695  16.093   9.530
  759POPC   PO412228   2.206  15.560   9.580
  759POPC   GL112229   2.368  15.672   9.118
  759POPC   GL212230   2.719  15.754   9.117
  759POPC   C1A12231   2.466  15.955   8.723
  759POPC   D2A12232   2.700  16.103   8.397
  759POPC   C3A12233   2.557  16.077   7.983
  759POPC   C4A12234   2.661  15.852   7.636
  759POPC   C1B12235   2.984  15.970   8.845
  759POPC   C2B12236   3.178  15.906   8.445
  759POPC   C3B12237   3.083  16.019   8.036
  759POPC   C4B12238   3.171  15.905   7.636
  760POPC   NC312239  30.366  30.809   9.701
  760POPC   PO412240  29.667  30.782   9.497
  760POPC   GL112241  29.860  30.760   9.133
  760POPC   GL212242  30.133  30.593   9.291
  760POPC   C1A12243  29.768  30.596   8.707
  760POPC   D2A12244  29.644  30.696   8.294
  760POPC   C3A12245  29.841  30.443   8.043
  760POPC   C4A12246  30.030  30.508   7.665
  760POPC   C1B12247  30.253  30.661   8.838
  760POPC   C2B12248  30.232  30.529   8.424
  760POPC   C3B12249  30.242  30.744   8.055
  760POPC   C4B12250  30.245  30.961   7.659
  761POPC   NC312251  37.164   5.875   9.578
  761POPC   PO412252  36.583   6.055   9.709
  761POPC   GL112253  36.546   5.777   9.330
  761POPC   GL212254  36.815   5.547   9.298
  761POPC   C1A12255  36.509   5.686   8.865
  761POPC   D2A12256  36.549   5.870   8.423
  761POPC   C3A12257  36.533   5.556   8.057
  761POPC   C4A12258  36.738   5.655   7.634
  761POPC   C1B12259  36.992   5.509   8.874
  761POPC   C2B12260  36.945   5.535   8.429
  761POPC   C3B12261  37.033   5.402   8.016
  761POPC   C4B12262  37.232   5.141   7.679
  762POPC   NC312263  38.157  15.708   9.439
  762POPC   PO412264  38.600  16.186   9.526
  762POPC   GL112265  38.320  16.118   9.176
  762POPC   GL212266  37.934  16.112   9.162
  762POPC   C1A12267  38.280  15.897   8.791
  762POPC   D2A12268  38.605  15.858   8.499
  762POPC   C3A12269  38.491  15.845   8.082
  762POPC   C4A12270  38.764  15.748   7.728
  762POPC   C1B12271  38.082  16.435   8.868
  762POPC   C2B12272  38.351  16.342   8.534
  762POPC   C3B12273  38.508  16.347   8.129
  762POPC   C4B12274  38.395  16.193   7.715
  763POPC   NC312275  25.200   6.815   9.561
  763POPC   PO412276  25.536   6.320   9.321
  763POPC   GL112277  25.354   6.652   9.103
  763POPC   GL212278  25.020   6.764   9.101
  763POPC   C1A12279  25.397   6.871   8.743
  763POPC   D2A12280  25.171   6.903   8.391
  763POPC   C3A12281  25.397   6.839   8.062
  763POPC   C4A12282  25.566   6.527   7.793
  763POPC   C1B12283  24.751   6.766   8.770
  763POPC   C2B12284  24.662   6.888   8.401
  763POPC   C3B12285  24.838   6.735   8.030
  763POPC   C4B12286  25.098   6.692   7.693
  764POPC   NC312287  10.842  38.217   9.394
  764POPC   PO412288  10.231  38.514   9.351
  764POPC   GL112289  10.606  38.546   9.103
  764POPC   GL212290  10.808  38.844   9.057
  764POPC   C1A12291  10.702  38.397   8.711
  764POPC   D2A12292  10.578  38.115   8.396
  764POPC   C3A12293  10.568  38.302   8.022
  764POPC   C4A12294  10.779  38.592   7.845
  764POPC   C1B12295  10.515  38.878   8.748
  764POPC   C2B12296  10.348  38.630   8.409
  764POPC   C3B12297  10.263  38.720   7.992
  764POPC   C4B12298   9.927  38.947   7.747
  765POPC   NC312299  39.652  36.199   9.479
  765POPC   PO412300  39.032  36.396   9.476
  765POPC   GL112301  39.262  36.166   9.133
  765POPC   GL212302  39.392  35.816   9.177
  765POPC   C1A12303  39.454  36.053   8.719
  765POPC   D2A12304  39.245  36.147   8.359
  765POPC   C3A12305  39.536  36.143   8.046
  765POPC   C4A12306  39.420  36.062   7.641
  765POPC   C1B12307  39.044  35.775   8.838
  765POPC   C2B12308  38.924  35.704   8.393
  765POPC   C3B12309  39.138  35.783   7.991
  765POPC   C4B12310  39.064  35.689   7.558
  766POPC   NC312311   1.131  36.838   9.242
  766POPC   PO412312   1.640  37.129   9.314
  766POPC   GL112313   1.456  37.196   8.955
  766POPC   GL212314   1.196  37.365   9.060
  766POPC   C1A12315   1.386  36.920   8.609
  766POPC   D2A12316   1.049  36.618   8.513
  766POPC   C3A12317   1.045  36.561   8.065
  766POPC   C4A12318   1.261  36.684   7.680
  766POPC   C1B12319   0.940  37.270   8.736
  766POPC   C2B12320   0.974  37.091   8.334
  766POPC   C3B12321   0.888  37.184   7.927
  766POPC   C4B12322   1.203  37.177   7.672
  767POPC   NC312323  10.000  22.812   9.444
  767POPC   PO412324   9.869  23.537   9.396
  767POPC   GL112325   9.940  23.206   9.103
  767POPC   GL212326   9.618  23.066   9.134
  767POPC   C1A12327   9.900  22.854   8.766
  767POPC   D2A12328  10.127  22.689   8.386
  767POPC   C3A12329   9.933  22.458   8.039
  767POPC   C4A12330   9.721  22.672   7.710
  767POPC   C1B12331   9.375  22.886   8.808
  767POPC   C2B12332   9.437  23.012   8.371
  767POPC   C3B12333   9.443  23.047   7.960
  767POPC   C4B12334   9.254  22.906   7.602
  768POPC   NC312335  40.462  26.579   9.647
  768POPC   PO412336  40.959  26.903   9.359
  768POPC   GL112337  40.696  26.838   9.081
  768POPC   GL212338  40.560  26.532   9.124
  768POPC   C1A12339  40.845  26.744   8.705
  768POPC   D2A12340  40.723  26.758   8.349
  768POPC   C3A12341  41.024  26.763   8.072
  768POPC   C4A12342  40.946  26.922   7.707
  768POPC   C1B12343  40.353  26.602   8.719
  768POPC   C2B12344  40.244  26.592   8.268
  768POPC   C3B12345  40.514  26.671   7.886
  768POPC   C4B12346  40.754  26.448   7.579
  769POPC   NC312347  42.202  23.326   9.636
  769POPC   PO412348  41.960  22.665   9.447
  769POPC   GL112349  42.070  22.844   9.068
  769POPC   GL212350  42.216  23.136   9.125
  769POPC   C1A12351  42.306  22.778   8.686
  769POPC   D2A12352  42.516  22.959   8.308
  769POPC   C3A12353  42.324  22.799   7.930
  769POPC   C4A12354  42.195  22.514   7.613
  769POPC   C1B12355  41.967  23.161   8.695
  769POPC   C2B12356  41.820  23.005   8.308
  769POPC   C3B12357  41.936  23.142   7.906
  769POPC   C4B12358  42.117  23.135   7.521
  770POPC   NC312359  20.949  11.169   9.364
  770POPC   PO412360  21.532  11.140   9.663
  770POPC   GL112361  21.498  11.201   9.185
  770POPC   GL212362  21.502  11.553   9.109
  770POPC   C1A12363  21.412  11.149   8.718
  770POPC   D2A12364  21.519  11.435   8.354
  770POPC   C3A12365  21.395  11.221   7.970
  770POPC   C4A12366  21.044  10.994   7.819
  770POPC   C1B12367  21.137  11.561   8.795
  770POPC   C2B12368  21.022  11.461   8.345
  770POPC   C3B12369  21.151  11.680   7.959
  770POPC   C4B12370  21.605  11.665   7.815
  771POPC   NC312371   3.759  37.061   9.651
  771POPC   PO412372   3.093  36.808   9.553
  771POPC   GL112373   3.374  37.013   9.298
  771POPC   GL212374   3.669  36.781   9.226
  771POPC   C1A12375   3.390  37.005   8.856
  771POPC   D2A12376   3.435  36.686   8.541
  771POPC   C3A12377   3.414  36.860   8.126
  771POPC   C4A12378   3.460  37.163   7.809
  771POPC   C1B12379   3.880  36.803   8.820
  771POPC   C2B12380   3.870  36.944   8.396
  771POPC   C3B12381   3.949  36.809   7.974
  771POPC   C4B12382   3.660  36.600   7.735
  772POPC   NC312383  31.386  31.247   9.890
  772POPC   PO412384  31.612  31.820   9.574
  772POPC   GL112385  31.619  31.496   9.246
  772POPC   GL212386  31.344  31.658   9.126
  772POPC   C1A12387  31.482  31.293   8.826
  772POPC   D2A12388  31.673  31.345   8.439
  772POPC   C3A12389  31.450  31.268   8.068
  772POPC   C4A12390  31.556  31.359   7.665
  772POPC   C1B12391  31.305  31.847   8.729
  772POPC   C2B12392  31.288  31.676   8.316
  772POPC   C3B12393  31.184  31.651   7.875
  772POPC   C4B12394  31.352  31.802   7.516
  773POPC   NC312395   2.692  34.761   9.577
  773POPC   PO412396   3.307  34.433   9.356
  773POPC   GL112397   2.878  34.484   9.174
  773POPC   GL212398   2.580  34.238   9.218
  773POPC   C1A12399   2.621  34.606   8.832
  773POPC   D2A12400   2.717  34.784   8.453
  773POPC   C3A12401   2.727  34.537   8.073
  773POPC   C4A12402   2.696  34.760   7.688
  773POPC   C1B12403   2.396  34.138   8.789
  773POPC   C2B12404   2.328  34.416   8.405
  773POPC   C3B12405   2.302  34.315   7.951
  773POPC   C4B12406   2.534  34.316   7.538
  774POPC   NC312407  44.896  18.467   9.561
  774POPC   PO412408  44.563  17.871   9.576
  774POPC   GL112409  44.654  18.133   9.195
  774POPC   GL212410  44.940  18.062   9.211
  774POPC   C1A12411  44.550  18.076   8.716
  774POPC   D2A12412  44.483  18.470   8.493
  774POPC   C3A12413  44.387  18.521   8.052
  774POPC   C4A12414  44.644  18.634   7.714
  774POPC   C1B12415   0.026  18.151   8.820
  774POPC   C2B12416  44.957  18.217   8.409
  774POPC   C3B12417  44.939  18.334   8.010
  774POPC   C4B12418  44.648  18.114   7.772
  775POPC   NC312419  18.668  18.504   9.251
  775POPC   PO412420  19.249  18.532   9.544
  775POPC   GL112421  19.280  18.373   9.124
  775POPC   GL212422  19.037  18.558   8.888
  775POPC   C1A12423  19.433  18.307   8.695
  775POPC   D2A12424  19.121  18.337   8.371
  775POPC   C3A12425  19.161  18.145   8.002
  775POPC   C4A12426  18.931  17.970   7.724
  775POPC   C1B12427  18.688  18.360   8.638
  775POPC   C2B12428  18.591  18.471   8.230
  775POPC   C3B12429  18.940  18.611   7.948
  775POPC   C4B12430  19.019  18.625   7.515
  776POPC   NC312431  18.056  18.595   9.537
  776POPC   PO412432  18.532  18.092   9.430
  776POPC   GL112433  18.208  18.271   9.151
  776POPC   GL212434  17.980  18.034   9.038
  776POPC   C1A12435  18.160  18.439   8.715
  776POPC   D2A12436  17.956  18.524   8.302
  776POPC   C3A12437  18.160  18.512   7.877
  776POPC   C4A12438  18.568  18.321   7.754
  776POPC   C1B12439  18.326  17.903   8.799
  776POPC   C2B12440  18.360  18.041   8.415
  776POPC   C3B12441  18.079  18.047   8.129
  776POPC   C4B12442  18.075  18.006   7.715
  777POPC   NC312443  40.864  25.513   9.783
  777POPC   PO412444  40.847  26.209   9.762
  777POPC   GL112445  40.899  26.197   9.320
  777POPC   GL212446  40.635  26.023   9.135
  777POPC   C1A12447  41.031  26.342   8.933
  777POPC   D2A12448  41.077  26.355   8.465
  777POPC   C3A12449  40.796  26.298   8.123
  777POPC   C4A12450  40.930  26.018   7.825
  777POPC   C1B12451  40.618  26.148   8.706
  777POPC   C2B12452  40.737  25.874   8.385
  777POPC   C3B12453  40.752  25.588   8.060
  777POPC   C4B12454  40.668  25.650   7.618
  778POPC   NC312455  18.482  41.672   9.575
  778POPC   PO412456  17.925  41.253   9.301
  778POPC   GL112457  18.186  41.373   8.985
  778POPC   GL212458  18.323  41.689   9.103
  778POPC   C1A12459  18.077  41.317   8.547
  778POPC   D2A12460  18.088  41.149   8.115
  778POPC   C3A12461  18.308  41.448   7.843
  778POPC   C4A12462  18.239  41.547   7.410
  778POPC   C1B12463  18.302  41.837   8.715
  778POPC   C2B12464  18.352  41.692   8.300
  778POPC   C3B12465  18.477  41.938   7.940
  778POPC   C4B12466  18.701  41.794   7.579
  779POPC   NC312467   1.693  28.035   9.519
  779POPC   PO412468   1.977  28.738   9.567
  779POPC   GL112469   1.851  28.627   9.081
  779POPC   GL212470   1.796  28.232   9.048
  779POPC   C1A12471   2.026  28.592   8.666
  779POPC   D2A12472   2.372  28.432   8.440
  779POPC   C3A12473   2.175  28.470   8.059
  779POPC   C4A12474   1.892  28.750   7.800
  779POPC   C1B12475   2.097  28.084   8.774
  779POPC   C2B12476   1.911  28.146   8.406
  779POPC   C3B12477   1.805  28.083   8.015
  779POPC   C4B12478   2.097  28.116   7.700
  780POPC   NC312479  19.995  31.273   9.542
  780POPC   PO412480  19.661  31.821   9.760
  780POPC   GL112481  19.798  31.732   9.260
  780POPC   GL212482  19.722  31.383   9.129
  780POPC   C1A12483  19.929  31.650   8.757
  780POPC   D2A12484  20.176  31.613   8.324
  780POPC   C3A12485  19.960  31.479   7.913
  780POPC   C4A12486  19.846  31.503   7.418
  780POPC   C1B12487  19.592  31.163   8.755
  780POPC   C2B12488  19.693  31.229   8.316
  780POPC   C3B12489  19.616  31.074   7.896
  780POPC   C4B12490  19.976  31.044   7.649
  781POPC   NC312491  20.833  31.016   9.578
  781POPC   PO412492  20.219  30.889   9.415
  781POPC   GL112493  20.425  30.758   9.088
  781POPC   GL212494  20.728  30.877   9.110
  781POPC   C1A12495  20.500  30.892   8.663
  781POPC   D2A12496  20.702  30.759   8.320
  781POPC   C3A12497  20.457  30.683   8.000
  781POPC   C4A12498  20.557  30.421   7.678
  781POPC   C1B12499  21.026  30.815   8.772
  781POPC   C2B12500  21.119  31.027   8.382
  781POPC   C3B12501  20.935  31.102   7.983
  781POPC   C4B12502  20.914  30.789   7.678
  782POPC   NC312503  17.719   6.423   9.474
  782POPC   PO412504  17.300   7.016   9.507
  782POPC   GL112505  17.562   6.862   9.200
  782POPC   GL212506  17.360   6.568   9.135
  782POPC   C1A12507  17.544   6.827   8.748
  782POPC   D2A12508  17.289   6.980   8.452
  782POPC   C3A12509  17.500   6.961   8.074
  782POPC   C4A12510  17.359   6.979   7.686
  782POPC   C1B12511  17.305   6.343   8.735
  782POPC   C2B12512  17.443   6.479   8.330
  782POPC   C3B12513  17.368   6.468   7.890
  782POPC   C4B12514  17.644   6.240   7.630
  783POPC   NC312515  27.876  26.900   9.542
  783POPC   PO412516  27.304  26.686   9.716
  783POPC   GL112517  27.580  26.656   9.229
  783POPC   GL212518  27.563  26.978   9.044
  783POPC   C1A12519  27.470  26.602   8.729
  783POPC   D2A12520  27.386  26.827   8.357
  783POPC   C3A12521  27.537  26.574   8.021
  783POPC   C4A12522  27.497  26.558   7.587
  783POPC   C1B12523  27.787  26.989   8.621
  783POPC   C2B12524  27.776  27.131   8.163
  783POPC   C3B12525  27.706  26.989   7.740
  783POPC   C4B12526  27.672  27.141   7.318
  784POPC   NC312527   4.759  43.201   9.536
  784POPC   PO412528   5.466  42.983   9.465
  784POPC   GL112529   5.134  43.082   9.224
  784POPC   GL212530   5.302  43.333   9.045
  784POPC   C1A12531   4.854  43.008   8.867
  784POPC   D2A12532   4.949  42.853   8.436
  784POPC   C3A12533   4.821  43.068   8.029
  784POPC   C4A12534   4.998  43.252   7.615
  784POPC   C1B12535   5.362  42.981   8.760
  784POPC   C2B12536   5.462  42.888   8.312
  784POPC   C3B12537   5.296  42.935   7.884
  784POPC   C4B12538   5.337  42.989   7.369
  785POPC   NC312539   2.446  11.486   9.505
  785POPC   PO412540   1.822  11.121   9.431
  785POPC   GL112541   2.020  11.426   9.195
  785POPC   GL212542   1.753  11.502   8.962
  785POPC   C1A12543   2.271  11.510   8.833
  785POPC   D2A12544   2.239  11.340   8.418
  785POPC   C3A12545   2.200  11.653   8.099
  785POPC   C4A12546   2.039  11.425   7.768
  785POPC   C1B12547   1.594  11.179   8.708
  785POPC   C2B12548   1.536  11.266   8.285
  785POPC   C3B12549   1.598  11.066   7.894
  785POPC   C4B12550   1.627  11.316   7.527
  786POPC   NC312551  32.536   7.540   9.334
  786POPC   PO412552  31.889   7.255   9.537
  786POPC   GL112553  32.124   7.296   9.167
  786POPC   GL212554  32.084   7.653   9.058
  786POPC   C1A12555  32.288   7.297   8.751
  786POPC   D2A12556  32.314   7.032   8.433
  786POPC   C3A12557  32.389   7.301   8.076
  786POPC   C4A12558  32.512   7.400   7.703
  786POPC   C1B12559  32.370   7.872   8.763
  786POPC   C2B12560  32.411   7.718   8.365
  786POPC   C3B12561  32.124   7.757   8.048
  786POPC   C4B12562  32.036   7.832   7.639
  787POPC   NC312563  23.510   8.011   9.455
  787POPC   PO412564  24.022   8.377   9.414
  787POPC   GL112565  23.879   8.130   9.075
  787POPC   GL212566  23.509   8.187   8.995
  787POPC   C1A12567  23.870   8.184   8.642
  787POPC   D2A12568  23.609   8.091   8.288
  787POPC   C3A12569  23.846   8.205   7.940
  787POPC   C4A12570  24.004   8.017   7.602
  787POPC   C1B12571  23.538   8.549   8.778
  787POPC   C2B12572  23.698   8.624   8.362
  787POPC   C3B12573  23.434   8.497   8.021
  787POPC   C4B12574  23.393   8.220   7.674
  788POPC   NC312575   8.656  23.076   9.526
  788POPC   PO412576   9.357  22.925   9.522
  788POPC   GL112577   9.034  22.862   9.257
  788POPC   GL212578   9.039  23.173   9.128
  788POPC   C1A12579   8.788  22.801   8.875
  788POPC   D2A12580   8.961  22.898   8.470
  788POPC   C3A12581   8.953  22.740   8.039
  788POPC   C4A12582   8.744  22.822   7.654
  788POPC   C1B12583   9.133  23.332   8.714
  788POPC   C2B12584   8.927  23.373   8.305
  788POPC   C3B12585   8.976  23.253   7.894
  788POPC   C4B12586   8.656  23.345   7.641
  789POPC   NC312587  12.538   3.470   9.272
  789POPC   PO412588  12.119   3.960   9.602
  789POPC   GL112589  12.087   3.722   9.178
  789POPC   GL212590  12.025   3.410   9.020
  789POPC   C1A12591  12.061   3.884   8.751
  789POPC   D2A12592  12.172   3.843   8.338
  789POPC   C3A12593  11.981   3.495   8.107
  789POPC   C4A12594  11.862   3.484   7.679
  789POPC   C1B12595  12.313   3.439   8.668
  789POPC   C2B12596  12.484   3.449   8.255
  789POPC   C3B12597  12.396   3.433   7.818
  789POPC   C4B12598  12.310   3.460   7.393
  790POPC   NC312599   2.355  31.596   9.394
  790POPC   PO412600   3.067  31.487   9.380
  790POPC   GL112601   2.770  31.263   9.212
  790POPC   GL212602   2.725  31.569   8.997
  790POPC   C1A12603   2.781  31.081   8.817
  790POPC   D2A12604   2.861  31.283   8.451
  790POPC   C3A12605   2.659  31.136   8.117
  790POPC   C4A12606   2.717  31.245   7.716
  790POPC   C1B12607   3.130  31.614   8.747
  790POPC   C2B12608   3.091  31.716   8.333
  790POPC   C3B12609   2.767  31.636   8.061
  790POPC   C4B12610   2.992  31.688   7.700
  791POPC   NC312611  21.440  20.681   9.625
  791POPC   PO412612  20.993  20.732   9.163
  791POPC   GL112613  21.427  20.772   9.105
  791POPC   GL212614  21.518  21.118   9.212
  791POPC   C1A12615  21.481  20.581   8.688
  791POPC   D2A12616  21.404  20.371   8.285
  791POPC   C3A12617  21.552  20.588   7.906
  791POPC   C4A12618  21.561  20.587   7.444
  791POPC   C1B12619  21.373  21.098   8.719
  791POPC   C2B12620  21.305  20.909   8.287
  791POPC   C3B12621  21.043  20.666   7.998
  791POPC   C4B12622  21.074  20.689   7.577
  792POPC   NC312623  12.284  19.713   9.588
  792POPC   PO412624  11.779  19.946   9.555
  792POPC   GL112625  12.007  19.937   9.168
  792POPC   GL212626  12.348  19.823   9.084
  792POPC   C1A12627  11.937  19.826   8.745
  792POPC   D2A12628  12.089  19.688   8.359
  792POPC   C3A12629  11.861  19.636   7.985
  792POPC   C4A12630  11.871  19.856   7.566
  792POPC   C1B12631  12.456  19.939   8.667
  792POPC   C2B12632  12.362  20.121   8.279
  792POPC   C3B12633  12.269  19.924   7.906
  792POPC   C4B12634  12.309  19.477   7.762
  793POPC   NC312635  38.275  23.705   9.478
  793POPC   PO412636  38.766  24.090   9.412
  793POPC   GL112637  38.567  23.939   9.057
  793POPC   GL212638  38.406  23.601   9.017
  793POPC   C1A12639  38.608  23.911   8.627
  793POPC   D2A12640  38.861  23.697   8.352
  793POPC   C3A12641  38.696  23.608   7.977
  793POPC   C4A12642  38.435  23.940   7.762
  793POPC   C1B12643  38.128  23.901   8.819
  793POPC   C2B12644  38.114  23.879   8.387
  793POPC   C3B12645  38.132  23.607   8.025
  793POPC   C4B12646  38.322  23.418   7.682
  794POPC   NC312647  42.021  25.971   9.462
  794POPC   PO412648  42.557  26.387   9.565
  794POPC   GL112649  42.365  26.404   9.141
  794POPC   GL212650  42.002  26.412   9.107
  794POPC   C1A12651  42.477  26.220   8.733
  794POPC   D2A12652  42.543  26.281   8.301
  794POPC   C3A12653  42.591  25.934   7.994
  794POPC   C4A12654  42.364  25.805   7.624
  794POPC   C1B12655  41.983  26.074   8.799
  794POPC   C2B12656  42.116  25.995   8.361
  794POPC   C3B12657  41.966  25.963   7.934
  794POPC   C4B12658  41.909  26.053   7.507
  795POPC   NC312659  22.778   5.886   9.521
  795POPC   PO412660  23.163   5.524   9.175
  795POPC   GL112661  23.026   5.967   9.057
  795POPC   GL212662  22.685   6.127   9.079
  795POPC   C1A12663  22.995   5.957   8.615
  795POPC   D2A12664  23.363   5.866   8.368
  795POPC   C3A12665  23.224   5.661   8.012
  795POPC   C4A12666  23.231   5.965   7.708
  795POPC   C1B12667  22.783   6.402   8.734
  795POPC   C2B12668  22.688   6.286   8.323
  795POPC   C3B12669  22.898   6.256   7.934
  795POPC   C4B12670  22.818   6.093   7.469
  796POPC   NC312671   1.037  13.505   9.742
  796POPC   PO412672   1.469  13.876   9.473
  796POPC   GL112673   1.107  13.696   9.223
  796POPC   GL212674   1.218  13.961   9.008
  796POPC   C1A12675   0.935  13.591   8.780
  796POPC   D2A12676   1.172  13.630   8.385
  796POPC   C3A12677   1.071  13.681   7.939
  796POPC   C4A12678   1.246  13.398   7.623
  796POPC   C1B12679   0.992  14.132   8.698
  796POPC   C2B12680   1.123  14.145   8.277
  796POPC   C3B12681   1.479  13.932   8.078
  796POPC   C4B12682   1.480  13.884   7.635
  797POPC   NC312683   4.160   0.896   9.499
  797POPC   PO412684   4.652   0.374   9.532
  797POPC   GL112685   4.312   0.367   9.261
  797POPC   GL212686   4.388   0.637   9.105
  797POPC   C1A12687   4.324   0.253   8.790
  797POPC   D2A12688   4.293   0.458   8.378
  797POPC   C3A12689   4.485   0.281   7.993
  797POPC   C4A12690   4.356   0.171   7.553
  797POPC   C1B12691   4.075   0.843   8.847
  797POPC   C2B12692   4.042   0.980   8.436
  797POPC   C3B12693   4.260   0.875   8.088
  797POPC   C4B12694   4.130   0.587   7.768
  798POPC   NC312695  39.869  11.364   9.573
  798POPC   PO412696  40.362  11.069   9.511
  798POPC   GL112697  40.063  11.125   9.157
  798POPC   GL212698  39.977  11.474   9.096
  798POPC   C1A12699  39.848  11.089   8.745
  798POPC   D2A12700  39.636  11.250   8.345
  798POPC   C3A12701  39.833  11.063   7.949
  798POPC   C4A12702  40.223  10.897   7.756
  798POPC   C1B12703  39.752  11.602   8.742
  798POPC   C2B12704  40.026  11.563   8.399
  798POPC   C3B12705  39.893  11.571   8.004
  798POPC   C4B12706  40.072  11.422   7.661
  799POPC   NC312707  18.684  33.725   9.228
  799POPC   PO412708  19.225  33.957   9.630
  799POPC   GL112709  19.169  34.005   9.182
  799POPC   GL212710  19.118  33.699   8.989
  799POPC   C1A12711  19.259  34.088   8.724
  799POPC   D2A12712  19.243  33.850   8.326
  799POPC   C3A12713  19.286  34.093   7.938
  799POPC   C4A12714  19.260  34.153   7.498
  799POPC   C1B12715  19.019  33.397   8.677
  799POPC   C2B12716  18.680  33.317   8.366
  799POPC   C3B12717  18.734  33.485   7.946
  799POPC   C4B12718  19.149  33.623   7.823
  800POPC   NC312719   7.884   9.437   9.489
  800POPC   PO412720   8.601   9.643   9.492
  800POPC   GL112721   8.223   9.729   9.175
  800POPC   GL212722   8.092  10.097   9.085
  800POPC   C1A12723   8.062   9.702   8.753
  800POPC   D2A12724   7.945   9.560   8.343
  800POPC   C3A12725   8.065   9.782   7.995
  800POPC   C4A12726   8.154   9.490   7.676
  800POPC   C1B12727   8.373  10.153   8.793
  800POPC   C2B12728   8.227  10.084   8.403
  800POPC   C3B12729   8.485  10.119   8.068
  800POPC   C4B12730   8.386  10.002   7.649
  801POPC   NC312731  19.110  22.766   9.521
  801POPC   PO412732  19.476  23.251   9.379
  801POPC   GL112733  19.210  22.986   9.074
  801POPC   GL212734  18.841  22.924   9.112
  801POPC   C1A12735  19.094  22.892   8.647
  801POPC   D2A12736  19.030  22.671   8.281
  801POPC   C3A12737  19.040  22.911   7.878
  801POPC   C4A12738  19.282  22.859   7.463
  801POPC   C1B12739  18.596  22.984   8.738
  801POPC   C2B12740  18.491  22.695   8.403
  801POPC   C3B12741  18.650  22.602   7.971
  801POPC   C4B12742  18.822  22.638   7.506
  802POPC   NC312743  30.731  38.931   9.490
  802POPC   PO412744  30.983  38.261   9.587
  802POPC   GL112745  30.746  38.449   9.249
  802POPC   GL212746  30.741  38.144   9.102
  802POPC   C1A12747  30.884  38.578   8.810
  802POPC   D2A12748  30.832  38.431   8.367
  802POPC   C3A12749  30.914  38.637   7.965
  802POPC   C4A12750  30.614  38.757   7.649
  802POPC   C1B12751  30.532  38.200   8.730
  802POPC   C2B12752  30.553  37.972   8.366
  802POPC   C3B12753  30.670  38.023   7.945
  802POPC   C4B12754  30.788  38.269   7.603
  803POPC   NC312755   5.859  15.603   9.565
  803POPC   PO412756   5.504  14.988   9.508
  803POPC   GL112757   5.785  15.185   9.222
  803POPC   GL212758   5.529  15.414   9.124
  803POPC   C1A12759   6.119  15.197   8.866
  803POPC   D2A12760   6.153  15.325   8.458
  803POPC   C3A12761   6.174  15.095   8.092
  803POPC   C4A12762   6.120  15.195   7.685
  803POPC   C1B12763   5.575  15.101   8.773
  803POPC   C2B12764   5.745  14.966   8.373
  803POPC   C3B12765   5.677  15.103   7.952
  803POPC   C4B12766   5.423  15.432   7.828
  804POPC   NC312767  36.432  43.334   9.613
  804POPC   PO412768  35.748  43.233   9.655
  804POPC   GL112769  36.033  43.209   9.295
  804POPC   GL212770  36.226  42.904   9.291
  804POPC   C1A12771  36.087  43.303   8.840
  804POPC   D2A12772  36.144  43.470   8.413
  804POPC   C3A12773  36.136  43.281   8.017
  804POPC   C4A12774  36.403  43.214   7.717
  804POPC   C1B12775  36.228  42.810   8.841
  804POPC   C2B12776  36.290  42.979   8.429
  804POPC   C3B12777  36.386  42.817   8.034
  804POPC   C4B12778  36.060  42.811   7.724
  805POPC   NC312779  35.712  18.241   9.373
  805POPC   PO412780  35.012  18.417   9.479
  805POPC   GL112781  35.184  18.364   9.096
  805POPC   GL212782  35.288  18.047   9.096
  805POPC   C1A12783  35.278  18.303   8.652
  805POPC   D2A12784  35.213  18.463   8.242
  805POPC   C3A12785  35.571  18.573   7.946
  805POPC   C4A12786  35.608  18.348   7.517
  805POPC   C1B12787  35.615  17.929   8.796
  805POPC   C2B12788  35.714  18.134   8.393
  805POPC   C3B12789  35.535  18.071   7.990
  805POPC   C4B12790  35.680  17.858   7.636
  806POPC   NC312791   5.846  21.682   9.324
  806POPC   PO412792   5.930  21.090   9.630
  806POPC   GL112793   5.887  21.189   9.187
  806POPC   GL212794   5.498  21.204   9.178
  806POPC   C1A12795   6.049  21.359   8.749
  806POPC   D2A12796   5.884  21.596   8.368
  806POPC   C3A12797   6.057  21.532   7.922
  806POPC   C4A12798   6.070  21.165   7.623
  806POPC   C1B12799   5.545  21.480   8.793
  806POPC   C2B12800   5.351  21.588   8.409
  806POPC   C3B12801   5.516  21.727   8.038
  806POPC   C4B12802   5.622  21.493   7.667
  807POPC   NC312803  19.914  25.166   9.444
  807POPC   PO412804  20.061  25.841   9.337
  807POPC   GL112805  19.922  25.519   9.060
  807POPC   GL212806  20.137  25.228   9.010
  807POPC   C1A12807  19.730  25.326   8.713
  807POPC   D2A12808  19.513  25.242   8.317
  807POPC   C3A12809  19.729  25.428   7.954
  807POPC   C4A12810  19.579  25.290   7.593
  807POPC   C1B12811  20.206  25.075   8.661
  807POPC   C2B12812  19.996  25.141   8.286
  807POPC   C3B12813  19.785  24.916   7.974
  807POPC   C4B12814  20.028  25.060   7.609
  808POPC   NC312815  18.552  12.964   9.201
  808POPC   PO412816  18.064  12.601   9.468
  808POPC   GL112817  18.191  12.627   9.058
  808POPC   GL212818  18.111  12.974   8.952
  808POPC   C1A12819  18.332  12.677   8.609
  808POPC   D2A12820  18.366  13.003   8.301
  808POPC   C3A12821  18.534  12.822   7.917
  808POPC   C4A12822  18.317  12.415   7.813
  808POPC   C1B12823  17.811  13.160   8.682
  808POPC   C2B12824  17.934  13.353   8.299
  808POPC   C3B12825  17.915  13.292   7.866
  808POPC   C4B12826  18.182  13.135   7.560
  809POPC   NC312827  36.158   9.553   9.482
  809POPC   PO412828  35.943  10.131   9.249
  809POPC   GL112829  35.872   9.700   9.080
  809POPC   GL212830  36.185   9.671   8.912
  809POPC   C1A12831  35.761   9.511   8.674
  809POPC   D2A12832  36.113   9.631   8.365
  809POPC   C3A12833  35.993   9.604   7.932
  809POPC   C4A12834  35.938   9.785   7.517
  809POPC   C1B12835  36.449  10.022   8.743
  809POPC   C2B12836  36.455  10.243   8.339
  809POPC   C3B12837  36.283  10.027   7.972
  809POPC   C4B12838  36.405   9.968   7.542
  810POPC   NC312839  29.568   6.455   9.395
  810POPC   PO412840  30.075   6.878   9.434
  810POPC   GL112841  30.137   6.645   9.098
  810POPC   GL212842  30.221   6.318   9.250
  810POPC   C1A12843  29.917   6.694   8.695
  810POPC   D2A12844  29.697   6.457   8.370
  810POPC   C3A12845  29.849   6.676   8.015
  810POPC   C4A12846  29.798   6.915   7.661
  810POPC   C1B12847  30.096   6.223   8.812
  810POPC   C2B12848  30.221   6.388   8.383
  810POPC   C3B12849  30.198   6.308   7.946
  810POPC   C4B12850  30.166   6.529   7.568
  811POPC   NC312851  10.641  15.712   9.471
  811POPC   PO412852  10.134  16.239   9.365
  811POPC   GL112853  10.341  15.924   9.105
  811POPC   GL212854  10.635  16.093   9.084
  811POPC   C1A12855  10.551  15.737   8.722
  811POPC   D2A12856  10.754  15.712   8.309
  811POPC   C3A12857  10.440  15.739   7.980
  811POPC   C4A12858  10.479  15.805   7.569
  811POPC   C1B12859  10.348  16.254   8.727
  811POPC   C2B12860  10.363  16.103   8.312
  811POPC   C3B12861  10.389  16.230   7.861
  811POPC   C4B12862  10.687  16.254   7.475
  812POPC   NC312863  42.080  26.716   9.533
  812POPC   PO412864  42.683  27.024   9.407
  812POPC   GL112865  42.574  26.990   9.021
  812POPC   GL212866  42.223  26.893   9.073
  812POPC   C1A12867  42.567  26.727   8.686
  812POPC   D2A12868  42.412  26.823   8.346
  812POPC   C3A12869  42.522  26.670   8.006
  812POPC   C4A12870  42.218  26.796   7.751
  812POPC   C1B12871  42.163  27.104   8.714
  812POPC   C2B12872  41.940  27.013   8.383
  812POPC   C3B12873  41.971  27.172   8.022
  812POPC   C4B12874  41.800  27.070   7.664
  813POPC   NC312875  29.232  25.924   9.354
  813POPC   PO412876  28.861  26.355   9.624
  813POPC   GL112877  29.021  26.355   9.183
  813POPC   GL212878  29.353  26.369   9.147
  813POPC   C1A12879  29.024  26.385   8.703
  813POPC   D2A12880  28.815  26.232   8.301
  813POPC   C3A12881  28.860  26.369   7.865
  813POPC   C4A12882  28.843  25.957   7.632
  813POPC   C1B12883  29.421  26.076   8.773
  813POPC   C2B12884  29.371  26.164   8.370
  813POPC   C3B12885  29.245  26.082   7.995
  813POPC   C4B12886  29.380  25.871   7.673
  814POPC   NC312887  38.824   1.394   9.691
  814POPC   PO412888  38.281   1.678   9.629
  814POPC   GL112889  38.332   1.344   9.207
  814POPC   GL212890  38.268   0.991   9.189
  814POPC   C1A12891  38.194   1.224   8.727
  814POPC   D2A12892  38.168   1.048   8.279
  814POPC   C3A12893  38.384   1.223   7.893
  814POPC   C4A12894  38.593   1.564   7.586
  814POPC   C1B12895  38.611   0.980   8.835
  814POPC   C2B12896  38.632   1.221   8.416
  814POPC   C3B12897  38.743   1.517   8.067
  814POPC   C4B12898  39.077   1.622   7.755
  815POPC   NC312899  25.142  42.795   9.548
  815POPC   PO412900  25.223  43.453   9.447
  815POPC   GL112901  25.100  43.294   9.099
  815POPC   GL212902  24.839  43.095   9.290
  815POPC   C1A12903  25.263  43.189   8.686
  815POPC   D2A12904  25.178  43.335   8.268
  815POPC   C3A12905  25.331  43.162   7.884
  815POPC   C4A12906  25.695  43.318   7.677
  815POPC   C1B12907  24.806  42.939   8.869
  815POPC   C2B12908  24.834  42.957   8.419
  815POPC   C3B12909  24.988  42.802   8.017
  815POPC   C4B12910  24.909  42.905   7.582
  816POPC   NC312911  34.747   9.304   9.247
  816POPC   PO412912  34.642   9.996   9.374
  816POPC   GL112913  34.534   9.715   9.025
  816POPC   GL212914  34.267   9.510   9.096
  816POPC   C1A12915  34.645   9.590   8.603
  816POPC   D2A12916  34.836   9.822   8.279
  816POPC   C3A12917  34.754   9.960   7.872
  816POPC   C4A12918  34.831   9.674   7.585
  816POPC   C1B12919  34.230   9.300   8.705
  816POPC   C2B12920  34.368   9.287   8.285
  816POPC   C3B12921  34.508   9.520   7.962
  816POPC   C4B12922  34.344   9.483   7.554
  817POPC   NC312923   5.336  29.291   9.544
  817POPC   PO412924   4.654  29.505   9.484
  817POPC   GL112925   4.944  29.247   9.201
  817POPC   GL212926   4.748  29.019   9.047
  817POPC   C1A12927   5.185  29.352   8.810
  817POPC   D2A12928   5.535  29.448   8.492
  817POPC   C3A12929   5.402  29.339   8.083
  817POPC   C4A12930   5.181  29.058   7.809
  817POPC   C1B12931   4.856  28.930   8.649
  817POPC   C2B12932   4.840  28.986   8.199
  817POPC   C3B12933   4.782  28.741   7.817
  817POPC   C4B12934   4.622  28.919   7.423
  818POPC   NC312935   5.732   0.104   9.507
  818POPC   PO412936   6.158   0.674   9.468
  818POPC   GL112937   5.938   0.417   9.162
  818POPC   GL212938   6.083   0.105   9.122
  818POPC   C1A12939   5.770   0.488   8.768
  818POPC   D2A12940   5.941   0.561   8.364
  818POPC   C3A12941   5.645   0.527   8.050
  818POPC   C4A12942   5.740   0.385   7.670
  818POPC   C1B12943   5.942   0.022   8.677
  818POPC   C2B12944   5.943   0.079   8.206
  818POPC   C3B12945   5.694  44.920   7.876
  818POPC   C4B12946   5.649  44.882   7.398
  819POPC   NC312947  43.338  31.741   9.975
  819POPC   PO412948  43.135  32.337   9.713
  819POPC   GL112949  43.239  32.259   9.292
  819POPC   GL212950  43.011  32.475   9.178
  819POPC   C1A12951  43.374  32.252   8.848
  819POPC   D2A12952  43.352  32.492   8.445
  819POPC   C3A12953  43.381  32.280   8.041
  819POPC   C4A12954  43.094  32.237   7.706
  819POPC   C1B12955  42.973  32.660   8.773
  819POPC   C2B12956  42.732  32.598   8.349
  819POPC   C3B12957  42.784  32.611   7.882
  819POPC   C4B12958  42.797  32.531   7.402
  820POPC   NC312959  31.312   0.509  10.003
  820POPC   PO412960  31.678   0.709   9.523
  820POPC   GL112961  31.397   0.677   9.139
  820POPC   GL212962  31.651   0.937   9.037
  820POPC   C1A12963  31.261   0.426   8.758
  820POPC   D2A12964  31.408   0.501   8.326
  820POPC   C3A12965  31.353   0.254   7.973
  820POPC   C4A12966  31.710   0.081   7.738
  820POPC   C1B12967  31.851   1.013   8.624
  820POPC   C2B12968  31.657   0.967   8.219
  820POPC   C3B12969  31.622   0.695   7.849
  820POPC   C4B12970  31.661   0.763   7.403
  821POPC   NC312971   1.955  21.014   9.318
  821POPC   PO412972   1.967  20.369   9.306
  821POPC   GL112973   2.187  20.524   9.001
  821POPC   GL212974   1.903  20.706   8.917
  821POPC   C1A12975   2.448  20.394   8.658
  821POPC   D2A12976   2.474  20.364   8.194
  821POPC   C3A12977   2.184  20.623   7.924
  821POPC   C4A12978   1.780  20.460   7.819
  821POPC   C1B12979   1.925  20.493   8.543
  821POPC   C2B12980   1.738  20.735   8.246
  821POPC   C3B12981   1.759  20.967   7.870
  821POPC   C4B12982   1.880  20.828   7.463
  822POPC   NC312983  20.182  10.472   9.235
  822POPC   PO412984  20.793  10.483   9.516
  822POPC   GL112985  20.691  10.463   9.108
  822POPC   GL212986  20.911  10.277   8.956
  822POPC   C1A12987  20.552  10.588   8.717
  822POPC   D2A12988  20.664  10.779   8.378
  822POPC   C3A12989  20.361  10.674   8.107
  822POPC   C4A12990  20.352  10.560   7.699
  822POPC   C1B12991  21.065  10.581   8.703
  822POPC   C2B12992  21.069  10.438   8.308
  822POPC   C3B12993  20.818  10.518   7.947
  822POPC   C4B12994  20.905  10.604   7.515
  823POPC   NC312995  10.863  28.838   9.486
  823POPC   PO412996  11.326  29.354   9.334
  823POPC   GL112997  11.256  28.990   9.090
  823POPC   GL212998  10.960  29.149   9.054
  823POPC   C1A12999  11.122  28.933   8.645
  823POPC   D2A13000  11.310  29.136   8.330
  823POPC   C3A13001  11.216  28.901   8.024
  823POPC   C4A13002  11.293  29.040   7.671
  823POPC   C1B13003  11.136  29.445   8.703
  823POPC   C2B13004  11.035  29.658   8.324
  823POPC   C3B13005  11.018  29.406   7.932
  823POPC   C4B13006  10.936  29.329   7.493
  824POPC   NC313007  35.153  10.156   9.484
  824POPC   PO413008  35.123   9.477   9.459
  824POPC   GL113009  35.064   9.782   9.114
  824POPC   GL213010  35.410   9.921   9.099
  824POPC   C1A13011  35.183   9.772   8.669
  824POPC   D2A13012  35.296   9.459   8.388
  824POPC   C3A13013  35.195   9.599   8.005
  824POPC   C4A13014  35.404   9.745   7.680
  824POPC   C1B13015  35.650   9.997   8.700
  824POPC   C2B13016  35.640   9.824   8.270
  824POPC   C3B13017  35.757  10.066   7.942
  824POPC   C4B13018  35.594  10.463   7.891
  825POPC   NC313019  44.913  38.006   9.744
  825POPC   PO413020   0.389  38.433   9.465
  825POPC   GL113021   0.485  38.357   9.064
  825POPC   GL213022   0.747  38.525   9.062
  825POPC   C1A13023   0.282  38.513   8.679
  825POPC   D2A13024   0.085  38.328   8.349
  825POPC   C3A13025   0.225  38.342   7.937
  825POPC   C4A13026   0.185  38.140   7.538
  825POPC   C1B13027   0.729  38.269   8.648
  825POPC   C2B13028   0.683  38.418   8.241
  825POPC   C3B13029   0.704  38.203   7.851
  825POPC   C4B13030   0.575  38.460   7.534
  826POPC   NC313031  34.102  29.695   9.457
  826POPC   PO413032  33.617  30.160   9.460
  826POPC   GL113033  33.877  30.022   9.137
  826POPC   GL213034  33.614  29.781   9.106
  826POPC   C1A13035  33.980  29.863   8.732
  826POPC   D2A13036  33.785  29.821   8.349
  826POPC   C3A13037  33.971  29.883   7.962
  826POPC   C4A13038  33.943  29.824   7.509
  826POPC   C1B13039  33.471  29.997   8.725
  826POPC   C2B13040  33.336  30.046   8.264
  826POPC   C3B13041  33.403  29.830   7.844
  826POPC   C4B13042  33.453  29.940   7.361
  827POPC   NC313043  32.976   8.801   9.620
  827POPC   PO413044  32.786   9.495   9.464
  827POPC   GL113045  32.810   9.090   9.236
  827POPC   GL213046  33.162   8.966   9.178
  827POPC   C1A13047  32.787   8.867   8.854
  827POPC   D2A13048  33.010   8.852   8.504
  827POPC   C3A13049  32.954   9.119   8.164
  827POPC   C4A13050  32.917   8.909   7.767
  827POPC   C1B13051  33.416   8.940   8.782
  827POPC   C2B13052  33.490   9.046   8.348
  827POPC   C3B13053  33.310   8.741   8.103
  827POPC   C4B13054  33.334   8.599   7.723
  828POPC   NC313055  31.679  21.591   9.432
  828POPC   PO413056  31.310  21.056   9.414
  828POPC   GL113057  31.279  21.395   9.147
  828POPC   GL213058  30.965  21.566   9.140
  828POPC   C1A13059  31.472  21.421   8.770
  828POPC   D2A13060  31.453  21.220   8.381
  828POPC   C3A13061  31.594  21.418   8.043
  828POPC   C4A13062  31.641  21.300   7.646
  828POPC   C1B13063  31.062  21.708   8.722
  828POPC   C2B13064  31.371  21.747   8.386
  828POPC   C3B13065  31.352  21.863   7.963
  828POPC   C4B13066  31.373  21.741   7.549
  829POPC   NC313067  21.282  40.579   9.536
  829POPC   PO413068  21.608  41.082   9.666
  829POPC   GL113069  21.672  40.816   9.255
  829POPC   GL213070  21.316  40.714   9.066
  829POPC   C1A13071  21.753  40.630   8.833
  829POPC   D2A13072  21.501  40.413   8.505
  829POPC   C3A13073  21.577  40.558   8.087
  829POPC   C4A13074  21.639  40.845   7.787
  829POPC   C1B13075  21.223  40.858   8.674
  829POPC   C2B13076  21.138  40.861   8.257
  829POPC   C3B13077  21.139  40.874   7.847
  829POPC   C4B13078  21.142  40.612   7.536
  830POPC   NC313079  22.583  14.954   9.230
  830POPC   PO413080  23.050  15.294   9.712
  830POPC   GL113081  23.067  15.129   9.262
  830POPC   GL213082  23.069  14.807   9.061
  830POPC   C1A13083  23.013  15.240   8.798
  830POPC   D2A13084  23.077  15.114   8.354
  830POPC   C3A13085  22.789  15.257   7.979
  830POPC   C4A13086  22.934  15.291   7.486
  830POPC   C1B13087  22.772  14.808   8.645
  830POPC   C2B13088  22.736  14.785   8.179
  830POPC   C3B13089  22.963  14.849   7.749
  830POPC   C4B13090  22.838  14.855   7.281
  831POPC   NC313091  37.276  30.965   9.462
  831POPC   PO413092  37.694  30.516   9.718
  831POPC   GL113093  37.737  30.663   9.271
  831POPC   GL213094  37.448  30.624   9.086
  831POPC   C1A13095  37.841  30.547   8.766
  831POPC   D2A13096  37.921  30.358   8.329
  831POPC   C3A13097  37.908  30.553   7.913
  831POPC   C4A13098  37.878  30.971   7.721
  831POPC   C1B13099  37.367  30.702   8.651
  831POPC   C2B13100  37.585  30.737   8.275
  831POPC   C3B13101  37.406  30.824   7.878
  831POPC   C4B13102  37.128  30.606   7.582
  832POPC   NC313103  10.545  10.904   9.478
  832POPC   PO413104  10.320  10.375   9.838
  832POPC   GL113105  10.323  10.495   9.274
  832POPC   GL213106  10.669  10.609   9.091
  832POPC   C1A13107  10.298  10.428   8.778
  832POPC   D2A13108  10.220  10.450   8.297
  832POPC   C3A13109  10.409  10.243   7.911
  832POPC   C4A13110  10.797  10.318   7.700
  832POPC   C1B13111  10.688  10.766   8.676
  832POPC   C2B13112  11.006  10.696   8.345
  832POPC   C3B13113  11.051  11.045   8.117
  832POPC   C4B13114  10.745  11.079   7.819
  833POPC   NC313115  26.135  37.128   9.457
  833POPC   PO413116  25.426  37.055   9.362
  833POPC   GL113117  25.818  36.983   9.052
  833POPC   GL213118  26.138  37.178   8.956
  833POPC   C1A13119  25.963  36.666   8.720
  833POPC   D2A13120  26.233  36.521   8.338
  833POPC   C3A13121  26.071  36.692   7.928
  833POPC   C4A13122  25.933  37.063   7.658
  833POPC   C1B13123  26.409  36.917   8.710
  833POPC   C2B13124  26.522  37.001   8.289
  833POPC   C3B13125  26.360  37.131   7.933
  833POPC   C4B13126  26.420  36.933   7.552
  834POPC   NC313127  23.907  41.097   9.591
  834POPC   PO413128  23.361  40.803   9.593
  834POPC   GL113129  23.604  40.864   9.200
  834POPC   GL213130  23.942  41.002   9.111
  834POPC   C1A13131  23.590  40.739   8.754
  834POPC   D2A13132  23.445  40.631   8.327
  834POPC   C3A13133  23.760  40.603   7.997
  834POPC   C4A13134  23.647  40.660   7.572
  834POPC   C1B13135  23.827  41.197   8.767
  834POPC   C2B13136  23.804  41.044   8.383
  834POPC   C3B13137  23.636  41.090   8.055
  834POPC   C4B13138  23.859  41.097   7.720
  835POPC   NC313139  42.753  11.237   9.456
  835POPC   PO413140  43.389  11.298   9.543
  835POPC   GL113141  43.271  11.174   9.109
  835POPC   GL213142  43.052  10.959   9.136
  835POPC   C1A13143  43.240  11.274   8.647
  835POPC   D2A13144  42.851  11.417   8.454
  835POPC   C3A13145  42.834  11.631   8.093
  835POPC   C4A13146  43.068  11.593   7.727
  835POPC   C1B13147  42.825  11.006   8.774
  835POPC   C2B13148  42.928  10.920   8.329
  835POPC   C3B13149  43.222  11.105   8.027
  835POPC   C4B13150  43.208  11.077   7.553
  836POPC   NC313151  35.441  42.995   9.915
  836POPC   PO413152  35.334  42.868   9.290
  836POPC   GL113153  35.325  43.053   8.925
  836POPC   GL213154  35.684  43.028   8.975
  836POPC   C1A13155  35.086  43.259   8.623
  836POPC   D2A13156  35.282  43.172   8.261
  836POPC   C3A13157  35.107  43.030   7.909
  836POPC   C4A13158  35.211  43.115   7.473
  836POPC   C1B13159  35.781  42.956   8.590
  836POPC   C2B13160  35.782  42.984   8.170
  836POPC   C3B13161  35.583  42.947   7.781
  836POPC   C4B13162  35.603  42.815   7.329
  837POPC   NC313163  16.177   5.033   9.525
  837POPC   PO413164  15.597   5.197   9.926
  837POPC   GL113165  15.682   5.176   9.390
  837POPC   GL213166  15.805   4.892   9.215
  837POPC   C1A13167  15.662   5.206   8.865
  837POPC   D2A13168  15.541   5.025   8.437
  837POPC   C3A13169  15.735   4.992   8.009
  837POPC   C4A13170  16.143   5.181   7.882
  837POPC   C1B13171  16.117   4.999   8.845
  837POPC   C2B13172  16.078   4.964   8.381
  837POPC   C3B13173  16.177   4.678   8.004
  837POPC   C4B13174  16.415   4.775   7.613
  838POPC   NC313175  21.631   2.646   9.705
  838POPC   PO413176  22.128   3.033   9.519
  838POPC   GL113177  21.883   2.755   9.208
  838POPC   GL213178  22.110   2.537   9.035
  838POPC   C1A13179  21.715   2.672   8.769
  838POPC   D2A13180  21.883   2.752   8.368
  838POPC   C3A13181  21.775   2.493   8.055
  838POPC   C4A13182  21.781   2.726   7.750
  838POPC   C1B13183  22.332   2.645   8.692
  838POPC   C2B13184  22.461   2.612   8.293
  838POPC   C3B13185  22.260   2.625   7.952
  838POPC   C4B13186  22.185   3.028   7.919
  839POPC   NC313187  38.872  43.549   9.645
  839POPC   PO413188  39.371  43.032   9.565
  839POPC   GL113189  39.095  43.241   9.277
  839POPC   GL213190  39.341  43.094   9.027
  839POPC   C1A13191  38.890  43.221   8.869
  839POPC   D2A13192  39.161  43.125   8.479
  839POPC   C3A13193  38.959  42.932   8.091
  839POPC   C4A13194  39.063  43.050   7.687
  839POPC   C1B13195  39.531  42.755   8.752
  839POPC   C2B13196  39.569  42.541   8.380
  839POPC   C3B13197  39.432  42.788   8.059
  839POPC   C4B13198  39.467  42.732   7.691
  840POPC   NC313199  30.998   2.603   9.437
  840POPC   PO413200  30.564   3.104   9.466
  840POPC   GL113201  30.663   2.846   9.135
  840POPC   GL213202  30.485   2.557   9.075
  840POPC   C1A13203  30.925   2.793   8.800
  840POPC   D2A13204  30.816   2.956   8.426
  840POPC   C3A13205  30.968   2.859   8.035
  840POPC   C4A13206  30.899   3.073   7.659
  840POPC   C1B13207  30.438   2.690   8.672
  840POPC   C2B13208  30.517   2.596   8.222
  840POPC   C3B13209  30.555   2.715   7.779
  840POPC   C4B13210  30.548   2.617   7.350
  841POPC   NC313211  33.547  43.329   9.701
  841POPC   PO413212  34.059  42.934   9.708
  841POPC   GL113213  33.938  43.077   9.234
  841POPC   GL213214  33.624  43.323   9.186
  841POPC   C1A13215  33.928  43.170   8.735
  841POPC   D2A13216  33.790  43.025   8.293
  841POPC   C3A13217  34.022  43.208   7.933
  841POPC   C4A13218  33.888  43.325   7.506
  841POPC   C1B13219  33.419  43.318   8.767
  841POPC   C2B13220  33.323  43.229   8.325
  841POPC   C3B13221  33.482  43.262   7.894
  841POPC   C4B13222  33.411  43.573   7.570
  842POPC   NC313223   5.568  17.759   9.554
  842POPC   PO413224   5.961  17.228   9.437
  842POPC   GL113225   5.842  17.269   9.072
  842POPC   GL213226   5.522  17.420   9.151
  842POPC   C1A13227   5.641  17.153   8.720
  842POPC   D2A13228   5.586  17.356   8.372
  842POPC   C3A13229   5.907  17.469   8.153
  842POPC   C4A13230   5.901  17.535   7.738
  842POPC   C1B13231   5.642  17.668   8.795
  842POPC   C2B13232   5.659  17.859   8.397
  842POPC   C3B13233   5.515  17.786   7.982
  842POPC   C4B13234   5.674  17.981   7.634
  843POPC   NC313235  11.083  20.983   9.625
  843POPC   PO413236  11.627  20.742   9.609
  843POPC   GL113237  11.363  20.731   9.245
  843POPC   GL213238  11.476  21.040   9.218
  843POPC   C1A13239  11.211  20.759   8.774
  843POPC   D2A13240  11.084  20.682   8.305
  843POPC   C3A13241  11.236  20.428   7.942
  843POPC   C4A13242  11.019  20.425   7.547
  843POPC   C1B13243  11.710  20.844   8.874
  843POPC   C2B13244  11.599  20.878   8.430
  843POPC   C3B13245  11.566  20.821   7.979
  843POPC   C4B13246  11.616  21.050   7.588
  844POPC   NC313247  38.611  37.815   9.336
  844POPC   PO413248  38.198  37.277   9.471
  844POPC   GL113249  38.258  37.460   9.112
  844POPC   GL213250  38.036  37.708   9.152
  844POPC   C1A13251  38.512  37.407   8.726
  844POPC   D2A13252  38.455  37.289   8.293
  844POPC   C3A13253  38.573  37.578   7.953
  844POPC   C4A13254  38.500  37.447   7.553
  844POPC   C1B13255  38.238  37.845   8.788
  844POPC   C2B13256  38.419  37.820   8.398
  844POPC   C3B13257  38.197  37.917   8.039
  844POPC   C4B13258  38.252  37.907   7.616
  845POPC   NC313259   6.932  27.085   9.805
  845POPC   PO413260   6.428  26.717   9.498
  845POPC   GL113261   6.525  26.911   9.122
  845POPC   GL213262   6.689  26.626   9.067
  845POPC   C1A13263   6.652  26.936   8.666
  845POPC   D2A13264   6.358  27.063   8.350
  845POPC   C3A13265   6.622  27.144   8.017
  845POPC   C4A13266   7.040  26.969   7.915
  845POPC   C1B13267   6.465  26.423   8.727
  845POPC   C2B13268   6.554  26.521   8.315
  845POPC   C3B13269   6.482  26.325   7.931
  845POPC   C4B13270   6.613  26.705   7.747
  846POPC   NC313271   0.776  25.391   9.430
  846POPC   PO413272   0.165  25.303   9.585
  846POPC   GL113273   0.288  25.474   9.187
  846POPC   GL213274   0.540  25.228   9.021
  846POPC   C1A13275   0.392  25.608   8.750
  846POPC   D2A13276   0.503  25.291   8.445
  846POPC   C3A13277   0.359  25.349   8.029
  846POPC   C4A13278   0.218  25.485   7.637
  846POPC   C1B13279   0.694  24.867   8.772
  846POPC   C2B13280   0.557  24.758   8.364
  846POPC   C3B13281   0.595  24.879   7.952
  846POPC   C4B13282   0.618  25.159   7.606
  847POPC   NC313283  32.380  21.000   9.832
  847POPC   PO413284  32.108  20.481   9.442
  847POPC   GL113285  32.078  20.693   9.048
  847POPC   GL213286  32.370  20.468   8.937
  847POPC   C1A13287  32.282  20.965   8.738
  847POPC   D2A13288  32.331  20.693   8.413
  847POPC   C3A13289  32.163  20.643   8.007
  847POPC   C4A13290  31.805  20.409   7.828
  847POPC   C1B13291  32.518  20.225   8.561
  847POPC   C2B13292  32.623  20.395   8.141
  847POPC   C3B13293  32.532  20.411   7.686
  847POPC   C4B13294  32.637  20.308   7.218
  848POPC   NC313295   3.316  25.929   9.306
  848POPC   PO413296   3.857  26.228   9.569
  848POPC   GL113297   3.671  26.260   9.173
  848POPC   GL213298   3.768  25.934   9.084
  848POPC   C1A13299   3.511  26.211   8.740
  848POPC   D2A13300   3.219  26.302   8.422
  848POPC   C3A13301   3.298  26.096   8.040
  848POPC   C4A13302   3.570  26.342   7.780
  848POPC   C1B13303   3.990  25.962   8.751
  848POPC   C2B13304   3.754  25.878   8.432
  848POPC   C3B13305   3.801  25.982   8.068
  848POPC   C4B13306   3.969  25.931   7.726
  849POPC   NC313307   8.134   7.689   9.494
  849POPC   PO413308   8.335   8.316   9.531
  849POPC   GL113309   8.305   8.102   9.105
  849POPC   GL213310   8.191   7.777   8.977
  849POPC   C1A13311   8.298   8.170   8.639
  849POPC   D2A13312   8.318   8.001   8.223
  849POPC   C3A13313   8.175   8.293   7.918
  849POPC   C4A13314   8.394   8.366   7.561
  849POPC   C1B13315   7.841   7.946   8.678
  849POPC   C2B13316   7.833   8.128   8.303
  849POPC   C3B13317   7.853   7.895   7.933
  849POPC   C4B13318   8.147   7.883   7.605
  850POPC   NC313319  10.360  23.490   9.412
  850POPC   PO413320  10.375  24.209   9.395
  850POPC   GL113321  10.562  23.897   9.148
  850POPC   GL213322  10.931  23.859   9.129
  850POPC   C1A13323  10.393  23.831   8.742
  850POPC   D2A13324  10.608  23.886   8.353
  850POPC   C3A13325  10.397  23.817   7.972
  850POPC   C4A13326  10.591  23.820   7.559
  850POPC   C1B13327  10.825  23.578   8.794
  850POPC   C2B13328  10.659  23.384   8.412
  850POPC   C3B13329  10.653  23.381   7.986
  850POPC   C4B13330  10.296  23.378   7.720
  851POPC   NC313331  31.421  35.056   9.682
  851POPC   PO413332  31.893  35.420   9.530
  851POPC   GL113333  31.634  35.191   9.243
  851POPC   GL213334  31.419  35.454   9.263
  851POPC   C1A13335  31.309  35.088   8.920
  851POPC   D2A13336  31.421  35.026   8.503
  851POPC   C3A13337  31.350  35.292   8.151
  851POPC   C4A13338  31.187  35.128   7.800
  851POPC   C1B13339  31.560  35.532   8.836
  851POPC   C2B13340  31.624  35.652   8.402
  851POPC   C3B13341  31.762  35.562   7.997
  851POPC   C4B13342  31.606  35.399   7.611
  852POPC   NC313343  28.393  13.803   9.466
  852POPC   PO413344  28.893  13.317   9.526
  852POPC   GL113345  28.664  13.538   9.147
  852POPC   GL213346  28.274  13.448   9.136
  852POPC   C1A13347  28.587  13.609   8.704
  852POPC   D2A13348  28.389  13.830   8.346
  852POPC   C3A13349  28.382  13.626   7.935
  852POPC   C4A13350  28.569  13.702   7.503
  852POPC   C1B13351  28.100  13.688   8.779
  852POPC   C2B13352  27.951  14.030   8.459
  852POPC   C3B13353  27.950  13.934   7.996
  852POPC   C4B13354  28.027  13.719   7.561
  853POPC   NC313355  23.611  13.469   9.479
  853POPC   PO413356  23.550  14.070   9.262
  853POPC   GL113357  23.761  13.752   9.054
  853POPC   GL213358  23.562  13.428   8.981
  853POPC   C1A13359  23.720  13.725   8.629
  853POPC   D2A13360  23.556  13.456   8.373
  853POPC   C3A13361  23.827  13.600   8.059
  853POPC   C4A13362  23.730  13.833   7.687
  853POPC   C1B13363  23.917  13.258   8.738
  853POPC   C2B13364  23.957  13.136   8.332
  853POPC   C3B13365  23.688  13.114   7.993
  853POPC   C4B13366  23.996  13.176   7.710
  854POPC   NC313367  42.930  36.622   9.640
  854POPC   PO413368  43.173  37.295   9.459
  854POPC   GL113369  42.946  37.127   9.085
  854POPC   GL213370  43.154  36.845   9.120
  854POPC   C1A13371  42.926  36.867   8.642
  854POPC   D2A13372  42.937  36.642   8.236
  854POPC   C3A13373  42.869  36.845   7.836
  854POPC   C4A13374  42.722  37.245   7.612
  854POPC   C1B13375  43.425  36.850   8.788
  854POPC   C2B13376  43.395  36.795   8.363
  854POPC   C3B13377  43.384  36.794   7.936
  854POPC   C4B13378  43.450  36.601   7.543
  855POPC   NC313379   8.460  33.108   9.502
  855POPC   PO413380   7.822  33.094   9.856
  855POPC   GL113381   7.897  33.150   9.316
  855POPC   GL213382   7.787  32.848   9.102
  855POPC   C1A13383   8.095  33.162   8.835
  855POPC   D2A13384   8.067  33.012   8.359
  855POPC   C3A13385   8.438  33.047   8.057
  855POPC   C4A13386   8.400  33.263   7.616
  855POPC   C1B13387   8.163  32.663   8.831
  855POPC   C2B13388   8.328  32.553   8.417
  855POPC   C3B13389   8.204  32.547   7.974
  855POPC   C4B13390   8.020  32.926   7.801
  856POPC   NC313391  41.978  42.037   9.385
  856POPC   PO413392  42.641  42.280   9.550
  856POPC   GL113393  42.447  42.162   9.191
  856POPC   GL213394  42.219  42.441   9.132
  856POPC   C1A13395  42.327  42.079   8.763
  856POPC   D2A13396  42.479  42.346   8.439
  856POPC   C3A13397  42.341  42.374   8.043
  856POPC   C4A13398  42.381  42.036   7.782
  856POPC   C1B13399  42.065  42.504   8.743
  856POPC   C2B13400  41.944  42.278   8.378
  856POPC   C3B13401  41.897  42.127   7.958
  856POPC   C4B13402  42.030  42.352   7.591
  857POPC   NC313403  42.311  27.358   9.303
  857POPC   PO413404  42.425  28.016   9.398
  857POPC   GL113405  42.253  27.814   9.065
  857POPC   GL213406  42.580  27.694   9.008
  857POPC   C1A13407  42.144  27.687   8.653
  857POPC   D2A13408  42.019  27.674   8.209
  857POPC   C3A13409  42.240  27.568   7.837
  857POPC   C4A13410  42.081  27.493   7.390
  857POPC   C1B13411  42.598  27.427   8.690
  857POPC   C2B13412  42.394  27.353   8.324
  857POPC   C3B13413  42.490  27.163   7.983
  857POPC   C4B13414  42.512  27.194   7.584
  858POPC   NC313415  15.539  35.597   9.335
  858POPC   PO413416  16.194  35.220   9.422
  858POPC   GL113417  16.018  35.492   9.172
  858POPC   GL213418  15.768  35.221   9.082
  858POPC   C1A13419  16.005  35.568   8.755
  858POPC   D2A13420  16.064  35.301   8.401
  858POPC   C3A13421  16.000  35.485   8.032
  858POPC   C4A13422  15.782  35.429   7.679
  858POPC   C1B13423  16.010  34.956   8.793
  858POPC   C2B13424  15.909  34.788   8.381
  858POPC   C3B13425  15.815  34.984   7.988
  858POPC   C4B13426  16.046  35.011   7.596
  859POPC   NC313427  10.280  28.039   9.636
  859POPC   PO413428   9.718  28.392   9.574
  859POPC   GL113429   9.797  28.393   9.147
  859POPC   GL213430   9.666  28.069   9.120
  859POPC   C1A13431   9.838  28.461   8.698
  859POPC   D2A13432  10.124  28.475   8.342
  859POPC   C3A13433   9.913  28.357   7.964
  859POPC   C4A13434   9.620  28.666   7.788
  859POPC   C1B13435   9.529  28.048   8.698
  859POPC   C2B13436   9.510  28.277   8.291
  859POPC   C3B13437   9.454  28.142   7.853
  859POPC   C4B13438   9.578  27.805   7.518
  860POPC   NC313439  10.501  38.859   9.497
  860POPC   PO413440  10.801  39.448   9.494
  860POPC   GL113441  10.590  39.303   9.141
  860POPC   GL213442  10.937  39.334   8.989
  860POPC   C1A13443  10.365  39.359   8.726
  860POPC   D2A13444  10.464  39.152   8.321
  860POPC   C3A13445  10.354  39.224   7.893
  860POPC   C4A13446  10.479  39.436   7.548
  860POPC   C1B13447  11.020  39.051   8.657
  860POPC   C2B13448  10.839  38.809   8.331
  860POPC   C3B13449  10.845  39.072   7.968
  860POPC   C4B13450  10.727  38.999   7.536
  861POPC   NC313451  42.757   7.599   9.506
  861POPC   PO413452  42.115   7.338   9.492
  861POPC   GL113453  42.398   7.446   9.182
  861POPC   GL213454  42.647   7.168   9.189
  861POPC   C1A13455  42.316   7.650   8.802
  861POPC   D2A13456  42.110   7.564   8.422
  861POPC   C3A13457  42.279   7.515   8.019
  861POPC   C4A13458  42.042   7.236   7.743
  861POPC   C1B13459  42.751   7.419   8.796
  861POPC   C2B13460  42.633   7.461   8.392
  861POPC   C3B13461  42.786   7.354   7.985
  861POPC   C4B13462  42.653   7.559   7.638
  862POPC   NC313463  43.223   8.713   9.611
  862POPC   PO413464  42.981   8.031   9.496
  862POPC   GL113465  43.092   8.200   9.130
  862POPC   GL213466  43.407   8.112   9.060
  862POPC   C1A13467  43.124   8.394   8.749
  862POPC   D2A13468  42.906   8.448   8.394
  862POPC   C3A13469  43.167   8.457   8.047
  862POPC   C4A13470  43.093   8.270   7.650
  862POPC   C1B13471  43.483   8.056   8.607
  862POPC   C2B13472  43.412   8.015   8.202
  862POPC   C3B13473  43.511   8.011   7.772
  862POPC   C4B13474  43.586   8.373   7.517
  863POPC   NC313475  29.518  16.735   9.525
  863POPC   PO413476  28.901  16.937   9.404
  863POPC   GL113477  29.196  16.928   9.126
  863POPC   GL213478  29.268  16.587   9.136
  863POPC   C1A13479  29.348  16.909   8.729
  863POPC   D2A13480  29.524  16.773   8.365
  863POPC   C3A13481  29.411  16.937   7.975
  863POPC   C4A13482  29.225  16.716   7.646
  863POPC   C1B13483  29.306  16.418   8.794
  863POPC   C2B13484  28.986  16.613   8.521
  863POPC   C3B13485  29.086  16.586   8.127
  863POPC   C4B13486  29.433  16.398   8.001
  864POPC   NC313487   5.493   4.017   9.440
  864POPC   PO413488   4.868   4.325   9.547
  864POPC   GL113489   4.990   4.125   9.187
  864POPC   GL213490   5.211   4.376   9.141
  864POPC   C1A13491   4.951   4.121   8.736
  864POPC   D2A13492   5.182   4.138   8.346
  864POPC   C3A13493   4.991   4.234   7.934
  864POPC   C4A13494   5.084   4.243   7.447
  864POPC   C1B13495   5.307   4.558   8.760
  864POPC   C2B13496   5.415   4.596   8.319
  864POPC   C3B13497   5.406   4.526   7.835
  864POPC   C4B13498   5.528   4.467   7.379
  865POPC   NC313499  29.191  20.793   9.469
  865POPC   PO413500  28.592  20.354   9.486
  865POPC   GL113501  28.981  20.462   9.124
  865POPC   GL213502  29.307  20.702   9.004
  865POPC   C1A13503  29.142  20.374   8.668
  865POPC   D2A13504  29.291  20.656   8.352
  865POPC   C3A13505  29.366  20.529   7.929
  865POPC   C4A13506  28.997  20.605   7.671
  865POPC   C1B13507  28.993  20.888   8.740
  865POPC   C2B13508  28.975  21.082   8.334
  865POPC   C3B13509  29.202  21.023   7.939
  865POPC   C4B13510  29.247  20.996   7.459
  866POPC   NC313511  15.842   2.015   9.414
  866POPC   PO413512  16.228   1.433   9.501
  866POPC   GL113513  16.202   1.747   9.161
  866POPC   GL213514  15.813   1.712   9.017
  866POPC   C1A13515  16.174   1.921   8.750
  866POPC   D2A13516  15.866   1.733   8.465
  866POPC   C3A13517  16.034   1.823   8.075
  866POPC   C4A13518  15.937   1.836   7.672
  866POPC   C1B13519  15.724   2.136   8.759
  866POPC   C2B13520  15.931   2.242   8.358
  866POPC   C3B13521  15.711   2.234   7.959
  866POPC   C4B13522  15.711   2.271   7.511
  867POPC   NC313523  42.848   4.159   9.476
  867POPC   PO413524  43.193   4.703   9.644
  867POPC   GL113525  43.226   4.361   9.217
  867POPC   GL213526  43.024   4.043   9.020
  867POPC   C1A13527  43.067   4.484   8.783
  867POPC   D2A13528  43.053   4.330   8.355
  867POPC   C3A13529  43.056   4.613   7.974
  867POPC   C4A13530  43.263   4.702   7.548
  867POPC   C1B13531  42.685   4.108   8.707
  867POPC   C2B13532  42.503   4.358   8.371
  867POPC   C3B13533  42.682   4.278   8.002
  867POPC   C4B13534  43.083   4.098   7.883
  868POPC   NC313535   4.273  23.492   9.553
  868POPC   PO413536   4.794  23.805   9.528
  868POPC   GL113537   4.619  23.791   9.147
  868POPC   GL213538   4.251  23.787   9.139
  868POPC   C1A13539   4.525  23.929   8.748
  868POPC   D2A13540   4.240  23.761   8.474
  868POPC   C3A13541   4.314  23.912   8.071
  868POPC   C4A13542   4.192  23.800   7.684
  868POPC   C1B13543   4.217  23.403   8.857
  868POPC   C2B13544   4.273  23.222   8.429
  868POPC   C3B13545   4.224  23.374   7.985
  868POPC   C4B13546   4.406  23.361   7.542
  869POPC   NC313547  41.547  21.075   9.526
  869POPC   PO413548  41.633  21.740   9.431
  869POPC   GL113549  41.589  21.430   9.147
  869POPC   GL213550  41.256  21.361   9.189
  869POPC   C1A13551  41.706  21.407   8.734
  869POPC   D2A13552  41.490  21.535   8.382
  869POPC   C3A13553  41.554  21.393   7.966
  869POPC   C4A13554  41.783  21.709   7.718
  869POPC   C1B13555  41.273  21.140   8.816
  869POPC   C2B13556  41.408  21.025   8.399
  869POPC   C3B13557  41.172  20.982   8.020
  869POPC   C4B13558  41.053  21.250   7.692
  870POPC   NC313559   0.676  43.366   9.377
  870POPC   PO413560   0.310  42.840   9.570
  870POPC   GL113561   0.540  42.861   9.209
  870POPC   GL213562   0.273  43.087   9.094
  870POPC   C1A13563   0.722  42.957   8.789
  870POPC   D2A13564   0.571  43.235   8.453
  870POPC   C3A13565   0.673  43.156   8.031
  870POPC   C4A13566   0.567  43.259   7.593
  870POPC   C1B13567   0.248  42.745   8.786
  870POPC   C2B13568   0.065  42.835   8.378
  870POPC   C3B13569   0.153  43.180   8.099
  870POPC   C4B13570   0.054  43.166   7.682
  871POPC   NC313571  25.949   4.679   9.551
  871POPC   PO413572  25.685   5.312   9.582
  871POPC   GL113573  25.848   5.109   9.205
  871POPC   GL213574  25.692   4.828   9.124
  871POPC   C1A13575  26.100   5.097   8.816
  871POPC   D2A13576  26.314   5.338   8.480
  871POPC   C3A13577  26.350   5.044   8.161
  871POPC   C4A13578  25.999   4.881   7.891
  871POPC   C1B13579  25.611   4.999   8.708
  871POPC   C2B13580  25.795   5.117   8.332
  871POPC   C3B13581  25.537   5.087   7.974
  871POPC   C4B13582  25.601   5.186   7.593
  872POPC   NC313583  29.293  14.125   9.481
  872POPC   PO413584  29.011  14.642   9.768
  872POPC   GL113585  29.022  14.651   9.255
  872POPC   GL213586  29.189  14.417   9.100
  872POPC   C1A13587  29.186  14.785   8.768
  872POPC   D2A13588  29.244  14.562   8.332
  872POPC   C3A13589  29.263  14.459   7.863
  872POPC   C4A13590  29.591  14.506   7.571
  872POPC   C1B13591  29.453  14.343   8.758
  872POPC   C2B13592  29.287  14.080   8.507
  872POPC   C3B13593  29.243  14.006   8.093
  872POPC   C4B13594  28.896  13.925   7.828
  873POPC   NC313595   1.243  27.104   9.388
  873POPC   PO413596   0.938  26.460   9.546
  873POPC   GL113597   0.922  26.708   9.183
  873POPC   GL213598   1.255  26.675   9.095
  873POPC   C1A13599   0.901  26.812   8.727
  873POPC   D2A13600   1.054  26.614   8.383
  873POPC   C3A13601   0.997  26.808   8.009
  873POPC   C4A13602   1.067  27.075   7.681
  873POPC   C1B13603   1.349  26.398   8.756
  873POPC   C2B13604   1.528  26.432   8.323
  873POPC   C3B13605   1.393  26.493   7.883
  873POPC   C4B13606   1.571  26.698   7.541
  874POPC   NC313607  15.615  25.183   9.413
  874POPC   PO413608  16.212  24.909   9.440
  874POPC   GL113609  16.050  25.217   9.139
  874POPC   GL213610  16.127  25.580   9.043
  874POPC   C1A13611  15.848  25.154   8.787
  874POPC   D2A13612  16.034  25.130   8.394
  874POPC   C3A13613  15.832  25.211   8.017
  874POPC   C4A13614  16.159  25.101   7.769
  874POPC   C1B13615  15.950  25.626   8.619
  874POPC   C2B13616  16.122  25.601   8.195
  874POPC   C3B13617  16.014  25.618   7.765
  874POPC   C4B13618  16.012  25.836   7.370
  875POPC   NC313619  27.104  33.124   9.376
  875POPC   PO413620  26.450  32.956   9.543
  875POPC   GL113621  26.635  33.019   9.146
  875POPC   GL213622  26.423  32.786   9.036
  875POPC   C1A13623  26.878  32.799   8.792
  875POPC   D2A13624  27.134  32.696   8.412
  875POPC   C3A13625  26.949  32.881   8.035
  875POPC   C4A13626  26.968  32.945   7.609
  875POPC   C1B13627  26.386  32.674   8.667
  875POPC   C2B13628  26.614  32.592   8.320
  875POPC   C3B13629  26.437  32.521   7.932
  875POPC   C4B13630  26.602  32.603   7.492
  876POPC   NC313631  17.996  21.833   9.550
  876POPC   PO413632  18.448  21.314   9.465
  876POPC   GL113633  18.325  21.597   9.172
  876POPC   GL213634  17.971  21.593   9.058
  876POPC   C1A13635  18.376  21.495   8.752
  876POPC   D2A13636  18.097  21.477   8.419
  876POPC   C3A13637  18.086  21.131   8.175
  876POPC   C4A13638  17.916  21.114   7.793
  876POPC   C1B13639  18.049  21.873   8.771
  876POPC   C2B13640  17.879  21.941   8.434
  876POPC   C3B13641  17.950  21.899   8.047
  876POPC   C4B13642  18.099  21.608   7.777
  877POPC   NC313643  22.750   4.966   9.574
  877POPC   PO413644  23.319   5.286   9.721
  877POPC   GL113645  23.166   5.021   9.262
  877POPC   GL213646  22.889   4.801   9.133
  877POPC   C1A13647  22.976   5.111   8.758
  877POPC   D2A13648  22.938   5.442   8.433
  877POPC   C3A13649  22.778   5.293   8.051
  877POPC   C4A13650  23.012   5.287   7.701
  877POPC   C1B13651  22.559   4.843   8.817
  877POPC   C2B13652  22.668   4.900   8.391
  877POPC   C3B13653  22.530   4.688   8.054
  877POPC   C4B13654  22.419   4.786   7.666
  878POPC   NC313655   9.552  27.116   9.543
  878POPC   PO413656  10.048  27.605   9.627
  878POPC   GL113657   9.864  27.601   9.242
  878POPC   GL213658   9.921  27.274   9.215
  878POPC   C1A13659   9.979  27.603   8.809
  878POPC   D2A13660   9.969  27.454   8.376
  878POPC   C3A13661   9.773  27.726   8.072
  878POPC   C4A13662  10.041  27.706   7.736
  878POPC   C1B13663   9.611  27.242   8.881
  878POPC   C2B13664   9.474  27.438   8.504
  878POPC   C3B13665   9.515  27.278   8.086
  878POPC   C4B13666   9.485  27.322   7.633
  879POPC   NC313667   5.104   3.089   9.361
  879POPC   PO413668   4.689   2.620   9.580
  879POPC   GL113669   4.954   2.591   9.222
  879POPC   GL213670   4.910   2.852   8.946
  879POPC   C1A13671   5.099   2.374   8.863
  879POPC   D2A13672   5.036   2.584   8.510
  879POPC   C3A13673   5.151   2.488   8.114
  879POPC   C4A13674   4.860   2.577   7.783
  879POPC   C1B13675   4.937   3.077   8.523
  879POPC   C2B13676   5.269   3.003   8.207
  879POPC   C3B13677   5.336   2.830   7.770
  879POPC   C4B13678   5.450   2.756   7.331
  880POPC   NC313679   5.841  20.558   9.599
  880POPC   PO413680   5.726  19.947   9.244
  880POPC   GL113681   5.886  20.374   9.117
  880POPC   GL213682   5.684  20.699   9.134
  880POPC   C1A13683   6.091  20.663   8.800
  880POPC   D2A13684   6.068  20.832   8.389
  880POPC   C3A13685   5.776  20.617   8.119
  880POPC   C4A13686   5.928  20.488   7.749
  880POPC   C1B13687   5.703  20.977   8.774
  880POPC   C2B13688   5.571  21.121   8.408
  880POPC   C3B13689   5.766  21.136   8.047
  880POPC   C4B13690   5.605  21.002   7.676
  881POPC   NC313691  11.138  27.229   9.366
  881POPC   PO413692  11.460  27.883   9.593
  881POPC   GL113693  11.298  27.674   9.221
  881POPC   GL213694  11.651  27.650   9.135
  881POPC   C1A13695  11.051  27.517   8.806
  881POPC   D2A13696  11.164  27.530   8.376
  881POPC   C3A13697  11.018  27.407   7.983
  881POPC   C4A13698  11.327  27.561   7.719
  881POPC   C1B13699  11.507  27.743   8.727
  881POPC   C2B13700  11.512  27.993   8.348
  881POPC   C3B13701  11.658  27.973   7.918
  881POPC   C4B13702  11.686  27.803   7.458
  882POPC   NC313703  13.692   8.923   9.582
  882POPC   PO413704  13.105   9.140   9.473
  882POPC   GL113705  13.465   9.173   9.157
  882POPC   GL213706  13.844   9.072   9.129
  882POPC   C1A13707  13.522   9.058   8.724
  882POPC   D2A13708  13.615   8.739   8.456
  882POPC   C3A13709  13.553   8.877   8.049
  882POPC   C4A13710  13.418   9.178   7.739
  882POPC   C1B13711  14.019   8.933   8.746
  882POPC   C2B13712  13.929   9.117   8.335
  882POPC   C3B13713  14.022   9.090   7.915
  882POPC   C4B13714  13.814   8.842   7.598
  883POPC   NC313715  18.931  18.841   9.728
  883POPC   PO413716  19.082  19.518   9.566
  883POPC   GL113717  19.183  19.209   9.259
  883POPC   GL213718  18.960  18.938   9.230
  883POPC   C1A13719  19.273  19.148   8.824
  883POPC   D2A13720  19.161  19.301   8.411
  883POPC   C3A13721  19.217  19.047   8.064
  883POPC   C4A13722  19.400  18.964   7.662
  883POPC   C1B13723  18.773  19.047   8.826
  883POPC   C2B13724  18.819  18.895   8.418
  883POPC   C3B13725  18.673  19.032   8.024
  883POPC   C4B13726  18.923  19.110   7.649
  884POPC   NC313727  14.563  35.406   9.509
  884POPC   PO413728  15.240  35.255   9.486
  884POPC   GL113729  15.231  35.312   9.037
  884POPC   GL213730  14.921  35.108   9.001
  884POPC   C1A13731  15.487  35.500   8.699
  884POPC   D2A13732  15.573  35.351   8.311
  884POPC   C3A13733  15.243  35.327   8.074
  884POPC   C4A13734  15.250  35.425   7.681
  884POPC   C1B13735  15.030  35.196   8.571
  884POPC   C2B13736  14.751  35.354   8.222
  884POPC   C3B13737  14.815  35.109   7.846
  884POPC   C4B13738  14.874  35.141   7.406
  885POPC   NC313739  23.114  40.454   9.436
  885POPC   PO413740  23.016  39.792   9.591
  885POPC   GL113741  22.942  40.023   9.181
  885POPC   GL213742  22.739  39.813   9.013
  885POPC   C1A13743  22.873  40.296   8.782
  885POPC   D2A13744  22.769  40.336   8.300
  885POPC   C3A13745  23.141  40.236   8.003
  885POPC   C4A13746  23.357  40.248   7.581
  885POPC   C1B13747  22.538  39.943   8.651
  885POPC   C2B13748  22.705  39.765   8.319
  885POPC   C3B13749  22.774  39.907   7.942
  885POPC   C4B13750  22.922  39.991   7.556
  886POPC   NC313751  17.779  13.046   9.830
  886POPC   PO413752  17.341  13.084   9.274
  886POPC   GL113753  17.461  12.801   8.979
  886POPC   GL213754  17.649  12.520   9.131
  886POPC   C1A13755  17.369  12.848   8.556
  886POPC   D2A13756  17.055  12.658   8.294
  886POPC   C3A13757  17.230  12.582   7.902
  886POPC   C4A13758  17.528  12.887   7.744
  886POPC   C1B13759  17.836  12.621   8.707
  886POPC   C2B13760  17.855  12.808   8.315
  886POPC   C3B13761  18.029  12.815   7.938
  886POPC   C4B13762  17.937  12.657   7.539
  887POPC   NC313763  40.582  30.080   9.440
  887POPC   PO413764  40.318  29.468   9.372
  887POPC   GL113765  40.731  29.653   9.185
  887POPC   GL213766  40.876  29.992   9.017
  887POPC   C1A13767  40.799  29.542   8.772
  887POPC   D2A13768  40.558  29.669   8.446
  887POPC   C3A13769  40.685  29.588   8.021
  887POPC   C4A13770  40.614  29.871   7.706
  887POPC   C1B13771  40.972  29.983   8.554
  887POPC   C2B13772  40.695  30.095   8.196
  887POPC   C3B13773  40.648  30.359   7.840
  887POPC   C4B13774  40.854  30.298   7.466
  888POPC   NC313775  37.626  12.559   9.421
  888POPC   PO413776  37.409  13.239   9.484
  888POPC   GL113777  37.697  13.017   9.184
  888POPC   GL213778  38.031  12.805   9.200
  888POPC   C1A13779  37.694  12.829   8.787
  888POPC   D2A13780  37.594  13.000   8.407
  888POPC   C3A13781  37.681  12.716   8.093
  888POPC   C4A13782  37.676  12.669   7.657
  888POPC   C1B13783  38.105  12.536   8.798
  888POPC   C2B13784  37.980  12.382   8.362
  888POPC   C3B13785  38.073  12.431   7.911
  888POPC   C4B13786  38.007  12.272   7.473
  889POPC   NC313787   5.980  19.530   9.661
  889POPC   PO413788   5.946  18.853   9.565
  889POPC   GL113789   5.929  19.025   9.131
  889POPC   GL213790   6.259  19.120   9.028
  889POPC   C1A13791   5.792  18.976   8.688
  889POPC   D2A13792   5.596  18.731   8.338
  889POPC   C3A13793   5.563  18.944   7.931
  889POPC   C4A13794   5.674  18.957   7.477
  889POPC   C1B13795   6.355  18.991   8.638
  889POPC   C2B13796   6.119  19.078   8.280
  889POPC   C3B13797   6.076  18.996   7.856
  889POPC   C4B13798   6.114  19.239   7.479
  890POPC   NC313799  41.389   1.294   9.619
  890POPC   PO413800  41.879   1.721   9.516
  890POPC   GL113801  41.732   1.484   9.182
  890POPC   GL213802  42.059   1.458   9.025
  890POPC   C1A13803  41.584   1.256   8.805
  890POPC   D2A13804  41.373   1.053   8.454
  890POPC   C3A13805  41.314   1.214   8.063
  890POPC   C4A13806  41.402   1.129   7.629
  890POPC   C1B13807  42.038   1.030   8.895
  890POPC   C2B13808  41.883   0.950   8.478
  890POPC   C3B13809  41.827   1.087   8.045
  890POPC   C4B13810  42.050   0.944   7.697
  891POPC   NC313811  43.356  43.325   9.554
  891POPC   PO413812  43.492  42.691   9.430
  891POPC   GL113813  43.172  42.967   9.192
  891POPC   GL213814  42.996  43.322   9.189
  891POPC   C1A13815  43.298  43.135   8.792
  891POPC   D2A13816  43.122  43.299   8.419
  891POPC   C3A13817  43.227  43.118   8.032
  891POPC   C4A13818  43.031  42.934   7.635
  891POPC   C1B13819  42.765  43.158   8.830
  891POPC   C2B13820  42.618  43.254   8.407
  891POPC   C3B13821  42.750  43.280   7.961
  891POPC   C4B13822  42.786  43.351   7.505
  892POPC   NC313823  33.527   0.038   9.633
  892POPC   PO413824  34.112   0.341   9.505
  892POPC   GL113825  33.862   0.408   9.142
  892POPC   GL213826  33.562   0.204   9.163
  892POPC   C1A13827  33.956   0.286   8.740
  892POPC   D2A13828  33.997   0.036   8.407
  892POPC   C3A13829  33.975   0.263   8.068
  892POPC   C4A13830  33.953   0.105   7.699
  892POPC   C1B13831  33.460   0.388   8.821
  892POPC   C2B13832  33.474   0.321   8.391
  892POPC   C3B13833  33.499   0.423   7.960
  892POPC   C4B13834  33.607   0.410   7.535
  893POPC   NC313835   3.251  43.657   9.607
  893POPC   PO413836   3.499  44.282   9.556
  893POPC   GL113837   3.400  44.178   9.128
  893POPC   GL213838   3.421  43.806   9.127
  893POPC   C1A13839   3.462  44.130   8.677
  893POPC   D2A13840   3.350  43.986   8.263
  893POPC   C3A13841   3.679  43.887   7.941
  893POPC   C4A13842   3.769  43.945   7.499
  893POPC   C1B13843   3.578  43.597   8.743
  893POPC   C2B13844   3.416  43.457   8.349
  893POPC   C3B13845   3.242  43.589   7.967
  893POPC   C4B13846   3.522  43.452   7.695
  894POPC   NC313847   3.666  27.387   9.510
  894POPC   PO413848   2.972  27.452   9.398
  894POPC   GL113849   3.280  27.370   9.169
  894POPC   GL213850   3.426  27.685   9.170
  894POPC   C1A13851   3.458  27.247   8.811
  894POPC   D2A13852   3.319  27.435   8.452
  894POPC   C3A13853   3.552  27.535   8.083
  894POPC   C4A13854   3.589  27.306   7.704
  894POPC   C1B13855   3.661  27.723   8.786
  894POPC   C2B13856   3.803  27.929   8.386
  894POPC   C3B13857   3.655  28.039   7.992
  894POPC   C4B13858   3.518  27.909   7.613
  895POPC   NC313859   2.031  42.448   9.464
  895POPC   PO413860   2.429  42.038   9.121
  895POPC   GL113861   2.155  42.298   8.991
  895POPC   GL213862   1.823  42.216   9.019
  895POPC   C1A13863   2.030  42.467   8.632
  895POPC   D2A13864   1.903  42.205   8.306
  895POPC   C3A13865   2.128  42.250   7.942
  895POPC   C4A13866   2.130  42.521   7.589
  895POPC   C1B13867   1.547  42.359   8.655
  895POPC   C2B13868   1.590  42.597   8.249
  895POPC   C3B13869   1.660  42.484   7.799
  895POPC   C4B13870   1.707  42.631   7.318
  896POPC   NC313871  22.231  14.109   9.360
  896POPC   PO413872  22.199  14.827   9.476
  896POPC   GL113873  22.218  14.645   9.035
  896POPC   GL213874  22.357  14.312   8.924
  896POPC   C1A13875  22.265  14.695   8.562
  896POPC   D2A13876  21.929  14.702   8.240
  896POPC   C3A13877  21.880  14.301   8.027
  896POPC   C4A13878  21.787  14.226   7.603
  896POPC   C1B13879  22.649  14.037   8.677
  896POPC   C2B13880  22.586  14.304   8.317
  896POPC   C3B13881  22.381  14.474   7.975
  896POPC   C4B13882  22.484  14.774   7.647
  897POPC   NC313883  41.613  39.677   9.410
  897POPC   PO413884  41.447  39.041   9.447
  897POPC   GL113885  41.211  39.147   9.096
  897POPC   GL213886  41.114  39.522   9.193
  897POPC   C1A13887  41.402  39.011   8.695
  897POPC   D2A13888  41.799  39.181   8.466
  897POPC   C3A13889  41.781  39.066   8.027
  897POPC   C4A13890  41.397  38.907   7.891
  897POPC   C1B13891  41.297  39.519   8.777
  897POPC   C2B13892  41.354  39.402   8.363
  897POPC   C3B13893  41.685  39.572   8.118
  897POPC   C4B13894  41.573  39.458   7.744
  898POPC   NC313895  41.440   8.964   9.481
  898POPC   PO413896  42.161   9.067   9.449
  898POPC   GL113897  41.805   9.184   9.183
  898POPC   GL213898  41.614   8.899   9.020
  898POPC   C1A13899  41.789   9.308   8.788
  898POPC   D2A13900  41.770   8.933   8.532
  898POPC   C3A13901  41.817   8.966   8.091
  898POPC   C4A13902  41.620   9.119   7.714
  898POPC   C1B13903  41.342   8.688   8.728
  898POPC   C2B13904  41.439   8.509   8.331
  898POPC   C3B13905  41.414   8.670   7.907
  898POPC   C4B13906  41.368   8.760   7.470
  899POPC   NC313907   3.866  20.038   9.441
  899POPC   PO413908   3.344  19.701   9.593
  899POPC   GL113909   3.443  19.821   9.185
  899POPC   GL213910   3.551  19.459   9.188
  899POPC   C1A13911   3.688  19.970   8.778
  899POPC   D2A13912   3.779  20.129   8.301
  899POPC   C3A13913   3.548  20.086   7.862
  899POPC   C4A13914   3.452  20.038   7.375
  899POPC   C1B13915   3.447  19.513   8.782
  899POPC   C2B13916   3.645  19.625   8.395
  899POPC   C3B13917   3.440  19.608   8.009
  899POPC   C4B13918   3.606  19.607   7.620
  900POPC   NC313919  20.179  36.616   9.496
  900POPC   PO413920  19.754  37.183   9.462
  900POPC   GL113921  20.103  37.008   9.158
  900POPC   GL213922  20.021  36.651   8.945
  900POPC   C1A13923  20.314  37.010   8.773
  900POPC   D2A13924  20.135  36.847   8.408
  900POPC   C3A13925  20.279  37.124   8.121
  900POPC   C4A13926  20.070  37.240   7.750
  900POPC   C1B13927  19.661  36.671   8.564
  900POPC   C2B13928  19.346  37.011   8.406
  900POPC   C3B13929  19.475  37.134   7.980
  900POPC   C4B13930  19.805  36.815   7.886
  901POPC   NC313931   2.402  44.836   9.496
  901POPC   PO413932   1.873  44.371   9.657
  901POPC   GL113933   1.933  44.583   9.235
  901POPC   GL213934   2.114  44.833   9.092
  901POPC   C1A13935   1.710  44.714   8.808
  901POPC   D2A13936   1.893  44.819   8.394
  901POPC   C3A13937   1.741  44.617   8.031
  901POPC   C4A13938   1.807  44.878   7.693
  901POPC   C1B13939   2.199  44.544   8.777
  901POPC   C2B13940   2.310  44.545   8.350
  901POPC   C3B13941   2.248  44.733   7.939
  901POPC   C4B13942   2.264  44.775   7.486
  902POPC   NC313943   4.314  11.744   9.309
  902POPC   PO413944   3.999  12.295   9.295
  902POPC   GL113945   4.271  12.214   9.033
  902POPC   GL213946   4.578  12.347   9.235
  902POPC   C1A13947   4.117  12.410   8.655
  902POPC   D2A13948   4.132  12.696   8.337
  902POPC   C3A13949   4.119  12.464   7.989
  902POPC   C4A13950   4.359  12.151   7.865
  902POPC   C1B13951   4.634  12.441   8.789
  902POPC   C2B13952   4.534  12.301   8.377
  902POPC   C3B13953   4.624  11.883   8.208
  902POPC   C4B13954   4.579  11.721   7.791
  903POPC   NC313955  23.628  28.858   9.516
  903POPC   PO413956  24.090  29.410   9.362
  903POPC   GL113957  23.857  29.088   9.123
  903POPC   GL213958  23.502  29.096   9.103
  903POPC   C1A13959  23.757  28.781   8.811
  903POPC   D2A13960  23.766  29.075   8.478
  903POPC   C3A13961  24.000  29.052   8.087
  903POPC   C4A13962  23.914  28.982   7.660
  903POPC   C1B13963  23.258  29.006   8.755
  903POPC   C2B13964  23.356  28.828   8.355
  903POPC   C3B13965  23.496  29.057   8.014
  903POPC   C4B13966  23.368  28.953   7.641
  904POPC   NC313967  44.304  28.055   9.824
  904POPC   PO413968  44.689  27.581   9.496
  904POPC   GL113969  44.871  27.532   9.128
  904POPC   GL213970  44.862  27.882   9.090
  904POPC   C1A13971  44.661  27.409   8.754
  904POPC   D2A13972  44.798  27.425   8.322
  904POPC   C3A13973  44.732  27.518   7.876
  904POPC   C4A13974  44.633  27.220   7.506
  904POPC   C1B13975  44.800  27.867   8.636
  904POPC   C2B13976  44.926  27.954   8.215
  904POPC   C3B13977  44.997  27.959   7.793
  904POPC   C4B13978  44.922  28.088   7.387
  905POPC   NC313979  32.341   5.623   9.501
  905POPC   PO413980  32.343   6.358   9.432
  905POPC   GL113981  32.290   5.987   9.112
  905POPC   GL213982  32.566   5.781   9.058
  905POPC   C1A13983  31.974   5.856   8.774
  905POPC   D2A13984  31.698   5.765   8.423
  905POPC   C3A13985  31.919   5.804   8.016
  905POPC   C4A13986  32.314   5.968   7.805
  905POPC   C1B13987  32.430   5.647   8.637
  905POPC   C2B13988  32.384   5.604   8.185
  905POPC   C3B13989  32.595   5.553   7.768
  905POPC   C4B13990  32.628   5.817   7.381
  906POPC   NC313991  38.803  35.497   9.383
  906POPC   PO413992  39.418  35.326   9.494
  906POPC   GL113993  39.357  35.083   9.156
  906POPC   GL213994  39.004  35.045   9.214
  906POPC   C1A13995  39.521  35.192   8.770
  906POPC   D2A13996  39.408  35.504   8.482
  906POPC   C3A13997  39.571  35.366   8.107
  906POPC   C4A13998  39.639  35.654   7.810
  906POPC   C1B13999  39.023  35.245   8.801
  906POPC   C2B14000  39.111  35.064   8.436
  906POPC   C3B14001  39.070  35.281   8.082
  906POPC   C4B14002  39.000  35.208   7.677
  907POPC   NC314003   6.942  14.114   9.494
  907POPC   PO414004   6.390  14.525   9.541
  907POPC   GL114005   6.364  14.585   9.118
  907POPC   GL214006   6.720  14.493   9.148
  907POPC   C1A14007   6.282  14.324   8.734
  907POPC   D2A14008   6.514  14.134   8.376
  907POPC   C3A14009   6.324  14.126   7.951
  907POPC   C4A14010   6.297  14.391   7.587
  907POPC   C1B14011   6.810  14.290   8.790
  907POPC   C2B14012   7.038  14.240   8.418
  907POPC   C3B14013   6.842  14.281   8.006
  907POPC   C4B14014   6.856  14.310   7.569
  908POPC   NC314015  30.524   6.739   9.483
  908POPC   PO414016  30.701   6.086   9.499
  908POPC   GL114017  30.915   6.360   9.156
  908POPC   GL214018  30.654   6.586   9.020
  908POPC   C1A14019  30.966   6.415   8.676
  908POPC   D2A14020  30.723   6.652   8.350
  908POPC   C3A14021  30.703   6.465   7.932
  908POPC   C4A14022  30.985   6.400   7.544
  908POPC   C1B14023  30.430   6.864   8.734
  908POPC   C2B14024  30.266   6.894   8.319
  908POPC   C3B14025  30.343   6.840   7.916
  908POPC   C4B14026  30.705   6.869   7.638
  909POPC   NC314027   2.141  32.414   9.521
  909POPC   PO414028   1.883  31.772   9.411
  909POPC   GL114029   2.152  32.086   9.131
  909POPC   GL214030   2.074  32.456   9.039
  909POPC   C1A14031   2.314  32.165   8.711
  909POPC   D2A14032   2.049  32.209   8.354
  909POPC   C3A14033   2.149  32.058   7.918
  909POPC   C4A14034   2.275  32.321   7.584
  909POPC   C1B14035   1.995  32.692   8.669
  909POPC   C2B14036   2.173  32.713   8.315
  909POPC   C3B14037   2.009  32.586   7.959
  909POPC   C4B14038   2.010  32.763   7.589
  910POPC   NC314039  34.886  14.685   9.625
  910POPC   PO414040  34.436  15.103   9.377
  910POPC   GL114041  34.447  15.081   8.971
  910POPC   GL214042  34.244  14.802   8.941
  910POPC   C1A14043  34.689  15.167   8.614
  910POPC   D2A14044  34.865  15.276   8.248
  910POPC   C3A14045  34.614  15.221   7.865
  910POPC   C4A14046  34.538  15.303   7.427
  910POPC   C1B14047  34.419  14.712   8.606
  910POPC   C2B14048  34.442  14.928   8.239
  910POPC   C3B14049  34.273  14.846   7.845
  910POPC   C4B14050  34.219  14.907   7.404
  911POPC   NC314051  33.499   4.740   9.950
  911POPC   PO414052  33.910   4.404   9.521
  911POPC   GL114053  33.728   4.267   9.161
  911POPC   GL214054  33.673   4.616   9.028
  911POPC   C1A14055  33.546   4.180   8.756
  911POPC   D2A14056  33.495   4.024   8.338
  911POPC   C3A14057  33.782   4.205   8.012
  911POPC   C4A14058  33.710   4.521   7.753
  911POPC   C1B14059  34.008   4.444   8.775
  911POPC   C2B14060  33.962   4.520   8.364
  911POPC   C3B14061  34.121   4.717   8.028
  911POPC   C4B14062  34.088   4.791   7.611
  912POPC   NC314063  13.533  31.788   9.440
  912POPC   PO414064  13.645  31.112   9.518
  912POPC   GL114065  13.528  31.372   9.167
  912POPC   GL214066  13.835  31.347   9.081
  912POPC   C1A14067  13.361  31.521   8.733
  912POPC   D2A14068  13.109  31.451   8.341
  912POPC   C3A14069  13.317  31.409   7.950
  912POPC   C4A14070  13.333  31.724   7.651
  912POPC   C1B14071  13.873  31.615   8.736
  912POPC   C2B14072  13.961  32.008   8.508
  912POPC   C3B14073  13.911  31.921   8.099
  912POPC   C4B14074  13.804  31.568   7.822
  913POPC   NC314075  13.057  37.034   9.525
  913POPC   PO414076  12.506  36.733   9.538
  913POPC   GL114077  12.808  36.674   9.179
  913POPC   GL214078  12.957  36.988   9.026
  913POPC   C1A14079  12.790  36.628   8.713
  913POPC   D2A14080  12.938  36.986   8.461
  913POPC   C3A14081  12.783  36.935   8.042
  913POPC   C4A14082  12.809  36.534   7.844
  913POPC   C1B14083  12.658  37.245   8.814
  913POPC   C2B14084  12.670  37.456   8.404
  913POPC   C3B14085  13.029  37.385   8.132
  913POPC   C4B14086  13.140  37.184   7.723
  914POPC   NC314087  40.943  32.514   9.447
  914POPC   PO414088  41.551  33.001   9.407
  914POPC   GL114089  41.589  33.183   9.030
  914POPC   GL214090  41.822  33.446   9.013
  914POPC   C1A14091  41.494  33.087   8.629
  914POPC   D2A14092  41.319  33.263   8.271
  914POPC   C3A14093  41.449  32.955   8.001
  914POPC   C4A14094  41.521  32.924   7.562
  914POPC   C1B14095  41.773  33.504   8.574
  914POPC   C2B14096  41.820  33.228   8.210
  914POPC   C3B14097  41.699  33.342   7.796
  914POPC   C4B14098  41.870  33.423   7.394
  915POPC   NC314099  41.876  22.153   9.464
  915POPC   PO414100  41.204  22.280   9.523
  915POPC   GL114101  41.352  22.296   9.137
  915POPC   GL214102  41.113  22.535   9.100
  915POPC   C1A14103  41.510  22.031   8.802
  915POPC   D2A14104  41.737  21.973   8.411
  915POPC   C3A14105  41.561  22.027   8.044
  915POPC   C4A14106  41.722  22.226   7.719
  915POPC   C1B14107  41.283  22.587   8.700
  915POPC   C2B14108  41.503  22.446   8.373
  915POPC   C3B14109  41.396  22.512   7.968
  915POPC   C4B14110  41.242  22.331   7.593
  916POPC   NC314111  31.700  17.486   9.657
  916POPC   PO414112  31.715  16.823   9.535
  916POPC   GL114113  31.517  16.782   9.146
  916POPC   GL214114  31.472  17.140   9.187
  916POPC   C1A14115  31.535  16.598   8.742
  916POPC   D2A14116  31.625  16.290   8.406
  916POPC   C3A14117  31.554  16.510   8.028
  916POPC   C4A14118  31.761  16.690   7.651
  916POPC   C1B14119  31.608  17.134   8.782
  916POPC   C2B14120  31.444  16.962   8.405
  916POPC   C3B14121  31.596  17.022   8.021
  916POPC   C4B14122  31.271  16.865   7.734
  917POPC   NC314123  41.150  30.817   9.455
  917POPC   PO414124  40.711  31.355   9.642
  917POPC   GL114125  40.703  31.222   9.189
  917POPC   GL214126  40.393  31.102   9.149
  917POPC   C1A14127  40.932  31.292   8.765
  917POPC   D2A14128  41.107  31.425   8.343
  917POPC   C3A14129  40.938  31.365   7.906
  917POPC   C4A14130  40.856  31.675   7.550
  917POPC   C1B14131  40.434  31.395   8.787
  917POPC   C2B14132  40.511  31.572   8.360
  917POPC   C3B14133  40.428  31.379   7.948
  917POPC   C4B14134  40.521  31.291   7.528
  918POPC   NC314135  29.879  17.665   9.471
  918POPC   PO414136  29.873  17.009   9.629
  918POPC   GL114137  30.047  17.255   9.238
  918POPC   GL214138  29.742  17.411   9.040
  918POPC   C1A14139  30.207  17.535   8.859
  918POPC   D2A14140  30.071  17.488   8.447
  918POPC   C3A14141  30.187  17.617   8.036
  918POPC   C4A14142  29.855  17.712   7.752
  918POPC   C1B14143  29.633  17.301   8.597
  918POPC   C2B14144  29.730  17.303   8.126
  918POPC   C3B14145  29.732  17.201   7.673
  918POPC   C4B14146  29.576  17.125   7.195
  919POPC   NC314147  20.280  23.979   9.405
  919POPC   PO414148  20.971  24.034   9.435
  919POPC   GL114149  20.712  23.767   9.182
  919POPC   GL214150  20.420  23.493   9.241
  919POPC   C1A14151  20.707  23.905   8.785
  919POPC   D2A14152  20.510  23.901   8.427
  919POPC   C3A14153  20.742  23.708   8.113
  919POPC   C4A14154  20.710  23.854   7.719
  919POPC   C1B14155  20.271  23.641   8.825
  919POPC   C2B14156  20.134  23.563   8.416
  919POPC   C3B14157  20.223  23.724   8.030
  919POPC   C4B14158  20.350  23.492   7.673
  920POPC   NC314159  36.271  38.528   9.383
  920POPC   PO414160  35.691  38.596   9.666
  920POPC   GL114161  35.885  38.277   9.189
  920POPC   GL214162  36.195  38.038   9.201
  920POPC   C1A14163  36.100  38.465   8.699
  920POPC   D2A14164  36.161  38.848   8.385
  920POPC   C3A14165  35.986  38.804   7.940
  920POPC   C4A14166  35.875  38.384   7.753
  920POPC   C1B14167  36.056  37.965   8.760
  920POPC   C2B14168  36.136  38.104   8.291
  920POPC   C3B14169  36.320  38.068   7.825
  920POPC   C4B14170  36.309  38.142   7.340
  921POPC   NC314171   6.695   5.135   9.494
  921POPC   PO414172   6.915   4.682   9.094
  921POPC   GL114173   6.522   4.918   9.061
  921POPC   GL214174   6.576   5.291   9.029
  921POPC   C1A14175   6.355   4.995   8.672
  921POPC   D2A14176   6.300   5.019   8.266
  921POPC   C3A14177   6.632   5.080   8.011
  921POPC   C4A14178   6.557   5.014   7.592
  921POPC   C1B14179   6.846   5.178   8.677
  921POPC   C2B14180   6.947   4.827   8.427
  921POPC   C3B14181   6.821   4.611   8.083
  921POPC   C4B14182   6.921   4.693   7.676
  922POPC   NC314183  17.372  18.871   9.630
  922POPC   PO414184  17.854  19.274   9.432
  922POPC   GL114185  17.476  19.211   9.199
  922POPC   GL214186  17.415  18.838   9.119
  922POPC   C1A14187  17.437  19.243   8.754
  922POPC   D2A14188  17.239  19.286   8.358
  922POPC   C3A14189  17.395  19.184   7.952
  922POPC   C4A14190  17.151  18.853   7.795
  922POPC   C1B14191  17.677  18.767   8.751
  922POPC   C2B14192  17.576  18.876   8.330
  922POPC   C3B14193  17.669  18.745   7.909
  922POPC   C4B14194  17.590  18.853   7.508
  923POPC   NC314195  29.204  32.749   9.429
  923POPC   PO414196  28.896  32.078   9.519
  923POPC   GL114197  28.978  32.368   9.168
  923POPC   GL214198  29.298  32.311   9.136
  923POPC   C1A14199  29.118  32.560   8.729
  923POPC   D2A14200  29.047  32.720   8.316
  923POPC   C3A14201  29.244  32.500   7.972
  923POPC   C4A14202  29.170  32.511   7.523
  923POPC   C1B14203  29.014  32.088   8.768
  923POPC   C2B14204  29.204  32.144   8.402
  923POPC   C3B14205  29.093  32.011   8.007
  923POPC   C4B14206  29.366  32.037   7.670
  924POPC   NC314207  18.479  30.982   9.638
  924POPC   PO414208  18.364  30.351   9.512
  924POPC   GL114209  18.246  30.539   9.132
  924POPC   GL214210  18.288  30.927   9.132
  924POPC   C1A14211  18.185  30.358   8.725
  924POPC   D2A14212  18.135  30.234   8.299
  924POPC   C3A14213  18.076  30.600   8.050
  924POPC   C4A14214  18.259  30.558   7.658
  924POPC   C1B14215  18.121  30.893   8.699
  924POPC   C2B14216  18.255  31.059   8.299
  924POPC   C3B14217  18.375  31.019   7.874
  924POPC   C4B14218  17.970  30.974   7.686
  925POPC   NC314219   8.370  37.982   9.508
  925POPC   PO414220   7.709  37.750   9.457
  925POPC   GL114221   7.982  37.643   9.148
  925POPC   GL214222   7.732  37.478   8.950
  925POPC   C1A14223   8.206  37.598   8.772
  925POPC   D2A14224   8.191  37.907   8.447
  925POPC   C3A14225   8.442  37.825   8.099
  925POPC   C4A14226   8.274  37.929   7.689
  925POPC   C1B14227   7.771  37.478   8.512
  925POPC   C2B14228   8.128  37.417   8.272
  925POPC   C3B14229   8.117  37.424   7.855
  925POPC   C4B14230   7.761  37.391   7.578
  926POPC   NC314231  32.225  27.057   9.674
  926POPC   PO414232  32.502  26.531   9.534
  926POPC   GL114233  32.218  26.729   9.214
  926POPC   GL214234  32.273  27.108   9.167
  926POPC   C1A14235  32.020  26.854   8.796
  926POPC   D2A14236  31.817  26.938   8.402
  926POPC   C3A14237  32.071  26.729   8.090
  926POPC   C4A14238  32.254  26.869   7.713
  926POPC   C1B14239  32.295  27.283   8.763
  926POPC   C2B14240  32.311  27.081   8.398
  926POPC   C3B14241  32.231  27.247   8.043
  926POPC   C4B14242  32.562  27.315   7.770
  927POPC   NC314243  40.758  41.799   9.357
  927POPC   PO414244  40.356  41.275   9.183
  927POPC   GL114245  40.667  41.456   9.018
  927POPC   GL214246  41.022  41.425   9.092
  927POPC   C1A14247  40.777  41.652   8.673
  927POPC   D2A14248  40.955  41.590   8.278
  927POPC   C3A14249  40.734  41.564   7.933
  927POPC   C4A14250  40.450  41.251   7.859
  927POPC   C1B14251  41.248  41.428   8.704
  927POPC   C2B14252  41.394  41.340   8.288
  927POPC   C3B14253  41.260  41.386   7.849
  927POPC   C4B14254  41.019  41.546   7.478
  928POPC   NC314255   2.679  21.020   9.501
  928POPC   PO414256   2.687  20.368   9.511
  928POPC   GL114257   2.660  20.627   9.183
  928POPC   GL214258   3.024  20.740   9.206
  928POPC   C1A14259   2.631  20.876   8.801
  928POPC   D2A14260   2.893  20.852   8.421
  928POPC   C3A14261   2.659  20.833   8.014
  928POPC   C4A14262   2.752  20.726   7.567
  928POPC   C1B14263   2.982  20.485   8.838
  928POPC   C2B14264   2.916  20.305   8.475
  928POPC   C3B14265   2.983  20.434   8.089
  928POPC   C4B14266   2.715  20.272   7.756
  929POPC   NC314267   9.153  29.012   9.402
  929POPC   PO414268   8.767  29.547   9.576
  929POPC   GL114269   8.766  29.341   9.169
  929POPC   GL214270   8.681  29.631   9.003
  929POPC   C1A14271   8.946  29.152   8.763
  929POPC   D2A14272   8.954  29.318   8.337
  929POPC   C3A14273   9.217  29.129   8.037
  929POPC   C4A14274   9.100  29.001   7.622
  929POPC   C1B14275   8.497  29.369   8.687
  929POPC   C2B14276   8.498  29.060   8.363
  929POPC   C3B14277   8.694  29.068   7.969
  929POPC   C4B14278   8.864  29.421   7.805
  930POPC   NC314279  27.336  17.559   9.402
  930POPC   PO414280  27.898  17.353   9.167
  930POPC   GL114281  27.627  17.521   8.937
  930POPC   GL214282  27.272  17.612   8.907
  930POPC   C1A14283  27.640  17.253   8.561
  930POPC   D2A14284  27.609  17.027   8.179
  930POPC   C3A14285  27.719  17.302   7.873
  930POPC   C4A14286  27.660  17.643   7.620
  930POPC   C1B14287  27.492  17.729   8.521
  930POPC   C2B14288  27.679  17.747   8.159
  930POPC   C3B14289  27.444  17.997   7.902
  930POPC   C4B14290  27.129  17.838   7.585
  931POPC   NC314291  19.071  25.363   9.647
  931POPC   PO414292  19.184  26.064   9.526
  931POPC   GL114293  19.022  26.153   9.110
  931POPC   GL214294  18.809  25.899   8.982
  931POPC   C1A14295  19.127  26.245   8.672
  931POPC   D2A14296  19.117  26.487   8.283
  931POPC   C3A14297  19.196  26.265   7.867
  931POPC   C4A14298  19.214  26.066   7.417
  931POPC   C1B14299  18.786  25.809   8.549
  931POPC   C2B14300  18.895  25.674   8.142
  931POPC   C3B14301  18.831  25.903   7.777
  931POPC   C4B14302  18.589  25.766   7.451
  932POPC   NC314303  42.390  25.042   9.504
  932POPC   PO414304  41.996  25.514   9.370
  932POPC   GL114305  42.243  25.264   9.063
  932POPC   GL214306  42.615  25.268   9.106
  932POPC   C1A14307  42.417  25.296   8.621
  932POPC   D2A14308  42.536  25.460   8.224
  932POPC   C3A14309  42.182  25.462   7.947
  932POPC   C4A14310  42.171  25.332   7.494
  932POPC   C1B14311  42.583  24.887   8.860
  932POPC   C2B14312  42.629  24.848   8.433
  932POPC   C3B14313  42.633  24.966   8.020
  932POPC   C4B14314  42.382  24.893   7.664
  933POPC   NC314315  22.306  28.236   9.896
  933POPC   PO414316  21.862  28.261   9.412
  933POPC   GL114317  22.172  28.387   9.159
  933POPC   GL214318  22.376  28.120   9.143
  933POPC   C1A14319  22.159  28.470   8.743
  933POPC   D2A14320  21.951  28.241   8.410
  933POPC   C3A14321  22.004  28.468   8.048
  933POPC   C4A14322  21.777  28.465   7.660
  933POPC   C1B14323  22.434  28.037   8.740
  933POPC   C2B14324  22.470  28.296   8.376
  933POPC   C3B14325  22.358  28.100   8.034
  933POPC   C4B14326  22.118  28.111   7.706
  934POPC   NC314327   8.864   9.262   9.441
  934POPC   PO414328   8.861   8.620   9.234
  934POPC   GL114329   8.832   8.928   8.982
  934POPC   GL214330   9.141   9.088   9.054
  934POPC   C1A14331   8.878   8.881   8.531
  934POPC   D2A14332   8.711   8.812   8.114
  934POPC   C3A14333   9.043   8.672   7.828
  934POPC   C4A14334   9.487   8.798   7.781
  934POPC   C1B14335   8.956   9.343   8.722
  934POPC   C2B14336   8.847   9.344   8.299
  934POPC   C3B14337   9.024   9.187   7.924
  934POPC   C4B14338   8.988   9.169   7.496
  935POPC   NC314339  11.302  42.827   9.221
  935POPC   PO414340  11.665  42.273   9.283
  935POPC   GL114341  11.180  42.348   9.134
  935POPC   GL214342  11.077  42.020   9.112
  935POPC   C1A14343  11.030  42.547   8.703
  935POPC   D2A14344  11.305  42.477   8.314
  935POPC   C3A14345  11.200  42.214   7.945
  935POPC   C4A14346  11.024  42.369   7.547
  935POPC   C1B14347  11.322  42.119   8.711
  935POPC   C2B14348  11.615  42.045   8.360
  935POPC   C3B14349  11.713  42.114   7.917
  935POPC   C4B14350  11.515  42.247   7.510
  936POPC   NC314351  32.837  19.268   9.481
  936POPC   PO414352  33.308  18.806   9.539
  936POPC   GL114353  33.134  18.966   9.185
  936POPC   GL214354  33.478  18.984   9.054
  936POPC   C1A14355  33.103  19.227   8.814
  936POPC   D2A14356  33.236  19.222   8.411
  936POPC   C3A14357  32.978  19.142   8.061
  936POPC   C4A14358  33.093  19.197   7.665
  936POPC   C1B14359  33.268  18.730   8.747
  936POPC   C2B14360  33.042  18.694   8.392
  936POPC   C3B14361  33.170  18.693   7.985
  936POPC   C4B14362  32.997  18.720   7.607
  937POPC   NC314363  17.276  21.911   9.344
  937POPC   PO414364  17.783  22.281   9.602
  937POPC   GL114365  17.615  22.289   9.192
  937POPC   GL214366  17.807  22.075   9.132
  937POPC   C1A14367  17.467  22.030   8.758
  937POPC   D2A14368  17.209  22.106   8.428
  937POPC   C3A14369  17.422  21.919   8.104
  937POPC   C4A14370  17.514  22.055   7.744
  937POPC   C1B14371  17.836  22.363   8.749
  937POPC   C2B14372  17.639  22.360   8.347
  937POPC   C3B14373  17.723  22.473   7.967
  937POPC   C4B14374  17.959  22.244   7.683
  938POPC   NC314375   9.647  11.434   9.586
  938POPC   PO414376  10.081  10.926   9.529
  938POPC   GL114377   9.949  11.289   9.211
  938POPC   GL214378   9.575  11.347   9.108
  938POPC   C1A14379   9.945  11.491   8.793
  938POPC   D2A14380   9.695  11.376   8.431
  938POPC   C3A14381  10.001  11.273   8.112
  938POPC   C4A14382  10.250  11.250   7.717
  938POPC   C1B14383   9.459  11.683   8.797
  938POPC   C2B14384   9.279  11.695   8.357
  938POPC   C3B14385   9.361  11.418   8.009
  938POPC   C4B14386   9.718  11.364   7.696
  939POPC   NC314387   5.629  25.540   9.321
  939POPC   PO414388   6.209  25.862   9.585
  939POPC   GL114389   6.084  25.999   9.174
  939POPC   GL214390   5.984  25.698   8.995
  939POPC   C1A14391   5.986  26.198   8.758
  939POPC   D2A14392   5.963  26.071   8.316
  939POPC   C3A14393   5.815  26.338   7.969
  939POPC   C4A14394   5.465  26.250   7.692
  939POPC   C1B14395   5.611  25.813   8.722
  939POPC   C2B14396   5.427  25.704   8.325
  939POPC   C3B14397   5.633  25.817   7.953
  939POPC   C4B14398   5.562  25.778   7.518
  940POPC   NC314399  11.070  33.586   9.642
  940POPC   PO414400  11.727  33.715   9.657
  940POPC   GL114401  11.474  33.774   9.322
  940POPC   GL214402  11.367  33.489   9.212
  940POPC   C1A14403  11.433  33.860   8.869
  940POPC   D2A14404  11.370  34.149   8.482
  940POPC   C3A14405  11.134  34.139   8.067
  940POPC   C4A14406  11.324  34.061   7.652
  940POPC   C1B14407  11.230  33.330   8.815
  940POPC   C2B14408  11.111  33.385   8.400
  940POPC   C3B14409  11.267  33.340   8.016
  940POPC   C4B14410  11.060  33.678   7.814
  941POPC   NC314411   1.450  25.504   9.467
  941POPC   PO414412   1.006  24.987   9.402
  941POPC   GL114413   1.300  25.158   9.120
  941POPC   GL214414   1.129  25.492   9.071
  941POPC   C1A14415   1.501  25.341   8.767
  941POPC   D2A14416   1.308  25.486   8.388
  941POPC   C3A14417   1.381  25.193   8.055
  941POPC   C4A14418   1.562  25.474   7.798
  941POPC   C1B14419   0.962  25.298   8.739
  941POPC   C2B14420   0.958  25.096   8.357
  941POPC   C3B14421   0.885  25.299   8.013
  941POPC   C4B14422   1.095  25.377   7.633
  942POPC   NC314423  28.977   3.961   9.515
  942POPC   PO414424  28.794   4.631   9.483
  942POPC   GL114425  29.043   4.443   9.164
  942POPC   GL214426  29.052   4.078   9.038
  942POPC   C1A14427  28.946   4.492   8.767
  942POPC   D2A14428  28.929   4.179   8.430
  942POPC   C3A14429  28.996   4.359   8.011
  942POPC   C4A14430  28.762   4.402   7.632
  942POPC   C1B14431  29.371   4.201   8.750
  942POPC   C2B14432  29.524   4.149   8.327
  942POPC   C3B14433  29.388   4.061   7.903
  942POPC   C4B14434  29.219   4.232   7.526
  943POPC   NC314435  38.153   9.323   9.482
  943POPC   PO414436  38.762   9.235   9.667
  943POPC   GL114437  38.705   9.562   9.257
  943POPC   GL214438  38.403   9.504   9.085
  943POPC   C1A14439  38.582   9.897   8.825
  943POPC   D2A14440  38.390   9.823   8.347
  943POPC   C3A14441  38.370   9.949   7.883
  943POPC   C4A14442  38.686   9.896   7.532
  943POPC   C1B14443  38.447   9.442   8.660
  943POPC   C2B14444  38.696   9.407   8.286
  943POPC   C3B14445  38.692   9.519   7.851
  943POPC   C4B14446  38.840   9.283   7.508
  944POPC   NC314447   9.414   6.685   9.559
  944POPC   PO414448   8.723   6.553   9.506
  944POPC   GL114449   8.992   6.481   9.190
  944POPC   GL214450   8.726   6.246   9.115
  944POPC   C1A14451   9.092   6.693   8.798
  944POPC   D2A14452   8.874   6.818   8.399
  944POPC   C3A14453   9.031   6.675   7.994
  944POPC   C4A14454   9.062   6.810   7.542
  944POPC   C1B14455   8.602   6.514   8.805
  944POPC   C2B14456   8.412   6.575   8.420
  944POPC   C3B14457   8.527   6.676   8.022
  944POPC   C4B14458   8.751   6.427   7.675
  945POPC   NC314459  17.270  22.518   9.605
  945POPC   PO414460  17.775  22.874   9.740
  945POPC   GL114461  17.685  22.802   9.285
  945POPC   GL214462  17.384  22.764   9.158
  945POPC   C1A14463  17.700  22.976   8.826
  945POPC   D2A14464  17.677  23.227   8.433
  945POPC   C3A14465  17.695  23.032   7.990
  945POPC   C4A14466  17.497  22.972   7.565
  945POPC   C1B14467  17.372  22.601   8.710
  945POPC   C2B14468  17.367  22.776   8.296
  945POPC   C3B14469  17.255  22.667   7.877
  945POPC   C4B14470  16.931  22.728   7.568
  946POPC   NC314471  36.887  36.441   9.878
  946POPC   PO414472  37.285  36.117   9.429
  946POPC   GL114473  36.914  36.246   9.194
  946POPC   GL214474  37.121  36.122   8.947
  946POPC   C1A14475  36.685  36.292   8.778
  946POPC   D2A14476  36.595  36.137   8.364
  946POPC   C3A14477  36.841  36.127   8.006
  946POPC   C4A14478  36.787  36.185   7.552
  946POPC   C1B14479  37.221  35.729   8.791
  946POPC   C2B14480  37.113  35.858   8.394
  946POPC   C3B14481  37.137  35.709   8.018
  946POPC   C4B14482  37.213  35.929   7.662
  947POPC   NC314483  15.313  28.608   9.454
  947POPC   PO414484  15.144  28.109   9.883
  947POPC   GL114485  15.032  28.147   9.400
  947POPC   GL214486  14.861  28.458   9.238
  947POPC   C1A14487  15.116  28.107   8.931
  947POPC   D2A14488  15.249  28.266   8.515
  947POPC   C3A14489  15.306  28.111   8.090
  947POPC   C4A14490  15.658  28.153   7.782
  947POPC   C1B14491  15.064  28.664   8.848
  947POPC   C2B14492  15.350  28.756   8.501
  947POPC   C3B14493  15.238  28.634   8.110
  947POPC   C4B14494  15.262  28.469   7.716
  948POPC   NC314495  23.507  44.484   9.700
  948POPC   PO414496  24.059  44.812   9.655
  948POPC   GL114497  23.870  44.746   9.228
  948POPC   GL214498  23.807  44.374   9.280
  948POPC   C1A14499  23.651  44.923   8.803
  948POPC   D2A14500  23.471  44.960   8.342
  948POPC   C3A14501  23.703  44.996   7.929
  948POPC   C4A14502  23.616  44.944   7.469
  948POPC   C1B14503  23.591  44.438   8.915
  948POPC   C2B14504  23.619  44.491   8.474
  948POPC   C3B14505  23.615  44.492   8.035
  948POPC   C4B14506  23.900  44.523   7.705
  949POPC   NC314507  30.987  44.954  10.004
  949POPC   PO414508  30.647  44.567   9.570
  949POPC   GL114509  30.707  44.561   9.162
  949POPC   GL214510  30.388  44.718   9.138
  949POPC   C1A14511  30.739  44.740   8.776
  949POPC   D2A14512  30.861  44.933   8.429
  949POPC   C3A14513  30.948  44.603   8.186
  949POPC   C4A14514  30.853  44.669   7.792
  949POPC   C1B14515  30.234  44.831   8.780
  949POPC   C2B14516  30.360  44.638   8.426
  949POPC   C3B14517  30.422  44.747   8.041
  949POPC   C4B14518  30.178  44.886   7.720
  950POPC   NC314519  11.459   9.075   9.440
  950POPC   PO414520  10.963   8.589   9.410
  950POPC   GL114521  11.193   8.848   9.095
  950POPC   GL214522  11.169   9.256   9.072
  950POPC   C1A14523  11.364   8.986   8.706
  950POPC   D2A14524  11.352   8.825   8.304
  950POPC   C3A14525  11.575   8.977   7.985
  950POPC   C4A14526  11.343   9.081   7.648
  950POPC   C1B14527  10.980   9.361   8.665
  950POPC   C2B14528  11.064   9.233   8.235
  950POPC   C3B14529  10.931   9.334   7.812
  950POPC   C4B14530  10.815   9.450   7.377
  951POPC   NC314531  32.033  19.364   9.386
  951POPC   PO414532  32.547  18.886   9.480
  951POPC   GL114533  32.426  19.167   9.151
  951POPC   GL214534  32.669  19.367   9.017
  951POPC   C1A14535  32.254  19.191   8.722
  951POPC   D2A14536  32.123  18.949   8.322
  951POPC   C3A14537  32.101  19.048   7.862
  951POPC   C4A14538  32.137  18.779   7.480
  951POPC   C1B14539  32.715  18.915   8.835
  951POPC   C2B14540  32.648  19.019   8.437
  951POPC   C3B14541  32.582  18.796   8.099
  951POPC   C4B14542  32.568  18.915   7.708
  952POPC   NC314543   4.079  25.812   9.480
  952POPC   PO414544   4.694  26.197   9.460
  952POPC   GL114545   4.458  25.971   9.145
  952POPC   GL214546   4.189  26.203   9.162
  952POPC   C1A14547   4.459  25.743   8.732
  952POPC   D2A14548   4.252  25.707   8.303
  952POPC   C3A14549   4.392  26.014   8.013
  952POPC   C4A14550   4.637  26.005   7.630
  952POPC   C1B14551   3.961  26.475   8.832
  952POPC   C2B14552   3.898  26.381   8.414
  952POPC   C3B14553   3.997  26.489   8.010
  952POPC   C4B14554   4.014  26.396   7.553
  953POPC   NC314555  12.870  20.458   9.443
  953POPC   PO414556  13.050  20.983   9.158
  953POPC   GL114557  12.975  20.650   8.955
  953POPC   GL214558  12.640  20.698   9.015
  953POPC   C1A14559  12.947  20.765   8.531
  953POPC   D2A14560  12.600  20.908   8.274
  953POPC   C3A14561  12.739  20.789   7.878
  953POPC   C4A14562  13.087  20.505   7.803
  953POPC   C1B14563  12.578  20.438   8.645
  953POPC   C2B14564  12.784  20.392   8.230
  953POPC   C3B14565  12.637  20.269   7.835
  953POPC   C4B14566  12.668  20.260   7.417
  954POPC   NC314567   9.489   5.838   9.519
  954POPC   PO414568   8.836   5.598   9.541
  954POPC   GL114569   9.041   5.889   9.265
  954POPC   GL214570   9.209   5.675   9.143
  954POPC   C1A14571   9.060   6.068   8.809
  954POPC   D2A14572   8.900   6.285   8.414
  954POPC   C3A14573   9.039   6.123   7.994
  954POPC   C4A14574   9.368   5.884   7.778
  954POPC   C1B14575   9.074   5.558   8.759
  954POPC   C2B14576   8.843   5.705   8.420
  954POPC   C3B14577   9.082   5.601   8.085
  954POPC   C4B14578   9.018   5.530   7.691
  955POPC   NC314579  16.062  37.159   9.448
  955POPC   PO414580  16.119  37.777   9.440
  955POPC   GL114581  15.927  37.628   9.073
  955POPC   GL214582  15.700  37.345   9.115
  955POPC   C1A14583  16.089  37.471   8.681
  955POPC   D2A14584  16.408  37.549   8.341
  955POPC   C3A14585  16.226  37.439   7.966
  955POPC   C4A14586  15.911  37.698   7.837
  955POPC   C1B14587  15.570  37.484   8.692
  955POPC   C2B14588  15.383  37.502   8.275
  955POPC   C3B14589  15.473  37.491   7.789
  955POPC   C4B14590  15.776  37.482   7.378
  956POPC   NC314591  19.254  10.844   9.247
  956POPC   PO414592  19.121  11.329   9.648
  956POPC   GL114593  19.025  11.318   9.207
  956POPC   GL214594  19.330  11.371   9.123
  956POPC   C1A14595  18.861  11.501   8.828
  956POPC   D2A14596  18.623  11.313   8.486
  956POPC   C3A14597  18.706  11.364   8.057
  956POPC   C4A14598  18.846  11.148   7.693
  956POPC   C1B14599  19.305  11.220   8.713
  956POPC   C2B14600  19.080  11.104   8.349
  956POPC   C3B14601  19.239  10.993   7.967
  956POPC   C4B14602  19.355  11.249   7.625
  957POPC   NC314603  21.765  37.331   9.229
  957POPC   PO414604  21.378  36.937   9.658
  957POPC   GL114605  21.288  36.909   9.199
  957POPC   GL214606  21.598  36.874   9.049
  957POPC   C1A14607  21.241  36.642   8.805
  957POPC   D2A14608  21.431  36.612   8.430
  957POPC   C3A14609  21.211  36.736   8.083
  957POPC   C4A14610  21.335  36.627   7.698
  957POPC   C1B14611  21.461  37.116   8.689
  957POPC   C2B14612  21.534  37.094   8.254
  957POPC   C3B14613  21.621  37.082   7.823
  957POPC   C4B14614  21.870  36.883   7.478
  958POPC   NC314615  38.674  18.671   9.617
  958POPC   PO414616  38.077  19.133   9.536
  958POPC   GL114617  38.408  19.083   9.233
  958POPC   GL214618  38.461  18.765   9.185
  958POPC   C1A14619  38.659  19.097   8.844
  958POPC   D2A14620  38.528  19.114   8.437
  958POPC   C3A14621  38.761  19.091   8.069
  958POPC   C4A14622  38.531  19.040   7.687
  958POPC   C1B14623  38.349  18.698   8.798
  958POPC   C2B14624  38.304  18.641   8.420
  958POPC   C3B14625  38.309  18.770   8.046
  958POPC   C4B14626  38.241  18.576   7.658
  959POPC   NC314627  10.953  44.712   9.624
  959POPC   PO414628  11.560  44.425   9.768
  959POPC   GL114629  11.446  44.773   9.395
  959POPC   GL214630  11.182   0.044   9.323
  959POPC   C1A14631  11.585  44.858   8.939
  959POPC   D2A14632  11.580  44.556   8.577
  959POPC   C3A14633  11.371  44.562   8.186
  959POPC   C4A14634  11.413  44.587   7.748
  959POPC   C1B14635  11.123   0.068   8.882
  959POPC   C2B14636  11.070  44.781   8.555
  959POPC   C3B14637  10.906  44.741   8.136
  959POPC   C4B14638  11.154   0.005   7.890
  960POPC   NC314639  14.108   1.328   9.388
  960POPC   PO414640  14.727   0.979   9.345
  960POPC   GL114641  14.377   1.035   9.069
  960POPC   GL214642  14.510   1.393   9.078
  960POPC   C1A14643  14.214   1.261   8.692
  960POPC   D2A14644  14.445   1.480   8.344
  960POPC   C3A14645  14.250   1.361   7.966
  960POPC   C4A14646  14.174   0.925   7.918
  960POPC   C1B14647  14.749   1.219   8.737
  960POPC   C2B14648  14.963   1.237   8.364
  960POPC   C3B14649  14.757   1.208   7.989
  960POPC   C4B14650  14.934   1.223   7.622
  961POPC   NC314651   7.427  38.150   9.344
  961POPC   PO414652   7.426  38.710   9.468
  961POPC   GL114653   7.360  38.594   9.042
  961POPC   GL214654   7.085  38.435   9.056
  961POPC   C1A14655   7.488  38.376   8.645
  961POPC   D2A14656   7.502  38.414   8.164
  961POPC   C3A14657   7.777  38.226   7.903
  961POPC   C4A14658   7.964  38.348   7.509
  961POPC   C1B14659   7.020  38.191   8.711
  961POPC   C2B14660   7.093  38.175   8.297
  961POPC   C3B14661   7.076  38.432   7.900
  961POPC   C4B14662   7.399  38.338   7.550
  962POPC   NC314663  29.212  22.488   9.549
  962POPC   PO414664  28.836  21.926   9.456
  962POPC   GL114665  29.130  22.156   9.153
  962POPC   GL214666  29.010  22.497   9.092
  962POPC   C1A14667  29.276  22.282   8.717
  962POPC   D2A14668  29.106  22.071   8.333
  962POPC   C3A14669  29.333  21.889   7.978
  962POPC   C4A14670  29.441  21.902   7.509
  962POPC   C1B14671  28.898  22.664   8.720
  962POPC   C2B14672  29.031  22.562   8.298
  962POPC   C3B14673  29.137  22.380   7.889
  962POPC   C4B14674  29.194  22.510   7.437
  963POPC   NC314675  19.536  13.402   9.422
  963POPC   PO414676  20.153  13.768   9.495
  963POPC   GL114677  20.131  13.767   9.101
  963POPC   GL214678  19.762  13.768   9.123
  963POPC   C1A14679  20.046  13.817   8.694
  963POPC   D2A14680  20.166  13.639   8.345
  963POPC   C3A14681  20.038  13.879   8.023
  963POPC   C4A14682  19.920  13.713   7.674
  963POPC   C1B14683  19.658  13.454   8.768
  963POPC   C2B14684  19.484  13.318   8.402
  963POPC   C3B14685  19.624  13.477   8.040
  963POPC   C4B14686  19.541  13.346   7.666
  964POPC   NC314687  15.693  43.391   9.576
  964POPC   PO414688  16.108  42.891   9.385
  964POPC   GL114689  15.861  42.915   9.005
  964POPC   GL214690  15.727  43.244   8.986
  964POPC   C1A14691  15.970  42.764   8.570
  964POPC   D2A14692  16.237  42.923   8.204
  964POPC   C3A14693  16.004  42.942   7.811
  964POPC   C4A14694  15.634  42.908   7.551
  964POPC   C1B14695  16.198  43.277   8.836
  964POPC   C2B14696  16.402  43.381   8.431
  964POPC   C3B14697  16.226  43.408   7.989
  964POPC   C4B14698  16.419  43.182   7.667
  965POPC   NC314699   5.992   1.726   9.671
  965POPC   PO414700   5.349   1.869   9.573
  965POPC   GL114701   5.657   1.762   9.183
  965POPC   GL214702   6.052   1.696   9.179
  965POPC   C1A14703   5.830   1.969   8.786
  965POPC   D2A14704   5.949   2.334   8.511
  965POPC   C3A14705   5.878   2.216   8.083
  965POPC   C4A14706   5.981   2.071   7.674
  965POPC   C1B14707   6.279   1.708   8.800
  965POPC   C2B14708   6.254   1.944   8.409
  965POPC   C3B14709   6.384   2.010   7.988
  965POPC   C4B14710   6.306   1.632   7.764
  966POPC   NC314711  20.937  20.235   9.318
  966POPC   PO414712  20.936  20.800   9.694
  966POPC   GL114713  20.552  20.566   9.330
  966POPC   GL214714  20.296  20.776   9.149
  966POPC   C1A14715  20.443  20.351   8.867
  966POPC   D2A14716  20.335  20.486   8.380
  966POPC   C3A14717  20.540  20.385   7.947
  966POPC   C4A14718  20.767  20.308   7.570
  966POPC   C1B14719  20.472  20.848   8.750
  966POPC   C2B14720  20.737  20.808   8.397
  966POPC   C3B14721  20.527  20.878   8.035
  966POPC   C4B14722  20.580  20.819   7.625
  967POPC   NC314723  36.411   1.703   9.483
  967POPC   PO414724  36.073   1.181   9.434
  967POPC   GL114725  36.130   1.241   9.044
  967POPC   GL214726  36.377   1.472   9.040
  967POPC   C1A14727  36.174   1.177   8.627
  967POPC   D2A14728  35.968   1.316   8.280
  967POPC   C3A14729  36.149   1.202   7.886
  967POPC   C4A14730  36.335   0.996   7.520
  967POPC   C1B14731  36.564   1.520   8.662
  967POPC   C2B14732  36.473   1.416   8.261
  967POPC   C3B14733  36.601   1.476   7.870
  967POPC   C4B14734  36.593   1.397   7.400
  968POPC   NC314735  30.106  44.585   9.550
  968POPC   PO414736  29.521   0.068   9.472
  968POPC   GL114737  29.855  44.892   9.183
  968POPC   GL214738  29.912  44.508   9.090
  968POPC   C1A14739  29.739  44.926   8.753
  968POPC   D2A14740  29.942  44.910   8.335
  968POPC   C3A14741  29.713  44.845   7.939
  968POPC   C4A14742  29.694  44.806   7.480
  968POPC   C1B14743  29.870  44.439   8.645
  968POPC   C2B14744  29.860  44.407   8.211
  968POPC   C3B14745  30.087  44.399   7.856
  968POPC   C4B14746  30.041  44.455   7.419
  969POPC   NC314747  23.510   4.854   9.671
  969POPC   PO414748  24.083   5.186   9.375
  969POPC   GL114749  23.883   5.027   9.062
  969POPC   GL214750  23.598   5.207   9.072
  969POPC   C1A14751  23.891   5.126   8.621
  969POPC   D2A14752  24.136   5.006   8.250
  969POPC   C3A14753  23.945   4.989   7.847
  969POPC   C4A14754  23.503   5.133   7.847
  969POPC   C1B14755  23.434   4.933   8.760
  969POPC   C2B14756  23.260   5.018   8.332
  969POPC   C3B14757  23.038   4.846   7.985
  969POPC   C4B14758  23.266   4.742   7.644
  970POPC   NC314759  34.810  11.606   9.488
  970POPC   PO414760  34.255  11.183   9.424
  970POPC   GL114761  34.658  11.213   9.182
  970POPC   GL214762  34.810  10.933   9.024
  970POPC   C1A14763  34.758  11.397   8.780
  970POPC   D2A14764  34.426  11.658   8.545
  970POPC   C3A14765  34.418  11.685   8.071
  970POPC   C4A14766  34.325  11.548   7.618
  970POPC   C1B14767  34.428  11.034   8.729
  970POPC   C2B14768  34.533  11.223   8.330
  970POPC   C3B14769  34.496  11.175   7.907
  970POPC   C4B14770  34.232  10.853   7.723
  971POPC   NC314771  35.375  10.978   9.520
  971POPC   PO414772  35.506  10.364   9.718
  971POPC   GL114773  35.498  10.411   9.206
  971POPC   GL214774  35.637  10.734   9.143
  971POPC   C1A14775  35.245  10.313   8.798
  971POPC   D2A14776  35.420  10.279   8.362
  971POPC   C3A14777  35.229  10.112   8.016
  971POPC   C4A14778  35.014  10.421   7.803
  971POPC   C1B14779  35.684  10.565   8.738
  971POPC   C2B14780  35.603  10.753   8.333
  971POPC   C3B14781  35.444  10.946   7.961
  971POPC   C4B14782  35.468  11.161   7.572
  972POPC   NC314783  38.589  37.052   9.558
  972POPC   PO414784  38.211  36.522   9.542
  972POPC   GL114785  38.368  36.721   9.130
  972POPC   GL214786  38.532  37.036   9.077
  972POPC   C1A14787  38.220  36.935   8.722
  972POPC   D2A14788  38.318  36.775   8.321
  972POPC   C3A14789  38.286  36.943   7.908
  972POPC   C4A14790  38.536  36.600   7.740
  972POPC   C1B14791  38.730  36.910   8.701
  972POPC   C2B14792  38.904  37.024   8.333
  972POPC   C3B14793  38.790  37.034   7.911
  972POPC   C4B14794  38.760  37.032   7.464
  973POPC   NC314795  31.919  27.961   9.373
  973POPC   PO414796  32.323  28.357   9.798
  973POPC   GL114797  32.382  28.548   9.349
  973POPC   GL214798  32.023  28.513   9.272
  973POPC   C1A14799  32.421  28.387   8.872
  973POPC   D2A14800  32.475  28.175   8.440
  973POPC   C3A14801  32.347  28.301   8.018
  973POPC   C4A14802  32.396  28.130   7.600
  973POPC   C1B14803  31.956  28.599   8.843
  973POPC   C2B14804  32.034  28.456   8.440
  973POPC   C3B14805  31.938  28.620   8.044
  973POPC   C4B14806  32.074  28.536   7.622
  974POPC   NC314807   0.185   7.131   9.577
  974POPC   PO414808   0.601   6.534   9.549
  974POPC   GL114809   0.566   6.727   9.159
  974POPC   GL214810   0.255   6.810   9.200
  974POPC   C1A14811   0.568   6.906   8.742
  974POPC   D2A14812   0.484   6.630   8.419
  974POPC   C3A14813   0.545   6.761   8.006
  974POPC   C4A14814   0.540   6.610   7.583
  974POPC   C1B14815   0.200   6.546   8.870
  974POPC   C2B14816  44.982   6.563   8.498
  974POPC   C3B14817  44.911   6.734   8.126
  974POPC   C4B14818   0.094   6.867   7.763
  975POPC   NC314819   9.495   1.191   9.232
  975POPC   PO414820  10.124   0.942   9.567
  975POPC   GL114821   9.965   1.006   9.199
  975POPC   GL214822  10.030   1.354   9.246
  975POPC   C1A14823   9.914   1.057   8.734
  975POPC   D2A14824   9.588   0.983   8.425
  975POPC   C3A14825   9.603   1.295   8.097
  975POPC   C4A14826   9.485   1.133   7.690
  975POPC   C1B14827  10.092   1.546   8.859
  975POPC   C2B14828  10.174   1.420   8.458
  975POPC   C3B14829  10.080   1.084   8.205
  975POPC   C4B14830   9.985   1.160   7.770
  976POPC   NC314831   6.698   2.352   9.341
  976POPC   PO414832   6.429   2.939   9.475
  976POPC   GL114833   6.610   2.882   9.091
  976POPC   GL214834   6.904   2.710   9.071
  976POPC   C1A14835   6.415   2.667   8.747
  976POPC   D2A14836   6.183   2.768   8.361
  976POPC   C3A14837   6.285   2.554   7.997
  976POPC   C4A14838   6.636   2.703   7.756
  976POPC   C1B14839   6.916   2.489   8.701
  976POPC   C2B14840   6.788   2.792   8.399
  976POPC   C3B14841   6.940   2.968   8.046
  976POPC   C4B14842   7.148   2.781   7.716
  977POPC   NC314843  28.635   6.666   9.684
  977POPC   PO414844  28.597   7.381   9.497
  977POPC   GL114845  28.490   7.449   9.122
  977POPC   GL214846  28.274   7.695   9.215
  977POPC   C1A14847  28.384   7.223   8.758
  977POPC   D2A14848  28.537   7.074   8.365
  977POPC   C3A14849  28.610   7.263   7.962
  977POPC   C4A14850  28.526   7.610   7.721
  977POPC   C1B14851  28.383   7.787   8.777
  977POPC   C2B14852  28.416   7.573   8.375
  977POPC   C3B14853  28.127   7.366   8.115
  977POPC   C4B14854  28.137   7.206   7.716
  978POPC   NC314855  16.544  22.171   9.483
  978POPC   PO414856  17.117  22.334   9.216
  978POPC   GL114857  16.836  22.034   9.091
  978POPC   GL214858  16.574  22.238   8.951
  978POPC   C1A14859  16.872  21.845   8.736
  978POPC   D2A14860  16.708  22.044   8.395
  978POPC   C3A14861  16.899  21.974   7.995
  978POPC   C4A14862  17.047  22.247   7.652
  978POPC   C1B14863  16.852  22.463   8.639
  978POPC   C2B14864  16.897  22.487   8.191
  978POPC   C3B14865  16.595  22.413   7.860
  978POPC   C4B14866  16.525  22.427   7.410
  979POPC   NC314867  28.164  38.527   9.437
  979POPC   PO414868  28.643  38.058   9.503
  979POPC   GL114869  28.433  38.185   9.128
  979POPC   GL214870  28.448  38.539   9.015
  979POPC   C1A14871  28.395  38.145   8.684
  979POPC   D2A14872  28.315  38.216   8.257
  979POPC   C3A14873  28.696  38.437   8.106
  979POPC   C4A14874  28.736  38.515   7.672
  979POPC   C1B14875  28.101  38.731   8.812
  979POPC   C2B14876  27.982  38.729   8.402
  979POPC   C3B14877  27.816  38.794   7.998
  979POPC   C4B14878  28.074  38.661   7.647
  980POPC   NC314879  11.328  24.816   9.303
  980POPC   PO414880  11.255  25.530   9.449
  980POPC   GL114881  11.268  25.479   9.025
  980POPC   GL214882  11.321  25.150   8.911
  980POPC   C1A14883  11.254  25.562   8.578
  980POPC   D2A14884  11.465  25.328   8.238
  980POPC   C3A14885  11.434  25.511   7.830
  980POPC   C4A14886  11.271  25.363   7.476
  980POPC   C1B14887  11.132  25.000   8.506
  980POPC   C2B14888  11.109  24.790   8.109
  980POPC   C3B14889  11.284  24.940   7.750
  980POPC   C4B14890  11.169  24.914   7.300
  981POPC   NC314891  43.895  18.481   9.495
  981POPC   PO414892  43.614  19.109   9.480
  981POPC   GL114893  43.774  19.064   9.108
  981POPC   GL214894  43.751  18.721   9.025
  981POPC   C1A14895  43.847  19.260   8.741
  981POPC   D2A14896  44.075  19.345   8.395
  981POPC   C3A14897  43.864  19.326   8.042
  981POPC   C4A14898  43.879  19.419   7.654
  981POPC   C1B14899  44.004  18.787   8.632
  981POPC   C2B14900  43.937  18.833   8.187
  981POPC   C3B14901  43.967  18.874   7.730
  981POPC   C4B14902  44.160  18.780   7.310
  982POPC   NC314903  16.951  16.257   9.531
  982POPC   PO414904  16.615  15.756   9.804
  982POPC   GL114905  16.681  15.823   9.324
  982POPC   GL214906  16.459  15.619   9.127
  982POPC   C1A14907  16.836  15.837   8.845
  982POPC   D2A14908  16.759  16.086   8.440
  982POPC   C3A14909  16.951  15.929   8.031
  982POPC   C4A14910  16.869  15.924   7.544
  982POPC   C1B14911  16.467  15.482   8.690
  982POPC   C2B14912  16.744  15.469   8.308
  982POPC   C3B14913  16.705  15.532   7.850
  982POPC   C4B14914  16.402  15.664   7.496
  983POPC   NC314915   6.751  23.907   9.471
  983POPC   PO414916   7.143  23.363   9.370
  983POPC   GL114917   6.863  23.608   9.075
  983POPC   GL214918   6.967  23.966   9.021
  983POPC   C1A14919   6.526  23.827   8.834
  983POPC   D2A14920   6.569  24.095   8.482
  983POPC   C3A14921   6.375  23.941   8.109
  983POPC   C4A14922   6.462  23.879   7.694
  983POPC   C1B14923   6.995  23.810   8.615
  983POPC   C2B14924   6.943  23.565   8.275
  983POPC   C3B14925   6.642  23.483   7.994
  983POPC   C4B14926   6.705  23.446   7.579
  984POPC   NC314927   3.533  26.549   9.587
  984POPC   PO414928   3.331  27.099   9.672
  984POPC   GL114929   3.549  26.939   9.261
  984POPC   GL214930   3.872  26.738   9.258
  984POPC   C1A14931   3.480  26.719   8.856
  984POPC   D2A14932   3.314  26.882   8.459
  984POPC   C3A14933   3.297  26.683   8.075
  984POPC   C4A14934   3.393  26.820   7.662
  984POPC   C1B14935   3.907  27.005   8.887
  984POPC   C2B14936   3.831  26.894   8.475
  984POPC   C3B14937   3.722  26.968   8.065
  984POPC   C4B14938   3.893  26.865   7.677
  985POPC   NC314939  36.080  42.052   9.571
  985POPC   PO414940  36.075  41.457   9.396
  985POPC   GL114941  36.181  41.807   9.137
  985POPC   GL214942  36.474  42.017   9.187
  985POPC   C1A14943  36.012  41.896   8.727
  985POPC   D2A14944  36.039  41.536   8.422
  985POPC   C3A14945  35.829  41.576   8.022
  985POPC   C4A14946  36.035  41.570   7.594
  985POPC   C1B14947  36.527  41.848   8.774
  985POPC   C2B14948  36.404  41.900   8.366
  985POPC   C3B14949  36.363  41.675   8.001
  985POPC   C4B14950  36.616  41.905   7.773
  986POPC   NC314951  22.562  39.846   9.487
  986POPC   PO414952  21.905  40.142   9.503
  986POPC   GL114953  22.017  39.936   9.118
  986POPC   GL214954  22.328  40.119   9.098
  986POPC   C1A14955  22.101  39.697   8.701
  986POPC   D2A14956  21.961  39.770   8.260
  986POPC   C3A14957  22.136  39.907   7.853
  986POPC   C4A14958  22.009  39.808   7.399
  986POPC   C1B14959  22.113  40.239   8.709
  986POPC   C2B14960  22.236  40.247   8.269
  986POPC   C3B14961  22.043  40.438   7.902
  986POPC   C4B14962  22.075  40.303   7.462
  987POPC   NC314963   2.628  15.401   9.470
  987POPC   PO414964   3.113  14.932   9.488
  987POPC   GL114965   2.990  15.217   9.135
  987POPC   GL214966   2.624  15.240   8.994
  987POPC   C1A14967   2.983  15.055   8.704
  987POPC   D2A14968   2.755  15.000   8.322
  987POPC   C3A14969   2.811  15.162   7.899
  987POPC   C4A14970   2.853  14.962   7.472
  987POPC   C1B14971   2.713  15.518   8.639
  987POPC   C2B14972   2.700  15.603   8.183
  987POPC   C3B14973   2.396  15.483   7.851
  987POPC   C4B14974   2.550  15.406   7.399
  988POPC   NC314975   5.424  24.887   9.496
  988POPC   PO414976   4.823  24.502   9.509
  988POPC   GL114977   4.871  24.434   9.129
  988POPC   GL214978   5.232  24.506   9.111
  988POPC   C1A14979   4.867  24.325   8.730
  988POPC   D2A14980   5.027  24.345   8.336
  988POPC   C3A14981   4.819  24.301   7.953
  988POPC   C4A14982   5.041  24.521   7.685
  988POPC   C1B14983   5.372  24.265   8.761
  988POPC   C2B14984   5.534  24.303   8.334
  988POPC   C3B14985   5.398  24.220   7.938
  988POPC   C4B14986   5.632  24.087   7.596
  989POPC   NC314987  35.700  19.950   9.196
  989POPC   PO414988  36.339  19.733   9.447
  989POPC   GL114989  36.197  19.825   9.089
  989POPC   GL214990  36.118  19.495   8.979
  989POPC   C1A14991  36.143  19.910   8.680
  989POPC   D2A14992  36.190  19.825   8.280
  989POPC   C3A14993  35.955  20.153   8.074
  989POPC   C4A14994  35.882  20.158   7.648
  989POPC   C1B14995  35.773  19.531   8.677
  989POPC   C2B14996  35.679  19.696   8.289
  989POPC   C3B14997  35.840  19.673   7.889
  989POPC   C4B14998  35.630  19.738   7.518
  990POPC   NC314999  14.725   6.227   9.488
  990POPC   PO415000  14.700   6.857   9.505
  990POPC   GL115001  14.641   6.645   9.154
  990POPC   GL215002  14.322   6.536   9.261
  990POPC   C1A15003  14.486   6.733   8.740
  990POPC   D2A15004  14.478   7.012   8.370
  990POPC   C3A15005  14.446   6.828   7.965
  990POPC   C4A15006  14.197   7.071   7.686
  990POPC   C1B15007  14.106   6.392   8.907
  990POPC   C2B15008  14.200   6.286   8.505
  990POPC   C3B15009  14.008   6.382   8.138
  990POPC   C4B15010  14.061   6.554   7.750
  991POPC   NC315011  14.552  26.382   9.443
  991POPC   PO415012  14.189  26.866   9.772
  991POPC   GL115013  14.246  26.782   9.313
  991POPC   GL215014  13.973  26.643   9.127
  991POPC   C1A15015  14.357  26.862   8.879
  991POPC   D2A15016  14.275  27.059   8.496
  991POPC   C3A15017  14.588  26.984   8.180
  991POPC   C4A15018  14.391  26.983   7.770
  991POPC   C1B15019  13.852  26.899   8.810
  991POPC   C2B15020  13.916  26.676   8.458
  991POPC   C3B15021  14.187  26.642   8.121
  991POPC   C4B15022  14.277  26.408   7.759
  992POPC   NC315023  40.118   9.798   9.548
  992POPC   PO415024  39.552   9.533   9.808
  992POPC   GL115025  39.674   9.820   9.323
  992POPC   GL215026  39.973   9.611   9.109
  992POPC   C1A15027  39.834  10.008   8.847
  992POPC   D2A15028  39.871   9.735   8.433
  992POPC   C3A15029  39.815   9.777   7.973
  992POPC   C4A15030  39.542  10.029   7.698
  992POPC   C1B15031  40.275   9.680   8.739
  992POPC   C2B15032  40.408   9.581   8.296
  992POPC   C3B15033  40.236   9.461   7.835
  992POPC   C4B15034  40.312   9.489   7.348
  993POPC   NC315035  42.077   8.607   9.578
  993POPC   PO415036  42.713   8.907   9.529
  993POPC   GL115037  42.472   8.801   9.133
  993POPC   GL215038  42.111   8.727   9.075
  993POPC   C1A15039  42.355   9.058   8.730
  993POPC   D2A15040  42.145   9.265   8.432
  993POPC   C3A15041  42.266   9.214   8.030
  993POPC   C4A15042  42.044   9.401   7.711
  993POPC   C1B15043  42.333   8.572   8.708
  993POPC   C2B15044  42.454   8.728   8.308
  993POPC   C3B15045  42.299   8.577   7.914
  993POPC   C4B15046  41.916   8.690   7.669
  994POPC   NC315047  21.432  32.349   9.559
  994POPC   PO415048  20.835  32.280   9.392
  994POPC   GL115049  21.177  32.279   9.103
  994POPC   GL215050  21.570  32.282   9.082
  994POPC   C1A15051  21.165  32.228   8.671
  994POPC   D2A15052  21.414  32.031   8.387
  994POPC   C3A15053  21.223  32.044   7.985
  994POPC   C4A15054  21.481  32.303   7.813
  994POPC   C1B15055  21.633  32.431   8.665
  994POPC   C2B15056  21.397  32.588   8.317
  994POPC   C3B15057  21.221  32.730   7.907
  994POPC   C4B15058  21.273  32.595   7.456
  995POPC   NC315059  30.947  30.939   9.375
  995POPC   PO415060  30.580  30.398   9.554
  995POPC   GL115061  30.631  30.619   9.157
  995POPC   GL215062  30.483  30.951   9.193
  995POPC   C1A15063  30.729  30.539   8.703
  995POPC   D2A15064  30.881  30.484   8.269
  995POPC   C3A15065  30.626  30.477   7.881
  995POPC   C4A15066  30.491  30.583   7.423
  995POPC   C1B15067  30.692  31.042   8.813
  995POPC   C2B15068  30.528  30.971   8.446
  995POPC   C3B15069  30.414  31.203   8.120
  995POPC   C4B15070  30.704  30.981   7.869
  996POPC   NC315071   9.476   3.361   9.756
  996POPC   PO415072   9.653   3.897   9.368
  996POPC   GL115073   9.926   3.692   9.079
  996POPC   GL215074  10.008   3.968   8.891
  996POPC   C1A15075   9.764   3.541   8.677
  996POPC   D2A15076   9.495   3.595   8.357
  996POPC   C3A15077   9.717   3.441   8.024
  996POPC   C4A15078   9.706   3.606   7.637
  996POPC   C1B15079  10.249   3.685   8.689
  996POPC   C2B15080  10.129   3.747   8.301
  996POPC   C3B15081  10.088   3.814   7.906
  996POPC   C4B15082  10.225   3.663   7.552
  997POPC   NC315083  41.104  21.807   9.408
  997POPC   PO415084  40.884  21.082   9.400
  997POPC   GL115085  40.775  21.202   8.988
  997POPC   GL215086  40.816  21.572   9.009
  997POPC   C1A15087  40.538  21.361   8.641
  997POPC   D2A15088  40.570  21.650   8.266
  997POPC   C3A15089  40.661  21.573   7.791
  997POPC   C4A15090  40.649  21.320   7.400
  997POPC   C1B15091  41.022  21.551   8.614
  997POPC   C2B15092  41.051  21.507   8.154
  997POPC   C3B15093  41.207  21.734   7.798
  997POPC   C4B15094  41.037  21.691   7.411
  998POPC   NC315095  21.838   4.345   9.230
  998POPC   PO415096  22.457   4.622   9.435
  998POPC   GL115097  22.337   4.330   9.118
  998POPC   GL215098  22.280   4.042   9.336
  998POPC   C1A15099  22.172   4.135   8.714
  998POPC   D2A15100  22.061   4.378   8.365
  998POPC   C3A15101  21.945   4.225   7.978
  998POPC   C4A15102  22.297   4.301   7.724
  998POPC   C1B15103  22.509   3.856   8.988
  998POPC   C2B15104  22.583   3.859   8.530
  998POPC   C3B15105  22.359   3.895   8.137
  998POPC   C4B15106  22.575   3.884   7.734
  999POPC   NC315107  43.466  39.242   9.347
  999POPC   PO415108  42.909  38.956   9.536
  999POPC   GL115109  42.991  39.213   9.183
  999POPC   GL215110  43.043  39.552   9.303
  999POPC   C1A15111  43.011  39.102   8.740
  999POPC   D2A15112  43.258  38.886   8.409
  999POPC   C3A15113  43.256  39.110   8.021
  999POPC   C4A15114  42.878  39.143   7.827
  999POPC   C1B15115  43.186  39.580   8.846
  999POPC   C2B15116  43.355  39.461   8.436
  999POPC   C3B15117  43.253  39.645   8.028
  999POPC   C4B15118  43.052  39.591   7.644
 1000POPC   NC315119  36.735   2.593   9.416
 1000POPC   PO415120  36.085   2.802   9.520
 1000POPC   GL115121  36.015   2.662   9.114
 1000POPC   GL215122  36.329   2.480   9.123
 1000POPC   C1A15123  35.830   2.712   8.687
 1000POPC   D2A15124  35.643   2.430   8.377
 1000POPC   C3A15125  35.796   2.603   7.998
 1000POPC   C4A15126  35.757   3.022   7.840
 1000POPC   C1B15127  36.374   2.642   8.746
 1000POPC   C2B15128  36.445   2.876   8.400
 1000POPC   C3B15129  36.249   2.859   8.035
 1000POPC   C4B15130  36.342   2.593   7.747
 1001POPC   NC315131  34.551   4.441   9.666
 1001POPC   PO415132  34.559   5.164   9.554
 1001POPC   GL115133  34.545   5.196   9.116
 1001POPC   GL215134  34.693   4.904   9.082
 1001POPC   C1A15135  34.351   5.082   8.720
 1001POPC   D2A15136  34.493   4.937   8.303
 1001POPC   C3A15137  34.394   5.152   7.921
 1001POPC   C4A15138  34.730   5.215   7.681
 1001POPC   C1B15139  34.747   4.743   8.706
 1001POPC   C2B15140  35.004   4.791   8.353
 1001POPC   C3B15141  34.898   4.838   7.961
 1001POPC   C4B15142  34.568   4.704   7.747
 1002POPC   NC315143   5.601  35.119   9.579
 1002POPC   PO415144   6.058  35.574   9.445
 1002POPC   GL115145   5.848  35.454   9.113
 1002POPC   GL215146   5.849  35.113   9.101
 1002POPC   C1A15147   6.001  35.465   8.705
 1002POPC   D2A15148   6.319  35.514   8.401
 1002POPC   C3A15149   6.034  35.433   8.045
 1002POPC   C4A15150   5.983  35.488   7.586
 1002POPC   C1B15151   5.735  34.974   8.719
 1002POPC   C2B15152   5.709  35.211   8.366
 1002POPC   C3B15153   5.587  35.249   7.961
 1002POPC   C4B15154   5.530  34.947   7.642
 1003POPC   NC315155  18.793  34.682   9.500
 1003POPC   PO415156  19.406  34.572   9.354
 1003POPC   GL115157  19.126  34.527   9.037
 1003POPC   GL215158  18.788  34.355   9.118
 1003POPC   C1A15159  19.359  34.612   8.661
 1003POPC   D2A15160  19.558  34.831   8.307
 1003POPC   C3A15161  19.418  34.595   7.952
 1003POPC   C4A15162  19.239  34.659   7.538
 1003POPC   C1B15163  18.810  34.325   8.682
 1003POPC   C2B15164  19.073  34.365   8.308
 1003POPC   C3B15165  18.923  34.451   7.884
 1003POPC   C4B15166  18.532  34.402   7.694
 1004POPC   NC315167  42.700  32.409   9.595
 1004POPC   PO415168  42.219  31.996   9.417
 1004POPC   GL115169  42.511  32.209   9.156
 1004POPC   GL215170  42.803  31.992   9.204
 1004POPC   C1A15171  42.422  32.386   8.756
 1004POPC   D2A15172  42.409  32.169   8.385
 1004POPC   C3A15173  42.310  32.447   8.077
 1004POPC   C4A15174  42.319  32.520   7.671
 1004POPC   C1B15175  42.873  32.167   8.762
 1004POPC   C2B15176  42.955  32.142   8.320
 1004POPC   C3B15177  42.686  32.076   7.960
 1004POPC   C4B15178  42.281  31.980   7.797
 1005POPC   NC315179  17.987  36.105   9.551
 1005POPC   PO415180  17.333  36.204   9.485
 1005POPC   GL115181  17.475  36.047   9.085
 1005POPC   GL215182  17.757  35.858   9.163
 1005POPC   C1A15183  17.468  36.197   8.652
 1005POPC   D2A15184  17.177  36.217   8.329
 1005POPC   C3A15185  17.447  36.169   8.032
 1005POPC   C4A15186  17.687  36.482   7.833
 1005POPC   C1B15187  17.874  35.882   8.728
 1005POPC   C2B15188  17.773  35.864   8.286
 1005POPC   C3B15189  17.942  35.975   7.846
 1005POPC   C4B15190  17.886  35.792   7.414
 1006POPC   NC315191  34.428  20.178   9.427
 1006POPC   PO415192  34.667  20.803   9.519
 1006POPC   GL115193  34.485  20.648   9.153
 1006POPC   GL215194  34.139  20.785   9.130
 1006POPC   C1A15195  34.682  20.407   8.806
 1006POPC   D2A15196  34.869  20.336   8.389
 1006POPC   C3A15197  34.753  20.540   7.984
 1006POPC   C4A15198  34.780  20.959   7.810
 1006POPC   C1B15199  34.181  20.500   8.772
 1006POPC   C2B15200  34.411  20.582   8.407
 1006POPC   C3B15201  34.282  20.422   8.062
 1006POPC   C4B15202  34.282  20.631   7.765
 1007POPC   NC315203  17.027  23.045   9.418
 1007POPC   PO415204  16.813  22.518   9.657
 1007POPC   GL115205  16.681  22.671   9.221
 1007POPC   GL215206  16.920  22.833   8.977
 1007POPC   C1A15207  16.455  22.795   8.799
 1007POPC   D2A15208  16.422  22.700   8.328
 1007POPC   C3A15209  16.622  22.927   7.965
 1007POPC   C4A15210  16.470  22.925   7.513
 1007POPC   C1B15211  17.202  23.088   8.693
 1007POPC   C2B15212  17.180  23.260   8.259
 1007POPC   C3B15213  17.071  23.169   7.821
 1007POPC   C4B15214  17.001  23.182   7.349
 1008POPC   NC315215   0.632  20.156   9.465
 1008POPC   PO415216   0.739  19.510   9.489
 1008POPC   GL115217   0.530  19.764   9.140
 1008POPC   GL215218   0.184  19.809   9.204
 1008POPC   C1A15219   0.405  19.994   8.731
 1008POPC   D2A15220   0.613  19.805   8.355
 1008POPC   C3A15221   0.642  20.007   7.948
 1008POPC   C4A15222   0.544  20.213   7.550
 1008POPC   C1B15223   0.171  19.537   8.815
 1008POPC   C2B15224   0.095  19.633   8.368
 1008POPC   C3B15225   0.248  19.659   7.943
 1008POPC   C4B15226   0.116  19.522   7.522
 1009POPC   NC315227  27.351  19.122   9.604
 1009POPC   PO415228  26.746  19.381   9.558
 1009POPC   GL115229  26.863  19.045   9.247
 1009POPC   GL215230  26.579  18.934   9.077
 1009POPC   C1A15231  26.992  18.829   8.815
 1009POPC   D2A15232  26.846  18.942   8.373
 1009POPC   C3A15233  26.993  18.842   7.944
 1009POPC   C4A15234  26.882  19.134   7.606
 1009POPC   C1B15235  26.488  18.730   8.684
 1009POPC   C2B15236  26.269  18.914   8.376
 1009POPC   C3B15237  26.371  19.136   8.040
 1009POPC   C4B15238  26.460  18.843   7.757
 1010POPC   NC315239  42.302  12.985   9.445
 1010POPC   PO415240  42.113  12.259   9.393
 1010POPC   GL115241  42.355  12.579   9.117
 1010POPC   GL215242  42.221  12.910   8.962
 1010POPC   C1A15243  42.577  12.647   8.717
 1010POPC   D2A15244  42.537  12.779   8.295
 1010POPC   C3A15245  42.192  12.640   8.088
 1010POPC   C4A15246  42.087  12.925   7.751
 1010POPC   C1B15247  42.493  13.165   8.685
 1010POPC   C2B15248  42.664  13.268   8.273
 1010POPC   C3B15249  42.559  13.145   7.861
 1010POPC   C4B15250  42.314  13.427   7.598
 1011POPC   NC315251  42.259  44.899   9.701
 1011POPC   PO415252  42.475  44.358   9.346
 1011POPC   GL115253  42.311  44.634   9.106
 1011POPC   GL215254  42.312  44.968   9.207
 1011POPC   C1A15255  42.221  44.502   8.689
 1011POPC   D2A15256  42.348  44.257   8.351
 1011POPC   C3A15257  42.197  44.465   8.004
 1011POPC   C4A15258  42.562  44.661   7.788
 1011POPC   C1B15259  42.360   0.005   8.739
 1011POPC   C2B15260  42.378  44.844   8.316
 1011POPC   C3B15261  42.167  44.959   7.935
 1011POPC   C4B15262  42.100  44.983   7.513
 1012POPC   NC315263   7.837   8.297   9.616
 1012POPC   PO415264   7.129   8.530   9.666
 1012POPC   GL115265   7.375   8.331   9.303
 1012POPC   GL215266   7.662   8.534   9.191
 1012POPC   C1A15267   7.397   8.152   8.870
 1012POPC   D2A15268   7.174   8.001   8.558
 1012POPC   C3A15269   7.337   8.151   8.220
 1012POPC   C4A15270   7.394   8.050   7.807
 1012POPC   C1B15271   7.792   8.464   8.749
 1012POPC   C2B15272   7.722   8.644   8.330
 1012POPC   C3B15273   7.674   8.467   7.918
 1012POPC   C4B15274   7.574   8.431   7.481
 1013POPC   NC315275   6.430  17.261   9.472
 1013POPC   PO415276   6.711  17.886   9.504
 1013POPC   GL115277   6.708  17.605   9.174
 1013POPC   GL215278   6.362  17.503   9.030
 1013POPC   C1A15279   6.834  17.469   8.780
 1013POPC   D2A15280   6.635  17.548   8.378
 1013POPC   C3A15281   6.886  17.711   8.004
 1013POPC   C4A15282   6.843  17.538   7.604
 1013POPC   C1B15283   6.123  17.353   8.640
 1013POPC   C2B15284   6.304  17.181   8.258
 1013POPC   C3B15285   6.395  17.458   7.924
 1013POPC   C4B15286   6.326  17.426   7.494
 1014POPC   NC315287  44.547   9.609   9.442
 1014POPC   PO415288  44.621  10.182   9.758
 1014POPC   GL115289  44.839  10.016   9.295
 1014POPC   GL215290  44.997   9.686   9.170
 1014POPC   C1A15291  44.747  10.000   8.832
 1014POPC   D2A15292  44.587   9.679   8.514
 1014POPC   C3A15293  44.530   9.826   8.087
 1014POPC   C4A15294  44.701   9.808   7.704
 1014POPC   C1B15295   0.144   9.402   8.833
 1014POPC   C2B15296   0.076   9.508   8.391
 1014POPC   C3B15297  44.867   9.428   8.011
 1014POPC   C4B15298   0.127   9.511   7.656
 1015POPC   NC315299   7.599   3.537   9.538
 1015POPC   PO415300   7.034   3.116   9.354
 1015POPC   GL115301   7.275   3.506   9.115
 1015POPC   GL215302   7.645   3.448   9.058
 1015POPC   C1A15303   7.337   3.705   8.652
 1015POPC   D2A15304   7.595   3.495   8.296
 1015POPC   C3A15305   7.483   3.617   7.883
 1015POPC   C4A15306   7.118   3.820   7.713
 1015POPC   C1B15307   7.515   3.252   8.731
 1015POPC   C2B15308   7.128   3.261   8.464
 1015POPC   C3B15309   7.045   3.455   8.087
 1015POPC   C4B15310   7.148   3.305   7.661
 1016POPC   NC315311  33.473  32.121   9.428
 1016POPC   PO415312  33.954  32.596   9.375
 1016POPC   GL115313  33.628  32.520   9.091
 1016POPC   GL215314  33.750  32.158   9.007
 1016POPC   C1A15315  33.457  32.392   8.689
 1016POPC   D2A15316  33.640  32.108   8.413
 1016POPC   C3A15317  33.688  32.360   8.066
 1016POPC   C4A15318  33.398  32.305   7.785
 1016POPC   C1B15319  33.970  31.833   8.748
 1016POPC   C2B15320  34.051  31.782   8.309
 1016POPC   C3B15321  33.767  31.841   7.964
 1016POPC   C4B15322  33.886  31.806   7.532
 1017POPC   NC315323  16.770  10.204   9.461
 1017POPC   PO415324  16.593   9.527   9.642
 1017POPC   GL115325  16.544   9.779   9.279
 1017POPC   GL215326  16.888   9.782   9.190
 1017POPC   C1A15327  16.527   9.873   8.824
 1017POPC   D2A15328  16.683   9.708   8.435
 1017POPC   C3A15329  16.529   9.692   8.043
 1017POPC   C4A15330  16.731   9.539   7.715
 1017POPC   C1B15331  17.054   9.685   8.779
 1017POPC   C2B15332  17.222   9.650   8.356
 1017POPC   C3B15333  17.011   9.899   8.066
 1017POPC   C4B15334  16.939  10.013   7.656
 1018POPC   NC315335  23.147   1.004   9.462
 1018POPC   PO415336  22.665   1.478   9.683
 1018POPC   GL115337  22.858   1.371   9.275
 1018POPC   GL215338  23.170   1.473   9.167
 1018POPC   C1A15339  22.860   1.260   8.835
 1018POPC   D2A15340  22.936   1.375   8.429
 1018POPC   C3A15341  22.860   1.066   8.141
 1018POPC   C4A15342  23.050   1.035   7.755
 1018POPC   C1B15343  23.295   1.561   8.762
 1018POPC   C2B15344  23.399   1.643   8.353
 1018POPC   C3B15345  23.238   1.454   7.994
 1018POPC   C4B15346  23.354   1.449   7.573
 1019POPC   NC315347  21.208  21.938   9.505
 1019POPC   PO415348  21.742  22.422   9.491
 1019POPC   GL115349  21.575  22.127   9.216
 1019POPC   GL215350  21.306  22.325   9.162
 1019POPC   C1A15351  21.371  22.005   8.789
 1019POPC   D2A15352  21.349  22.282   8.433
 1019POPC   C3A15353  21.402  22.133   8.044
 1019POPC   C4A15354  21.163  22.099   7.704
 1019POPC   C1B15355  21.677  22.405   8.807
 1019POPC   C2B15356  21.674  22.735   8.498
 1019POPC   C3B15357  21.675  22.575   8.109
 1019POPC   C4B15358  21.791  22.326   7.794
 1020POPC   NC315359   0.903  34.625   9.472
 1020POPC   PO415360   0.200  34.610   9.450
 1020POPC   GL115361   0.299  34.501   9.071
 1020POPC   GL215362   0.633  34.450   9.078
 1020POPC   C1A15363   0.232  34.682   8.698
 1020POPC   D2A15364   0.228  34.494   8.305
 1020POPC   C3A15365   0.037  34.643   7.942
 1020POPC   C4A15366   0.272  34.441   7.668
 1020POPC   C1B15367   0.620  34.362   8.655
 1020POPC   C2B15368   0.661  34.746   8.385
 1020POPC   C3B15369   0.534  34.801   7.962
 1020POPC   C4B15370   0.663  34.749   7.502
 1021POPC   NC315371  14.480  17.419   9.703
 1021POPC   PO415372  14.234  17.416   9.121
 1021POPC   GL115373  14.266  17.622   8.820
 1021POPC   GL215374  14.221  17.953   8.808
 1021POPC   C1A15375  14.342  17.530   8.446
 1021POPC   D2A15376  14.527  17.199   8.219
 1021POPC   C3A15377  14.521  17.236   7.785
 1021POPC   C4A15378  14.293  17.406   7.444
 1021POPC   C1B15379  14.657  17.910   8.675
 1021POPC   C2B15380  14.787  17.673   8.287
 1021POPC   C3B15381  14.434  17.689   7.969
 1021POPC   C4B15382  14.457  17.883   7.589
 1022POPC   NC315383  37.361  13.642   9.247
 1022POPC   PO415384  36.688  13.727   9.483
 1022POPC   GL115385  36.870  13.598   9.083
 1022POPC   GL215386  37.073  13.262   9.060
 1022POPC   C1A15387  36.843  13.676   8.629
 1022POPC   D2A15388  36.923  13.962   8.269
 1022POPC   C3A15389  36.775  13.802   7.876
 1022POPC   C4A15390  36.644  13.523   7.557
 1022POPC   C1B15391  37.237  13.337   8.606
 1022POPC   C2B15392  37.025  13.440   8.191
 1022POPC   C3B15393  37.125  13.434   7.738
 1022POPC   C4B15394  37.064  13.400   7.260
 1023POPC   NC315395  15.289  23.151   9.919
 1023POPC   PO415396  15.400  23.719   9.588
 1023POPC   GL115397  15.358  23.847   9.165
 1023POPC   GL215398  15.600  23.620   9.139
 1023POPC   C1A15399  15.289  23.649   8.741
 1023POPC   D2A15400  14.933  23.587   8.490
 1023POPC   C3A15401  14.981  23.890   8.160
 1023POPC   C4A15402  15.135  24.001   7.766
 1023POPC   C1B15403  15.703  23.955   8.789
 1023POPC   C2B15404  15.547  23.986   8.358
 1023POPC   C3B15405  15.772  23.988   7.950
 1023POPC   C4B15406  15.572  23.890   7.563
 1024POPC   NC315407  39.665  24.338  10.062
 1024POPC   PO415408  40.099  24.031   9.683
 1024POPC   GL115409  40.096  24.272   9.278
 1024POPC   GL215410  39.849  24.559   9.245
 1024POPC   C1A15411  40.235  24.524   8.899
 1024POPC   D2A15412  40.080  24.422   8.490
 1024POPC   C3A15413  40.327  24.459   8.121
 1024POPC   C4A15414  40.243  24.411   7.685
 1024POPC   C1B15415  39.724  24.298   8.863
 1024POPC   C2B15416  39.614  24.194   8.414
 1024POPC   C3B15417  39.802  24.359   8.022
 1024POPC   C4B15418  39.713  24.509   7.606
 1025POPC   NC315419  25.261  23.390   9.419
 1025POPC   PO415420  25.259  24.055   9.410
 1025POPC   GL115421  25.266  23.742   9.035
 1025POPC   GL215422  25.537  23.452   8.998
 1025POPC   C1A15423  25.039  23.661   8.621
 1025POPC   D2A15424  25.004  23.588   8.153
 1025POPC   C3A15425  25.093  23.912   7.828
 1025POPC   C4A15426  24.867  23.953   7.388
 1025POPC   C1B15427  25.553  23.693   8.609
 1025POPC   C2B15428  25.503  23.787   8.182
 1025POPC   C3B15429  25.457  23.528   7.831
 1025POPC   C4B15430  25.613  23.582   7.416
 1026POPC   NC315431  19.980   2.277   9.630
 1026POPC   PO415432  19.474   1.889   9.459
 1026POPC   GL115433  19.769   2.047   9.141
 1026POPC   GL215434  20.059   2.257   9.118
 1026POPC   C1A15435  19.850   1.992   8.704
 1026POPC   D2A15436  20.097   1.831   8.365
 1026POPC   C3A15437  19.922   1.885   7.975
 1026POPC   C4A15438  20.110   2.017   7.571
 1026POPC   C1B15439  19.981   2.473   8.724
 1026POPC   C2B15440  20.061   2.343   8.315
 1026POPC   C3B15441  19.987   2.400   7.913
 1026POPC   C4B15442  19.652   2.222   7.702
 1027POPC   NC315443  25.216   6.087   9.581
 1027POPC   PO415444  24.955   5.500   9.420
 1027POPC   GL115445  25.177   5.790   9.161
 1027POPC   GL215446  25.053   6.146   9.126
 1027POPC   C1A15447  25.438   5.912   8.838
 1027POPC   D2A15448  25.388   5.977   8.444
 1027POPC   C3A15449  25.597   5.958   8.075
 1027POPC   C4A15450  25.407   6.055   7.696
 1027POPC   C1B15451  25.083   6.368   8.787
 1027POPC   C2B15452  24.931   6.432   8.428
 1027POPC   C3B15453  25.176   6.354   8.080
 1027POPC   C4B15454  24.927   6.232   7.741
 1028POPC   NC315455  35.633  25.847   9.287
 1028POPC   PO415456  35.080  26.277   9.456
 1028POPC   GL115457  35.286  26.171   9.108
 1028POPC   GL215458  35.167  25.868   9.012
 1028POPC   C1A15459  35.323  26.183   8.661
 1028POPC   D2A15460  35.458  25.854   8.411
 1028POPC   C3A15461  35.528  25.919   7.974
 1028POPC   C4A15462  35.273  26.057   7.628
 1028POPC   C1B15463  34.947  25.787   8.670
 1028POPC   C2B15464  34.999  25.618   8.265
 1028POPC   C3B15465  34.960  25.646   7.824
 1028POPC   C4B15466  35.003  25.374   7.418
 1029POPC   NC315467  27.787  21.505   9.916
 1029POPC   PO415468  28.242  21.508   9.444
 1029POPC   GL115469  28.223  21.780   9.102
 1029POPC   GL215470  28.565  21.779   9.033
 1029POPC   C1A15471  28.148  21.639   8.675
 1029POPC   D2A15472  28.210  21.216   8.537
 1029POPC   C3A15473  28.478  21.165   8.178
 1029POPC   C4A15474  28.347  21.192   7.758
 1029POPC   C1B15475  28.665  21.576   8.636
 1029POPC   C2B15476  28.491  21.671   8.230
 1029POPC   C3B15477  28.463  21.683   7.768
 1029POPC   C4B15478  28.704  21.412   7.458
 1030POPC   NC315479  40.514  21.363   9.409
 1030POPC   PO415480  39.777  21.356   9.489
 1030POPC   GL115481  39.878  21.571   9.125
 1030POPC   GL215482  40.176  21.378   9.007
 1030POPC   C1A15483  39.806  21.532   8.703
 1030POPC   D2A15484  40.105  21.475   8.438
 1030POPC   C3A15485  40.069  21.476   8.030
 1030POPC   C4A15486  40.241  21.175   7.723
 1030POPC   C1B15487  39.971  21.039   8.729
 1030POPC   C2B15488  39.906  21.057   8.266
 1030POPC   C3B15489  39.802  20.896   7.886
 1030POPC   C4B15490  39.742  21.263   7.683
 1031POPC   NC315491  30.585  13.075   9.607
 1031POPC   PO415492  30.520  13.748   9.664
 1031POPC   GL115493  30.683  13.727   9.256
 1031POPC   GL215494  30.629  13.361   9.161
 1031POPC   C1A15495  30.795  13.728   8.823
 1031POPC   D2A15496  30.524  13.522   8.538
 1031POPC   C3A15497  30.612  13.697   8.134
 1031POPC   C4A15498  31.001  13.600   7.894
 1031POPC   C1B15499  30.956  13.249   8.833
 1031POPC   C2B15500  31.000  13.427   8.414
 1031POPC   C3B15501  30.751  13.208   8.115
 1031POPC   C4B15502  30.972  13.096   7.769
 1032POPC   NC315503  44.776  34.539   9.634
 1032POPC   PO415504  44.129  34.512   9.630
 1032POPC   GL115505  44.458  34.621   9.253
 1032POPC   GL215506  44.786  34.412   9.159
 1032POPC   C1A15507  44.693  34.813   8.910
 1032POPC   D2A15508  44.776  34.699   8.489
 1032POPC   C3A15509  44.573  34.551   8.104
 1032POPC   C4A15510  44.487  34.807   7.768
 1032POPC   C1B15511  44.920  34.264   8.798
 1032POPC   C2B15512  44.801  34.216   8.407
 1032POPC   C3B15513  44.972  34.149   8.039
 1032POPC   C4B15514  44.796  34.120   7.683
 1033POPC   NC315515  35.725  16.482   9.436
 1033POPC   PO415516  35.051  16.714   9.420
 1033POPC   GL115517  35.372  16.714   9.107
 1033POPC   GL215518  35.583  16.418   8.957
 1033POPC   C1A15519  35.255  16.780   8.704
 1033POPC   D2A15520  35.441  16.820   8.360
 1033POPC   C3A15521  35.241  16.777   8.004
 1033POPC   C4A15522  35.299  16.525   7.668
 1033POPC   C1B15523  35.771  16.788   8.771
 1033POPC   C2B15524  35.843  17.110   8.471
 1033POPC   C3B15525  35.646  17.204   8.093
 1033POPC   C4B15526  35.630  16.947   7.738
 1034POPC   NC315527   3.684   1.745   9.727
 1034POPC   PO415528   3.118   1.962   9.457
 1034POPC   GL115529   3.500   1.925   9.178
 1034POPC   GL215530   3.795   1.713   9.223
 1034POPC   C1A15531   3.377   2.069   8.760
 1034POPC   D2A15532   3.167   2.150   8.364
 1034POPC   C3A15533   3.403   2.122   7.993
 1034POPC   C4A15534   3.420   1.933   7.614
 1034POPC   C1B15535   3.862   1.882   8.794
 1034POPC   C2B15536   3.716   1.970   8.365
 1034POPC   C3B15537   3.875   1.853   7.949
 1034POPC   C4B15538   4.095   1.616   7.607
 1035POPC   NC315539  32.900  12.550   9.453
 1035POPC   PO415540  33.230  13.177   9.613
 1035POPC   GL115541  33.171  12.959   9.260
 1035POPC   GL215542  32.845  13.045   9.240
 1035POPC   C1A15543  33.255  12.759   8.851
 1035POPC   D2A15544  33.107  12.763   8.415
 1035POPC   C3A15545  33.338  12.598   8.058
 1035POPC   C4A15546  33.191  12.839   7.721
 1035POPC   C1B15547  32.807  12.998   8.800
 1035POPC   C2B15548  32.617  12.974   8.396
 1035POPC   C3B15549  32.757  12.865   7.999
 1035POPC   C4B15550  32.640  12.534   7.751
 1036POPC   NC315551  39.519  10.337   9.501
 1036POPC   PO415552  38.983  10.757   9.411
 1036POPC   GL115553  39.275  10.584   9.114
 1036POPC   GL215554  39.402  10.226   9.036
 1036POPC   C1A15555  39.151  10.515   8.708
 1036POPC   D2A15556  39.147  10.356   8.317
 1036POPC   C3A15557  39.378  10.473   7.951
 1036POPC   C4A15558  39.074  10.653   7.699
 1036POPC   C1B15559  39.359  10.016   8.651
 1036POPC   C2B15560  39.412   9.951   8.210
 1036POPC   C3B15561  39.072  10.046   7.919
 1036POPC   C4B15562  39.090  10.179   7.523
 1037POPC   NC315563  20.311  39.304   9.476
 1037POPC   PO415564  20.779  38.882   9.533
 1037POPC   GL115565  20.754  39.093   9.119
 1037POPC   GL215566  20.486  39.375   8.983
 1037POPC   C1A15567  20.625  38.962   8.706
 1037POPC   D2A15568  20.357  39.088   8.399
 1037POPC   C3A15569  20.563  39.030   8.006
 1037POPC   C4A15570  20.883  39.244   7.768
 1037POPC   C1B15571  20.289  39.572   8.578
 1037POPC   C2B15572  20.230  39.495   8.096
 1037POPC   C3B15573  20.410  39.464   7.664
 1037POPC   C4B15574  20.237  39.535   7.233
 1038POPC   NC315575  30.485  40.247   9.468
 1038POPC   PO415576  30.833  39.704   9.521
 1038POPC   GL115577  30.593  39.842   9.181
 1038POPC   GL215578  30.782  40.120   9.077
 1038POPC   C1A15579  30.470  39.879   8.760
 1038POPC   D2A15580  30.827  39.952   8.493
 1038POPC   C3A15581  30.728  40.162   8.124
 1038POPC   C4A15582  30.685  39.861   7.794
 1038POPC   C1B15583  31.134  40.230   8.819
 1038POPC   C2B15584  31.144  40.348   8.410
 1038POPC   C3B15585  31.264  40.402   8.012
 1038POPC   C4B15586  31.028  40.249   7.684
 1039POPC   NC315587  36.388  26.088   9.388
 1039POPC   PO415588  35.798  26.272   9.114
 1039POPC   GL115589  36.205  26.169   8.921
 1039POPC   GL215590  36.341  25.826   8.942
 1039POPC   C1A15591  36.280  26.103   8.495
 1039POPC   D2A15592  35.911  26.137   8.241
 1039POPC   C3A15593  35.987  26.151   7.819
 1039POPC   C4A15594  36.215  26.066   7.407
 1039POPC   C1B15595  35.949  25.769   8.680
 1039POPC   C2B15596  35.891  25.616   8.252
 1039POPC   C3B15597  35.955  25.648   7.799
 1039POPC   C4B15598  36.270  25.554   7.475
 1040POPC   NC315599  31.294  42.205   9.362
 1040POPC   PO415600  31.369  42.861   9.268
 1040POPC   GL115601  31.645  42.513   9.146
 1040POPC   GL215602  31.613  42.159   8.964
 1040POPC   C1A15603  31.643  42.569   8.705
 1040POPC   D2A15604  31.279  42.479   8.515
 1040POPC   C3A15605  31.283  42.567   8.106
 1040POPC   C4A15606  31.451  42.372   7.723
 1040POPC   C1B15607  31.355  41.969   8.651
 1040POPC   C2B15608  31.432  42.073   8.227
 1040POPC   C3B15609  31.634  41.927   7.886
 1040POPC   C4B15610  31.389  41.813   7.508
 1041POPC   NC315611  33.663   8.414   9.878
 1041POPC   PO415612  34.236   8.172   9.598
 1041POPC   GL115613  33.994   8.295   9.235
 1041POPC   GL215614  34.189   8.215   8.934
 1041POPC   C1A15615  33.662   8.411   8.929
 1041POPC   D2A15616  33.645   8.562   8.486
 1041POPC   C3A15617  33.559   8.263   8.131
 1041POPC   C4A15618  33.717   8.281   7.706
 1041POPC   C1B15619  33.882   8.047   8.628
 1041POPC   C2B15620  33.764   7.744   8.307
 1041POPC   C3B15621  33.853   7.824   7.898
 1041POPC   C4B15622  34.178   8.174   7.880
 1042POPC   NC315623  31.750  23.964   9.506
 1042POPC   PO415624  31.697  23.284   9.617
 1042POPC   GL115625  31.592  23.518   9.211
 1042POPC   GL215626  31.397  23.834   9.144
 1042POPC   C1A15627  31.500  23.490   8.752
 1042POPC   D2A15628  31.697  23.593   8.356
 1042POPC   C3A15629  31.498  23.491   7.950
 1042POPC   C4A15630  31.643  23.679   7.588
 1042POPC   C1B15631  31.133  23.854   8.782
 1042POPC   C2B15632  31.162  23.682   8.379
 1042POPC   C3B15633  31.228  23.898   8.009
 1042POPC   C4B15634  31.098  23.769   7.674
 1043POPC   NC315635   4.054  10.792   9.453
 1043POPC   PO415636   4.491  10.291   9.528
 1043POPC   GL115637   4.625  10.338   9.136
 1043POPC   GL215638   4.359  10.568   9.102
 1043POPC   C1A15639   4.444  10.285   8.699
 1043POPC   D2A15640   4.326  10.508   8.318
 1043POPC   C3A15641   4.572  10.466   7.927
 1043POPC   C4A15642   4.406  10.253   7.540
 1043POPC   C1B15643   4.294  10.824   8.748
 1043POPC   C2B15644   4.194  11.035   8.378
 1043POPC   C3B15645   4.230  10.906   7.976
 1043POPC   C4B15646   4.323  10.752   7.576
 1044POPC   NC315647  30.783  25.794   9.502
 1044POPC   PO415648  30.703  26.381   9.568
 1044POPC   GL115649  30.753  26.200   9.179
 1044POPC   GL215650  30.528  25.971   9.086
 1044POPC   C1A15651  30.744  26.304   8.754
 1044POPC   D2A15652  30.686  26.097   8.372
 1044POPC   C3A15653  30.900  26.127   7.984
 1044POPC   C4A15654  31.211  25.902   7.744
 1044POPC   C1B15655  30.324  25.936   8.727
 1044POPC   C2B15656  30.254  25.852   8.324
 1044POPC   C3B15657  30.392  26.013   7.943
 1044POPC   C4B15658  30.379  25.870   7.510
 1045POPC   NC315659  16.444   0.873   9.398
 1045POPC   PO415660  16.991   1.248   9.585
 1045POPC   GL115661  16.835   1.335   9.185
 1045POPC   GL215662  16.827   0.999   9.042
 1045POPC   C1A15663  16.780   1.435   8.780
 1045POPC   D2A15664  17.021   1.171   8.533
 1045POPC   C3A15665  16.794   1.137   8.196
 1045POPC   C4A15666  16.778   1.161   7.784
 1045POPC   C1B15667  16.533   0.950   8.673
 1045POPC   C2B15668  16.444   0.747   8.270
 1045POPC   C3B15669  16.307   0.993   7.908
 1045POPC   C4B15670  16.444   0.915   7.484
 1046POPC   NC315671   0.554  13.212   9.434
 1046POPC   PO415672   0.719  13.826   9.598
 1046POPC   GL115673   0.583  13.671   9.181
 1046POPC   GL215674   0.238  13.513   9.177
 1046POPC   C1A15675   0.482  13.828   8.766
 1046POPC   D2A15676   0.684  13.885   8.369
 1046POPC   C3A15677   0.565  13.699   8.001
 1046POPC   C4A15678   0.729  13.378   7.704
 1046POPC   C1B15679   0.329  13.342   8.777
 1046POPC   C2B15680   0.263  13.490   8.375
 1046POPC   C3B15681   0.258  13.306   7.957
 1046POPC   C4B15682   0.257  13.541   7.595
 1047POPC   NC315683  42.776   2.498   9.487
 1047POPC   PO415684  42.159   2.676   9.609
 1047POPC   GL115685  42.076   2.755   9.167
 1047POPC   GL215686  42.462   2.743   9.123
 1047POPC   C1A15687  42.169   2.841   8.727
 1047POPC   D2A15688  42.057   2.602   8.387
 1047POPC   C3A15689  42.169   2.781   7.994
 1047POPC   C4A15690  41.995   2.878   7.588
 1047POPC   C1B15691  42.699   2.640   8.734
 1047POPC   C2B15692  42.570   2.634   8.290
 1047POPC   C3B15693  42.567   2.474   7.843
 1047POPC   C4B15694  42.765   2.532   7.418
 1048POPC   NC315695  28.430  18.535   9.393
 1048POPC   PO415696  27.881  18.021   9.550
 1048POPC   GL115697  28.153  18.073   9.211
 1048POPC   GL215698  27.973  18.347   9.113
 1048POPC   C1A15699  28.364  18.110   8.796
 1048POPC   D2A15700  28.624  17.963   8.474
 1048POPC   C3A15701  28.491  18.081   8.083
 1048POPC   C4A15702  28.483  18.241   7.676
 1048POPC   C1B15703  28.092  18.528   8.729
 1048POPC   C2B15704  28.297  18.491   8.345
 1048POPC   C3B15705  28.148  18.591   7.939
 1048POPC   C4B15706  28.334  18.703   7.572
 1049POPC   NC315707  24.315  42.000   9.404
 1049POPC   PO415708  24.692  42.618   9.595
 1049POPC   GL115709  24.731  42.478   9.158
 1049POPC   GL215710  24.744  42.100   9.094
 1049POPC   C1A15711  24.560  42.422   8.732
 1049POPC   D2A15712  24.270  42.164   8.446
 1049POPC   C3A15713  24.428  42.145   8.006
 1049POPC   C4A15714  24.697  42.442   7.773
 1049POPC   C1B15715  24.991  42.042   8.737
 1049POPC   C2B15716  24.877  42.214   8.341
 1049POPC   C3B15717  24.959  42.051   7.950
 1049POPC   C4B15718  24.846  41.873   7.570
 1050POPC   NC315719   8.946  21.269   9.485
 1050POPC   PO415720   9.123  21.956   9.439
 1050POPC   GL115721   8.972  21.602   9.091
 1050POPC   GL215722   8.718  21.328   9.044
 1050POPC   C1A15723   8.980  21.381   8.645
 1050POPC   D2A15724   9.113  21.483   8.282
 1050POPC   C3A15725   8.855  21.406   7.977
 1050POPC   C4A15726   9.005  21.332   7.594
 1050POPC   C1B15727   8.603  21.706   8.754
 1050POPC   C2B15728   8.769  21.835   8.347
 1050POPC   C3B15729   8.573  21.855   7.945
 1050POPC   C4B15730   8.586  21.612   7.549
 1051POPC   NC315731  27.829  32.948   9.514
 1051POPC   PO415732  27.391  33.486   9.409
 1051POPC   GL115733  27.555  33.200   9.066
 1051POPC   GL215734  27.832  32.941   9.030
 1051POPC   C1A15735  27.574  33.142   8.607
 1051POPC   D2A15736  27.785  33.259   8.209
 1051POPC   C3A15737  27.591  33.145   7.826
 1051POPC   C4A15738  27.357  33.211   7.454
 1051POPC   C1B15739  27.825  32.698   8.715
 1051POPC   C2B15740  27.669  32.716   8.296
 1051POPC   C3B15741  27.865  32.724   7.907
 1051POPC   C4B15742  27.851  32.443   7.553
 1052POPC   NC315743   3.917   0.009   9.491
 1052POPC   PO415744   4.406  44.541   9.522
 1052POPC   GL115745   4.257  44.570   9.168
 1052POPC   GL215746   4.364  44.883   9.123
 1052POPC   C1A15747   4.111  44.317   8.842
 1052POPC   D2A15748   4.316  44.232   8.459
 1052POPC   C3A15749   4.165  44.407   8.096
 1052POPC   C4A15750   4.155  44.256   7.691
 1052POPC   C1B15751   4.460  44.666   8.711
 1052POPC   C2B15752   4.545  44.712   8.289
 1052POPC   C3B15753   4.453  44.754   7.849
 1052POPC   C4B15754   4.345  44.655   7.431
 1053POPC   NC315755  32.924  26.396   9.400
 1053POPC   PO415756  32.985  27.077   9.621
 1053POPC   GL115757  33.032  26.912   9.216
 1053POPC   GL215758  32.719  26.839   9.194
 1053POPC   C1A15759  33.038  26.711   8.783
 1053POPC   D2A15760  32.861  26.811   8.348
 1053POPC   C3A15761  33.108  26.724   7.966
 1053POPC   C4A15762  33.344  26.879   7.557
 1053POPC   C1B15763  32.537  26.835   8.800
 1053POPC   C2B15764  32.416  26.576   8.455
 1053POPC   C3B15765  32.569  26.555   7.984
 1053POPC   C4B15766  32.760  26.842   7.619
 1054POPC   NC315767  19.505  30.570   9.542
 1054POPC   PO415768  18.943  30.992   9.646
 1054POPC   GL115769  19.073  30.871   9.258
 1054POPC   GL215770  18.743  30.702   9.248
 1054POPC   C1A15771  19.111  30.839   8.785
 1054POPC   D2A15772  18.981  30.555   8.432
 1054POPC   C3A15773  18.888  30.851   8.075
 1054POPC   C4A15774  19.135  30.914   7.676
 1054POPC   C1B15775  18.633  30.639   8.822
 1054POPC   C2B15776  18.479  30.628   8.407
 1054POPC   C3B15777  18.570  30.451   8.037
 1054POPC   C4B15778  18.809  30.500   7.669
 1055POPC   NC315779  13.345  38.397   9.355
 1055POPC   PO415780  13.958  38.647   9.523
 1055POPC   GL115781  13.849  38.518   9.097
 1055POPC   GL215782  13.635  38.292   8.967
 1055POPC   C1A15783  13.955  38.474   8.630
 1055POPC   D2A15784  13.650  38.496   8.274
 1055POPC   C3A15785  13.622  38.204   7.900
 1055POPC   C4A15786  13.725  38.326   7.406
 1055POPC   C1B15787  13.441  38.660   8.742
 1055POPC   C2B15788  13.140  38.817   8.432
 1055POPC   C3B15789  13.273  38.737   8.021
 1055POPC   C4B15790  13.444  38.628   7.677
 1056POPC   NC315791   8.202  25.759   9.499
 1056POPC   PO415792   7.956  26.408   9.533
 1056POPC   GL115793   8.152  26.164   9.214
 1056POPC   GL215794   8.301  26.383   9.069
 1056POPC   C1A15795   8.336  25.934   8.832
 1056POPC   D2A15796   8.202  26.092   8.426
 1056POPC   C3A15797   8.309  25.962   8.001
 1056POPC   C4A15798   8.159  26.147   7.573
 1056POPC   C1B15799   7.952  26.377   8.788
 1056POPC   C2B15800   7.913  26.554   8.398
 1056POPC   C3B15801   8.038  26.400   8.025
 1056POPC   C4B15802   7.718  26.366   7.759
 1057POPC   NC315803   9.712   1.734   9.621
 1057POPC   PO415804   9.389   2.295   9.357
 1057POPC   GL115805   9.674   2.087   9.085
 1057POPC   GL215806   9.659   1.704   9.123
 1057POPC   C1A15807   9.556   2.119   8.653
 1057POPC   D2A15808   9.332   1.874   8.343
 1057POPC   C3A15809   9.553   1.985   7.985
 1057POPC   C4A15810   9.561   2.384   7.784
 1057POPC   C1B15811   9.605   1.604   8.695
 1057POPC   C2B15812   9.856   1.796   8.367
 1057POPC   C3B15813   9.981   1.658   7.969
 1057POPC   C4B15814   9.675   1.589   7.655
 1058POPC   NC315815  11.873  20.385   9.480
 1058POPC   PO415816  12.271  20.957   9.427
 1058POPC   GL115817  12.135  20.689   9.131
 1058POPC   GL215818  12.302  20.351   9.150
 1058POPC   C1A15819  12.221  20.800   8.715
 1058POPC   D2A15820  12.052  20.637   8.356
 1058POPC   C3A15821  12.282  20.574   8.026
 1058POPC   C4A15822  12.054  20.794   7.765
 1058POPC   C1B15823  12.081  20.304   8.745
 1058POPC   C2B15824  11.856  20.158   8.331
 1058POPC   C3B15825  11.865  20.291   7.886
 1058POPC   C4B15826  12.173  20.300   7.559
 1059POPC   NC315827  24.445  10.911   9.513
 1059POPC   PO415828  24.620  11.543   9.418
 1059POPC   GL115829  24.280  11.429   9.090
 1059POPC   GL215830  24.122  11.060   9.112
 1059POPC   C1A15831  24.388  11.361   8.625
 1059POPC   D2A15832  24.674  11.103   8.324
 1059POPC   C3A15833  24.641  11.206   7.880
 1059POPC   C4A15834  24.319  11.514   7.789
 1059POPC   C1B15835  24.182  10.888   8.678
 1059POPC   C2B15836  24.177  11.025   8.219
 1059POPC   C3B15837  24.215  10.964   7.755
 1059POPC   C4B15838  24.315  11.207   7.391
 1060POPC   NC315839  16.256  33.916   9.478
 1060POPC   PO415840  15.634  33.512   9.397
 1060POPC   GL115841  15.882  33.760   9.139
 1060POPC   GL215842  15.783  34.083   9.035
 1060POPC   C1A15843  16.048  33.593   8.759
 1060POPC   D2A15844  15.835  33.518   8.347
 1060POPC   C3A15845  16.013  33.644   7.950
 1060POPC   C4A15846  16.318  33.725   7.662
 1060POPC   C1B15847  15.712  33.956   8.655
 1060POPC   C2B15848  16.033  34.007   8.362
 1060POPC   C3B15849  15.828  34.101   8.020
 1060POPC   C4B15850  15.599  34.108   7.637
 1061POPC   NC315851  10.295  36.332   9.692
 1061POPC   PO415852  10.777  35.941   9.826
 1061POPC   GL115853  10.541  35.984   9.356
 1061POPC   GL215854  10.732  35.922   9.030
 1061POPC   C1A15855  10.409  36.305   8.991
 1061POPC   D2A15856  10.291  36.405   8.546
 1061POPC   C3A15857  10.566  36.383   8.164
 1061POPC   C4A15858  10.401  36.284   7.725
 1061POPC   C1B15859  10.782  36.169   8.638
 1061POPC   C2B15860  10.782  35.915   8.266
 1061POPC   C3B15861  10.652  35.876   7.854
 1061POPC   C4B15862  10.771  36.020   7.411
 1062POPC   NC315863  38.304  42.059   9.528
 1062POPC   PO415864  38.162  42.748   9.421
 1062POPC   GL115865  38.532  42.505   9.308
 1062POPC   GL215866  38.271  42.347   9.100
 1062POPC   C1A15867  38.744  42.340   8.916
 1062POPC   D2A15868  38.532  42.470   8.549
 1062POPC   C3A15869  38.643  42.325   8.158
 1062POPC   C4A15870  38.594  42.229   7.725
 1062POPC   C1B15871  38.159  42.122   8.743
 1062POPC   C2B15872  38.202  42.110   8.317
 1062POPC   C3B15873  38.157  42.379   8.000
 1062POPC   C4B15874  38.101  42.117   7.693
 1063POPC   NC315875  21.300  24.371   9.364
 1063POPC   PO415876  21.688  24.910   9.496
 1063POPC   GL115877  21.639  24.647   9.114
 1063POPC   GL215878  21.735  24.333   9.022
 1063POPC   C1A15879  21.498  24.669   8.678
 1063POPC   D2A15880  21.191  24.556   8.334
 1063POPC   C3A15881  21.293  24.642   7.885
 1063POPC   C4A15882  21.458  24.655   7.423
 1063POPC   C1B15883  21.425  24.181   8.711
 1063POPC   C2B15884  21.534  24.148   8.276
 1063POPC   C3B15885  21.380  24.108   7.861
 1063POPC   C4B15886  21.352  24.162   7.427
 1064POPC   NC315887   3.683  22.868   9.498
 1064POPC   PO415888   3.110  23.160   9.541
 1064POPC   GL115889   3.208  23.193   9.140
 1064POPC   GL215890   3.284  22.828   9.156
 1064POPC   C1A15891   3.469  23.146   8.779
 1064POPC   D2A15892   3.754  23.244   8.445
 1064POPC   C3A15893   3.611  23.087   8.050
 1064POPC   C4A15894   3.486  23.142   7.612
 1064POPC   C1B15895   3.523  22.596   8.864
 1064POPC   C2B15896   3.508  22.720   8.460
 1064POPC   C3B15897   3.650  22.532   8.103
 1064POPC   C4B15898   3.642  22.675   7.744
 1065POPC   NC315899  36.831  12.352   9.491
 1065POPC   PO415900  36.704  11.752   9.352
 1065POPC   GL115901  36.930  11.862   9.005
 1065POPC   GL215902  37.030  12.192   9.036
 1065POPC   C1A15903  36.847  12.002   8.597
 1065POPC   D2A15904  37.038  11.996   8.215
 1065POPC   C3A15905  36.745  11.939   7.898
 1065POPC   C4A15906  36.543  12.296   7.714
 1065POPC   C1B15907  37.330  12.374   8.760
 1065POPC   C2B15908  37.450  12.312   8.346
 1065POPC   C3B15909  37.299  12.370   7.907
 1065POPC   C4B15910  37.167  12.596   7.520
 1066POPC   NC315911   0.557  23.913   9.582
 1066POPC   PO415912   0.552  23.213   9.443
 1066POPC   GL115913   0.526  23.604   9.145
 1066POPC   GL215914   0.563  23.997   9.101
 1066POPC   C1A15915   0.319  23.698   8.757
 1066POPC   D2A15916   0.180  23.411   8.445
 1066POPC   C3A15917   0.506  23.420   8.128
 1066POPC   C4A15918   0.548  23.749   7.832
 1066POPC   C1B15919   0.798  23.921   8.751
 1066POPC   C2B15920   0.802  23.805   8.327
 1066POPC   C3B15921   0.952  24.031   7.972
 1066POPC   C4B15922   0.950  23.909   7.562
 1067POPC   NC315923  25.033  16.402   9.516
 1067POPC   PO415924  25.099  17.103   9.600
 1067POPC   GL115925  25.165  16.823   9.186
 1067POPC   GL215926  25.413  16.563   9.200
 1067POPC   C1A15927  25.395  16.920   8.757
 1067POPC   D2A15928  25.223  17.060   8.346
 1067POPC   C3A15929  25.079  16.758   8.129
 1067POPC   C4A15930  24.786  16.593   7.895
 1067POPC   C1B15931  25.530  16.408   8.826
 1067POPC   C2B15932  25.432  16.545   8.421
 1067POPC   C3B15933  25.555  16.633   8.006
 1067POPC   C4B15934  25.580  16.332   7.688
 1068POPC   NC315935  30.385  31.782   9.504
 1068POPC   PO415936  30.644  31.180   9.621
 1068POPC   GL115937  30.834  31.450   9.300
 1068POPC   GL215938  30.514  31.473   9.116
 1068POPC   C1A15939  30.935  31.510   8.855
 1068POPC   D2A15940  30.624  31.486   8.537
 1068POPC   C3A15941  30.863  31.401   8.167
 1068POPC   C4A15942  30.687  31.475   7.748
 1068POPC   C1B15943  30.268  31.741   8.845
 1068POPC   C2B15944  30.329  31.939   8.465
 1068POPC   C3B15945  30.450  31.741   8.096
 1068POPC   C4B15946  30.318  31.901   7.687
 1069POPC   NC315947   3.303  33.979   9.456
 1069POPC   PO415948   2.692  33.698   9.642
 1069POPC   GL115949   2.930  33.662   9.242
 1069POPC   GL215950   2.991  33.986   9.076
 1069POPC   C1A15951   2.995  33.580   8.802
 1069POPC   D2A15952   3.088  33.457   8.408
 1069POPC   C3A15953   2.823  33.591   8.115
 1069POPC   C4A15954   2.545  33.606   7.705
 1069POPC   C1B15955   2.902  34.182   8.692
 1069POPC   C2B15956   2.666  34.052   8.329
 1069POPC   C3B15957   2.729  34.035   7.905
 1069POPC   C4B15958   3.033  34.174   7.637
 1070POPC   NC315959  34.636  35.506   9.477
 1070POPC   PO415960  34.189  34.999   9.547
 1070POPC   GL115961  34.423  35.152   9.128
 1070POPC   GL215962  34.776  35.199   9.076
 1070POPC   C1A15963  34.491  35.332   8.670
 1070POPC   D2A15964  34.670  35.170   8.264
 1070POPC   C3A15965  34.373  35.200   7.927
 1070POPC   C4A15966  34.315  35.467   7.602
 1070POPC   C1B15967  34.846  35.645   8.891
 1070POPC   C2B15968  34.634  35.817   8.526
 1070POPC   C3B15969  34.505  35.644   8.149
 1070POPC   C4B15970  34.784  35.486   7.818
 1071POPC   NC315971  25.454  20.669   9.828
 1071POPC   PO415972  25.660  20.758   9.226
 1071POPC   GL115973  25.207  20.673   9.179
 1071POPC   GL215974  25.050  20.337   9.218
 1071POPC   C1A15975  24.973  20.641   8.790
 1071POPC   D2A15976  24.942  20.919   8.414
 1071POPC   C3A15977  25.000  20.679   8.035
 1071POPC   C4A15978  25.076  20.883   7.625
 1071POPC   C1B15979  25.259  20.212   8.788
 1071POPC   C2B15980  25.231  20.369   8.390
 1071POPC   C3B15981  25.440  20.353   8.002
 1071POPC   C4B15982  25.186  20.382   7.653
 1072POPC   NC315983  33.628  28.874   9.543
 1072POPC   PO415984  33.764  29.529   9.728
 1072POPC   GL115985  33.793  29.334   9.283
 1072POPC   GL215986  33.942  29.014   9.191
 1072POPC   C1A15987  33.673  29.357   8.839
 1072POPC   D2A15988  33.827  29.273   8.427
 1072POPC   C3A15989  33.627  29.414   8.073
 1072POPC   C4A15990  33.628  29.215   7.728
 1072POPC   C1B15991  34.011  28.946   8.785
 1072POPC   C2B15992  33.953  28.733   8.419
 1072POPC   C3B15993  33.953  28.950   8.016
 1072POPC   C4B15994  34.125  29.388   7.892
 1073POPC   NC315995  16.329  10.678   9.783
 1073POPC   PO415996  16.799  10.982   9.486
 1073POPC   GL115997  16.832  10.722   9.129
 1073POPC   GL215998  16.546  10.536   9.139
 1073POPC   C1A15999  16.781  10.849   8.706
 1073POPC   D2A16000  17.063  10.899   8.358
 1073POPC   C3A16001  16.833  10.814   7.971
 1073POPC   C4A16002  16.812  10.520   7.620
 1073POPC   C1B16003  16.499  10.391   8.709
 1073POPC   C2B16004  16.411  10.533   8.275
 1073POPC   C3B16005  16.536  10.247   7.931
 1073POPC   C4B16006  16.487  10.128   7.468
 1074POPC   NC316007  13.580  14.530   9.411
 1074POPC   PO416008  13.728  13.847   9.525
 1074POPC   GL116009  13.643  14.084   9.141
 1074POPC   GL216010  13.907  14.357   9.063
 1074POPC   C1A16011  13.530  14.235   8.719
 1074POPC   D2A16012  13.304  14.190   8.315
 1074POPC   C3A16013  13.520  14.304   7.922
 1074POPC   C4A16014  13.383  14.578   7.561
 1074POPC   C1B16015  13.757  14.671   8.735
 1074POPC   C2B16016  13.538  14.671   8.326
 1074POPC   C3B16017  13.699  14.805   7.908
 1074POPC   C4B16018  13.872  14.701   7.493
 1075POPC   NC316019  24.491   5.454   9.400
 1075POPC   PO416020  24.664   6.138   9.536
 1075POPC   GL116021  24.377   5.962   9.217
 1075POPC   GL216022  24.670   5.808   9.077
 1075POPC   C1A16023  24.262   5.736   8.797
 1075POPC   D2A16024  24.467   5.778   8.383
 1075POPC   C3A16025  24.288   5.839   7.951
 1075POPC   C4A16026  24.475   5.798   7.546
 1075POPC   C1B16027  24.927   5.889   8.696
 1075POPC   C2B16028  24.925   5.960   8.258
 1075POPC   C3B16029  24.822   5.753   7.908
 1075POPC   C4B16030  24.981   5.807   7.498
 1076POPC   NC316031  43.749  29.750   9.447
 1076POPC   PO416032  44.125  30.231   9.654
 1076POPC   GL116033  43.871  30.174   9.177
 1076POPC   GL216034  43.935  29.804   8.994
 1076POPC   C1A16035  43.962  30.207   8.686
 1076POPC   D2A16036  44.191  29.820   8.521
 1076POPC   C3A16037  44.157  29.766   8.082
 1076POPC   C4A16038  43.804  29.893   7.823
 1076POPC   C1B16039  43.650  29.820   8.654
 1076POPC   C2B16040  43.660  30.095   8.285
 1076POPC   C3B16041  43.467  30.293   7.911
 1076POPC   C4B16042  43.369  30.005   7.572
 1077POPC   NC316043   7.670  34.175   9.206
 1077POPC   PO416044   7.364  34.680   9.561
 1077POPC   GL116045   7.317  34.642   9.107
 1077POPC   GL216046   7.318  34.346   8.891
 1077POPC   C1A16047   7.239  34.797   8.670
 1077POPC   D2A16048   7.058  34.695   8.259
 1077POPC   C3A16049   7.427  34.659   8.009
 1077POPC   C4A16050   7.517  34.672   7.577
 1077POPC   C1B16051   7.030  34.254   8.581
 1077POPC   C2B16052   7.150  34.174   8.146
 1077POPC   C3B16053   7.460  34.171   7.787
 1077POPC   C4B16054   7.430  34.252   7.320
 1078POPC   NC316055   1.563  22.326   9.852
 1078POPC   PO416056   1.907  21.787   9.594
 1078POPC   GL116057   1.979  22.038   9.193
 1078POPC   GL216058   1.743  21.931   8.938
 1078POPC   C1A16059   1.997  22.334   8.819
 1078POPC   D2A16060   1.873  22.149   8.448
 1078POPC   C3A16061   1.916  22.406   8.110
 1078POPC   C4A16062   2.081  22.303   7.755
 1078POPC   C1B16063   1.433  21.924   8.608
 1078POPC   C2B16064   1.344  21.705   8.237
 1078POPC   C3B16065   1.655  21.945   7.968
 1078POPC   C4B16066   1.673  22.099   7.559
 1079POPC   NC316067   4.001  33.874   9.549
 1079POPC   PO416068   3.418  33.515   9.488
 1079POPC   GL116069   3.436  33.640   9.077
 1079POPC   GL216070   3.693  33.895   9.131
 1079POPC   C1A16071   3.383  33.952   8.729
 1079POPC   D2A16072   3.555  34.006   8.304
 1079POPC   C3A16073   3.343  33.696   8.021
 1079POPC   C4A16074   3.063  33.668   7.689
 1079POPC   C1B16075   3.933  34.052   8.785
 1079POPC   C2B16076   4.034  34.246   8.381
 1079POPC   C3B16077   3.990  34.074   7.974
 1079POPC   C4B16078   3.784  33.718   7.776
 1080POPC   NC316079   7.835  21.536   9.676
 1080POPC   PO416080   8.438  21.228   9.468
 1080POPC   GL116081   8.256  21.465   9.128
 1080POPC   GL216082   7.965  21.611   9.128
 1080POPC   C1A16083   8.182  21.411   8.700
 1080POPC   D2A16084   8.285  21.635   8.324
 1080POPC   C3A16085   8.351  21.338   7.994
 1080POPC   C4A16086   8.518  21.099   7.645
 1080POPC   C1B16087   7.706  21.606   8.744
 1080POPC   C2B16088   7.789  21.402   8.357
 1080POPC   C3B16089   7.874  21.622   8.021
 1080POPC   C4B16090   8.124  21.693   7.727
 1081POPC   NC316091  42.215  29.713   9.503
 1081POPC   PO416092  42.619  30.212   9.273
 1081POPC   GL116093  42.397  30.197   8.955
 1081POPC   GL216094  42.215  29.887   8.983
 1081POPC   C1A16095  42.308  30.163   8.542
 1081POPC   D2A16096  42.171  30.107   8.147
 1081POPC   C3A16097  42.423  30.237   7.824
 1081POPC   C4A16098  42.709  30.117   7.502
 1081POPC   C1B16099  42.231  29.656   8.576
 1081POPC   C2B16100  42.051  29.606   8.159
 1081POPC   C3B16101  42.033  29.806   7.738
 1081POPC   C4B16102  41.909  29.593   7.320
 1082POPC   NC316103  11.770  41.846   9.457
 1082POPC   PO416104  11.289  41.488   9.777
 1082POPC   GL116105  11.294  41.605   9.326
 1082POPC   GL216106  11.113  41.388   9.143
 1082POPC   C1A16107  11.505  41.680   8.894
 1082POPC   D2A16108  11.541  41.539   8.477
 1082POPC   C3A16109  11.457  41.644   8.047
 1082POPC   C4A16110  11.231  41.430   7.717
 1082POPC   C1B16111  11.030  41.661   8.762
 1082POPC   C2B16112  11.094  41.845   8.360
 1082POPC   C3B16113  10.945  41.753   7.968
 1082POPC   C4B16114  10.750  41.587   7.596
 1083POPC   NC316115  44.493  11.223   9.446
 1083POPC   PO416116  44.853  10.756   9.692
 1083POPC   GL116117  44.938  11.074   9.263
 1083POPC   GL216118  44.907  11.426   9.190
 1083POPC   C1A16119  44.814  11.124   8.784
 1083POPC   D2A16120  44.452  11.224   8.485
 1083POPC   C3A16121  44.579  11.330   8.056
 1083POPC   C4A16122  44.900  11.192   7.796
 1083POPC   C1B16123  44.829  11.641   8.805
 1083POPC   C2B16124  44.913  11.535   8.396
 1083POPC   C3B16125   0.011  11.731   8.026
 1083POPC   C4B16126  44.803  11.697   7.651
 1084POPC   NC316127  19.402  41.369   9.354
 1084POPC   PO416128  18.702  41.234   9.608
 1084POPC   GL116129  18.656  41.226   9.169
 1084POPC   GL216130  18.999  41.239   9.059
 1084POPC   C1A16131  18.640  41.443   8.764
 1084POPC   D2A16132  18.917  41.508   8.431
 1084POPC   C3A16133  18.790  41.544   8.035
 1084POPC   C4A16134  18.771  41.300   7.684
 1084POPC   C1B16135  19.304  41.351   8.728
 1084POPC   C2B16136  19.374  41.341   8.295
 1084POPC   C3B16137  19.327  41.557   7.928
 1084POPC   C4B16138  19.654  41.544   7.625
 1085POPC   NC316139  33.248  39.518   9.872
 1085POPC   PO416140  32.948  40.049   9.499
 1085POPC   GL116141  33.087  40.108   9.115
 1085POPC   GL216142  33.327  40.322   9.119
 1085POPC   C1A16143  32.979  39.985   8.726
 1085POPC   D2A16144  33.175  39.874   8.380
 1085POPC   C3A16145  32.981  40.005   8.021
 1085POPC   C4A16146  33.030  40.079   7.631
 1085POPC   C1B16147  33.288  40.385   8.663
 1085POPC   C2B16148  33.026  40.390   8.326
 1085POPC   C3B16149  33.061  40.494   7.910
 1085POPC   C4B16150  33.424  40.470   7.633
 1086POPC   NC316151  37.786  36.534   9.725
 1086POPC   PO416152  37.361  37.049   9.504
 1086POPC   GL116153  37.514  36.949   9.146
 1086POPC   GL216154  37.879  36.890   9.165
 1086POPC   C1A16155  37.512  37.017   8.757
 1086POPC   D2A16156  37.206  36.879   8.499
 1086POPC   C3A16157  37.420  36.735   8.159
 1086POPC   C4A16158  37.396  36.918   7.761
 1086POPC   C1B16159  37.917  36.550   8.853
 1086POPC   C2B16160  37.826  36.480   8.392
 1086POPC   C3B16161  37.876  36.628   7.946
 1086POPC   C4B16162  37.882  36.919   7.565
 1087POPC   NC316163  15.512  13.053   9.909
 1087POPC   PO416164  15.063  12.893   9.392
 1087POPC   GL116165  15.241  12.715   9.032
 1087POPC   GL216166  15.415  12.995   8.819
 1087POPC   C1A16167  15.171  12.584   8.612
 1087POPC   D2A16168  14.885  12.696   8.303
 1087POPC   C3A16169  14.925  13.128   8.181
 1087POPC   C4A16170  14.814  13.196   7.761
 1087POPC   C1B16171  15.658  12.800   8.503
 1087POPC   C2B16172  15.396  12.721   8.162
 1087POPC   C3B16173  15.323  12.954   7.841
 1087POPC   C4B16174  15.287  13.358   7.861
 1088POPC   NC316175  18.001  21.225   9.386
 1088POPC   PO416176  17.944  20.559   9.471
 1088POPC   GL116177  18.167  20.678   9.100
 1088POPC   GL216178  18.171  20.307   9.057
 1088POPC   C1A16179  18.097  20.933   8.718
 1088POPC   D2A16180  17.831  20.738   8.405
 1088POPC   C3A16181  18.050  20.635   8.039
 1088POPC   C4A16182  18.352  20.814   7.788
 1088POPC   C1B16183  18.259  20.438   8.643
 1088POPC   C2B16184  18.447  20.732   8.360
 1088POPC   C3B16185  18.568  20.457   8.052
 1088POPC   C4B16186  18.292  20.259   7.774
 1089POPC   NC316187  25.098  32.432   9.491
 1089POPC   PO416188  25.452  31.798   9.376
 1089POPC   GL116189  25.188  31.982   9.054
 1089POPC   GL216190  25.129  32.355   9.002
 1089POPC   C1A16191  25.236  32.047   8.625
 1089POPC   D2A16192  25.145  32.331   8.333
 1089POPC   C3A16193  25.329  32.098   8.027
 1089POPC   C4A16194  25.158  32.118   7.660
 1089POPC   C1B16195  25.500  32.458   8.768
 1089POPC   C2B16196  25.639  32.463   8.342
 1089POPC   C3B16197  25.515  32.564   7.943
 1089POPC   C4B16198  25.638  32.300   7.621
 1090POPC   NC316199  26.088  44.410   9.384
 1090POPC   PO416200  26.276   0.078   9.522
 1090POPC   GL116201  26.216  44.877   9.144
 1090POPC   GL216202  26.429  44.599   9.035
 1090POPC   C1A16203  26.073  44.853   8.742
 1090POPC   D2A16204  26.314  44.737   8.400
 1090POPC   C3A16205  26.081  44.816   8.049
 1090POPC   C4A16206  25.824  44.530   7.805
 1090POPC   C1B16207  26.229  44.277   8.761
 1090POPC   C2B16208  26.101  44.156   8.357
 1090POPC   C3B16209  26.288  44.373   8.034
 1090POPC   C4B16210  26.407  44.541   7.681
 1091POPC   NC316211  33.713  35.258   9.407
 1091POPC   PO416212  34.256  35.620   9.239
 1091POPC   GL116213  33.961  35.439   8.984
 1091POPC   GL216214  33.642  35.615   9.054
 1091POPC   C1A16215  33.720  35.237   8.665
 1091POPC   D2A16216  33.649  35.015   8.292
 1091POPC   C3A16217  33.839  35.247   7.954
 1091POPC   C4A16218  33.687  35.260   7.545
 1091POPC   C1B16219  33.723  35.766   8.644
 1091POPC   C2B16220  33.806  35.756   8.204
 1091POPC   C3B16221  33.589  35.679   7.810
 1091POPC   C4B16222  33.451  35.703   7.362
 1092POPC   NC316223  21.272  15.394   9.622
 1092POPC   PO416224  21.260  14.781   9.254
 1092POPC   GL116225  21.526  15.089   9.142
 1092POPC   GL216226  21.331  15.394   9.111
 1092POPC   C1A16227  21.606  15.136   8.717
 1092POPC   D2A16228  21.360  15.120   8.376
 1092POPC   C3A16229  21.457  14.880   8.043
 1092POPC   C4A16230  21.087  14.848   7.798
 1092POPC   C1B16231  21.253  15.544   8.687
 1092POPC   C2B16232  21.437  15.611   8.269
 1092POPC   C3B16233  21.322  15.361   7.906
 1092POPC   C4B16234  20.994  15.406   7.608
 1093POPC   NC316235  23.703  37.635   9.788
 1093POPC   PO416236  23.076  37.784   9.508
 1093POPC   GL116237  22.771  37.674   9.205
 1093POPC   GL216238  23.032  37.523   8.990
 1093POPC   C1A16239  22.655  37.831   8.802
 1093POPC   D2A16240  22.947  37.794   8.473
 1093POPC   C3A16241  22.796  37.742   8.066
 1093POPC   C4A16242  22.740  38.003   7.745
 1093POPC   C1B16243  22.791  37.365   8.651
 1093POPC   C2B16244  22.982  37.309   8.256
 1093POPC   C3B16245  23.240  37.483   7.961
 1093POPC   C4B16246  23.137  37.461   7.528
 1094POPC   NC316247  13.013  42.770   9.490
 1094POPC   PO416248  12.383  42.957   9.408
 1094POPC   GL116249  12.668  43.101   9.076
 1094POPC   GL216250  12.976  43.279   9.172
 1094POPC   C1A16251  12.901  43.073   8.676
 1094POPC   D2A16252  13.096  42.906   8.304
 1094POPC   C3A16253  12.807  43.071   8.048
 1094POPC   C4A16254  12.678  43.152   7.668
 1094POPC   C1B16255  13.243  43.429   8.771
 1094POPC   C2B16256  13.110  43.427   8.360
 1094POPC   C3B16257  13.290  43.300   8.018
 1094POPC   C4B16258  13.197  43.281   7.648
 1095POPC   NC316259   0.495  39.222   9.399
 1095POPC   PO416260  44.921  39.280   9.715
 1095POPC   GL116261   0.016  39.058   9.244
 1095POPC   GL216262   0.291  38.823   9.132
 1095POPC   C1A16263   0.119  39.119   8.755
 1095POPC   D2A16264   0.391  39.382   8.468
 1095POPC   C3A16265   0.486  39.375   8.011
 1095POPC   C4A16266   0.858  39.615   7.811
 1095POPC   C1B16267   0.589  38.910   8.756
 1095POPC   C2B16268   0.458  38.894   8.291
 1095POPC   C3B16269   0.381  38.860   7.829
 1095POPC   C4B16270   0.441  38.902   7.328
 1096POPC   NC316271   8.507   6.022   9.552
 1096POPC   PO416272   8.115   5.450   9.513
 1096POPC   GL116273   8.272   5.613   9.155
 1096POPC   GL216274   8.574   5.741   9.134
 1096POPC   C1A16275   8.039   5.883   8.863
 1096POPC   D2A16276   7.900   6.053   8.443
 1096POPC   C3A16277   8.102   5.872   8.026
 1096POPC   C4A16278   8.047   5.993   7.589
 1096POPC   C1B16279   8.543   5.946   8.766
 1096POPC   C2B16280   8.406   6.063   8.406
 1096POPC   C3B16281   8.524   6.145   8.017
 1096POPC   C4B16282   8.592   5.832   7.710
 1097POPC   NC316283   5.120   7.077   9.420
 1097POPC   PO416284   5.393   7.720   9.633
 1097POPC   GL116285   5.183   7.569   9.187
 1097POPC   GL216286   4.850   7.722   9.091
 1097POPC   C1A16287   5.276   7.477   8.708
 1097POPC   D2A16288   5.308   7.542   8.208
 1097POPC   C3A16289   5.209   7.182   7.873
 1097POPC   C4A16290   4.929   7.123   7.480
 1097POPC   C1B16291   4.775   7.518   8.689
 1097POPC   C2B16292   4.816   7.711   8.301
 1097POPC   C3B16293   4.854   7.536   7.900
 1097POPC   C4B16294   4.839   7.642   7.476
 1098POPC   NC316295  19.016   7.773   9.461
 1098POPC   PO416296  18.984   7.240   9.692
 1098POPC   GL116297  18.915   7.335   9.250
 1098POPC   GL216298  19.251   7.303   9.162
 1098POPC   C1A16299  18.884   7.588   8.842
 1098POPC   D2A16300  19.028   7.683   8.435
 1098POPC   C3A16301  18.820   7.504   8.113
 1098POPC   C4A16302  18.899   7.660   7.741
 1098POPC   C1B16303  19.359   7.422   8.744
 1098POPC   C2B16304  19.376   7.307   8.324
 1098POPC   C3B16305  19.269   7.352   7.910
 1098POPC   C4B16306  19.249   7.454   7.450
 1099POPC   NC316307  21.738  37.246   9.736
 1099POPC   PO416308  21.301  37.715   9.397
 1099POPC   GL116309  21.416  37.657   9.029
 1099POPC   GL216310  21.708  37.867   9.041
 1099POPC   C1A16311  21.160  37.564   8.688
 1099POPC   D2A16312  21.090  37.719   8.298
 1099POPC   C3A16313  21.195  37.423   7.999
 1099POPC   C4A16314  21.414  37.742   7.783
 1099POPC   C1B16315  21.746  37.606   8.649
 1099POPC   C2B16316  21.609  37.594   8.251
 1099POPC   C3B16317  21.877  37.545   7.895
 1099POPC   C4B16318  21.801  37.547   7.457
 1100POPC   NC316319   1.869   0.734   9.811
 1100POPC   PO416320   2.214   0.260   9.573
 1100POPC   GL116321   1.947   0.314   9.184
 1100POPC   GL216322   1.845   0.599   8.963
 1100POPC   C1A16323   1.959   0.177   8.744
 1100POPC   D2A16324   1.751   0.338   8.373
 1100POPC   C3A16325   2.028   0.276   8.013
 1100POPC   C4A16326   2.177   0.308   7.587
 1100POPC   C1B16327   2.019   0.742   8.633
 1100POPC   C2B16328   1.963   0.782   8.226
 1100POPC   C3B16329   1.869   0.782   7.808
 1100POPC   C4B16330   1.981   0.774   7.407
 1101POPC   NC316331  29.892  33.165   9.619
 1101POPC   PO416332  29.179  33.242   9.401
 1101POPC   GL116333  29.647  33.199   9.182
 1101POPC   GL216334  29.934  32.904   9.206
 1101POPC   C1A16335  29.924  33.315   8.811
 1101POPC   D2A16336  30.198  33.374   8.454
 1101POPC   C3A16337  30.117  33.122   8.090
 1101POPC   C4A16338  30.073  33.140   7.650
 1101POPC   C1B16339  29.754  32.835   8.831
 1101POPC   C2B16340  29.526  32.799   8.491
 1101POPC   C3B16341  29.636  32.812   8.092
 1101POPC   C4B16342  29.613  32.777   7.664
 1102POPC   NC316343  41.184  18.576   9.339
 1102POPC   PO416344  40.659  18.320   9.577
 1102POPC   GL116345  40.808  18.253   9.131
 1102POPC   GL216346  40.973  18.529   8.884
 1102POPC   C1A16347  40.534  18.262   8.784
 1102POPC   D2A16348  40.491  18.240   8.339
 1102POPC   C3A16349  40.816  18.472   8.143
 1102POPC   C4A16350  40.924  18.609   7.736
 1102POPC   C1B16351  41.033  18.149   8.639
 1102POPC   C2B16352  41.014  17.928   8.244
 1102POPC   C3B16353  40.980  18.075   7.835
 1102POPC   C4B16354  41.322  18.250   7.644
 1103POPC   NC316355  12.761  12.004   9.622
 1103POPC   PO416356  13.004  12.589   9.712
 1103POPC   GL116357  13.023  12.326   9.277
 1103POPC   GL216358  13.047  11.943   9.188
 1103POPC   C1A16359  12.867  12.241   8.814
 1103POPC   D2A16360  12.511  12.248   8.506
 1103POPC   C3A16361  12.655  12.159   8.091
 1103POPC   C4A16362  12.570  12.292   7.696
 1103POPC   C1B16363  12.727  11.731   8.887
 1103POPC   C2B16364  12.711  11.718   8.419
 1103POPC   C3B16365  12.604  11.660   7.962
 1103POPC   C4B16366  12.815  11.858   7.615
 1104POPC   NC316367  27.864  36.720   9.600
 1104POPC   PO416368  27.228  36.886   9.563
 1104POPC   GL116369  27.587  36.943   9.252
 1104POPC   GL216370  27.552  36.582   9.230
 1104POPC   C1A16371  27.795  37.090   8.848
 1104POPC   D2A16372  27.504  37.088   8.485
 1104POPC   C3A16373  27.622  37.042   8.055
 1104POPC   C4A16374  27.712  37.052   7.601
 1104POPC   C1B16375  27.576  36.649   8.797
 1104POPC   C2B16376  27.844  36.681   8.432
 1104POPC   C3B16377  27.753  36.552   8.015
 1104POPC   C4B16378  27.832  36.506   7.610
 1105POPC   NC316379  16.405  11.016   9.257
 1105POPC   PO416380  16.553  11.552   9.602
 1105POPC   GL116381  16.752  11.607   9.189
 1105POPC   GL216382  16.790  11.275   9.059
 1105POPC   C1A16383  16.714  11.668   8.732
 1105POPC   D2A16384  16.739  11.306   8.442
 1105POPC   C3A16385  16.651  11.350   7.998
 1105POPC   C4A16386  16.567  11.429   7.570
 1105POPC   C1B16387  17.123  11.323   8.804
 1105POPC   C2B16388  17.271  11.387   8.399
 1105POPC   C3B16389  17.150  11.261   7.999
 1105POPC   C4B16390  17.054  11.417   7.629
 1106POPC   NC316391  12.152  36.434   9.453
 1106POPC   PO416392  11.545  36.294   9.769
 1106POPC   GL116393  11.694  36.209   9.262
 1106POPC   GL216394  11.807  36.469   9.036
 1106POPC   C1A16395  11.947  36.031   8.835
 1106POPC   D2A16396  12.261  36.006   8.444
 1106POPC   C3A16397  12.143  35.905   7.986
 1106POPC   C4A16398  12.218  35.765   7.540
 1106POPC   C1B16399  11.966  36.575   8.634
 1106POPC   C2B16400  12.016  36.414   8.243
 1106POPC   C3B16401  12.103  36.384   7.828
 1106POPC   C4B16402  12.109  36.376   7.396
 1107POPC   NC316403  18.503  44.121   9.504
 1107POPC   PO416404  18.559  43.502   9.416
 1107POPC   GL116405  18.463  43.796   9.070
 1107POPC   GL216406  18.164  44.004   9.120
 1107POPC   C1A16407  18.395  43.754   8.623
 1107POPC   D2A16408  18.179  43.821   8.232
 1107POPC   C3A16409  18.499  43.803   7.890
 1107POPC   C4A16410  18.788  43.699   7.504
 1107POPC   C1B16411  18.092  44.186   8.722
 1107POPC   C2B16412  18.231  44.318   8.317
 1107POPC   C3B16413  18.130  44.216   7.878
 1107POPC   C4B16414  17.943  43.836   7.761
 1108POPC   NC316415  40.567  11.448   9.680
 1108POPC   PO416416  40.863  10.882   9.650
 1108POPC   GL116417  40.811  11.215   9.281
 1108POPC   GL216418  40.491  11.446   9.179
 1108POPC   C1A16419  40.871  11.404   8.862
 1108POPC   D2A16420  40.815  11.145   8.544
 1108POPC   C3A16421  40.909  11.234   8.123
 1108POPC   C4A16422  41.094  11.175   7.749
 1108POPC   C1B16423  40.344  11.319   8.763
 1108POPC   C2B16424  40.217  11.087   8.395
 1108POPC   C3B16425  40.359  11.287   8.050
 1108POPC   C4B16426  40.620  11.389   7.711
 1109POPC   NC316427  26.065  14.877   9.484
 1109POPC   PO416428  26.013  14.235   9.551
 1109POPC   GL116429  26.177  14.215   9.127
 1109POPC   GL216430  26.276  14.571   9.128
 1109POPC   C1A16431  26.134  14.043   8.671
 1109POPC   D2A16432  25.990  14.297   8.289
 1109POPC   C3A16433  25.983  14.294   7.816
 1109POPC   C4A16434  26.366  14.286   7.580
 1109POPC   C1B16435  26.006  14.622   8.788
 1109POPC   C2B16436  26.038  14.795   8.392
 1109POPC   C3B16437  26.231  14.680   8.038
 1109POPC   C4B16438  26.186  14.755   7.645
 1110POPC   NC316439  16.376  40.660   9.442
 1110POPC   PO416440  17.035  40.869   9.529
 1110POPC   GL116441  16.794  40.870   9.157
 1110POPC   GL216442  16.794  40.513   9.155
 1110POPC   C1A16443  16.621  40.923   8.710
 1110POPC   D2A16444  16.485  41.042   8.253
 1110POPC   C3A16445  16.527  40.991   7.766
 1110POPC   C4A16446  16.571  40.932   7.288
 1110POPC   C1B16447  16.665  40.424   8.770
 1110POPC   C2B16448  16.794  40.586   8.365
 1110POPC   C3B16449  16.586  40.525   7.991
 1110POPC   C4B16450  16.505  40.511   7.556
 1111POPC   NC316451   3.126  20.128   9.565
 1111POPC   PO416452   2.627  19.670   9.445
 1111POPC   GL116453   2.851  19.730   9.104
 1111POPC   GL216454   2.908  20.079   9.120
 1111POPC   C1A16455   2.646  19.883   8.728
 1111POPC   D2A16456   2.780  19.820   8.327
 1111POPC   C3A16457   2.564  19.813   7.942
 1111POPC   C4A16458   2.609  19.850   7.493
 1111POPC   C1B16459   3.165  19.950   8.764
 1111POPC   C2B16460   3.277  19.978   8.333
 1111POPC   C3B16461   3.069  19.956   7.945
 1111POPC   C4B16462   3.111  19.726   7.624
 1112POPC   NC316463   7.897  44.185   9.537
 1112POPC   PO416464   8.533  43.799   9.483
 1112POPC   GL116465   8.427  43.927   9.094
 1112POPC   GL216466   8.114  44.049   9.105
 1112POPC   C1A16467   8.355  43.782   8.680
 1112POPC   D2A16468   8.389  43.673   8.239
 1112POPC   C3A16469   8.437  44.024   7.958
 1112POPC   C4A16470   8.310  43.757   7.650
 1112POPC   C1B16471   7.867  43.894   8.788
 1112POPC   C2B16472   7.998  44.011   8.378
 1112POPC   C3B16473   7.931  43.838   8.012
 1112POPC   C4B16474   7.843  43.964   7.637
 1113POPC   NC316475   3.018  19.367   9.459
 1113POPC   PO416476   2.822  18.699   9.588
 1113POPC   GL116477   2.785  18.996   9.208
 1113POPC   GL216478   2.422  18.921   9.210
 1113POPC   C1A16479   2.974  19.258   8.801
 1113POPC   D2A16480   3.130  19.460   8.395
 1113POPC   C3A16481   2.922  19.392   8.001
 1113POPC   C4A16482   2.743  18.976   7.825
 1113POPC   C1B16483   2.452  19.219   8.862
 1113POPC   C2B16484   2.591  19.347   8.451
 1113POPC   C3B16485   2.415  19.334   8.051
 1113POPC   C4B16486   2.270  19.123   7.684
 1114POPC   NC316487   4.754  30.000   9.460
 1114POPC   PO416488   5.432  29.854   9.529
 1114POPC   GL116489   5.160  29.932   9.151
 1114POPC   GL216490   4.891  29.717   9.057
 1114POPC   C1A16491   5.084  30.017   8.705
 1114POPC   D2A16492   5.065  29.713   8.374
 1114POPC   C3A16493   5.034  29.984   8.000
 1114POPC   C4A16494   5.403  30.125   7.782
 1114POPC   C1B16495   4.678  29.452   8.729
 1114POPC   C2B16496   4.581  29.444   8.285
 1114POPC   C3B16497   4.911  29.478   7.948
 1114POPC   C4B16498   5.277  29.638   7.687
 1115POPC   NC316499  18.718  40.793   9.475
 1115POPC   PO416500  19.370  40.905   9.282
 1115POPC   GL116501  19.187  40.783   8.912
 1115POPC   GL216502  18.860  40.730   9.008
 1115POPC   C1A16503  18.967  40.996   8.576
 1115POPC   D2A16504  18.975  41.074   8.128
 1115POPC   C3A16505  19.204  41.067   7.761
 1115POPC   C4A16506  19.272  40.709   7.475
 1115POPC   C1B16507  18.663  40.510   8.704
 1115POPC   C2B16508  18.694  40.634   8.293
 1115POPC   C3B16509  18.906  40.632   7.876
 1115POPC   C4B16510  18.725  40.763   7.490
 1116POPC   NC316511  17.998  43.165   9.447
 1116POPC   PO416512  18.579  42.833   9.525
 1116POPC   GL116513  18.427  43.011   9.167
 1116POPC   GL216514  18.137  42.796   9.104
 1116POPC   C1A16515  18.271  43.268   8.812
 1116POPC   D2A16516  18.397  43.179   8.385
 1116POPC   C3A16517  18.273  43.362   8.033
 1116POPC   C4A16518  18.635  43.311   7.813
 1116POPC   C1B16519  18.330  42.778   8.703
 1116POPC   C2B16520  18.190  42.711   8.318
 1116POPC   C3B16521  18.243  42.866   7.917
 1116POPC   C4B16522  17.970  42.778   7.593
 1117POPC   NC316523   7.427  20.623   9.626
 1117POPC   PO416524   6.776  20.580   9.475
 1117POPC   GL116525   7.056  20.445   9.193
 1117POPC   GL216526   7.370  20.627   9.130
 1117POPC   C1A16527   7.036  20.433   8.758
 1117POPC   D2A16528   7.050  20.698   8.397
 1117POPC   C3A16529   7.041  20.509   7.979
 1117POPC   C4A16530   7.161  20.657   7.520
 1117POPC   C1B16531   7.547  20.568   8.737
 1117POPC   C2B16532   7.451  20.401   8.334
 1117POPC   C3B16533   7.536  20.619   7.960
 1117POPC   C4B16534   7.814  20.541   7.682
 1118POPC   NC316535  44.483   5.609   9.450
 1118POPC   PO416536  44.723   6.175   9.635
 1118POPC   GL116537  44.521   6.061   9.231
 1118POPC   GL216538  44.806   5.823   9.119
 1118POPC   C1A16539  44.412   5.872   8.791
 1118POPC   D2A16540  44.482   5.685   8.340
 1118POPC   C3A16541  44.304   5.927   8.009
 1118POPC   C4A16542  44.472   6.068   7.632
 1118POPC   C1B16543   0.007   5.625   8.765
 1118POPC   C2B16544   0.051   5.696   8.342
 1118POPC   C3B16545  44.867   5.872   7.991
 1118POPC   C4B16546  44.983   5.669   7.643
 1119POPC   NC316547  36.854  10.609   9.676
 1119POPC   PO416548  37.188  10.077   9.391
 1119POPC   GL116549  36.861  10.356   9.150
 1119POPC   GL216550  36.812  10.735   9.150
 1119POPC   C1A16551  36.802  10.436   8.690
 1119POPC   D2A16552  37.166  10.391   8.374
 1119POPC   C3A16553  37.020  10.383   7.963
 1119POPC   C4A16554  36.591  10.403   7.814
 1119POPC   C1B16555  36.944  10.933   8.731
 1119POPC   C2B16556  36.928  10.828   8.257
 1119POPC   C3B16557  36.975  10.862   7.789
 1119POPC   C4B16558  37.213  10.768   7.391
 1120POPC   NC316559  21.062   8.262   9.386
 1120POPC   PO416560  21.664   7.980   9.493
 1120POPC   GL116561  21.511   8.184   9.146
 1120POPC   GL216562  21.296   7.878   9.108
 1120POPC   C1A16563  21.451   8.460   8.782
 1120POPC   D2A16564  21.109   8.387   8.451
 1120POPC   C3A16565  21.291   8.264   8.057
 1120POPC   C4A16566  21.684   8.405   7.881
 1120POPC   C1B16567  21.472   7.950   8.689
 1120POPC   C2B16568  21.688   7.983   8.267
 1120POPC   C3B16569  21.580   7.853   7.846
 1120POPC   C4B16570  21.265   7.668   7.538
 1121POPC   NC316571  36.293   4.151   9.515
 1121POPC   PO416572  35.675   4.434   9.565
 1121POPC   GL116573  35.905   4.406   9.167
 1121POPC   GL216574  36.165   4.658   9.164
 1121POPC   C1A16575  36.101   4.219   8.773
 1121POPC   D2A16576  36.396   4.240   8.410
 1121POPC   C3A16577  36.209   4.144   8.003
 1121POPC   C4A16578  35.975   4.162   7.565
 1121POPC   C1B16579  36.038   4.728   8.750
 1121POPC   C2B16580  36.035   4.576   8.332
 1121POPC   C3B16581  35.793   4.425   8.002
 1121POPC   C4B16582  35.644   4.642   7.647
 1122POPC   NC316583  36.151  15.751   9.545
 1122POPC   PO416584  36.421  16.307   9.374
 1122POPC   GL116585  36.363  15.983   9.128
 1122POPC   GL216586  36.012  16.021   9.127
 1122POPC   C1A16587  36.325  15.896   8.719
 1122POPC   D2A16588  36.217  16.058   8.334
 1122POPC   C3A16589  36.428  15.762   8.080
 1122POPC   C4A16590  36.440  15.825   7.647
 1122POPC   C1B16591  35.772  15.877   8.790
 1122POPC   C2B16592  35.518  15.885   8.416
 1122POPC   C3B16593  35.763  16.012   8.059
 1122POPC   C4B16594  35.975  15.717   7.848
 1123POPC   NC316595   3.760   4.013   9.481
 1123POPC   PO416596   3.276   4.467   9.724
 1123POPC   GL116597   3.435   4.397   9.273
 1123POPC   GL216598   3.247   4.095   9.311
 1123POPC   C1A16599   3.659   4.183   8.867
 1123POPC   D2A16600   3.962   4.282   8.501
 1123POPC   C3A16601   3.797   4.294   8.045
 1123POPC   C4A16602   3.774   4.453   7.620
 1123POPC   C1B16603   3.170   4.024   8.878
 1123POPC   C2B16604   3.286   4.232   8.491
 1123POPC   C3B16605   3.268   4.131   8.058
 1123POPC   C4B16606   3.471   4.040   7.672
 1124POPC   NC316607  39.167   3.545   9.420
 1124POPC   PO416608  39.768   3.887   9.432
 1124POPC   GL116609  39.642   3.765   9.030
 1124POPC   GL216610  39.325   3.731   8.984
 1124POPC   C1A16611  39.606   3.779   8.569
 1124POPC   D2A16612  39.270   3.688   8.272
 1124POPC   C3A16613  39.300   3.513   7.888
 1124POPC   C4A16614  38.969   3.535   7.607
 1124POPC   C1B16615  39.247   3.419   8.716
 1124POPC   C2B16616  39.299   3.184   8.348
 1124POPC   C3B16617  39.106   3.049   8.017
 1124POPC   C4B16618  39.330   3.039   7.667
 1125POPC   NC316619  29.509  42.164   9.264
 1125POPC   PO416620  30.115  42.348   9.488
 1125POPC   GL116621  29.937  42.433   9.118
 1125POPC   GL216622  29.673  42.659   9.177
 1125POPC   C1A16623  29.926  42.153   8.762
 1125POPC   D2A16624  30.067  42.046   8.378
 1125POPC   C3A16625  29.820  42.162   8.070
 1125POPC   C4A16626  29.960  42.246   7.693
 1125POPC   C1B16627  29.552  42.568   8.760
 1125POPC   C2B16628  29.797  42.532   8.425
 1125POPC   C3B16629  29.842  42.660   8.023
 1125POPC   C4B16630  29.502  42.469   7.762
 1126POPC   NC316631  36.667  24.410   9.792
 1126POPC   PO416632  36.532  24.923   9.312
 1126POPC   GL116633  36.641  24.575   9.077
 1126POPC   GL216634  36.866  24.376   9.271
 1126POPC   C1A16635  36.648  24.462   8.638
 1126POPC   D2A16636  36.772  24.681   8.254
 1126POPC   C3A16637  36.889  24.368   7.979
 1126POPC   C4A16638  36.627  24.216   7.671
 1126POPC   C1B16639  37.120  24.488   8.876
 1126POPC   C2B16640  37.105  24.320   8.456
 1126POPC   C3B16641  37.362  24.203   8.115
 1126POPC   C4B16642  37.365  24.433   7.716
 1127POPC   NC316643  34.881  13.952   9.451
 1127POPC   PO416644  34.395  13.578   9.532
 1127POPC   GL116645  34.743  13.536   9.182
 1127POPC   GL216646  34.834  13.850   8.976
 1127POPC   C1A16647  34.739  13.360   8.750
 1127POPC   D2A16648  34.375  13.379   8.450
 1127POPC   C3A16649  34.362  13.559   8.045
 1127POPC   C4A16650  34.178  13.563   7.654
 1127POPC   C1B16651  34.494  13.811   8.723
 1127POPC   C2B16652  34.708  13.767   8.351
 1127POPC   C3B16653  34.701  13.970   7.947
 1127POPC   C4B16654  34.650  13.891   7.511
 1128POPC   NC316655   6.465  22.230   9.550
 1128POPC   PO416656   7.097  21.997   9.538
 1128POPC   GL116657   6.784  21.988   9.204
 1128POPC   GL216658   6.718  22.372   9.133
 1128POPC   C1A16659   6.638  22.015   8.772
 1128POPC   D2A16660   6.739  22.253   8.419
 1128POPC   C3A16661   6.631  22.107   8.005
 1128POPC   C4A16662   6.800  22.116   7.592
 1128POPC   C1B16663   6.440  22.508   8.795
 1128POPC   C2B16664   6.255  22.344   8.435
 1128POPC   C3B16665   6.331  22.502   8.044
 1128POPC   C4B16666   6.549  22.579   7.647
 1129POPC   NC316667  33.831   6.893   9.530
 1129POPC   PO416668  33.379   6.356   9.402
 1129POPC   GL116669  33.624   6.481   9.039
 1129POPC   GL216670  33.677   6.856   9.047
 1129POPC   C1A16671  33.749   6.518   8.620
 1129POPC   D2A16672  33.604   6.799   8.289
 1129POPC   C3A16673  33.658   6.514   8.018
 1129POPC   C4A16674  33.715   6.391   7.651
 1129POPC   C1B16675  33.950   6.977   8.684
 1129POPC   C2B16676  34.109   6.785   8.282
 1129POPC   C3B16677  34.027   6.822   7.838
 1129POPC   C4B16678  33.619   6.931   7.704
 1130POPC   NC316679  23.281  29.605   9.539
 1130POPC   PO416680  22.646  29.578   9.494
 1130POPC   GL116681  22.976  29.873   9.232
 1130POPC   GL216682  23.108  30.189   9.129
 1130POPC   C1A16683  23.161  29.855   8.775
 1130POPC   D2A16684  22.797  29.888   8.526
 1130POPC   C3A16685  22.668  30.179   8.204
 1130POPC   C4A16686  22.563  29.909   7.858
 1130POPC   C1B16687  23.012  30.347   8.748
 1130POPC   C2B16688  23.174  30.241   8.382
 1130POPC   C3B16689  23.140  29.927   8.100
 1130POPC   C4B16690  22.999  30.154   7.784
 1131POPC   NC316691   0.649   8.674   9.815
 1131POPC   PO416692   0.633   8.125   9.466
 1131POPC   GL116693   0.492   8.135   9.095
 1131POPC   GL216694   0.369   8.468   9.093
 1131POPC   C1A16695   0.242   7.928   8.796
 1131POPC   D2A16696   0.186   8.018   8.345
 1131POPC   C3A16697   0.449   8.158   7.981
 1131POPC   C4A16698   0.475   7.912   7.595
 1131POPC   C1B16699   0.377   8.404   8.646
 1131POPC   C2B16700   0.338   8.590   8.257
 1131POPC   C3B16701   0.240   8.603   7.818
 1131POPC   C4B16702   0.331   8.360   7.445
 1132POPC   NC316703  30.040   4.473   9.496
 1132POPC   PO416704  29.404   4.224   9.474
 1132POPC   GL116705  29.696   4.268   9.157
 1132POPC   GL216706  29.760   4.627   9.115
 1132POPC   C1A16707  29.897   4.256   8.770
 1132POPC   D2A16708  30.016   4.046   8.407
 1132POPC   C3A16709  29.969   4.260   8.034
 1132POPC   C4A16710  30.219   4.108   7.697
 1132POPC   C1B16711  30.126   4.721   8.845
 1132POPC   C2B16712  30.103   4.598   8.418
 1132POPC   C3B16713  30.087   4.780   8.020
 1132POPC   C4B16714  30.151   4.617   7.652
 1133POPC   NC316715  42.913  26.244   9.820
 1133POPC   PO416716  43.385  25.899   9.489
 1133POPC   GL116717  43.342  26.037   9.110
 1133POPC   GL216718  43.384  26.400   9.147
 1133POPC   C1A16719  43.222  25.879   8.724
 1133POPC   D2A16720  42.988  26.045   8.362
 1133POPC   C3A16721  43.141  25.891   7.976
 1133POPC   C4A16722  42.931  25.762   7.611
 1133POPC   C1B16723  43.183  26.397   8.707
 1133POPC   C2B16724  42.992  26.567   8.293
 1133POPC   C3B16725  42.911  26.341   7.883
 1133POPC   C4B16726  42.794  26.219   7.446
 1134POPC   NC316727  41.958  40.310   9.325
 1134POPC   PO416728  41.308  40.047   9.446
 1134POPC   GL116729  41.492  40.232   9.130
 1134POPC   GL216730  41.219  40.380   8.988
 1134POPC   C1A16731  41.712  40.103   8.760
 1134POPC   D2A16732  41.897  40.294   8.410
 1134POPC   C3A16733  41.769  40.138   8.054
 1134POPC   C4A16734  41.770  39.923   7.702
 1134POPC   C1B16735  41.202  40.008   8.773
 1134POPC   C2B16736  41.400  39.901   8.396
 1134POPC   C3B16737  41.282  39.852   7.974
 1134POPC   C4B16738  41.342  40.219   7.787
 1135POPC   NC316739  15.925  34.856   9.557
 1135POPC   PO416740  15.884  34.207   9.508
 1135POPC   GL116741  16.072  34.467   9.203
 1135POPC   GL216742  15.796  34.636   9.120
 1135POPC   C1A16743  16.073  34.421   8.738
 1135POPC   D2A16744  16.383  34.418   8.419
 1135POPC   C3A16745  16.187  34.475   8.024
 1135POPC   C4A16746  16.139  34.188   7.649
 1135POPC   C1B16747  15.555  34.476   8.804
 1135POPC   C2B16748  15.578  34.377   8.391
 1135POPC   C3B16749  15.554  34.507   7.978
 1135POPC   C4B16750  15.830  34.574   7.665
 1136POPC   NC316751  13.501  26.140   9.417
 1136POPC   PO416752  13.967  25.665   9.377
 1136POPC   GL116753  13.783  25.875   9.062
 1136POPC   GL216754  13.432  25.768   9.068
 1136POPC   C1A16755  13.786  26.246   8.773
 1136POPC   D2A16756  13.596  26.294   8.343
 1136POPC   C3A16757  13.857  26.192   8.014
 1136POPC   C4A16758  13.871  26.005   7.632
 1136POPC   C1B16759  13.475  25.870   8.641
 1136POPC   C2B16760  13.705  25.781   8.290
 1136POPC   C3B16761  13.758  25.597   7.908
 1136POPC   C4B16762  13.419  25.775   7.627
 1137POPC   NC316763  42.875  28.155   9.429
 1137POPC   PO416764  43.423  28.593   9.474
 1137POPC   GL116765  43.340  28.338   9.126
 1137POPC   GL216766  43.028  28.528   9.108
 1137POPC   C1A16767  43.269  28.356   8.665
 1137POPC   D2A16768  42.967  28.210   8.327
 1137POPC   C3A16769  43.149  28.381   7.941
 1137POPC   C4A16770  43.123  28.311   7.500
 1137POPC   C1B16771  42.851  28.631   8.733
 1137POPC   C2B16772  42.983  28.733   8.330
 1137POPC   C3B16773  42.875  28.812   7.922
 1137POPC   C4B16774  42.700  28.552   7.607
 1138POPC   NC316775  33.888   0.766   9.495
 1138POPC   PO416776  33.773   1.449   9.664
 1138POPC   GL116777  33.623   1.187   9.261
 1138POPC   GL216778  33.502   0.827   9.136
 1138POPC   C1A16779  33.768   1.258   8.819
 1138POPC   D2A16780  34.149   1.127   8.519
 1138POPC   C3A16781  34.042   1.167   8.079
 1138POPC   C4A16782  33.575   1.257   7.989
 1138POPC   C1B16783  33.743   0.776   8.718
 1138POPC   C2B16784  33.642   0.823   8.258
 1138POPC   C3B16785  33.783   0.817   7.804
 1138POPC   C4B16786  34.014   0.762   7.394
 1139POPC   NC316787  11.377  30.443   9.716
 1139POPC   PO416788  11.013  30.909   9.566
 1139POPC   GL116789  11.219  30.729   9.203
 1139POPC   GL216790  11.379  31.064   9.161
 1139POPC   C1A16791  11.321  30.530   8.787
 1139POPC   D2A16792  11.525  30.573   8.342
 1139POPC   C3A16793  11.271  30.488   7.949
 1139POPC   C4A16794  10.942  30.370   7.653
 1139POPC   C1B16795  11.557  30.983   8.759
 1139POPC   C2B16796  11.436  31.093   8.362
 1139POPC   C3B16797  11.557  30.927   7.970
 1139POPC   C4B16798  11.361  31.013   7.598
 1140POPC   NC316799   1.440  10.863   9.384
 1140POPC   PO416800   1.154  11.442   9.429
 1140POPC   GL116801   1.224  11.220   9.055
 1140POPC   GL216802   1.015  10.894   9.063
 1140POPC   C1A16803   1.166  11.433   8.657
 1140POPC   D2A16804   1.029  11.429   8.269
 1140POPC   C3A16805   1.220  11.401   7.853
 1140POPC   C4A16806   1.167  11.475   7.389
 1140POPC   C1B16807   1.138  10.901   8.621
 1140POPC   C2B16808   1.184  10.924   8.184
 1140POPC   C3B16809   1.098  10.882   7.777
 1140POPC   C4B16810   1.183  10.900   7.331
 1141POPC   NC316811  16.287  16.088   9.722
 1141POPC   PO416812  16.000  15.596   9.406
 1141POPC   GL116813  15.990  15.853   9.065
 1141POPC   GL216814  16.223  16.085   9.199
 1141POPC   C1A16815  15.900  16.233   8.824
 1141POPC   D2A16816  15.819  16.393   8.386
 1141POPC   C3A16817  15.914  16.049   8.118
 1141POPC   C4A16818  15.999  15.918   7.695
 1141POPC   C1B16819  16.345  15.971   8.740
 1141POPC   C2B16820  16.347  15.816   8.297
 1141POPC   C3B16821  16.461  15.992   7.898
 1141POPC   C4B16822  16.410  16.156   7.465
 1142POPC   NC316823  34.476  18.612   9.471
 1142POPC   PO416824  34.914  19.129   9.510
 1142POPC   GL116825  34.821  18.972   9.122
 1142POPC   GL216826  34.762  19.311   9.044
 1142POPC   C1A16827  34.600  18.928   8.701
 1142POPC   D2A16828  34.682  18.635   8.321
 1142POPC   C3A16829  34.537  18.759   7.887
 1142POPC   C4A16830  34.123  18.961   7.738
 1142POPC   C1B16831  34.831  19.419   8.644
 1142POPC   C2B16832  34.619  19.415   8.254
 1142POPC   C3B16833  34.767  19.220   7.877
 1142POPC   C4B16834  34.769  19.292   7.420
 1143POPC   NC316835   8.127   2.839   9.516
 1143POPC   PO416836   8.588   2.346   9.413
 1143POPC   GL116837   8.337   2.557   9.121
 1143POPC   GL216838   7.953   2.567   9.130
 1143POPC   C1A16839   8.287   2.666   8.723
 1143POPC   D2A16840   8.311   3.039   8.526
 1143POPC   C3A16841   8.393   2.917   8.121
 1143POPC   C4A16842   8.611   2.873   7.756
 1143POPC   C1B16843   7.915   2.974   8.885
 1143POPC   C2B16844   7.806   2.979   8.428
 1143POPC   C3B16845   7.900   2.791   8.041
 1143POPC   C4B16846   8.110   3.010   7.689
 1144POPC   NC316847   5.928  24.023   9.507
 1144POPC   PO416848   6.429  23.555   9.463
 1144POPC   GL116849   6.124  23.734   9.136
 1144POPC   GL216850   5.730  23.744   9.063
 1144POPC   C1A16851   6.051  24.013   8.786
 1144POPC   D2A16852   5.735  23.899   8.549
 1144POPC   C3A16853   5.925  23.724   8.214
 1144POPC   C4A16854   5.971  23.782   7.787
 1144POPC   C1B16855   5.430  23.504   8.786
 1144POPC   C2B16856   5.510  23.456   8.340
 1144POPC   C3B16857   5.485  23.697   7.952
 1144POPC   C4B16858   5.505  23.602   7.516
 1145POPC   NC316859  44.050  42.830   9.436
 1145POPC   PO416860  43.807  43.510   9.543
 1145POPC   GL116861  43.967  43.337   9.175
 1145POPC   GL216862  43.675  43.128   9.184
 1145POPC   C1A16863  43.880  43.461   8.742
 1145POPC   D2A16864  43.570  43.549   8.425
 1145POPC   C3A16865  43.686  43.380   8.008
 1145POPC   C4A16866  44.018  43.138   7.766
 1145POPC   C1B16867  43.808  42.963   8.812
 1145POPC   C2B16868  43.678  43.051   8.424
 1145POPC   C3B16869  43.702  42.864   8.049
 1145POPC   C4B16870  43.548  42.997   7.634
 1146POPC   NC316871  41.271   6.267   9.441
 1146POPC   PO416872  41.753   5.768   9.501
 1146POPC   GL116873  41.725   6.067   9.230
 1146POPC   GL216874  41.447   5.923   9.099
 1146POPC   C1A16875  41.840   6.171   8.818
 1146POPC   D2A16876  41.836   5.866   8.479
 1146POPC   C3A16877  41.905   6.021   8.075
 1146POPC   C4A16878  41.597   5.997   7.756
 1146POPC   C1B16879  41.372   6.015   8.681
 1146POPC   C2B16880  41.387   6.010   8.237
 1146POPC   C3B16881  41.100   5.955   7.902
 1146POPC   C4B16882  41.104   5.569   7.700
 1147POPC   NC316883  23.094  34.001   9.452
 1147POPC   PO416884  22.522  33.703   9.451
 1147POPC   GL116885  22.819  33.728   9.109
 1147POPC   GL216886  22.955  33.421   9.004
 1147POPC   C1A16887  22.941  33.806   8.684
 1147POPC   D2A16888  22.993  33.530   8.347
 1147POPC   C3A16889  22.992  33.756   7.982
 1147POPC   C4A16890  23.109  33.682   7.575
 1147POPC   C1B16891  22.648  33.340   8.722
 1147POPC   C2B16892  22.652  33.128   8.341
 1147POPC   C3B16893  22.541  33.415   8.033
 1147POPC   C4B16894  22.651  33.519   7.668
 1148POPC   NC316895   6.172  24.722   9.503
 1148POPC   PO416896   5.585  24.416   9.492
 1148POPC   GL116897   5.753  24.315   9.110
 1148POPC   GL216898   6.103  24.376   9.128
 1148POPC   C1A16899   5.821  24.482   8.717
 1148POPC   D2A16900   5.936  24.838   8.478
 1148POPC   C3A16901   5.815  24.761   8.053
 1148POPC   C4A16902   6.008  24.878   7.668
 1148POPC   C1B16903   6.328  24.473   8.754
 1148POPC   C2B16904   6.142  24.348   8.359
 1148POPC   C3B16905   5.925  24.235   8.020
 1148POPC   C4B16906   6.174  24.296   7.699
 1149POPC   NC316907   8.458  20.067   9.280
 1149POPC   PO416908   8.071  19.590   9.668
 1149POPC   GL116909   7.996  19.657   9.221
 1149POPC   GL216910   7.936  19.982   9.269
 1149POPC   C1A16911   8.164  19.774   8.768
 1149POPC   D2A16912   7.968  19.747   8.333
 1149POPC   C3A16913   8.256  19.752   7.975
 1149POPC   C4A16914   8.404  19.749   7.525
 1149POPC   C1B16915   7.900  20.218   8.894
 1149POPC   C2B16916   7.922  20.234   8.466
 1149POPC   C3B16917   7.791  20.144   8.037
 1149POPC   C4B16918   7.987  20.038   7.656
 1150POPC   NC316919  32.591  42.748   9.476
 1150POPC   PO416920  33.102  43.226   9.599
 1150POPC   GL116921  33.091  43.141   9.155
 1150POPC   GL216922  32.776  43.294   9.139
 1150POPC   C1A16923  32.963  42.945   8.757
 1150POPC   D2A16924  32.914  42.766   8.353
 1150POPC   C3A16925  33.051  42.868   7.907
 1150POPC   C4A16926  32.842  42.811   7.491
 1150POPC   C1B16927  32.922  43.445   8.724
 1150POPC   C2B16928  32.830  43.326   8.315
 1150POPC   C3B16929  32.979  43.374   7.932
 1150POPC   C4B16930  32.695  43.474   7.693
 1151POPC   NC316931  26.554   0.835   9.267
 1151POPC   PO416932  26.869   1.510   9.397
 1151POPC   GL116933  26.802   1.254   9.078
 1151POPC   GL216934  26.490   1.235   8.921
 1151POPC   C1A16935  26.924   1.017   8.745
 1151POPC   D2A16936  26.782   1.156   8.370
 1151POPC   C3A16937  26.937   0.988   8.006
 1151POPC   C4A16938  26.805   0.900   7.630
 1151POPC   C1B16939  26.643   1.567   8.677
 1151POPC   C2B16940  26.826   1.645   8.247
 1151POPC   C3B16941  26.697   1.445   7.819
 1151POPC   C4B16942  26.660   1.691   7.378
 1152POPC   NC316943  43.074  38.540   9.405
 1152POPC   PO416944  43.700  38.160   9.512
 1152POPC   GL116945  43.323  38.145   9.159
 1152POPC   GL216946  42.946  38.204   9.046
 1152POPC   C1A16947  43.270  38.370   8.714
 1152POPC   D2A16948  42.952  38.413   8.388
 1152POPC   C3A16949  43.137  38.537   8.023
 1152POPC   C4A16950  43.516  38.395   7.842
 1152POPC   C1B16951  42.723  38.040   8.694
 1152POPC   C2B16952  42.673  38.006   8.249
 1152POPC   C3B16953  42.782  38.183   7.864
 1152POPC   C4B16954  42.867  38.342   7.435
 1153POPC   NC316955  30.844  15.115   9.458
 1153POPC   PO416956  30.419  15.633   9.498
 1153POPC   GL116957  30.477  15.340   9.147
 1153POPC   GL216958  30.396  14.971   9.077
 1153POPC   C1A16959  30.612  15.315   8.725
 1153POPC   D2A16960  30.530  15.502   8.341
 1153POPC   C3A16961  30.423  15.214   8.044
 1153POPC   C4A16962  30.716  15.350   7.763
 1153POPC   C1B16963  30.736  14.814   8.786
 1153POPC   C2B16964  30.939  14.943   8.364
 1153POPC   C3B16965  30.950  14.913   7.897
 1153POPC   C4B16966  30.922  14.953   7.446
 1154POPC   NC316967   5.535  30.248   9.272
 1154POPC   PO416968   6.103  30.132   9.655
 1154POPC   GL116969   6.001  30.172   9.151
 1154POPC   GL216970   6.124  30.396   8.989
 1154POPC   C1A16971   5.806  29.863   8.790
 1154POPC   D2A16972   5.999  29.706   8.392
 1154POPC   C3A16973   5.730  29.735   8.007
 1154POPC   C4A16974   5.807  29.567   7.598
 1154POPC   C1B16975   6.077  30.240   8.606
 1154POPC   C2B16976   5.737  30.144   8.328
 1154POPC   C3B16977   5.884  30.221   7.917
 1154POPC   C4B16978   5.878  30.076   7.518
 1155POPC   NC316979  10.419   6.414   9.288
 1155POPC   PO416980   9.894   6.839   9.539
 1155POPC   GL116981   9.891   6.540   9.209
 1155POPC   GL216982   9.533   6.475   9.107
 1155POPC   C1A16983   9.977   6.407   8.779
 1155POPC   D2A16984   9.875   6.516   8.338
 1155POPC   C3A16985  10.078   6.673   7.967
 1155POPC   C4A16986   9.899   6.926   7.658
 1155POPC   C1B16987   9.474   6.349   8.681
 1155POPC   C2B16988   9.364   6.611   8.358
 1155POPC   C3B16989   9.523   6.668   7.911
 1155POPC   C4B16990   9.326   6.379   7.596
 1156POPC   NC316991   0.831   6.923   9.535
 1156POPC   PO416992   1.444   7.021   9.319
 1156POPC   GL116993   1.131   6.716   9.160
 1156POPC   GL216994   0.972   7.005   9.043
 1156POPC   C1A16995   0.978   6.586   8.745
 1156POPC   D2A16996   0.977   6.799   8.332
 1156POPC   C3A16997   1.043   6.556   7.936
 1156POPC   C4A16998   1.413   6.356   7.702
 1156POPC   C1B16999   1.302   7.052   8.703
 1156POPC   C2B17000   1.354   7.190   8.303
 1156POPC   C3B17001   1.399   6.938   7.964
 1156POPC   C4B17002   1.224   6.843   7.542
 1157POPC   NC317003  12.524  13.812   9.627
 1157POPC   PO417004  11.959  13.444   9.586
 1157POPC   GL117005  11.947  13.567   9.219
 1157POPC   GL217006  12.233  13.740   9.216
 1157POPC   C1A17007  11.837  13.457   8.796
 1157POPC   D2A17008  11.822  13.317   8.338
 1157POPC   C3A17009  11.963  13.569   7.971
 1157POPC   C4A17010  12.076  13.516   7.523
 1157POPC   C1B17011  11.943  13.954   8.916
 1157POPC   C2B17012  11.946  13.845   8.481
 1157POPC   C3B17013  12.049  14.053   8.100
 1157POPC   C4B17014  12.066  14.003   7.657
 1158POPC   NC317015   0.973  23.036   9.468
 1158POPC   PO417016   1.539  23.335   9.345
 1158POPC   GL117017   1.255  23.127   9.048
 1158POPC   GL217018   1.254  22.793   9.125
 1158POPC   C1A17019   1.188  22.957   8.645
 1158POPC   D2A17020   1.278  22.790   8.275
 1158POPC   C3A17021   1.319  23.105   8.008
 1158POPC   C4A17022   1.357  23.138   7.581
 1158POPC   C1B17023   0.981  22.550   8.856
 1158POPC   C2B17024   0.833  22.567   8.466
 1158POPC   C3B17025   0.921  22.466   8.068
 1158POPC   C4B17026   1.072  22.740   7.776
 1159POPC   NC317027   5.869  10.756   9.604
 1159POPC   PO417028   6.035  10.149   9.368
 1159POPC   GL117029   5.855  10.509   9.143
 1159POPC   GL217030   5.946  10.910   9.130
 1159POPC   C1A17031   5.975  10.520   8.719
 1159POPC   D2A17032   6.114  10.823   8.430
 1159POPC   C3A17033   6.021  10.653   8.012
 1159POPC   C4A17034   6.013  10.257   7.821
 1159POPC   C1B17035   5.702  10.934   8.772
 1159POPC   C2B17036   5.597  10.714   8.394
 1159POPC   C3B17037   5.518  10.774   7.965
 1159POPC   C4B17038   5.553  10.675   7.551
 1160POPC   NC317039   0.632  44.108   9.545
 1160POPC   PO417040   0.265  43.580   9.267
 1160POPC   GL117041   0.505  43.904   9.092
 1160POPC   GL217042   0.235  44.159   9.157
 1160POPC   C1A17043   0.599  43.782   8.673
 1160POPC   D2A17044   0.290  43.660   8.397
 1160POPC   C3A17045   0.424  43.613   7.981
 1160POPC   C4A17046   0.204  43.647   7.647
 1160POPC   C1B17047   0.353  44.224   8.706
 1160POPC   C2B17048   0.524  44.145   8.303
 1160POPC   C3B17049   0.740  44.041   7.937
 1160POPC   C4B17050   0.446  44.122   7.641
 1161POPC   NC317051   1.054   2.326   9.586
 1161POPC   PO417052   1.525   1.870   9.484
 1161POPC   GL117053   1.174   1.951   9.208
 1161POPC   GL217054   1.143   1.623   9.080
 1161POPC   C1A17055   1.006   2.172   8.825
 1161POPC   D2A17056   1.236   2.237   8.416
 1161POPC   C3A17057   1.077   2.130   7.964
 1161POPC   C4A17058   1.193   2.128   7.502
 1161POPC   C1B17059   1.065   1.685   8.686
 1161POPC   C2B17060   0.959   1.740   8.290
 1161POPC   C3B17061   1.037   1.498   7.950
 1161POPC   C4B17062   1.027   1.678   7.598
 1162POPC   NC317063  23.984  24.106   9.410
 1162POPC   PO417064  23.872  23.461   9.231
 1162POPC   GL117065  23.618  23.561   8.942
 1162POPC   GL217066  23.675  23.892   9.048
 1162POPC   C1A17067  23.766  23.485   8.527
 1162POPC   D2A17068  23.833  23.694   8.127
 1162POPC   C3A17069  23.665  23.422   7.805
 1162POPC   C4A17070  23.383  23.063   7.760
 1162POPC   C1B17071  23.831  23.976   8.683
 1162POPC   C2B17072  23.610  24.106   8.353
 1162POPC   C3B17073  23.736  24.192   7.998
 1162POPC   C4B17074  24.027  24.022   7.691
 1163POPC   NC317075  21.940  11.076   9.458
 1163POPC   PO417076  22.238  11.673   9.465
 1163POPC   GL117077  22.028  11.484   9.132
 1163POPC   GL217078  22.168  11.136   9.027
 1163POPC   C1A17079  21.852  11.392   8.745
 1163POPC   D2A17080  21.907  11.052   8.471
 1163POPC   C3A17081  21.900  11.232   8.087
 1163POPC   C4A17082  21.995  11.319   7.700
 1163POPC   C1B17083  22.383  10.989   8.688
 1163POPC   C2B17084  22.360  10.767   8.323
 1163POPC   C3B17085  22.150  10.806   7.967
 1163POPC   C4B17086  22.185  10.867   7.564
 1164POPC   NC317087  23.620  42.045   9.734
 1164POPC   PO417088  24.157  42.421   9.557
 1164POPC   GL117089  23.890  42.409   9.192
 1164POPC   GL217090  23.505  42.382   9.174
 1164POPC   C1A17091  23.987  42.487   8.766
 1164POPC   D2A17092  23.749  42.491   8.400
 1164POPC   C3A17093  23.996  42.460   8.005
 1164POPC   C4A17094  23.776  42.479   7.625
 1164POPC   C1B17095  23.263  42.139   8.819
 1164POPC   C2B17096  23.362  42.105   8.382
 1164POPC   C3B17097  23.448  42.309   8.008
 1164POPC   C4B17098  23.266  42.096   7.690
 1165POPC   NC317099  25.467  17.190   9.323
 1165POPC   PO417100  25.977  17.485   9.747
 1165POPC   GL117101  25.920  17.494   9.278
 1165POPC   GL217102  26.148  17.278   9.111
 1165POPC   C1A17103  25.866  17.624   8.819
 1165POPC   D2A17104  25.665  17.520   8.431
 1165POPC   C3A17105  25.820  17.649   8.024
 1165POPC   C4A17106  25.970  17.583   7.616
 1165POPC   C1B17107  26.343  17.437   8.742
 1165POPC   C2B17108  26.189  17.557   8.359
 1165POPC   C3B17109  26.279  17.382   7.967
 1165POPC   C4B17110  26.590  17.246   7.705
 1166POPC   NC317111   6.413  16.435   9.569
 1166POPC   PO417112   5.726  16.507   9.441
 1166POPC   GL117113   6.067  16.727   9.262
 1166POPC   GL217114   6.177  16.421   9.127
 1166POPC   C1A17115   6.059  16.844   8.857
 1166POPC   D2A17116   5.732  16.679   8.592
 1166POPC   C3A17117   5.833  16.913   8.235
 1166POPC   C4A17118   5.674  17.096   7.877
 1166POPC   C1B17119   6.175  16.222   8.736
 1166POPC   C2B17120   5.967  16.311   8.355
 1166POPC   C3B17121   6.051  16.536   7.965
 1166POPC   C4B17122   6.320  16.534   7.608
 1167POPC   NC317123  27.585  27.954   9.641
 1167POPC   PO417124  27.458  27.254   9.538
 1167POPC   GL117125  27.789  27.370   9.250
 1167POPC   GL217126  27.653  27.671   9.221
 1167POPC   C1A17127  27.724  27.450   8.789
 1167POPC   D2A17128  27.566  27.754   8.498
 1167POPC   C3A17129  27.675  27.694   8.098
 1167POPC   C4A17130  27.662  27.483   7.731
 1167POPC   C1B17131  27.291  27.751   8.914
 1167POPC   C2B17132  27.070  27.911   8.532
 1167POPC   C3B17133  27.243  28.027   8.118
 1167POPC   C4B17134  27.477  27.972   7.696
 1168POPC   NC317135  26.057   5.607   9.578
 1168POPC   PO417136  25.628   6.137   9.803
 1168POPC   GL117137  25.681   5.860   9.363
 1168POPC   GL217138  25.640   5.574   9.154
 1168POPC   C1A17139  25.949   5.944   8.950
 1168POPC   D2A17140  26.174   6.198   8.609
 1168POPC   C3A17141  26.251   6.000   8.206
 1168POPC   C4A17142  26.413   6.092   7.792
 1168POPC   C1B17143  25.768   5.500   8.724
 1168POPC   C2B17144  25.914   5.619   8.323
 1168POPC   C3B17145  25.980   5.432   7.918
 1168POPC   C4B17146  25.780   5.658   7.593
 1169POPC   NC317147   6.738  27.896   9.502
 1169POPC   PO417148   6.587  27.213   9.526
 1169POPC   GL117149   6.515  27.462   9.222
 1169POPC   GL217150   6.819  27.584   9.086
 1169POPC   C1A17151   6.415  27.373   8.812
 1169POPC   D2A17152   6.689  27.454   8.477
 1169POPC   C3A17153   6.534  27.640   8.124
 1169POPC   C4A17154   6.677  27.571   7.721
 1169POPC   C1B17155   7.060  27.738   8.750
 1169POPC   C2B17156   6.928  27.914   8.364
 1169POPC   C3B17157   6.878  28.010   7.949
 1169POPC   C4B17158   7.043  27.896   7.565
 1170POPC   NC317159  44.475  28.732   9.746
 1170POPC   PO417160  44.444  29.291   9.533
 1170POPC   GL117161  44.684  29.212   9.147
 1170POPC   GL217162  44.618  28.869   9.224
 1170POPC   C1A17163  44.631  29.155   8.683
 1170POPC   D2A17164  44.321  29.304   8.335
 1170POPC   C3A17165  44.517  29.389   7.945
 1170POPC   C4A17166  44.967  29.318   7.908
 1170POPC   C1B17167  44.276  28.816   8.897
 1170POPC   C2B17168  44.391  28.754   8.462
 1170POPC   C3B17169  44.663  28.951   8.185
 1170POPC   C4B17170  44.724  28.905   7.760
 1171POPC   NC317171  41.004  34.073   9.921
 1171POPC   PO417172  40.746  34.606   9.500
 1171POPC   GL117173  40.796  34.796   9.133
 1171POPC   GL217174  40.944  34.496   8.964
 1171POPC   C1A17175  40.892  34.996   8.779
 1171POPC   D2A17176  40.985  34.731   8.468
 1171POPC   C3A17177  40.856  34.897   8.069
 1171POPC   C4A17178  40.811  34.923   7.638
 1171POPC   C1B17179  40.768  34.264   8.612
 1171POPC   C2B17180  40.588  34.469   8.267
 1171POPC   C3B17181  40.610  34.482   7.857
 1171POPC   C4B17182  40.695  34.253   7.516
 1172POPC   NC317183   7.489  26.286   9.579
 1172POPC   PO417184   7.711  25.598   9.503
 1172POPC   GL117185   7.454  25.869   9.205
 1172POPC   GL217186   7.647  26.183   9.127
 1172POPC   C1A17187   7.360  26.014   8.751
 1172POPC   D2A17188   7.508  26.233   8.388
 1172POPC   C3A17189   7.333  26.061   7.996
 1172POPC   C4A17190   7.303  26.116   7.560
 1172POPC   C1B17191   7.834  25.864   8.878
 1172POPC   C2B17192   7.767  25.737   8.466
 1172POPC   C3B17193   7.808  25.950   8.089
 1172POPC   C4B17194   7.721  25.857   7.679
 1173POPC   NC317195  31.822   1.872   9.471
 1173POPC   PO417196  31.292   2.255   9.357
 1173POPC   GL117197  31.596   2.156   9.114
 1173POPC   GL217198  31.907   2.327   9.221
 1173POPC   C1A17199  31.703   1.865   8.813
 1173POPC   D2A17200  31.712   1.747   8.381
 1173POPC   C3A17201  31.303   1.872   8.172
 1173POPC   C4A17202  31.217   1.982   7.745
 1173POPC   C1B17203  31.880   2.380   8.780
 1173POPC   C2B17204  31.618   2.233   8.437
 1173POPC   C3B17205  31.694   2.152   8.011
 1173POPC   C4B17206  31.674   2.451   7.706
 1174POPC   NC317207  43.779   8.850   9.645
 1174POPC   PO417208  44.377   8.886   9.665
 1174POPC   GL117209  44.084   8.907   9.236
 1174POPC   GL217210  43.739   9.127   9.205
 1174POPC   C1A17211  43.894   8.853   8.793
 1174POPC   D2A17212  44.026   8.598   8.421
 1174POPC   C3A17213  44.084   8.809   8.062
 1174POPC   C4A17214  43.891   8.766   7.700
 1174POPC   C1B17215  43.669   9.331   8.791
 1174POPC   C2B17216  43.920   9.196   8.400
 1174POPC   C3B17217  43.949   9.287   7.962
 1174POPC   C4B17218  43.652   9.224   7.638
 1175POPC   NC317219  13.482   2.755   9.604
 1175POPC   PO417220  13.781   3.245   9.355
 1175POPC   GL117221  13.644   2.924   9.107
 1175POPC   GL217222  13.576   2.556   9.140
 1175POPC   C1A17223  13.721   2.791   8.721
 1175POPC   D2A17224  13.518   2.748   8.408
 1175POPC   C3A17225  13.723   2.594   8.097
 1175POPC   C4A17226  14.047   2.750   7.817
 1175POPC   C1B17227  13.263   2.518   8.794
 1175POPC   C2B17228  13.125   2.408   8.360
 1175POPC   C3B17229  13.155   2.332   7.907
 1175POPC   C4B17230  13.513   2.506   7.659
 1176POPC   NC317231  24.461  13.845   9.574
 1176POPC   PO417232  24.794  13.318   9.654
 1176POPC   GL117233  24.570  13.447   9.243
 1176POPC   GL217234  24.683  13.807   9.118
 1176POPC   C1A17235  24.273  13.589   8.897
 1176POPC   D2A17236  24.197  13.732   8.467
 1176POPC   C3A17237  24.336  13.481   8.114
 1176POPC   C4A17238  24.204  13.630   7.706
 1176POPC   C1B17239  24.613  13.976   8.691
 1176POPC   C2B17240  24.637  13.888   8.243
 1176POPC   C3B17241  24.602  13.910   7.800
 1176POPC   C4B17242  24.829  13.634   7.461
 1177POPC   NC317243  26.407  15.468   9.442
 1177POPC   PO417244  25.727  15.195   9.469
 1177POPC   GL117245  25.825  15.051   9.062
 1177POPC   GL217246  26.178  15.167   9.080
 1177POPC   C1A17247  25.898  15.210   8.652
 1177POPC   D2A17248  26.172  15.370   8.318
 1177POPC   C3A17249  25.946  15.522   7.952
 1177POPC   C4A17250  25.906  15.145   7.747
 1177POPC   C1B17251  26.386  15.019   8.735
 1177POPC   C2B17252  26.515  14.994   8.311
 1177POPC   C3B17253  26.438  15.169   7.875
 1177POPC   C4B17254  26.377  15.162   7.407
 1178POPC   NC317255  14.942  13.324   9.466
 1178POPC   PO417256  14.293  13.452   9.634
 1178POPC   GL117257  14.301  13.589   9.178
 1178POPC   GL217258  14.158  13.907   9.060
 1178POPC   C1A17259  14.406  13.423   8.767
 1178POPC   D2A17260  14.247  13.276   8.353
 1178POPC   C3A17261  14.411  13.426   7.972
 1178POPC   C4A17262  14.357  13.503   7.547
 1178POPC   C1B17263  14.235  13.893   8.616
 1178POPC   C2B17264  14.396  14.076   8.267
 1178POPC   C3B17265  14.285  13.921   7.884
 1178POPC   C4B17266  13.955  13.677   7.919
 1179POPC   NC317267  17.652   3.074   9.553
 1179POPC   PO417268  17.036   2.824   9.518
 1179POPC   GL117269  17.317   2.841   9.138
 1179POPC   GL217270  17.666   2.766   9.110
 1179POPC   C1A17271  17.385   2.681   8.709
 1179POPC   D2A17272  17.672   2.761   8.424
 1179POPC   C3A17273  17.533   2.618   8.072
 1179POPC   C4A17274  17.477   2.830   7.678
 1179POPC   C1B17275  17.835   2.436   8.797
 1179POPC   C2B17276  18.099   2.456   8.416
 1179POPC   C3B17277  18.023   2.693   8.028
 1179POPC   C4B17278  17.844   2.484   7.672
 1180POPC   NC317279  25.390  27.548   9.527
 1180POPC   PO417280  25.846  27.938   9.349
 1180POPC   GL117281  25.454  27.826   9.108
 1180POPC   GL217282  25.450  27.446   9.040
 1180POPC   C1A17283  25.232  27.756   8.712
 1180POPC   D2A17284  25.203  27.528   8.361
 1180POPC   C3A17285  24.902  27.597   8.097
 1180POPC   C4A17286  24.998  27.584   7.674
 1180POPC   C1B17287  25.433  27.155   8.708
 1180POPC   C2B17288  25.520  27.093   8.282
 1180POPC   C3B17289  25.424  27.345   7.941
 1180POPC   C4B17290  25.495  27.538   7.573
 1181POPC   NC317291  42.823   5.749   9.478
 1181POPC   PO417292  43.474   5.819   9.599
 1181POPC   GL117293  43.392   5.983   9.166
 1181POPC   GL217294  43.254   5.673   9.100
 1181POPC   C1A17295  43.293   6.000   8.697
 1181POPC   D2A17296  43.054   5.871   8.313
 1181POPC   C3A17297  43.166   5.931   7.877
 1181POPC   C4A17298  43.451   6.199   7.709
 1181POPC   C1B17299  42.987   5.572   8.770
 1181POPC   C2B17300  42.978   5.365   8.398
 1181POPC   C3B17301  43.132   5.430   8.000
 1181POPC   C4B17302  42.862   5.578   7.657
 1182POPC   NC317303  33.631  19.860   9.336
 1182POPC   PO417304  34.062  19.393   9.430
 1182POPC   GL117305  33.774  19.425   9.081
 1182POPC   GL217306  33.909  19.703   8.936
 1182POPC   C1A17307  33.458  19.589   8.749
 1182POPC   D2A17308  33.420  19.907   8.430
 1182POPC   C3A17309  33.672  19.777   8.068
 1182POPC   C4A17310  33.782  19.886   7.634
 1182POPC   C1B17311  33.839  20.066   8.688
 1182POPC   C2B17312  33.880  20.339   8.361
 1182POPC   C3B17313  33.789  20.314   7.932
 1182POPC   C4B17314  33.948  20.357   7.521
 1183POPC   NC317315  17.678   9.790   9.529
 1183POPC   PO417316  17.926   9.269   9.213
 1183POPC   GL117317  17.696   9.600   9.060
 1183POPC   GL217318  17.367   9.584   9.149
 1183POPC   C1A17319  17.587   9.835   8.696
 1183POPC   D2A17320  17.799  10.104   8.400
 1183POPC   C3A17321  17.536  10.045   8.059
 1183POPC   C4A17322  17.604   9.962   7.632
 1183POPC   C1B17323  17.422   9.324   8.737
 1183POPC   C2B17324  17.690   9.393   8.363
 1183POPC   C3B17325  17.588   9.556   7.954
 1183POPC   C4B17326  17.239   9.588   7.732
 1184POPC   NC317327  14.739  32.490   9.429
 1184POPC   PO417328  14.214  31.935   9.502
 1184POPC   GL117329  14.447  32.107   9.173
 1184POPC   GL217330  14.720  31.917   9.032
 1184POPC   C1A17331  14.224  32.301   8.862
 1184POPC   D2A17332  14.236  32.479   8.487
 1184POPC   C3A17333  14.314  32.245   8.117
 1184POPC   C4A17334  14.143  32.473   7.787
 1184POPC   C1B17335  14.652  32.164   8.639
 1184POPC   C2B17336  14.677  31.926   8.289
 1184POPC   C3B17337  14.728  31.986   7.883
 1184POPC   C4B17338  14.630  32.357   7.637
 1185POPC   NC317339  20.203   8.314   9.798
 1185POPC   PO417340  20.665   8.025   9.457
 1185POPC   GL117341  20.585   7.887   9.088
 1185POPC   GL217342  20.841   7.611   9.053
 1185POPC   C1A17343  20.445   8.110   8.694
 1185POPC   D2A17344  20.584   8.458   8.409
 1185POPC   C3A17345  20.768   8.338   8.026
 1185POPC   C4A17346  20.638   8.476   7.632
 1185POPC   C1B17347  20.940   7.923   8.727
 1185POPC   C2B17348  20.776   7.929   8.323
 1185POPC   C3B17349  20.985   7.873   7.940
 1185POPC   C4B17350  20.979   8.095   7.599
 1186POPC   NC317351  26.574  39.108   9.595
 1186POPC   PO417352  27.103  39.448   9.588
 1186POPC   GL117353  26.958  39.132   9.246
 1186POPC   GL217354  26.630  39.207   9.094
 1186POPC   C1A17355  27.008  39.039   8.786
 1186POPC   D2A17356  26.835  39.215   8.400
 1186POPC   C3A17357  27.049  39.240   8.015
 1186POPC   C4A17358  27.257  39.088   7.636
 1186POPC   C1B17359  26.461  39.019   8.712
 1186POPC   C2B17360  26.315  39.210   8.327
 1186POPC   C3B17361  26.546  39.511   8.110
 1186POPC   C4B17362  26.686  39.429   7.723
 1187POPC   NC317363  41.333  26.687   9.529
 1187POPC   PO417364  41.254  27.258   9.790
 1187POPC   GL117365  41.428  27.139   9.318
 1187POPC   GL217366  41.651  26.822   9.181
 1187POPC   C1A17367  41.369  27.095   8.847
 1187POPC   D2A17368  41.334  26.797   8.510
 1187POPC   C3A17369  41.536  26.858   8.101
 1187POPC   C4A17370  41.413  26.748   7.694
 1187POPC   C1B17371  41.779  26.747   8.793
 1187POPC   C2B17372  42.078  26.524   8.573
 1187POPC   C3B17373  42.083  26.464   8.138
 1187POPC   C4B17374  41.792  26.447   7.825
 1188POPC   NC317375  43.457  37.723   9.472
 1188POPC   PO417376  42.801  37.965   9.454
 1188POPC   GL117377  43.047  37.688   9.130
 1188POPC   GL217378  43.394  37.473   9.039
 1188POPC   C1A17379  43.181  37.830   8.752
 1188POPC   D2A17380  43.087  37.698   8.344
 1188POPC   C3A17381  43.223  38.016   8.092
 1188POPC   C4A17382  43.204  38.025   7.650
 1188POPC   C1B17383  43.181  37.309   8.666
 1188POPC   C2B17384  43.024  37.165   8.250
 1188POPC   C3B17385  43.176  37.262   7.877
 1188POPC   C4B17386  43.405  37.595   7.852
 1189POPC   NC317387  31.791   7.757   9.478
 1189POPC   PO417388  31.550   8.431   9.465
 1189POPC   GL117389  31.427   8.463   9.025
 1189POPC   GL217390  31.070   8.540   9.006
 1189POPC   C1A17391  31.542   8.314   8.609
 1189POPC   D2A17392  31.362   7.977   8.337
 1189POPC   C3A17393  31.624   7.928   7.984
 1189POPC   C4A17394  31.684   8.192   7.620
 1189POPC   C1B17395  31.052   8.267   8.672
 1189POPC   C2B17396  31.063   8.463   8.285
 1189POPC   C3B17397  31.190   8.328   7.897
 1189POPC   C4B17398  31.183   7.966   7.705
 1190POPC   NC317399  25.527  18.783   9.540
 1190POPC   PO417400  24.877  19.063   9.478
 1190POPC   GL117401  25.248  19.103   9.211
 1190POPC   GL217402  25.441  19.398   9.265
 1190POPC   C1A17403  25.335  18.905   8.813
 1190POPC   D2A17404  25.141  18.943   8.424
 1190POPC   C3A17405  25.419  18.884   8.122
 1190POPC   C4A17406  25.413  18.944   7.696
 1190POPC   C1B17407  25.643  19.297   8.878
 1190POPC   C2B17408  25.500  19.323   8.445
 1190POPC   C3B17409  25.384  19.382   8.015
 1190POPC   C4B17410  25.630  19.425   7.634
 1191POPC   NC317411  18.514  17.672   9.628
 1191POPC   PO417412  17.908  17.415   9.546
 1191POPC   GL117413  18.139  17.569   9.179
 1191POPC   GL217414  18.504  17.537   9.123
 1191POPC   C1A17415  18.175  17.399   8.749
 1191POPC   D2A17416  18.368  17.533   8.366
 1191POPC   C3A17417  18.161  17.509   7.985
 1191POPC   C4A17418  18.358  17.388   7.622
 1191POPC   C1B17419  18.736  17.567   8.714
 1191POPC   C2B17420  18.801  17.788   8.288
 1191POPC   C3B17421  18.515  17.851   7.950
 1191POPC   C4B17422  18.498  17.849   7.475
 1192POPC   NC317423  16.369  14.387   9.478
 1192POPC   PO417424  17.085  14.106   9.375
 1192POPC   GL117425  16.804  14.413   9.178
 1192POPC   GL217426  16.468  14.339   8.979
 1192POPC   C1A17427  16.804  14.699   8.838
 1192POPC   D2A17428  16.565  14.608   8.449
 1192POPC   C3A17429  16.628  14.450   8.047
 1192POPC   C4A17430  16.614  14.629   7.646
 1192POPC   C1B17431  16.773  14.204   8.683
 1192POPC   C2B17432  16.836  14.002   8.297
 1192POPC   C3B17433  17.006  14.093   7.952
 1192POPC   C4B17434  16.969  14.276   7.601
 1193POPC   NC317435   7.763  23.192   9.836
 1193POPC   PO417436   7.321  22.676   9.754
 1193POPC   GL117437   7.359  22.668   9.249
 1193POPC   GL217438   7.074  22.724   9.074
 1193POPC   C1A17439   7.501  22.863   8.839
 1193POPC   D2A17440   7.718  22.899   8.477
 1193POPC   C3A17441   7.475  22.866   8.124
 1193POPC   C4A17442   7.695  22.958   7.743
 1193POPC   C1B17443   7.143  22.516   8.658
 1193POPC   C2B17444   7.165  22.378   8.215
 1193POPC   C3B17445   6.952  22.564   7.936
 1193POPC   C4B17446   7.228  22.738   7.682
 1194POPC   NC317447  17.161   5.076   9.511
 1194POPC   PO417448  16.537   4.844   9.751
 1194POPC   GL117449  16.658   5.101   9.341
 1194POPC   GL217450  16.915   5.013   9.064
 1194POPC   C1A17451  16.516   5.338   8.962
 1194POPC   D2A17452  16.512   5.193   8.515
 1194POPC   C3A17453  16.631   5.096   8.070
 1194POPC   C4A17454  16.907   4.922   7.751
 1194POPC   C1B17455  16.975   5.329   8.708
 1194POPC   C2B17456  16.908   5.501   8.275
 1194POPC   C3B17457  17.002   5.418   7.836
 1194POPC   C4B17458  17.084   5.329   7.406
 1195POPC   NC317459  38.444  21.527   9.901
 1195POPC   PO417460  38.785  21.273   9.391
 1195POPC   GL117461  38.474  21.382   9.094
 1195POPC   GL217462  38.667  21.666   8.971
 1195POPC   C1A17463  38.331  21.483   8.673
 1195POPC   D2A17464  38.483  21.322   8.259
 1195POPC   C3A17465  38.137  21.307   7.926
 1195POPC   C4A17466  38.212  21.470   7.504
 1195POPC   C1B17467  38.816  21.337   8.699
 1195POPC   C2B17468  39.004  21.261   8.335
 1195POPC   C3B17469  38.910  21.435   7.968
 1195POPC   C4B17470  38.589  21.216   7.734
 1196POPC   NC317471   5.853   7.605   9.597
 1196POPC   PO417472   6.385   7.112   9.458
 1196POPC   GL117473   5.979   7.072   9.152
 1196POPC   GL217474   5.716   7.368   9.163
 1196POPC   C1A17475   5.760   7.129   8.721
 1196POPC   D2A17476   5.738   7.527   8.506
 1196POPC   C3A17477   5.829   7.574   8.108
 1196POPC   C4A17478   5.632   7.420   7.762
 1196POPC   C1B17479   5.966   7.683   8.923
 1196POPC   C2B17480   6.213   7.754   8.542
 1196POPC   C3B17481   6.293   7.779   8.088
 1196POPC   C4B17482   6.074   7.648   7.662
 1197POPC   NC317483   6.763  14.881   9.514
 1197POPC   PO417484   6.224  15.277   9.500
 1197POPC   GL117485   6.568  15.253   9.159
 1197POPC   GL217486   6.939  15.126   9.100
 1197POPC   C1A17487   6.678  15.361   8.715
 1197POPC   D2A17488   6.625  15.161   8.314
 1197POPC   C3A17489   6.616  15.317   7.855
 1197POPC   C4A17490   6.596  15.207   7.381
 1197POPC   C1B17491   6.719  14.860   8.810
 1197POPC   C2B17492   6.788  14.676   8.427
 1197POPC   C3B17493   6.843  14.803   8.028
 1197POPC   C4B17494   6.582  14.792   7.690
 1198POPC   NC317495  29.561  31.232   9.362
 1198POPC   PO417496  29.891  31.830   9.515
 1198POPC   GL117497  29.920  31.557   9.175
 1198POPC   GL217498  30.073  31.240   9.271
 1198POPC   C1A17499  29.817  31.494   8.743
 1198POPC   D2A17500  30.091  31.501   8.397
 1198POPC   C3A17501  29.925  31.737   8.069
 1198POPC   C4A17502  29.704  31.621   7.689
 1198POPC   C1B17503  30.201  31.181   8.829
 1198POPC   C2B17504  30.017  31.003   8.456
 1198POPC   C3B17505  29.909  31.160   8.026
 1198POPC   C4B17506  30.164  31.433   7.746
 1199POPC   NC317507   4.873  35.765   9.324
 1199POPC   PO417508   5.164  35.126   9.454
 1199POPC   GL117509   5.350  35.265   9.125
 1199POPC   GL217510   5.011  35.366   8.967
 1199POPC   C1A17511   5.460  35.445   8.744
 1199POPC   D2A17512   5.129  35.619   8.492
 1199POPC   C3A17513   5.157  35.514   8.057
 1199POPC   C4A17514   5.087  35.131   7.831
 1199POPC   C1B17515   4.769  35.111   8.642
 1199POPC   C2B17516   4.618  34.912   8.247
 1199POPC   C3B17517   4.679  34.811   7.820
 1199POPC   C4B17518   4.650  35.061   7.446
 1200POPC   NC317519  15.631  10.711   9.473
 1200POPC   PO417520  16.256  10.259   9.578
 1200POPC   GL117521  16.212  10.150   9.125
 1200POPC   GL217522  16.064  10.470   8.969
 1200POPC   C1A17523  16.054  10.063   8.695
 1200POPC   D2A17524  15.889  10.427   8.462
 1200POPC   C3A17525  15.975  10.375   8.035
 1200POPC   C4A17526  16.157  10.477   7.630
 1200POPC   C1B17527  16.207  10.809   8.687
 1200POPC   C2B17528  16.076  11.050   8.364
 1200POPC   C3B17529  16.078  10.884   7.957
 1200POPC   C4B17530  16.391  10.946   7.685
 1201POPC   NC317531  11.278   6.375   9.404
 1201POPC   PO417532  11.621   6.947   9.423
 1201POPC   GL117533  11.454   6.720   9.084
 1201POPC   GL217534  11.602   6.426   9.034
 1201POPC   C1A17535  11.174   6.612   8.729
 1201POPC   D2A17536  10.905   6.515   8.358
 1201POPC   C3A17537  11.089   6.696   8.002
 1201POPC   C4A17538  11.521   6.812   7.885
 1201POPC   C1B17539  11.712   6.521   8.647
 1201POPC   C2B17540  11.450   6.515   8.322
 1201POPC   C3B17541  11.411   6.299   7.990
 1201POPC   C4B17542  11.598   6.360   7.632
 1202POPC   NC317543   7.780  34.481   9.664
 1202POPC   PO417544   8.380  34.414   9.425
 1202POPC   GL117545   8.132  34.416   9.082
 1202POPC   GL217546   7.854  34.652   9.156
 1202POPC   C1A17547   8.247  34.575   8.669
 1202POPC   D2A17548   8.348  34.929   8.342
 1202POPC   C3A17549   8.451  34.733   7.967
 1202POPC   C4A17550   8.335  34.314   7.817
 1202POPC   C1B17551   7.725  34.611   8.719
 1202POPC   C2B17552   7.889  34.656   8.312
 1202POPC   C3B17553   7.939  34.642   7.894
 1202POPC   C4B17554   7.906  34.346   7.570
 1203POPC   NC317555   1.406  29.788   9.463
 1203POPC   PO417556   0.982  30.337   9.508
 1203POPC   GL117557   1.120  30.123   9.158
 1203POPC   GL217558   1.027  29.765   9.104
 1203POPC   C1A17559   1.266  30.127   8.754
 1203POPC   D2A17560   1.246  30.233   8.333
 1203POPC   C3A17561   1.089  29.931   8.040
 1203POPC   C4A17562   1.043  29.922   7.602
 1203POPC   C1B17563   1.350  29.616   8.788
 1203POPC   C2B17564   1.375  29.589   8.314
 1203POPC   C3B17565   1.429  29.586   7.843
 1203POPC   C4B17566   1.151  29.429   7.510
 1204POPC   NC317567  37.793  38.075   9.572
 1204POPC   PO417568  37.381  38.597   9.532
 1204POPC   GL117569  37.669  38.485   9.188
 1204POPC   GL217570  37.897  38.226   9.102
 1204POPC   C1A17571  37.582  38.461   8.748
 1204POPC   D2A17572  37.426  38.204   8.419
 1204POPC   C3A17573  37.499  38.369   7.993
 1204POPC   C4A17574  37.694  38.716   7.777
 1204POPC   C1B17575  38.076  38.312   8.705
 1204POPC   C2B17576  37.934  38.289   8.311
 1204POPC   C3B17577  38.092  38.402   7.914
 1204POPC   C4B17578  37.845  38.220   7.612
 1205POPC   NC317579   0.684  31.453   9.296
 1205POPC   PO417580   1.264  31.356   9.634
 1205POPC   GL117581   1.311  31.396   9.194
 1205POPC   GL217582   1.085  31.663   9.066
 1205POPC   C1A17583   1.476  31.487   8.783
 1205POPC   D2A17584   1.220  31.510   8.405
 1205POPC   C3A17585   1.157  31.205   8.097
 1205POPC   C4A17586   1.038  31.292   7.695
 1205POPC   C1B17587   0.824  31.674   8.695
 1205POPC   C2B17588   0.876  31.870   8.280
 1205POPC   C3B17589   1.100  31.747   7.916
 1205POPC   C4B17590   1.158  31.714   7.452
 1206POPC   NC317591   9.314   4.208   9.492
 1206POPC   PO417592   8.678   4.061   9.216
 1206POPC   GL117593   9.063   4.217   9.043
 1206POPC   GL217594   9.220   4.555   9.090
 1206POPC   C1A17595   8.999   4.269   8.634
 1206POPC   D2A17596   8.868   4.000   8.347
 1206POPC   C3A17597   8.816   4.177   7.969
 1206POPC   C4A17598   8.822   4.530   7.745
 1206POPC   C1B17599   9.421   4.533   8.655
 1206POPC   C2B17600   9.204   4.561   8.237
 1206POPC   C3B17601   9.289   4.380   7.836
 1206POPC   C4B17602   9.349   4.520   7.389
 1207POPC   NC317603  15.597  40.865   9.478
 1207POPC   PO417604  16.234  41.109   9.448
 1207POPC   GL117605  16.025  40.882   9.134
 1207POPC   GL217606  15.792  40.652   9.046
 1207POPC   C1A17607  16.103  40.881   8.713
 1207POPC   D2A17608  15.972  41.060   8.358
 1207POPC   C3A17609  16.104  40.740   8.088
 1207POPC   C4A17610  16.085  40.728   7.688
 1207POPC   C1B17611  15.574  40.591   8.693
 1207POPC   C2B17612  15.468  40.896   8.391
 1207POPC   C3B17613  15.623  40.866   7.964
 1207POPC   C4B17614  15.710  40.424   7.834
 1208POPC   NC317615  30.706  22.573   9.744
 1208POPC   PO417616  30.886  21.954   9.531
 1208POPC   GL117617  30.828  22.082   9.158
 1208POPC   GL217618  30.511  22.244   9.230
 1208POPC   C1A17619  30.623  21.943   8.817
 1208POPC   D2A17620  30.568  22.161   8.446
 1208POPC   C3A17621  30.896  22.048   8.170
 1208POPC   C4A17622  30.819  21.814   7.817
 1208POPC   C1B17623  30.436  22.527   8.879
 1208POPC   C2B17624  30.543  22.662   8.475
 1208POPC   C3B17625  30.427  22.512   8.076
 1208POPC   C4B17626  30.682  22.326   7.782
 1209POPC   NC317627  18.297  42.472   9.597
 1209POPC   PO417628  18.007  41.935   9.447
 1209POPC   GL117629  18.194  42.220   9.154
 1209POPC   GL217630  18.500  42.450   9.154
 1209POPC   C1A17631  18.080  42.363   8.770
 1209POPC   D2A17632  18.264  42.206   8.369
 1209POPC   C3A17633  18.146  42.327   7.966
 1209POPC   C4A17634  18.373  42.470   7.621
 1209POPC   C1B17635  18.576  42.283   8.787
 1209POPC   C2B17636  18.699  42.485   8.445
 1209POPC   C3B17637  18.602  42.545   8.067
 1209POPC   C4B17638  18.723  42.822   7.722
 1210POPC   NC317639   5.665  39.981   9.470
 1210POPC   PO417640   6.072  40.517   9.547
 1210POPC   GL117641   5.975  40.215   9.166
 1210POPC   GL217642   6.237  40.249   8.952
 1210POPC   C1A17643   5.971  39.836   8.806
 1210POPC   D2A17644   6.099  39.953   8.355
 1210POPC   C3A17645   5.860  39.809   7.992
 1210POPC   C4A17646   5.943  39.697   7.568
 1210POPC   C1B17647   5.883  40.319   8.679
 1210POPC   C2B17648   5.962  40.570   8.350
 1210POPC   C3B17649   5.957  40.334   8.000
 1210POPC   C4B17650   5.787  40.186   7.650
 1211POPC   NC317651   8.429  23.831   9.494
 1211POPC   PO417652   8.208  23.132   9.682
 1211POPC   GL117653   8.202  23.422   9.315
 1211POPC   GL217654   8.514  23.410   9.158
 1211POPC   C1A17655   8.119  23.548   8.854
 1211POPC   D2A17656   7.855  23.417   8.465
 1211POPC   C3A17657   7.907  23.584   8.018
 1211POPC   C4A17658   8.065  23.979   7.792
 1211POPC   C1B17659   8.616  23.274   8.765
 1211POPC   C2B17660   8.405  23.414   8.401
 1211POPC   C3B17661   8.444  23.633   8.000
 1211POPC   C4B17662   8.530  23.846   7.580
 1212POPC   NC317663   1.786  15.746   9.590
 1212POPC   PO417664   2.299  16.144   9.307
 1212POPC   GL117665   2.028  16.040   9.014
 1212POPC   GL217666   1.729  16.006   9.158
 1212POPC   C1A17667   2.024  15.711   8.696
 1212POPC   D2A17668   2.234  15.758   8.295
 1212POPC   C3A17669   2.048  15.878   7.901
 1212POPC   C4A17670   2.173  15.769   7.461
 1212POPC   C1B17671   1.616  16.027   8.729
 1212POPC   C2B17672   1.753  15.973   8.337
 1212POPC   C3B17673   1.542  15.789   8.008
 1212POPC   C4B17674   1.668  15.584   7.616
 1213POPC   NC317675  25.876  42.491   9.457
 1213POPC   PO417676  26.262  41.923   9.512
 1213POPC   GL117677  26.150  42.192   9.142
 1213POPC   GL217678  26.275  42.522   9.116
 1213POPC   C1A17679  25.981  42.376   8.734
 1213POPC   D2A17680  25.834  42.549   8.348
 1213POPC   C3A17681  25.799  42.244   8.007
 1213POPC   C4A17682  26.062  42.114   7.688
 1213POPC   C1B17683  26.324  42.759   8.745
 1213POPC   C2B17684  26.396  42.595   8.342
 1213POPC   C3B17685  26.172  42.559   7.957
 1213POPC   C4B17686  26.362  42.565   7.559
 1214POPC   NC317687  42.865  23.629   9.494
 1214POPC   PO417688  43.512  23.606   9.333
 1214POPC   GL117689  43.519  23.923   9.011
 1214POPC   GL217690  43.168  23.972   8.997
 1214POPC   C1A17691  43.474  23.861   8.580
 1214POPC   D2A17692  43.073  23.800   8.375
 1214POPC   C3A17693  43.169  23.690   7.983
 1214POPC   C4A17694  43.144  23.981   7.683
 1214POPC   C1B17695  42.979  23.568   8.839
 1214POPC   C2B17696  42.785  23.380   8.467
 1214POPC   C3B17697  42.720  23.434   8.048
 1214POPC   C4B17698  42.561  23.204   7.757
 1215POPC   NC317699  32.723  41.786   9.714
 1215POPC   PO417700  33.273  41.571   9.483
 1215POPC   GL117701  33.261  41.583   9.071
 1215POPC   GL217702  33.186  41.272   9.030
 1215POPC   C1A17703  33.086  41.797   8.711
 1215POPC   D2A17704  32.883  41.677   8.319
 1215POPC   C3A17705  33.061  41.899   7.954
 1215POPC   C4A17706  33.380  41.796   7.640
 1215POPC   C1B17707  33.158  41.300   8.621
 1215POPC   C2B17708  33.315  41.227   8.258
 1215POPC   C3B17709  33.129  41.397   7.929
 1215POPC   C4B17710  32.989  41.310   7.552
 1216POPC   NC317711  22.112  22.168   9.586
 1216POPC   PO417712  22.524  21.829   9.172
 1216POPC   GL117713  22.387  22.186   9.026
 1216POPC   GL217714  22.076  22.314   9.105
 1216POPC   C1A17715  22.270  22.148   8.620
 1216POPC   D2A17716  22.039  22.397   8.419
 1216POPC   C3A17717  22.211  22.463   8.039
 1216POPC   C4A17718  22.252  22.106   7.743
 1216POPC   C1B17719  21.900  21.937   8.889
 1216POPC   C2B17720  21.764  21.956   8.446
 1216POPC   C3B17721  21.839  21.850   8.004
 1216POPC   C4B17722  21.628  21.885   7.605
 1217POPC   NC317723  17.350   1.539   9.530
 1217POPC   PO417724  17.667   0.927   9.661
 1217POPC   GL117725  17.676   1.206   9.331
 1217POPC   GL217726  17.322   1.135   9.215
 1217POPC   C1A17727  17.715   1.185   8.904
 1217POPC   D2A17728  17.595   1.133   8.502
 1217POPC   C3A17729  17.822   1.278   8.138
 1217POPC   C4A17730  17.687   1.220   7.701
 1217POPC   C1B17731  17.290   1.457   8.865
 1217POPC   C2B17732  17.367   1.575   8.402
 1217POPC   C3B17733  17.269   1.399   7.973
 1217POPC   C4B17734  17.107   1.430   7.511
 1218POPC   NC317735  40.535  23.406   9.537
 1218POPC   PO417736  41.023  22.949   9.509
 1218POPC   GL117737  40.761  22.897   9.166
 1218POPC   GL217738  41.058  23.017   8.985
 1218POPC   C1A17739  40.780  22.666   8.741
 1218POPC   D2A17740  40.650  22.697   8.324
 1218POPC   C3A17741  40.906  22.646   7.927
 1218POPC   C4A17742  40.826  22.575   7.462
 1218POPC   C1B17743  40.679  23.158   8.749
 1218POPC   C2B17744  40.745  23.268   8.380
 1218POPC   C3B17745  40.681  23.092   8.019
 1218POPC   C4B17746  40.795  23.096   7.605
 1219POPC   NC317747  21.216  23.640   9.504
 1219POPC   PO417748  21.734  24.087   9.467
 1219POPC   GL117749  21.458  23.907   9.146
 1219POPC   GL217750  21.582  23.565   9.153
 1219POPC   C1A17751  21.253  23.699   8.774
 1219POPC   D2A17752  21.460  23.632   8.379
 1219POPC   C3A17753  21.238  23.611   7.967
 1219POPC   C4A17754  21.151  23.694   7.528
 1219POPC   C1B17755  21.803  23.432   8.781
 1219POPC   C2B17756  21.855  23.234   8.386
 1219POPC   C3B17757  21.619  23.259   8.015
 1219POPC   C4B17758  21.630  23.412   7.598
 1220POPC   NC317759  12.697  14.589   9.877
 1220POPC   PO417760  13.107  14.322   9.431
 1220POPC   GL117761  13.117  14.281   9.010
 1220POPC   GL217762  12.784  14.269   8.831
 1220POPC   C1A17763  13.143  14.567   8.653
 1220POPC   D2A17764  12.853  14.506   8.305
 1220POPC   C3A17765  13.009  14.426   7.909
 1220POPC   C4A17766  12.928  14.041   7.725
 1220POPC   C1B17767  12.536  14.648   8.712
 1220POPC   C2B17768  12.548  14.890   8.389
 1220POPC   C3B17769  12.432  14.841   8.013
 1220POPC   C4B17770  12.678  14.756   7.675
 1221POPC   NC317771  13.151  15.571   9.536
 1221POPC   PO417772  12.897  16.175   9.348
 1221POPC   GL117773  12.802  15.910   9.064
 1221POPC   GL217774  12.731  15.608   9.238
 1221POPC   C1A17775  12.631  16.006   8.666
 1221POPC   D2A17776  12.784  16.197   8.291
 1221POPC   C3A17777  12.879  16.015   7.926
 1221POPC   C4A17778  12.825  16.200   7.501
 1221POPC   C1B17779  12.712  15.497   8.790
 1221POPC   C2B17780  12.704  15.613   8.347
 1221POPC   C3B17781  12.596  15.604   7.928
 1221POPC   C4B17782  12.783  15.704   7.513
 1222POPC   NC317783  15.840  33.052   9.444
 1222POPC   PO417784  16.481  33.099   9.494
 1222POPC   GL117785  16.227  32.850   9.099
 1222POPC   GL217786  15.855  32.743   9.027
 1222POPC   C1A17787  16.195  32.781   8.633
 1222POPC   D2A17788  16.245  33.178   8.411
 1222POPC   C3A17789  16.088  33.157   8.015
 1222POPC   C4A17790  16.128  32.842   7.654
 1222POPC   C1B17791  15.843  33.115   8.772
 1222POPC   C2B17792  15.737  33.021   8.371
 1222POPC   C3B17793  15.778  32.777   8.033
 1222POPC   C4B17794  15.601  32.765   7.655
 1223POPC   NC317795  25.801  12.914   9.492
 1223POPC   PO417796  25.130  12.851   9.409
 1223POPC   GL117797  25.308  12.765   9.053
 1223POPC   GL217798  25.521  13.034   9.100
 1223POPC   C1A17799  25.133  12.677   8.636
 1223POPC   D2A17800  25.230  12.563   8.214
 1223POPC   C3A17801  25.163  12.681   7.863
 1223POPC   C4A17802  25.518  12.924   7.729
 1223POPC   C1B17803  25.316  13.177   8.748
 1223POPC   C2B17804  25.383  13.038   8.351
 1223POPC   C3B17805  25.192  13.157   8.042
 1223POPC   C4B17806  25.029  13.111   7.645
 1224POPC   NC317807  11.740  28.270   9.515
 1224POPC   PO417808  11.063  28.467   9.687
 1224POPC   GL117809  11.251  28.486   9.260
 1224POPC   GL217810  11.387  28.173   9.173
 1224POPC   C1A17811  11.303  28.484   8.781
 1224POPC   D2A17812  11.086  28.500   8.368
 1224POPC   C3A17813  11.329  28.394   8.014
 1224POPC   C4A17814  11.334  28.556   7.617
 1224POPC   C1B17815  11.104  28.017   8.894
 1224POPC   C2B17816  11.003  28.008   8.475
 1224POPC   C3B17817  11.105  27.934   8.020
 1224POPC   C4B17818  11.280  28.064   7.610
 1225POPC   NC317819  29.281  26.318   9.793
 1225POPC   PO417820  29.056  26.831   9.415
 1225POPC   GL117821  29.143  26.820   9.001
 1225POPC   GL217822  28.789  26.748   8.969
 1225POPC   C1A17823  29.139  26.854   8.552
 1225POPC   D2A17824  29.135  26.608   8.215
 1225POPC   C3A17825  29.271  26.807   7.849
 1225POPC   C4A17826  29.068  26.813   7.462
 1225POPC   C1B17827  28.792  27.149   8.833
 1225POPC   C2B17828  28.898  27.315   8.431
 1225POPC   C3B17829  29.014  27.293   8.001
 1225POPC   C4B17830  28.805  27.251   7.613
 1226POPC   NC317831   4.212  39.369   9.472
 1226POPC   PO417832   4.383  38.733   9.370
 1226POPC   GL117833   4.168  39.013   9.103
 1226POPC   GL217834   4.490  39.168   9.096
 1226POPC   C1A17835   4.183  39.317   8.720
 1226POPC   D2A17836   4.158  39.526   8.310
 1226POPC   C3A17837   4.226  39.274   7.932
 1226POPC   C4A17838   4.059  39.289   7.520
 1226POPC   C1B17839   4.721  39.253   8.757
 1226POPC   C2B17840   4.665  39.400   8.371
 1226POPC   C3B17841   4.753  39.324   7.983
 1226POPC   C4B17842   4.650  38.972   7.751
 1227POPC   NC317843   3.797  42.309   9.540
 1227POPC   PO417844   3.223  42.523   9.376
 1227POPC   GL117845   3.465  42.701   9.081
 1227POPC   GL217846   3.754  42.540   9.104
 1227POPC   C1A17847   3.378  42.569   8.681
 1227POPC   D2A17848   3.347  42.132   8.551
 1227POPC   C3A17849   3.267  42.108   8.111
 1227POPC   C4A17850   3.110  42.411   7.802
 1227POPC   C1B17851   3.799  42.295   8.767
 1227POPC   C2B17852   3.696  42.414   8.321
 1227POPC   C3B17853   3.686  42.321   7.905
 1227POPC   C4B17854   3.852  42.635   7.678
 1228POPC   NC317855   2.488   2.948   9.393
 1228POPC   PO417856   3.034   2.589   9.612
 1228POPC   GL117857   2.934   2.529   9.164
 1228POPC   GL217858   2.594   2.487   9.139
 1228POPC   C1A17859   3.136   2.613   8.746
 1228POPC   D2A17860   3.154   2.976   8.443
 1228POPC   C3A17861   2.996   2.872   8.023
 1228POPC   C4A17862   2.714   2.885   7.694
 1228POPC   C1B17863   2.459   2.659   8.782
 1228POPC   C2B17864   2.695   2.719   8.444
 1228POPC   C3B17865   2.468   2.854   8.137
 1228POPC   C4B17866   2.282   2.615   7.876
 1229POPC   NC317867   0.827  37.659   9.534
 1229POPC   PO417868   0.213  37.826   9.437
 1229POPC   GL117869   0.348  37.766   9.071
 1229POPC   GL217870   0.582  37.486   9.121
 1229POPC   C1A17871   0.271  37.906   8.660
 1229POPC   D2A17872   0.455  37.970   8.280
 1229POPC   C3A17873   0.269  37.822   7.921
 1229POPC   C4A17874   0.428  37.691   7.496
 1229POPC   C1B17875   0.371  37.384   8.735
 1229POPC   C2B17876   0.195  37.495   8.316
 1229POPC   C3B17877   0.387  37.333   7.896
 1229POPC   C4B17878   0.559  37.188   7.479
 1230POPC   NC317879  41.678  25.059   9.401
 1230POPC   PO417880  41.329  25.491   9.782
 1230POPC   GL117881  41.390  25.468   9.280
 1230POPC   GL217882  41.684  25.342   8.990
 1230POPC   C1A17883  41.187  25.302   8.889
 1230POPC   D2A17884  41.433  25.053   8.586
 1230POPC   C3A17885  41.581  25.297   8.200
 1230POPC   C4A17886  41.424  25.134   7.795
 1230POPC   C1B17887  41.964  25.044   8.711
 1230POPC   C2B17888  42.131  24.968   8.259
 1230POPC   C3B17889  41.924  25.041   7.824
 1230POPC   C4B17890  41.685  24.875   7.454
 1231POPC   NC317891  10.391  27.244   9.609
 1231POPC   PO417892  10.922  27.591   9.602
 1231POPC   GL117893  10.752  27.604   9.216
 1231POPC   GL217894  10.384  27.548   9.192
 1231POPC   C1A17895  10.637  27.820   8.833
 1231POPC   D2A17896  10.400  27.708   8.531
 1231POPC   C3A17897  10.676  27.704   8.239
 1231POPC   C4A17898  10.655  27.765   7.823
 1231POPC   C1B17899  10.558  27.319   8.823
 1231POPC   C2B17900  10.461  27.225   8.397
 1231POPC   C3B17901  10.361  27.386   8.011
 1231POPC   C4B17902  10.382  27.333   7.570
 1232POPC   NC317903  40.680   3.593   9.917
 1232POPC   PO417904  41.139   3.315   9.547
 1232POPC   GL117905  40.911   3.531   9.238
 1232POPC   GL217906  40.822   3.232   9.103
 1232POPC   C1A17907  40.916   3.623   8.777
 1232POPC   D2A17908  40.979   3.462   8.349
 1232POPC   C3A17909  40.695   3.566   8.005
 1232POPC   C4A17910  40.731   3.750   7.601
 1232POPC   C1B17911  41.063   3.121   8.740
 1232POPC   C2B17912  41.263   2.994   8.363
 1232POPC   C3B17913  41.312   3.249   8.025
 1232POPC   C4B17914  41.114   3.420   7.679
 1233POPC   NC317915  34.293  27.316   9.539
 1233POPC   PO417916  33.747  27.667   9.739
 1233POPC   GL117917  33.738  27.577   9.280
 1233POPC   GL217918  34.064  27.536   9.116
 1233POPC   C1A17919  33.661  27.674   8.825
 1233POPC   D2A17920  33.901  27.581   8.442
 1233POPC   C3A17921  33.635  27.396   8.161
 1233POPC   C4A17922  33.691  27.525   7.777
 1233POPC   C1B17923  33.939  27.224   8.808
 1233POPC   C2B17924  34.025  27.037   8.382
 1233POPC   C3B17925  34.023  27.118   7.940
 1233POPC   C4B17926  33.827  27.114   7.539
 1234POPC   NC317927  11.827  38.042   9.377
 1234POPC   PO417928  11.969  37.481   9.550
 1234POPC   GL117929  12.277  37.625   9.249
 1234POPC   GL217930  12.238  37.934   9.133
 1234POPC   C1A17931  12.302  37.589   8.768
 1234POPC   D2A17932  12.131  37.450   8.347
 1234POPC   C3A17933  12.379  37.461   7.955
 1234POPC   C4A17934  12.507  37.652   7.536
 1234POPC   C1B17935  12.025  38.032   8.745
 1234POPC   C2B17936  11.864  37.908   8.365
 1234POPC   C3B17937  11.946  37.776   7.971
 1234POPC   C4B17938  11.940  38.194   7.779
 1235POPC   NC317939  40.395  40.831   9.303
 1235POPC   PO417940  41.039  41.007   9.527
 1235POPC   GL117941  40.846  40.968   9.149
 1235POPC   GL217942  40.832  40.693   9.023
 1235POPC   C1A17943  40.835  41.114   8.714
 1235POPC   D2A17944  40.580  41.156   8.367
 1235POPC   C3A17945  40.906  41.086   8.092
 1235POPC   C4A17946  40.889  41.108   7.655
 1235POPC   C1B17947  40.545  40.698   8.688
 1235POPC   C2B17948  40.651  40.606   8.268
 1235POPC   C3B17949  40.629  40.734   7.853
 1235POPC   C4B17950  40.724  40.549   7.434
 1236POPC   NC317951  35.246   0.270   9.301
 1236POPC   PO417952  35.813   0.579   9.423
 1236POPC   GL117953  35.617   0.476   9.043
 1236POPC   GL217954  35.457   0.822   8.982
 1236POPC   C1A17955  35.312   0.451   8.659
 1236POPC   D2A17956  35.139   0.543   8.237
 1236POPC   C3A17957  35.227   0.268   7.901
 1236POPC   C4A17958  35.561   0.194   7.628
 1236POPC   C1B17959  35.809   0.757   8.702
 1236POPC   C2B17960  35.754   0.455   8.383
 1236POPC   C3B17961  35.684   0.560   7.980
 1236POPC   C4B17962  35.366   0.756   7.786
 1237POPC   NC317963  29.293   4.725   9.522
 1237POPC   PO417964  28.951   5.320   9.390
 1237POPC   GL117965  29.123   5.100   9.074
 1237POPC   GL217966  29.456   5.086   9.145
 1237POPC   C1A17967  28.999   5.005   8.649
 1237POPC   D2A17968  29.201   5.095   8.264
 1237POPC   C3A17969  29.024   5.172   7.853
 1237POPC   C4A17970  29.158   5.274   7.437
 1237POPC   C1B17971  29.388   4.738   8.824
 1237POPC   C2B17972  29.272   4.590   8.401
 1237POPC   C3B17973  29.475   4.570   8.008
 1237POPC   C4B17974  29.221   4.732   7.687
 1238POPC   NC317975   6.425  29.388   9.386
 1238POPC   PO417976   6.541  28.761   9.271
 1238POPC   GL117977   6.691  29.097   9.061
 1238POPC   GL217978   6.975  29.344   9.169
 1238POPC   C1A17979   6.459  29.120   8.695
 1238POPC   D2A17980   6.540  28.884   8.344
 1238POPC   C3A17981   6.535  29.086   7.967
 1238POPC   C4A17982   6.565  28.876   7.594
 1238POPC   C1B17983   6.808  29.479   8.750
 1238POPC   C2B17984   6.637  29.443   8.319
 1238POPC   C3B17985   6.923  29.408   7.922
 1238POPC   C4B17986   7.015  29.008   7.802
 1239POPC   NC317987   9.172   5.276   9.539
 1239POPC   PO417988   8.854   4.778   9.473
 1239POPC   GL117989   9.019   5.020   9.141
 1239POPC   GL217990   8.846   5.306   9.122
 1239POPC   C1A17991   9.174   5.002   8.748
 1239POPC   D2A17992   9.002   5.191   8.395
 1239POPC   C3A17993   8.861   4.925   8.078
 1239POPC   C4A17994   9.188   4.883   7.755
 1239POPC   C1B17995   8.562   5.387   8.778
 1239POPC   C2B17996   8.504   5.276   8.359
 1239POPC   C3B17997   8.629   5.388   7.986
 1239POPC   C4B17998   8.726   5.127   7.621
 1240POPC   NC317999  22.782  15.815   9.486
 1240POPC   PO418000  23.314  16.133   9.236
 1240POPC   GL118001  22.862  16.076   9.059
 1240POPC   GL218002  22.786  15.731   8.950
 1240POPC   C1A18003  22.536  16.109   8.729
 1240POPC   D2A18004  22.597  16.198   8.297
 1240POPC   C3A18005  22.600  15.966   7.948
 1240POPC   C4A18006  22.781  16.056   7.481
 1240POPC   C1B18007  22.780  15.583   8.503
 1240POPC   C2B18008  23.113  15.592   8.181
 1240POPC   C3B18009  22.970  15.693   7.769
 1240POPC   C4B18010  22.554  15.563   7.646
 1241POPC   NC318011   5.606  13.097   9.497
 1241POPC   PO418012   6.201  12.827   9.447
 1241POPC   GL118013   5.899  12.812   9.142
 1241POPC   GL218014   5.547  12.812   9.090
 1241POPC   C1A18015   5.899  12.996   8.757
 1241POPC   D2A18016   5.785  12.896   8.383
 1241POPC   C3A18017   5.967  13.197   8.107
 1241POPC   C4A18018   5.981  13.013   7.713
 1241POPC   C1B18019   5.360  12.930   8.732
 1241POPC   C2B18020   5.349  13.147   8.378
 1241POPC   C3B18021   5.507  13.019   7.978
 1241POPC   C4B18022   5.305  13.164   7.670
 1242POPC   NC318023  16.668   1.654   9.531
 1242POPC   PO418024  16.274   2.255   9.444
 1242POPC   GL118025  16.528   2.195   9.081
 1242POPC   GL218026  16.766   1.903   9.083
 1242POPC   C1A18027  16.606   2.152   8.657
 1242POPC   D2A18028  16.466   2.288   8.300
 1242POPC   C3A18029  16.505   1.979   7.985
 1242POPC   C4A18030  16.335   2.124   7.605
 1242POPC   C1B18031  17.034   1.882   8.707
 1242POPC   C2B18032  16.882   1.694   8.308
 1242POPC   C3B18033  17.008   1.840   7.905
 1242POPC   C4B18034  16.844   2.251   7.717
 1243POPC   NC318035  39.639  26.075   9.492
 1243POPC   PO418036  39.042  26.359   9.343
 1243POPC   GL118037  39.303  26.178   9.118
 1243POPC   GL218038  39.232  25.865   9.224
 1243POPC   C1A18039  39.446  26.250   8.726
 1243POPC   D2A18040  39.179  26.471   8.434
 1243POPC   C3A18041  39.282  26.320   8.064
 1243POPC   C4A18042  39.369  26.236   7.673
 1243POPC   C1B18043  39.295  25.751   8.786
 1243POPC   C2B18044  39.358  25.894   8.357
 1243POPC   C3B18045  39.270  25.769   7.922
 1243POPC   C4B18046  39.153  25.803   7.465
 1244POPC   NC318047  30.550   9.458   9.498
 1244POPC   PO418048  30.903   9.945   9.317
 1244POPC   GL118049  30.672   9.734   8.999
 1244POPC   GL218050  30.400   9.467   9.015
 1244POPC   C1A18051  30.719   9.799   8.556
 1244POPC   D2A18052  30.811   9.571   8.189
 1244POPC   C3A18053  30.833   9.855   7.857
 1244POPC   C4A18054  31.064   9.858   7.487
 1244POPC   C1B18055  30.210   9.783   8.734
 1244POPC   C2B18056  30.305  10.105   8.417
 1244POPC   C3B18057  30.379   9.966   8.045
 1244POPC   C4B18058  30.219   9.726   7.723
 1245POPC   NC318059  14.404  20.600   9.790
 1245POPC   PO418060  14.835  21.150   9.577
 1245POPC   GL118061  14.626  20.853   9.279
 1245POPC   GL218062  14.261  20.806   9.311
 1245POPC   C1A18063  14.591  20.502   8.954
 1245POPC   D2A18064  14.703  20.505   8.500
 1245POPC   C3A18065  14.504  20.482   8.130
 1245POPC   C4A18066  14.608  20.451   7.725
 1245POPC   C1B18067  14.265  20.883   8.854
 1245POPC   C2B18068  14.379  20.920   8.391
 1245POPC   C3B18069  14.316  20.930   7.925
 1245POPC   C4B18070  14.341  20.842   7.471
 1246POPC   NC318071  14.904  15.064   9.434
 1246POPC   PO418072  15.316  15.557   9.332
 1246POPC   GL118073  15.310  15.367   8.928
 1246POPC   GL218074  15.038  15.133   8.953
 1246POPC   C1A18075  15.151  15.341   8.488
 1246POPC   D2A18076  14.968  15.024   8.221
 1246POPC   C3A18077  15.310  14.890   7.919
 1246POPC   C4A18078  15.612  15.137   7.780
 1246POPC   C1B18079  14.791  15.497   8.824
 1246POPC   C2B18080  14.651  15.601   8.405
 1246POPC   C3B18081  14.936  15.617   8.067
 1246POPC   C4B18082  15.081  15.307   7.778
 1247POPC   NC318083  42.891  44.340   9.554
 1247POPC   PO418084  43.200  43.745   9.638
 1247POPC   GL118085  43.170  43.820   9.234
 1247POPC   GL218086  42.835  43.937   9.208
 1247POPC   C1A18087  43.194  43.654   8.819
 1247POPC   D2A18088  43.168  43.903   8.444
 1247POPC   C3A18089  43.058  43.684   8.066
 1247POPC   C4A18090  42.932  43.842   7.667
 1247POPC   C1B18091  43.006  44.197   8.855
 1247POPC   C2B18092  42.862  44.374   8.429
 1247POPC   C3B18093  42.908  44.294   7.960
 1247POPC   C4B18094  42.845  44.342   7.478
 1248POPC   NC318095  36.192  41.009   9.434
 1248POPC   PO418096  36.170  40.310   9.405
 1248POPC   GL118097  36.293  40.622   9.110
 1248POPC   GL218098  35.949  40.733   9.052
 1248POPC   C1A18099  36.483  40.634   8.697
 1248POPC   D2A18100  36.293  40.398   8.359
 1248POPC   C3A18101  36.076  40.680   8.104
 1248POPC   C4A18102  36.357  40.770   7.799
 1248POPC   C1B18103  36.165  41.043   8.784
 1248POPC   C2B18104  36.333  41.075   8.382
 1248POPC   C3B18105  36.162  41.198   8.009
 1248POPC   C4B18106  35.943  41.060   7.651
 1249POPC   NC318107  18.839   9.555   9.878
 1249POPC   PO418108  19.487   9.718   9.536
 1249POPC   GL118109  19.309   9.640   9.118
 1249POPC   GL218110  18.998   9.808   9.159
 1249POPC   C1A18111  19.122   9.491   8.742
 1249POPC   D2A18112  19.191   9.684   8.323
 1249POPC   C3A18113  19.117   9.494   7.924
 1249POPC   C4A18114  19.373   9.494   7.520
 1249POPC   C1B18115  19.067   9.989   8.730
 1249POPC   C2B18116  18.788  10.025   8.401
 1249POPC   C3B18117  18.870   9.961   7.981
 1249POPC   C4B18118  19.262  10.046   7.765
 1250POPC   NC318119   4.628   3.517   9.475
 1250POPC   PO418120   5.277   3.534   9.399
 1250POPC   GL118121   5.083   3.638   9.023
 1250POPC   GL218122   5.090   3.329   8.928
 1250POPC   C1A18123   4.900   3.627   8.580
 1250POPC   D2A18124   4.712   3.869   8.262
 1250POPC   C3A18125   4.797   3.758   7.825
 1250POPC   C4A18126   5.145   3.738   7.503
 1250POPC   C1B18127   5.401   3.446   8.632
 1250POPC   C2B18128   5.324   3.651   8.254
 1250POPC   C3B18129   5.194   3.439   7.918
 1250POPC   C4B18130   4.899   3.118   7.854
 1251POPC   NC318131   0.442  10.908   9.438
 1251POPC   PO418132   0.387  11.573   9.476
 1251POPC   GL118133   0.405  11.319   9.145
 1251POPC   GL218134   0.731  11.312   9.170
 1251POPC   C1A18135   0.271  11.383   8.748
 1251POPC   D2A18136   0.479  11.507   8.388
 1251POPC   C3A18137   0.288  11.290   8.092
 1251POPC   C4A18138   0.304  11.489   7.693
 1251POPC   C1B18139   0.735  11.187   8.741
 1251POPC   C2B18140   0.707  11.053   8.310
 1251POPC   C3B18141   0.740  11.263   7.892
 1251POPC   C4B18142   0.785  11.171   7.485
 1252POPC   NC318143  22.917  40.984   9.676
 1252POPC   PO418144  22.652  40.374   9.425
 1252POPC   GL118145  22.765  40.733   9.147
 1252POPC   GL218146  23.066  40.958   9.200
 1252POPC   C1A18147  22.970  40.806   8.734
 1252POPC   D2A18148  22.820  40.936   8.350
 1252POPC   C3A18149  23.011  40.733   8.032
 1252POPC   C4A18150  22.942  40.538   7.651
 1252POPC   C1B18151  23.331  41.167   8.905
 1252POPC   C2B18152  23.314  41.115   8.472
 1252POPC   C3B18153  23.151  41.232   8.077
 1252POPC   C4B18154  23.290  41.008   7.704
 1253POPC   NC318155  41.771  10.166   9.556
 1253POPC   PO418156  41.088  10.180   9.719
 1253POPC   GL118157  41.376  10.207   9.217
 1253POPC   GL218158  41.673  10.384   9.110
 1253POPC   C1A18159  41.330  10.554   8.770
 1253POPC   D2A18160  41.144  10.765   8.395
 1253POPC   C3A18161  41.264  10.528   8.059
 1253POPC   C4A18162  41.378  10.510   7.663
 1253POPC   C1B18163  41.627  10.164   8.726
 1253POPC   C2B18164  41.692  10.384   8.313
 1253POPC   C3B18165  41.839  10.578   7.893
 1253POPC   C4B18166  41.811  10.387   7.433
 1254POPC   NC318167  21.493  35.637   9.474
 1254POPC   PO418168  21.591  35.011   9.297
 1254POPC   GL118169  21.331  35.317   9.065
 1254POPC   GL218170  21.166  35.671   9.075
 1254POPC   C1A18171  21.301  35.150   8.669
 1254POPC   D2A18172  21.691  35.094   8.413
 1254POPC   C3A18173  21.681  35.244   7.977
 1254POPC   C4A18174  21.684  34.986   7.635
 1254POPC   C1B18175  21.306  35.657   8.680
 1254POPC   C2B18176  21.359  35.494   8.302
 1254POPC   C3B18177  21.206  35.403   7.941
 1254POPC   C4B18178  21.371  35.719   7.719
 1255POPC   NC318179  42.105  44.230   9.575
 1255POPC   PO418180  41.483  44.107   9.349
 1255POPC   GL118181  41.731  43.982   9.062
 1255POPC   GL218182  41.957  44.264   9.095
 1255POPC   C1A18183  41.481  43.885   8.712
 1255POPC   D2A18184  41.483  43.566   8.418
 1255POPC   C3A18185  41.431  43.847   8.145
 1255POPC   C4A18186  41.690  43.798   7.800
 1255POPC   C1B18187  41.729  44.391   8.751
 1255POPC   C2B18188  41.536  44.317   8.401
 1255POPC   C3B18189  41.726  44.254   8.050
 1255POPC   C4B18190  41.731  44.275   7.631
 1256POPC   NC318191   0.726  21.656   9.542
 1256POPC   PO418192   0.544  20.991   9.655
 1256POPC   GL118193   0.558  21.159   9.262
 1256POPC   GL218194   0.347  21.453   9.257
 1256POPC   C1A18195   0.633  21.254   8.843
 1256POPC   D2A18196   0.507  21.418   8.453
 1256POPC   C3A18197   0.328  21.162   8.145
 1256POPC   C4A18198   0.482  21.062   7.763
 1256POPC   C1B18199   0.211  21.603   8.853
 1256POPC   C2B18200   0.169  21.789   8.429
 1256POPC   C3B18201   0.312  21.676   8.041
 1256POPC   C4B18202   0.417  21.558   7.643
 1257POPC   NC318203  39.928  21.996   9.444
 1257POPC   PO418204  40.259  22.598   9.527
 1257POPC   GL118205  40.000  22.509   9.155
 1257POPC   GL218206  40.056  22.192   9.010
 1257POPC   C1A18207  39.866  22.543   8.709
 1257POPC   D2A18208  40.157  22.507   8.373
 1257POPC   C3A18209  39.937  22.427   8.001
 1257POPC   C4A18210  39.893  22.109   7.717
 1257POPC   C1B18211  40.197  21.853   8.773
 1257POPC   C2B18212  40.158  21.971   8.336
 1257POPC   C3B18213  40.318  21.930   7.918
 1257POPC   C4B18214  40.177  21.676   7.590
 1258POPC   NC318215  32.204  37.447   9.467
 1258POPC   PO418216  32.583  37.988   9.417
 1258POPC   GL118217  32.317  37.799   9.122
 1258POPC   GL218218  32.382  37.435   8.999
 1258POPC   C1A18219  31.975  37.729   8.863
 1258POPC   D2A18220  32.007  37.836   8.444
 1258POPC   C3A18221  32.261  37.593   8.163
 1258POPC   C4A18222  32.047  37.618   7.775
 1258POPC   C1B18223  32.469  37.682   8.648
 1258POPC   C2B18224  32.686  37.876   8.334
 1258POPC   C3B18225  32.700  38.092   7.964
 1258POPC   C4B18226  32.437  37.927   7.659
 1259POPC   NC318227  33.318  40.283   9.632
 1259POPC   PO418228  33.594  40.857   9.542
 1259POPC   GL118229  33.674  40.761   9.151
 1259POPC   GL218230  33.795  40.429   9.314
 1259POPC   C1A18231  33.945  40.916   8.775
 1259POPC   D2A18232  34.054  40.940   8.314
 1259POPC   C3A18233  33.763  41.002   7.987
 1259POPC   C4A18234  33.763  40.844   7.544
 1259POPC   C1B18235  33.758  40.373   8.867
 1259POPC   C2B18236  33.784  40.523   8.466
 1259POPC   C3B18237  33.865  40.494   8.013
 1259POPC   C4B18238  33.829  40.157   7.674
 1260POPC   NC318239  12.832  29.508   9.403
 1260POPC   PO418240  12.534  30.159   9.302
 1260POPC   GL118241  12.824  29.938   9.115
 1260POPC   GL218242  12.559  29.684   9.026
 1260POPC   C1A18243  13.093  30.051   8.789
 1260POPC   D2A18244  13.016  30.216   8.378
 1260POPC   C3A18245  12.967  29.993   8.010
 1260POPC   C4A18246  12.690  30.169   7.714
 1260POPC   C1B18247  12.723  29.735   8.634
 1260POPC   C2B18248  12.850  29.528   8.272
 1260POPC   C3B18249  12.586  29.635   7.949
 1260POPC   C4B18250  12.664  29.709   7.547
 1261POPC   NC318251  18.831  38.184   9.548
 1261POPC   PO418252  19.433  38.558   9.550
 1261POPC   GL118253  19.198  38.466   9.179
 1261POPC   GL218254  18.845  38.602   9.210
 1261POPC   C1A18255  19.263  38.561   8.745
 1261POPC   D2A18256  19.432  38.388   8.362
 1261POPC   C3A18257  19.263  38.518   7.979
 1261POPC   C4A18258  19.335  38.517   7.545
 1261POPC   C1B18259  18.777  38.384   8.810
 1261POPC   C2B18260  18.919  38.453   8.387
 1261POPC   C3B18261  18.767  38.348   8.028
 1261POPC   C4B18262  18.787  38.504   7.660
 1262POPC   NC318263   0.470  41.705   9.625
 1262POPC   PO418264   0.443  41.105   9.435
 1262POPC   GL118265   0.499  41.459   9.144
 1262POPC   GL218266   0.312  41.237   8.940
 1262POPC   C1A18267   0.478  41.658   8.712
 1262POPC   D2A18268   0.322  41.639   8.268
 1262POPC   C3A18269   0.576  41.664   7.845
 1262POPC   C4A18270   0.624  41.759   7.365
 1262POPC   C1B18271   0.690  41.180   8.730
 1262POPC   C2B18272   0.746  41.363   8.322
 1262POPC   C3B18273   0.743  41.180   7.896
 1262POPC   C4B18274   0.479  41.266   7.501
 1263POPC   NC318275   6.449  35.820   9.486
 1263POPC   PO418276   6.840  36.304   9.570
 1263POPC   GL118277   6.661  36.171   9.147
 1263POPC   GL218278   6.306  36.208   9.104
 1263POPC   C1A18279   6.605  36.276   8.691
 1263POPC   D2A18280   6.592  36.028   8.344
 1263POPC   C3A18281   6.482  36.177   7.979
 1263POPC   C4A18282   6.609  36.132   7.577
 1263POPC   C1B18283   6.186  35.993   8.653
 1263POPC   C2B18284   6.100  35.914   8.198
 1263POPC   C3B18285   6.389  35.699   7.836
 1263POPC   C4B18286   6.396  35.721   7.357
 1264POPC   NC318287  21.504  17.051   9.503
 1264POPC   PO418288  21.465  17.690   9.446
 1264POPC   GL118289  21.301  17.430   9.172
 1264POPC   GL218290  21.611  17.296   9.068
 1264POPC   C1A18291  21.161  17.331   8.760
 1264POPC   D2A18292  21.137  17.590   8.426
 1264POPC   C3A18293  21.047  17.459   8.019
 1264POPC   C4A18294  21.242  17.591   7.629
 1264POPC   C1B18295  21.647  17.211   8.645
 1264POPC   C2B18296  21.428  17.215   8.281
 1264POPC   C3B18297  21.509  17.655   8.072
 1264POPC   C4B18298  21.765  17.748   7.708
 1265POPC   NC318299  18.724  28.287   9.476
 1265POPC   PO418300  19.382  28.362   9.339
 1265POPC   GL118301  19.048  28.488   9.095
 1265POPC   GL218302  19.315  28.483   8.837
 1265POPC   C1A18303  18.806  28.536   8.723
 1265POPC   D2A18304  18.844  28.279   8.320
 1265POPC   C3A18305  18.886  28.446   7.890
 1265POPC   C4A18306  19.172  28.534   7.533
 1265POPC   C1B18307  19.059  28.084   8.743
 1265POPC   C2B18308  19.051  27.810   8.368
 1265POPC   C3B18309  19.107  27.971   7.945
 1265POPC   C4B18310  19.279  28.042   7.532
 1266POPC   NC318311   1.669  43.282   9.457
 1266POPC   PO418312   1.038  42.956   9.382
 1266POPC   GL118313   1.401  42.985   9.116
 1266POPC   GL218314   1.633  42.686   9.142
 1266POPC   C1A18315   1.361  43.257   8.745
 1266POPC   D2A18316   1.084  43.106   8.413
 1266POPC   C3A18317   1.188  43.262   8.036
 1266POPC   C4A18318   1.060  43.123   7.693
 1266POPC   C1B18319   1.680  42.860   8.699
 1266POPC   C2B18320   1.610  43.123   8.300
 1266POPC   C3B18321   1.582  42.983   7.852
 1266POPC   C4B18322   1.487  43.158   7.431
 1267POPC   NC318323  25.479   7.591   9.382
 1267POPC   PO418324  24.776   7.655   9.397
 1267POPC   GL118325  24.927   7.278   9.156
 1267POPC   GL218326  25.293   7.188   9.139
 1267POPC   C1A18327  24.971   7.211   8.741
 1267POPC   D2A18328  24.890   7.354   8.343
 1267POPC   C3A18329  25.039   7.199   7.953
 1267POPC   C4A18330  25.148   7.506   7.681
 1267POPC   C1B18331  25.477   7.376   8.754
 1267POPC   C2B18332  25.584   7.240   8.338
 1267POPC   C3B18333  25.600   7.318   7.897
 1267POPC   C4B18334  25.486   7.029   7.592
 1268POPC   NC318335  23.979   3.929   9.464
 1268POPC   PO418336  23.875   4.542   9.679
 1268POPC   GL118337  23.765   4.385   9.275
 1268POPC   GL218338  23.532   4.643   9.193
 1268POPC   C1A18339  23.731   4.112   8.883
 1268POPC   D2A18340  23.581   4.198   8.458
 1268POPC   C3A18341  23.866   4.165   8.132
 1268POPC   C4A18342  23.631   4.092   7.787
 1268POPC   C1B18343  23.809   4.602   8.806
 1268POPC   C2B18344  23.701   4.704   8.383
 1268POPC   C3B18345  23.641   4.613   7.977
 1268POPC   C4B18346  23.975   4.482   7.721
 1269POPC   NC318347  15.039  24.038   9.531
 1269POPC   PO418348  15.354  24.711   9.467
 1269POPC   GL118349  15.177  24.423   9.145
 1269POPC   GL218350  15.194  24.715   8.881
 1269POPC   C1A18351  15.239  24.190   8.753
 1269POPC   D2A18352  15.281  24.452   8.384
 1269POPC   C3A18353  15.442  24.365   7.984
 1269POPC   C4A18354  15.415  24.403   7.545
 1269POPC   C1B18355  14.844  24.511   8.702
 1269POPC   C2B18356  14.795  24.325   8.353
 1269POPC   C3B18357  14.907  24.420   7.945
 1269POPC   C4B18358  14.937  24.508   7.483
 1270POPC   NC318359  41.343   5.537   9.489
 1270POPC   PO418360  41.729   4.960   9.419
 1270POPC   GL118361  41.495   5.163   9.126
 1270POPC   GL218362  41.655   5.458   9.074
 1270POPC   C1A18363  41.542   4.987   8.737
 1270POPC   D2A18364  41.726   5.108   8.374
 1270POPC   C3A18365  41.744   4.884   8.019
 1270POPC   C4A18366  41.739   4.692   7.614
 1270POPC   C1B18367  41.522   5.509   8.688
 1270POPC   C2B18368  41.297   5.388   8.359
 1270POPC   C3B18369  41.503   5.450   8.000
 1270POPC   C4B18370  41.429   5.152   7.708
 1271POPC   NC318371  15.854  18.395   9.388
 1271POPC   PO418372  15.525  17.796   9.346
 1271POPC   GL118373  15.820  17.980   9.043
 1271POPC   GL218374  16.176  18.087   9.065
 1271POPC   C1A18375  15.925  18.037   8.603
 1271POPC   D2A18376  16.037  18.032   8.152
 1271POPC   C3A18377  15.778  18.222   7.856
 1271POPC   C4A18378  15.695  18.297   7.443
 1271POPC   C1B18379  16.135  18.477   8.786
 1271POPC   C2B18380  15.961  18.501   8.354
 1271POPC   C3B18381  16.163  18.539   7.962
 1271POPC   C4B18382  16.214  18.298   7.608
 1272POPC   NC318383  33.407  27.322   9.617
 1272POPC   PO418384  33.955  26.906   9.451
 1272POPC   GL118385  33.830  26.782   9.044
 1272POPC   GL218386  33.476  26.668   9.092
 1272POPC   C1A18387  34.102  26.608   8.731
 1272POPC   D2A18388  34.246  26.469   8.329
 1272POPC   C3A18389  34.093  26.607   7.914
 1272POPC   C4A18390  33.813  26.629   7.516
 1272POPC   C1B18391  33.594  26.425   8.726
 1272POPC   C2B18392  33.727  26.629   8.370
 1272POPC   C3B18393  33.612  26.724   7.975
 1272POPC   C4B18394  33.424  26.379   7.726
 1273POPC   NC318395   7.297  12.633   9.418
 1273POPC   PO418396   7.275  11.956   9.550
 1273POPC   GL118397   7.398  12.099   9.153
 1273POPC   GL218398   7.068  12.251   9.162
 1273POPC   C1A18399   7.465  12.161   8.695
 1273POPC   D2A18400   7.790  12.064   8.349
 1273POPC   C3A18401   7.600  12.055   7.924
 1273POPC   C4A18402   7.574  12.155   7.449
 1273POPC   C1B18403   6.900  12.479   8.842
 1273POPC   C2B18404   6.955  12.285   8.475
 1273POPC   C3B18405   7.237  12.322   8.164
 1273POPC   C4B18406   7.253  12.418   7.735
 1274POPC   NC318407  19.346  15.769   9.229
 1274POPC   PO418408  19.793  16.091   9.616
 1274POPC   GL118409  19.876  15.947   9.202
 1274POPC   GL218410  20.027  15.575   9.195
 1274POPC   C1A18411  19.708  16.152   8.808
 1274POPC   D2A18412  19.453  16.158   8.438
 1274POPC   C3A18413  19.660  16.135   8.054
 1274POPC   C4A18414  19.513  15.986   7.644
 1274POPC   C1B18415  19.936  15.692   8.769
 1274POPC   C2B18416  19.732  15.708   8.382
 1274POPC   C3B18417  19.670  15.628   7.956
 1274POPC   C4B18418  19.953  15.743   7.628
 1275POPC   NC318419   5.704  31.117   9.399
 1275POPC   PO418420   6.282  31.428   9.501
 1275POPC   GL118421   6.179  31.558   9.093
 1275POPC   GL218422   5.823  31.530   9.076
 1275POPC   C1A18423   6.149  31.679   8.682
 1275POPC   D2A18424   5.864  31.671   8.371
 1275POPC   C3A18425   6.004  31.446   8.065
 1275POPC   C4A18426   6.006  31.421   7.668
 1275POPC   C1B18427   5.517  31.529   8.732
 1275POPC   C2B18428   5.371  31.522   8.294
 1275POPC   C3B18429   5.559  31.617   7.890
 1275POPC   C4B18430   5.506  31.482   7.459
 1276POPC   NC318431  37.695  19.476   9.524
 1276POPC   PO418432  37.882  20.109   9.433
 1276POPC   GL118433  37.910  19.772   9.141
 1276POPC   GL218434  37.588  19.611   9.038
 1276POPC   C1A18435  37.957  19.813   8.718
 1276POPC   D2A18436  37.766  19.866   8.353
 1276POPC   C3A18437  38.019  19.815   8.012
 1276POPC   C4A18438  37.849  19.865   7.644
 1276POPC   C1B18439  37.467  19.972   8.811
 1276POPC   C2B18440  37.321  20.121   8.418
 1276POPC   C3B18441  37.389  19.954   8.022
 1276POPC   C4B18442  37.326  19.676   7.710
 1277POPC   NC318443  33.338  21.377   9.571
 1277POPC   PO418444  32.714  21.152   9.545
 1277POPC   GL118445  32.657  21.207   9.105
 1277POPC   GL218446  33.016  21.345   9.159
 1277POPC   C1A18447  32.825  21.181   8.695
 1277POPC   D2A18448  33.190  21.291   8.434
 1277POPC   C3A18449  33.146  21.203   8.009
 1277POPC   C4A18450  32.879  21.216   7.639
 1277POPC   C1B18451  32.958  21.636   8.889
 1277POPC   C2B18452  32.873  21.689   8.475
 1277POPC   C3B18453  33.057  21.701   8.109
 1277POPC   C4B18454  33.145  21.632   7.718
 1278POPC   NC318455  27.923  36.124   9.366
 1278POPC   PO418456  27.222  36.155   9.444
 1278POPC   GL118457  27.505  36.118   9.060
 1278POPC   GL218458  27.865  36.261   8.898
 1278POPC   C1A18459  27.440  36.161   8.656
 1278POPC   D2A18460  27.237  36.091   8.357
 1278POPC   C3A18461  27.479  36.116   8.043
 1278POPC   C4A18462  27.400  36.194   7.623
 1278POPC   C1B18463  27.833  35.847   8.734
 1278POPC   C2B18464  27.611  35.696   8.391
 1278POPC   C3B18465  27.871  35.720   8.061
 1278POPC   C4B18466  27.903  36.028   7.753
 1279POPC   NC318467  16.932   3.279   9.533
 1279POPC   PO418468  16.517   3.852   9.625
 1279POPC   GL118469  16.480   3.642   9.192
 1279POPC   GL218470  16.605   3.311   9.143
 1279POPC   C1A18471  16.470   3.547   8.724
 1279POPC   D2A18472  16.420   3.195   8.477
 1279POPC   C3A18473  16.625   3.280   8.070
 1279POPC   C4A18474  16.746   3.586   7.735
 1279POPC   C1B18475  16.961   3.495   8.897
 1279POPC   C2B18476  16.983   3.478   8.442
 1279POPC   C3B18477  17.123   3.358   8.036
 1279POPC   C4B18478  16.961   3.134   7.688
 1280POPC   NC318479  14.220  34.159   9.309
 1280POPC   PO418480  14.512  34.600   9.689
 1280POPC   GL118481  14.586  34.512   9.201
 1280POPC   GL218482  14.250  34.605   9.054
 1280POPC   C1A18483  14.633  34.739   8.755
 1280POPC   D2A18484  14.742  34.855   8.338
 1280POPC   C3A18485  14.413  34.828   8.084
 1280POPC   C4A18486  14.436  34.818   7.655
 1280POPC   C1B18487  14.428  34.280   8.727
 1280POPC   C2B18488  14.597  34.359   8.333
 1280POPC   C3B18489  14.412  34.322   7.955
 1280POPC   C4B18490  14.099  34.049   7.846
 1281POPC   NC318491  37.559  22.316   9.398
 1281POPC   PO418492  37.942  21.804   9.467
 1281POPC   GL118493  37.992  21.786   9.042
 1281POPC   GL218494  37.651  21.953   9.021
 1281POPC   C1A18495  37.804  21.631   8.656
 1281POPC   D2A18496  37.520  21.877   8.387
 1281POPC   C3A18497  37.806  22.082   8.129
 1281POPC   C4A18498  38.015  21.821   7.806
 1281POPC   C1B18499  37.713  22.258   8.689
 1281POPC   C2B18500  37.438  22.399   8.360
 1281POPC   C3B18501  37.474  22.500   7.943
 1281POPC   C4B18502  37.290  22.207   7.685
 1282POPC   NC318503  20.181  12.642   9.336
 1282POPC   PO418504  20.764  13.008   9.521
 1282POPC   GL118505  20.652  12.843   9.165
 1282POPC   GL218506  20.401  13.081   9.144
 1282POPC   C1A18507  20.833  12.692   8.788
 1282POPC   D2A18508  20.795  12.788   8.373
 1282POPC   C3A18509  20.876  12.653   7.982
 1282POPC   C4A18510  20.579  12.773   7.677
 1282POPC   C1B18511  20.320  12.832   8.752
 1282POPC   C2B18512  20.312  12.593   8.418
 1282POPC   C3B18513  20.259  12.811   8.064
 1282POPC   C4B18514  19.998  12.844   7.725
 1283POPC   NC318515  43.142  32.784   9.624
 1283POPC   PO418516  43.208  33.343   9.529
 1283POPC   GL118517  43.057  33.088   9.186
 1283POPC   GL218518  43.334  32.874   9.169
 1283POPC   C1A18519  43.166  33.152   8.747
 1283POPC   D2A18520  43.098  32.951   8.374
 1283POPC   C3A18521  43.010  33.087   7.973
 1283POPC   C4A18522  43.089  32.930   7.577
 1283POPC   C1B18523  43.546  32.792   8.824
 1283POPC   C2B18524  43.632  32.977   8.436
 1283POPC   C3B18525  43.459  32.842   8.038
 1283POPC   C4B18526  43.494  32.638   7.677
 1284POPC   NC318527  29.681  20.020   9.486
 1284POPC   PO418528  30.331  19.739   9.442
 1284POPC   GL118529  30.033  19.721   9.102
 1284POPC   GL218530  29.702  19.557   9.215
 1284POPC   C1A18531  30.058  19.985   8.708
 1284POPC   D2A18532  30.241  20.135   8.318
 1284POPC   C3A18533  30.002  19.957   7.970
 1284POPC   C4A18534  29.703  20.156   7.713
 1284POPC   C1B18535  29.592  19.820   8.856
 1284POPC   C2B18536  29.681  19.747   8.434
 1284POPC   C3B18537  29.475  19.842   8.064
 1284POPC   C4B18538  29.636  19.621   7.735
 1285POPC   NC318539  35.793   3.247   9.551
 1285POPC   PO418540  36.341   3.716   9.766
 1285POPC   GL118541  36.210   3.616   9.304
 1285POPC   GL218542  35.847   3.592   9.156
 1285POPC   C1A18543  36.321   3.576   8.839
 1285POPC   D2A18544  36.227   3.740   8.410
 1285POPC   C3A18545  36.476   3.688   8.023
 1285POPC   C4A18546  36.267   3.758   7.672
 1285POPC   C1B18547  35.896   3.239   8.839
 1285POPC   C2B18548  36.024   3.192   8.387
 1285POPC   C3B18549  36.120   3.347   7.953
 1285POPC   C4B18550  35.907   3.432   7.537
 1286POPC   NC318551  40.217   2.713   9.808
 1286POPC   PO418552  39.685   2.390   9.491
 1286POPC   GL118553  39.742   2.822   9.262
 1286POPC   GL218554  40.106   2.788   9.297
 1286POPC   C1A18555  39.612   3.069   8.877
 1286POPC   D2A18556  39.639   2.827   8.490
 1286POPC   C3A18557  39.696   2.987   8.052
 1286POPC   C4A18558  39.770   2.763   7.652
 1286POPC   C1B18559  40.063   2.853   8.825
 1286POPC   C2B18560  40.128   2.952   8.376
 1286POPC   C3B18561  40.318   2.856   7.971
 1286POPC   C4B18562  40.236   2.542   7.677
 1287POPC   NC318563  33.025  37.277   9.458
 1287POPC   PO418564  33.460  36.808   9.629
 1287POPC   GL118565  33.272  36.863   9.250
 1287POPC   GL218566  33.478  37.123   9.140
 1287POPC   C1A18567  33.151  36.727   8.843
 1287POPC   D2A18568  33.007  36.931   8.479
 1287POPC   C3A18569  33.127  36.772   8.086
 1287POPC   C4A18570  32.903  36.830   7.741
 1287POPC   C1B18571  33.353  37.253   8.736
 1287POPC   C2B18572  33.413  37.179   8.310
 1287POPC   C3B18573  33.148  37.259   7.954
 1287POPC   C4B18574  33.212  37.217   7.548
 1288POPC   NC318575   7.017  36.612   9.260
 1288POPC   PO418576   7.358  37.158   9.589
 1288POPC   GL118577   7.353  37.022   9.150
 1288POPC   GL218578   7.692  36.871   9.075
 1288POPC   C1A18579   7.448  37.136   8.726
 1288POPC   D2A18580   7.663  36.961   8.410
 1288POPC   C3A18581   7.563  37.188   8.046
 1288POPC   C4A18582   7.308  37.119   7.684
 1288POPC   C1B18583   7.432  36.636   8.772
 1288POPC   C2B18584   7.405  36.477   8.394
 1288POPC   C3B18585   7.494  36.664   8.032
 1288POPC   C4B18586   7.156  36.672   7.819
 1289POPC   NC318587  39.666   4.134   9.808
 1289POPC   PO418588  39.207   4.073   9.365
 1289POPC   GL118589  39.045   4.139   9.007
 1289POPC   GL218590  38.814   3.827   9.026
 1289POPC   C1A18591  39.296   4.194   8.617
 1289POPC   D2A18592  39.496   4.133   8.208
 1289POPC   C3A18593  39.381   4.447   7.935
 1289POPC   C4A18594  39.462   4.366   7.534
 1289POPC   C1B18595  38.931   3.848   8.610
 1289POPC   C2B18596  38.958   4.105   8.234
 1289POPC   C3B18597  39.146   4.003   7.812
 1289POPC   C4B18598  39.083   3.996   7.355
 1290POPC   NC318599   0.688  22.521   9.615
 1290POPC   PO418600   0.389  21.961   9.468
 1290POPC   GL118601   0.572  21.920   9.102
 1290POPC   GL218602   0.590  22.275   9.050
 1290POPC   C1A18603   0.605  21.891   8.671
 1290POPC   D2A18604   0.516  22.165   8.334
 1290POPC   C3A18605   0.630  22.047   7.930
 1290POPC   C4A18606   0.410  22.090   7.540
 1290POPC   C1B18607   0.395  22.549   8.723
 1290POPC   C2B18608   0.338  22.628   8.265
 1290POPC   C3B18609   0.453  22.530   7.847
 1290POPC   C4B18610   0.474  22.597   7.394
 1291POPC   NC318611   6.160  14.084   9.501
 1291POPC   PO418612   5.754  13.530   9.572
 1291POPC   GL118613   5.861  13.706   9.217
 1291POPC   GL218614   5.956  13.350   9.127
 1291POPC   C1A18615   5.942  13.825   8.806
 1291POPC   D2A18616   6.023  13.991   8.390
 1291POPC   C3A18617   5.964  13.746   8.022
 1291POPC   C4A18618   6.208  13.716   7.636
 1291POPC   C1B18619   5.586  13.411   8.853
 1291POPC   C2B18620   5.678  13.538   8.431
 1291POPC   C3B18621   5.501  13.532   8.023
 1291POPC   C4B18622   5.738  13.456   7.676
 1292POPC   NC318623  16.636  17.783   9.501
 1292POPC   PO418624  16.572  17.141   9.458
 1292POPC   GL118625  16.656  17.418   9.141
 1292POPC   GL218626  16.928  17.632   9.099
 1292POPC   C1A18627  16.728  17.383   8.730
 1292POPC   D2A18628  16.940  17.099   8.517
 1292POPC   C3A18629  16.884  17.130   8.108
 1292POPC   C4A18630  16.972  17.250   7.695
 1292POPC   C1B18631  17.040  17.793   8.720
 1292POPC   C2B18632  16.876  17.644   8.333
 1292POPC   C3B18633  17.083  17.651   7.992
 1292POPC   C4B18634  16.907  17.781   7.668
 1293POPC   NC318635   0.048  24.864   9.617
 1293POPC   PO418636   0.420  24.343   9.473
 1293POPC   GL118637   0.532  24.524   9.135
 1293POPC   GL218638   0.342  24.804   9.207
 1293POPC   C1A18639   0.537  24.369   8.728
 1293POPC   D2A18640   0.795  24.308   8.378
 1293POPC   C3A18641   0.534  24.344   7.999
 1293POPC   C4A18642   0.368  24.556   7.630
 1293POPC   C1B18643   0.192  24.757   8.799
 1293POPC   C2B18644   0.094  24.986   8.478
 1293POPC   C3B18645   0.101  24.862   8.071
 1293POPC   C4B18646   0.143  24.995   7.687
 1294POPC   NC318647  13.294  41.578   9.305
 1294POPC   PO418648  13.782  41.294   9.676
 1294POPC   GL118649  13.763  41.461   9.089
 1294POPC   GL218650  14.038  41.268   8.958
 1294POPC   C1A18651  13.562  41.625   8.709
 1294POPC   D2A18652  13.694  41.717   8.321
 1294POPC   C3A18653  13.506  41.747   7.938
 1294POPC   C4A18654  13.477  41.619   7.489
 1294POPC   C1B18655  14.043  41.463   8.602
 1294POPC   C2B18656  13.866  41.259   8.261
 1294POPC   C3B18657  13.901  41.395   7.871
 1294POPC   C4B18658  13.893  41.280   7.465
 1295POPC   NC318659   2.348  35.697   9.496
 1295POPC   PO418660   1.880  35.250   9.497
 1295POPC   GL118661   2.005  35.445   9.134
 1295POPC   GL218662   1.883  35.783   9.207
 1295POPC   C1A18663   1.841  35.208   8.769
 1295POPC   D2A18664   1.639  35.126   8.338
 1295POPC   C3A18665   1.901  35.147   7.960
 1295POPC   C4A18666   2.339  35.273   7.810
 1295POPC   C1B18667   1.814  35.720   8.749
 1295POPC   C2B18668   2.000  35.507   8.385
 1295POPC   C3B18669   2.046  35.642   7.986
 1295POPC   C4B18670   1.838  35.908   7.756
 1296POPC   NC318671  42.696   8.398   9.400
 1296POPC   PO418672  42.124   8.156   9.457
 1296POPC   GL118673  42.301   8.215   9.111
 1296POPC   GL218674  42.580   7.951   9.152
 1296POPC   C1A18675  42.166   8.111   8.724
 1296POPC   D2A18676  42.346   8.211   8.346
 1296POPC   C3A18677  42.214   8.048   7.979
 1296POPC   C4A18678  42.086   8.214   7.585
 1296POPC   C1B18679  42.679   8.126   8.761
 1296POPC   C2B18680  42.775   7.965   8.357
 1296POPC   C3B18681  42.709   8.204   7.982
 1296POPC   C4B18682  42.583   8.056   7.606
 1297POPC   NC318683   7.099   6.099   9.183
 1297POPC   PO418684   6.802   5.592   9.533
 1297POPC   GL118685   6.687   5.795   9.074
 1297POPC   GL218686   6.353   5.985   9.032
 1297POPC   C1A18687   6.613   5.987   8.617
 1297POPC   D2A18688   6.397   5.978   8.218
 1297POPC   C3A18689   6.759   5.984   7.922
 1297POPC   C4A18690   6.871   5.671   7.623
 1297POPC   C1B18691   6.305   5.605   8.756
 1297POPC   C2B18692   6.536   5.477   8.377
 1297POPC   C3B18693   6.472   5.558   7.918
 1297POPC   C4B18694   6.383   5.742   7.500
 1298POPC   NC318695  18.462  15.635   9.675
 1298POPC   PO418696  18.428  15.018   9.840
 1298POPC   GL118697  18.386  15.192   9.386
 1298POPC   GL218698  18.387  14.915   9.155
 1298POPC   C1A18699  18.404  15.377   8.938
 1298POPC   D2A18700  18.335  15.204   8.484
 1298POPC   C3A18701  18.280  15.395   8.114
 1298POPC   C4A18702  18.670  15.347   7.903
 1298POPC   C1B18703  18.218  14.793   8.777
 1298POPC   C2B18704  17.937  14.844   8.453
 1298POPC   C3B18705  18.033  14.940   8.040
 1298POPC   C4B18706  17.920  14.685   7.687
 1299POPC   NC318707  36.457  22.777   9.836
 1299POPC   PO418708  35.783  22.739   9.487
 1299POPC   GL118709  36.185  22.702   9.156
 1299POPC   GL218710  36.519  22.561   9.267
 1299POPC   C1A18711  36.208  22.900   8.696
 1299POPC   D2A18712  36.379  23.224   8.413
 1299POPC   C3A18713  36.318  23.176   7.958
 1299POPC   C4A18714  36.287  22.964   7.527
 1299POPC   C1B18715  36.525  22.513   8.813
 1299POPC   C2B18716  36.209  22.439   8.483
 1299POPC   C3B18717  36.186  22.639   8.057
 1299POPC   C4B18718  36.356  22.484   7.647
 1300POPC   NC318719  35.313  18.859   9.453
 1300POPC   PO418720  35.760  18.549   9.047
 1300POPC   GL118721  35.449  18.785   8.965
 1300POPC   GL218722  35.564  19.101   9.071
 1300POPC   C1A18723  35.089  18.780   8.712
 1300POPC   D2A18724  34.995  19.028   8.353
 1300POPC   C3A18725  35.159  18.893   7.968
 1300POPC   C4A18726  34.970  18.845   7.579
 1300POPC   C1B18727  35.368  19.208   8.694
 1300POPC   C2B18728  35.544  19.065   8.307
 1300POPC   C3B18729  35.556  19.240   7.895
 1300POPC   C4B18730  35.232  19.275   7.619
 1301POPC   NC318731  39.666  31.282   9.560
 1301POPC   PO418732  39.060  31.315   9.543
 1301POPC   GL118733  39.254  31.294   9.125
 1301POPC   GL218734  39.589  31.069   9.108
 1301POPC   C1A18735  39.157  31.564   8.751
 1301POPC   D2A18736  39.028  31.832   8.418
 1301POPC   C3A18737  38.840  31.695   8.037
 1301POPC   C4A18738  39.052  31.576   7.690
 1301POPC   C1B18739  39.596  31.317   8.726
 1301POPC   C2B18740  39.350  31.290   8.332
 1301POPC   C3B18741  39.452  31.302   7.871
 1301POPC   C4B18742  39.669  31.141   7.512
 1302POPC   NC318743  31.006   5.786   9.293
 1302POPC   PO418744  31.811   5.692   9.382
 1302POPC   GL118745  31.537   5.869   9.068
 1302POPC   GL218746  31.437   6.217   9.152
 1302POPC   C1A18747  31.281   5.984   8.700
 1302POPC   D2A18748  31.186   5.795   8.317
 1302POPC   C3A18749  31.414   5.566   8.017
 1302POPC   C4A18750  31.231   5.634   7.621
 1302POPC   C1B18751  31.679   6.297   8.758
 1302POPC   C2B18752  31.559   6.277   8.317
 1302POPC   C3B18753  31.499   6.065   7.917
 1302POPC   C4B18754  31.836   6.058   7.571
 1303POPC   NC318755   7.000  24.659   9.462
 1303POPC   PO418756   6.374  24.280   9.529
 1303POPC   GL118757   6.638  24.358   9.197
 1303POPC   GL218758   6.569  24.715   9.162
 1303POPC   C1A18759   6.839  24.396   8.804
 1303POPC   D2A18760   6.813  24.613   8.419
 1303POPC   C3A18761   6.594  24.410   8.063
 1303POPC   C4A18762   6.782  24.265   7.685
 1303POPC   C1B18763   6.606  24.930   8.774
 1303POPC   C2B18764   6.517  25.008   8.316
 1303POPC   C3B18765   6.759  24.872   7.929
 1303POPC   C4B18766   6.492  24.679   7.593
 1304POPC   NC318767  13.969  43.059   9.536
 1304POPC   PO418768  14.518  43.527   9.465
 1304POPC   GL118769  14.408  43.110   9.252
 1304POPC   GL218770  14.704  43.030   9.006
 1304POPC   C1A18771  14.230  42.872   8.911
 1304POPC   D2A18772  14.399  43.073   8.543
 1304POPC   C3A18773  14.394  43.041   8.100
 1304POPC   C4A18774  14.672  42.909   7.758
 1304POPC   C1B18775  14.746  43.422   8.724
 1304POPC   C2B18776  14.551  43.555   8.309
 1304POPC   C3B18777  14.333  43.548   7.900
 1304POPC   C4B18778  14.436  43.756   7.482
 1305POPC   NC318779  15.383  20.104   9.454
 1305POPC   PO418780  15.178  19.617   9.763
 1305POPC   GL118781  15.083  19.745   9.254
 1305POPC   GL218782  14.975  20.047   9.115
 1305POPC   C1A18783  15.203  19.712   8.772
 1305POPC   D2A18784  15.400  19.776   8.380
 1305POPC   C3A18785  15.166  19.592   8.066
 1305POPC   C4A18786  15.163  19.499   7.649
 1305POPC   C1B18787  14.862  20.084   8.709
 1305POPC   C2B18788  14.978  20.073   8.289
 1305POPC   C3B18789  15.288  20.103   7.992
 1305POPC   C4B18790  15.006  19.970   7.737
 1306POPC   NC318791   0.285  14.154   9.637
 1306POPC   PO418792   0.733  14.551   9.425
 1306POPC   GL118793   0.623  14.223   9.093
 1306POPC   GL218794   0.266  14.078   9.152
 1306POPC   C1A18795   0.533  14.351   8.635
 1306POPC   D2A18796   0.153  14.557   8.421
 1306POPC   C3A18797   0.292  14.727   8.027
 1306POPC   C4A18798   0.500  14.541   7.707
 1306POPC   C1B18799   0.083  14.196   8.800
 1306POPC   C2B18800   0.186  14.036   8.408
 1306POPC   C3B18801   0.333  14.197   8.066
 1306POPC   C4B18802   0.398  14.043   7.680
 1307POPC   NC318803  12.830  28.654   9.443
 1307POPC   PO418804  12.516  28.156   9.695
 1307POPC   GL118805  12.739  28.166   9.287
 1307POPC   GL218806  13.045  28.366   9.081
 1307POPC   C1A18807  12.624  28.213   8.872
 1307POPC   D2A18808  12.864  28.235   8.482
 1307POPC   C3A18809  12.673  28.228   8.072
 1307POPC   C4A18810  12.832  28.211   7.641
 1307POPC   C1B18811  12.856  28.685   8.757
 1307POPC   C2B18812  12.696  28.688   8.302
 1307POPC   C3B18813  12.753  28.690   7.838
 1307POPC   C4B18814  12.671  28.642   7.404
 1308POPC   NC318815   0.831   3.513   9.690
 1308POPC   PO418816   1.437   3.739   9.505
 1308POPC   GL118817   1.274   3.539   9.150
 1308POPC   GL218818   0.939   3.484   9.147
 1308POPC   C1A18819   1.207   3.712   8.750
 1308POPC   D2A18820   1.279   3.595   8.341
 1308POPC   C3A18821   1.056   3.846   8.096
 1308POPC   C4A18822   1.052   3.905   7.690
 1308POPC   C1B18823   0.955   3.248   8.725
 1308POPC   C2B18824   1.148   3.089   8.335
 1308POPC   C3B18825   1.118   3.296   7.910
 1308POPC   C4B18826   0.943   3.098   7.545
 1309POPC   NC318827  17.662  28.143   9.515
 1309POPC   PO418828  17.037  28.232   9.233
 1309POPC   GL118829  17.464  28.395   9.109
 1309POPC   GL218830  17.860  28.415   9.125
 1309POPC   C1A18831  17.538  28.523   8.742
 1309POPC   D2A18832  17.530  28.317   8.371
 1309POPC   C3A18833  17.563  28.588   8.029
 1309POPC   C4A18834  17.405  28.270   7.800
 1309POPC   C1B18835  17.962  28.215   8.728
 1309POPC   C2B18836  18.002  28.161   8.287
 1309POPC   C3B18837  17.926  28.247   7.866
 1309POPC   C4B18838  17.819  28.301   7.410
 1310POPC   NC318839   6.115   2.606   9.480
 1310POPC   PO418840   5.505   2.855   9.507
 1310POPC   GL118841   5.791   2.959   9.190
 1310POPC   GL218842   5.585   3.227   9.052
 1310POPC   C1A18843   5.917   2.925   8.766
 1310POPC   D2A18844   5.752   3.124   8.394
 1310POPC   C3A18845   6.011   3.124   8.015
 1310POPC   C4A18846   6.225   2.948   7.657
 1310POPC   C1B18847   5.390   2.925   8.765
 1310POPC   C2B18848   5.538   2.635   8.469
 1310POPC   C3B18849   5.721   2.698   8.090
 1310POPC   C4B18850   5.846   2.599   7.694
 1311POPC   NC318851  44.700  16.831   9.578
 1311POPC   PO418852  44.835  16.213   9.458
 1311POPC   GL118853  44.654  16.502   9.143
 1311POPC   GL218854  44.507  16.868   9.122
 1311POPC   C1A18855  44.822  16.608   8.732
 1311POPC   D2A18856  44.880  16.375   8.321
 1311POPC   C3A18857  44.948  16.645   7.958
 1311POPC   C4A18858  44.602  16.599   7.684
 1311POPC   C1B18859  44.472  17.021   8.718
 1311POPC   C2B18860  44.599  16.849   8.317
 1311POPC   C3B18861  44.560  17.029   7.931
 1311POPC   C4B18862  44.784  17.080   7.590
 1312POPC   NC318863  32.521  15.356   9.326
 1312POPC   PO418864  32.076  14.832   9.488
 1312POPC   GL118865  32.208  14.945   9.056
 1312POPC   GL218866  32.391  15.207   8.868
 1312POPC   C1A18867  31.956  15.068   8.679
 1312POPC   D2A18868  32.046  15.313   8.356
 1312POPC   C3A18869  31.871  15.248   7.961
 1312POPC   C4A18870  32.243  15.436   7.829
 1312POPC   C1B18871  32.615  14.907   8.726
 1312POPC   C2B18872  32.756  14.826   8.340
 1312POPC   C3B18873  32.619  15.044   7.973
 1312POPC   C4B18874  32.486  14.881   7.614
 1313POPC   NC318875   7.892  31.003   9.346
 1313POPC   PO418876   7.272  31.339   9.501
 1313POPC   GL118877   7.460  31.201   9.139
 1313POPC   GL218878   7.747  31.446   9.124
 1313POPC   C1A18879   7.448  31.078   8.715
 1313POPC   D2A18880   7.613  31.319   8.375
 1313POPC   C3A18881   7.365  31.314   7.993
 1313POPC   C4A18882   7.186  31.225   7.617
 1313POPC   C1B18883   7.463  31.597   8.799
 1313POPC   C2B18884   7.479  31.838   8.443
 1313POPC   C3B18885   7.586  31.780   8.027
 1313POPC   C4B18886   7.222  31.747   7.757
 1314POPC   NC318887  19.532   8.488   9.521
 1314POPC   PO418888  18.982   8.221   9.444
 1314POPC   GL118889  18.903   8.055   9.052
 1314POPC   GL218890  19.220   8.182   8.988
 1314POPC   C1A18891  18.844   8.122   8.631
 1314POPC   D2A18892  19.232   8.186   8.424
 1314POPC   C3A18893  19.167   8.022   8.027
 1314POPC   C4A18894  19.381   7.883   7.690
 1314POPC   C1B18895  19.461   8.520   8.820
 1314POPC   C2B18896  19.510   8.725   8.414
 1314POPC   C3B18897  19.398   8.520   8.035
 1314POPC   C4B18898  19.313   8.410   7.596
 1315POPC   NC318899  32.421   3.743   9.333
 1315POPC   PO418900  32.185   4.266   9.738
 1315POPC   GL118901  32.276   4.269   9.318
 1315POPC   GL218902  32.340   4.617   9.256
 1315POPC   C1A18903  32.218   4.213   8.888
 1315POPC   D2A18904  32.328   4.013   8.548
 1315POPC   C3A18905  32.337   4.111   8.120
 1315POPC   C4A18906  32.476   3.873   7.757
 1315POPC   C1B18907  32.207   4.714   8.838
 1315POPC   C2B18908  32.383   4.535   8.478
 1315POPC   C3B18909  32.503   4.611   8.086
 1315POPC   C4B18910  32.458   4.423   7.705
 1316POPC   NC318911  35.880  14.889   9.346
 1316POPC   PO418912  35.211  15.045   9.512
 1316POPC   GL118913  35.344  15.070   9.079
 1316POPC   GL218914  35.705  15.155   8.948
 1316POPC   C1A18915  35.221  15.102   8.639
 1316POPC   D2A18916  35.390  15.371   8.330
 1316POPC   C3A18917  35.264  15.244   7.927
 1316POPC   C4A18918  35.383  15.273   7.518
 1316POPC   C1B18919  35.574  14.733   8.755
 1316POPC   C2B18920  35.384  14.651   8.322
 1316POPC   C3B18921  35.407  14.739   7.854
 1316POPC   C4B18922  35.239  14.795   7.401
 1317POPC   NC318923   7.117  16.573   9.238
 1317POPC   PO418924   6.650  16.860   9.586
 1317POPC   GL118925   6.606  16.770   9.187
 1317POPC   GL218926   6.804  17.082   9.132
 1317POPC   C1A18927   6.533  16.585   8.780
 1317POPC   D2A18928   6.292  16.700   8.418
 1317POPC   C3A18929   6.540  16.749   8.039
 1317POPC   C4A18930   6.956  16.657   7.833
 1317POPC   C1B18931   6.531  17.079   8.772
 1317POPC   C2B18932   6.789  17.039   8.423
 1317POPC   C3B18933   6.828  17.195   8.028
 1317POPC   C4B18934   6.668  17.069   7.656
 1318POPC   NC318935  25.807   0.107   9.373
 1318POPC   PO418936  26.020   0.708   9.513
 1318POPC   GL118937  26.115   0.494   9.187
 1318POPC   GL218938  25.798   0.607   9.038
 1318POPC   C1A18939  26.223   0.366   8.784
 1318POPC   D2A18940  26.101   0.230   8.374
 1318POPC   C3A18941  26.201   0.548   8.060
 1318POPC   C4A18942  26.377   0.641   7.660
 1318POPC   C1B18943  25.701   0.269   8.736
 1318POPC   C2B18944  25.563   0.232   8.299
 1318POPC   C3B18945  25.827   0.229   7.934
 1318POPC   C4B18946  25.916   0.432   7.577
 1319POPC   NC318947  20.858   9.924   9.729
 1319POPC   PO418948  20.433   9.404   9.622
 1319POPC   GL118949  20.591   9.625   9.278
 1319POPC   GL218950  20.585   9.986   9.258
 1319POPC   C1A18951  20.550   9.563   8.833
 1319POPC   D2A18952  20.454   9.705   8.420
 1319POPC   C3A18953  20.536   9.460   8.065
 1319POPC   C4A18954  20.648   9.553   7.672
 1319POPC   C1B18955  20.476  10.074   8.794
 1319POPC   C2B18956  20.614  10.199   8.355
 1319POPC   C3B18957  20.620  10.017   7.928
 1319POPC   C4B18958  20.616  10.181   7.494
 1320POPC   NC318959  23.592  25.728   9.460
 1320POPC   PO418960  24.002  25.153   9.481
 1320POPC   GL118961  24.108  25.307   9.089
 1320POPC   GL218962  23.992  25.646   9.056
 1320POPC   C1A18963  24.024  25.282   8.659
 1320POPC   D2A18964  23.636  25.158   8.465
 1320POPC   C3A18965  23.574  25.332   8.080
 1320POPC   C4A18966  23.460  25.094   7.772
 1320POPC   C1B18967  23.579  25.549   8.802
 1320POPC   C2B18968  23.314  25.680   8.422
 1320POPC   C3B18969  23.290  25.804   7.988
 1320POPC   C4B18970  23.532  25.627   7.659
 1321POPC   NC318971  42.786  29.802   9.392
 1321POPC   PO418972  43.418  30.107   9.490
 1321POPC   GL118973  43.274  29.792   9.184
 1321POPC   GL218974  43.036  30.047   9.015
 1321POPC   C1A18975  43.179  29.648   8.759
 1321POPC   D2A18976  43.171  30.019   8.484
 1321POPC   C3A18977  43.230  29.881   8.100
 1321POPC   C4A18978  42.991  29.773   7.790
 1321POPC   C1B18979  42.721  29.886   8.694
 1321POPC   C2B18980  42.686  29.882   8.247
 1321POPC   C3B18981  42.500  29.728   7.886
 1321POPC   C4B18982  42.651  29.544   7.514
 1322POPC   NC318983   1.564   0.726   9.352
 1322POPC   PO418984   1.289   0.146   9.546
 1322POPC   GL118985   1.085   0.293   9.182
 1322POPC   GL218986   1.413   0.328   9.027
 1322POPC   C1A18987   0.998   0.294   8.738
 1322POPC   D2A18988   1.226   0.324   8.354
 1322POPC   C3A18989   0.995   0.407   7.964
 1322POPC   C4A18990   1.153   0.323   7.570
 1322POPC   C1B18991   1.374   0.672   8.722
 1322POPC   C2B18992   1.469   0.828   8.347
 1322POPC   C3B18993   1.421   0.655   7.973
 1322POPC   C4B18994   1.400   0.796   7.545
 1323POPC   NC318995   7.907  36.653   9.559
 1323POPC   PO418996   8.309  36.094   9.425
 1323POPC   GL118997   8.251  36.343   9.100
 1323POPC   GL218998   7.921  36.399   9.122
 1323POPC   C1A18999   8.355  36.209   8.713
 1323POPC   D2A19000   8.212  36.013   8.360
 1323POPC   C3A19001   8.344  36.118   7.972
 1323POPC   C4A19002   7.991  35.977   7.725
 1323POPC   C1B19003   7.941  36.586   8.735
 1323POPC   C2B19004   7.911  36.448   8.354
 1323POPC   C3B19005   7.950  36.432   7.956
 1323POPC   C4B19006   8.077  36.509   7.556
 1324POPC   NC319007   5.149  12.267   9.483
 1324POPC   PO419008   4.801  11.714   9.434
 1324POPC   GL119009   4.886  11.962   9.112
 1324POPC   GL219010   5.205  11.924   9.094
 1324POPC   C1A19011   4.889  11.998   8.677
 1324POPC   D2A19012   5.082  12.124   8.328
 1324POPC   C3A19013   4.909  12.395   8.059
 1324POPC   C4A19014   4.891  12.119   7.779
 1324POPC   C1B19015   5.443  11.943   8.753
 1324POPC   C2B19016   5.582  12.130   8.384
 1324POPC   C3B19017   5.439  12.074   7.955
 1324POPC   C4B19018   5.357  12.127   7.515
 1325POPC   NC319019  32.218  23.434   9.388
 1325POPC   PO419020  32.317  22.871   9.698
 1325POPC   GL119021  32.248  22.918   9.275
 1325POPC   GL219022  32.570  23.062   9.197
 1325POPC   C1A19023  32.179  22.785   8.861
 1325POPC   D2A19024  32.423  22.807   8.503
 1325POPC   C3A19025  32.225  22.848   8.128
 1325POPC   C4A19026  32.125  22.817   7.698
 1325POPC   C1B19027  32.423  23.250   8.798
 1325POPC   C2B19028  32.266  23.334   8.384
 1325POPC   C3B19029  32.421  23.348   7.950
 1325POPC   C4B19030  32.505  23.337   7.500
 1326POPC   NC319031   6.887   6.907   9.478
 1326POPC   PO419032   6.675   6.213   9.387
 1326POPC   GL119033   6.790   6.536   9.115
 1326POPC   GL219034   6.534   6.806   9.074
 1326POPC   C1A19035   6.700   6.492   8.694
 1326POPC   D2A19036   6.362   6.453   8.410
 1326POPC   C3A19037   6.537   6.458   8.005
 1326POPC   C4A19038   6.916   6.507   7.752
 1326POPC   C1B19039   6.640   6.992   8.660
 1326POPC   C2B19040   6.578   6.950   8.215
 1326POPC   C3B19041   6.659   6.940   7.757
 1326POPC   C4B19042   6.999   6.842   7.397
 1327POPC   NC319043  38.009  11.117   9.414
 1327POPC   PO419044  38.568  11.474   9.452
 1327POPC   GL119045  38.325  11.363   9.097
 1327POPC   GL219046  38.010  11.525   9.103
 1327POPC   C1A19047  38.299  11.166   8.701
 1327POPC   D2A19048  38.560  11.185   8.344
 1327POPC   C3A19049  38.324  11.200   7.952
 1327POPC   C4A19050  38.553  11.284   7.573
 1327POPC   C1B19051  38.159  11.704   8.747
 1327POPC   C2B19052  38.308  11.629   8.366
 1327POPC   C3B19053  38.117  11.675   7.972
 1327POPC   C4B19054  38.175  11.604   7.538
 1328POPC   NC319055   3.423  11.362   9.335
 1328POPC   PO419056   2.756  11.138   9.489
 1328POPC   GL119057   2.687  11.314   9.102
 1328POPC   GL219058   2.802  11.680   9.173
 1328POPC   C1A19059   2.593  11.110   8.715
 1328POPC   D2A19060   2.698  11.103   8.298
 1328POPC   C3A19061   2.488  11.236   7.946
 1328POPC   C4A19062   2.514  11.598   7.681
 1328POPC   C1B19063   2.968  11.543   8.768
 1328POPC   C2B19064   3.121  11.426   8.369
 1328POPC   C3B19065   2.942  11.533   7.999
 1328POPC   C4B19066   3.147  11.525   7.644
 1329POPC   NC319067  36.948   8.960   9.777
 1329POPC   PO419068  36.584   9.395   9.418
 1329POPC   GL119069  36.866   9.157   9.143
 1329POPC   GL219070  36.970   8.876   9.258
 1329POPC   C1A19071  37.035   9.147   8.739
 1329POPC   D2A19072  36.959   8.981   8.345
 1329POPC   C3A19073  37.183   9.103   8.010
 1329POPC   C4A19074  37.041   9.480   7.822
 1329POPC   C1B19075  36.862   8.687   8.875
 1329POPC   C2B19076  36.812   8.503   8.479
 1329POPC   C3B19077  36.554   8.732   8.164
 1329POPC   C4B19078  36.666   9.068   7.869
 1330POPC   NC319079  12.002   8.768   9.730
 1330POPC   PO419080  11.857   8.129   9.481
 1330POPC   GL119081  12.074   8.381   9.196
 1330POPC   GL219082  12.157   8.093   9.007
 1330POPC   C1A19083  12.243   8.504   8.759
 1330POPC   D2A19084  12.375   8.172   8.475
 1330POPC   C3A19085  12.304   8.364   8.095
 1330POPC   C4A19086  12.185   8.384   7.699
 1330POPC   C1B19087  11.923   7.845   8.688
 1330POPC   C2B19088  11.756   7.790   8.276
 1330POPC   C3B19089  11.919   8.022   7.941
 1330POPC   C4B19090  11.972   7.969   7.470
 1331POPC   NC319091   4.583  24.959   9.502
 1331POPC   PO419092   5.222  25.347   9.463
 1331POPC   GL119093   5.064  25.296   9.087
 1331POPC   GL219094   4.992  24.956   9.193
 1331POPC   C1A19095   5.245  25.280   8.677
 1331POPC   D2A19096   5.121  25.129   8.274
 1331POPC   C3A19097   5.142  25.405   7.949
 1331POPC   C4A19098   4.826  25.517   7.625
 1331POPC   C1B19099   4.959  24.846   8.790
 1331POPC   C2B19100   4.712  24.764   8.455
 1331POPC   C3B19101   4.778  24.804   8.042
 1331POPC   C4B19102   4.886  25.024   7.704
 1332POPC   NC319103  31.641  32.801   9.217
 1332POPC   PO419104  31.133  33.240   9.463
 1332POPC   GL119105  31.317  33.297   9.079
 1332POPC   GL219106  31.668  33.326   9.099
 1332POPC   C1A19107  31.239  33.227   8.652
 1332POPC   D2A19108  31.319  33.327   8.248
 1332POPC   C3A19109  31.402  32.970   7.998
 1332POPC   C4A19110  31.332  32.807   7.560
 1332POPC   C1B19111  31.745  33.238   8.683
 1332POPC   C2B19112  31.824  33.108   8.284
 1332POPC   C3B19113  31.944  33.291   7.923
 1332POPC   C4B19114  31.722  33.098   7.623
 1333POPC   NC319115  19.990  35.903   9.593
 1333POPC   PO419116  19.725  36.500   9.372
 1333POPC   GL119117  19.949  36.191   9.161
 1333POPC   GL219118  19.878  35.824   9.112
 1333POPC   C1A19119  19.821  36.183   8.740
 1333POPC   D2A19120  19.491  36.196   8.453
 1333POPC   C3A19121  19.680  36.249   8.044
 1333POPC   C4A19122  19.531  36.032   7.698
 1333POPC   C1B19123  19.867  35.666   8.717
 1333POPC   C2B19124  19.862  35.816   8.311
 1333POPC   C3B19125  20.103  35.952   7.960
 1333POPC   C4B19126  20.070  36.028   7.526
 1334POPC   NC319127   8.868  18.597   9.497
 1334POPC   PO419128   9.118  17.974   9.536
 1334POPC   GL119129   8.921  18.163   9.168
 1334POPC   GL219130   8.605  18.047   9.074
 1334POPC   C1A19131   8.948  18.179   8.702
 1334POPC   D2A19132   8.827  18.121   8.284
 1334POPC   C3A19133   9.137  17.964   7.999
 1334POPC   C4A19134   9.410  18.225   7.688
 1334POPC   C1B19135   8.572  18.473   8.877
 1334POPC   C2B19136   8.707  18.599   8.463
 1334POPC   C3B19137   8.982  18.621   8.152
 1334POPC   C4B19138   8.911  18.372   7.821
 1335POPC   NC319139  29.332  37.260   9.151
 1335POPC   PO419140  29.253  37.712   9.596
 1335POPC   GL119141  29.215  37.835   9.166
 1335POPC   GL219142  28.875  37.868   9.102
 1335POPC   C1A19143  29.221  37.796   8.717
 1335POPC   D2A19144  29.081  37.517   8.416
 1335POPC   C3A19145  29.362  37.585   8.087
 1335POPC   C4A19146  29.366  37.762   7.704
 1335POPC   C1B19147  28.683  37.704   8.750
 1335POPC   C2B19148  28.690  37.865   8.347
 1335POPC   C3B19149  28.884  37.694   7.969
 1335POPC   C4B19150  28.910  37.569   7.535
 1336POPC   NC319151  15.038  38.619   9.671
 1336POPC   PO419152  15.383  38.088   9.479
 1336POPC   GL119153  15.440  38.367   9.141
 1336POPC   GL219154  15.398  38.712   9.252
 1336POPC   C1A19155  15.286  38.311   8.734
 1336POPC   D2A19156  14.899  38.274   8.507
 1336POPC   C3A19157  15.030  38.186   8.110
 1336POPC   C4A19158  14.984  38.389   7.703
 1336POPC   C1B19159  15.312  38.811   8.821
 1336POPC   C2B19160  15.088  38.751   8.461
 1336POPC   C3B19161  15.257  38.645   8.103
 1336POPC   C4B19162  15.372  38.785   7.715
 1337POPC   NC319163  14.003  30.876   9.293
 1337POPC   PO419164  13.853  30.423   9.797
 1337POPC   GL119165  13.551  30.665   9.284
 1337POPC   GL219166  13.368  30.894   9.129
 1337POPC   C1A19167  13.541  30.554   8.786
 1337POPC   D2A19168  13.813  30.702   8.418
 1337POPC   C3A19169  13.765  30.515   7.997
 1337POPC   C4A19170  13.442  30.241   7.824
 1337POPC   C1B19171  13.565  31.054   8.765
 1337POPC   C2B19172  13.473  31.093   8.339
 1337POPC   C3B19173  13.408  30.891   7.939
 1337POPC   C4B19174  13.182  30.896   7.559
 1338POPC   NC319175  22.795  10.603   9.444
 1338POPC   PO419176  22.541  10.099   9.199
 1338POPC   GL119177  22.838  10.374   8.975
 1338POPC   GL219178  23.166  10.486   9.112
 1338POPC   C1A19179  22.823  10.749   8.741
 1338POPC   D2A19180  22.812  11.025   8.380
 1338POPC   C3A19181  22.755  10.825   7.978
 1338POPC   C4A19182  22.988  10.887   7.610
 1338POPC   C1B19183  23.270  10.517   8.684
 1338POPC   C2B19184  23.059  10.481   8.270
 1338POPC   C3B19185  23.072  10.404   7.810
 1338POPC   C4B19186  23.101  10.152   7.396
 1339POPC   NC319187  13.608  23.925   9.474
 1339POPC   PO419188  13.940  23.380   9.456
 1339POPC   GL119189  13.879  23.537   9.063
 1339POPC   GL219190  13.864  23.897   9.033
 1339POPC   C1A19191  13.734  23.522   8.648
 1339POPC   D2A19192  13.667  23.514   8.197
 1339POPC   C3A19193  13.913  23.496   7.765
 1339POPC   C4A19194  14.011  23.349   7.336
 1339POPC   C1B19195  13.764  24.116   8.653
 1339POPC   C2B19196  13.750  24.165   8.204
 1339POPC   C3B19197  13.623  23.884   7.857
 1339POPC   C4B19198  13.359  23.491   7.782
 1340POPC   NC319199  33.861  18.300   9.632
 1340POPC   PO419200  33.818  17.638   9.661
 1340POPC   GL119201  33.693  17.990   9.264
 1340POPC   GL219202  33.832  18.361   9.142
 1340POPC   C1A19203  33.871  17.999   8.805
 1340POPC   D2A19204  33.664  18.018   8.409
 1340POPC   C3A19205  33.861  18.113   8.070
 1340POPC   C4A19206  33.758  18.093   7.673
 1340POPC   C1B19207  33.746  18.528   8.727
 1340POPC   C2B19208  33.570  18.558   8.309
 1340POPC   C3B19209  33.790  18.584   7.898
 1340POPC   C4B19210  33.862  18.566   7.427
 1341POPC   NC319211  27.485  20.090   9.420
 1341POPC   PO419212  28.029  19.700   9.273
 1341POPC   GL119213  27.723  19.841   9.045
 1341POPC   GL219214  27.540  19.575   8.942
 1341POPC   C1A19215  27.562  20.064   8.702
 1341POPC   D2A19216  27.711  20.043   8.276
 1341POPC   C3A19217  27.427  20.029   7.916
 1341POPC   C4A19218  27.555  20.273   7.612
 1341POPC   C1B19219  27.623  19.576   8.563
 1341POPC   C2B19220  27.321  19.701   8.303
 1341POPC   C3B19221  27.619  19.588   8.011
 1341POPC   C4B19222  27.678  19.688   7.581
 1342POPC   NC319223  40.089  17.250   9.580
 1342POPC   PO419224  40.400  17.796   9.465
 1342POPC   GL119225  40.067  17.597   9.170
 1342POPC   GL219226  39.904  17.912   9.188
 1342POPC   C1A19227  40.049  17.346   8.715
 1342POPC   D2A19228  40.100  17.408   8.238
 1342POPC   C3A19229  40.161  17.071   7.883
 1342POPC   C4A19230  40.335  17.271   7.493
 1342POPC   C1B19231  40.125  17.927   8.784
 1342POPC   C2B19232  39.834  17.752   8.519
 1342POPC   C3B19233  39.695  17.658   8.090
 1342POPC   C4B19234  39.945  17.506   7.753
 1343POPC   NC319235  26.538  31.039   9.407
 1343POPC   PO419236  25.968  30.588   9.344
 1343POPC   GL119237  25.898  30.823   9.019
 1343POPC   GL219238  26.251  30.880   9.026
 1343POPC   C1A19239  25.979  30.665   8.655
 1343POPC   D2A19240  26.020  30.427   8.352
 1343POPC   C3A19241  25.742  30.648   8.124
 1343POPC   C4A19242  25.769  30.787   7.728
 1343POPC   C1B19243  26.320  31.086   8.669
 1343POPC   C2B19244  26.119  31.032   8.319
 1343POPC   C3B19245  26.248  30.763   8.047
 1343POPC   C4B19246  26.242  30.905   7.689
 1344POPC   NC319247  16.157  36.371   9.472
 1344POPC   PO419248  15.712  36.863   9.434
 1344POPC   GL119249  15.937  36.827   9.076
 1344POPC   GL219250  16.212  36.600   9.020
 1344POPC   C1A19251  15.813  37.015   8.717
 1344POPC   D2A19252  15.524  37.029   8.398
 1344POPC   C3A19253  15.770  37.225   8.115
 1344POPC   C4A19254  15.845  37.113   7.733
 1344POPC   C1B19255  16.340  37.003   8.798
 1344POPC   C2B19256  16.208  37.074   8.376
 1344POPC   C3B19257  16.077  36.785   8.076
 1344POPC   C4B19258  16.233  36.773   7.690
 1345POPC   NC319259  11.802  12.260   9.500
 1345POPC   PO419260  12.314  11.838   9.664
 1345POPC   GL119261  12.101  11.911   9.224
 1345POPC   GL219262  12.003  12.248   9.055
 1345POPC   C1A19263  12.210  11.888   8.753
 1345POPC   D2A19264  12.224  11.729   8.320
 1345POPC   C3A19265  12.184  11.958   7.914
 1345POPC   C4A19266  12.323  11.788   7.511
 1345POPC   C1B19267  11.700  11.987   8.864
 1345POPC   C2B19268  11.795  11.974   8.447
 1345POPC   C3B19269  11.721  12.204   8.065
 1345POPC   C4B19270  11.844  12.266   7.653
 1346POPC   NC319271  21.372  28.190   9.538
 1346POPC   PO419272  21.461  28.884   9.511
 1346POPC   GL119273  21.515  28.559   9.173
 1346POPC   GL219274  21.508  28.177   9.056
 1346POPC   C1A19275  21.652  28.567   8.752
 1346POPC   D2A19276  21.390  28.637   8.434
 1346POPC   C3A19277  21.501  28.555   8.068
 1346POPC   C4A19278  21.341  28.697   7.702
 1346POPC   C1B19279  21.414  27.856   8.760
 1346POPC   C2B19280  21.629  27.806   8.379
 1346POPC   C3B19281  21.616  28.063   7.986
 1346POPC   C4B19282  21.232  28.173   7.776
 1347POPC   NC319283  36.885  25.109   9.547
 1347POPC   PO419284  37.097  25.722   9.516
 1347POPC   GL119285  36.845  25.467   9.195
 1347POPC   GL219286  36.942  25.085   9.041
 1347POPC   C1A19287  36.624  25.419   8.835
 1347POPC   D2A19288  36.704  25.134   8.528
 1347POPC   C3A19289  36.804  25.293   8.141
 1347POPC   C4A19290  36.744  25.464   7.688
 1347POPC   C1B19291  37.161  25.380   8.776
 1347POPC   C2B19292  37.314  25.417   8.345
 1347POPC   C3B19293  37.272  25.361   7.910
 1347POPC   C4B19294  37.021  25.038   7.782
 1348POPC   NC319295   1.492  39.181   9.466
 1348POPC   PO419296   0.859  39.481   9.394
 1348POPC   GL119297   1.148  39.350   9.113
 1348POPC   GL219298   1.034  38.992   9.098
 1348POPC   C1A19299   1.362  39.555   8.749
 1348POPC   D2A19300   1.205  39.746   8.374
 1348POPC   C3A19301   1.349  39.595   7.972
 1348POPC   C4A19302   1.346  39.183   7.780
 1348POPC   C1B19303   1.341  39.061   8.758
 1348POPC   C2B19304   1.308  39.221   8.329
 1348POPC   C3B19305   0.947  39.192   8.072
 1348POPC   C4B19306   0.855  38.948   7.694
 1349POPC   NC319307  26.639  32.559   9.424
 1349POPC   PO419308  27.050  32.150   9.582
 1349POPC   GL119309  26.909  32.162   9.166
 1349POPC   GL219310  26.612  32.034   9.267
 1349POPC   C1A19311  26.988  32.290   8.725
 1349POPC   D2A19312  27.146  32.191   8.304
 1349POPC   C3A19313  26.938  32.365   7.931
 1349POPC   C4A19314  27.058  32.388   7.482
 1349POPC   C1B19315  26.493  32.208   8.843
 1349POPC   C2B19316  26.595  32.089   8.431
 1349POPC   C3B19317  26.404  31.998   8.057
 1349POPC   C4B19318  26.562  32.117   7.662
 1350POPC   NC319319  33.815   6.237   9.437
 1350POPC   PO419320  34.183   5.732   9.359
 1350POPC   GL119321  33.872   5.890   9.072
 1350POPC   GL219322  33.534   5.889   9.184
 1350POPC   C1A19323  33.782   5.990   8.670
 1350POPC   D2A19324  33.993   5.851   8.348
 1350POPC   C3A19325  33.807   5.981   8.003
 1350POPC   C4A19326  34.004   5.948   7.595
 1350POPC   C1B19327  33.446   5.638   8.811
 1350POPC   C2B19328  33.373   5.795   8.401
 1350POPC   C3B19329  33.351   5.640   8.029
 1350POPC   C4B19330  33.530   5.426   7.721
 1351POPC   NC319331  14.397  40.653   9.526
 1351POPC   PO419332  14.560  41.335   9.400
 1351POPC   GL119333  14.454  41.007   9.132
 1351POPC   GL219334  14.164  40.788   9.079
 1351POPC   C1A19335  14.608  40.782   8.795
 1351POPC   D2A19336  14.682  40.611   8.394
 1351POPC   C3A19337  14.598  40.739   7.982
 1351POPC   C4A19338  14.863  40.430   7.781
 1351POPC   C1B19339  14.178  40.496   8.721
 1351POPC   C2B19340  14.184  40.559   8.291
 1351POPC   C3B19341  14.383  40.272   7.993
 1351POPC   C4B19342  14.252  40.183   7.568
 1352POPC   NC319343  16.624  24.674   9.442
 1352POPC   PO419344  17.005  24.117   9.451
 1352POPC   GL119345  16.738  24.256   9.140
 1352POPC   GL219346  17.026  24.191   8.936
 1352POPC   C1A19347  16.677  24.557   8.781
 1352POPC   D2A19348  16.470  24.478   8.369
 1352POPC   C3A19349  16.557  24.694   7.999
 1352POPC   C4A19350  16.764  24.605   7.623
 1352POPC   C1B19351  16.991  24.263   8.492
 1352POPC   C2B19352  17.002  24.575   8.214
 1352POPC   C3B19353  16.835  24.245   7.961
 1352POPC   C4B19354  16.692  23.879   7.791
 1353POPC   NC319355   9.834  38.758   9.335
 1353POPC   PO419356   9.497  38.406   9.838
 1353POPC   GL119357   9.617  38.326   9.316
 1353POPC   GL219358   9.922  38.122   9.166
 1353POPC   C1A19359   9.627  38.342   8.814
 1353POPC   D2A19360   9.842  38.561   8.446
 1353POPC   C3A19361   9.763  38.529   7.993
 1353POPC   C4A19362   9.574  38.333   7.629
 1353POPC   C1B19363  10.127  38.205   8.726
 1353POPC   C2B19364  10.085  38.152   8.257
 1353POPC   C3B19365  10.108  38.201   7.799
 1353POPC   C4B19366  10.188  38.095   7.356
 1354POPC   NC319367   2.434  18.429   9.517
 1354POPC   PO419368   3.006  18.110   9.253
 1354POPC   GL119369   2.633  18.186   9.104
 1354POPC   GL219370   2.705  18.511   9.091
 1354POPC   C1A19371   2.505  18.265   8.692
 1354POPC   D2A19372   2.734  18.165   8.336
 1354POPC   C3A19373   2.489  18.253   7.983
 1354POPC   C4A19374   2.507  18.143   7.546
 1354POPC   C1B19375   2.759  18.788   8.751
 1354POPC   C2B19376   2.781  18.859   8.327
 1354POPC   C3B19377   2.968  18.547   8.070
 1354POPC   C4B19378   2.901  18.417   7.694
 1355POPC   NC319379  21.565  10.771   9.939
 1355POPC   PO419380  21.592  10.155   9.598
 1355POPC   GL119381  21.625  10.342   9.152
 1355POPC   GL219382  21.592  10.020   9.068
 1355POPC   C1A19383  21.573  10.638   8.743
 1355POPC   D2A19384  21.464  10.821   8.304
 1355POPC   C3A19385  21.333  10.598   7.915
 1355POPC   C4A19386  21.456  10.461   7.515
 1355POPC   C1B19387  21.380  10.141   8.705
 1355POPC   C2B19388  21.522  10.186   8.299
 1355POPC   C3B19389  21.419  10.092   7.897
 1355POPC   C4B19390  21.075  10.170   7.693
 1356POPC   NC319391  22.283  35.748   9.338
 1356POPC   PO419392  22.037  35.296   9.767
 1356POPC   GL119393  21.972  35.352   9.289
 1356POPC   GL219394  22.279  35.324   9.056
 1356POPC   C1A19395  21.799  35.467   8.846
 1356POPC   D2A19396  21.859  35.593   8.394
 1356POPC   C3A19397  22.133  35.322   8.180
 1356POPC   C4A19398  22.167  35.171   7.745
 1356POPC   C1B19399  22.293  35.514   8.663
 1356POPC   C2B19400  22.486  35.680   8.305
 1356POPC   C3B19401  22.364  35.727   7.871
 1356POPC   C4B19402  22.230  35.604   7.450
 1357POPC   NC319403  33.444  22.252   9.794
 1357POPC   PO419404  34.110  22.355   9.620
 1357POPC   GL119405  33.825  22.267   9.223
 1357POPC   GL219406  33.974  22.014   9.041
 1357POPC   C1A19407  33.605  22.155   8.748
 1357POPC   D2A19408  33.740  22.130   8.331
 1357POPC   C3A19409  33.552  22.340   8.004
 1357POPC   C4A19410  33.660  22.340   7.573
 1357POPC   C1B19411  33.921  21.755   8.687
 1357POPC   C2B19412  34.026  21.717   8.262
 1357POPC   C3B19413  33.965  21.952   7.865
 1357POPC   C4B19414  34.346  21.939   7.586
 1358POPC   NC319415  30.826  10.366   9.184
 1358POPC   PO419416  30.535  10.858   9.537
 1358POPC   GL119417  30.494  10.742   9.108
 1358POPC   GL219418  30.842  10.858   9.081
 1358POPC   C1A19419  30.493  10.538   8.673
 1358POPC   D2A19420  30.793  10.369   8.350
 1358POPC   C3A19421  30.582  10.434   7.949
 1358POPC   C4A19422  30.399  10.810   7.723
 1358POPC   C1B19423  31.079  10.849   8.712
 1358POPC   C2B19424  30.961  10.931   8.305
 1358POPC   C3B19425  31.026  10.682   7.933
 1358POPC   C4B19426  30.858  10.640   7.508
 1359POPC   NC319427  23.532   5.572   9.428
 1359POPC   PO419428  23.886   6.164   9.435
 1359POPC   GL119429  23.823   5.857   9.121
 1359POPC   GL219430  23.542   6.065   8.996
 1359POPC   C1A19431  23.686   5.607   8.727
 1359POPC   D2A19432  23.613   5.409   8.283
 1359POPC   C3A19433  23.915   5.479   7.920
 1359POPC   C4A19434  23.981   5.725   7.522
 1359POPC   C1B19435  23.907   6.082   8.693
 1359POPC   C2B19436  23.923   5.836   8.319
 1359POPC   C3B19437  23.732   5.952   7.921
 1359POPC   C4B19438  23.924   6.341   7.747
 1360POPC   NC319439   0.259  40.656   9.536
 1360POPC   PO419440   0.920  40.473   9.288
 1360POPC   GL119441   0.580  40.734   9.078
 1360POPC   GL219442   0.197  40.747   9.058
 1360POPC   C1A19443   0.511  40.707   8.646
 1360POPC   D2A19444   0.276  40.589   8.301
 1360POPC   C3A19445   0.627  40.556   8.034
 1360POPC   C4A19446   0.762  40.716   7.669
 1360POPC   C1B19447   0.051  40.904   8.680
 1360POPC   C2B19448   0.289  41.138   8.399
 1360POPC   C3B19449   0.223  41.225   7.978
 1360POPC   C4B19450   0.290  40.867   7.761
 1361POPC   NC319451  21.910  24.506   9.558
 1361POPC   PO419452  22.514  24.242   9.503
 1361POPC   GL119453  22.227  24.333   9.180
 1361POPC   GL219454  22.139  24.688   9.085
 1361POPC   C1A19455  22.220  24.274   8.757
 1361POPC   D2A19456  22.041  24.269   8.352
 1361POPC   C3A19457  22.235  24.489   8.008
 1361POPC   C4A19458  22.209  24.327   7.592
 1361POPC   C1B19459  21.989  24.763   8.625
 1361POPC   C2B19460  21.742  24.630   8.221
 1361POPC   C3B19461  21.762  24.462   7.809
 1361POPC   C4B19462  21.958  24.742   7.510
 1362POPC   NC319463  11.705   7.360   9.603
 1362POPC   PO419464  11.127   7.631   9.697
 1362POPC   GL119465  11.451   7.535   9.231
 1362POPC   GL219466  11.349   7.240   9.109
 1362POPC   C1A19467  11.433   7.554   8.715
 1362POPC   D2A19468  11.065   7.597   8.380
 1362POPC   C3A19469  11.110   7.680   7.915
 1362POPC   C4A19470  11.542   7.738   7.758
 1362POPC   C1B19471  11.448   7.043   8.719
 1362POPC   C2B19472  11.237   7.026   8.364
 1362POPC   C3B19473  11.408   7.290   8.061
 1362POPC   C4B19474  11.390   7.262   7.630
 1363POPC   NC319475  21.734  19.731   9.524
 1363POPC   PO419476  22.316  19.991   9.629
 1363POPC   GL119477  22.156  19.842   9.252
 1363POPC   GL219478  21.934  20.119   9.190
 1363POPC   C1A19479  22.037  19.766   8.805
 1363POPC   D2A19480  21.807  19.882   8.414
 1363POPC   C3A19481  21.942  19.664   8.043
 1363POPC   C4A19482  22.163  19.383   7.765
 1363POPC   C1B19483  22.318  20.187   8.925
 1363POPC   C2B19484  22.334  20.093   8.515
 1363POPC   C3B19485  22.201  20.111   8.105
 1363POPC   C4B19486  22.294  19.922   7.730
 1364POPC   NC319487  33.636  31.347   9.670
 1364POPC   PO419488  33.457  31.715   9.196
 1364POPC   GL119489  33.496  31.280   9.147
 1364POPC   GL219490  33.862  31.299   9.083
 1364POPC   C1A19491  33.524  31.207   8.719
 1364POPC   D2A19492  33.592  31.578   8.480
 1364POPC   C3A19493  33.750  31.381   8.157
 1364POPC   C4A19494  33.429  31.336   7.873
 1364POPC   C1B19495  34.016  31.321   8.623
 1364POPC   C2B19496  34.275  31.324   8.233
 1364POPC   C3B19497  34.182  31.468   7.832
 1364POPC   C4B19498  33.888  31.173   7.701
 1365POPC   NC319499   7.223   0.811   9.560
 1365POPC   PO419500   7.722   1.322   9.438
 1365POPC   GL119501   7.506   1.020   9.198
 1365POPC   GL219502   7.194   1.123   9.108
 1365POPC   C1A19503   7.500   0.857   8.794
 1365POPC   D2A19504   7.371   1.066   8.427
 1365POPC   C3A19505   7.669   1.104   8.116
 1365POPC   C4A19506   7.412   1.026   7.757
 1365POPC   C1B19507   7.472   1.390   8.824
 1365POPC   C2B19508   7.425   1.624   8.473
 1365POPC   C3B19509   7.276   1.471   8.101
 1365POPC   C4B19510   7.182   1.518   7.708
 1366POPC   NC319511  43.852  25.689   9.492
 1366POPC   PO419512  44.162  26.253   9.370
 1366POPC   GL119513  43.857  26.085   9.143
 1366POPC   GL219514  44.098  25.844   9.047
 1366POPC   C1A19515  43.667  26.187   8.749
 1366POPC   D2A19516  43.494  26.102   8.345
 1366POPC   C3A19517  43.805  26.179   8.072
 1366POPC   C4A19518  43.813  26.245   7.640
 1366POPC   C1B19519  44.203  25.734   8.644
 1366POPC   C2B19520  44.042  25.706   8.212
 1366POPC   C3B19521  44.123  25.878   7.796
 1366POPC   C4B19522  44.302  25.814   7.381
 1367POPC   NC319523  32.720   2.248   9.521
 1367POPC   PO419524  32.271   1.724   9.409
 1367POPC   GL119525  32.162   1.917   9.054
 1367POPC   GL219526  32.400   2.167   9.102
 1367POPC   C1A19527  32.161   1.967   8.623
 1367POPC   D2A19528  32.342   1.756   8.307
 1367POPC   C3A19529  32.084   1.813   7.959
 1367POPC   C4A19530  32.345   1.926   7.641
 1367POPC   C1B19531  32.422   2.393   8.690
 1367POPC   C2B19532  32.122   2.405   8.324
 1367POPC   C3B19533  32.156   2.370   7.882
 1367POPC   C4B19534  32.490   2.415   7.601
 1368POPC   NC319535  36.211  24.603   9.392
 1368POPC   PO419536  36.490  24.039   9.566
 1368POPC   GL119537  36.082  24.179   9.180
 1368POPC   GL219538  36.156  24.492   8.923
 1368POPC   C1A19539  35.809  24.203   8.747
 1368POPC   D2A19540  36.003  24.488   8.413
 1368POPC   C3A19541  35.898  24.346   8.002
 1368POPC   C4A19542  36.104  24.283   7.611
 1368POPC   C1B19543  36.316  24.831   8.692
 1368POPC   C2B19544  36.306  24.914   8.269
 1368POPC   C3B19545  36.357  24.592   7.929
 1368POPC   C4B19546  36.304  24.709   7.464
 1369POPC   NC319547   5.193  42.600   9.534
 1369POPC   PO419548   4.873  41.952   9.515
 1369POPC   GL119549   5.111  42.193   9.202
 1369POPC   GL219550   5.139  42.559   9.047
 1369POPC   C1A19551   5.077  42.072   8.781
 1369POPC   D2A19552   5.186  42.115   8.350
 1369POPC   C3A19553   5.084  42.468   8.146
 1369POPC   C4A19554   5.059  42.259   7.793
 1369POPC   C1B19555   5.302  42.504   8.645
 1369POPC   C2B19556   5.624  42.401   8.349
 1369POPC   C3B19557   5.541  42.360   7.961
 1369POPC   C4B19558   5.439  42.545   7.593
 1370POPC   NC319559  28.175  27.563   9.545
 1370POPC   PO419560  28.865  27.732   9.493
 1370POPC   GL119561  28.543  27.559   9.180
 1370POPC   GL219562  28.168  27.707   9.074
 1370POPC   C1A19563  28.492  27.540   8.747
 1370POPC   D2A19564  28.613  27.746   8.458
 1370POPC   C3A19565  28.636  27.659   8.055
 1370POPC   C4A19566  28.640  28.053   7.866
 1370POPC   C1B19567  28.063  27.797   8.669
 1370POPC   C2B19568  28.105  27.492   8.359
 1370POPC   C3B19569  28.143  27.539   7.923
 1370POPC   C4B19570  27.986  27.894   7.676
 1371POPC   NC319571  27.121   1.123   9.466
 1371POPC   PO419572  27.739   1.407   9.503
 1371POPC   GL119573  27.552   1.227   9.136
 1371POPC   GL219574  27.287   1.436   9.090
 1371POPC   C1A19575  27.483   1.057   8.707
 1371POPC   D2A19576  27.706   0.859   8.337
 1371POPC   C3A19577  27.689   0.997   7.870
 1371POPC   C4A19578  27.749   0.872   7.401
 1371POPC   C1B19579  27.161   1.459   8.657
 1371POPC   C2B19580  27.267   1.273   8.268
 1371POPC   C3B19581  27.215   1.397   7.849
 1371POPC   C4B19582  27.449   1.289   7.500
 1372POPC   NC319583   0.969  24.508   9.458
 1372POPC   PO419584   1.738  24.308   9.463
 1372POPC   GL119585   1.383  24.322   9.178
 1372POPC   GL219586   1.456  24.642   9.010
 1372POPC   C1A19587   1.068  24.361   8.826
 1372POPC   D2A19588   1.164  24.664   8.508
 1372POPC   C3A19589   1.036  24.641   8.072
 1372POPC   C4A19590   1.044  24.884   7.695
 1372POPC   C1B19591   1.558  24.349   8.635
 1372POPC   C2B19592   1.345  24.238   8.243
 1372POPC   C3B19593   1.348  24.335   7.786
 1372POPC   C4B19594   1.358  24.133   7.362
 1373POPC   NC319595  20.513  25.731   9.437
 1373POPC   PO419596  20.983  26.225   9.291
 1373POPC   GL119597  20.654  26.109   9.105
 1373POPC   GL219598  20.411  26.308   9.153
 1373POPC   C1A19599  20.622  25.961   8.725
 1373POPC   D2A19600  20.819  25.683   8.447
 1373POPC   C3A19601  20.681  25.779   8.040
 1373POPC   C4A19602  20.764  25.927   7.618
 1373POPC   C1B19603  20.251  26.325   8.749
 1373POPC   C2B19604  20.399  26.210   8.315
 1373POPC   C3B19605  20.605  26.312   7.917
 1373POPC   C4B19606  20.474  26.290   7.449
 1374POPC   NC319607  22.853   6.843   9.614
 1374POPC   PO419608  23.080   6.241   9.543
 1374POPC   GL119609  23.051   6.503   9.195
 1374POPC   GL219610  22.717   6.630   9.189
 1374POPC   C1A19611  23.293   6.501   8.817
 1374POPC   D2A19612  23.194   6.385   8.409
 1374POPC   C3A19613  22.959   6.710   8.236
 1374POPC   C4A19614  23.046   6.812   7.838
 1374POPC   C1B19615  22.535   6.842   8.847
 1374POPC   C2B19616  22.429   6.731   8.425
 1374POPC   C3B19617  22.497   6.641   8.007
 1374POPC   C4B19618  22.667   6.554   7.617
 1375POPC   NC319619  13.571  12.253   9.987
 1375POPC   PO419620  13.673  11.782   9.525
 1375POPC   GL119621  13.539  12.149   9.227
 1375POPC   GL219622  13.519  12.534   9.257
 1375POPC   C1A19623  13.663  12.161   8.788
 1375POPC   D2A19624  13.868  11.854   8.511
 1375POPC   C3A19625  13.733  11.930   8.059
 1375POPC   C4A19626  13.564  11.709   7.689
 1375POPC   C1B19627  13.640  12.671   8.813
 1375POPC   C2B19628  13.455  12.523   8.423
 1375POPC   C3B19629  13.535  12.421   7.983
 1375POPC   C4B19630  13.258  12.095   7.773
 1376POPC   NC319631   1.441  26.370   9.488
 1376POPC   PO419632   1.031  25.774   9.491
 1376POPC   GL119633   1.297  25.954   9.212
 1376POPC   GL219634   1.064  26.187   9.136
 1376POPC   C1A19635   1.421  25.872   8.793
 1376POPC   D2A19636   1.234  26.020   8.417
 1376POPC   C3A19637   1.465  25.987   8.056
 1376POPC   C4A19638   1.228  25.855   7.758
 1376POPC   C1B19639   0.785  26.331   8.831
 1376POPC   C2B19640   0.757  26.203   8.406
 1376POPC   C3B19641   0.962  26.268   8.010
 1376POPC   C4B19642   0.847  26.156   7.591
 1377POPC   NC319643   3.358  15.343   9.512
 1377POPC   PO419644   3.845  14.907   9.356
 1377POPC   GL119645   3.507  15.066   9.086
 1377POPC   GL219646   3.510  15.433   9.052
 1377POPC   C1A19647   3.510  15.139   8.641
 1377POPC   D2A19648   3.635  15.417   8.315
 1377POPC   C3A19649   3.632  15.170   7.981
 1377POPC   C4A19650   3.289  15.043   7.740
 1377POPC   C1B19651   3.206  15.520   8.783
 1377POPC   C2B19652   3.127  15.384   8.355
 1377POPC   C3B19653   3.213  15.510   7.971
 1377POPC   C4B19654   3.530  15.532   7.648
 1378POPC   NC319655  37.330  29.110   9.417
 1378POPC   PO419656  36.660  29.036   9.500
 1378POPC   GL119657  36.847  29.179   9.153
 1378POPC   GL219658  37.041  29.465   9.136
 1378POPC   C1A19659  36.996  28.967   8.799
 1378POPC   D2A19660  37.077  28.765   8.425
 1378POPC   C3A19661  37.149  28.976   8.066
 1378POPC   C4A19662  36.903  28.992   7.694
 1378POPC   C1B19663  36.797  29.435   8.726
 1378POPC   C2B19664  36.817  29.272   8.332
 1378POPC   C3B19665  36.945  29.429   7.952
 1378POPC   C4B19666  37.148  29.719   7.791
 1379POPC   NC319667   6.592  25.604   9.582
 1379POPC   PO419668   6.897  25.121   9.453
 1379POPC   GL119669   6.701  25.326   9.158
 1379POPC   GL219670   6.379  25.215   9.241
 1379POPC   C1A19671   6.859  25.399   8.778
 1379POPC   D2A19672   7.032  25.112   8.500
 1379POPC   C3A19673   6.905  25.318   8.173
 1379POPC   C4A19674   6.897  25.373   7.782
 1379POPC   C1B19675   6.302  25.341   8.805
 1379POPC   C2B19676   6.490  25.505   8.433
 1379POPC   C3B19677   6.429  25.531   8.009
 1379POPC   C4B19678   6.396  25.182   7.769
 1380POPC   NC319679  35.234  15.620   9.565
 1380POPC   PO419680  35.789  16.048   9.584
 1380POPC   GL119681  35.512  15.940   9.237
 1380POPC   GL219682  35.649  15.600   9.235
 1380POPC   C1A19683  35.253  16.048   8.846
 1380POPC   D2A19684  35.234  16.326   8.468
 1380POPC   C3A19685  35.271  16.171   8.041
 1380POPC   C4A19686  35.406  15.754   7.809
 1380POPC   C1B19687  35.373  15.546   8.876
 1380POPC   C2B19688  35.015  15.625   8.615
 1380POPC   C3B19689  35.040  15.744   8.190
 1380POPC   C4B19690  34.915  15.609   7.783
 1381POPC   NC319691  12.620   0.877   9.515
 1381POPC   PO419692  12.877   1.472   9.410
 1381POPC   GL119693  12.985   1.301   9.021
 1381POPC   GL219694  13.096   0.964   9.059
 1381POPC   C1A19695  13.037   1.185   8.594
 1381POPC   D2A19696  13.285   1.094   8.267
 1381POPC   C3A19697  12.952   1.023   8.028
 1381POPC   C4A19698  12.889   1.228   7.668
 1381POPC   C1B19699  12.741   0.871   8.868
 1381POPC   C2B19700  12.618   0.880   8.458
 1381POPC   C3B19701  12.576   0.659   8.089
 1381POPC   C4B19702  12.652   0.781   7.669
 1382POPC   NC319703  33.204  39.663   9.375
 1382POPC   PO419704  32.926  39.183   9.812
 1382POPC   GL119705  32.946  39.151   9.325
 1382POPC   GL219706  32.736  39.423   9.262
 1382POPC   C1A19707  33.004  39.051   8.839
 1382POPC   D2A19708  33.032  39.222   8.425
 1382POPC   C3A19709  32.923  39.045   8.025
 1382POPC   C4A19710  33.179  39.216   7.682
 1382POPC   C1B19711  32.841  39.519   8.828
 1382POPC   C2B19712  32.719  39.631   8.405
 1382POPC   C3B19713  32.850  39.536   8.000
 1382POPC   C4B19714  32.685  39.355   7.657
 1383POPC   NC319715  27.381   4.256   9.366
 1383POPC   PO419716  27.920   4.690   9.362
 1383POPC   GL119717  27.722   4.443   9.021
 1383POPC   GL219718  27.781   4.091   9.089
 1383POPC   C1A19719  27.470   4.294   8.648
 1383POPC   D2A19720  27.197   4.479   8.279
 1383POPC   C3A19721  27.434   4.499   7.925
 1383POPC   C4A19722  27.528   4.665   7.525
 1383POPC   C1B19723  28.033   4.050   8.768
 1383POPC   C2B19724  27.897   4.122   8.383
 1383POPC   C3B19725  27.961   3.953   8.001
 1383POPC   C4B19726  27.753   4.134   7.674
 1384POPC   NC319727  27.105   1.906   9.477
 1384POPC   PO419728  26.533   2.274   9.448
 1384POPC   GL119729  26.673   2.019   9.087
 1384POPC   GL219730  26.977   1.821   9.002
 1384POPC   C1A19731  26.761   2.057   8.639
 1384POPC   D2A19732  26.996   2.282   8.398
 1384POPC   C3A19733  26.820   2.212   8.028
 1384POPC   C4A19734  26.908   1.895   7.788
 1384POPC   C1B19735  27.281   1.948   8.662
 1384POPC   C2B19736  27.340   1.788   8.243
 1384POPC   C3B19737  27.414   1.871   7.800
 1384POPC   C4B19738  27.208   1.722   7.409
 1385POPC   NC319739  13.467  30.270   9.543
 1385POPC   PO419740  13.294  29.686   9.415
 1385POPC   GL119741  13.705  29.874   9.215
 1385POPC   GL219742  13.537  30.132   9.059
 1385POPC   C1A19743  13.967  30.019   8.805
 1385POPC   D2A19744  13.865  30.189   8.391
 1385POPC   C3A19745  13.948  30.019   7.962
 1385POPC   C4A19746  13.854  29.759   7.587
 1385POPC   C1B19747  13.511  29.776   8.740
 1385POPC   C2B19748  13.472  29.857   8.301
 1385POPC   C3B19749  13.421  29.735   7.899
 1385POPC   C4B19750  13.074  29.517   7.788
 1386POPC   NC319751  34.139   3.217   9.406
 1386POPC   PO419752  33.453   3.174   9.505
 1386POPC   GL119753  33.643   3.418   9.160
 1386POPC   GL219754  33.916   3.667   9.227
 1386POPC   C1A19755  33.572   3.628   8.748
 1386POPC   D2A19756  33.700   3.541   8.316
 1386POPC   C3A19757  33.596   3.752   7.918
 1386POPC   C4A19758  33.780   3.424   7.727
 1386POPC   C1B19759  33.998   3.911   8.847
 1386POPC   C2B19760  34.020   4.001   8.440
 1386POPC   C3B19761  34.085   3.783   8.057
 1386POPC   C4B19762  33.995   3.884   7.625
 1387POPC   NC319763  13.829  28.553   9.543
 1387POPC   PO419764  13.372  28.140   9.418
 1387POPC   GL119765  13.558  28.401   9.132
 1387POPC   GL219766  13.430  28.741   9.240
 1387POPC   C1A19767  13.637  28.264   8.702
 1387POPC   D2A19768  13.353  28.098   8.392
 1387POPC   C3A19769  13.555  28.071   8.016
 1387POPC   C4A19770  13.667  28.409   7.775
 1387POPC   C1B19771  13.417  28.718   8.772
 1387POPC   C2B19772  13.206  28.651   8.376
 1387POPC   C3B19773  13.165  28.421   8.007
 1387POPC   C4B19774  13.202  28.586   7.604
 1388POPC   NC319775  36.338  37.490   9.495
 1388POPC   PO419776  35.772  37.839   9.449
 1388POPC   GL119777  35.962  37.568   9.111
 1388POPC   GL219778  36.295  37.558   8.997
 1388POPC   C1A19779  35.879  37.473   8.691
 1388POPC   D2A19780  35.693  37.809   8.423
 1388POPC   C3A19781  35.676  37.695   7.987
 1388POPC   C4A19782  35.899  37.309   7.816
 1388POPC   C1B19783  36.344  37.594   8.538
 1388POPC   C2B19784  36.137  37.599   8.184
 1388POPC   C3B19785  36.375  37.527   7.851
 1388POPC   C4B19786  36.721  37.714   7.671
 1389POPC   NC319787  21.404  26.229   9.489
 1389POPC   PO419788  21.019  25.653   9.555
 1389POPC   GL119789  21.218  25.796   9.104
 1389POPC   GL219790  21.430  26.075   9.020
 1389POPC   C1A19791  21.377  25.745   8.636
 1389POPC   D2A19792  21.356  25.518   8.255
 1389POPC   C3A19793  21.178  25.729   7.897
 1389POPC   C4A19794  21.530  25.974   7.747
 1389POPC   C1B19795  21.156  26.194   8.658
 1389POPC   C2B19796  21.149  26.105   8.222
 1389POPC   C3B19797  21.103  26.252   7.789
 1389POPC   C4B19798  21.389  26.378   7.460
 1390POPC   NC319799   2.352  44.131   9.771
 1390POPC   PO419800   2.055  43.581   9.413
 1390POPC   GL119801   1.936  43.763   9.075
 1390POPC   GL219802   1.876  44.063   9.266
 1390POPC   C1A19803   2.113  43.865   8.661
 1390POPC   D2A19804   1.959  43.721   8.283
 1390POPC   C3A19805   2.307  43.744   7.987
 1390POPC   C4A19806   1.991  43.794   7.715
 1390POPC   C1B19807   1.824  44.219   8.885
 1390POPC   C2B19808   1.863  44.298   8.468
 1390POPC   C3B19809   2.021  44.189   8.075
 1390POPC   C4B19810   2.073  44.313   7.652
 1391POPC   NC319811  17.011  21.208   9.480
 1391POPC   PO419812  17.638  21.511   9.437
 1391POPC   GL119813  17.506  21.237   9.146
 1391POPC   GL219814  17.223  21.452   9.099
 1391POPC   C1A19815  17.671  21.252   8.735
 1391POPC   D2A19816  17.580  21.556   8.464
 1391POPC   C3A19817  17.685  21.462   8.093
 1391POPC   C4A19818  17.589  21.545   7.711
 1391POPC   C1B19819  17.168  21.435   8.713
 1391POPC   C2B19820  17.087  21.612   8.328
 1391POPC   C3B19821  17.166  21.418   7.966
 1391POPC   C4B19822  17.291  21.139   7.648
 1392POPC   NC319823   6.042  34.225   9.501
 1392POPC   PO419824   5.676  34.727   9.380
 1392POPC   GL119825   5.685  34.380   9.119
 1392POPC   GL219826   6.063  34.382   9.024
 1392POPC   C1A19827   5.674  34.424   8.675
 1392POPC   D2A19828   6.075  34.357   8.509
 1392POPC   C3A19829   6.081  34.407   8.095
 1392POPC   C4A19830   5.717  34.503   7.830
 1392POPC   C1B19831   6.233  34.756   8.804
 1392POPC   C2B19832   6.193  35.009   8.440
 1392POPC   C3B19833   5.990  34.905   8.079
 1392POPC   C4B19834   6.021  34.989   7.694
 1393POPC   NC319835   9.627  25.157   9.582
 1393POPC   PO419836  10.271  25.364   9.511
 1393POPC   GL119837   9.915  25.351   9.195
 1393POPC   GL219838   9.554  25.493   9.204
 1393POPC   C1A19839   9.862  25.494   8.774
 1393POPC   D2A19840  10.081  25.636   8.411
 1393POPC   C3A19841   9.798  25.498   8.116
 1393POPC   C4A19842   9.789  25.108   7.860
 1393POPC   C1B19843   9.451  25.190   8.884
 1393POPC   C2B19844   9.527  25.178   8.441
 1393POPC   C3B19845   9.352  25.285   8.026
 1393POPC   C4B19846   9.522  25.517   7.641
 1394POPC   NC319847  15.129  11.429   9.487
 1394POPC   PO419848  15.786  11.139   9.556
 1394POPC   GL119849  15.454  11.122   9.169
 1394POPC   GL219850  15.288  11.413   9.011
 1394POPC   C1A19851  15.324  11.026   8.689
 1394POPC   D2A19852  15.281  11.300   8.334
 1394POPC   C3A19853  15.220  11.078   7.916
 1394POPC   C4A19854  15.243  11.179   7.495
 1394POPC   C1B19855  14.941  11.668   8.818
 1394POPC   C2B19856  14.877  11.620   8.389
 1394POPC   C3B19857  14.898  11.475   8.003
 1394POPC   C4B19858  14.918  11.636   7.624
 1395POPC   NC319859   6.519   0.953   9.317
 1395POPC   PO419860   6.919   0.419   9.521
 1395POPC   GL119861   6.723   0.314   9.096
 1395POPC   GL219862   6.462   0.464   9.129
 1395POPC   C1A19863   6.776   0.205   8.665
 1395POPC   D2A19864   6.944   0.302   8.257
 1395POPC   C3A19865   6.725   0.343   7.886
 1395POPC   C4A19866   6.733   0.675   7.607
 1395POPC   C1B19867   6.294   0.389   8.742
 1395POPC   C2B19868   6.405   0.338   8.310
 1395POPC   C3B19869   6.207   0.454   7.911
 1395POPC   C4B19870   6.145   0.664   7.500
 1396POPC   NC319871  18.805  35.742   9.514
 1396POPC   PO419872  18.770  35.150   9.502
 1396POPC   GL119873  19.003  35.182   9.114
 1396POPC   GL219874  18.991  35.537   9.081
 1396POPC   C1A19875  19.162  35.097   8.673
 1396POPC   D2A19876  18.993  35.148   8.243
 1396POPC   C3A19877  19.158  35.057   7.842
 1396POPC   C4A19878  19.042  35.232   7.420
 1396POPC   C1B19879  18.827  35.526   8.660
 1396POPC   C2B19880  19.040  35.646   8.274
 1396POPC   C3B19881  19.071  35.568   7.828
 1396POPC   C4B19882  19.213  35.761   7.414
 1397POPC   NC319883   1.972   6.417   9.538
 1397POPC   PO419884   2.236   5.746   9.401
 1397POPC   GL119885   2.282   6.024   9.084
 1397POPC   GL219886   1.934   6.099   9.095
 1397POPC   C1A19887   2.122   5.856   8.689
 1397POPC   D2A19888   1.970   5.923   8.288
 1397POPC   C3A19889   2.278   5.692   8.094
 1397POPC   C4A19890   2.414   5.656   7.712
 1397POPC   C1B19891   1.625   5.972   8.771
 1397POPC   C2B19892   1.540   5.634   8.459
 1397POPC   C3B19893   1.608   5.597   7.996
 1397POPC   C4B19894   1.908   5.865   7.755
 1398POPC   NC319895   1.042   3.975   9.397
 1398POPC   PO419896   1.434   4.543   9.484
 1398POPC   GL119897   1.323   4.366   9.126
 1398POPC   GL219898   1.448   4.044   9.104
 1398POPC   C1A19899   1.106   4.267   8.764
 1398POPC   D2A19900   0.931   4.465   8.391
 1398POPC   C3A19901   1.045   4.351   7.966
 1398POPC   C4A19902   0.981   4.382   7.510
 1398POPC   C1B19903   1.607   4.033   8.717
 1398POPC   C2B19904   1.389   4.145   8.367
 1398POPC   C3B19905   1.549   4.223   8.023
 1398POPC   C4B19906   1.457   4.219   7.637
 1399POPC   NC319907  23.202   9.687   9.503
 1399POPC   PO419908  23.740  10.062   9.545
 1399POPC   GL119909  23.851   9.911   9.110
 1399POPC   GL219910  23.789   9.535   9.045
 1399POPC   C1A19911  23.709   9.849   8.673
 1399POPC   D2A19912  23.499   9.716   8.330
 1399POPC   C3A19913  23.686   9.864   8.003
 1399POPC   C4A19914  23.983   9.894   7.736
 1399POPC   C1B19915  23.377   9.460   8.770
 1399POPC   C2B19916  23.095   9.404   8.379
 1399POPC   C3B19917  23.305   9.424   7.953
 1399POPC   C4B19918  23.753   9.412   7.805
 1400POPC   NC319919   3.363   2.365   9.391
 1400POPC   PO419920   3.853   2.830   9.487
 1400POPC   GL119921   3.626   2.736   9.142
 1400POPC   GL219922   3.699   2.408   9.000
 1400POPC   C1A19923   3.516   2.973   8.807
 1400POPC   D2A19924   3.688   2.956   8.414
 1400POPC   C3A19925   3.487   3.071   8.046
 1400POPC   C4A19926   3.664   2.920   7.715
 1400POPC   C1B19927   3.639   2.458   8.557
 1400POPC   C2B19928   3.397   2.585   8.201
 1400POPC   C3B19929   3.329   2.567   7.747
 1400POPC   C4B19930   3.333   2.326   7.306
 1401POPC   NC319931  10.043  33.043   9.354
 1401POPC   PO419932   9.341  33.147   9.438
 1401POPC   GL119933   9.538  33.019   9.107
 1401POPC   GL219934   9.575  32.685   9.202
 1401POPC   C1A19935   9.689  33.216   8.734
 1401POPC   D2A19936   9.880  33.366   8.365
 1401POPC   C3A19937   9.755  33.130   7.999
 1401POPC   C4A19938   9.806  33.213   7.548
 1401POPC   C1B19939   9.837  32.731   8.801
 1401POPC   C2B19940   9.908  32.456   8.462
 1401POPC   C3B19941  10.015  32.455   8.031
 1401POPC   C4B19942   9.842  32.722   7.699
 1402POPC   NC319943  20.006  28.986   9.693
 1402POPC   PO419944  19.462  29.278   9.393
 1402POPC   GL119945  19.696  29.113   9.067
 1402POPC   GL219946  20.013  29.073   9.184
 1402POPC   C1A19947  19.662  29.209   8.657
 1402POPC   D2A19948  19.614  28.993   8.270
 1402POPC   C3A19949  19.829  29.257   7.957
 1402POPC   C4A19950  20.214  29.169   7.749
 1402POPC   C1B19951  20.161  29.097   8.761
 1402POPC   C2B19952  20.138  28.915   8.325
 1402POPC   C3B19953  19.939  28.759   7.918
 1402POPC   C4B19954  19.989  28.769   7.440
 1403POPC   NC319955   5.870  33.557   9.474
 1403POPC   PO419956   6.449  33.933   9.519
 1403POPC   GL119957   6.138  33.856   9.156
 1403POPC   GL219958   6.022  33.519   9.000
 1403POPC   C1A19959   5.848  33.953   8.802
 1403POPC   D2A19960   5.601  33.874   8.418
 1403POPC   C3A19961   5.771  33.971   7.990
 1403POPC   C4A19962   6.175  34.037   7.777
 1403POPC   C1B19963   5.794  33.434   8.643
 1403POPC   C2B19964   5.908  33.463   8.226
 1403POPC   C3B19965   5.981  33.560   7.781
 1403POPC   C4B19966   5.690  33.657   7.455
 1404POPC   NC319967  31.411  40.439   9.535
 1404POPC   PO419968  31.751  41.075   9.616
 1404POPC   GL119969  31.509  41.078   9.219
 1404POPC   GL219970  31.134  40.981   9.198
 1404POPC   C1A19971  31.709  40.992   8.820
 1404POPC   D2A19972  31.648  41.089   8.397
 1404POPC   C3A19973  31.674  40.735   8.101
 1404POPC   C4A19974  31.580  40.644   7.699
 1404POPC   C1B19975  31.081  40.786   8.751
 1404POPC   C2B19976  31.196  40.841   8.296
 1404POPC   C3B19977  31.169  40.977   7.871
 1404POPC   C4B19978  31.201  40.940   7.372
 1405POPC   NC319979  26.917   6.600   9.591
 1405POPC   PO419980  26.296   6.716   9.554
 1405POPC   GL119981  26.626   6.689   9.189
 1405POPC   GL219982  26.920   6.387   9.136
 1405POPC   C1A19983  26.840   6.798   8.822
 1405POPC   D2A19984  26.999   6.617   8.460
 1405POPC   C3A19985  26.849   6.824   8.074
 1405POPC   C4A19986  26.952   6.787   7.645
 1405POPC   C1B19987  26.681   6.291   8.774
 1405POPC   C2B19988  26.769   6.125   8.367
 1405POPC   C3B19989  26.977   6.321   8.029
 1405POPC   C4B19990  26.825   6.303   7.615
 1406POPC   NC319991  15.409  35.820   9.845
 1406POPC   PO419992  15.032  36.230   9.564
 1406POPC   GL119993  15.193  35.961   9.280
 1406POPC   GL219994  14.976  35.672   9.289
 1406POPC   C1A19995  15.236  35.948   8.839
 1406POPC   D2A19996  15.135  36.188   8.458
 1406POPC   C3A19997  15.448  36.260   8.143
 1406POPC   C4A19998  15.282  36.275   7.749
 1406POPC   C1B19999  14.848  35.601   8.840
 1406POPC   C2B20000  15.090  35.676   8.432
 1406POPC   C3B20001  15.186  35.830   8.016
 1406POPC   C4B20002  15.564  35.863   7.782
 1407POPC   NC320003  10.442  43.047   9.439
 1407POPC   PO420004  10.913  43.464   9.282
 1407POPC   GL120005  10.611  43.356   9.071
 1407POPC   GL220006  10.335  43.520   9.258
 1407POPC   C1A20007  10.581  43.065   8.741
 1407POPC   D2A20008  10.669  43.242   8.352
 1407POPC   C3A20009  10.669  42.996   8.028
 1407POPC   C4A20010  10.601  43.156   7.644
 1407POPC   C1B20011  10.164  43.350   8.848
 1407POPC   C2B20012  10.150  43.176   8.406
 1407POPC   C3B20013  10.250  43.327   7.967
 1407POPC   C4B20014  10.200  43.399   7.465
 1408POPC   NC320015   4.302  34.344   9.276
 1408POPC   PO420016   4.437  33.832   9.712
 1408POPC   GL120017   4.507  33.809   9.235
 1408POPC   GL220018   4.810  33.601   9.124
 1408POPC   C1A20019   4.382  33.799   8.757
 1408POPC   D2A20020   4.411  33.895   8.273
 1408POPC   C3A20021   4.280  33.660   7.877
 1408POPC   C4A20022   4.351  33.751   7.413
 1408POPC   C1B20023   4.867  33.706   8.669
 1408POPC   C2B20024   4.773  33.526   8.248
 1408POPC   C3B20025   4.765  33.612   7.803
 1408POPC   C4B20026   4.858  33.931   7.490
 1409POPC   NC320027  38.142  22.740   9.471
 1409POPC   PO420028  38.512  23.287   9.440
 1409POPC   GL120029  38.313  23.093   9.124
 1409POPC   GL220030  37.969  23.190   9.201
 1409POPC   C1A20031  38.425  23.076   8.698
 1409POPC   D2A20032  38.438  23.339   8.340
 1409POPC   C3A20033  38.564  23.073   7.978
 1409POPC   C4A20034  38.342  22.865   7.624
 1409POPC   C1B20035  38.013  23.376   8.787
 1409POPC   C2B20036  37.915  23.275   8.363
 1409POPC   C3B20037  37.997  23.110   7.923
 1409POPC   C4B20038  37.984  23.157   7.435
 1410POPC   NC320039  27.185  35.538   9.463
 1410POPC   PO420040  27.636  35.064   9.586
 1410POPC   GL120041  27.784  35.312   9.212
 1410POPC   GL220042  27.708  35.664   9.199
 1410POPC   C1A20043  27.746  35.349   8.781
 1410POPC   D2A20044  27.405  35.237   8.513
 1410POPC   C3A20045  27.427  35.205   8.056
 1410POPC   C4A20046  27.748  35.296   7.803
 1410POPC   C1B20047  27.359  35.677   8.860
 1410POPC   C2B20048  27.083  35.642   8.523
 1410POPC   C3B20049  27.172  35.655   8.083
 1410POPC   C4B20050  27.483  35.706   7.746
 1411POPC   NC320051   8.386  31.462   9.579
 1411POPC   PO420052   8.906  31.784   9.283
 1411POPC   GL120053   8.470  31.680   9.108
 1411POPC   GL220054   8.309  31.319   9.089
 1411POPC   C1A20055   8.096  31.713   8.847
 1411POPC   D2A20056   7.966  31.697   8.424
 1411POPC   C3A20057   8.264  31.610   8.118
 1411POPC   C4A20058   8.192  31.621   7.695
 1411POPC   C1B20059   8.024  31.205   8.717
 1411POPC   C2B20060   8.093  31.148   8.264
 1411POPC   C3B20061   7.868  31.324   7.930
 1411POPC   C4B20062   7.763  31.427   7.501
 1412POPC   NC320063  44.189   8.039   9.564
 1412POPC   PO420064  43.580   8.412   9.589
 1412POPC   GL120065  43.855   8.306   9.258
 1412POPC   GL220066  43.877   7.948   9.161
 1412POPC   C1A20067  43.801   8.366   8.820
 1412POPC   D2A20068  43.528   8.530   8.442
 1412POPC   C3A20069  43.709   8.417   8.034
 1412POPC   C4A20070  44.000   8.200   7.743
 1412POPC   C1B20071  43.980   7.886   8.737
 1412POPC   C2B20072  43.932   8.034   8.327
 1412POPC   C3B20073  44.212   7.850   8.042
 1412POPC   C4B20074  44.124   7.711   7.628
 1413POPC   NC320075  12.324  37.170   9.541
 1413POPC   PO420076  11.769  36.806   9.382
 1413POPC   GL120077  12.109  36.880   9.181
 1413POPC   GL220078  12.042  37.208   9.105
 1413POPC   C1A20079  12.360  36.834   8.852
 1413POPC   D2A20080  12.400  37.014   8.430
 1413POPC   C3A20081  12.241  36.857   8.042
 1413POPC   C4A20082  12.122  36.849   7.618
 1413POPC   C1B20083  11.942  37.090   8.715
 1413POPC   C2B20084  11.836  37.024   8.325
 1413POPC   C3B20085  11.840  37.216   7.931
 1413POPC   C4B20086  11.669  37.066   7.525
 1414POPC   NC320087   9.769  36.832   9.668
 1414POPC   PO420088   9.729  37.484   9.642
 1414POPC   GL120089   9.776  37.153   9.252
 1414POPC   GL220090   9.644  36.794   9.188
 1414POPC   C1A20091   9.710  37.094   8.777
 1414POPC   D2A20092   9.762  37.168   8.312
 1414POPC   C3A20093   9.699  36.849   7.953
 1414POPC   C4A20094   9.580  36.824   7.462
 1414POPC   C1B20095   9.886  36.595   8.870
 1414POPC   C2B20096   9.857  36.652   8.423
 1414POPC   C3B20097  10.061  36.499   8.046
 1414POPC   C4B20098  10.019  36.598   7.575
 1415POPC   NC320099  41.562  42.941   9.485
 1415POPC   PO420100  42.090  43.381   9.673
 1415POPC   GL120101  41.767  43.380   9.273
 1415POPC   GL220102  41.713  43.049   9.026
 1415POPC   C1A20103  41.791  43.500   8.826
 1415POPC   D2A20104  41.866  43.213   8.463
 1415POPC   C3A20105  41.760  43.322   8.013
 1415POPC   C4A20106  41.933  43.411   7.580
 1415POPC   C1B20107  41.648  42.779   8.658
 1415POPC   C2B20108  41.392  42.837   8.280
 1415POPC   C3B20109  41.315  42.907   7.837
 1415POPC   C4B20110  41.211  42.722   7.405
 1416POPC   NC320111  35.297   4.114   9.605
 1416POPC   PO420112  34.890   4.553   9.388
 1416POPC   GL120113  35.283   4.443   9.181
 1416POPC   GL220114  35.253   4.074   9.114
 1416POPC   C1A20115  35.550   4.530   8.806
 1416POPC   D2A20116  35.537   4.717   8.380
 1416POPC   C3A20117  35.305   4.539   8.010
 1416POPC   C4A20118  35.152   4.517   7.580
 1416POPC   C1B20119  35.622   4.024   8.885
 1416POPC   C2B20120  35.675   4.163   8.456
 1416POPC   C3B20121  35.462   4.008   8.102
 1416POPC   C4B20122  35.479   4.138   7.693
 1417POPC   NC320123  26.765  34.770   9.450
 1417POPC   PO420124  26.610  34.072   9.621
 1417POPC   GL120125  26.603  34.301   9.224
 1417POPC   GL220126  26.374  34.589   9.193
 1417POPC   C1A20127  26.789  34.408   8.826
 1417POPC   D2A20128  26.703  34.287   8.423
 1417POPC   C3A20129  26.867  34.475   8.063
 1417POPC   C4A20130  26.988  34.355   7.691
 1417POPC   C1B20131  26.480  34.835   8.826
 1417POPC   C2B20132  26.662  34.791   8.421
 1417POPC   C3B20133  26.528  34.830   7.978
 1417POPC   C4B20134  26.748  34.794   7.573
 1418POPC   NC320135  36.766  21.077   9.398
 1418POPC   PO420136  36.596  20.461   9.533
 1418POPC   GL120137  36.820  20.516   9.137
 1418POPC   GL220138  37.165  20.647   9.171
 1418POPC   C1A20139  36.770  20.627   8.687
 1418POPC   D2A20140  36.482  20.854   8.399
 1418POPC   C3A20141  36.583  20.819   7.977
 1418POPC   C4A20142  36.827  20.504   7.795
 1418POPC   C1B20143  37.280  20.519   8.753
 1418POPC   C2B20144  37.303  20.635   8.308
 1418POPC   C3B20145  37.267  20.750   7.858
 1418POPC   C4B20146  37.153  20.574   7.400
 1419POPC   NC320147  14.294  27.256   9.550
 1419POPC   PO420148  14.710  27.710   9.639
 1419POPC   GL120149  14.708  27.447   9.275
 1419POPC   GL220150  14.925  27.669   9.144
 1419POPC   C1A20151  14.483  27.369   8.866
 1419POPC   D2A20152  14.344  27.585   8.474
 1419POPC   C3A20153  14.271  27.383   8.084
 1419POPC   C4A20154  14.412  27.582   7.712
 1419POPC   C1B20155  14.760  27.792   8.725
 1419POPC   C2B20156  14.847  27.964   8.300
 1419POPC   C3B20157  14.839  27.908   7.842
 1419POPC   C4B20158  14.774  27.803   7.385
 1420POPC   NC320159   0.309   4.536   9.600
 1420POPC   PO420160   0.597   3.892   9.533
 1420POPC   GL120161   0.641   4.288   9.249
 1420POPC   GL220162   0.306   4.367   9.129
 1420POPC   C1A20163   0.671   4.543   8.844
 1420POPC   D2A20164   0.405   4.500   8.497
 1420POPC   C3A20165   0.524   4.515   8.076
 1420POPC   C4A20166   0.579   4.191   7.753
 1420POPC   C1B20167   0.084   4.236   8.790
 1420POPC   C2B20168   0.035   4.133   8.405
 1420POPC   C3B20169   0.123   4.144   7.988
 1420POPC   C4B20170  44.872   4.244   7.666
 1421POPC   NC320171  13.575   0.583   9.531
 1421POPC   PO420172  13.278   0.006   9.543
 1421POPC   GL120173  13.609   0.166   9.210
 1421POPC   GL220174  13.892   0.458   9.176
 1421POPC   C1A20175  13.563   0.340   8.809
 1421POPC   D2A20176  13.400   0.224   8.424
 1421POPC   C3A20177  13.611   0.237   8.026
 1421POPC   C4A20178  13.524   0.341   7.620
 1421POPC   C1B20179  13.929   0.697   8.756
 1421POPC   C2B20180  13.691   0.706   8.320
 1421POPC   C3B20181  13.697   0.744   7.862
 1421POPC   C4B20182  13.928   0.943   7.472
 1422POPC   NC320183  42.913  15.961   9.602
 1422POPC   PO420184  43.555  16.133   9.513
 1422POPC   GL120185  43.250  15.889   9.189
 1422POPC   GL220186  42.922  16.027   9.113
 1422POPC   C1A20187  43.127  15.623   8.779
 1422POPC   D2A20188  42.934  15.700   8.347
 1422POPC   C3A20189  43.101  15.818   7.949
 1422POPC   C4A20190  42.924  15.808   7.541
 1422POPC   C1B20191  42.985  16.096   8.729
 1422POPC   C2B20192  43.129  16.187   8.363
 1422POPC   C3B20193  42.865  16.377   8.128
 1422POPC   C4B20194  42.919  16.286   7.734
 1423POPC   NC320195  10.328  20.263   9.636
 1423POPC   PO420196  10.633  20.852   9.571
 1423POPC   GL120197  10.552  20.569   9.223
 1423POPC   GL220198  10.221  20.441   9.162
 1423POPC   C1A20199  10.510  20.743   8.803
 1423POPC   D2A20200  10.296  20.751   8.405
 1423POPC   C3A20201  10.594  20.756   8.076
 1423POPC   C4A20202  10.545  20.608   7.688
 1423POPC   C1B20203  10.419  20.252   8.795
 1423POPC   C2B20204  10.665  20.387   8.433
 1423POPC   C3B20205  10.752  20.262   7.999
 1423POPC   C4B20206  10.589  20.111   7.578
 1424POPC   NC320207  26.787  26.286   9.491
 1424POPC   PO420208  27.165  25.699   9.637
 1424POPC   GL120209  27.156  25.818   9.168
 1424POPC   GL220210  26.839  25.922   9.122
 1424POPC   C1A20211  27.114  25.973   8.689
 1424POPC   D2A20212  26.784  25.936   8.337
 1424POPC   C3A20213  26.922  25.956   7.914
 1424POPC   C4A20214  27.071  26.306   7.735
 1424POPC   C1B20215  26.654  26.190   8.790
 1424POPC   C2B20216  26.505  26.449   8.424
 1424POPC   C3B20217  26.632  26.401   8.034
 1424POPC   C4B20218  26.498  26.175   7.721
 1425POPC   NC320219  14.188  38.118   9.506
 1425POPC   PO420220  14.583  38.643   9.708
 1425POPC   GL120221  14.694  38.515   9.291
 1425POPC   GL220222  14.362  38.531   9.132
 1425POPC   C1A20223  14.808  38.657   8.880
 1425POPC   D2A20224  14.531  38.654   8.533
 1425POPC   C3A20225  14.714  38.613   8.120
 1425POPC   C4A20226  14.459  38.528   7.749
 1425POPC   C1B20227  14.149  38.891   8.899
 1425POPC   C2B20228  14.116  38.990   8.461
 1425POPC   C3B20229  14.154  38.655   8.173
 1425POPC   C4B20230  13.949  38.573   7.819
 1426POPC   NC320231  22.200  40.494   9.486
 1426POPC   PO420232  22.445  41.057   9.640
 1426POPC   GL120233  22.224  40.998   9.208
 1426POPC   GL220234  22.252  40.664   9.027
 1426POPC   C1A20235  22.052  41.061   8.763
 1426POPC   D2A20236  21.825  40.910   8.389
 1426POPC   C3A20237  22.030  41.065   8.001
 1426POPC   C4A20238  22.350  41.160   7.714
 1426POPC   C1B20239  22.474  40.622   8.662
 1426POPC   C2B20240  22.335  40.761   8.279
 1426POPC   C3B20241  22.498  40.698   7.896
 1426POPC   C4B20242  22.508  40.280   7.761
 1427POPC   NC320243  10.368   1.319   9.703
 1427POPC   PO420244  10.891   1.018   9.416
 1427POPC   GL120245  10.565   1.249   9.189
 1427POPC   GL220246  10.391   1.044   8.940
 1427POPC   C1A20247  10.606   1.459   8.774
 1427POPC   D2A20248  10.651   1.297   8.359
 1427POPC   C3A20249  10.425   1.369   7.961
 1427POPC   C4A20250  10.445   1.076   7.582
 1427POPC   C1B20251  10.813   0.976   8.761
 1427POPC   C2B20252  11.014   0.925   8.358
 1427POPC   C3B20253  10.817   1.013   7.987
 1427POPC   C4B20254  10.590   0.685   7.864
 1428POPC   NC320255  30.342   1.854   9.527
 1428POPC   PO420256  29.671   1.789   9.384
 1428POPC   GL120257  29.905   1.868   9.059
 1428POPC   GL220258  30.117   2.153   9.190
 1428POPC   C1A20259  29.692   1.783   8.680
 1428POPC   D2A20260  29.737   1.489   8.355
 1428POPC   C3A20261  29.987   1.687   8.045
 1428POPC   C4A20262  29.811   2.010   7.788
 1428POPC   C1B20263  30.254   2.172   8.790
 1428POPC   C2B20264  30.019   2.089   8.417
 1428POPC   C3B20265  30.195   2.219   8.061
 1428POPC   C4B20266  30.207   2.363   7.675
 1429POPC   NC320267  30.807   7.698   9.469
 1429POPC   PO420268  30.919   7.013   9.520
 1429POPC   GL120269  30.643   7.117   9.151
 1429POPC   GL220270  30.859   7.355   9.115
 1429POPC   C1A20271  30.537   7.395   8.754
 1429POPC   D2A20272  30.425   7.394   8.343
 1429POPC   C3A20273  30.672   7.183   8.088
 1429POPC   C4A20274  30.526   7.347   7.739
 1429POPC   C1B20275  31.045   7.567   8.780
 1429POPC   C2B20276  30.932   7.537   8.383
 1429POPC   C3B20277  31.072   7.561   8.002
 1429POPC   C4B20278  31.018   7.282   7.704
 1430POPC   NC320279  10.032  19.609   9.491
 1430POPC   PO420280  10.533  19.867   9.707
 1430POPC   GL120281  10.517  19.969   9.241
 1430POPC   GL220282  10.181  19.937   9.121
 1430POPC   C1A20283  10.608  19.783   8.793
 1430POPC   D2A20284  10.510  19.917   8.346
 1430POPC   C3A20285  10.631  19.748   7.931
 1430POPC   C4A20286  11.036  19.935   7.732
 1430POPC   C1B20287  10.113  19.805   8.680
 1430POPC   C2B20288  10.259  19.486   8.342
 1430POPC   C3B20289  10.151  19.415   7.914
 1430POPC   C4B20290  10.347  19.434   7.496
 1431POPC   NC320291  17.225  43.677   9.485
 1431POPC   PO420292  17.272  44.341   9.536
 1431POPC   GL120293  17.286  44.101   9.168
 1431POPC   GL220294  17.657  44.186   9.147
 1431POPC   C1A20295  17.470  43.741   8.885
 1431POPC   D2A20296  17.383  43.470   8.523
 1431POPC   C3A20297  17.651  43.562   8.169
 1431POPC   C4A20298  17.438  43.783   7.860
 1431POPC   C1B20299  17.511  44.219   8.736
 1431POPC   C2B20300  17.665  44.031   8.390
 1431POPC   C3B20301  17.627  44.248   8.032
 1431POPC   C4B20302  17.555  44.211   7.616
 1432POPC   NC320303  22.195  35.706   9.878
 1432POPC   PO420304  22.536  36.119   9.492
 1432POPC   GL120305  22.236  36.215   9.141
 1432POPC   GL220306  21.976  36.449   9.213
 1432POPC   C1A20307  22.210  36.040   8.710
 1432POPC   D2A20308  22.420  36.186   8.320
 1432POPC   C3A20309  22.136  36.185   7.973
 1432POPC   C4A20310  21.873  35.848   7.788
 1432POPC   C1B20311  21.760  36.455   8.818
 1432POPC   C2B20312  21.861  36.360   8.376
 1432POPC   C3B20313  21.823  36.597   7.966
 1432POPC   C4B20314  21.850  36.385   7.545
 1433POPC   NC320315  22.676  11.476   9.498
 1433POPC   PO420316  23.188  10.894   9.493
 1433POPC   GL120317  23.000  10.996   9.144
 1433POPC   GL220318  22.660  11.073   9.154
 1433POPC   C1A20319  23.014  11.259   8.797
 1433POPC   D2A20320  23.108  11.472   8.419
 1433POPC   C3A20321  22.792  11.561   8.134
 1433POPC   C4A20322  22.978  11.335   7.832
 1433POPC   C1B20323  22.538  11.450   8.872
 1433POPC   C2B20324  22.399  11.481   8.471
 1433POPC   C3B20325  22.410  11.222   8.130
 1433POPC   C4B20326  22.511  11.195   7.727
 1434POPC   NC320327   9.133   7.643   9.485
 1434POPC   PO420328   9.005   6.992   9.632
 1434POPC   GL120329   9.113   7.177   9.177
 1434POPC   GL220330   9.184   7.519   9.013
 1434POPC   C1A20331   8.918   7.203   8.738
 1434POPC   D2A20332   8.911   7.364   8.316
 1434POPC   C3A20333   8.979   7.180   7.908
 1434POPC   C4A20334   9.228   7.305   7.538
 1434POPC   C1B20335   9.052   7.736   8.659
 1434POPC   C2B20336   8.884   7.876   8.250
 1434POPC   C3B20337   9.078   7.684   7.900
 1434POPC   C4B20338   9.368   7.830   7.587
 1435POPC   NC320339  27.729  14.346   9.981
 1435POPC   PO420340  27.337  14.594   9.480
 1435POPC   GL120341  27.475  14.538   9.079
 1435POPC   GL220342  27.326  14.302   8.962
 1435POPC   C1A20343  27.785  14.435   8.777
 1435POPC   D2A20344  27.806  14.634   8.413
 1435POPC   C3A20345  27.801  14.433   8.044
 1435POPC   C4A20346  28.071  14.638   7.812
 1435POPC   C1B20347  27.175  14.496   8.638
 1435POPC   C2B20348  27.342  14.432   8.251
 1435POPC   C3B20349  27.296  14.322   7.834
 1435POPC   C4B20350  27.358  14.189   7.382
 1436POPC   NC320351  31.520  18.032   9.405
 1436POPC   PO420352  31.265  17.374   9.622
 1436POPC   GL120353  31.278  17.596   9.269
 1436POPC   GL220354  31.601  17.641   9.091
 1436POPC   C1A20355  31.201  17.490   8.829
 1436POPC   D2A20356  31.448  17.468   8.426
 1436POPC   C3A20357  31.188  17.320   8.095
 1436POPC   C4A20358  31.126  17.435   7.679
 1436POPC   C1B20359  31.880  17.715   8.713
 1436POPC   C2B20360  31.810  17.814   8.257
 1436POPC   C3B20361  31.612  17.576   7.900
 1436POPC   C4B20362  31.515  17.666   7.431
 1437POPC   NC320363   8.360   8.612   9.183
 1437POPC   PO420364   7.950   8.966   9.461
 1437POPC   GL120365   8.118   9.104   9.059
 1437POPC   GL220366   8.459   9.270   9.109
 1437POPC   C1A20367   8.096   8.864   8.649
 1437POPC   D2A20368   8.253   8.625   8.308
 1437POPC   C3A20369   8.068   8.810   7.932
 1437POPC   C4A20370   8.016   8.686   7.509
 1437POPC   C1B20371   8.475   9.189   8.654
 1437POPC   C2B20372   8.339   9.170   8.205
 1437POPC   C3B20373   8.482   9.103   7.756
 1437POPC   C4B20374   8.476   9.195   7.282
 1438POPC   NC320375  16.126   2.687   9.518
 1438POPC   PO420376  15.501   2.600   9.416
 1438POPC   GL120377  15.844   2.493   9.130
 1438POPC   GL220378  15.960   2.854   9.077
 1438POPC   C1A20379  16.137   2.454   8.780
 1438POPC   D2A20380  16.185   2.722   8.386
 1438POPC   C3A20381  15.894   2.706   8.067
 1438POPC   C4A20382  16.083   2.581   7.688
 1438POPC   C1B20383  15.798   2.848   8.683
 1438POPC   C2B20384  15.878   3.158   8.385
 1438POPC   C3B20385  16.127   3.155   8.047
 1438POPC   C4B20386  15.998   3.218   7.671
 1439POPC   NC320387  43.628   4.782   9.526
 1439POPC   PO420388  44.014   4.178   9.419
 1439POPC   GL120389  44.069   4.430   9.069
 1439POPC   GL220390  43.718   4.532   9.095
 1439POPC   C1A20391  44.096   4.349   8.620
 1439POPC   D2A20392  43.894   4.123   8.282
 1439POPC   C3A20393  44.007   4.219   7.852
 1439POPC   C4A20394  43.839   4.064   7.447
 1439POPC   C1B20395  43.580   4.318   8.747
 1439POPC   C2B20396  43.538   4.501   8.345
 1439POPC   C3B20397  43.516   4.402   7.932
 1439POPC   C4B20398  43.728   4.546   7.606
 1440POPC   NC320399  15.467  26.862   9.414
 1440POPC   PO420400  14.798  26.760   9.338
 1440POPC   GL120401  14.821  26.551   8.990
 1440POPC   GL220402  15.181  26.655   8.991
 1440POPC   C1A20403  14.821  26.838   8.652
 1440POPC   D2A20404  15.214  26.926   8.493
 1440POPC   C3A20405  15.157  27.003   8.082
 1440POPC   C4A20406  14.887  26.882   7.767
 1440POPC   C1B20407  15.521  26.525   8.757
 1440POPC   C2B20408  15.511  26.417   8.337
 1440POPC   C3B20409  15.642  26.566   7.946
 1440POPC   C4B20410  15.371  26.743   7.667
 1441POPC   NC320411  44.748   8.811   9.403
 1441POPC   PO420412  44.639   8.157   9.574
 1441POPC   GL120413  44.520   8.121   9.161
 1441POPC   GL220414  44.356   8.456   9.206
 1441POPC   C1A20415  44.762   8.102   8.755
 1441POPC   D2A20416  44.885   8.424   8.441
 1441POPC   C3A20417  44.883   8.257   8.006
 1441POPC   C4A20418  44.586   8.021   7.741
 1441POPC   C1B20419  44.317   8.362   8.766
 1441POPC   C2B20420  44.422   8.190   8.378
 1441POPC   C3B20421  44.370   8.377   8.019
 1441POPC   C4B20422  44.368   8.619   7.661
 1442POPC   NC320423  10.913  28.670  10.086
 1442POPC   PO420424  10.676  29.229   9.692
 1442POPC   GL120425  10.510  29.231   9.245
 1442POPC   GL220426  10.442  28.853   9.206
 1442POPC   C1A20427  10.614  29.377   8.760
 1442POPC   D2A20428  10.767  29.198   8.348
 1442POPC   C3A20429  10.497  29.174   7.959
 1442POPC   C4A20430  10.460  29.158   7.520
 1442POPC   C1B20431  10.627  28.870   8.808
 1442POPC   C2B20432  10.613  28.702   8.419
 1442POPC   C3B20433  10.735  28.739   8.019
 1442POPC   C4B20434  10.465  28.675   7.681
 1443POPC   NC320435  35.629  23.956   9.341
 1443POPC   PO420436  35.734  24.663   9.367
 1443POPC   GL120437  35.497  24.489   9.052
 1443POPC   GL220438  35.223  24.294   9.198
 1443POPC   C1A20439  35.335  24.639   8.663
 1443POPC   D2A20440  35.495  24.415   8.322
 1443POPC   C3A20441  35.454  24.605   7.916
 1443POPC   C4A20442  35.068  24.690   7.773
 1443POPC   C1B20443  35.204  24.154   8.763
 1443POPC   C2B20444  35.114  24.043   8.317
 1443POPC   C3B20445  35.437  24.023   7.984
 1443POPC   C4B20446  35.612  24.214   7.589
 1444POPC   NC320447   4.992  12.875   9.838
 1444POPC   PO420448   5.529  12.556   9.533
 1444POPC   GL120449   5.095  12.727   9.300
 1444POPC   GL220450   5.061  12.465   9.044
 1444POPC   C1A20451   4.877  12.902   8.901
 1444POPC   D2A20452   4.899  12.727   8.467
 1444POPC   C3A20453   5.009  12.925   8.078
 1444POPC   C4A20454   4.896  12.863   7.666
 1444POPC   C1B20455   5.262  12.427   8.686
 1444POPC   C2B20456   5.367  12.589   8.276
 1444POPC   C3B20457   5.316  12.567   7.822
 1444POPC   C4B20458   5.622  12.676   7.570
 1445POPC   NC320459  40.523  41.271   9.609
 1445POPC   PO420460  39.980  40.792   9.546
 1445POPC   GL120461  39.845  40.743   9.158
 1445POPC   GL220462  39.542  40.562   9.115
 1445POPC   C1A20463  40.012  40.843   8.754
 1445POPC   D2A20464  40.154  40.693   8.365
 1445POPC   C3A20465  40.150  40.883   7.995
 1445POPC   C4A20466  40.038  40.714   7.619
 1445POPC   C1B20467  39.829  40.357   8.826
 1445POPC   C2B20468  39.968  40.231   8.407
 1445POPC   C3B20469  39.938  40.380   7.998
 1445POPC   C4B20470  39.583  40.458   7.702
 1446POPC   NC320471   3.021  16.865   9.568
 1446POPC   PO420472   2.518  16.498   9.731
 1446POPC   GL120473   2.628  16.638   9.278
 1446POPC   GL220474   2.948  16.462   9.214
 1446POPC   C1A20475   2.565  16.862   8.824
 1446POPC   D2A20476   2.576  16.649   8.367
 1446POPC   C3A20477   2.567  16.867   7.937
 1446POPC   C4A20478   2.529  16.605   7.553
 1446POPC   C1B20479   2.853  16.448   8.765
 1446POPC   C2B20480   3.063  16.449   8.346
 1446POPC   C3B20481   2.952  16.519   7.922
 1446POPC   C4B20482   3.015  16.902   7.677
 1447POPC   NC320483  28.766  30.965   9.280
 1447POPC   PO420484  29.203  31.418   9.624
 1447POPC   GL120485  29.190  31.582   9.187
 1447POPC   GL220486  29.153  31.839   9.162
 1447POPC   C1A20487  29.074  31.592   8.722
 1447POPC   D2A20488  28.809  31.772   8.371
 1447POPC   C3A20489  28.793  31.493   7.985
 1447POPC   C4A20490  29.027  31.151   7.775
 1447POPC   C1B20491  29.486  31.872   8.847
 1447POPC   C2B20492  29.486  31.712   8.388
 1447POPC   C3B20493  29.303  31.556   7.980
 1447POPC   C4B20494  29.072  31.631   7.556
 1448POPC   NC320495  38.659  31.554   9.639
 1448POPC   PO420496  38.185  31.249   9.246
 1448POPC   GL120497  38.643  31.261   9.202
 1448POPC   GL220498  38.828  31.593   9.161
 1448POPC   C1A20499  38.834  31.164   8.831
 1448POPC   D2A20500  38.807  31.353   8.425
 1448POPC   C3A20501  38.744  31.148   8.029
 1448POPC   C4A20502  38.525  31.389   7.733
 1448POPC   C1B20503  38.631  31.698   8.779
 1448POPC   C2B20504  38.513  31.895   8.377
 1448POPC   C3B20505  38.324  31.828   7.965
 1448POPC   C4B20506  38.027  31.965   7.639
 1449POPC   NC320507  38.151  30.524   9.613
 1449POPC   PO420508  38.480  31.133   9.738
 1449POPC   GL120509  38.397  30.810   9.286
 1449POPC   GL220510  38.206  30.512   9.120
 1449POPC   C1A20511  38.437  30.840   8.831
 1449POPC   D2A20512  38.521  30.913   8.444
 1449POPC   C3A20513  38.165  30.853   8.220
 1449POPC   C4A20514  38.358  30.786   7.846
 1449POPC   C1B20515  38.313  30.371   8.676
 1449POPC   C2B20516  38.428  30.405   8.262
 1449POPC   C3B20517  38.508  30.283   7.858
 1449POPC   C4B20518  38.562  30.450   7.464
 1450POPC   NC320519  29.674  23.757   9.317
 1450POPC   PO420520  30.096  23.298   9.561
 1450POPC   GL120521  30.062  23.473   9.116
 1450POPC   GL220522  30.157  23.858   9.158
 1450POPC   C1A20523  29.778  23.528   8.717
 1450POPC   D2A20524  29.678  23.904   8.423
 1450POPC   C3A20525  29.609  23.829   7.997
 1450POPC   C4A20526  29.844  23.488   7.946
 1450POPC   C1B20527  30.130  23.896   8.718
 1450POPC   C2B20528  30.203  23.549   8.427
 1450POPC   C3B20529  30.338  23.506   8.012
 1450POPC   C4B20530  30.134  23.860   7.778
 1451POPC   NC320531  21.792  42.013   9.253
 1451POPC   PO420532  21.887  42.590   9.583
 1451POPC   GL120533  22.126  42.466   9.158
 1451POPC   GL220534  22.494  42.596   9.128
 1451POPC   C1A20535  22.196  42.146   8.784
 1451POPC   D2A20536  22.285  41.833   8.476
 1451POPC   C3A20537  22.076  41.958   8.108
 1451POPC   C4A20538  22.004  42.173   7.742
 1451POPC   C1B20539  22.337  42.628   8.693
 1451POPC   C2B20540  22.361  42.338   8.346
 1451POPC   C3B20541  22.357  42.459   7.950
 1451POPC   C4B20542  22.241  42.804   7.705
 1452POPC   NC320543  37.464  44.597   9.584
 1452POPC   PO420544  38.005  44.334   9.576
 1452POPC   GL120545  37.741  44.369   9.167
 1452POPC   GL220546  37.415  44.571   9.069
 1452POPC   C1A20547  37.807  44.374   8.705
 1452POPC   D2A20548  37.869  44.663   8.352
 1452POPC   C3A20549  37.550  44.524   8.127
 1452POPC   C4A20550  37.400  44.681   7.787
 1452POPC   C1B20551  37.429  44.711   8.619
 1452POPC   C2B20552  37.475   0.008   8.216
 1452POPC   C3B20553  37.471   0.224   7.783
 1452POPC   C4B20554  37.519   0.324   7.336
 1453POPC   NC320555  40.492   4.603   9.545
 1453POPC   PO420556  40.684   3.905   9.581
 1453POPC   GL120557  40.744   4.026   9.149
 1453POPC   GL220558  40.636   4.366   9.120
 1453POPC   C1A20559  40.855   4.122   8.723
 1453POPC   D2A20560  40.749   3.913   8.373
 1453POPC   C3A20561  40.804   4.111   7.995
 1453POPC   C4A20562  40.618   4.247   7.633
 1453POPC   C1B20563  40.890   4.603   8.854
 1453POPC   C2B20564  40.865   4.535   8.416
 1453POPC   C3B20565  40.781   4.620   8.001
 1453POPC   C4B20566  40.695   4.733   7.588
 1454POPC   NC320567  19.144   1.540   9.479
 1454POPC   PO420568  18.631   1.193   9.670
 1454POPC   GL120569  18.709   1.293   9.184
 1454POPC   GL220570  19.038   1.303   9.052
 1454POPC   C1A20571  18.700   1.254   8.708
 1454POPC   D2A20572  19.010   1.155   8.381
 1454POPC   C3A20573  18.827   0.929   8.103
 1454POPC   C4A20574  18.862   0.786   7.740
 1454POPC   C1B20575  19.236   1.455   8.702
 1454POPC   C2B20576  19.561   1.596   8.411
 1454POPC   C3B20577  19.589   1.403   8.024
 1454POPC   C4B20578  19.164   1.339   7.901
 1455POPC   NC320579  31.410   7.057   9.494
 1455POPC   PO420580  31.297   7.759   9.429
 1455POPC   GL120581  31.345   7.416   9.157
 1455POPC   GL220582  31.631   7.391   9.135
 1455POPC   C1A20583  31.412   7.206   8.739
 1455POPC   D2A20584  31.442   7.441   8.360
 1455POPC   C3A20585  31.470   7.243   7.942
 1455POPC   C4A20586  31.478   7.552   7.650
 1455POPC   C1B20587  31.612   7.702   8.805
 1455POPC   C2B20588  31.923   7.605   8.524
 1455POPC   C3B20589  31.914   7.306   8.217
 1455POPC   C4B20590  31.956   7.364   7.776
 1456POPC   NC320591  20.323  19.288   9.684
 1456POPC   PO420592  20.680  19.817   9.416
 1456POPC   GL120593  20.635  19.881   9.014
 1456POPC   GL220594  20.310  19.751   9.017
 1456POPC   C1A20595  20.864  20.066   8.684
 1456POPC   D2A20596  20.883  20.306   8.332
 1456POPC   C3A20597  20.884  20.020   8.016
 1456POPC   C4A20598  20.590  19.859   7.727
 1456POPC   C1B20599  20.384  19.601   8.599
 1456POPC   C2B20600  20.136  19.527   8.219
 1456POPC   C3B20601  20.193  19.541   7.772
 1456POPC   C4B20602  20.451  19.528   7.371
 1457POPC   NC320603  13.072  39.402   9.376
 1457POPC   PO420604  13.000  38.705   9.241
 1457POPC   GL120605  12.964  39.061   8.999
 1457POPC   GL220606  12.670  39.237   9.108
 1457POPC   C1A20607  12.983  39.317   8.649
 1457POPC   D2A20608  12.754  39.242   8.295
 1457POPC   C3A20609  13.015  39.158   7.980
 1457POPC   C4A20610  13.018  38.910   7.592
 1457POPC   C1B20611  12.487  39.475   8.760
 1457POPC   C2B20612  12.521  39.686   8.353
 1457POPC   C3B20613  12.494  39.504   7.917
 1457POPC   C4B20614  12.771  39.374   7.600
 1458POPC   NC320615   2.916  29.588   9.569
 1458POPC   PO420616   2.597  30.202   9.428
 1458POPC   GL120617   2.709  29.875   9.164
 1458POPC   GL220618   3.060  29.873   9.152
 1458POPC   C1A20619   2.628  29.813   8.736
 1458POPC   D2A20620   2.802  29.876   8.348
 1458POPC   C3A20621   2.513  29.975   8.039
 1458POPC   C4A20622   2.334  29.672   7.761
 1458POPC   C1B20623   3.133  29.679   8.772
 1458POPC   C2B20624   3.270  29.697   8.342
 1458POPC   C3B20625   3.126  29.872   7.954
 1458POPC   C4B20626   2.816  29.848   7.635
 1459POPC   NC320627   7.036  22.950   9.525
 1459POPC   PO420628   6.391  22.695   9.469
 1459POPC   GL120629   6.447  22.935   9.083
 1459POPC   GL220630   6.720  23.121   9.141
 1459POPC   C1A20631   6.411  23.222   8.719
 1459POPC   D2A20632   6.415  22.889   8.382
 1459POPC   C3A20633   6.554  22.972   7.972
 1459POPC   C4A20634   6.357  23.046   7.580
 1459POPC   C1B20635   6.828  22.941   8.708
 1459POPC   C2B20636   6.997  22.970   8.291
 1459POPC   C3B20637   7.026  23.150   7.870
 1459POPC   C4B20638   6.868  22.992   7.436
 1460POPC   NC320639  12.778   0.153   9.700
 1460POPC   PO420640  13.137   0.764   9.511
 1460POPC   GL120641  13.146   0.445   9.224
 1460POPC   GL220642  12.790   0.437   9.205
 1460POPC   C1A20643  13.086   0.495   8.782
 1460POPC   D2A20644  12.924   0.436   8.381
 1460POPC   C3A20645  13.227   0.597   8.086
 1460POPC   C4A20646  13.143   0.685   7.676
 1460POPC   C1B20647  12.576   0.402   8.792
 1460POPC   C2B20648  12.440   0.143   8.462
 1460POPC   C3B20649  12.598   0.053   8.065
 1460POPC   C4B20650  12.484   0.308   7.718
 1461POPC   NC320651  34.078  44.210   9.532
 1461POPC   PO420652  33.561  43.782   9.530
 1461POPC   GL120653  33.666  44.060   9.194
 1461POPC   GL220654  33.531  43.803   8.989
 1461POPC   C1A20655  33.900  44.173   8.808
 1461POPC   D2A20656  34.054  44.044   8.389
 1461POPC   C3A20657  33.910  44.152   7.957
 1461POPC   C4A20658  33.490  44.084   7.796
 1461POPC   C1B20659  33.792  43.678   8.670
 1461POPC   C2B20660  33.780  43.546   8.264
 1461POPC   C3B20661  33.802  43.678   7.855
 1461POPC   C4B20662  33.812  43.870   7.419
 1462POPC   NC320663   4.752  44.908   9.516
 1462POPC   PO420664   5.198  44.497   9.557
 1462POPC   GL120665   5.156  44.757   9.208
 1462POPC   GL220666   4.816  44.618   9.097
 1462POPC   C1A20667   5.274  44.798   8.789
 1462POPC   D2A20668   5.074  44.733   8.433
 1462POPC   C3A20669   5.310  44.660   8.080
 1462POPC   C4A20670   5.236  44.738   7.675
 1462POPC   C1B20671   4.808  44.999   8.830
 1462POPC   C2B20672   4.790   0.154   8.395
 1462POPC   C3B20673   4.897  44.972   8.011
 1462POPC   C4B20674   4.832   0.021   7.589
 1463POPC   NC320675   2.930  12.084   9.569
 1463POPC   PO420676   2.370  12.445   9.487
 1463POPC   GL120677   2.543  12.149   9.188
 1463POPC   GL220678   2.891  12.224   9.092
 1463POPC   C1A20679   2.581  11.919   8.791
 1463POPC   D2A20680   2.629  11.686   8.401
 1463POPC   C3A20681   2.637  11.962   8.037
 1463POPC   C4A20682   2.879  11.954   7.661
 1463POPC   C1B20683   3.078  12.071   8.746
 1463POPC   C2B20684   3.083  11.947   8.331
 1463POPC   C3B20685   3.105  12.251   8.009
 1463POPC   C4B20686   3.220  12.316   7.602
 1464POPC   NC320687  38.165   2.125   9.512
 1464POPC   PO420688  38.699   2.468   9.338
 1464POPC   GL120689  38.510   2.113   9.079
 1464POPC   GL220690  38.275   1.831   9.129
 1464POPC   C1A20691  38.661   2.100   8.658
 1464POPC   D2A20692  38.597   1.964   8.243
 1464POPC   C3A20693  38.821   2.096   7.855
 1464POPC   C4A20694  38.779   2.037   7.388
 1464POPC   C1B20695  38.417   1.666   8.734
 1464POPC   C2B20696  38.277   1.576   8.322
 1464POPC   C3B20697  38.254   1.755   7.912
 1464POPC   C4B20698  38.135   1.696   7.448
 1465POPC   NC320699  31.101  24.180   9.449
 1465POPC   PO420700  30.611  24.583   9.577
 1465POPC   GL120701  30.613  24.448   9.158
 1465POPC   GL220702  30.729  24.774   9.103
 1465POPC   C1A20703  30.729  24.186   8.793
 1465POPC   D2A20704  30.993  24.186   8.371
 1465POPC   C3A20705  30.861  24.233   7.885
 1465POPC   C4A20706  30.396  24.307   7.762
 1465POPC   C1B20707  30.830  24.663   8.693
 1465POPC   C2B20708  30.569  24.486   8.359
 1465POPC   C3B20709  30.670  24.670   7.980
 1465POPC   C4B20710  31.021  24.784   7.778
 1466POPC   NC320711  41.385   3.741   9.442
 1466POPC   PO420712  41.829   3.199   9.358
 1466POPC   GL120713  41.731   3.548   9.102
 1466POPC   GL220714  41.363   3.553   8.985
 1466POPC   C1A20715  41.749   3.687   8.694
 1466POPC   D2A20716  41.464   3.571   8.422
 1466POPC   C3A20717  41.681   3.637   8.108
 1466POPC   C4A20718  41.632   3.661   7.711
 1466POPC   C1B20719  41.321   3.938   8.760
 1466POPC   C2B20720  41.257   4.064   8.347
 1466POPC   C3B20721  41.201   3.800   7.992
 1466POPC   C4B20722  41.215   3.902   7.533
 1467POPC   NC320723  35.748  22.217   9.535
 1467POPC   PO420724  36.289  21.931   9.763
 1467POPC   GL120725  36.265  22.034   9.288
 1467POPC   GL220726  36.018  22.233   9.128
 1467POPC   C1A20727  36.353  22.027   8.840
 1467POPC   D2A20728  36.290  21.914   8.433
 1467POPC   C3A20729  36.135  22.133   8.080
 1467POPC   C4A20730  36.168  22.001   7.701
 1467POPC   C1B20731  35.805  22.504   8.858
 1467POPC   C2B20732  35.687  22.607   8.469
 1467POPC   C3B20733  35.687  22.449   8.094
 1467POPC   C4B20734  35.873  22.459   7.694
 1468POPC   NC320735   6.761  30.069   9.609
 1468POPC   PO420736   6.295  29.787   9.211
 1468POPC   GL120737   6.698  29.917   9.112
 1468POPC   GL220738   6.601  30.257   9.178
 1468POPC   C1A20739   6.947  29.949   8.734
 1468POPC   D2A20740   7.019  29.776   8.317
 1468POPC   C3A20741   6.694  29.836   7.997
 1468POPC   C4A20742   6.809  29.847   7.561
 1468POPC   C1B20743   6.560  30.286   8.770
 1468POPC   C2B20744   6.484  29.936   8.500
 1468POPC   C3B20745   6.308  30.115   8.155
 1468POPC   C4B20746   6.460  30.208   7.742
 1469POPC   NC320747  25.237  13.186   9.703
 1469POPC   PO420748  25.654  13.702   9.446
 1469POPC   GL120749  25.409  13.533   9.122
 1469POPC   GL220750  25.095  13.340   9.207
 1469POPC   C1A20751  25.267  13.740   8.759
 1469POPC   D2A20752  25.131  13.907   8.375
 1469POPC   C3A20753  25.359  13.674   8.119
 1469POPC   C4A20754  25.335  13.508   7.698
 1469POPC   C1B20755  24.862  13.437   8.814
 1469POPC   C2B20756  24.825  13.370   8.366
 1469POPC   C3B20757  24.890  13.543   7.964
 1469POPC   C4B20758  25.103  13.965   7.832
 1470POPC   NC320759  10.178  44.849   9.643
 1470POPC   PO420760  10.570  44.313   9.684
 1470POPC   GL120761  10.523  44.637   9.334
 1470POPC   GL220762  10.212  44.602   9.192
 1470POPC   C1A20763  10.734  44.661   8.923
 1470POPC   D2A20764  10.753  44.407   8.519
 1470POPC   C3A20765  10.503  44.333   8.161
 1470POPC   C4A20766  10.708  44.360   7.734
 1470POPC   C1B20767  10.290  44.885   8.860
 1470POPC   C2B20768  10.549  44.911   8.479
 1470POPC   C3B20769  10.404  44.816   8.049
 1470POPC   C4B20770  10.204  44.999   7.722
 1471POPC   NC320771  28.287  15.533   9.611
 1471POPC   PO420772  28.673  15.046   9.496
 1471POPC   GL120773  28.447  15.225   9.141
 1471POPC   GL220774  28.659  15.505   9.252
 1471POPC   C1A20775  28.218  15.082   8.713
 1471POPC   D2A20776  28.252  14.850   8.283
 1471POPC   C3A20777  28.486  14.898   7.907
 1471POPC   C4A20778  28.181  15.199   7.813
 1471POPC   C1B20779  28.735  15.512   8.824
 1471POPC   C2B20780  28.443  15.504   8.513
 1471POPC   C3B20781  28.571  15.335   8.148
 1471POPC   C4B20782  28.553  15.545   7.776
 1472POPC   NC320783   6.299   9.314   9.416
 1472POPC   PO420784   5.957   8.808   9.784
 1472POPC   GL120785   5.926   8.953   9.344
 1472POPC   GL220786   6.223   8.860   9.170
 1472POPC   C1A20787   5.811   8.919   8.865
 1472POPC   D2A20788   5.891   8.650   8.461
 1472POPC   C3A20789   5.879   8.840   8.023
 1472POPC   C4A20790   5.611   9.177   7.819
 1472POPC   C1B20791   6.313   9.082   8.774
 1472POPC   C2B20792   6.191   9.120   8.336
 1472POPC   C3B20793   6.136   9.276   7.920
 1472POPC   C4B20794   6.332   9.180   7.544
 1473POPC   NC320795  16.456  43.197   9.487
 1473POPC   PO420796  16.868  42.656   9.552
 1473POPC   GL120797  16.928  42.871   9.149
 1473POPC   GL220798  16.918  43.220   9.241
 1473POPC   C1A20799  16.826  42.774   8.713
 1473POPC   D2A20800  16.699  42.668   8.271
 1473POPC   C3A20801  16.968  42.855   7.959
 1473POPC   C4A20802  16.889  43.033   7.554
 1473POPC   C1B20803  16.814  43.303   8.814
 1473POPC   C2B20804  16.919  43.181   8.392
 1473POPC   C3B20805  16.736  43.324   8.028
 1473POPC   C4B20806  16.752  43.576   7.657
 1474POPC   NC320807  36.470  14.085   9.261
 1474POPC   PO420808  35.911  14.432   9.553
 1474POPC   GL120809  36.154  14.481   9.183
 1474POPC   GL220810  36.384  14.742   9.175
 1474POPC   C1A20811  36.054  14.401   8.766
 1474POPC   D2A20812  35.836  14.445   8.412
 1474POPC   C3A20813  36.084  14.330   8.108
 1474POPC   C4A20814  36.183  14.416   7.705
 1474POPC   C1B20815  36.538  14.566   8.802
 1474POPC   C2B20816  36.404  14.663   8.384
 1474POPC   C3B20817  36.428  14.775   7.966
 1474POPC   C4B20818  36.575  14.655   7.495
 1475POPC   NC320819  44.903  44.199   9.586
 1475POPC   PO420820  44.649  44.796   9.535
 1475POPC   GL120821  44.607  44.678   9.134
 1475POPC   GL220822  44.712  44.330   9.128
 1475POPC   C1A20823  44.633  44.856   8.705
 1475POPC   D2A20824  44.431  44.528   8.442
 1475POPC   C3A20825  44.581  44.509   8.017
 1475POPC   C4A20826  44.842  44.845   7.839
 1475POPC   C1B20827  44.991  44.534   8.826
 1475POPC   C2B20828  44.972  44.645   8.357
 1475POPC   C3B20829   0.100  44.417   7.957
 1475POPC   C4B20830   0.045  44.414   7.472
 1476POPC   NC320831  17.884  31.675   9.509
 1476POPC   PO420832  17.291  31.289   9.668
 1476POPC   GL120833  17.561  31.334   9.293
 1476POPC   GL220834  17.467  31.653   9.134
 1476POPC   C1A20835  17.809  31.317   8.905
 1476POPC   D2A20836  17.615  31.244   8.517
 1476POPC   C3A20837  17.771  31.218   8.111
 1476POPC   C4A20838  17.540  31.239   7.738
 1476POPC   C1B20839  17.545  31.752   8.689
 1476POPC   C2B20840  17.526  31.726   8.223
 1476POPC   C3B20841  17.361  31.740   7.784
 1476POPC   C4B20842  17.595  31.867   7.377
 1477POPC   NC320843   6.249  23.139   9.491
 1477POPC   PO420844   5.639  22.940   9.572
 1477POPC   GL120845   5.908  22.874   9.203
 1477POPC   GL220846   5.926  23.241   9.115
 1477POPC   C1A20847   6.048  22.880   8.756
 1477POPC   D2A20848   5.911  22.703   8.359
 1477POPC   C3A20849   5.988  22.843   7.924
 1477POPC   C4A20850   5.617  22.799   7.658
 1477POPC   C1B20851   5.927  23.416   8.708
 1477POPC   C2B20852   6.011  23.216   8.340
 1477POPC   C3B20853   6.157  23.327   7.965
 1477POPC   C4B20854   5.817  23.279   7.730
 1478POPC   NC320855  40.989  38.948   9.510
 1478POPC   PO420856  40.633  39.513   9.470
 1478POPC   GL120857  40.688  39.240   9.144
 1478POPC   GL220858  40.482  38.974   9.285
 1478POPC   C1A20859  40.880  39.221   8.710
 1478POPC   D2A20860  40.865  39.240   8.252
 1478POPC   C3A20861  41.097  39.322   7.932
 1478POPC   C4A20862  40.697  39.325   7.738
 1478POPC   C1B20863  40.474  38.888   8.861
 1478POPC   C2B20864  40.573  38.871   8.445
 1478POPC   C3B20865  40.414  39.038   8.072
 1478POPC   C4B20866  40.400  38.829   7.678
 1479POPC   NC320867   9.484  35.981   9.540
 1479POPC   PO420868   9.870  36.417   9.856
 1479POPC   GL120869   9.865  36.312   9.345
 1479POPC   GL220870   9.527  36.275   9.115
 1479POPC   C1A20871   9.958  36.082   8.907
 1479POPC   D2A20872   9.802  36.134   8.487
 1479POPC   C3A20873   9.738  35.971   8.078
 1479POPC   C4A20874   9.889  36.133   7.718
 1479POPC   C1B20875   9.302  36.111   8.706
 1479POPC   C2B20876   9.242  36.076   8.217
 1479POPC   C3B20877   9.338  36.002   7.745
 1479POPC   C4B20878   9.273  35.927   7.283
 1480POPC   NC320879  22.088   6.706   9.568
 1480POPC   PO420880  21.851   7.224   9.407
 1480POPC   GL120881  22.096   6.907   9.118
 1480POPC   GL220882  22.225   6.518   9.124
 1480POPC   C1A20883  22.018   6.774   8.735
 1480POPC   D2A20884  21.912   6.965   8.380
 1480POPC   C3A20885  22.003   6.788   7.984
 1480POPC   C4A20886  22.173   6.635   7.618
 1480POPC   C1B20887  22.287   6.318   8.732
 1480POPC   C2B20888  22.050   6.393   8.369
 1480POPC   C3B20889  22.054   6.249   7.973
 1480POPC   C4B20890  22.408   6.128   7.756
 1481POPC   NC320891   5.025   7.975   9.496
 1481POPC   PO420892   4.387   8.170   9.521
 1481POPC   GL120893   4.395   7.969   9.150
 1481POPC   GL220894   4.192   8.200   8.991
 1481POPC   C1A20895   4.517   7.966   8.692
 1481POPC   D2A20896   4.261   8.197   8.378
 1481POPC   C3A20897   4.193   8.133   7.935
 1481POPC   C4A20898   4.513   8.032   7.630
 1481POPC   C1B20899   4.421   8.536   8.749
 1481POPC   C2B20900   4.376   8.700   8.299
 1481POPC   C3B20901   4.516   8.536   7.896
 1481POPC   C4B20902   4.465   8.559   7.453
 1482POPC   NC320903  44.470  23.739   9.628
 1482POPC   PO420904   0.099  23.782   9.396
 1482POPC   GL120905  44.750  23.628   9.203
 1482POPC   GL220906  44.910  23.424   8.949
 1482POPC   C1A20907  44.400  23.509   8.959
 1482POPC   D2A20908  44.322  23.481   8.522
 1482POPC   C3A20909  44.525  23.784   8.248
 1482POPC   C4A20910  44.599  23.749   7.808
 1482POPC   C1B20911  44.799  23.784   8.714
 1482POPC   C2B20912   0.019  23.923   8.361
 1482POPC   C3B20913   0.057  23.666   8.008
 1482POPC   C4B20914   0.067  23.784   7.584
 1483POPC   NC320915  14.530  39.744   9.611
 1483POPC   PO420916  14.283  40.373   9.877
 1483POPC   GL120917  14.475  40.174   9.398
 1483POPC   GL220918  14.174  39.909   9.275
 1483POPC   C1A20919  14.666  40.199   8.957
 1483POPC   D2A20920  14.545  40.129   8.508
 1483POPC   C3A20921  14.808  40.037   8.135
 1483POPC   C4A20922  14.647  39.917   7.724
 1483POPC   C1B20923  14.296  39.808   8.856
 1483POPC   C2B20924  14.348  39.645   8.425
 1483POPC   C3B20925  14.245  39.743   8.001
 1483POPC   C4B20926  14.173  39.670   7.590
 1484POPC   NC320927  27.152  26.914   9.332
 1484POPC   PO420928  26.594  26.714   9.588
 1484POPC   GL120929  26.709  26.743   9.148
 1484POPC   GL220930  26.674  27.097   9.237
 1484POPC   C1A20931  26.885  26.651   8.693
 1484POPC   D2A20932  27.062  26.431   8.332
 1484POPC   C3A20933  27.040  26.744   7.990
 1484POPC   C4A20934  26.714  26.779   7.700
 1484POPC   C1B20935  26.745  27.124   8.808
 1484POPC   C2B20936  26.908  27.071   8.394
 1484POPC   C3B20937  26.720  27.164   8.030
 1484POPC   C4B20938  26.809  27.288   7.621
 1485POPC   NC320939  44.198  24.788   9.252
 1485POPC   PO420940  43.648  25.217   9.418
 1485POPC   GL120941  43.909  25.356   9.111
 1485POPC   GL220942  43.655  25.607   9.014
 1485POPC   C1A20943  44.000  25.265   8.714
 1485POPC   D2A20944  43.820  25.160   8.334
 1485POPC   C3A20945  43.940  25.286   7.928
 1485POPC   C4A20946  43.849  25.068   7.547
 1485POPC   C1B20947  43.679  25.663   8.589
 1485POPC   C2B20948  43.518  25.590   8.183
 1485POPC   C3B20949  43.619  25.784   7.802
 1485POPC   C4B20950  43.858  25.564   7.498
 1486POPC   NC320951   7.614  27.928   9.515
 1486POPC   PO420952   7.058  27.492   9.540
 1486POPC   GL120953   7.346  27.582   9.158
 1486POPC   GL220954   7.718  27.601   9.127
 1486POPC   C1A20955   7.442  27.367   8.738
 1486POPC   D2A20956   7.148  27.228   8.405
 1486POPC   C3A20957   7.059  27.485   8.045
 1486POPC   C4A20958   7.216  27.404   7.606
 1486POPC   C1B20959   7.621  27.846   8.740
 1486POPC   C2B20960   7.413  27.755   8.355
 1486POPC   C3B20961   7.529  27.668   7.943
 1486POPC   C4B20962   7.534  27.840   7.569
 1487POPC   NC320963  37.440  14.637   9.464
 1487POPC   PO420964  38.074  14.586   9.194
 1487POPC   GL120965  37.824  14.355   8.972
 1487POPC   GL220966  37.479  14.290   9.088
 1487POPC   C1A20967  37.900  14.334   8.547
 1487POPC   D2A20968  37.809  14.041   8.267
 1487POPC   C3A20969  37.765  14.237   7.885
 1487POPC   C4A20970  37.850  14.601   7.695
 1487POPC   C1B20971  37.391  14.291   8.668
 1487POPC   C2B20972  37.473  14.581   8.352
 1487POPC   C3B20973  37.391  14.557   7.941
 1487POPC   C4B20974  37.425  14.385   7.517
 1488POPC   NC320975  27.699  29.702   9.552
 1488POPC   PO420976  27.492  30.244   9.418
 1488POPC   GL120977  27.487  29.932   9.135
 1488POPC   GL220978  27.825  29.942   9.111
 1488POPC   C1A20979  27.380  29.986   8.705
 1488POPC   D2A20980  27.527  29.819   8.323
 1488POPC   C3A20981  27.271  29.910   8.005
 1488POPC   C4A20982  27.296  29.773   7.608
 1488POPC   C1B20983  27.839  29.768   8.730
 1488POPC   C2B20984  28.000  30.041   8.437
 1488POPC   C3B20985  27.909  30.223   8.056
 1488POPC   C4B20986  27.628  30.162   7.703
 1489POPC   NC320987  30.513  12.301   9.296
 1489POPC   PO420988  31.043  12.012   9.404
 1489POPC   GL120989  30.854  11.845   9.053
 1489POPC   GL220990  30.496  11.777   9.131
 1489POPC   C1A20991  30.920  11.942   8.621
 1489POPC   D2A20992  30.781  12.269   8.358
 1489POPC   C3A20993  30.872  12.199   7.946
 1489POPC   C4A20994  30.587  12.124   7.622
 1489POPC   C1B20995  30.396  11.985   8.721
 1489POPC   C2B20996  30.347  11.853   8.305
 1489POPC   C3B20997  30.672  11.755   8.033
 1489POPC   C4B20998  30.710  11.630   7.609
 1490POPC   NC320999  20.032  20.175   9.487
 1490POPC   PO421000  20.011  19.549   9.414
 1490POPC   GL121001  19.788  19.823   9.088
 1490POPC   GL221002  19.944  20.096   8.997
 1490POPC   C1A21003  19.581  19.920   8.686
 1490POPC   D2A21004  19.660  20.082   8.247
 1490POPC   C3A21005  19.658  19.844   7.843
 1490POPC   C4A21006  19.602  19.963   7.364
 1490POPC   C1B21007  20.100  20.024   8.598
 1490POPC   C2B21008  20.347  19.994   8.219
 1490POPC   C3B21009  20.131  20.055   7.828
 1490POPC   C4B21010  20.094  19.907   7.407
 1491POPC   NC321011  42.004  33.091   9.368
 1491POPC   PO421012  42.685  32.876   9.513
 1491POPC   GL121013  42.584  32.736   9.118
 1491POPC   GL221014  42.226  32.711   9.097
 1491POPC   C1A21015  42.523  32.903   8.698
 1491POPC   D2A21016  42.264  32.929   8.322
 1491POPC   C3A21017  42.470  33.036   7.952
 1491POPC   C4A21018  42.577  32.965   7.520
 1491POPC   C1B21019  41.966  32.875   8.740
 1491POPC   C2B21020  41.769  32.728   8.349
 1491POPC   C3B21021  41.917  32.762   7.929
 1491POPC   C4B21022  42.076  33.013   7.618
 1492POPC   NC321023  26.423  23.777   9.369
 1492POPC   PO421024  26.969  24.224   9.346
 1492POPC   GL121025  26.768  23.972   9.034
 1492POPC   GL221026  26.707  23.578   9.009
 1492POPC   C1A21027  26.900  24.036   8.646
 1492POPC   D2A21028  26.818  23.967   8.238
 1492POPC   C3A21029  26.963  24.000   7.844
 1492POPC   C4A21030  26.882  23.794   7.453
 1492POPC   C1B21031  26.605  23.607   8.573
 1492POPC   C2B21032  26.793  23.470   8.171
 1492POPC   C3B21033  26.608  23.433   7.751
 1492POPC   C4B21034  26.275  23.345   7.451
 1493POPC   NC321035   6.536  15.641   9.516
 1493POPC   PO421036   6.868  16.260   9.465
 1493POPC   GL121037   6.660  16.231   9.111
 1493POPC   GL221038   6.439  15.966   9.118
 1493POPC   C1A21039   6.709  16.090   8.676
 1493POPC   D2A21040   6.968  15.955   8.313
 1493POPC   C3A21041   6.785  16.106   7.917
 1493POPC   C4A21042   6.755  15.841   7.532
 1493POPC   C1B21043   6.341  15.733   8.734
 1493POPC   C2B21044   6.488  15.690   8.295
 1493POPC   C3B21045   6.342  15.808   7.874
 1493POPC   C4B21046   6.321  15.617   7.475
 1494POPC   NC321047  24.495  15.251   9.860
 1494POPC   PO421048  24.753  15.121   9.258
 1494POPC   GL121049  24.356  15.156   9.102
 1494POPC   GL221050  24.328  14.838   9.015
 1494POPC   C1A21051  24.250  15.399   8.730
 1494POPC   D2A21052  24.543  15.485   8.407
 1494POPC   C3A21053  24.434  15.440   7.980
 1494POPC   C4A21054  24.729  15.426   7.636
 1494POPC   C1B21055  24.548  14.974   8.659
 1494POPC   C2B21056  24.655  14.795   8.307
 1494POPC   C3B21057  24.676  15.012   7.984
 1494POPC   C4B21058  24.333  15.005   7.700
 1495POPC   NC321059  23.250  12.680   9.163
 1495POPC   PO421060  22.663  12.800   9.481
 1495POPC   GL121061  22.855  13.005   9.121
 1495POPC   GL221062  22.765  12.692   8.965
 1495POPC   C1A21063  22.925  13.124   8.669
 1495POPC   D2A21064  22.665  12.898   8.368
 1495POPC   C3A21065  22.731  12.976   7.929
 1495POPC   C4A21066  23.061  12.746   7.719
 1495POPC   C1B21067  22.803  12.429   8.600
 1495POPC   C2B21068  22.840  12.454   8.164
 1495POPC   C3B21069  22.622  12.501   7.767
 1495POPC   C4B21070  22.830  12.436   7.341
 1496POPC   NC321071   4.905  33.787   9.603
 1496POPC   PO421072   5.626  33.960   9.499
 1496POPC   GL121073   5.326  33.741   9.260
 1496POPC   GL221074   5.100  34.026   9.192
 1496POPC   C1A21075   5.327  33.578   8.853
 1496POPC   D2A21076   5.259  33.463   8.430
 1496POPC   C3A21077   5.245  33.708   8.062
 1496POPC   C4A21078   5.230  33.588   7.631
 1496POPC   C1B21079   5.298  34.089   8.825
 1496POPC   C2B21080   5.128  34.086   8.424
 1496POPC   C3B21081   5.351  34.235   8.105
 1496POPC   C4B21082   5.333  34.084   7.706
 1497POPC   NC321083  44.310   2.995   9.323
 1497POPC   PO421084  43.880   2.469   9.508
 1497POPC   GL121085  43.873   2.749   9.174
 1497POPC   GL221086  44.145   2.557   9.057
 1497POPC   C1A21087  43.690   3.005   8.825
 1497POPC   D2A21088  43.786   3.132   8.373
 1497POPC   C3A21089  43.709   2.862   8.012
 1497POPC   C4A21090  43.598   2.670   7.600
 1497POPC   C1B21091  44.158   2.781   8.685
 1497POPC   C2B21092  44.303   3.020   8.357
 1497POPC   C3B21093  44.293   2.940   7.934
 1497POPC   C4B21094  44.259   2.532   7.742
 1498POPC   NC321095  42.436  22.700   9.390
 1498POPC   PO421096  42.310  21.949   9.487
 1498POPC   GL121097  42.317  22.020   9.120
 1498POPC   GL221098  42.214  22.347   9.093
 1498POPC   C1A21099  42.078  21.957   8.771
 1498POPC   D2A21100  42.250  21.874   8.349
 1498POPC   C3A21101  42.119  22.070   7.990
 1498POPC   C4A21102  42.144  22.015   7.536
 1498POPC   C1B21103  42.475  22.289   8.726
 1498POPC   C2B21104  42.561  22.434   8.324
 1498POPC   C3B21105  42.573  22.327   7.916
 1498POPC   C4B21106  42.612  22.207   7.511
 1499POPC   NC321107  36.066  35.871   9.479
 1499POPC   PO421108  36.530  36.314   9.607
 1499POPC   GL121109  36.375  36.204   9.194
 1499POPC   GL221110  36.007  36.244   9.079
 1499POPC   C1A21111  36.317  35.933   8.840
 1499POPC   D2A21112  36.114  36.066   8.480
 1499POPC   C3A21113  36.101  35.891   8.090
 1499POPC   C4A21114  36.357  36.021   7.783
 1499POPC   C1B21115  35.785  36.372   8.687
 1499POPC   C2B21116  35.787  36.344   8.195
 1499POPC   C3B21117  35.880  36.267   7.752
 1499POPC   C4B21118  35.772  36.465   7.318
 1500POPC   NC321119  35.100  36.065   9.633
 1500POPC   PO421120  35.754  36.300   9.502
 1500POPC   GL121121  35.412  36.244   9.188
 1500POPC   GL221122  35.274  35.884   9.176
 1500POPC   C1A21123  35.311  36.496   8.800
 1500POPC   D2A21124  35.306  36.273   8.376
 1500POPC   C3A21125  35.335  36.407   7.918
 1500POPC   C4A21126  35.233  36.422   7.434
 1500POPC   C1B21127  35.475  35.959   8.782
 1500POPC   C2B21128  35.644  35.874   8.393
 1500POPC   C3B21129  35.436  35.908   8.021
 1500POPC   C4B21130  35.267  35.593   7.734
 1501POPC   NC321131   0.158  14.969   9.421
 1501POPC   PO421132   0.557  15.521   9.478
 1501POPC   GL121133   0.405  15.316   9.144
 1501POPC   GL221134   0.086  15.461   9.130
 1501POPC   C1A21135   0.559  15.116   8.775
 1501POPC   D2A21136   0.680  15.328   8.390
 1501POPC   C3A21137   0.824  15.122   8.008
 1501POPC   C4A21138   0.584  15.049   7.643
 1501POPC   C1B21139   0.008  15.171   8.788
 1501POPC   C2B21140   0.197  15.077   8.393
 1501POPC   C3B21141   0.074  15.189   7.971
 1501POPC   C4B21142   0.146  15.312   7.508
 1502POPC   NC321143  31.406  37.212   9.749
 1502POPC   PO421144  31.208  36.613   9.512
 1502POPC   GL121145  31.383  36.813   9.151
 1502POPC   GL221146  31.308  37.151   9.134
 1502POPC   C1A21147  31.615  36.922   8.765
 1502POPC   D2A21148  31.573  36.730   8.355
 1502POPC   C3A21149  31.517  36.873   7.918
 1502POPC   C4A21150  31.341  36.638   7.543
 1502POPC   C1B21151  31.114  37.067   8.719
 1502POPC   C2B21152  31.228  37.191   8.263
 1502POPC   C3B21153  31.134  37.226   7.798
 1502POPC   C4B21154  31.330  37.106   7.379
 1503POPC   NC321155  30.562  21.628   9.451
 1503POPC   PO421156  30.497  20.977   9.576
 1503POPC   GL121157  30.629  21.172   9.197
 1503POPC   GL221158  30.907  21.049   9.063
 1503POPC   C1A21159  30.589  21.410   8.797
 1503POPC   D2A21160  30.532  21.645   8.398
 1503POPC   C3A21161  30.532  21.427   8.005
 1503POPC   C4A21162  30.248  21.165   7.767
 1503POPC   C1B21163  31.028  21.163   8.663
 1503POPC   C2B21164  30.987  21.420   8.270
 1503POPC   C3B21165  31.104  21.404   7.825
 1503POPC   C4B21166  30.931  21.565   7.379
 1504POPC   NC321167  29.489  43.776   9.462
 1504POPC   PO421168  28.990  44.256   9.448
 1504POPC   GL121169  28.817  43.984   9.147
 1504POPC   GL221170  29.139  43.835   9.045
 1504POPC   C1A21171  28.764  43.872   8.703
 1504POPC   D2A21172  29.081  43.764   8.398
 1504POPC   C3A21173  29.125  43.952   7.973
 1504POPC   C4A21174  28.965  44.308   7.744
 1504POPC   C1B21175  29.368  43.548   8.787
 1504POPC   C2B21176  29.560  43.563   8.385
 1504POPC   C3B21177  29.433  43.479   7.994
 1504POPC   C4B21178  29.341  43.633   7.623
 1505POPC   NC321179   0.893  44.877   9.453
 1505POPC   PO421180   0.289  44.495   9.559
 1505POPC   GL121181   0.418  44.660   9.182
 1505POPC   GL221182   0.678  44.439   9.158
 1505POPC   C1A21183   0.396  44.864   8.779
 1505POPC   D2A21184   0.477  44.668   8.416
 1505POPC   C3A21185   0.348  44.861   8.045
 1505POPC   C4A21186   0.405  44.689   7.657
 1505POPC   C1B21187   0.851  44.323   8.782
 1505POPC   C2B21188   0.956  44.483   8.383
 1505POPC   C3B21189   0.748  44.537   8.000
 1505POPC   C4B21190   0.856  44.434   7.588
 1506POPC   NC321191  17.265  37.922   9.525
 1506POPC   PO421192  17.761  37.500   9.751
 1506POPC   GL121193  17.593  37.587   9.286
 1506POPC   GL221194  17.241  37.411   9.267
 1506POPC   C1A21195  17.657  37.849   8.860
 1506POPC   D2A21196  17.700  38.065   8.406
 1506POPC   C3A21197  17.758  37.847   7.964
 1506POPC   C4A21198  17.722  37.756   7.471
 1506POPC   C1B21199  17.224  37.435   8.813
 1506POPC   C2B21200  17.425  37.628   8.472
 1506POPC   C3B21201  17.276  37.884   8.141
 1506POPC   C4B21202  17.317  37.663   7.768
 1507POPC   NC321203  24.403  25.822   9.579
 1507POPC   PO421204  24.081  26.458   9.424
 1507POPC   GL121205  24.354  26.093   9.140
 1507POPC   GL221206  24.732  26.043   9.249
 1507POPC   C1A21207  24.342  26.097   8.679
 1507POPC   D2A21208  24.482  26.262   8.285
 1507POPC   C3A21209  24.318  26.112   7.922
 1507POPC   C4A21210  24.256  25.732   7.759
 1507POPC   C1B21211  24.817  26.171   8.827
 1507POPC   C2B21212  24.824  25.913   8.461
 1507POPC   C3B21213  24.757  25.877   8.047
 1507POPC   C4B21214  24.831  26.290   7.908
 1508POPC   NC321215  37.059  43.329   9.427
 1508POPC   PO421216  37.688  43.178   9.736
 1508POPC   GL121217  37.657  43.176   9.249
 1508POPC   GL221218  37.875  43.414   9.077
 1508POPC   C1A21219  37.850  42.987   8.838
 1508POPC   D2A21220  37.722  42.919   8.422
 1508POPC   C3A21221  37.930  42.845   8.034
 1508POPC   C4A21222  37.691  42.845   7.654
 1508POPC   C1B21223  37.909  43.528   8.655
 1508POPC   C2B21224  37.684  43.399   8.282
 1508POPC   C3B21225  37.759  43.307   7.847
 1508POPC   C4B21226  37.725  43.298   7.394
 1509POPC   NC321227  31.105  31.922   9.471
 1509POPC   PO421228  31.448  32.457   9.458
 1509POPC   GL121229  31.393  32.196   9.116
 1509POPC   GL221230  31.018  32.276   9.112
 1509POPC   C1A21231  31.664  32.265   8.740
 1509POPC   D2A21232  31.672  32.606   8.365
 1509POPC   C3A21233  31.664  32.540   7.882
 1509POPC   C4A21234  31.661  32.199   7.541
 1509POPC   C1B21235  31.097  32.331   8.672
 1509POPC   C2B21236  31.365  32.187   8.348
 1509POPC   C3B21237  31.418  32.092   7.964
 1509POPC   C4B21238  31.194  32.342   7.668
 1510POPC   NC321239   3.355   5.574   9.526
 1510POPC   PO421240   3.302   6.288   9.462
 1510POPC   GL121241   3.507   5.972   9.224
 1510POPC   GL221242   3.817   6.081   9.168
 1510POPC   C1A21243   3.494   5.898   8.775
 1510POPC   D2A21244   3.258   5.935   8.410
 1510POPC   C3A21245   3.467   5.829   8.058
 1510POPC   C4A21246   3.318   5.669   7.679
 1510POPC   C1B21247   3.858   6.272   8.798
 1510POPC   C2B21248   3.724   6.172   8.386
 1510POPC   C3B21249   3.930   6.171   8.006
 1510POPC   C4B21250   3.756   6.195   7.649
 1511POPC   NC321251   1.656  17.895   9.346
 1511POPC   PO421252   1.190  18.345   9.613
 1511POPC   GL121253   1.290  18.357   9.175
 1511POPC   GL221254   0.977  18.211   9.046
 1511POPC   C1A21255   1.242  18.577   8.766
 1511POPC   D2A21256   1.268  18.782   8.364
 1511POPC   C3A21257   1.328  18.529   8.031
 1511POPC   C4A21258   1.101  18.193   7.851
 1511POPC   C1B21259   1.307  18.061   8.743
 1511POPC   C2B21260   1.498  18.170   8.353
 1511POPC   C3B21261   1.533  17.967   7.952
 1511POPC   C4B21262   1.705  17.845   7.578
 1512POPC   NC321263  33.912  23.494   9.505
 1512POPC   PO421264  33.728  24.037   9.486
 1512POPC   GL121265  33.633  23.737   9.148
 1512POPC   GL221266  33.947  23.622   9.025
 1512POPC   C1A21267  33.515  23.583   8.757
 1512POPC   D2A21268  33.765  23.551   8.394
 1512POPC   C3A21269  33.574  23.662   8.005
 1512POPC   C4A21270  33.722  23.632   7.578
 1512POPC   C1B21271  33.951  23.931   8.723
 1512POPC   C2B21272  34.055  24.019   8.314
 1512POPC   C3B21273  34.062  23.858   7.884
 1512POPC   C4B21274  33.900  24.097   7.491
 1513POPC   NC321275  20.129  26.654   9.414
 1513POPC   PO421276  19.477  26.878   9.389
 1513POPC   GL121277  19.756  26.807   9.093
 1513POPC   GL221278  19.945  27.096   9.163
 1513POPC   C1A21279  20.023  26.782   8.738
 1513POPC   D2A21280  19.981  26.520   8.358
 1513POPC   C3A21281  20.074  26.786   8.046
 1513POPC   C4A21282  19.959  26.849   7.655
 1513POPC   C1B21283  19.657  27.157   8.740
 1513POPC   C2B21284  19.652  26.902   8.391
 1513POPC   C3B21285  19.559  26.709   8.025
 1513POPC   C4B21286  19.478  26.901   7.613
 1514POPC   NC321287   6.898  42.724   9.454
 1514POPC   PO421288   6.354  42.244   9.442
 1514POPC   GL121289   6.437  42.485   9.035
 1514POPC   GL221290   6.798  42.545   8.995
 1514POPC   C1A21291   6.538  42.417   8.581
 1514POPC   D2A21292   6.597  42.641   8.199
 1514POPC   C3A21293   6.417  42.459   7.835
 1514POPC   C4A21294   6.617  42.189   7.543
 1514POPC   C1B21295   7.054  42.528   8.620
 1514POPC   C2B21296   7.219  42.517   8.196
 1514POPC   C3B21297   6.951  42.446   7.840
 1514POPC   C4B21298   7.003  42.506   7.375
 1515POPC   NC321299   6.563  43.319   9.927
 1515POPC   PO421300   6.697  43.927   9.562
 1515POPC   GL121301   6.563  43.988   9.165
 1515POPC   GL221302   6.252  43.823   9.148
 1515POPC   C1A21303   6.715  43.847   8.785
 1515POPC   D2A21304   6.987  43.817   8.450
 1515POPC   C3A21305   6.864  43.926   8.073
 1515POPC   C4A21306   6.854  43.846   7.694
 1515POPC   C1B21307   6.234  44.035   8.762
 1515POPC   C2B21308   6.449  43.995   8.368
 1515POPC   C3B21309   6.377  44.070   7.953
 1515POPC   C4B21310   6.349  43.890   7.572
 1516POPC   NC321311  36.464  30.402   9.613
 1516POPC   PO421312  37.092  30.527   9.440
 1516POPC   GL121313  36.983  30.385   9.030
 1516POPC   GL221314  36.947  30.735   8.922
 1516POPC   C1A21315  36.969  30.342   8.581
 1516POPC   D2A21316  37.089  30.565   8.218
 1516POPC   C3A21317  36.758  30.664   7.963
 1516POPC   C4A21318  36.609  30.654   7.556
 1516POPC   C1B21319  36.755  30.839   8.500
 1516POPC   C2B21320  36.529  31.083   8.156
 1516POPC   C3B21321  36.509  31.173   7.717
 1516POPC   C4B21322  36.597  31.405   7.326
 1517POPC   NC321323  32.096  35.010   9.478
 1517POPC   PO421324  32.620  35.439   9.504
 1517POPC   GL121325  32.389  35.527   9.108
 1517POPC   GL221326  32.100  35.334   9.061
 1517POPC   C1A21327  32.352  35.714   8.704
 1517POPC   D2A21328  32.467  35.716   8.268
 1517POPC   C3A21329  32.286  35.393   8.021
 1517POPC   C4A21330  32.113  35.464   7.644
 1517POPC   C1B21331  31.855  35.088   8.771
 1517POPC   C2B21332  31.873  35.153   8.314
 1517POPC   C3B21333  31.890  35.071   7.881
 1517POPC   C4B21334  32.237  34.981   7.609
 1518POPC   NC321335  22.511  32.537   9.507
 1518POPC   PO421336  21.882  32.345   9.592
 1518POPC   GL121337  22.094  32.236   9.209
 1518POPC   GL221338  22.308  32.442   9.054
 1518POPC   C1A21339  22.046  32.056   8.803
 1518POPC   D2A21340  22.307  31.969   8.442
 1518POPC   C3A21341  22.118  31.877   8.048
 1518POPC   C4A21342  21.944  32.102   7.724
 1518POPC   C1B21343  22.113  32.567   8.692
 1518POPC   C2B21344  21.986  32.431   8.269
 1518POPC   C3B21345  22.192  32.530   7.882
 1518POPC   C4B21346  22.516  32.381   7.619
 1519POPC   NC321347  38.622  38.620   9.450
 1519POPC   PO421348  38.233  38.079   9.450
 1519POPC   GL121349  38.422  38.269   9.113
 1519POPC   GL221350  38.259  38.598   9.074
 1519POPC   C1A21351  38.594  38.220   8.710
 1519POPC   D2A21352  38.445  38.321   8.305
 1519POPC   C3A21353  38.600  38.180   7.919
 1519POPC   C4A21354  38.532  38.292   7.485
 1519POPC   C1B21355  38.511  38.737   8.711
 1519POPC   C2B21356  38.498  38.814   8.249
 1519POPC   C3B21357  38.544  38.679   7.820
 1519POPC   C4B21358  38.599  38.762   7.370
 1520POPC   NC321359   6.996   6.069   9.687
 1520POPC   PO421360   7.464   5.808   9.315
 1520POPC   GL121361   7.367   5.619   9.002
 1520POPC   GL221362   7.073   5.431   9.084
 1520POPC   C1A21363   7.588   5.656   8.623
 1520POPC   D2A21364   7.681   5.634   8.216
 1520POPC   C3A21365   7.630   6.034   8.007
 1520POPC   C4A21366   7.272   6.203   7.907
 1520POPC   C1B21367   7.005   5.655   8.658
 1520POPC   C2B21368   7.157   5.811   8.253
 1520POPC   C3B21369   7.315   5.629   7.874
 1520POPC   C4B21370   7.742   5.579   7.707
 1521POPC   NC321371  25.290  29.442   9.386
 1521POPC   PO421372  25.642  28.904   9.507
 1521POPC   GL121373  25.445  29.029   9.114
 1521POPC   GL221374  25.078  28.968   9.089
 1521POPC   C1A21375  25.290  29.291   8.748
 1521POPC   D2A21376  25.055  29.415   8.385
 1521POPC   C3A21377  25.284  29.294   8.029
 1521POPC   C4A21378  25.202  29.433   7.630
 1521POPC   C1B21379  24.904  28.962   8.650
 1521POPC   C2B21380  24.931  28.937   8.184
 1521POPC   C3B21381  24.921  28.960   7.725
 1521POPC   C4B21382  24.846  28.819   7.249
 1522POPC   NC321383  23.723  21.140   9.535
 1522POPC   PO421384  24.036  21.660   9.563
 1522POPC   GL121385  23.864  21.481   9.191
 1522POPC   GL221386  24.038  21.150   9.135
 1522POPC   C1A21387  23.779  21.642   8.793
 1522POPC   D2A21388  23.559  21.468   8.466
 1522POPC   C3A21389  23.681  21.640   8.109
 1522POPC   C4A21390  23.579  21.530   7.718
 1522POPC   C1B21391  23.673  21.118   8.833
 1522POPC   C2B21392  23.645  20.939   8.413
 1522POPC   C3B21393  23.652  21.088   7.978
 1522POPC   C4B21394  23.786  20.983   7.549
 1523POPC   NC321395  43.869  23.348   9.464
 1523POPC   PO421396  43.668  22.704   9.509
 1523POPC   GL121397  43.921  22.722   9.122
 1523POPC   GL221398  44.326  22.691   9.184
 1523POPC   C1A21399  43.729  22.827   8.701
 1523POPC   D2A21400  43.586  22.952   8.260
 1523POPC   C3A21401  43.806  22.850   7.871
 1523POPC   C4A21402  43.708  22.952   7.451
 1523POPC   C1B21403  44.224  22.555   8.748
 1523POPC   C2B21404  44.053  22.704   8.329
 1523POPC   C3B21405  44.079  23.155   8.144
 1523POPC   C4B21406  44.260  23.177   7.737
 1524POPC   NC321407  28.498  36.936   9.468
 1524POPC   PO421408  28.111  36.532   9.255
 1524POPC   GL121409  28.268  36.826   9.019
 1524POPC   GL221410  28.635  36.855   9.002
 1524POPC   C1A21411  28.347  36.750   8.615
 1524POPC   D2A21412  28.535  36.824   8.282
 1524POPC   C3A21413  28.217  36.779   8.013
 1524POPC   C4A21414  28.169  36.880   7.601
 1524POPC   C1B21415  28.766  37.154   8.697
 1524POPC   C2B21416  28.577  37.366   8.357
 1524POPC   C3B21417  28.611  37.254   7.963
 1524POPC   C4B21418  28.698  36.856   7.794
 1525POPC   NC321419  27.812  43.491   9.456
 1525POPC   PO421420  27.481  44.030   9.499
 1525POPC   GL121421  27.565  44.054   9.093
 1525POPC   GL221422  27.283  44.240   9.033
 1525POPC   C1A21423  27.792  43.944   8.724
 1525POPC   D2A21424  27.722  43.579   8.472
 1525POPC   C3A21425  27.811  43.547   8.045
 1525POPC   C4A21426  27.620  43.776   7.701
 1525POPC   C1B21427  27.437  44.311   8.635
 1525POPC   C2B21428  27.508  44.057   8.263
 1525POPC   C3B21429  27.248  44.046   7.888
 1525POPC   C4B21430  27.327  44.078   7.415
 1526POPC   NC321431  31.648  39.534   9.716
 1526POPC   PO421432  31.125  39.104   9.697
 1526POPC   GL121433  31.451  39.066   9.263
 1526POPC   GL221434  31.657  39.398   9.214
 1526POPC   C1A21435  31.519  39.086   8.821
 1526POPC   D2A21436  31.497  39.337   8.461
 1526POPC   C3A21437  31.618  39.066   8.127
 1526POPC   C4A21438  31.405  39.038   7.749
 1526POPC   C1B21439  31.855  39.463   8.820
 1526POPC   C2B21440  32.007  39.292   8.416
 1526POPC   C3B21441  31.830  39.533   8.084
 1526POPC   C4B21442  31.714  39.587   7.682
 1527POPC   NC321443  37.005  18.580   9.539
 1527POPC   PO421444  36.532  18.147   9.540
 1527POPC   GL121445  36.919  18.138   9.247
 1527POPC   GL221446  37.254  18.053   9.078
 1527POPC   C1A21447  36.907  18.358   8.841
 1527POPC   D2A21448  36.729  18.520   8.452
 1527POPC   C3A21449  36.916  18.320   8.126
 1527POPC   C4A21450  36.953  17.999   7.824
 1527POPC   C1B21451  37.351  18.208   8.640
 1527POPC   C2B21452  37.359  18.521   8.307
 1527POPC   C3B21453  37.300  18.484   7.828
 1527POPC   C4B21454  36.887  18.487   7.647
 1528POPC   NC321455  17.965  40.846   9.504
 1528POPC   PO421456  18.448  40.412   9.445
 1528POPC   GL121457  18.334  40.692   9.116
 1528POPC   GL221458  18.065  40.469   9.042
 1528POPC   C1A21459  18.453  40.974   8.759
 1528POPC   D2A21460  18.534  41.172   8.343
 1528POPC   C3A21461  18.506  40.946   7.939
 1528POPC   C4A21462  18.223  40.995   7.615
 1528POPC   C1B21463  18.145  40.596   8.604
 1528POPC   C2B21464  18.161  40.600   8.144
 1528POPC   C3B21465  17.831  40.737   7.848
 1528POPC   C4B21466  17.815  40.773   7.390
 1529POPC   NC321467   0.156  15.838   9.495
 1529POPC   PO421468   0.765  16.219   9.533
 1529POPC   GL121469   0.730  15.998   9.129
 1529POPC   GL221470   0.449  15.835   9.079
 1529POPC   C1A21471   0.693  15.930   8.651
 1529POPC   D2A21472   0.262  16.063   8.506
 1529POPC   C3A21473   0.263  16.040   8.066
 1529POPC   C4A21474   0.664  15.938   7.889
 1529POPC   C1B21475   0.345  15.576   8.712
 1529POPC   C2B21476   0.252  15.572   8.285
 1529POPC   C3B21477   0.455  15.497   7.889
 1529POPC   C4B21478   0.321  15.777   7.549
 1530POPC   NC321479  42.489  39.153   9.541
 1530POPC   PO421480  42.556  39.785   9.609
 1530POPC   GL121481  42.541  39.513   9.182
 1530POPC   GL221482  42.523  39.112   9.042
 1530POPC   C1A21483  42.268  39.478   8.811
 1530POPC   D2A21484  42.312  39.242   8.439
 1530POPC   C3A21485  42.180  39.425   8.054
 1530POPC   C4A21486  42.522  39.488   7.756
 1530POPC   C1B21487  42.241  38.831   8.803
 1530POPC   C2B21488  42.101  38.782   8.371
 1530POPC   C3B21489  42.275  38.936   7.985
 1530POPC   C4B21490  42.190  38.767   7.614
 1531POPC   NC321491  27.801  21.572   9.304
 1531POPC   PO421492  27.281  21.292   9.619
 1531POPC   GL121493  27.401  21.256   9.201
 1531POPC   GL221494  27.674  20.996   9.256
 1531POPC   C1A21495  27.394  21.541   8.804
 1531POPC   D2A21496  27.145  21.553   8.425
 1531POPC   C3A21497  27.323  21.682   8.029
 1531POPC   C4A21498  27.474  21.405   7.731
 1531POPC   C1B21499  27.717  21.117   8.818
 1531POPC   C2B21500  27.725  21.378   8.454
 1531POPC   C3B21501  28.007  21.443   8.116
 1531POPC   C4B21502  27.963  21.575   7.716
 1532POPC   NC321503  25.008   4.367   9.421
 1532POPC   PO421504  24.294   4.214   9.274
 1532POPC   GL121505  24.623   4.368   9.100
 1532POPC   GL221506  24.765   4.013   9.137
 1532POPC   C1A21507  24.637   4.615   8.745
 1532POPC   D2A21508  24.473   4.610   8.314
 1532POPC   C3A21509  24.613   4.366   7.961
 1532POPC   C4A21510  24.283   4.087   7.776
 1532POPC   C1B21511  24.592   4.037   8.686
 1532POPC   C2B21512  24.774   3.940   8.255
 1532POPC   C3B21513  24.740   3.881   7.782
 1532POPC   C4B21514  24.746   4.174   7.392
 1533POPC   NC321515   8.473  20.773   9.575
 1533POPC   PO421516   9.132  20.859   9.578
 1533POPC   GL121517   9.013  20.586   9.207
 1533POPC   GL221518   9.354  20.572   9.013
 1533POPC   C1A21519   8.897  20.431   8.796
 1533POPC   D2A21520   9.214  20.416   8.466
 1533POPC   C3A21521   9.037  20.460   8.055
 1533POPC   C4A21522   8.664  20.689   7.913
 1533POPC   C1B21523   9.111  20.891   8.775
 1533POPC   C2B21524   8.947  20.925   8.341
 1533POPC   C3B21525   9.115  20.958   7.922
 1533POPC   C4B21526   8.985  20.851   7.477
 1534POPC   NC321527   1.537  12.691   9.447
 1534POPC   PO421528   0.935  13.046   9.636
 1534POPC   GL121529   0.904  12.845   9.233
 1534POPC   GL221530   0.880  13.133   9.035
 1534POPC   C1A21531   1.136  12.676   8.854
 1534POPC   D2A21532   1.371  12.826   8.482
 1534POPC   C3A21533   1.253  12.675   8.065
 1534POPC   C4A21534   1.425  12.728   7.640
 1534POPC   C1B21535   0.697  13.019   8.632
 1534POPC   C2B21536   0.743  13.303   8.295
 1534POPC   C3B21537   1.071  13.169   8.044
 1534POPC   C4B21538   0.962  12.904   7.698
 1535POPC   NC321539  20.036   3.253   9.767
 1535POPC   PO421540  20.093   2.674   9.428
 1535POPC   GL121541  19.772   2.695   9.141
 1535POPC   GL221542  19.555   2.483   9.305
 1535POPC   C1A21543  19.681   2.892   8.733
 1535POPC   D2A21544  19.884   2.817   8.346
 1535POPC   C3A21545  19.918   2.947   7.952
 1535POPC   C4A21546  20.179   2.770   7.636
 1535POPC   C1B21547  19.489   2.394   8.863
 1535POPC   C2B21548  19.445   2.536   8.458
 1535POPC   C3B21549  19.521   2.608   8.022
 1535POPC   C4B21550  19.670   2.713   7.570
 1536POPC   NC321551   8.677  24.930   9.795
 1536POPC   PO421552   8.089  24.701   9.464
 1536POPC   GL121553   8.162  24.456   9.145
 1536POPC   GL221554   8.424  24.298   9.274
 1536POPC   C1A21555   8.185  24.345   8.733
 1536POPC   D2A21556   8.303  24.570   8.380
 1536POPC   C3A21557   8.141  24.440   8.031
 1536POPC   C4A21558   8.044  24.647   7.684
 1536POPC   C1B21559   8.593  24.102   8.924
 1536POPC   C2B21560   8.588  24.148   8.459
 1536POPC   C3B21561   8.579  24.134   8.005
 1536POPC   C4B21562   8.437  24.337   7.610
 1537POPC   NC321563  28.784   9.604   9.219
 1537POPC   PO421564  28.207   9.243   9.336
 1537POPC   GL121565  28.343   9.398   8.988
 1537POPC   GL221566  28.330   9.755   9.087
 1537POPC   C1A21567  28.373   9.472   8.555
 1537POPC   D2A21568  28.308   9.836   8.305
 1537POPC   C3A21569  28.061   9.826   7.941
 1537POPC   C4A21570  28.247   9.584   7.643
 1537POPC   C1B21571  28.559   9.994   8.741
 1537POPC   C2B21572  28.713  10.139   8.314
 1537POPC   C3B21573  28.558   9.992   7.882
 1537POPC   C4B21574  28.730  10.180   7.488
 1538POPC   NC321575   2.100  16.476   9.544
 1538POPC   PO421576   1.793  17.092   9.485
 1538POPC   GL121577   1.898  16.976   9.082
 1538POPC   GL221578   2.146  16.710   9.103
 1538POPC   C1A21579   2.051  16.929   8.658
 1538POPC   D2A21580   2.162  16.928   8.236
 1538POPC   C3A21581   1.931  16.868   7.848
 1538POPC   C4A21582   2.097  16.890   7.444
 1538POPC   C1B21583   2.276  16.444   8.739
 1538POPC   C2B21584   2.213  16.263   8.353
 1538POPC   C3B21585   2.239  16.470   7.974
 1538POPC   C4B21586   2.148  16.272   7.597
 1539POPC   NC321587   9.863   9.299   9.461
 1539POPC   PO421588   9.752   9.987   9.634
 1539POPC   GL121589   9.788   9.749   9.256
 1539POPC   GL221590   9.519   9.755   9.124
 1539POPC   C1A21591   9.905   9.700   8.804
 1539POPC   D2A21592  10.136   9.980   8.527
 1539POPC   C3A21593   9.989  10.013   8.093
 1539POPC   C4A21594  10.065   9.843   7.663
 1539POPC   C1B21595   9.510  10.037   8.783
 1539POPC   C2B21596   9.409   9.965   8.362
 1539POPC   C3B21597   9.574   9.724   8.068
 1539POPC   C4B21598   9.566   9.906   7.671
 1540POPC   NC321599  14.147   3.960   9.695
 1540POPC   PO421600  14.649   3.499   9.728
 1540POPC   GL121601  14.525   3.603   9.244
 1540POPC   GL221602  14.404   3.316   9.003
 1540POPC   C1A21603  14.598   3.703   8.768
 1540POPC   D2A21604  14.344   3.577   8.405
 1540POPC   C3A21605  14.401   3.822   8.023
 1540POPC   C4A21606  14.194   3.680   7.661
 1540POPC   C1B21607  14.099   3.143   8.735
 1540POPC   C2B21608  13.927   3.121   8.338
 1540POPC   C3B21609  14.038   3.315   7.976
 1540POPC   C4B21610  14.014   3.211   7.531
 1541POPC   NC321611  25.395  25.099   9.724
 1541POPC   PO421612  24.942  24.910   9.242
 1541POPC   GL121613  25.052  25.367   9.168
 1541POPC   GL221614  25.357  25.525   9.077
 1541POPC   C1A21615  24.922  25.553   8.798
 1541POPC   D2A21616  24.791  25.405   8.382
 1541POPC   C3A21617  25.103  25.490   8.061
 1541POPC   C4A21618  25.151  25.269   7.689
 1541POPC   C1B21619  25.382  25.368   8.659
 1541POPC   C2B21620  25.431  25.158   8.273
 1541POPC   C3B21621  25.617  25.296   7.888
 1541POPC   C4B21622  25.546  25.412   7.426
 1542POPC   NC321623  12.595  22.752   9.504
 1542POPC   PO421624  12.637  23.348   9.198
 1542POPC   GL121625  12.580  22.923   9.029
 1542POPC   GL221626  12.812  22.615   9.066
 1542POPC   C1A21627  12.634  22.839   8.622
 1542POPC   D2A21628  12.900  23.085   8.408
 1542POPC   C3A21629  12.777  23.126   8.001
 1542POPC   C4A21630  12.697  22.906   7.656
 1542POPC   C1B21631  13.094  22.744   8.772
 1542POPC   C2B21632  13.212  22.658   8.400
 1542POPC   C3B21633  13.070  22.686   8.000
 1542POPC   C4B21634  13.203  23.002   7.709
 1543POPC   NC321635   1.967  23.146   9.447
 1543POPC   PO421636   1.861  22.403   9.507
 1543POPC   GL121637   1.920  22.717   9.159
 1543POPC   GL221638   1.738  22.977   9.029
 1543POPC   C1A21639   2.206  22.856   8.830
 1543POPC   D2A21640   2.172  22.667   8.461
 1543POPC   C3A21641   2.246  22.814   8.091
 1543POPC   C4A21642   2.291  22.751   7.688
 1543POPC   C1B21643   1.713  22.849   8.627
 1543POPC   C2B21644   1.785  22.984   8.225
 1543POPC   C3B21645   1.786  22.903   7.789
 1543POPC   C4B21646   1.980  23.029   7.412
 1544POPC   NC321647  21.928  30.732   9.443
 1544POPC   PO421648  21.243  30.808   9.479
 1544POPC   GL121649  21.530  30.809   9.136
 1544POPC   GL221650  21.793  31.074   9.096
 1544POPC   C1A21651  21.548  30.629   8.722
 1544POPC   D2A21652  21.264  30.438   8.418
 1544POPC   C3A21653  21.248  30.654   8.025
 1544POPC   C4A21654  21.419  30.638   7.587
 1544POPC   C1B21655  21.941  31.140   8.678
 1544POPC   C2B21656  21.777  30.899   8.338
 1544POPC   C3B21657  21.748  30.717   7.965
 1544POPC   C4B21658  21.792  30.996   7.622
 1545POPC   NC321659  23.118  36.296   9.356
 1545POPC   PO421660  23.453  35.723   9.452
 1545POPC   GL121661  23.129  35.806   9.137
 1545POPC   GL221662  22.812  35.799   9.246
 1545POPC   C1A21663  23.175  36.072   8.750
 1545POPC   D2A21664  22.937  36.313   8.406
 1545POPC   C3A21665  23.093  36.400   7.977
 1545POPC   C4A21666  23.089  36.187   7.579
 1545POPC   C1B21667  22.713  35.830   8.795
 1545POPC   C2B21668  22.976  35.746   8.424
 1545POPC   C3B21669  22.949  35.910   8.017
 1545POPC   C4B21670  22.643  36.163   7.818
 1546POPC   NC321671  19.206  15.041   9.392
 1546POPC   PO421672  18.901  15.720   9.355
 1546POPC   GL121673  19.050  15.397   9.062
 1546POPC   GL221674  18.827  15.165   9.086
 1546POPC   C1A21675  19.292  15.381   8.672
 1546POPC   D2A21676  19.226  15.691   8.350
 1546POPC   C3A21677  19.119  15.590   7.958
 1546POPC   C4A21678  19.251  15.541   7.538
 1546POPC   C1B21679  18.812  15.217   8.637
 1546POPC   C2B21680  19.041  15.145   8.250
 1546POPC   C3B21681  19.207  15.114   7.811
 1546POPC   C4B21682  18.849  15.196   7.462
 1547POPC   NC321683  24.004   9.601   9.515
 1547POPC   PO421684  24.423  10.085   9.306
 1547POPC   GL121685  24.329   9.724   9.106
 1547POPC   GL221686  24.669   9.597   9.223
 1547POPC   C1A21687  24.138   9.577   8.690
 1547POPC   D2A21688  24.007   9.537   8.244
 1547POPC   C3A21689  24.283   9.509   7.857
 1547POPC   C4A21690  24.454   9.824   7.509
 1547POPC   C1B21691  24.690   9.805   8.773
 1547POPC   C2B21692  24.509   9.747   8.376
 1547POPC   C3B21693  24.626   9.870   7.980
 1547POPC   C4B21694  24.775   9.502   7.715
 1548POPC   NC321695  44.085  34.077   9.444
 1548POPC   PO421696  44.808  34.047   9.497
 1548POPC   GL121697  44.626  33.906   9.093
 1548POPC   GL221698  44.380  34.124   9.051
 1548POPC   C1A21699  44.534  33.860   8.630
 1548POPC   D2A21700  44.863  33.728   8.321
 1548POPC   C3A21701  44.883  33.660   7.888
 1548POPC   C4A21702  44.879  33.703   7.416
 1548POPC   C1B21703  44.412  34.389   8.729
 1548POPC   C2B21704  44.264  34.240   8.351
 1548POPC   C3B21705  44.471  33.999   8.070
 1548POPC   C4B21706  44.421  33.757   7.734
 1549POPC   NC321707  16.390  18.718   9.516
 1549POPC   PO421708  16.955  19.074   9.584
 1549POPC   GL121709  16.967  19.108   9.170
 1549POPC   GL221710  16.632  18.992   9.148
 1549POPC   C1A21711  16.908  19.209   8.752
 1549POPC   D2A21712  16.691  19.220   8.369
 1549POPC   C3A21713  16.882  19.296   7.990
 1549POPC   C4A21714  16.833  19.210   7.562
 1549POPC   C1B21715  16.483  18.885   8.758
 1549POPC   C2B21716  16.357  18.836   8.340
 1549POPC   C3B21717  16.503  18.952   7.907
 1549POPC   C4B21718  16.351  18.794   7.513
 1550POPC   NC321719  24.257  28.981   9.415
 1550POPC   PO421720  24.922  29.195   9.530
 1550POPC   GL121721  24.695  29.305   9.203
 1550POPC   GL221722  24.561  29.039   9.026
 1550POPC   C1A21723  24.731  29.456   8.786
 1550POPC   D2A21724  24.551  29.269   8.406
 1550POPC   C3A21725  24.678  29.383   7.996
 1550POPC   C4A21726  24.309  29.357   7.716
 1550POPC   C1B21727  24.231  29.001   8.722
 1550POPC   C2B21728  24.341  28.782   8.343
 1550POPC   C3B21729  24.465  28.904   7.947
 1550POPC   C4B21730  24.431  28.892   7.511
 1551POPC   NC321731  27.809   2.631   9.601
 1551POPC   PO421732  27.470   3.201   9.486
 1551POPC   GL121733  27.547   2.853   9.221
 1551POPC   GL221734  27.272   2.681   9.192
 1551POPC   C1A21735  27.735   2.713   8.843
 1551POPC   D2A21736  27.793   2.901   8.414
 1551POPC   C3A21737  27.668   2.719   8.010
 1551POPC   C4A21738  27.773   2.904   7.619
 1551POPC   C1B21739  27.306   2.414   8.864
 1551POPC   C2B21740  27.496   2.452   8.471
 1551POPC   C3B21741  27.405   2.281   8.109
 1551POPC   C4B21742  27.243   2.359   7.733
 1552POPC   NC321743   7.613  19.641   9.605
 1552POPC   PO421744   7.254  20.166   9.643
 1552POPC   GL121745   7.433  20.100   9.210
 1552POPC   GL221746   7.466  19.750   9.133
 1552POPC   C1A21747   7.424  20.077   8.744
 1552POPC   D2A21748   7.465  19.850   8.373
 1552POPC   C3A21749   7.219  19.874   8.023
 1552POPC   C4A21750   7.494  19.850   7.687
 1552POPC   C1B21751   7.683  19.610   8.768
 1552POPC   C2B21752   7.618  19.336   8.382
 1552POPC   C3B21753   7.549  19.397   7.908
 1552POPC   C4B21754   7.510  19.428   7.407
 1553POPC   NC321755  36.968  41.366   9.440
 1553POPC   PO421756  36.910  42.004   9.450
 1553POPC   GL121757  36.924  41.731   9.089
 1553POPC   GL221758  36.624  41.457   9.076
 1553POPC   C1A21759  36.942  41.562   8.679
 1553POPC   D2A21760  36.695  41.463   8.351
 1553POPC   C3A21761  36.924  41.565   7.976
 1553POPC   C4A21762  36.945  41.542   7.529
 1553POPC   C1B21763  36.704  41.110   8.775
 1553POPC   C2B21764  36.828  40.935   8.384
 1553POPC   C3B21765  36.687  41.104   7.988
 1553POPC   C4B21766  36.462  41.248   7.611
 1554POPC   NC321767  13.868   8.344   9.318
 1554POPC   PO421768  14.501   8.229   9.524
 1554POPC   GL121769  14.312   8.127   9.183
 1554POPC   GL221770  14.034   7.882   9.162
 1554POPC   C1A21771  14.378   8.229   8.795
 1554POPC   D2A21772  14.362   8.440   8.411
 1554POPC   C3A21773  14.392   8.198   8.111
 1554POPC   C4A21774  14.609   8.276   7.759
 1554POPC   C1B21775  14.311   7.727   8.852
 1554POPC   C2B21776  14.157   7.887   8.480
 1554POPC   C3B21777  13.987   7.855   8.105
 1554POPC   C4B21778  14.209   7.912   7.744
 1555POPC   NC321779  44.631  26.316   9.494
 1555POPC   PO421780  44.337  25.676   9.483
 1555POPC   GL121781  44.602  25.942   9.145
 1555POPC   GL221782  44.869  26.212   9.057
 1555POPC   C1A21783  44.721  25.858   8.696
 1555POPC   D2A21784  44.571  25.721   8.272
 1555POPC   C3A21785  44.558  26.065   7.969
 1555POPC   C4A21786  44.269  26.399   7.832
 1555POPC   C1B21787  44.505  26.351   8.832
 1555POPC   C2B21788  44.578  26.349   8.420
 1555POPC   C3B21789  44.977  26.266   8.222
 1555POPC   C4B21790  44.981  26.292   7.779
 1556POPC   NC321791  17.325  42.684   9.428
 1556POPC   PO421792  17.569  43.362   9.451
 1556POPC   GL121793  17.400  43.139   9.125
 1556POPC   GL221794  17.641  42.939   9.091
 1556POPC   C1A21795  17.296  42.993   8.707
 1556POPC   D2A21796  17.417  43.023   8.250
 1556POPC   C3A21797  17.239  43.318   7.975
 1556POPC   C4A21798  17.214  43.425   7.540
 1556POPC   C1B21799  17.808  42.831   8.695
 1556POPC   C2B21800  17.899  43.130   8.379
 1556POPC   C3B21801  17.818  43.127   7.955
 1556POPC   C4B21802  17.485  42.947   7.716
 1557POPC   NC321803  15.667   7.606   9.779
 1557POPC   PO421804  15.063   7.413   9.460
 1557POPC   GL121805  15.162   7.445   9.045
 1557POPC   GL221806  15.197   7.784   9.040
 1557POPC   C1A21807  15.289   7.512   8.610
 1557POPC   D2A21808  15.141   7.747   8.246
 1557POPC   C3A21809  15.274   7.574   7.882
 1557POPC   C4A21810  15.231   7.212   7.646
 1557POPC   C1B21811  14.854   7.784   8.741
 1557POPC   C2B21812  14.631   7.755   8.371
 1557POPC   C3B21813  14.718   7.793   7.943
 1557POPC   C4B21814  15.014   7.935   7.649
 1558POPC   NC321815  19.666  40.534   9.354
 1558POPC   PO421816  19.799  41.176   9.542
 1558POPC   GL121817  19.897  40.919   9.114
 1558POPC   GL221818  19.671  41.025   8.899
 1558POPC   C1A21819  20.045  40.724   8.693
 1558POPC   D2A21820  20.064  40.815   8.221
 1558POPC   C3A21821  19.906  40.546   7.899
 1558POPC   C4A21822  19.576  40.337   7.673
 1558POPC   C1B21823  19.507  40.899   8.528
 1558POPC   C2B21824  19.218  40.607   8.345
 1558POPC   C3B21825  19.410  40.676   7.991
 1558POPC   C4B21826  19.703  41.015   7.839
 1559POPC   NC321827  11.067  43.276   9.663
 1559POPC   PO421828  11.614  43.590   9.497
 1559POPC   GL121829  11.442  43.353   9.065
 1559POPC   GL221830  11.098  43.179   8.925
 1559POPC   C1A21831  11.448  43.273   8.575
 1559POPC   D2A21832  11.152  43.036   8.259
 1559POPC   C3A21833  11.392  42.814   7.915
 1559POPC   C4A21834  11.809  42.996   7.848
 1559POPC   C1B21835  10.993  43.507   8.640
 1559POPC   C2B21836  11.123  43.591   8.254
 1559POPC   C3B21837  10.896  43.462   7.928
 1559POPC   C4B21838  11.046  43.398   7.552
 1560POPC   NC321839  22.014  29.918   9.283
 1560POPC   PO421840  22.451  30.355   9.671
 1560POPC   GL121841  22.559  30.186   9.160
 1560POPC   GL221842  22.475  29.826   9.074
 1560POPC   C1A21843  22.382  30.150   8.688
 1560POPC   D2A21844  22.301  29.822   8.368
 1560POPC   C3A21845  22.055  29.945   8.031
 1560POPC   C4A21846  22.156  30.066   7.623
 1560POPC   C1B21847  22.232  29.510   8.790
 1560POPC   C2B21848  22.156  29.323   8.360
 1560POPC   C3B21849  22.241  29.482   7.945
 1560POPC   C4B21850  21.993  29.397   7.637
 1561POPC   NC321851   0.070  12.337   9.442
 1561POPC   PO421852  44.562  11.723   9.438
 1561POPC   GL121853  44.519  11.964   9.069
 1561POPC   GL221854  44.841  12.075   9.073
 1561POPC   C1A21855  44.520  12.014   8.597
 1561POPC   D2A21856  44.515  11.840   8.154
 1561POPC   C3A21857  44.464  12.093   7.763
 1561POPC   C4A21858  44.446  11.933   7.315
 1561POPC   C1B21859   0.020  12.331   8.773
 1561POPC   C2B21860   0.094  12.450   8.344
 1561POPC   C3B21861  44.940  12.244   7.968
 1561POPC   C4B21862  44.909  12.165   7.511
 1562POPC   NC321863  30.966  44.186   9.437
 1562POPC   PO421864  30.668  43.579   9.420
 1562POPC   GL121865  30.559  43.934   9.180
 1562POPC   GL221866  30.364  44.213   9.302
 1562POPC   C1A21867  30.732  43.980   8.791
 1562POPC   D2A21868  30.659  43.665   8.468
 1562POPC   C3A21869  30.636  43.751   8.044
 1562POPC   C4A21870  30.530  43.502   7.696
 1562POPC   C1B21871  30.334  44.299   8.840
 1562POPC   C2B21872  30.459  44.149   8.400
 1562POPC   C3B21873  30.595  44.252   7.965
 1562POPC   C4B21874  30.520  44.384   7.524
 1563POPC   NC321875   2.843  39.752   9.573
 1563POPC   PO421876   3.159  40.292   9.544
 1563POPC   GL121877   2.946  40.113   9.170
 1563POPC   GL221878   2.670  39.841   9.114
 1563POPC   C1A21879   2.972  40.007   8.739
 1563POPC   D2A21880   2.688  40.145   8.468
 1563POPC   C3A21881   2.771  40.149   8.070
 1563POPC   C4A21882   2.563  40.310   7.710
 1563POPC   C1B21883   2.483  39.765   8.730
 1563POPC   C2B21884   2.603  39.665   8.304
 1563POPC   C3B21885   2.424  39.805   7.902
 1563POPC   C4B21886   2.206  39.532   7.635
 1564POPC   NC321887  11.589  37.250   9.410
 1564POPC   PO421888  11.400  37.986   9.550
 1564POPC   GL121889  11.403  37.693   9.210
 1564POPC   GL221890  11.744  37.636   9.112
 1564POPC   C1A21891  11.303  37.499   8.797
 1564POPC   D2A21892  11.000  37.540   8.453
 1564POPC   C3A21893  10.953  37.827   8.063
 1564POPC   C4A21894  11.145  37.784   7.646
 1564POPC   C1B21895  11.800  37.569   8.734
 1564POPC   C2B21896  11.612  37.478   8.372
 1564POPC   C3B21897  11.408  37.507   8.005
 1564POPC   C4B21898  11.635  37.575   7.607
 1565POPC   NC321899  18.418  20.478   9.504
 1565POPC   PO421900  18.180  19.864   9.524
 1565POPC   GL121901  18.349  19.830   9.158
 1565POPC   GL221902  18.723  19.887   9.147
 1565POPC   C1A21903  18.108  19.883   8.775
 1565POPC   D2A21904  18.263  19.786   8.413
 1565POPC   C3A21905  18.045  19.876   8.062
 1565POPC   C4A21906  18.173  19.761   7.679
 1565POPC   C1B21907  18.601  20.006   8.744
 1565POPC   C2B21908  18.750  20.093   8.352
 1565POPC   C3B21909  18.578  19.914   8.018
 1565POPC   C4B21910  18.660  19.900   7.626
 1566POPC   NC321911  42.936  20.194   9.290
 1566POPC   PO421912  43.325  19.688   9.460
 1566POPC   GL121913  43.265  19.532   9.068
 1566POPC   GL221914  43.212  19.895   8.988
 1566POPC   C1A21915  43.214  19.564   8.603
 1566POPC   D2A21916  42.855  19.666   8.359
 1566POPC   C3A21917  42.803  19.499   7.972
 1566POPC   C4A21918  43.023  19.692   7.675
 1566POPC   C1B21919  43.385  20.082   8.632
 1566POPC   C2B21920  43.317  19.979   8.195
 1566POPC   C3B21921  43.166  20.156   7.804
 1566POPC   C4B21922  43.358  20.278   7.424
 1567POPC   NC321923  30.159  27.430   9.307
 1567POPC   PO421924  30.688  27.801   9.572
 1567POPC   GL121925  30.762  27.632   9.174
 1567POPC   GL221926  30.733  27.305   9.293
 1567POPC   C1A21927  30.583  27.556   8.755
 1567POPC   D2A21928  30.351  27.833   8.444
 1567POPC   C3A21929  30.569  27.779   8.085
 1567POPC   C4A21930  30.569  27.769   7.678
 1567POPC   C1B21931  30.926  27.190   8.902
 1567POPC   C2B21932  30.941  27.295   8.457
 1567POPC   C3B21933  30.853  27.126   8.061
 1567POPC   C4B21934  30.748  27.281   7.670
 1568POPC   NC321935  36.432  11.454   9.572
 1568POPC   PO421936  35.861  11.096   9.495
 1568POPC   GL121937  36.049  11.347   9.181
 1568POPC   GL221938  36.348  11.454   9.077
 1568POPC   C1A21939  35.907  11.535   8.812
 1568POPC   D2A21940  35.994  11.368   8.414
 1568POPC   C3A21941  35.865  11.605   8.052
 1568POPC   C4A21942  35.874  11.481   7.648
 1568POPC   C1B21943  36.449  11.091   8.827
 1568POPC   C2B21944  36.537  11.123   8.387
 1568POPC   C3B21945  36.475  10.936   7.977
 1568POPC   C4B21946  36.292  11.119   7.611
 1569POPC   NC321947  25.087  22.516   9.777
 1569POPC   PO421948  25.529  22.017   9.761
 1569POPC   GL121949  25.598  22.142   9.296
 1569POPC   GL221950  25.610  21.853   9.113
 1569POPC   C1A21951  25.546  22.303   8.824
 1569POPC   D2A21952  25.563  22.317   8.354
 1569POPC   C3A21953  25.193  22.481   8.092
 1569POPC   C4A21954  25.280  22.281   7.666
 1569POPC   C1B21955  25.230  21.924   8.916
 1569POPC   C2B21956  25.103  22.088   8.521
 1569POPC   C3B21957  25.161  21.983   8.092
 1569POPC   C4B21958  24.861  21.958   7.788
 1570POPC   NC321959  28.342   0.140   9.848
 1570POPC   PO421960  28.133  44.648   9.357
 1570POPC   GL121961  28.183  44.758   9.000
 1570POPC   GL221962  27.905   0.017   9.006
 1570POPC   C1A21963  28.419  44.563   8.745
 1570POPC   D2A21964  28.470  44.694   8.407
 1570POPC   C3A21965  28.594  44.453   8.095
 1570POPC   C4A21966  28.474  44.547   7.718
 1570POPC   C1B21967  28.084   0.058   8.601
 1570POPC   C2B21968  28.049  44.904   8.197
 1570POPC   C3B21969  28.052   0.020   7.775
 1570POPC   C4B21970  28.124  44.784   7.417
 1571POPC   NC321971  37.791  13.487   9.685
 1571POPC   PO421972  37.411  14.014   9.513
 1571POPC   GL121973  37.789  13.897   9.219
 1571POPC   GL221974  37.855  13.520   9.177
 1571POPC   C1A21975  37.750  13.883   8.763
 1571POPC   D2A21976  37.362  13.816   8.483
 1571POPC   C3A21977  37.376  13.884   8.030
 1571POPC   C4A21978  37.765  13.734   7.866
 1571POPC   C1B21979  37.745  13.351   8.783
 1571POPC   C2B21980  37.778  13.518   8.387
 1571POPC   C3B21981  37.511  13.386   8.099
 1571POPC   C4B21982  37.740  13.178   7.827
 1572POPC   NC321983  18.078  32.888   9.500
 1572POPC   PO421984  18.324  33.545   9.492
 1572POPC   GL121985  18.364  33.221   9.173
 1572POPC   GL221986  18.006  33.202   9.080
 1572POPC   C1A21987  18.339  33.090   8.717
 1572POPC   D2A21988  18.030  33.063   8.378
 1572POPC   C3A21989  18.278  33.155   8.009
 1572POPC   C4A21990  18.538  33.140   7.637
 1572POPC   C1B21991  17.979  32.766   8.845
 1572POPC   C2B21992  18.014  32.519   8.446
 1572POPC   C3B21993  17.989  32.700   8.017
 1572POPC   C4B21994  18.260  32.733   7.715
 1573POPC   NC321995  37.843  11.867   9.467
 1573POPC   PO421996  37.289  12.246   9.468
 1573POPC   GL121997  37.561  12.133   9.137
 1573POPC   GL221998  37.496  11.800   9.068
 1573POPC   C1A21999  37.785  12.107   8.752
 1573POPC   D2A22000  37.858  11.882   8.384
 1573POPC   C3A22001  37.730  12.053   8.007
 1573POPC   C4A22002  37.759  11.869   7.638
 1573POPC   C1B22003  37.344  11.859   8.650
 1573POPC   C2B22004  37.421  11.675   8.241
 1573POPC   C3B22005  37.288  11.786   7.815
 1573POPC   C4B22006  37.349  11.756   7.352
 1574POPC   NC322007   7.507  13.098   9.837
 1574POPC   PO422008   7.486  13.783   9.585
 1574POPC   GL122009   7.407  13.702   9.151
 1574POPC   GL222010   7.652  13.459   9.148
 1574POPC   C1A22011   7.357  13.443   8.748
 1574POPC   D2A22012   7.460  13.663   8.385
 1574POPC   C3A22013   7.431  13.469   7.999
 1574POPC   C4A22014   7.265  13.688   7.656
 1574POPC   C1B22015   7.767  13.817   8.826
 1574POPC   C2B22016   7.898  13.933   8.408
 1574POPC   C3B22017   7.743  13.892   7.992
 1574POPC   C4B22018   7.801  13.667   7.622
 1575POPC   NC322019   6.853  39.628   9.827
 1575POPC   PO422020   6.695  39.073   9.562
 1575POPC   GL122021   6.579  39.056   9.117
 1575POPC   GL222022   6.593  39.410   9.052
 1575POPC   C1A22023   6.555  39.088   8.657
 1575POPC   D2A22024   6.314  39.070   8.275
 1575POPC   C3A22025   6.585  39.153   7.890
 1575POPC   C4A22026   6.847  39.190   7.520
 1575POPC   C1B22027   6.884  39.481   8.700
 1575POPC   C2B22028   6.837  39.351   8.283
 1575POPC   C3B22029   6.874  39.574   7.872
 1575POPC   C4B22030   7.198  39.560   7.492
 1576POPC   NC322031  28.012  33.752   9.660
 1576POPC   PO422032  28.726  33.853   9.494
 1576POPC   GL122033  28.468  33.832   9.147
 1576POPC   GL222034  28.404  34.210   9.101
 1576POPC   C1A22035  28.501  33.560   8.779
 1576POPC   D2A22036  28.521  33.292   8.404
 1576POPC   C3A22037  28.450  33.545   8.039
 1576POPC   C4A22038  28.081  33.684   7.835
 1576POPC   C1B22039  28.571  34.095   8.672
 1576POPC   C2B22040  28.345  34.027   8.278
 1576POPC   C3B22041  28.092  34.217   7.927
 1576POPC   C4B22042  28.125  34.098   7.500
 1577POPC   NC322043  31.339  12.737   9.562
 1577POPC   PO422044  31.896  12.605   9.273
 1577POPC   GL122045  31.766  12.928   9.033
 1577POPC   GL222046  31.388  12.978   9.085
 1577POPC   C1A22047  31.712  13.110   8.668
 1577POPC   D2A22048  31.330  13.050   8.424
 1577POPC   C3A22049  31.388  12.892   8.014
 1577POPC   C4A22050  31.623  12.703   7.702
 1577POPC   C1B22051  31.442  12.670   8.755
 1577POPC   C2B22052  31.295  12.441   8.408
 1577POPC   C3B22053  31.349  12.374   8.013
 1577POPC   C4B22054  31.201  12.426   7.641
 1578POPC   NC322055  11.909  34.131   9.654
 1578POPC   PO422056  12.358  33.563   9.496
 1578POPC   GL122057  12.017  33.742   9.236
 1578POPC   GL222058  11.877  33.492   9.166
 1578POPC   C1A22059  11.954  33.877   8.806
 1578POPC   D2A22060  12.251  33.852   8.488
 1578POPC   C3A22061  12.227  33.952   8.044
 1578POPC   C4A22062  11.928  33.823   7.779
 1578POPC   C1B22063  11.730  33.409   8.809
 1578POPC   C2B22064  11.585  33.631   8.446
 1578POPC   C3B22065  11.507  33.786   8.048
 1578POPC   C4B22066  11.531  33.576   7.610
 1579POPC   NC322067  18.637  44.876   9.512
 1579POPC   PO422068  18.122  44.401   9.456
 1579POPC   GL122069  18.245  44.544   9.098
 1579POPC   GL222070  18.145  44.886   9.151
 1579POPC   C1A22071  18.294  44.690   8.658
 1579POPC   D2A22072  18.471  44.845   8.259
 1579POPC   C3A22073  18.361  44.701   7.832
 1579POPC   C4A22074  18.456  44.923   7.462
 1579POPC   C1B22075  17.963   0.084   8.746
 1579POPC   C2B22076  18.046   0.165   8.287
 1579POPC   C3B22077  17.893   0.108   7.811
 1579POPC   C4B22078  17.970  44.921   7.352
 1580POPC   NC322079  36.128  39.271   9.533
 1580POPC   PO422080  35.920  38.772   9.214
 1580POPC   GL122081  36.035  39.148   9.046
 1580POPC   GL222082  35.793  39.403   9.158
 1580POPC   C1A22083  36.273  39.259   8.690
 1580POPC   D2A22084  36.448  39.407   8.314
 1580POPC   C3A22085  36.416  39.085   7.990
 1580POPC   C4A22086  36.344  39.039   7.565
 1580POPC   C1B22087  35.701  39.338   8.732
 1580POPC   C2B22088  35.846  39.480   8.392
 1580POPC   C3B22089  35.997  39.328   8.073
 1580POPC   C4B22090  36.129  39.467   7.709
 1581POPC   NC322091   3.339   7.473   9.519
 1581POPC   PO422092   3.833   7.901   9.371
 1581POPC   GL122093   3.548   7.691   9.121
 1581POPC   GL222094   3.181   7.640   9.079
 1581POPC   C1A22095   3.593   7.489   8.782
 1581POPC   D2A22096   3.765   7.425   8.422
 1581POPC   C3A22097   3.581   7.137   8.122
 1581POPC   C4A22098   3.578   7.484   7.820
 1581POPC   C1B22099   3.113   7.349   8.735
 1581POPC   C2B22100   3.260   7.475   8.311
 1581POPC   C3B22101   3.052   7.537   7.894
 1581POPC   C4B22102   2.880   7.847   7.596
 1582POPC   NC322103  13.547  33.706   9.611
 1582POPC   PO422104  13.858  34.284   9.554
 1582POPC   GL122105  13.793  33.885   9.207
 1582POPC   GL222106  13.410  33.865   9.149
 1582POPC   C1A22107  13.685  33.665   8.800
 1582POPC   D2A22108  13.481  33.931   8.498
 1582POPC   C3A22109  13.669  33.970   8.112
 1582POPC   C4A22110  13.635  33.865   7.701
 1582POPC   C1B22111  13.166  33.672   8.830
 1582POPC   C2B22112  13.049  33.695   8.405
 1582POPC   C3B22113  13.303  33.591   8.055
 1582POPC   C4B22114  13.206  33.575   7.644
 1583POPC   NC322115  44.259   7.331   9.578
 1583POPC   PO422116  44.868   7.483   9.530
 1583POPC   GL122117  44.569   7.371   9.174
 1583POPC   GL222118  44.286   7.093   9.083
 1583POPC   C1A22119  44.675   7.356   8.765
 1583POPC   D2A22120  44.970   7.554   8.501
 1583POPC   C3A22121  44.786   7.765   8.161
 1583POPC   C4A22122   0.016   7.758   7.766
 1583POPC   C1B22123  44.311   7.042   8.599
 1583POPC   C2B22124  44.589   7.257   8.264
 1583POPC   C3B22125  44.511   7.471   7.859
 1583POPC   C4B22126  44.285   7.235   7.505
 1584POPC   NC322127  27.775   9.133   9.357
 1584POPC   PO422128  27.166   9.053   9.144
 1584POPC   GL122129  27.591   8.995   8.914
 1584POPC   GL222130  27.810   9.305   8.856
 1584POPC   C1A22131  27.827   8.923   8.520
 1584POPC   D2A22132  27.623   8.694   8.180
 1584POPC   C3A22133  27.652   8.845   7.789
 1584POPC   C4A22134  27.425   9.026   7.477
 1584POPC   C1B22135  27.460   9.259   8.498
 1584POPC   C2B22136  27.492   9.258   8.038
 1584POPC   C3B22137  27.404   9.504   7.642
 1584POPC   C4B22138  27.407   9.448   7.176
 1585POPC   NC322139   6.956  32.417   9.463
 1585POPC   PO422140   6.314  32.400   9.271
 1585POPC   GL122141   6.655  32.511   9.052
 1585POPC   GL222142   6.752  32.160   9.058
 1585POPC   C1A22143   6.818  32.415   8.650
 1585POPC   D2A22144   6.646  32.329   8.306
 1585POPC   C3A22145   6.794  32.417   7.962
 1585POPC   C4A22146   6.420  32.372   7.738
 1585POPC   C1B22147   6.761  31.878   8.732
 1585POPC   C2B22148   6.970  31.928   8.393
 1585POPC   C3B22149   6.828  31.921   8.038
 1585POPC   C4B22150   6.791  32.009   7.660
 1586POPC   NC322151  42.996   1.758   9.573
 1586POPC   PO422152  43.245   2.392   9.554
 1586POPC   GL122153  43.189   2.102   9.222
 1586POPC   GL222154  42.894   2.183   9.119
 1586POPC   C1A22155  43.249   1.936   8.782
 1586POPC   D2A22156  43.361   1.729   8.348
 1586POPC   C3A22157  43.365   1.938   7.945
 1586POPC   C4A22158  43.274   1.864   7.489
 1586POPC   C1B22159  42.738   2.071   8.749
 1586POPC   C2B22160  42.879   1.932   8.378
 1586POPC   C3B22161  42.917   2.156   8.023
 1586POPC   C4B22162  42.810   2.044   7.605
 1587POPC   NC322163  27.854  25.219   9.553
 1587POPC   PO422164  28.508  25.454   9.400
 1587POPC   GL122165  28.186  25.427   9.091
 1587POPC   GL222166  27.956  25.148   9.071
 1587POPC   C1A22167  28.277  25.219   8.684
 1587POPC   D2A22168  28.290  24.939   8.331
 1587POPC   C3A22169  28.483  25.144   7.958
 1587POPC   C4A22170  28.779  25.017   7.650
 1587POPC   C1B22171  27.826  25.440   8.734
 1587POPC   C2B22172  27.898  25.304   8.335
 1587POPC   C3B22173  27.965  25.088   7.955
 1587POPC   C4B22174  28.119  25.236   7.525
 1588POPC   NC322175  15.117  14.101   9.266
 1588POPC   PO422176  15.212  14.725   9.492
 1588POPC   GL122177  15.061  14.612   9.081
 1588POPC   GL222178  15.390  14.443   8.965
 1588POPC   C1A22179  15.135  14.742   8.643
 1588POPC   D2A22180  15.364  14.560   8.306
 1588POPC   C3A22181  15.011  14.531   8.059
 1588POPC   C4A22182  14.756  14.790   7.805
 1588POPC   C1B22183  15.144  14.212   8.626
 1588POPC   C2B22184  14.905  14.087   8.249
 1588POPC   C3B22185  15.107  14.094   7.828
 1588POPC   C4B22186  15.530  14.247   7.846
 1589POPC   NC322187  42.541  31.671   9.553
 1589POPC   PO422188  42.201  31.109   9.418
 1589POPC   GL122189  42.223  31.458   9.140
 1589POPC   GL222190  42.570  31.539   9.079
 1589POPC   C1A22191  42.288  31.346   8.705
 1589POPC   D2A22192  42.408  31.183   8.342
 1589POPC   C3A22193  42.100  31.217   8.049
 1589POPC   C4A22194  42.190  31.385   7.699
 1589POPC   C1B22195  42.488  31.828   8.782
 1589POPC   C2B22196  42.668  31.716   8.406
 1589POPC   C3B22197  42.532  31.583   8.028
 1589POPC   C4B22198  42.681  31.596   7.627
 1590POPC   NC322199  29.641   9.175   9.446
 1590POPC   PO422200  29.879   8.536   9.546
 1590POPC   GL122201  29.899   8.693   9.159
 1590POPC   GL222202  30.239   8.580   9.104
 1590POPC   C1A22203  30.097   9.035   8.906
 1590POPC   D2A22204  30.253   9.267   8.554
 1590POPC   C3A22205  29.967   9.177   8.209
 1590POPC   C4A22206  30.039   9.065   7.785
 1590POPC   C1B22207  30.087   8.550   8.717
 1590POPC   C2B22208  30.215   8.763   8.386
 1590POPC   C3B22209  30.182   8.631   7.990
 1590POPC   C4B22210  29.969   8.527   7.620
 1591POPC   NC322211  31.329   3.439   9.534
 1591POPC   PO422212  31.956   3.773   9.438
 1591POPC   GL122213  31.646   3.601   9.117
 1591POPC   GL222214  31.269   3.629   9.068
 1591POPC   C1A22215  31.565   3.536   8.670
 1591POPC   D2A22216  31.403   3.638   8.279
 1591POPC   C3A22217  31.721   3.399   8.070
 1591POPC   C4A22218  31.740   3.431   7.654
 1591POPC   C1B22219  31.164   3.249   8.803
 1591POPC   C2B22220  31.279   3.142   8.372
 1591POPC   C3B22221  31.264   3.267   7.934
 1591POPC   C4B22222  31.278   3.641   7.723
 1592POPC   NC322223  10.516  40.584   9.461
 1592POPC   PO422224  10.884  41.074   9.502
 1592POPC   GL122225  10.924  40.861   9.117
 1592POPC   GL222226  10.592  40.769   8.980
 1592POPC   C1A22227  10.973  40.723   8.665
 1592POPC   D2A22228  10.639  40.913   8.386
 1592POPC   C3A22229  10.503  40.766   7.988
 1592POPC   C4A22230  10.672  40.646   7.626
 1592POPC   C1B22231  10.513  40.466   8.602
 1592POPC   C2B22232  10.309  40.315   8.189
 1592POPC   C3B22233  10.149  40.404   7.752
 1592POPC   C4B22234   9.837  40.492   7.412
 1593POPC   NC322235  35.127  12.346   9.533
 1593POPC   PO422236  35.765  12.089   9.415
 1593POPC   GL122237  35.346  11.980   9.210
 1593POPC   GL222238  35.085  12.218   9.069
 1593POPC   C1A22239  35.356  11.943   8.766
 1593POPC   D2A22240  35.573  11.757   8.451
 1593POPC   C3A22241  35.514  12.022   8.132
 1593POPC   C4A22242  35.555  12.264   7.788
 1593POPC   C1B22243  34.912  12.367   8.743
 1593POPC   C2B22244  35.112  12.265   8.406
 1593POPC   C3B22245  35.086  12.386   8.034
 1593POPC   C4B22246  35.058  12.227   7.645
 1594POPC   NC322247  19.102   2.241   9.387
 1594POPC   PO422248  18.727   1.776   9.386
 1594POPC   GL122249  19.085   1.831   9.079
 1594POPC   GL222250  18.922   2.099   8.945
 1594POPC   C1A22251  19.338   1.949   8.699
 1594POPC   D2A22252  19.552   2.084   8.288
 1594POPC   C3A22253  19.392   1.863   7.940
 1594POPC   C4A22254  19.217   2.005   7.539
 1594POPC   C1B22255  18.832   1.775   8.655
 1594POPC   C2B22256  19.046   1.704   8.284
 1594POPC   C3B22257  18.881   1.795   7.878
 1594POPC   C4B22258  18.732   2.165   7.651
 1595POPC   NC322259  44.002  12.956   9.349
 1595POPC   PO422260  43.753  12.309   9.484
 1595POPC   GL122261  43.782  12.490   9.084
 1595POPC   GL222262  43.619  12.774   9.025
 1595POPC   C1A22263  43.927  12.597   8.658
 1595POPC   D2A22264  44.161  12.885   8.375
 1595POPC   C3A22265  44.003  12.761   7.987
 1595POPC   C4A22266  43.595  12.834   7.787
 1595POPC   C1B22267  43.698  13.068   8.710
 1595POPC   C2B22268  43.633  12.968   8.294
 1595POPC   C3B22269  43.867  13.235   8.042
 1595POPC   C4B22270  44.242  13.213   7.828
 1596POPC   NC322271  26.372  40.477   9.549
 1596POPC   PO422272  26.953  40.436   9.571
 1596POPC   GL122273  26.866  40.675   9.206
 1596POPC   GL222274  26.898  41.033   9.236
 1596POPC   C1A22275  26.788  40.716   8.771
 1596POPC   D2A22276  26.613  41.023   8.522
 1596POPC   C3A22277  26.612  40.864   8.111
 1596POPC   C4A22278  26.791  40.794   7.729
 1596POPC   C1B22279  27.126  41.096   8.859
 1596POPC   C2B22280  27.125  40.992   8.428
 1596POPC   C3B22281  27.104  41.094   7.996
 1596POPC   C4B22282  27.245  40.999   7.579
 1597POPC   NC322283  16.857  27.886   9.484
 1597POPC   PO422284  16.281  27.460   9.536
 1597POPC   GL122285  16.658  27.460   9.240
 1597POPC   GL222286  17.027  27.417   9.312
 1597POPC   C1A22287  16.738  27.638   8.844
 1597POPC   D2A22288  16.672  27.737   8.396
 1597POPC   C3A22289  16.661  27.424   8.092
 1597POPC   C4A22290  16.671  27.690   7.731
 1597POPC   C1B22291  17.226  27.492   8.902
 1597POPC   C2B22292  17.037  27.396   8.486
 1597POPC   C3B22293  17.177  27.471   8.078
 1597POPC   C4B22294  17.186  27.778   7.757
 1598POPC   NC322295  26.338  17.208   9.587
 1598POPC   PO422296  26.259  16.628   9.314
 1598POPC   GL122297  25.968  16.649   8.995
 1598POPC   GL222298  25.799  16.900   9.086
 1598POPC   C1A22299  25.928  16.625   8.560
 1598POPC   D2A22300  26.170  16.473   8.230
 1598POPC   C3A22301  26.022  16.576   7.812
 1598POPC   C4A22302  25.980  16.462   7.374
 1598POPC   C1B22303  25.879  17.119   8.704
 1598POPC   C2B22304  25.727  17.032   8.295
 1598POPC   C3B22305  25.791  17.129   7.878
 1598POPC   C4B22306  26.118  17.027   7.614
 1599POPC   NC322307  10.992  22.717   9.354
 1599POPC   PO422308  10.389  23.055   9.574
 1599POPC   GL122309  10.452  23.040   9.133
 1599POPC   GL222310  10.693  22.793   8.929
 1599POPC   C1A22311  10.360  23.087   8.706
 1599POPC   D2A22312  10.614  22.855   8.405
 1599POPC   C3A22313  10.469  22.908   8.007
 1599POPC   C4A22314  10.231  22.726   7.711
 1599POPC   C1B22315  11.007  22.589   8.679
 1599POPC   C2B22316  11.038  22.397   8.302
 1599POPC   C3B22317  10.781  22.493   7.971
 1599POPC   C4B22318  10.868  22.574   7.542
 1600POPC   NC322319  26.922  28.021   9.519
 1600POPC   PO422320  27.270  28.581   9.230
 1600POPC   GL122321  26.983  28.422   8.918
 1600POPC   GL222322  26.930  28.096   8.999
 1600POPC   C1A22323  26.565  28.549   8.759
 1600POPC   D2A22324  26.453  28.704   8.376
 1600POPC   C3A22325  26.733  28.509   8.081
 1600POPC   C4A22326  26.561  28.454   7.709
 1600POPC   C1B22327  26.585  28.044   8.678
 1600POPC   C2B22328  26.499  28.091   8.270
 1600POPC   C3B22329  26.701  28.015   7.895
 1600POPC   C4B22330  27.016  28.224   7.659
 1601POPC   NC322331  41.162   2.822   9.500
 1601POPC   PO422332  40.600   2.481   9.660
 1601POPC   GL122333  40.645   2.750   9.244
 1601POPC   GL222334  40.960   2.725   9.057
 1601POPC   C1A22335  40.582   2.899   8.774
 1601POPC   D2A22336  40.595   3.142   8.384
 1601POPC   C3A22337  40.823   3.058   8.025
 1601POPC   C4A22338  40.640   3.192   7.647
 1601POPC   C1B22339  41.164   2.600   8.692
 1601POPC   C2B22340  41.067   2.422   8.298
 1601POPC   C3B22341  41.176   2.656   7.940
 1601POPC   C4B22342  41.099   2.914   7.606
 1602POPC   NC322343  12.484  35.596   9.432
 1602POPC   PO422344  13.208  35.656   9.488
 1602POPC   GL122345  12.923  35.406   9.201
 1602POPC   GL222346  12.810  35.032   9.232
 1602POPC   C1A22347  12.838  35.497   8.765
 1602POPC   D2A22348  12.898  35.257   8.400
 1602POPC   C3A22349  12.766  35.392   8.021
 1602POPC   C4A22350  13.074  35.647   7.823
 1602POPC   C1B22351  13.063  35.042   8.842
 1602POPC   C2B22352  13.192  34.858   8.442
 1602POPC   C3B22353  13.228  35.095   8.022
 1602POPC   C4B22354  12.961  35.083   7.654
 1603POPC   NC322355   1.980   3.897   9.463
 1603POPC   PO422356   2.199   3.277   9.568
 1603POPC   GL122357   2.026   3.427   9.165
 1603POPC   GL222358   1.771   3.643   9.076
 1603POPC   C1A22359   2.210   3.538   8.738
 1603POPC   D2A22360   2.247   3.369   8.338
 1603POPC   C3A22361   2.201   3.674   8.003
 1603POPC   C4A22362   1.929   3.475   7.752
 1603POPC   C1B22363   1.709   3.535   8.641
 1603POPC   C2B22364   1.753   3.783   8.248
 1603POPC   C3B22365   1.517   3.745   7.860
 1603POPC   C4B22366   1.666   3.790   7.430
 1604POPC   NC322367   2.865  37.294   9.319
 1604POPC   PO422368   2.518  36.733   9.612
 1604POPC   GL122369   2.592  36.896   9.178
 1604POPC   GL222370   2.935  36.834   9.058
 1604POPC   C1A22371   2.648  37.145   8.738
 1604POPC   D2A22372   3.035  37.106   8.452
 1604POPC   C3A22373   2.900  36.948   8.046
 1604POPC   C4A22374   2.518  37.084   7.870
 1604POPC   C1B22375   2.670  36.636   8.736
 1604POPC   C2B22376   2.500  36.788   8.344
 1604POPC   C3B22377   2.536  36.577   7.935
 1604POPC   C4B22378   2.879  36.585   7.625
 1605POPC   NC322379   0.071   2.709   9.627
 1605POPC   PO422380   0.636   2.473   9.431
 1605POPC   GL122381   0.299   2.640   9.173
 1605POPC   GL222382   0.300   2.998   9.064
 1605POPC   C1A22383   0.068   2.640   8.796
 1605POPC   D2A22384   0.187   2.584   8.371
 1605POPC   C3A22385   0.209   2.713   7.942
 1605POPC   C4A22386   0.206   2.529   7.531
 1605POPC   C1B22387   0.521   2.861   8.678
 1605POPC   C2B22388   0.518   2.987   8.266
 1605POPC   C3B22389   0.529   3.116   7.853
 1605POPC   C4B22390   0.417   2.979   7.451
 1606POPC   NC322391  19.074  17.887   9.483
 1606POPC   PO422392  18.748  17.290   9.505
 1606POPC   GL122393  19.017  17.439   9.137
 1606POPC   GL222394  19.179  17.724   9.038
 1606POPC   C1A22395  19.216  17.327   8.737
 1606POPC   D2A22396  19.002  17.150   8.407
 1606POPC   C3A22397  19.085  17.243   8.008
 1606POPC   C4A22398  18.840  17.487   7.751
 1606POPC   C1B22399  19.127  17.898   8.674
 1606POPC   C2B22400  19.306  17.734   8.318
 1606POPC   C3B22401  19.338  17.673   7.885
 1606POPC   C4B22402  19.675  17.694   7.602
 1607POPC   NC322403  11.361  25.611   9.905
 1607POPC   PO422404  11.423  26.172   9.609
 1607POPC   GL122405  11.160  26.008   9.301
 1607POPC   GL222406  11.449  25.944   9.103
 1607POPC   C1A22407  11.067  26.086   8.852
 1607POPC   D2A22408  11.257  26.099   8.486
 1607POPC   C3A22409  11.188  25.859   8.129
 1607POPC   C4A22410  11.260  26.038   7.712
 1607POPC   C1B22411  11.687  26.037   8.774
 1607POPC   C2B22412  11.717  25.904   8.355
 1607POPC   C3B22413  11.711  26.027   7.933
 1607POPC   C4B22414  11.697  25.892   7.480
 1608POPC   NC322415  34.975   4.969   9.523
 1608POPC   PO422416  35.552   5.293   9.505
 1608POPC   GL122417  35.363   5.020   9.196
 1608POPC   GL222418  35.061   5.261   9.111
 1608POPC   C1A22419  35.229   4.920   8.788
 1608POPC   D2A22420  35.326   5.219   8.450
 1608POPC   C3A22421  35.369   5.072   8.038
 1608POPC   C4A22422  35.245   5.009   7.626
 1608POPC   C1B22423  34.856   5.256   8.661
 1608POPC   C2B22424  34.912   5.334   8.174
 1608POPC   C3B22425  35.139   5.484   7.743
 1608POPC   C4B22426  34.972   5.360   7.272
 1609POPC   NC322427  25.770  41.683   9.656
 1609POPC   PO422428  26.189  41.107   9.664
 1609POPC   GL122429  26.028  41.400   9.318
 1609POPC   GL222430  25.768  41.629   9.168
 1609POPC   C1A22431  26.113  41.403   8.889
 1609POPC   D2A22432  25.959  41.432   8.476
 1609POPC   C3A22433  26.172  41.208   8.145
 1609POPC   C4A22434  26.034  41.319   7.728
 1609POPC   C1B22435  25.930  41.874   8.830
 1609POPC   C2B22436  25.816  41.941   8.432
 1609POPC   C3B22437  25.956  41.744   8.059
 1609POPC   C4B22438  25.734  41.711   7.693
 1610POPC   NC322439   1.127   4.901   9.468
 1610POPC   PO422440   1.333   5.532   9.379
 1610POPC   GL122441   1.174   5.276   9.072
 1610POPC   GL222442   0.847   5.134   9.101
 1610POPC   C1A22443   1.047   5.254   8.654
 1610POPC   D2A22444   0.877   4.988   8.362
 1610POPC   C3A22445   0.949   5.228   8.002
 1610POPC   C4A22446   1.267   5.274   7.732
 1610POPC   C1B22447   1.117   4.795   8.846
 1610POPC   C2B22448   1.370   4.697   8.507
 1610POPC   C3B22449   1.416   4.697   8.093
 1610POPC   C4B22450   1.252   4.761   7.702
 1611POPC   NC322451  36.317   6.417   9.662
 1611POPC   PO422452  36.465   7.032   9.528
 1611POPC   GL122453  36.665   6.715   9.253
 1611POPC   GL222454  36.538   6.332   9.223
 1611POPC   C1A22455  36.854   6.835   8.826
 1611POPC   D2A22456  36.884   7.011   8.377
 1611POPC   C3A22457  36.529   6.881   8.078
 1611POPC   C4A22458  36.565   6.563   7.696
 1611POPC   C1B22459  36.574   6.261   8.795
 1611POPC   C2B22460  36.809   6.454   8.492
 1611POPC   C3B22461  37.024   6.187   8.212
 1611POPC   C4B22462  36.899   5.889   8.028
 1612POPC   NC322463  44.447  13.927   9.439
 1612POPC   PO422464  44.325  13.271   9.460
 1612POPC   GL122465  44.600  13.493   9.147
 1612POPC   GL222466  44.821  13.803   9.144
 1612POPC   C1A22467  44.453  13.572   8.732
 1612POPC   D2A22468  44.305  13.414   8.319
 1612POPC   C3A22469  44.519  13.615   7.968
 1612POPC   C4A22470  44.634  13.494   7.553
 1612POPC   C1B22471  44.962  13.702   8.765
 1612POPC   C2B22472  44.790  13.741   8.378
 1612POPC   C3B22473   0.014  13.762   7.978
 1612POPC   C4B22474  44.925  13.929   7.529
 1613POPC   NC322475   0.732  12.593   9.662
 1613POPC   PO422476   0.179  12.949   9.505
 1613POPC   GL122477   0.401  12.678   9.253
 1613POPC   GL222478   0.410  12.934   9.049
 1613POPC   C1A22479   0.649  12.538   8.902
 1613POPC   D2A22480   0.628  12.510   8.457
 1613POPC   C3A22481   0.705  12.778   8.133
 1613POPC   C4A22482   0.600  12.509   7.787
 1613POPC   C1B22483   0.212  12.805   8.726
 1613POPC   C2B22484   0.216  12.960   8.345
 1613POPC   C3B22485   0.215  12.804   7.943
 1613POPC   C4B22486   0.460  12.958   7.582
 1614POPC   NC322487  12.978  10.478   9.536
 1614POPC   PO422488  12.422  10.824   9.464
 1614POPC   GL122489  12.679  10.532   9.130
 1614POPC   GL222490  12.995  10.292   9.080
 1614POPC   C1A22491  12.910  10.674   8.761
 1614POPC   D2A22492  12.705  10.838   8.407
 1614POPC   C3A22493  12.938  10.820   8.050
 1614POPC   C4A22494  12.921  10.744   7.627
 1614POPC   C1B22495  12.772  10.151   8.749
 1614POPC   C2B22496  12.891  10.303   8.374
 1614POPC   C3B22497  12.778  10.351   7.981
 1614POPC   C4B22498  13.088  10.292   7.736
 1615POPC   NC322499  37.862  18.798   9.801
 1615POPC   PO422500  37.442  18.361   9.511
 1615POPC   GL122501  37.696  18.297   9.172
 1615POPC   GL222502  37.487  18.545   9.023
 1615POPC   C1A22503  37.786  18.017   8.815
 1615POPC   D2A22504  37.830  18.178   8.366
 1615POPC   C3A22505  37.460  18.045   8.136
 1615POPC   C4A22506  37.457  17.987   7.718
 1615POPC   C1B22507  37.825  18.546   8.709
 1615POPC   C2B22508  37.827  18.743   8.326
 1615POPC   C3B22509  37.805  18.538   7.943
 1615POPC   C4B22510  37.741  18.616   7.499
 1616POPC   NC322511  32.072  18.394   9.466
 1616POPC   PO422512  32.599  18.216   9.362
 1616POPC   GL122513  32.429  18.509   9.083
 1616POPC   GL222514  32.135  18.262   8.983
 1616POPC   C1A22515  32.332  18.580   8.642
 1616POPC   D2A22516  32.117  18.196   8.443
 1616POPC   C3A22517  32.073  18.246   8.003
 1616POPC   C4A22518  32.400  18.426   7.769
 1616POPC   C1B22519  32.365  17.895   8.827
 1616POPC   C2B22520  32.344  17.705   8.435
 1616POPC   C3B22521  32.463  17.928   8.067
 1616POPC   C4B22522  32.312  17.909   7.657
 1617POPC   NC322523   0.663  35.734   9.431
 1617POPC   PO422524   0.892  36.472   9.407
 1617POPC   GL122525   0.564  36.208   9.205
 1617POPC   GL222526   0.215  36.365   9.232
 1617POPC   C1A22527   0.438  35.951   8.821
 1617POPC   D2A22528   0.465  36.136   8.400
 1617POPC   C3A22529   0.435  35.937   7.998
 1617POPC   C4A22530   0.665  36.055   7.622
 1617POPC   C1B22531   0.326  36.474   8.807
 1617POPC   C2B22532   0.255  36.597   8.371
 1617POPC   C3B22533   0.324  36.437   7.925
 1617POPC   C4B22534   0.301  36.368   7.472
 1618POPC   NC322535  16.607  23.805   9.428
 1618POPC   PO422536  16.690  23.196   9.681
 1618POPC   GL122537  16.874  23.437   9.175
 1618POPC   GL222538  16.775  23.739   8.966
 1618POPC   C1A22539  16.732  23.290   8.726
 1618POPC   D2A22540  16.418  23.238   8.390
 1618POPC   C3A22541  16.626  23.458   8.074
 1618POPC   C4A22542  16.646  23.384   7.644
 1618POPC   C1B22543  16.593  24.052   8.697
 1618POPC   C2B22544  16.512  23.976   8.275
 1618POPC   C3B22545  16.284  24.175   7.940
 1618POPC   C4B22546  16.365  24.144   7.486
 1619POPC   NC322547   8.130  43.600   9.391
 1619POPC   PO422548   8.621  43.160   9.575
 1619POPC   GL122549   8.342  43.142   9.188
 1619POPC   GL222550   7.936  43.179   9.182
 1619POPC   C1A22551   8.437  42.961   8.765
 1619POPC   D2A22552   8.366  43.128   8.345
 1619POPC   C3A22553   8.328  42.933   7.928
 1619POPC   C4A22554   8.482  43.236   7.651
 1619POPC   C1B22555   8.076  43.363   8.780
 1619POPC   C2B22556   7.943  43.460   8.371
 1619POPC   C3B22557   8.046  43.348   7.943
 1619POPC   C4B22558   7.836  43.025   7.677
 1620POPC   NC322559   9.682  32.159   9.572
 1620POPC   PO422560  10.184  32.605   9.490
 1620POPC   GL122561   9.977  32.375   9.139
 1620POPC   GL222562   9.942  32.048   9.155
 1620POPC   C1A22563   9.591  32.290   8.846
 1620POPC   D2A22564   9.399  32.317   8.406
 1620POPC   C3A22565   9.468  31.994   8.081
 1620POPC   C4A22566   9.541  32.330   7.833
 1620POPC   C1B22567  10.036  32.015   8.715
 1620POPC   C2B22568   9.967  31.992   8.270
 1620POPC   C3B22569   9.935  31.980   7.837
 1620POPC   C4B22570   9.967  31.788   7.448
 1621POPC   NC322571  30.052  36.562   9.411
 1621POPC   PO422572  29.629  37.044   9.432
 1621POPC   GL122573  29.915  37.245   9.177
 1621POPC   GL222574  30.072  36.923   9.075
 1621POPC   C1A22575  30.041  37.273   8.748
 1621POPC   D2A22576  29.934  36.984   8.431
 1621POPC   C3A22577  30.053  37.134   8.031
 1621POPC   C4A22578  29.662  37.230   7.824
 1621POPC   C1B22579  29.718  36.693   8.858
 1621POPC   C2B22580  29.793  36.486   8.471
 1621POPC   C3B22581  30.060  36.570   8.101
 1621POPC   C4B22582  30.040  36.703   7.670
 1622POPC   NC322583  12.488  27.716   9.495
 1622POPC   PO422584  13.050  27.342   9.467
 1622POPC   GL122585  12.766  27.501   9.121
 1622POPC   GL222586  12.991  27.783   9.073
 1622POPC   C1A22587  12.551  27.733   8.724
 1622POPC   D2A22588  12.326  27.744   8.288
 1622POPC   C3A22589  12.577  27.747   7.953
 1622POPC   C4A22590  12.790  27.382   7.997
 1622POPC   C1B22591  13.024  27.528   8.689
 1622POPC   C2B22592  12.930  27.744   8.343
 1622POPC   C3B22593  13.073  27.886   7.986
 1622POPC   C4B22594  12.984  27.661   7.625
 1623POPC   NC322595  11.597  13.121   9.588
 1623POPC   PO422596  11.041  12.649   9.496
 1623POPC   GL122597  11.206  12.831   9.101
 1623POPC   GL222598  11.569  12.911   9.119
 1623POPC   C1A22599  11.228  12.833   8.637
 1623POPC   D2A22600  11.232  13.164   8.335
 1623POPC   C3A22601  11.297  13.037   7.943
 1623POPC   C4A22602  11.090  12.801   7.689
 1623POPC   C1B22603  11.737  12.937   8.688
 1623POPC   C2B22604  11.665  12.826   8.245
 1623POPC   C3B22605  11.683  12.734   7.784
 1623POPC   C4B22606  11.459  12.752   7.353
 1624POPC   NC322607  21.747  42.178   9.744
 1624POPC   PO422608  21.192  41.940   9.364
 1624POPC   GL122609  21.372  42.162   9.019
 1624POPC   GL222610  21.595  42.460   9.106
 1624POPC   C1A22611  21.566  42.106   8.627
 1624POPC   D2A22612  21.635  41.828   8.337
 1624POPC   C3A22613  21.562  42.043   7.953
 1624POPC   C4A22614  21.318  42.417   7.820
 1624POPC   C1B22615  21.834  42.526   8.712
 1624POPC   C2B22616  21.859  42.422   8.251
 1624POPC   C3B22617  21.779  42.627   7.854
 1624POPC   C4B22618  21.440  42.909   7.691
 1625POPC   NC322619  34.661   0.864   9.383
 1625POPC   PO422620  34.822   0.164   9.461
 1625POPC   GL122621  34.758   0.430   9.142
 1625POPC   GL222622  34.400   0.353   9.074
 1625POPC   C1A22623  34.747   0.555   8.723
 1625POPC   D2A22624  34.450   0.318   8.460
 1625POPC   C3A22625  34.667   0.329   8.081
 1625POPC   C4A22626  34.859   0.602   7.793
 1625POPC   C1B22627  34.260   0.695   8.793
 1625POPC   C2B22628  34.103   0.660   8.364
 1625POPC   C3B22629  34.246   0.685   7.957
 1625POPC   C4B22630  34.361   0.388   7.700
 1626POPC   NC322631  33.281  30.413   9.632
 1626POPC   PO422632  32.935  30.890   9.410
 1626POPC   GL122633  33.236  30.811   9.126
 1626POPC   GL222634  33.174  30.451   9.139
 1626POPC   C1A22635  33.103  30.942   8.718
 1626POPC   D2A22636  32.902  30.875   8.348
 1626POPC   C3A22637  33.084  30.942   7.950
 1626POPC   C4A22638  32.722  30.673   7.873
 1626POPC   C1B22639  33.285  30.467   8.725
 1626POPC   C2B22640  33.347  30.612   8.344
 1626POPC   C3B22641  33.307  30.499   7.922
 1626POPC   C4B22642  33.148  30.229   7.647
 1627POPC   NC322643   0.975  15.741   9.494
 1627POPC   PO422644   1.541  16.139   9.653
 1627POPC   GL122645   1.246  16.113   9.260
 1627POPC   GL222646   1.047  16.402   9.156
 1627POPC   C1A22647   1.153  15.896   8.877
 1627POPC   D2A22648   1.245  15.788   8.454
 1627POPC   C3A22649   1.003  15.628   8.116
 1627POPC   C4A22650   1.108  15.739   7.691
 1627POPC   C1B22651   1.265  16.406   8.777
 1627POPC   C2B22652   1.354  16.302   8.363
 1627POPC   C3B22653   1.097  16.138   8.074
 1627POPC   C4B22654   0.962  16.270   7.678
 1628POPC   NC322655  33.016  35.704   9.552
 1628POPC   PO422656  33.386  35.112   9.700
 1628POPC   GL122657  33.237  35.386   9.270
 1628POPC   GL222658  32.946  35.238   9.166
 1628POPC   C1A22659  33.235  35.445   8.793
 1628POPC   D2A22660  33.344  35.584   8.362
 1628POPC   C3A22661  33.306  35.314   8.042
 1628POPC   C4A22662  33.185  35.355   7.637
 1628POPC   C1B22663  32.718  35.314   8.783
 1628POPC   C2B22664  32.671  35.222   8.350
 1628POPC   C3B22665  32.813  35.455   8.004
 1628POPC   C4B22666  32.624  35.536   7.611
 1629POPC   NC322667  24.656  12.879   9.471
 1629POPC   PO422668  23.991  13.175   9.457
 1629POPC   GL122669  24.211  13.058   9.108
 1629POPC   GL222670  24.362  12.759   9.060
 1629POPC   C1A22671  24.456  13.136   8.740
 1629POPC   D2A22672  24.450  13.003   8.339
 1629POPC   C3A22673  24.727  12.946   8.030
 1629POPC   C4A22674  24.549  13.222   7.711
 1629POPC   C1B22675  24.612  12.615   8.691
 1629POPC   C2B22676  24.765  12.402   8.308
 1629POPC   C3B22677  24.704  12.403   7.852
 1629POPC   C4B22678  24.756  12.679   7.506
 1630POPC   NC322679  14.669   8.914   9.526
 1630POPC   PO422680  14.072   8.653   9.594
 1630POPC   GL122681  14.260   8.706   9.176
 1630POPC   GL222682  14.387   9.073   9.115
 1630POPC   C1A22683  14.506   8.729   8.785
 1630POPC   D2A22684  14.410   8.956   8.377
 1630POPC   C3A22685  14.438   8.728   7.980
 1630POPC   C4A22686  14.309   8.875   7.540
 1630POPC   C1B22687  14.704   9.197   8.747
 1630POPC   C2B22688  14.814   9.263   8.297
 1630POPC   C3B22689  14.556   9.209   7.887
 1630POPC   C4B22690  14.471   9.344   7.427
 1631POPC   NC322691   9.558  44.089   9.447
 1631POPC   PO422692  10.036  43.702   9.700
 1631POPC   GL122693   9.898  43.783   9.205
 1631POPC   GL222694   9.942  44.140   9.069
 1631POPC   C1A22695   9.922  43.768   8.729
 1631POPC   D2A22696   9.883  43.581   8.271
 1631POPC   C3A22697   9.924  43.711   7.834
 1631POPC   C4A22698   9.612  43.649   7.491
 1631POPC   C1B22699   9.576  44.169   8.791
 1631POPC   C2B22700   9.606  43.983   8.395
 1631POPC   C3B22701   9.492  43.940   7.974
 1631POPC   C4B22702   9.706  44.143   7.631
 1632POPC   NC322703  32.945  38.755   9.661
 1632POPC   PO422704  33.367  38.398   9.327
 1632POPC   GL122705  33.211  38.690   9.103
 1632POPC   GL222706  32.859  38.670   9.133
 1632POPC   C1A22707  33.093  38.540   8.687
 1632POPC   D2A22708  33.068  38.217   8.362
 1632POPC   C3A22709  33.316  38.281   8.009
 1632POPC   C4A22710  33.256  38.325   7.569
 1632POPC   C1B22711  32.611  38.683   8.711
 1632POPC   C2B22712  32.710  38.607   8.271
 1632POPC   C3B22713  32.897  38.563   7.868
 1632POPC   C4B22714  32.746  38.866   7.562
 1633POPC   NC322715   5.602  18.678   9.300
 1633POPC   PO422716   5.888  18.192   9.695
 1633POPC   GL122717   5.802  18.109   9.228
 1633POPC   GL222718   5.938  17.765   9.197
 1633POPC   C1A22719   5.767  18.224   8.762
 1633POPC   D2A22720   5.903  18.304   8.337
 1633POPC   C3A22721   5.596  18.303   8.030
 1633POPC   C4A22722   5.542  18.491   7.630
 1633POPC   C1B22723   6.099  17.855   8.776
 1633POPC   C2B22724   6.213  17.829   8.367
 1633POPC   C3B22725   6.050  17.946   7.996
 1633POPC   C4B22726   6.049  18.310   7.767
 1634POPC   NC322727  31.859  30.082   9.792
 1634POPC   PO422728  31.302  30.096   9.380
 1634POPC   GL122729  31.542  30.011   9.028
 1634POPC   GL222730  31.870  30.003   9.204
 1634POPC   C1A22731  31.479  29.912   8.570
 1634POPC   D2A22732  31.416  29.620   8.209
 1634POPC   C3A22733  31.455  29.849   7.829
 1634POPC   C4A22734  31.216  29.892   7.414
 1634POPC   C1B22735  31.945  30.250   8.810
 1634POPC   C2B22736  31.876  30.233   8.365
 1634POPC   C3B22737  31.889  30.108   7.924
 1634POPC   C4B22738  31.736  30.042   7.454
 1635POPC   NC322739  18.295  32.064   9.745
 1635POPC   PO422740  18.486  32.685   9.549
 1635POPC   GL122741  18.441  32.290   9.270
 1635POPC   GL222742  18.200  32.000   9.255
 1635POPC   C1A22743  18.246  32.291   8.848
 1635POPC   D2A22744  18.427  32.205   8.456
 1635POPC   C3A22745  18.411  32.416   8.085
 1635POPC   C4A22746  18.514  32.193   7.714
 1635POPC   C1B22747  18.041  31.816   8.869
 1635POPC   C2B22748  17.958  31.986   8.453
 1635POPC   C3B22749  18.116  32.005   8.049
 1635POPC   C4B22750  18.010  32.287   7.735
 1636POPC   NC322751  17.030  13.639   9.414
 1636POPC   PO422752  16.425  13.948   9.321
 1636POPC   GL122753  16.732  13.872   9.066
 1636POPC   GL222754  16.664  13.515   9.056
 1636POPC   C1A22755  16.954  13.725   8.707
 1636POPC   D2A22756  16.716  13.516   8.386
 1636POPC   C3A22757  16.776  13.535   7.956
 1636POPC   C4A22758  16.854  13.757   7.615
 1636POPC   C1B22759  16.435  13.304   8.738
 1636POPC   C2B22760  16.124  13.418   8.457
 1636POPC   C3B22761  16.278  13.484   8.069
 1636POPC   C4B22762  16.448  13.166   7.790
 1637POPC   NC322763   0.288  34.097   9.403
 1637POPC   PO422764   0.193  33.368   9.435
 1637POPC   GL122765   0.281  33.482   9.059
 1637POPC   GL222766   0.539  33.731   9.134
 1637POPC   C1A22767   0.077  33.763   8.795
 1637POPC   D2A22768   0.263  34.016   8.476
 1637POPC   C3A22769   0.337  33.784   8.099
 1637POPC   C4A22770   0.273  33.926   7.681
 1637POPC   C1B22771   0.638  33.768   8.724
 1637POPC   C2B22772   0.769  33.968   8.348
 1637POPC   C3B22773   0.647  34.179   7.965
 1637POPC   C4B22774   0.768  33.904   7.582
 1638POPC   NC322775  11.167  37.590   9.703
 1638POPC   PO422776  10.507  37.682   9.548
 1638POPC   GL122777  10.543  37.638   9.133
 1638POPC   GL222778  10.878  37.493   9.077
 1638POPC   C1A22779  10.447  37.779   8.746
 1638POPC   D2A22780  10.512  37.587   8.339
 1638POPC   C3A22781  10.429  37.818   8.002
 1638POPC   C4A22782  10.222  37.708   7.690
 1638POPC   C1B22783  10.614  37.283   8.756
 1638POPC   C2B22784  10.700  37.108   8.363
 1638POPC   C3B22785  10.892  37.296   8.003
 1638POPC   C4B22786  10.715  37.533   7.684
 1639POPC   NC322787  20.089  22.591   9.619
 1639POPC   PO422788  19.972  22.012   9.332
 1639POPC   GL122789  20.106  22.237   9.001
 1639POPC   GL222790  20.357  22.409   9.192
 1639POPC   C1A22791  19.874  22.201   8.612
 1639POPC   D2A22792  19.720  21.886   8.328
 1639POPC   C3A22793  19.842  22.117   8.005
 1639POPC   C4A22794  19.645  22.487   7.816
 1639POPC   C1B22795  20.466  22.504   8.747
 1639POPC   C2B22796  20.303  22.369   8.347
 1639POPC   C3B22797  20.258  22.411   7.912
 1639POPC   C4B22798  20.011  22.256   7.548
 1640POPC   NC322799  18.528  16.166   9.498
 1640POPC   PO422800  17.927  15.835   9.553
 1640POPC   GL122801  18.250  15.813   9.208
 1640POPC   GL222802  18.152  16.115   9.072
 1640POPC   C1A22803  18.359  15.838   8.733
 1640POPC   D2A22804  18.196  16.125   8.443
 1640POPC   C3A22805  18.229  15.903   8.091
 1640POPC   C4A22806  18.362  15.689   7.696
 1640POPC   C1B22807  17.840  16.299   8.798
 1640POPC   C2B22808  17.729  16.394   8.375
 1640POPC   C3B22809  17.926  16.318   7.972
 1640POPC   C4B22810  18.221  16.169   7.669
 1641POPC   NC322811  43.447   7.913   9.531
 1641POPC   PO422812  43.087   7.238   9.501
 1641POPC   GL122813  43.116   7.361   9.106
 1641POPC   GL222814  43.100   7.687   9.146
 1641POPC   C1A22815  43.337   7.217   8.735
 1641POPC   D2A22816  43.525   7.099   8.330
 1641POPC   C3A22817  43.328   7.335   7.993
 1641POPC   C4A22818  43.279   7.181   7.600
 1641POPC   C1B22819  43.075   7.805   8.753
 1641POPC   C2B22820  43.125   7.607   8.368
 1641POPC   C3B22821  43.039   7.792   7.945
 1641POPC   C4B22822  43.137   7.668   7.554
 1642POPC   NC322823  14.620   5.488   9.504
 1642POPC   PO422824  14.201   6.093   9.500
 1642POPC   GL122825  14.233   5.841   9.150
 1642POPC   GL222826  14.601   5.855   9.130
 1642POPC   C1A22827  14.258   5.815   8.709
 1642POPC   D2A22828  14.583   5.923   8.410
 1642POPC   C3A22829  14.487   6.201   8.066
 1642POPC   C4A22830  14.160   6.044   7.768
 1642POPC   C1B22831  14.677   5.521   8.842
 1642POPC   C2B22832  14.802   5.472   8.432
 1642POPC   C3B22833  14.698   5.546   8.027
 1642POPC   C4B22834  14.640   5.851   7.730
 1643POPC   NC322835  32.087  34.319   9.676
 1643POPC   PO422836  32.669  34.526   9.494
 1643POPC   GL122837  32.350  34.367   9.218
 1643POPC   GL222838  32.598  34.180   9.062
 1643POPC   C1A22839  32.102  34.619   8.898
 1643POPC   D2A22840  32.282  34.873   8.543
 1643POPC   C3A22841  32.188  34.737   8.119
 1643POPC   C4A22842  31.974  34.559   7.741
 1643POPC   C1B22843  32.473  34.348   8.678
 1643POPC   C2B22844  32.575  34.177   8.293
 1643POPC   C3B22845  32.718  34.416   7.985
 1643POPC   C4B22846  32.520  34.611   7.751
 1644POPC   NC322847  42.128  30.702   9.626
 1644POPC   PO422848  42.587  30.301   9.802
 1644POPC   GL122849  42.549  30.687   9.363
 1644POPC   GL222850  42.193  30.638   9.144
 1644POPC   C1A22851  42.551  30.821   8.871
 1644POPC   D2A22852  42.292  30.669   8.496
 1644POPC   C3A22853  42.390  30.761   8.049
 1644POPC   C4A22854  42.598  31.104   7.836
 1644POPC   C1B22855  41.913  30.367   8.914
 1644POPC   C2B22856  41.828  30.359   8.476
 1644POPC   C3B22857  41.913  30.562   8.111
 1644POPC   C4B22858  41.926  30.351   7.733
 1645POPC   NC322859  33.755  12.550   9.813
 1645POPC   PO422860  33.879  11.947   9.462
 1645POPC   GL122861  33.949  12.014   9.019
 1645POPC   GL222862  33.717  12.282   9.059
 1645POPC   C1A22863  33.710  12.018   8.626
 1645POPC   D2A22864  33.695  12.246   8.248
 1645POPC   C3A22865  33.901  11.912   8.036
 1645POPC   C4A22866  33.849  11.722   7.644
 1645POPC   C1B22867  33.966  12.456   8.702
 1645POPC   C2B22868  34.183  12.441   8.324
 1645POPC   C3B22869  33.993  12.605   7.993
 1645POPC   C4B22870  33.873  12.335   7.700
 1646POPC   NC322871  22.571  29.117   9.503
 1646POPC   PO422872  23.262  29.145   9.568
 1646POPC   GL122873  22.990  29.172   9.205
 1646POPC   GL222874  23.146  29.439   9.056
 1646POPC   C1A22875  22.745  28.941   8.838
 1646POPC   D2A22876  22.843  28.733   8.423
 1646POPC   C3A22877  22.970  28.997   8.054
 1646POPC   C4A22878  22.860  28.927   7.611
 1646POPC   C1B22879  22.758  29.460   8.849
 1646POPC   C2B22880  22.635  29.278   8.480
 1646POPC   C3B22881  22.702  29.517   8.164
 1646POPC   C4B22882  22.768  29.430   7.769
 1647POPC   NC322883  24.515   7.275   9.459
 1647POPC   PO422884  23.937   7.688   9.406
 1647POPC   GL122885  24.135   7.376   9.142
 1647POPC   GL222886  24.403   7.606   9.056
 1647POPC   C1A22887  24.395   7.154   8.821
 1647POPC   D2A22888  24.390   7.340   8.436
 1647POPC   C3A22889  24.501   7.202   8.026
 1647POPC   C4A22890  24.644   7.350   7.622
 1647POPC   C1B22891  24.149   7.749   8.712
 1647POPC   C2B22892  24.032   7.742   8.268
 1647POPC   C3B22893  24.220   7.611   7.861
 1647POPC   C4B22894  24.342   7.707   7.413
 1648POPC   NC322895  34.210  28.165   9.585
 1648POPC   PO422896  34.791  28.559   9.510
 1648POPC   GL122897  34.768  28.391   9.116
 1648POPC   GL222898  34.459  28.183   9.123
 1648POPC   C1A22899  34.816  28.496   8.690
 1648POPC   D2A22900  34.543  28.433   8.347
 1648POPC   C3A22901  34.849  28.581   8.103
 1648POPC   C4A22902  34.819  28.481   7.707
 1648POPC   C1B22903  34.565  28.042   8.720
 1648POPC   C2B22904  34.418  27.913   8.330
 1648POPC   C3B22905  34.305  28.134   7.969
 1648POPC   C4B22906  34.493  28.084   7.575
 1649POPC   NC322907  31.328   9.071   9.852
 1649POPC   PO422908  31.909   9.047   9.477
 1649POPC   GL122909  31.672   8.890   9.194
 1649POPC   GL222910  31.307   8.932   9.263
 1649POPC   C1A22911  31.751   8.779   8.781
 1649POPC   D2A22912  31.431   8.803   8.467
 1649POPC   C3A22913  31.566   8.578   8.142
 1649POPC   C4A22914  31.556   8.663   7.724
 1649POPC   C1B22915  31.408   9.153   8.854
 1649POPC   C2B22916  31.640   9.279   8.421
 1649POPC   C3B22917  31.635   9.132   7.961
 1649POPC   C4B22918  31.756   9.063   7.498
 1650POPC   NC322919  17.803  19.717   9.316
 1650POPC   PO422920  17.195  20.024   9.466
 1650POPC   GL122921  17.371  19.871   9.116
 1650POPC   GL222922  17.165  19.621   8.999
 1650POPC   C1A22923  17.530  19.796   8.694
 1650POPC   D2A22924  17.258  19.781   8.350
 1650POPC   C3A22925  17.567  19.662   8.089
 1650POPC   C4A22926  17.725  19.523   7.718
 1650POPC   C1B22927  17.112  20.093   8.747
 1650POPC   C2B22928  17.195  20.273   8.288
 1650POPC   C3B22929  17.274  20.045   7.888
 1650POPC   C4B22930  17.166  19.635   7.757
 1651POPC   NC322931  25.221  33.227   9.346
 1651POPC   PO422932  25.497  32.660   9.604
 1651POPC   GL122933  25.388  32.763   9.150
 1651POPC   GL222934  25.507  33.016   8.989
 1651POPC   C1A22935  25.140  32.843   8.700
 1651POPC   D2A22936  25.119  33.152   8.321
 1651POPC   C3A22937  25.192  32.980   7.877
 1651POPC   C4A22938  25.097  33.101   7.417
 1651POPC   C1B22939  25.561  33.170   8.605
 1651POPC   C2B22940  25.608  32.985   8.231
 1651POPC   C3B22941  25.662  33.190   7.867
 1651POPC   C4B22942  25.604  33.017   7.473
 1652POPC   NC322943  40.395   3.626   9.351
 1652POPC   PO422944  40.162   3.150   9.681
 1652POPC   GL122945  40.003   3.297   9.256
 1652POPC   GL222946  40.312   3.205   9.085
 1652POPC   C1A22947  39.954   3.448   8.815
 1652POPC   D2A22948  39.788   3.326   8.438
 1652POPC   C3A22949  39.769   3.600   8.095
 1652POPC   C4A22950  39.771   3.383   7.706
 1652POPC   C1B22951  40.449   3.465   8.737
 1652POPC   C2B22952  40.276   3.591   8.366
 1652POPC   C3B22953  40.210   3.349   8.017
 1652POPC   C4B22954  40.259   3.531   7.642
 1653POPC   NC322955  23.506   6.490   9.448
 1653POPC   PO422956  24.057   6.925   9.428
 1653POPC   GL122957  23.761   6.859   9.084
 1653POPC   GL222958  23.830   6.504   9.053
 1653POPC   C1A22959  23.498   6.971   8.697
 1653POPC   D2A22960  23.468   6.803   8.263
 1653POPC   C3A22961  23.831   6.735   8.074
 1653POPC   C4A22962  24.027   6.853   7.697
 1653POPC   C1B22963  23.779   6.557   8.617
 1653POPC   C2B22964  23.676   6.298   8.283
 1653POPC   C3B22965  23.425   6.396   7.928
 1653POPC   C4B22966  23.515   6.755   7.677
 1654POPC   NC322967  21.148   4.452   9.621
 1654POPC   PO422968  20.959   3.890   9.263
 1654POPC   GL122969  21.304   4.167   9.129
 1654POPC   GL222970  21.285   4.544   9.127
 1654POPC   C1A22971  21.306   4.222   8.679
 1654POPC   D2A22972  20.980   4.182   8.360
 1654POPC   C3A22973  21.181   3.987   8.044
 1654POPC   C4A22974  21.415   4.066   7.661
 1654POPC   C1B22975  21.543   4.666   8.742
 1654POPC   C2B22976  21.597   4.563   8.288
 1654POPC   C3B22977  21.547   4.537   7.840
 1654POPC   C4B22978  21.537   4.538   7.373
 1655POPC   NC322979  15.132  30.467   9.770
 1655POPC   PO422980  15.408  29.816   9.632
 1655POPC   GL122981  15.165  29.937   9.270
 1655POPC   GL222982  14.933  29.674   9.119
 1655POPC   C1A22983  15.140  30.070   8.839
 1655POPC   D2A22984  15.210  30.166   8.390
 1655POPC   C3A22985  14.929  30.154   8.060
 1655POPC   C4A22986  15.179  29.913   7.838
 1655POPC   C1B22987  14.922  29.582   8.738
 1655POPC   C2B22988  14.842  29.750   8.364
 1655POPC   C3B22989  14.841  29.558   7.998
 1655POPC   C4B22990  14.931  29.338   7.633
 1656POPC   NC322991  41.969   4.495   9.390
 1656POPC   PO422992  42.617   4.563   9.366
 1656POPC   GL122993  42.399   4.278   9.101
 1656POPC   GL222994  42.135   4.033   9.207
 1656POPC   C1A22995  42.163   4.438   8.748
 1656POPC   D2A22996  42.086   4.720   8.397
 1656POPC   C3A22997  42.126   4.533   7.976
 1656POPC   C4A22998  42.370   4.423   7.612
 1656POPC   C1B22999  42.194   3.916   8.770
 1656POPC   C2B23000  42.303   3.891   8.350
 1656POPC   C3B23001  41.991   4.041   8.100
 1656POPC   C4B23002  41.955   4.123   7.688
 1657POPC   NC323003  24.301  42.768   9.844
 1657POPC   PO423004  24.234  43.306   9.440
 1657POPC   GL123005  24.408  43.210   9.062
 1657POPC   GL223006  24.621  43.457   9.002
 1657POPC   C1A23007  24.319  42.925   8.703
 1657POPC   D2A23008  24.315  42.676   8.353
 1657POPC   C3A23009  24.494  42.866   8.020
 1657POPC   C4A23010  24.396  42.824   7.618
 1657POPC   C1B23011  24.818  43.453   8.653
 1657POPC   C2B23012  24.746  43.600   8.264
 1657POPC   C3B23013  24.789  43.298   7.928
 1657POPC   C4B23014  24.616  43.304   7.526
 1658POPC   NC323015  30.126  20.853   9.817
 1658POPC   PO423016  29.610  20.527   9.474
 1658POPC   GL123017  29.709  20.368   9.101
 1658POPC   GL223018  30.032  20.234   9.148
 1658POPC   C1A23019  29.667  20.488   8.696
 1658POPC   D2A23020  29.608  20.252   8.349
 1658POPC   C3A23021  29.864  20.472   8.098
 1658POPC   C4A23022  29.844  20.648   7.693
 1658POPC   C1B23023  30.180  20.491   8.804
 1658POPC   C2B23024  30.136  20.792   8.470
 1658POPC   C3B23025  30.319  20.745   8.072
 1658POPC   C4B23026  30.280  20.379   7.811
 1659POPC   NC323027  36.220  28.813   9.463
 1659POPC   PO423028  36.284  28.114   9.399
 1659POPC   GL123029  36.134  28.434   9.115
 1659POPC   GL223030  35.967  28.776   9.025
 1659POPC   C1A23031  36.271  28.424   8.730
 1659POPC   D2A23032  36.239  28.173   8.379
 1659POPC   C3A23033  36.195  28.395   8.021
 1659POPC   C4A23034  35.944  28.119   7.781
 1659POPC   C1B23035  35.997  28.819   8.605
 1659POPC   C2B23036  35.791  28.591   8.302
 1659POPC   C3B23037  35.718  28.590   7.882
 1659POPC   C4B23038  35.985  28.581   7.558
 1660POPC   NC323039  12.379  13.132   9.510
 1660POPC   PO423040  11.839  12.714   9.573
 1660POPC   GL123041  12.086  12.765   9.226
 1660POPC   GL223042  12.058  13.090   9.110
 1660POPC   C1A23043  12.157  12.653   8.804
 1660POPC   D2A23044  11.960  12.451   8.473
 1660POPC   C3A23045  12.194  12.453   8.074
 1660POPC   C4A23046  12.183  12.631   7.660
 1660POPC   C1B23047  12.236  13.148   8.696
 1660POPC   C2B23048  12.160  12.912   8.322
 1660POPC   C3B23049  12.096  13.059   7.919
 1660POPC   C4B23050  12.436  13.334   7.886
 1661POPC   NC323051  39.798  43.295   9.628
 1661POPC   PO423052  40.136  42.712   9.493
 1661POPC   GL123053  40.133  43.054   9.184
 1661POPC   GL223054  39.822  43.181   9.141
 1661POPC   C1A23055  40.345  43.149   8.769
 1661POPC   D2A23056  40.503  43.024   8.355
 1661POPC   C3A23057  40.247  43.031   8.019
 1661POPC   C4A23058  40.315  43.045   7.647
 1661POPC   C1B23059  39.840  43.150   8.689
 1661POPC   C2B23060  39.772  43.091   8.239
 1661POPC   C3B23061  39.782  43.101   7.785
 1661POPC   C4B23062  39.650  43.030   7.341
 1662POPC   NC323063  18.486   6.305   9.424
 1662POPC   PO423064  17.863   5.919   9.474
 1662POPC   GL123065  18.230   5.870   9.222
 1662POPC   GL223066  18.160   6.119   9.063
 1662POPC   C1A23067  18.310   5.736   8.783
 1662POPC   D2A23068  18.102   5.694   8.379
 1662POPC   C3A23069  18.345   5.786   8.023
 1662POPC   C4A23070  18.292   5.740   7.575
 1662POPC   C1B23071  18.312   6.254   8.676
 1662POPC   C2B23072  18.265   6.247   8.235
 1662POPC   C3B23073  18.153   6.252   7.776
 1662POPC   C4B23074  18.113   6.149   7.320
 1663POPC   NC323075   8.961  10.706   9.555
 1663POPC   PO423076   9.174  11.345   9.482
 1663POPC   GL123077   8.943  11.091   9.187
 1663POPC   GL223078   9.229  10.909   9.122
 1663POPC   C1A23079   8.677  11.189   8.818
 1663POPC   D2A23080   8.840  11.421   8.459
 1663POPC   C3A23081   8.813  11.391   8.010
 1663POPC   C4A23082   8.954  11.678   7.688
 1663POPC   C1B23083   9.252  11.189   8.763
 1663POPC   C2B23084   9.243  11.069   8.368
 1663POPC   C3B23085   9.098  10.963   7.983
 1663POPC   C4B23086   9.272  11.075   7.632
 1664POPC   NC323087  29.575  34.839   9.224
 1664POPC   PO423088  28.925  34.845   9.510
 1664POPC   GL123089  29.075  34.870   9.109
 1664POPC   GL223090  29.198  34.543   9.052
 1664POPC   C1A23091  29.205  34.861   8.673
 1664POPC   D2A23092  29.249  34.916   8.253
 1664POPC   C3A23093  29.018  34.643   8.039
 1664POPC   C4A23094  29.051  34.413   7.705
 1664POPC   C1B23095  29.531  34.451   8.720
 1664POPC   C2B23096  29.429  34.427   8.305
 1664POPC   C3B23097  29.395  34.144   7.973
 1664POPC   C4B23098  29.623  34.158   7.611
 1665POPC   NC323099  30.850  14.235   9.933
 1665POPC   PO423100  30.535  14.738   9.507
 1665POPC   GL123101  30.672  14.450   9.225
 1665POPC   GL223102  30.366  14.250   9.240
 1665POPC   C1A23103  30.796  14.251   8.847
 1665POPC   D2A23104  30.845  14.444   8.439
 1665POPC   C3A23105  30.720  14.227   8.098
 1665POPC   C4A23106  30.704  14.026   7.739
 1665POPC   C1B23107  30.327  14.476   8.840
 1665POPC   C2B23108  30.293  14.529   8.403
 1665POPC   C3B23109  30.524  14.699   8.084
 1665POPC   C4B23110  30.673  14.541   7.689
 1666POPC   NC323111  39.493  32.107   9.506
 1666POPC   PO423112  38.930  32.307   9.519
 1666POPC   GL123113  39.106  32.239   9.136
 1666POPC   GL223114  39.368  32.466   9.113
 1666POPC   C1A23115  39.246  32.168   8.719
 1666POPC   D2A23116  39.383  32.234   8.336
 1666POPC   C3A23117  39.169  32.092   7.992
 1666POPC   C4A23118  39.131  32.220   7.592
 1666POPC   C1B23119  39.561  32.568   8.723
 1666POPC   C2B23120  39.748  32.601   8.312
 1666POPC   C3B23121  39.561  32.461   7.912
 1666POPC   C4B23122  39.577  32.488   7.477
 1667POPC   NC323123  10.241  24.617   9.213
 1667POPC   PO423124  10.837  24.692   9.430
 1667POPC   GL123125  10.748  24.384   9.065
 1667POPC   GL223126  10.460  24.335   8.864
 1667POPC   C1A23127  10.892  24.117   8.711
 1667POPC   D2A23128  10.960  24.290   8.305
 1667POPC   C3A23129  10.711  24.220   7.962
 1667POPC   C4A23130  10.332  24.266   7.735
 1667POPC   C1B23131  10.701  24.730   8.711
 1667POPC   C2B23132  10.641  24.874   8.304
 1667POPC   C3B23133  10.601  24.727   7.889
 1667POPC   C4B23134  10.930  24.578   7.653
 1668POPC   NC323135  24.220  34.280   9.700
 1668POPC   PO423136  24.773  34.618   9.513
 1668POPC   GL123137  24.456  34.647   9.215
 1668POPC   GL223138  24.659  34.785   8.952
 1668POPC   C1A23139  24.235  34.542   8.830
 1668POPC   D2A23140  24.524  34.646   8.440
 1668POPC   C3A23141  24.350  34.527   8.056
 1668POPC   C4A23142  24.161  34.683   7.682
 1668POPC   C1B23143  24.688  34.323   8.801
 1668POPC   C2B23144  24.782  34.168   8.403
 1668POPC   C3B23145  24.839  34.394   8.016
 1668POPC   C4B23146  24.654  34.546   7.629
 1669POPC   NC323147  44.817  22.658   9.637
 1669POPC   PO423148  44.470  23.277   9.683
 1669POPC   GL123149  44.617  23.123   9.269
 1669POPC   GL223150  44.853  22.859   9.185
 1669POPC   C1A23151  44.591  23.053   8.808
 1669POPC   D2A23152  44.459  22.991   8.421
 1669POPC   C3A23153  44.616  23.278   8.124
 1669POPC   C4A23154  44.789  23.274   7.737
 1669POPC   C1B23155  44.847  22.605   8.798
 1669POPC   C2B23156  44.610  22.512   8.415
 1669POPC   C3B23157  44.814  22.594   8.049
 1669POPC   C4B23158  44.614  22.793   7.750
 1670POPC   NC323159   1.309  41.826   9.580
 1670POPC   PO423160   1.386  41.198   9.387
 1670POPC   GL123161   1.281  41.545   9.145
 1670POPC   GL223162   1.564  41.786   9.140
 1670POPC   C1A23163   1.040  41.544   8.770
 1670POPC   D2A23164   1.242  41.453   8.402
 1670POPC   C3A23165   1.088  41.580   8.022
 1670POPC   C4A23166   1.400  41.492   7.773
 1670POPC   C1B23167   1.399  41.893   8.765
 1670POPC   C2B23168   1.242  41.986   8.368
 1670POPC   C3B23169   1.358  42.019   7.928
 1670POPC   C4B23170   1.084  41.867   7.589
 1671POPC   NC323171  23.819  27.352   9.363
 1671POPC   PO423172  23.375  27.846   9.486
 1671POPC   GL123173  23.562  27.698   9.105
 1671POPC   GL223174  23.900  27.793   9.068
 1671POPC   C1A23175  23.594  27.433   8.727
 1671POPC   D2A23176  23.766  27.264   8.342
 1671POPC   C3A23177  23.383  27.210   8.115
 1671POPC   C4A23178  23.288  27.383   7.709
 1671POPC   C1B23179  23.945  27.808   8.637
 1671POPC   C2B23180  23.603  27.806   8.356
 1671POPC   C3B23181  23.652  27.638   7.967
 1671POPC   C4B23182  23.973  27.858   7.761
 1672POPC   NC323183  26.138  12.953  10.069
 1672POPC   PO423184  26.235  12.892   9.368
 1672POPC   GL123185  26.022  12.853   9.020
 1672POPC   GL223186  25.797  12.595   9.085
 1672POPC   C1A23187  26.175  12.881   8.613
 1672POPC   D2A23188  25.957  13.053   8.321
 1672POPC   C3A23189  26.011  12.909   7.902
 1672POPC   C4A23190  26.355  13.057   7.645
 1672POPC   C1B23191  25.661  12.738   8.658
 1672POPC   C2B23192  25.728  12.603   8.206
 1672POPC   C3B23193  25.628  12.422   7.780
 1672POPC   C4B23194  25.650  12.423   7.318
 1673POPC   NC323195  44.339  32.523   9.511
 1673POPC   PO423196   0.015  32.386   9.483
 1673POPC   GL123197  44.754  32.507   9.164
 1673POPC   GL223198  44.575  32.227   9.143
 1673POPC   C1A23199  44.648  32.438   8.718
 1673POPC   D2A23200  44.532  32.191   8.401
 1673POPC   C3A23201  44.533  32.461   8.081
 1673POPC   C4A23202  44.749  32.474   7.703
 1673POPC   C1B23203  44.271  32.060   8.813
 1673POPC   C2B23204  44.099  31.920   8.433
 1673POPC   C3B23205  44.320  31.913   8.045
 1673POPC   C4B23206  44.373  32.150   7.692
 1674POPC   NC323207  41.293  29.396   9.279
 1674POPC   PO423208  41.716  29.841   9.564
 1674POPC   GL123209  41.719  29.936   9.149
 1674POPC   GL223210  41.384  29.865   9.048
 1674POPC   C1A23211  41.773  29.903   8.708
 1674POPC   D2A23212  41.485  29.951   8.396
 1674POPC   C3A23213  41.664  30.053   8.054
 1674POPC   C4A23214  41.574  29.929   7.676
 1674POPC   C1B23215  41.324  29.573   8.687
 1674POPC   C2B23216  41.105  29.522   8.330
 1674POPC   C3B23217  41.129  29.855   8.036
 1674POPC   C4B23218  41.099  29.842   7.622
 1675POPC   NC323219  25.104  44.591   9.381
 1675POPC   PO423220  25.684  44.249   9.511
 1675POPC   GL123221  25.505  44.351   9.104
 1675POPC   GL223222  25.728  44.651   9.089
 1675POPC   C1A23223  25.157  44.392   8.760
 1675POPC   D2A23224  25.087  44.655   8.379
 1675POPC   C3A23225  25.247  44.440   8.032
 1675POPC   C4A23226  25.365  44.299   7.652
 1675POPC   C1B23227  25.549  44.758   8.688
 1675POPC   C2B23228  25.623  44.722   8.254
 1675POPC   C3B23229  25.465  44.893   7.870
 1675POPC   C4B23230  25.136  44.786   7.650
 1676POPC   NC323231  22.677  41.926   9.476
 1676POPC   PO423232  23.074  41.392   9.528
 1676POPC   GL123233  22.832  41.429   9.155
 1676POPC   GL223234  22.963  41.766   9.078
 1676POPC   C1A23235  22.905  41.328   8.701
 1676POPC   D2A23236  23.238  41.617   8.495
 1676POPC   C3A23237  23.151  41.751   8.052
 1676POPC   C4A23238  22.811  41.520   7.813
 1676POPC   C1B23239  22.751  41.794   8.730
 1676POPC   C2B23240  22.739  41.655   8.326
 1676POPC   C3B23241  22.582  41.943   8.020
 1676POPC   C4B23242  22.570  42.114   7.629
 1677POPC   NC323243  33.520  33.699   9.520
 1677POPC   PO423244  34.238  33.522   9.368
 1677POPC   GL123245  34.001  33.753   9.031
 1677POPC   GL223246  33.635  33.884   9.060
 1677POPC   C1A23247  33.821  33.704   8.596
 1677POPC   D2A23248  33.514  33.614   8.288
 1677POPC   C3A23249  33.811  33.654   7.975
 1677POPC   C4A23250  33.956  34.018   7.756
 1677POPC   C1B23251  33.415  33.977   8.664
 1677POPC   C2B23252  33.579  34.113   8.247
 1677POPC   C3B23253  33.446  33.995   7.828
 1677POPC   C4B23254  33.432  33.582   7.620
 1678POPC   NC323255  30.188  24.608   9.425
 1678POPC   PO423256  29.702  24.210   9.374
 1678POPC   GL123257  29.952  24.347   9.022
 1678POPC   GL223258  29.930  24.720   9.009
 1678POPC   C1A23259  29.983  24.369   8.567
 1678POPC   D2A23260  30.127  24.142   8.215
 1678POPC   C3A23261  29.878  24.295   7.888
 1678POPC   C4A23262  29.685  24.698   7.884
 1678POPC   C1B23263  30.316  24.691   8.789
 1678POPC   C2B23264  30.187  24.862   8.440
 1678POPC   C3B23265  30.169  24.682   8.066
 1678POPC   C4B23266  30.302  24.841   7.679
 1679POPC   NC323267  38.758  16.604   9.402
 1679POPC   PO423268  38.054  16.857   9.475
 1679POPC   GL123269  38.136  16.907   9.078
 1679POPC   GL223270  38.485  16.855   9.051
 1679POPC   C1A23271  38.192  17.078   8.684
 1679POPC   D2A23272  38.256  16.816   8.340
 1679POPC   C3A23273  38.363  17.002   7.957
 1679POPC   C4A23274  38.535  16.678   7.744
 1679POPC   C1B23275  38.721  17.017   8.697
 1679POPC   C2B23276  38.778  16.986   8.249
 1679POPC   C3B23277  38.917  17.189   7.872
 1679POPC   C4B23278  38.968  17.266   7.416
 1680POPC   NC323279  28.535   3.442   9.678
 1680POPC   PO423280  29.235   3.561   9.517
 1680POPC   GL123281  29.303   3.607   9.106
 1680POPC   GL223282  29.587   3.419   9.115
 1680POPC   C1A23283  29.167   3.699   8.696
 1680POPC   D2A23284  29.184   3.770   8.261
 1680POPC   C3A23285  28.943   3.724   7.880
 1680POPC   C4A23286  29.047   3.756   7.436
 1680POPC   C1B23287  29.613   3.290   8.724
 1680POPC   C2B23288  29.347   3.303   8.394
 1680POPC   C3B23289  29.345   3.364   7.957
 1680POPC   C4B23290  29.015   3.070   7.852
 1681POPC   NC323291  16.801  44.334   9.388
 1681POPC   PO423292  16.760  43.646   9.466
 1681POPC   GL123293  16.486  43.816   9.198
 1681POPC   GL223294  16.733  44.010   9.019
 1681POPC   C1A23295  16.371  43.777   8.767
 1681POPC   D2A23296  16.603  43.906   8.385
 1681POPC   C3A23297  16.458  43.865   7.951
 1681POPC   C4A23298  16.579  44.064   7.522
 1681POPC   C1B23299  16.985  43.801   8.741
 1681POPC   C2B23300  17.149  43.921   8.352
 1681POPC   C3B23301  16.932  44.121   8.009
 1681POPC   C4B23302  17.068  44.022   7.605
 1682POPC   NC323303  39.443  40.876   9.532
 1682POPC   PO423304  38.744  40.782   9.623
 1682POPC   GL123305  39.037  40.699   9.261
 1682POPC   GL223306  39.137  40.984   9.097
 1682POPC   C1A23307  39.036  40.552   8.834
 1682POPC   D2A23308  38.957  40.812   8.475
 1682POPC   C3A23309  39.188  40.690   8.155
 1682POPC   C4A23310  39.166  40.770   7.753
 1682POPC   C1B23311  39.477  40.938   8.796
 1682POPC   C2B23312  39.625  40.676   8.454
 1682POPC   C3B23313  39.658  40.809   8.043
 1682POPC   C4B23314  39.595  40.953   7.603
 1683POPC   NC323315  13.383   3.492   9.310
 1683POPC   PO423316  13.709   3.837   9.692
 1683POPC   GL123317  13.809   3.821   9.236
 1683POPC   GL223318  13.945   3.557   8.992
 1683POPC   C1A23319  13.612   3.883   8.817
 1683POPC   D2A23320  13.848   3.713   8.453
 1683POPC   C3A23321  13.607   3.682   8.097
 1683POPC   C4A23322  13.650   3.553   7.689
 1683POPC   C1B23323  13.616   3.330   8.700
 1683POPC   C2B23324  13.441   3.229   8.270
 1683POPC   C3B23325  13.600   3.057   7.864
 1683POPC   C4B23326  13.475   3.144   7.433
 1684POPC   NC323327   4.119  43.183   9.506
 1684POPC   PO423328   4.731  42.726   9.575
 1684POPC   GL123329   4.453  42.908   9.226
 1684POPC   GL223330   4.395  43.244   9.050
 1684POPC   C1A23331   4.313  42.773   8.820
 1684POPC   D2A23332   4.454  42.759   8.378
 1684POPC   C3A23333   4.302  43.006   7.978
 1684POPC   C4A23334   4.520  43.133   7.583
 1684POPC   C1B23335   4.058  43.298   8.681
 1684POPC   C2B23336   3.933  43.464   8.238
 1684POPC   C3B23337   4.014  43.510   7.764
 1684POPC   C4B23338   3.830  43.505   7.289
 1685POPC   NC323339  36.680  21.855   9.518
 1685POPC   PO423340  37.151  22.402   9.597
 1685POPC   GL123341  37.110  22.124   9.228
 1685POPC   GL223342  36.777  22.139   9.096
 1685POPC   C1A23343  37.211  22.196   8.793
 1685POPC   D2A23344  36.935  22.416   8.509
 1685POPC   C3A23345  36.982  22.433   8.050
 1685POPC   C4A23346  36.872  22.464   7.573
 1685POPC   C1B23347  36.816  21.897   8.700
 1685POPC   C2B23348  36.765  21.975   8.267
 1685POPC   C3B23349  36.619  22.138   7.885
 1685POPC   C4B23350  36.582  22.085   7.399
 1686POPC   NC323351  15.751  29.496   9.595
 1686POPC   PO423352  16.123  28.996   9.448
 1686POPC   GL123353  15.880  29.232   9.161
 1686POPC   GL223354  16.168  29.378   9.054
 1686POPC   C1A23355  15.701  29.073   8.772
 1686POPC   D2A23356  15.829  28.929   8.346
 1686POPC   C3A23357  15.734  29.173   7.988
 1686POPC   C4A23358  15.934  29.507   7.799
 1686POPC   C1B23359  16.188  29.148   8.710
 1686POPC   C2B23360  16.339  29.054   8.337
 1686POPC   C3B23361  16.248  29.135   7.935
 1686POPC   C4B23362  16.172  28.873   7.588
 1687POPC   NC323363  35.614  29.216   9.428
 1687POPC   PO423364  34.937  29.366   9.562
 1687POPC   GL123365  35.095  29.192   9.181
 1687POPC   GL223366  35.299  28.864   9.158
 1687POPC   C1A23367  35.310  29.250   8.791
 1687POPC   D2A23368  35.259  29.426   8.371
 1687POPC   C3A23369  35.272  29.251   7.952
 1687POPC   C4A23370  35.575  29.207   7.608
 1687POPC   C1B23371  35.465  28.774   8.714
 1687POPC   C2B23372  35.333  28.821   8.241
 1687POPC   C3B23373  35.266  28.785   7.757
 1687POPC   C4B23374  35.564  28.753   7.372
 1688POPC   NC323375   9.206  10.045   9.351
 1688POPC   PO423376   9.323   9.395   9.460
 1688POPC   GL123377   9.022   9.627   9.124
 1688POPC   GL223378   8.753   9.912   9.101
 1688POPC   C1A23379   9.044   9.842   8.705
 1688POPC   D2A23380   8.882   9.902   8.299
 1688POPC   C3A23381   9.082   9.691   7.965
 1688POPC   C4A23382   9.132   9.694   7.520
 1688POPC   C1B23383   8.573   9.673   8.799
 1688POPC   C2B23384   8.446   9.639   8.395
 1688POPC   C3B23385   8.556   9.615   7.983
 1688POPC   C4B23386   8.665   9.552   7.593
 1689POPC   NC323387  18.352   9.238   9.442
 1689POPC   PO423388  18.263   8.621   9.164
 1689POPC   GL123389  18.237   8.986   8.936
 1689POPC   GL223390  18.467   9.274   8.954
 1689POPC   C1A23391  18.203   8.985   8.510
 1689POPC   D2A23392  18.211   8.603   8.242
 1689POPC   C3A23393  18.163   8.826   7.888
 1689POPC   C4A23394  17.904   9.169   7.855
 1689POPC   C1B23395  18.705   9.016   8.666
 1689POPC   C2B23396  18.636   8.929   8.224
 1689POPC   C3B23397  18.627   9.016   7.799
 1689POPC   C4B23398  18.353   9.229   7.573
 1690POPC   NC323399  29.818  41.224   9.411
 1690POPC   PO423400  30.189  40.628   9.446
 1690POPC   GL123401  29.926  40.576   9.085
 1690POPC   GL223402  29.735  40.874   9.054
 1690POPC   C1A23403  29.640  40.471   8.768
 1690POPC   D2A23404  29.646  40.806   8.480
 1690POPC   C3A23405  29.912  40.770   8.111
 1690POPC   C4A23406  29.915  40.537   7.731
 1690POPC   C1B23407  30.023  41.064   8.764
 1690POPC   C2B23408  29.928  41.245   8.367
 1690POPC   C3B23409  30.035  41.242   7.955
 1690POPC   C4B23410  29.773  41.023   7.670
 1691POPC   NC323411   1.775  40.159   9.434
 1691POPC   PO423412   2.435  39.955   9.558
 1691POPC   GL123413   2.162  39.947   9.115
 1691POPC   GL223414   1.897  40.177   8.964
 1691POPC   C1A23415   1.957  39.738   8.737
 1691POPC   D2A23416   1.710  39.643   8.376
 1691POPC   C3A23417   1.828  39.836   7.988
 1691POPC   C4A23418   1.961  39.956   7.585
 1691POPC   C1B23419   2.191  40.202   8.675
 1691POPC   C2B23420   2.204  39.992   8.324
 1691POPC   C3B23421   2.136  40.239   7.986
 1691POPC   C4B23422   1.976  40.472   7.673
 1692POPC   NC323423  21.456  27.221   9.655
 1692POPC   PO423424  21.684  27.888   9.714
 1692POPC   GL123425  21.599  27.657   9.266
 1692POPC   GL223426  21.329  27.387   9.189
 1692POPC   C1A23427  21.655  27.402   8.822
 1692POPC   D2A23428  21.396  27.325   8.444
 1692POPC   C3A23429  21.587  27.373   8.041
 1692POPC   C4A23430  21.541  27.634   7.688
 1692POPC   C1B23431  21.058  27.451   8.818
 1692POPC   C2B23432  21.009  27.702   8.461
 1692POPC   C3B23433  21.206  27.740   8.088
 1692POPC   C4B23434  21.034  27.616   7.730
 1693POPC   NC323435  14.109  32.375   9.508
 1693POPC   PO423436  13.451  32.282   9.457
 1693POPC   GL123437  13.715  32.332   9.107
 1693POPC   GL223438  13.881  31.993   9.084
 1693POPC   C1A23439  13.764  32.471   8.663
 1693POPC   D2A23440  13.822  32.428   8.206
 1693POPC   C3A23441  13.655  32.701   7.882
 1693POPC   C4A23442  13.381  32.564   7.556
 1693POPC   C1B23443  13.516  32.009   8.768
 1693POPC   C2B23444  13.423  32.114   8.308
 1693POPC   C3B23445  13.562  32.170   7.853
 1693POPC   C4B23446  13.955  32.026   7.597
 1694POPC   NC323447   1.170  32.614   9.384
 1694POPC   PO423448   1.189  33.337   9.347
 1694POPC   GL123449   1.292  33.012   9.072
 1694POPC   GL223450   0.935  32.933   9.042
 1694POPC   C1A23451   1.266  32.795   8.662
 1694POPC   D2A23452   0.930  32.831   8.340
 1694POPC   C3A23453   1.077  32.703   7.936
 1694POPC   C4A23454   1.502  32.633   7.808
 1694POPC   C1B23455   0.992  33.256   8.728
 1694POPC   C2B23456   1.270  33.283   8.404
 1694POPC   C3B23457   1.228  33.196   7.982
 1694POPC   C4B23458   1.334  33.056   7.583
 1695POPC   NC323459  36.251  18.513   9.458
 1695POPC   PO423460  36.096  17.849   9.325
 1695POPC   GL123461  36.146  18.216   9.045
 1695POPC   GL223462  36.468  18.287   9.055
 1695POPC   C1A23463  36.239  18.499   8.639
 1695POPC   D2A23464  35.998  18.545   8.263
 1695POPC   C3A23465  35.998  18.262   7.900
 1695POPC   C4A23466  36.030  18.594   7.612
 1695POPC   C1B23467  36.459  18.050   8.679
 1695POPC   C2B23468  36.385  18.172   8.265
 1695POPC   C3B23469  36.456  18.484   7.958
 1695POPC   C4B23470  36.424  18.272   7.575
 1696POPC   NC323471  17.055   9.348   9.500
 1696POPC   PO423472  16.633   8.784   9.660
 1696POPC   GL123473  16.690   8.613   9.225
 1696POPC   GL223474  17.007   8.663   9.163
 1696POPC   C1A23475  16.723   8.555   8.758
 1696POPC   D2A23476  16.711   8.815   8.403
 1696POPC   C3A23477  16.799   8.698   7.994
 1696POPC   C4A23478  16.651   8.729   7.556
 1696POPC   C1B23479  16.783   9.039   8.953
 1696POPC   C2B23480  16.910   9.257   8.567
 1696POPC   C3B23481  16.911   9.300   8.130
 1696POPC   C4B23482  16.961   9.098   7.712
 1697POPC   NC323483  13.851   4.872   9.979
 1697POPC   PO423484  14.358   5.180   9.720
 1697POPC   GL123485  14.264   5.316   9.205
 1697POPC   GL223486  14.382   4.999   9.051
 1697POPC   C1A23487  14.224   5.306   8.713
 1697POPC   D2A23488  14.422   5.160   8.344
 1697POPC   C3A23489  14.332   5.183   7.925
 1697POPC   C4A23490  14.320   5.492   7.607
 1697POPC   C1B23491  14.365   4.736   8.660
 1697POPC   C2B23492  14.629   4.713   8.251
 1697POPC   C3B23493  14.582   4.681   7.800
 1697POPC   C4B23494  14.161   4.726   7.730
 1698POPC   NC323495  31.958   2.859   9.388
 1698POPC   PO423496  31.327   2.975   9.456
 1698POPC   GL123497  31.538   3.065   9.128
 1698POPC   GL223498  31.577   2.692   9.098
 1698POPC   C1A23499  31.627   3.012   8.716
 1698POPC   D2A23500  31.712   2.730   8.408
 1698POPC   C3A23501  31.506   2.830   8.045
 1698POPC   C4A23502  31.588   2.952   7.656
 1698POPC   C1B23503  31.364   2.532   8.773
 1698POPC   C2B23504  31.196   2.571   8.389
 1698POPC   C3B23505  31.244   2.422   7.976
 1698POPC   C4B23506  31.182   2.622   7.593
 1699POPC   NC323507  12.066   2.674   9.650
 1699POPC   PO423508  12.187   3.309   9.513
 1699POPC   GL123509  12.013   2.956   9.242
 1699POPC   GL223510  12.312   2.760   9.195
 1699POPC   C1A23511  11.869   2.912   8.812
 1699POPC   D2A23512  11.998   3.118   8.450
 1699POPC   C3A23513  11.874   2.988   8.055
 1699POPC   C4A23514  12.112   3.016   7.684
 1699POPC   C1B23515  12.316   2.535   8.817
 1699POPC   C2B23516  12.129   2.628   8.459
 1699POPC   C3B23517  12.197   2.594   8.069
 1699POPC   C4B23518  11.830   2.522   7.834
 1700POPC   NC323519  20.492  13.446   9.527
 1700POPC   PO423520  20.914  13.974   9.544
 1700POPC   GL123521  20.732  13.744   9.185
 1700POPC   GL223522  20.871  13.403   9.143
 1700POPC   C1A23523  20.536  13.707   8.771
 1700POPC   D2A23524  20.698  13.642   8.371
 1700POPC   C3A23525  20.515  13.672   7.964
 1700POPC   C4A23526  20.729  13.875   7.606
 1700POPC   C1B23527  20.685  13.217   8.764
 1700POPC   C2B23528  20.475  13.183   8.378
 1700POPC   C3B23529  20.654  13.167   7.993
 1700POPC   C4B23530  20.814  13.400   7.654
 1701POPC   NC323531   7.200  13.428   9.510
 1701POPC   PO423532   6.627  13.730   9.491
 1701POPC   GL123533   6.647  13.575   9.117
 1701POPC   GL223534   6.962  13.438   9.074
 1701POPC   C1A23535   6.467  13.773   8.765
 1701POPC   D2A23536   6.228  13.541   8.474
 1701POPC   C3A23537   6.435  13.643   8.128
 1701POPC   C4A23538   6.416  13.318   7.854
 1701POPC   C1B23539   7.012  13.819   8.834
 1701POPC   C2B23540   6.896  13.753   8.418
 1701POPC   C3B23541   6.922  13.562   8.022
 1701POPC   C4B23542   6.720  13.810   7.710
 1702POPC   NC323543  28.751  35.274   9.411
 1702POPC   PO423544  29.457  35.355   9.371
 1702POPC   GL123545  29.260  35.337   9.019
 1702POPC   GL223546  29.016  35.567   9.109
 1702POPC   C1A23547  29.110  35.364   8.620
 1702POPC   D2A23548  29.229  35.569   8.286
 1702POPC   C3A23549  29.225  35.322   7.951
 1702POPC   C4A23550  29.589  35.329   7.728
 1702POPC   C1B23551  28.718  35.665   8.804
 1702POPC   C2B23552  28.655  35.521   8.399
 1702POPC   C3B23553  28.781  35.607   8.030
 1702POPC   C4B23554  28.819  35.438   7.663
 1703POPC   NC323555   4.138  31.449   9.529
 1703POPC   PO423556   4.206  32.082   9.552
 1703POPC   GL123557   4.532  31.942   9.232
 1703POPC   GL223558   4.402  31.599   9.109
 1703POPC   C1A23559   4.570  31.926   8.765
 1703POPC   D2A23560   4.396  31.584   8.545
 1703POPC   C3A23561   4.317  31.547   8.138
 1703POPC   C4A23562   4.561  31.697   7.824
 1703POPC   C1B23563   4.281  31.207   8.856
 1703POPC   C2B23564   4.525  30.975   8.555
 1703POPC   C3B23565   4.522  31.050   8.118
 1703POPC   C4B23566   4.274  31.204   7.762
 1704POPC   NC323567  28.603   5.523   9.634
 1704POPC   PO423568  28.257   6.062   9.420
 1704POPC   GL123569  28.504   5.871   9.058
 1704POPC   GL223570  28.571   5.511   9.117
 1704POPC   C1A23571  28.619   6.086   8.652
 1704POPC   D2A23572  28.771   6.114   8.214
 1704POPC   C3A23573  28.473   5.926   7.893
 1704POPC   C4A23574  28.178   5.600   7.856
 1704POPC   C1B23575  28.733   5.553   8.712
 1704POPC   C2B23576  28.584   5.665   8.342
 1704POPC   C3B23577  28.900   5.643   8.039
 1704POPC   C4B23578  28.798   5.579   7.617
 1705POPC   NC323579  24.331   8.028   9.373
 1705POPC   PO423580  24.748   8.627   9.365
 1705POPC   GL123581  24.408   8.484   9.064
 1705POPC   GL223582  24.409   8.165   8.905
 1705POPC   C1A23583  24.257   8.537   8.609
 1705POPC   D2A23584  24.222   8.218   8.287
 1705POPC   C3A23585  24.411   8.096   7.910
 1705POPC   C4A23586  24.483   8.249   7.503
 1705POPC   C1B23587  24.658   7.883   8.701
 1705POPC   C2B23588  24.548   7.791   8.307
 1705POPC   C3B23589  24.741   7.681   7.977
 1705POPC   C4B23590  24.780   7.853   7.597
 1706POPC   NC323591   5.171  40.744   9.457
 1706POPC   PO423592   4.586  40.404   9.527
 1706POPC   GL123593   4.843  40.469   9.143
 1706POPC   GL223594   4.979  40.835   9.024
 1706POPC   C1A23595   5.073  40.415   8.767
 1706POPC   D2A23596   5.047  40.635   8.405
 1706POPC   C3A23597   5.023  40.429   8.002
 1706POPC   C4A23598   5.053  40.566   7.589
 1706POPC   C1B23599   4.941  41.188   8.779
 1706POPC   C2B23600   5.035  41.146   8.391
 1706POPC   C3B23601   5.142  40.943   7.994
 1706POPC   C4B23602   4.938  41.123   7.675
 1707POPC   NC323603  24.193   4.681   9.375
 1707POPC   PO423604  24.831   4.799   9.495
 1707POPC   GL123605  24.572   4.956   9.180
 1707POPC   GL223606  24.795   5.168   9.078
 1707POPC   C1A23607  24.382   5.050   8.771
 1707POPC   D2A23608  24.634   5.074   8.391
 1707POPC   C3A23609  24.466   5.348   8.051
 1707POPC   C4A23610  24.486   4.962   7.840
 1707POPC   C1B23611  24.729   5.429   8.740
 1707POPC   C2B23612  24.909   5.476   8.339
 1707POPC   C3B23613  24.954   5.259   7.962
 1707POPC   C4B23614  24.781   5.309   7.557
 1708POPC   NC323615  12.050  42.607   9.275
 1708POPC   PO423616  12.216  41.984   9.567
 1708POPC   GL123617  12.085  42.042   9.113
 1708POPC   GL223618  12.353  42.189   9.119
 1708POPC   C1A23619  11.997  42.207   8.692
 1708POPC   D2A23620  12.118  42.575   8.444
 1708POPC   C3A23621  11.830  42.573   8.117
 1708POPC   C4A23622  11.909  42.527   7.668
 1708POPC   C1B23623  12.472  42.342   8.759
 1708POPC   C2B23624  12.492  42.219   8.362
 1708POPC   C3B23625  12.240  42.272   8.030
 1708POPC   C4B23626  12.377  42.273   7.662
 1709POPC   NC323627  42.858   4.949   9.455
 1709POPC   PO423628  43.460   5.221   9.434
 1709POPC   GL123629  43.197   5.158   9.135
 1709POPC   GL223630  43.284   4.841   9.136
 1709POPC   C1A23631  42.965   5.022   8.777
 1709POPC   D2A23632  42.788   4.787   8.426
 1709POPC   C3A23633  42.793   5.039   8.052
 1709POPC   C4A23634  42.977   5.082   7.667
 1709POPC   C1B23635  43.441   4.822   8.744
 1709POPC   C2B23636  43.271   4.949   8.361
 1709POPC   C3B23637  43.427   4.946   7.982
 1709POPC   C4B23638  43.618   5.089   7.674
 1710POPC   NC323639  30.877  36.300   9.509
 1710POPC   PO423640  30.329  36.426   9.073
 1710POPC   GL123641  30.670  36.155   8.992
 1710POPC   GL223642  31.010  36.224   9.041
 1710POPC   C1A23643  30.862  36.092   8.594
 1710POPC   D2A23644  30.677  35.868   8.311
 1710POPC   C3A23645  30.696  36.013   7.895
 1710POPC   C4A23646  30.508  35.786   7.549
 1710POPC   C1B23647  31.209  36.508   8.717
 1710POPC   C2B23648  31.163  36.392   8.279
 1710POPC   C3B23649  31.155  36.258   7.860
 1710POPC   C4B23650  30.848  36.392   7.587
 1711POPC   NC323651  29.560  30.359   9.317
 1711POPC   PO423652  29.088  30.263   9.700
 1711POPC   GL123653  28.961  30.071   9.274
 1711POPC   GL223654  29.274  29.964   9.159
 1711POPC   C1A23655  28.816  29.962   8.858
 1711POPC   D2A23656  28.962  29.775   8.482
 1711POPC   C3A23657  29.048  29.945   8.109
 1711POPC   C4A23658  28.858  29.941   7.705
 1711POPC   C1B23659  29.303  30.107   8.741
 1711POPC   C2B23660  29.432  30.225   8.343
 1711POPC   C3B23661  29.421  30.219   7.917
 1711POPC   C4B23662  29.356  29.912   7.637
 1712POPC   NC323663   3.696  10.065   9.717
 1712POPC   PO423664   3.618  10.776   9.631
 1712POPC   GL123665   3.611  10.584   9.204
 1712POPC   GL223666   3.753  10.236   9.196
 1712POPC   C1A23667   3.444  10.617   8.762
 1712POPC   D2A23668   3.366  10.402   8.355
 1712POPC   C3A23669   3.421  10.651   7.957
 1712POPC   C4A23670   3.753  10.938   7.764
 1712POPC   C1B23671   3.935  10.451   8.818
 1712POPC   C2B23672   3.844  10.642   8.412
 1712POPC   C3B23673   3.909  10.504   7.980
 1712POPC   C4B23674   3.687  10.249   7.681
 1713POPC   NC323675  26.027  29.177   9.569
 1713POPC   PO423676  26.345  28.614   9.488
 1713POPC   GL123677  26.350  28.997   9.179
 1713POPC   GL223678  25.995  29.065   9.082
 1713POPC   C1A23679  26.379  29.230   8.749
 1713POPC   D2A23680  26.149  29.159   8.333
 1713POPC   C3A23681  26.192  29.332   7.911
 1713POPC   C4A23682  26.142  29.135   7.540
 1713POPC   C1B23683  25.807  29.230   8.723
 1713POPC   C2B23684  25.591  29.041   8.385
 1713POPC   C3B23685  25.766  29.047   7.971
 1713POPC   C4B23686  25.715  29.386   7.688
 1714POPC   NC323687  19.804  23.150   9.704
 1714POPC   PO423688  19.873  23.720   9.352
 1714POPC   GL123689  19.876  23.985   9.019
 1714POPC   GL223690  19.542  23.888   8.841
 1714POPC   C1A23691  19.986  24.015   8.593
 1714POPC   D2A23692  19.746  23.866   8.226
 1714POPC   C3A23693  19.909  24.113   7.890
 1714POPC   C4A23694  20.226  23.982   7.590
 1714POPC   C1B23695  19.685  23.510   8.641
 1714POPC   C2B23696  19.803  23.208   8.310
 1714POPC   C3B23697  19.954  23.292   7.920
 1714POPC   C4B23698  19.825  23.653   7.698
 1715POPC   NC323699  16.242  39.853   9.448
 1715POPC   PO423700  15.779  40.406   9.472
 1715POPC   GL123701  15.676  40.143   9.085
 1715POPC   GL223702  15.937  39.881   9.033
 1715POPC   C1A23703  15.749  40.090   8.609
 1715POPC   D2A23704  16.031  39.858   8.319
 1715POPC   C3A23705  15.805  39.825   7.911
 1715POPC   C4A23706  15.620  40.015   7.520
 1715POPC   C1B23707  16.156  40.279   8.873
 1715POPC   C2B23708  16.259  40.385   8.428
 1715POPC   C3B23709  16.176  40.227   7.980
 1715POPC   C4B23710  16.086  40.218   7.534
 1716POPC   NC323711  13.806  36.710   9.503
 1716POPC   PO423712  13.462  37.285   9.501
 1716POPC   GL123713  13.614  37.072   9.175
 1716POPC   GL223714  13.401  36.805   9.204
 1716POPC   C1A23715  13.443  37.018   8.754
 1716POPC   D2A23716  13.627  36.845   8.414
 1716POPC   C3A23717  13.476  37.053   8.084
 1716POPC   C4A23718  13.683  36.935   7.750
 1716POPC   C1B23719  13.257  36.560   8.871
 1716POPC   C2B23720  13.213  36.539   8.433
 1716POPC   C3B23721  13.326  36.568   8.022
 1716POPC   C4B23722  13.252  36.654   7.610
 1717POPC   NC323723  33.167   5.368   9.547
 1717POPC   PO423724  33.060   4.749   9.774
 1717POPC   GL123725  33.012   4.909   9.330
 1717POPC   GL223726  32.667   5.023   9.318
 1717POPC   C1A23727  32.992   5.204   8.936
 1717POPC   D2A23728  33.169   5.302   8.528
 1717POPC   C3A23729  32.901   5.423   8.196
 1717POPC   C4A23730  33.038   5.291   7.792
 1717POPC   C1B23731  32.730   4.755   8.925
 1717POPC   C2B23732  32.809   4.909   8.490
 1717POPC   C3B23733  32.950   4.859   8.056
 1717POPC   C4B23734  32.742   4.886   7.648
 1718POPC   NC323735  17.625  18.248  10.370
 1718POPC   PO423736  17.591  18.359   9.636
 1718POPC   GL123737  17.561  18.306   9.166
 1718POPC   GL223738  17.379  17.999   9.072
 1718POPC   C1A23739  17.669  18.239   8.697
 1718POPC   D2A23740  17.465  18.369   8.305
 1718POPC   C3A23741  17.663  18.243   7.919
 1718POPC   C4A23742  17.769  18.373   7.507
 1718POPC   C1B23743  17.162  18.288   8.766
 1718POPC   C2B23744  16.993  18.172   8.345
 1718POPC   C3B23745  17.165  18.149   7.920
 1718POPC   C4B23746  17.431  17.948   7.556
 1719POPC   NC323747  44.334  14.551   9.485
 1719POPC   PO423748  44.839  14.122   9.560
 1719POPC   GL123749  44.756  14.325   9.178
 1719POPC   GL223750  44.436  14.267   9.088
 1719POPC   C1A23751  44.711  14.590   8.787
 1719POPC   D2A23752  44.500  14.687   8.392
 1719POPC   C3A23753  44.764  14.688   8.072
 1719POPC   C4A23754  44.508  14.579   7.720
 1719POPC   C1B23755  44.605  14.078   8.747
 1719POPC   C2B23756  44.718  14.238   8.374
 1719POPC   C3B23757  44.750  14.184   7.958
 1719POPC   C4B23758   0.011  14.419   7.706
 1720POPC   NC323759   7.799  25.095   9.493
 1720POPC   PO423760   8.463  25.252   9.528
 1720POPC   GL123761   8.175  25.333   9.207
 1720POPC   GL223762   8.095  25.032   9.081
 1720POPC   C1A23763   8.094  25.439   8.778
 1720POPC   D2A23764   7.995  25.271   8.400
 1720POPC   C3A23765   7.987  25.495   8.002
 1720POPC   C4A23766   8.175  25.657   7.601
 1720POPC   C1B23767   8.054  24.846   8.721
 1720POPC   C2B23768   7.847  24.801   8.303
 1720POPC   C3B23769   7.784  25.021   7.918
 1720POPC   C4B23770   8.109  25.158   7.645
 1721POPC   NC323771  20.151  37.517   9.456
 1721POPC   PO423772  19.586  37.821   9.510
 1721POPC   GL123773  19.824  37.849   9.130
 1721POPC   GL223774  19.601  38.128   9.049
 1721POPC   C1A23775  19.934  37.620   8.711
 1721POPC   D2A23776  19.855  37.402   8.278
 1721POPC   C3A23777  19.810  37.643   7.880
 1721POPC   C4A23778  19.834  37.711   7.397
 1721POPC   C1B23779  19.526  37.954   8.659
 1721POPC   C2B23780  19.712  37.964   8.262
 1721POPC   C3B23781  19.597  38.112   7.830
 1721POPC   C4B23782  19.473  38.068   7.371
 1722POPC   NC323783  28.388  32.658   9.793
 1722POPC   PO423784  28.211  33.314   9.639
 1722POPC   GL123785  28.177  33.320   9.179
 1722POPC   GL223786  28.417  33.078   9.057
 1722POPC   C1A23787  28.074  33.259   8.718
 1722POPC   D2A23788  28.127  32.954   8.407
 1722POPC   C3A23789  28.246  33.075   8.021
 1722POPC   C4A23790  28.089  33.161   7.688
 1722POPC   C1B23791  28.550  32.835   8.668
 1722POPC   C2B23792  28.550  32.729   8.214
 1722POPC   C3B23793  28.681  32.878   7.810
 1722POPC   C4B23794  28.579  33.267   7.627
 1723POPC   NC323795  26.696  22.653   9.589
 1723POPC   PO423796  26.817  21.965   9.701
 1723POPC   GL123797  26.869  22.258   9.317
 1723POPC   GL223798  26.555  22.417   9.171
 1723POPC   C1A23799  26.914  22.232   8.873
 1723POPC   D2A23800  27.117  22.068   8.528
 1723POPC   C3A23801  26.845  21.923   8.193
 1723POPC   C4A23802  26.787  22.094   7.798
 1723POPC   C1B23803  26.602  22.641   8.765
 1723POPC   C2B23804  26.704  22.441   8.373
 1723POPC   C3B23805  26.490  22.607   8.020
 1723POPC   C4B23806  26.471  22.465   7.625
 1724POPC   NC323807  14.573  36.307   9.565
 1724POPC   PO423808  14.201  35.693   9.601
 1724POPC   GL123809  14.239  35.998   9.275
 1724POPC   GL223810  14.569  35.952   9.126
 1724POPC   C1A23811  14.203  36.265   8.905
 1724POPC   D2A23812  14.127  36.146   8.479
 1724POPC   C3A23813  14.309  36.289   8.095
 1724POPC   C4A23814  14.125  36.175   7.699
 1724POPC   C1B23815  14.630  36.030   8.654
 1724POPC   C2B23816  14.716  35.929   8.214
 1724POPC   C3B23817  14.775  36.102   7.819
 1724POPC   C4B23818  14.846  36.544   7.790
 1725POPC   NC323819  40.830  35.089   9.553
 1725POPC   PO423820  41.036  35.753   9.479
 1725POPC   GL123821  41.084  35.442   9.154
 1725POPC   GL223822  40.747  35.386   9.077
 1725POPC   C1A23823  41.065  35.474   8.697
 1725POPC   D2A23824  40.813  35.351   8.370
 1725POPC   C3A23825  40.988  35.402   7.982
 1725POPC   C4A23826  40.921  35.457   7.552
 1725POPC   C1B23827  40.509  35.601   8.720
 1725POPC   C2B23828  40.399  35.711   8.275
 1725POPC   C3B23829  40.518  35.683   7.815
 1725POPC   C4B23830  40.533  35.757   7.369
 1726POPC   NC323831  22.173  10.133   9.466
 1726POPC   PO423832  22.327  10.825   9.492
 1726POPC   GL123833  22.397  10.628   9.089
 1726POPC   GL223834  22.119  10.418   9.062
 1726POPC   C1A23835  22.418  10.423   8.669
 1726POPC   D2A23836  22.606  10.203   8.351
 1726POPC   C3A23837  22.486  10.391   7.997
 1726POPC   C4A23838  22.213  10.384   7.678
 1726POPC   C1B23839  21.905  10.265   8.700
 1726POPC   C2B23840  21.903  10.526   8.341
 1726POPC   C3B23841  21.803  10.417   7.936
 1726POPC   C4B23842  21.884   9.998   7.730
 1727POPC   NC323843  12.869  33.431   9.520
 1727POPC   PO423844  12.937  32.749   9.446
 1727POPC   GL123845  12.807  33.051   9.159
 1727POPC   GL223846  13.108  33.219   9.059
 1727POPC   C1A23847  12.549  32.915   8.803
 1727POPC   D2A23848  12.415  33.001   8.391
 1727POPC   C3A23849  12.695  33.087   8.081
 1727POPC   C4A23850  12.792  33.294   7.719
 1727POPC   C1B23851  13.056  32.899   8.746
 1727POPC   C2B23852  12.857  32.683   8.407
 1727POPC   C3B23853  12.689  32.597   7.995
 1727POPC   C4B23854  12.896  32.669   7.593
 1728POPC   NC323855  42.844  40.888   9.302
 1728POPC   PO423856  43.225  40.411   9.531
 1728POPC   GL123857  43.148  40.520   9.135
 1728POPC   GL223858  42.867  40.458   9.046
 1728POPC   C1A23859  43.240  40.717   8.747
 1728POPC   D2A23860  43.098  40.910   8.374
 1728POPC   C3A23861  43.314  40.721   8.018
 1728POPC   C4A23862  43.500  40.895   7.649
 1728POPC   C1B23863  42.706  40.728   8.686
 1728POPC   C2B23864  42.613  40.773   8.245
 1728POPC   C3B23865  42.856  40.869   7.871
 1728POPC   C4B23866  43.032  40.862   7.427
 1729POPC   NC323867  18.623   4.673   9.803
 1729POPC   PO423868  18.056   4.202   9.563
 1729POPC   GL123869  18.321   4.283   9.233
 1729POPC   GL223870  18.316   3.962   9.061
 1729POPC   C1A23871  18.249   4.385   8.799
 1729POPC   D2A23872  18.376   4.197   8.443
 1729POPC   C3A23873  18.294   4.481   8.160
 1729POPC   C4A23874  17.861   4.573   8.024
 1729POPC   C1B23875  18.576   3.803   8.702
 1729POPC   C2B23876  18.702   3.885   8.238
 1729POPC   C3B23877  18.428   4.074   7.869
 1729POPC   C4B23878  18.465   3.964   7.400
 1730POPC   NC323879  28.960  15.777   9.553
 1730POPC   PO423880  29.188  16.380   9.595
 1730POPC   GL123881  29.178  16.092   9.214
 1730POPC   GL223882  28.853  16.149   9.209
 1730POPC   C1A23883  29.238  15.839   8.822
 1730POPC   D2A23884  29.043  15.678   8.398
 1730POPC   C3A23885  29.317  15.786   7.996
 1730POPC   C4A23886  29.023  15.685   7.656
 1730POPC   C1B23887  28.868  16.174   8.771
 1730POPC   C2B23888  29.142  16.156   8.397
 1730POPC   C3B23889  28.948  16.112   8.025
 1730POPC   C4B23890  29.120  16.201   7.653
 1731POPC   NC323891  36.973  17.059   9.513
 1731POPC   PO423892  36.726  16.576   9.832
 1731POPC   GL123893  36.839  16.624   9.326
 1731POPC   GL223894  36.607  16.769   9.099
 1731POPC   C1A23895  37.109  16.602   8.942
 1731POPC   D2A23896  37.127  16.403   8.524
 1731POPC   C3A23897  37.009  16.625   8.135
 1731POPC   C4A23898  36.960  16.544   7.695
 1731POPC   C1B23899  36.764  16.861   8.669
 1731POPC   C2B23900  36.579  16.935   8.278
 1731POPC   C3B23901  36.535  16.737   7.893
 1731POPC   C4B23902  36.656  16.897   7.445
 1732POPC   NC323903   9.564  34.414   9.435
 1732POPC   PO423904  10.032  34.969   9.403
 1732POPC   GL123905   9.821  34.743   9.123
 1732POPC   GL223906   9.985  34.437   9.170
 1732POPC   C1A23907   9.549  34.656   8.793
 1732POPC   D2A23908   9.541  34.342   8.474
 1732POPC   C3A23909   9.562  34.512   8.100
 1732POPC   C4A23910   9.575  34.288   7.748
 1732POPC   C1B23911   9.980  34.393   8.743
 1732POPC   C2B23912  10.008  34.561   8.339
 1732POPC   C3B23913  10.086  34.408   7.901
 1732POPC   C4B23914   9.985  34.236   7.486
 1733POPC   NC323915  33.095   0.837   9.500
 1733POPC   PO423916  33.172   1.477   9.436
 1733POPC   GL123917  33.101   1.186   9.112
 1733POPC   GL223918  32.850   0.907   9.062
 1733POPC   C1A23919  33.017   1.307   8.706
 1733POPC   D2A23920  32.863   1.607   8.424
 1733POPC   C3A23921  33.013   1.435   8.055
 1733POPC   C4A23922  32.797   1.180   7.759
 1733POPC   C1B23923  33.132   0.792   8.727
 1733POPC   C2B23924  33.131   0.938   8.274
 1733POPC   C3B23925  33.223   0.893   7.824
 1733POPC   C4B23926  32.993   0.869   7.393
 1734POPC   NC323927  11.714  44.074   9.501
 1734POPC   PO423928  12.312  43.851   9.441
 1734POPC   GL123929  12.349  44.011   9.060
 1734POPC   GL223930  12.009  43.927   9.021
 1734POPC   C1A23931  12.372  43.879   8.636
 1734POPC   D2A23932  12.118  43.830   8.283
 1734POPC   C3A23933  12.135  44.126   7.943
 1734POPC   C4A23934  12.324  43.834   7.674
 1734POPC   C1B23935  11.892  44.146   8.654
 1734POPC   C2B23936  11.706  44.134   8.237
 1734POPC   C3B23937  11.731  43.827   7.880
 1734POPC   C4B23938  11.883  43.958   7.462
 1735POPC   NC323939  25.452  43.845   9.617
 1735POPC   PO423940  24.816  44.155   9.461
 1735POPC   GL123941  24.985  43.966   9.103
 1735POPC   GL223942  25.327  43.844   9.125
 1735POPC   C1A23943  24.844  43.970   8.692
 1735POPC   D2A23944  24.906  44.145   8.285
 1735POPC   C3A23945  25.148  43.852   8.022
 1735POPC   C4A23946  25.075  43.625   7.625
 1735POPC   C1B23947  25.305  43.755   8.692
 1735POPC   C2B23948  25.418  44.099   8.413
 1735POPC   C3B23949  25.647  44.094   8.042
 1735POPC   C4B23950  25.553  43.824   7.686
 1736POPC   NC323951  36.373  21.474   9.800
 1736POPC   PO423952  37.038  21.408   9.605
 1736POPC   GL123953  37.139  21.343   9.184
 1736POPC   GL223954  36.931  21.629   9.126
 1736POPC   C1A23955  37.225  21.101   8.786
 1736POPC   D2A23956  36.965  21.033   8.384
 1736POPC   C3A23957  36.931  21.290   7.992
 1736POPC   C4A23958  37.192  21.428   7.607
 1736POPC   C1B23959  36.791  21.378   8.769
 1736POPC   C2B23960  36.568  21.421   8.383
 1736POPC   C3B23961  36.424  21.648   8.027
 1736POPC   C4B23962  36.690  21.678   7.730
 1737POPC   NC323963  18.892  21.200   9.528
 1737POPC   PO423964  18.937  20.467   9.545
 1737POPC   GL123965  19.023  20.487   9.121
 1737POPC   GL223966  18.676  20.404   9.059
 1737POPC   C1A23967  19.109  20.850   8.827
 1737POPC   D2A23968  18.978  20.953   8.399
 1737POPC   C3A23969  19.174  21.026   8.025
 1737POPC   C4A23970  19.039  20.840   7.628
 1737POPC   C1B23971  18.793  20.497   8.658
 1737POPC   C2B23972  19.171  20.473   8.425
 1737POPC   C3B23973  19.070  20.516   8.022
 1737POPC   C4B23974  18.864  20.366   7.633
 1738POPC   NC323975  38.571  39.483   9.480
 1738POPC   PO423976  38.237  38.863   9.505
 1738POPC   GL123977  38.499  39.075   9.181
 1738POPC   GL223978  38.243  39.365   9.107
 1738POPC   C1A23979  38.610  39.251   8.772
 1738POPC   D2A23980  38.291  39.242   8.419
 1738POPC   C3A23981  38.521  39.281   8.046
 1738POPC   C4A23982  38.587  39.167   7.681
 1738POPC   C1B23983  38.272  39.641   8.737
 1738POPC   C2B23984  38.524  39.681   8.347
 1738POPC   C3B23985  38.226  39.706   8.030
 1738POPC   C4B23986  38.161  39.458   7.690
 1739POPC   NC323987  20.350  35.121   9.389
 1739POPC   PO423988  21.007  35.478   9.505
 1739POPC   GL123989  20.715  35.431   9.174
 1739POPC   GL223990  20.421  35.670   9.231
 1739POPC   C1A23991  20.778  35.231   8.770
 1739POPC   D2A23992  20.872  35.331   8.359
 1739POPC   C3A23993  20.783  35.121   7.991
 1739POPC   C4A23994  20.788  35.326   7.629
 1739POPC   C1B23995  20.326  35.489   8.828
 1739POPC   C2B23996  20.376  35.656   8.422
 1739POPC   C3B23997  20.419  35.510   8.020
 1739POPC   C4B23998  20.456  35.694   7.623
 1740POPC   NC323999  13.351  41.144   9.665
 1740POPC   PO424000  12.830  41.516   9.467
 1740POPC   GL124001  12.808  41.463   9.044
 1740POPC   GL224002  12.959  41.180   9.024
 1740POPC   C1A24003  13.041  41.570   8.688
 1740POPC   D2A24004  13.180  41.802   8.365
 1740POPC   C3A24005  13.017  41.600   7.994
 1740POPC   C4A24006  12.953  41.707   7.578
 1740POPC   C1B24007  13.175  41.059   8.620
 1740POPC   C2B24008  13.350  41.317   8.308
 1740POPC   C3B24009  13.411  41.257   7.888
 1740POPC   C4B24010  13.121  41.238   7.567
 1741POPC   NC324011  44.940  21.881   9.449
 1741POPC   PO424012  44.499  22.328   9.567
 1741POPC   GL124013  44.729  22.326   9.198
 1741POPC   GL224014   0.095  22.355   9.237
 1741POPC   C1A24015  44.615  22.141   8.784
 1741POPC   D2A24016  44.665  21.821   8.446
 1741POPC   C3A24017  44.477  21.882   8.036
 1741POPC   C4A24018  44.535  22.050   7.625
 1741POPC   C1B24019   0.131  22.128   8.843
 1741POPC   C2B24020   0.029  22.260   8.439
 1741POPC   C3B24021   0.110  22.173   8.006
 1741POPC   C4B24022   0.005  22.387   7.607
 1742POPC   NC324023  10.216   9.923   9.712
 1742POPC   PO424024  10.695  10.188   9.360
 1742POPC   GL124025  10.538  10.011   8.998
 1742POPC   GL224026  10.274   9.847   9.162
 1742POPC   C1A24027  10.649   9.824   8.572
 1742POPC   D2A24028  10.476   9.806   8.163
 1742POPC   C3A24029  10.477   9.579   7.790
 1742POPC   C4A24030  10.536   9.912   7.483
 1742POPC   C1B24031  10.377   9.529   8.859
 1742POPC   C2B24032  10.245   9.473   8.463
 1742POPC   C3B24033  10.047   9.498   8.084
 1742POPC   C4B24034  10.021   9.307   7.693
 1743POPC   NC324035  17.582  29.362   9.496
 1743POPC   PO424036  17.631  28.632   9.534
 1743POPC   GL124037  17.620  28.916   9.217
 1743POPC   GL224038  17.279  29.068   9.145
 1743POPC   C1A24039  17.643  29.016   8.798
 1743POPC   D2A24040  17.434  28.921   8.407
 1743POPC   C3A24041  17.285  29.080   8.018
 1743POPC   C4A24042  17.491  28.975   7.632
 1743POPC   C1B24043  17.186  29.281   8.706
 1743POPC   C2B24044  17.029  29.479   8.274
 1743POPC   C3B24045  17.063  29.515   7.805
 1743POPC   C4B24046  17.173  29.315   7.440
 1744POPC   NC324047  30.198   2.838   9.419
 1744POPC   PO424048  29.610   2.643   9.390
 1744POPC   GL124049  29.797   2.915   9.091
 1744POPC   GL224050  29.985   2.615   9.006
 1744POPC   C1A24051  30.026   2.996   8.707
 1744POPC   D2A24052  30.026   2.623   8.406
 1744POPC   C3A24053  30.090   2.781   7.974
 1744POPC   C4A24054  30.090   2.974   7.571
 1744POPC   C1B24055  29.746   2.311   8.811
 1744POPC   C2B24056  29.573   2.343   8.418
 1744POPC   C3B24057  29.703   2.462   8.029
 1744POPC   C4B24058  29.615   2.443   7.599
 1745POPC   NC324059  17.385  24.948   9.553
 1745POPC   PO424060  17.723  24.382   9.507
 1745POPC   GL124061  17.518  24.565   9.189
 1745POPC   GL224062  17.127  24.609   9.247
 1745POPC   C1A24063  17.722  24.664   8.809
 1745POPC   D2A24064  17.537  24.756   8.386
 1745POPC   C3A24065  17.774  24.671   8.022
 1745POPC   C4A24066  17.605  24.835   7.682
 1745POPC   C1B24067  17.213  24.627   8.792
 1745POPC   C2B24068  17.473  24.287   8.587
 1745POPC   C3B24069  17.440  24.302   8.140
 1745POPC   C4B24070  17.234  24.483   7.750
 1746POPC   NC324071   5.065  44.065   9.502
 1746POPC   PO424072   5.117  43.472   9.624
 1746POPC   GL124073   4.929  43.642   9.229
 1746POPC   GL224074   5.219  43.851   9.055
 1746POPC   C1A24075   4.900  43.537   8.786
 1746POPC   D2A24076   5.140  43.326   8.456
 1746POPC   C3A24077   5.108  43.493   8.051
 1746POPC   C4A24078   5.080  43.744   7.696
 1746POPC   C1B24079   5.048  44.238   8.850
 1746POPC   C2B24080   4.817  44.305   8.455
 1746POPC   C3B24081   4.859  44.437   8.008
 1746POPC   C4B24082   5.172  44.237   7.777
 1747POPC   NC324083   5.713   4.990   9.368
 1747POPC   PO424084   6.253   5.307   9.429
 1747POPC   GL124085   6.050   5.193   9.022
 1747POPC   GL224086   5.921   4.862   8.937
 1747POPC   C1A24087   5.944   5.285   8.582
 1747POPC   D2A24088   6.041   5.564   8.272
 1747POPC   C3A24089   6.044   5.310   7.914
 1747POPC   C4A24090   6.123   4.882   7.806
 1747POPC   C1B24091   5.545   5.020   8.740
 1747POPC   C2B24092   5.490   5.100   8.319
 1747POPC   C3B24093   5.627   4.997   7.918
 1747POPC   C4B24094   5.672   5.285   7.567
 1748POPC   NC324095  28.566  36.016   9.719
 1748POPC   PO424096  28.031  36.325   9.761
 1748POPC   GL124097  28.394  36.135   9.285
 1748POPC   GL224098  28.619  36.401   9.288
 1748POPC   C1A24099  28.312  35.974   8.836
 1748POPC   D2A24100  28.251  35.881   8.377
 1748POPC   C3A24101  28.158  36.261   8.119
 1748POPC   C4A24102  28.362  36.396   7.702
 1748POPC   C1B24103  28.756  36.199   8.883
 1748POPC   C2B24104  28.558  36.284   8.466
 1748POPC   C3B24105  28.630  36.108   8.055
 1748POPC   C4B24106  28.743  35.963   7.649
 1749POPC   NC324107  17.749  16.304   9.466
 1749POPC   PO424108  17.222  15.884   9.390
 1749POPC   GL124109  17.446  16.060   9.080
 1749POPC   GL224110  17.700  15.877   9.103
 1749POPC   C1A24111  17.372  16.003   8.639
 1749POPC   D2A24112  17.203  16.284   8.312
 1749POPC   C3A24113  17.431  16.141   8.033
 1749POPC   C4A24114  17.379  15.982   7.683
 1749POPC   C1B24115  17.847  15.771   8.705
 1749POPC   C2B24116  17.765  15.843   8.255
 1749POPC   C3B24117  17.850  15.813   7.763
 1749POPC   C4B24118  18.036  15.823   7.311
 1750POPC   NC324119  36.685  29.486   9.558
 1750POPC   PO424120  36.076  29.275   9.431
 1750POPC   GL124121  36.317  29.170   9.072
 1750POPC   GL224122  36.491  28.822   9.032
 1750POPC   C1A24123  36.083  29.334   8.709
 1750POPC   D2A24124  35.695  29.186   8.465
 1750POPC   C3A24125  35.770  29.077   8.068
 1750POPC   C4A24126  36.025  29.295   7.790
 1750POPC   C1B24127  36.493  28.983   8.625
 1750POPC   C2B24128  36.283  29.171   8.273
 1750POPC   C3B24129  36.494  29.203   7.912
 1750POPC   C4B24130  36.432  28.818   7.666
 1751POPC   NC324131  17.105  11.382   9.566
 1751POPC   PO424132  17.669  11.042   9.531
 1751POPC   GL124133  17.490  11.290   9.210
 1751POPC   GL224134  17.232  11.039   9.215
 1751POPC   C1A24135  17.597  11.513   8.815
 1751POPC   D2A24136  17.805  11.451   8.397
 1751POPC   C3A24137  17.606  11.524   7.997
 1751POPC   C4A24138  17.541  11.271   7.630
 1751POPC   C1B24139  17.295  10.836   8.847
 1751POPC   C2B24140  17.572  10.995   8.549
 1751POPC   C3B24141  17.563  10.993   8.107
 1751POPC   C4B24142  17.297  10.837   7.718
 1752POPC   NC324143  23.604  11.108   9.536
 1752POPC   PO424144  23.877  11.618   9.492
 1752POPC   GL124145  23.759  11.429   9.113
 1752POPC   GL224146  23.466  11.238   9.059
 1752POPC   C1A24147  23.876  11.342   8.682
 1752POPC   D2A24148  24.031  11.538   8.273
 1752POPC   C3A24149  23.861  11.322   7.919
 1752POPC   C4A24150  23.852  11.411   7.504
 1752POPC   C1B24151  23.430  11.649   8.793
 1752POPC   C2B24152  23.486  11.819   8.367
 1752POPC   C3B24153  23.426  11.601   7.941
 1752POPC   C4B24154  23.248  11.599   7.496
 1753POPC   NC324155   6.176   4.152   9.659
 1753POPC   PO424156   5.603   4.529   9.454
 1753POPC   GL124157   5.721   4.346   9.088
 1753POPC   GL224158   5.960   4.136   9.143
 1753POPC   C1A24159   5.796   4.419   8.684
 1753POPC   D2A24160   5.907   4.752   8.441
 1753POPC   C3A24161   5.862   4.548   8.087
 1753POPC   C4A24162   5.916   4.416   7.701
 1753POPC   C1B24163   6.158   4.028   8.740
 1753POPC   C2B24164   6.056   4.122   8.342
 1753POPC   C3B24165   5.959   3.993   7.959
 1753POPC   C4B24166   6.313   4.027   7.726
 1754POPC   NC324167  26.463   3.861   9.346
 1754POPC   PO424168  26.125   4.271   9.721
 1754POPC   GL124169  26.098   4.324   9.238
 1754POPC   GL224170  26.170   4.096   8.986
 1754POPC   C1A24171  25.984   4.555   8.842
 1754POPC   D2A24172  26.086   4.682   8.420
 1754POPC   C3A24173  25.976   4.372   8.105
 1754POPC   C4A24174  26.024   4.388   7.672
 1754POPC   C1B24175  26.480   3.939   8.683
 1754POPC   C2B24176  26.397   4.085   8.268
 1754POPC   C3B24177  26.347   3.992   7.839
 1754POPC   C4B24178  26.117   3.919   7.463
 1755POPC   NC324179  31.039  43.429   9.633
 1755POPC   PO424180  30.446  43.072   9.521
 1755POPC   GL124181  30.636  43.118   9.122
 1755POPC   GL224182  30.648  43.436   8.937
 1755POPC   C1A24183  30.522  42.955   8.729
 1755POPC   D2A24184  30.641  43.156   8.343
 1755POPC   C3A24185  30.887  42.921   8.056
 1755POPC   C4A24186  30.698  42.776   7.707
 1755POPC   C1B24187  31.069  43.600   8.777
 1755POPC   C2B24188  31.179  43.580   8.333
 1755POPC   C3B24189  31.005  43.405   7.960
 1755POPC   C4B24190  30.928  43.203   7.555
 1756POPC   NC324191  29.469  41.813   9.684
 1756POPC   PO424192  30.052  41.619   9.459
 1756POPC   GL124193  29.887  41.610   9.068
 1756POPC   GL224194  29.585  41.672   9.175
 1756POPC   C1A24195  30.050  41.630   8.674
 1756POPC   D2A24196  30.306  41.588   8.286
 1756POPC   C3A24197  30.077  41.753   7.916
 1756POPC   C4A24198  30.272  41.844   7.522
 1756POPC   C1B24199  29.513  41.798   8.724
 1756POPC   C2B24200  29.676  41.720   8.310
 1756POPC   C3B24201  29.509  41.808   7.896
 1756POPC   C4B24202  29.605  41.574   7.555
 1757POPC   NC324203  36.507   8.944   9.443
 1757POPC   PO424204  35.889   9.168   9.512
 1757POPC   GL124205  36.170   9.202   9.106
 1757POPC   GL224206  36.425   8.975   8.958
 1757POPC   C1A24207  36.127   9.180   8.623
 1757POPC   D2A24208  35.841   9.150   8.259
 1757POPC   C3A24209  36.131   9.113   7.909
 1757POPC   C4A24210  36.234   9.336   7.543
 1757POPC   C1B24211  35.988   8.775   8.896
 1757POPC   C2B24212  35.939   8.555   8.516
 1757POPC   C3B24213  36.062   8.613   8.087
 1757POPC   C4B24214  36.308   8.669   7.721
 1758POPC   NC324215  30.902  42.855   9.476
 1758POPC   PO424216  30.874  42.169   9.531
 1758POPC   GL124217  30.675  42.321   9.192
 1758POPC   GL224218  30.464  42.636   9.218
 1758POPC   C1A24219  30.852  42.326   8.784
 1758POPC   D2A24220  30.791  42.600   8.437
 1758POPC   C3A24221  30.819  42.376   8.046
 1758POPC   C4A24222  30.968  42.372   7.612
 1758POPC   C1B24223  30.356  42.448   8.825
 1758POPC   C2B24224  30.299  42.508   8.428
 1758POPC   C3B24225  30.298  42.379   8.043
 1758POPC   C4B24226  30.473  42.293   7.668
 1759POPC   NC324227  29.283  24.207   9.565
 1759POPC   PO424228  28.790  24.623   9.456
 1759POPC   GL124229  28.840  24.334   9.109
 1759POPC   GL224230  29.197  24.244   9.066
 1759POPC   C1A24231  28.990  24.537   8.715
 1759POPC   D2A24232  28.934  24.759   8.347
 1759POPC   C3A24233  29.201  24.739   8.029
 1759POPC   C4A24234  29.108  24.621   7.632
 1759POPC   C1B24235  29.464  24.263   8.715
 1759POPC   C2B24236  29.531  24.391   8.282
 1759POPC   C3B24237  29.367  24.267   7.881
 1759POPC   C4B24238  29.409  24.019   7.509
 1760POPC   NC324239   4.484  24.157   9.510
 1760POPC   PO424240   4.104  24.711   9.556
 1760POPC   GL124241   4.324  24.557   9.219
 1760POPC   GL224242   4.089  24.283   9.196
 1760POPC   C1A24243   4.368  24.450   8.778
 1760POPC   D2A24244   4.508  24.282   8.376
 1760POPC   C3A24245   4.348  24.513   8.042
 1760POPC   C4A24246   4.524  24.602   7.622
 1760POPC   C1B24247   3.987  24.089   8.821
 1760POPC   C2B24248   4.007  24.221   8.402
 1760POPC   C3B24249   3.823  24.146   8.017
 1760POPC   C4B24250   4.020  24.337   7.701
 1761POPC   NC324251  31.383  38.728   9.631
 1761POPC   PO424252  31.721  38.171   9.448
 1761POPC   GL124253  31.551  38.470   9.180
 1761POPC   GL224254  31.235  38.325   9.145
 1761POPC   C1A24255  31.421  38.591   8.756
 1761POPC   D2A24256  31.227  38.807   8.409
 1761POPC   C3A24257  31.417  38.589   8.074
 1761POPC   C4A24258  31.661  38.579   7.721
 1761POPC   C1B24259  31.164  38.121   8.738
 1761POPC   C2B24260  31.072  37.991   8.292
 1761POPC   C3B24261  31.194  38.171   7.878
 1761POPC   C4B24262  31.225  38.096   7.405
 1762POPC   NC324263  42.916  16.822   9.486
 1762POPC   PO424264  43.599  16.962   9.419
 1762POPC   GL124265  43.292  16.788   9.164
 1762POPC   GL224266  43.263  16.423   9.201
 1762POPC   C1A24267  43.004  16.992   8.839
 1762POPC   D2A24268  42.984  17.307   8.506
 1762POPC   C3A24269  43.023  17.150   8.098
 1762POPC   C4A24270  42.909  16.797   7.818
 1762POPC   C1B24271  43.223  16.531   8.752
 1762POPC   C2B24272  43.183  16.748   8.386
 1762POPC   C3B24273  43.321  16.583   8.020
 1762POPC   C4B24274  43.353  16.510   7.598
 1763POPC   NC324275  24.744  35.085   9.421
 1763POPC   PO424276  24.404  35.567   9.187
 1763POPC   GL124277  24.665  35.303   8.977
 1763POPC   GL224278  24.930  35.520   9.089
 1763POPC   C1A24279  24.551  35.146   8.592
 1763POPC   D2A24280  24.353  35.453   8.340
 1763POPC   C3A24281  24.544  35.460   7.923
 1763POPC   C4A24282  24.627  35.034   7.747
 1763POPC   C1B24283  24.810  35.646   8.641
 1763POPC   C2B24284  24.886  35.375   8.285
 1763POPC   C3B24285  25.032  35.332   7.869
 1763POPC   C4B24286  24.975  35.739   7.697
 1764POPC   NC324287   3.222   0.279   9.455
 1764POPC   PO424288   3.787   0.571   9.427
 1764POPC   GL124289   3.574   0.394   9.096
 1764POPC   GL224290   3.866   0.234   9.031
 1764POPC   C1A24291   3.421   0.163   8.717
 1764POPC   D2A24292   3.632  44.961   8.339
 1764POPC   C3A24293   3.469  44.965   7.904
 1764POPC   C4A24294   3.154   0.285   7.800
 1764POPC   C1B24295   3.854   0.423   8.634
 1764POPC   C2B24296   3.716   0.605   8.259
 1764POPC   C3B24297   3.647   0.456   7.844
 1764POPC   C4B24298   3.576   0.241   7.450
 1765POPC   NC324299  18.508  39.138   9.638
 1765POPC   PO424300  17.845  38.957   9.524
 1765POPC   GL124301  18.183  39.089   9.200
 1765POPC   GL224302  18.121  39.437   9.194
 1765POPC   C1A24303  18.365  39.173   8.746
 1765POPC   D2A24304  18.247  39.155   8.288
 1765POPC   C3A24305  18.435  39.104   7.863
 1765POPC   C4A24306  18.575  38.918   7.471
 1765POPC   C1B24307  17.909  39.535   8.828
 1765POPC   C2B24308  18.106  39.613   8.464
 1765POPC   C3B24309  17.977  39.642   8.057
 1765POPC   C4B24310  18.035  39.423   7.738
 1766POPC   NC324311   6.225  11.366   9.458
 1766POPC   PO424312   6.919  11.329   9.446
 1766POPC   GL124313   6.595  11.115   9.195
 1766POPC   GL224314   6.517  11.436   9.038
 1766POPC   C1A24315   6.524  10.995   8.741
 1766POPC   D2A24316   6.786  11.173   8.380
 1766POPC   C3A24317   6.665  11.265   7.945
 1766POPC   C4A24318   6.697  11.389   7.497
 1766POPC   C1B24319   6.364  11.715   8.717
 1766POPC   C2B24320   6.366  11.879   8.326
 1766POPC   C3B24321   6.327  11.653   7.955
 1766POPC   C4B24322   6.280  11.739   7.520
 1767POPC   NC324323   2.633  40.400   9.478
 1767POPC   PO424324   2.991  40.959   9.505
 1767POPC   GL124325   2.953  40.673   9.189
 1767POPC   GL224326   2.591  40.810   9.148
 1767POPC   C1A24327   2.805  40.517   8.808
 1767POPC   D2A24328   2.753  40.832   8.476
 1767POPC   C3A24329   2.820  40.668   8.083
 1767POPC   C4A24330   2.771  40.788   7.684
 1767POPC   C1B24331   2.338  40.682   8.769
 1767POPC   C2B24332   2.397  40.523   8.327
 1767POPC   C3B24333   2.327  40.730   7.925
 1767POPC   C4B24334   2.365  40.740   7.426
 1768POPC   NC324335  11.132  40.131   9.557
 1768POPC   PO424336  11.696  39.854   9.676
 1768POPC   GL124337  11.529  39.926   9.237
 1768POPC   GL224338  11.239  39.672   9.301
 1768POPC   C1A24339  11.418  40.228   8.820
 1768POPC   D2A24340  11.170  40.337   8.378
 1768POPC   C3A24341  11.259  40.124   8.025
 1768POPC   C4A24342  11.623  39.923   7.911
 1768POPC   C1B24343  11.188  39.768   8.886
 1768POPC   C2B24344  11.282  39.846   8.475
 1768POPC   C3B24345  11.169  39.625   8.123
 1768POPC   C4B24346  10.829  39.603   7.861
 1769POPC   NC324347  22.112  33.901   9.527
 1769POPC   PO424348  21.583  33.480   9.579
 1769POPC   GL124349  21.876  33.388   9.202
 1769POPC   GL224350  22.266  33.417   9.121
 1769POPC   C1A24351  21.885  33.704   8.859
 1769POPC   D2A24352  21.968  33.993   8.512
 1769POPC   C3A24353  22.042  33.760   8.129
 1769POPC   C4A24354  22.161  33.629   7.702
 1769POPC   C1B24355  22.387  33.769   8.808
 1769POPC   C2B24356  22.498  33.784   8.384
 1769POPC   C3B24357  22.507  33.940   7.952
 1769POPC   C4B24358  22.505  34.316   7.722
 1770POPC   NC324359  30.993   5.066   9.481
 1770POPC   PO424360  30.478   4.661   9.498
 1770POPC   GL124361  30.590   4.992   9.134
 1770POPC   GL224362  30.885   5.253   9.024
 1770POPC   C1A24363  30.707   4.909   8.702
 1770POPC   D2A24364  30.539   4.836   8.318
 1770POPC   C3A24365  30.491   5.131   7.991
 1770POPC   C4A24366  30.546   5.006   7.605
 1770POPC   C1B24367  31.205   4.968   8.818
 1770POPC   C2B24368  31.135   4.733   8.413
 1770POPC   C3B24369  30.956   4.829   8.003
 1770POPC   C4B24370  31.007   5.195   7.759
 1771POPC   NC324371  37.195   1.985   9.310
 1771POPC   PO424372  36.559   2.167   9.523
 1771POPC   GL124373  36.740   2.166   9.127
 1771POPC   GL224374  36.722   1.846   9.036
 1771POPC   C1A24375  36.987   2.167   8.729
 1771POPC   D2A24376  37.058   1.934   8.372
 1771POPC   C3A24377  37.047   2.149   7.996
 1771POPC   C4A24378  37.271   2.188   7.627
 1771POPC   C1B24379  36.485   2.036   8.699
 1771POPC   C2B24380  36.536   1.945   8.295
 1771POPC   C3B24381  36.561   2.033   7.889
 1771POPC   C4B24382  36.795   1.867   7.562
 1772POPC   NC324383  11.702   1.359   9.682
 1772POPC   PO424384  12.161   0.976   9.554
 1772POPC   GL124385  12.145   1.182   9.194
 1772POPC   GL224386  12.482   1.214   9.147
 1772POPC   C1A24387  12.003   1.260   8.771
 1772POPC   D2A24388  12.177   1.159   8.358
 1772POPC   C3A24389  11.945   1.189   7.952
 1772POPC   C4A24390  11.552   1.050   7.787
 1772POPC   C1B24391  12.540   1.342   8.722
 1772POPC   C2B24392  12.662   1.386   8.281
 1772POPC   C3B24393  12.457   1.185   7.926
 1772POPC   C4B24394  12.310   1.135   7.485
 1773POPC   NC324395   0.528  32.331   9.412
 1773POPC   PO424396   0.917  31.792   9.539
 1773POPC   GL124397   0.585  31.905   9.134
 1773POPC   GL224398   0.210  32.019   9.169
 1773POPC   C1A24399   0.628  32.127   8.725
 1773POPC   D2A24400   0.494  32.293   8.386
 1773POPC   C3A24401   0.686  32.341   8.043
 1773POPC   C4A24402   0.638  31.986   7.800
 1773POPC   C1B24403   0.131  32.276   8.802
 1773POPC   C2B24404   0.005  32.346   8.369
 1773POPC   C3B24405   0.151  32.515   8.005
 1773POPC   C4B24406   0.252  32.308   7.649
 1774POPC   NC324407  28.767  17.373   9.357
 1774POPC   PO424408  29.408  17.695   9.448
 1774POPC   GL124409  29.227  17.463   9.135
 1774POPC   GL224410  29.045  17.745   9.025
 1774POPC   C1A24411  29.126  17.349   8.714
 1774POPC   D2A24412  29.054  17.093   8.345
 1774POPC   C3A24413  29.002  17.262   7.946
 1774POPC   C4A24414  29.235  17.212   7.551
 1774POPC   C1B24415  29.411  17.768   8.739
 1774POPC   C2B24416  29.343  17.599   8.302
 1774POPC   C3B24417  29.374  17.588   7.859
 1774POPC   C4B24418  28.986  17.651   7.562
 1775POPC   NC324419  14.314   3.164   9.466
 1775POPC   PO424420  13.910   2.526   9.567
 1775POPC   GL124421  14.120   2.724   9.210
 1775POPC   GL224422  14.493   2.786   9.146
 1775POPC   C1A24423  14.202   2.650   8.788
 1775POPC   D2A24424  14.134   2.660   8.387
 1775POPC   C3A24425  14.479   2.581   8.133
 1775POPC   C4A24426  14.555   2.875   7.808
 1775POPC   C1B24427  14.580   2.969   8.676
 1775POPC   C2B24428  14.443   3.093   8.267
 1775POPC   C3B24429  14.561   3.360   7.910
 1775POPC   C4B24430  14.554   3.287   7.476
 1776POPC   NC324431  31.039  10.860   9.620
 1776POPC   PO424432  30.890  11.536   9.634
 1776POPC   GL124433  30.822  11.349   9.184
 1776POPC   GL224434  30.447  11.243   9.083
 1776POPC   C1A24435  30.804  11.274   8.727
 1776POPC   D2A24436  31.001  11.477   8.381
 1776POPC   C3A24437  30.915  11.320   7.983
 1776POPC   C4A24438  30.788  11.120   7.657
 1776POPC   C1B24439  30.349  11.466   8.723
 1776POPC   C2B24440  30.495  11.340   8.310
 1776POPC   C3B24441  30.347  11.372   7.899
 1776POPC   C4B24442  30.346  11.302   7.474
 1777POPC   NC324443  13.602   2.185   9.489
 1777POPC   PO424444  13.716   1.571   9.395
 1777POPC   GL124445  13.510   1.832   9.119
 1777POPC   GL224446  13.764   2.077   9.025
 1777POPC   C1A24447  13.352   2.006   8.734
 1777POPC   D2A24448  13.597   2.240   8.481
 1777POPC   C3A24449  13.553   2.057   8.089
 1777POPC   C4A24450  13.465   1.995   7.655
 1777POPC   C1B24451  13.821   1.747   8.701
 1777POPC   C2B24452  13.953   1.678   8.279
 1777POPC   C3B24453  13.893   1.737   7.835
 1777POPC   C4B24454  13.851   1.885   7.358
 1778POPC   NC324455  42.092  11.068   9.495
 1778POPC   PO424456  42.715  10.772   9.447
 1778POPC   GL124457  42.427  11.097   9.110
 1778POPC   GL224458  42.079  11.337   9.073
 1778POPC   C1A24459  42.427  11.349   8.735
 1778POPC   D2A24460  42.429  11.041   8.461
 1778POPC   C3A24461  42.511  11.192   8.086
 1778POPC   C4A24462  42.782  11.155   7.796
 1778POPC   C1B24463  41.863  11.251   8.698
 1778POPC   C2B24464  42.000  11.233   8.277
 1778POPC   C3B24465  42.053  11.092   7.868
 1778POPC   C4B24466  41.911  11.332   7.519
 1779POPC   NC324467  12.393  41.151   9.380
 1779POPC   PO424468  11.746  41.360   9.391
 1779POPC   GL124469  12.044  41.512   9.107
 1779POPC   GL224470  12.367  41.641   9.223
 1779POPC   C1A24471  11.990  41.693   8.705
 1779POPC   D2A24472  12.118  41.858   8.303
 1779POPC   C3A24473  11.975  41.680   7.892
 1779POPC   C4A24474  11.627  41.740   7.564
 1779POPC   C1B24475  12.487  41.810   8.805
 1779POPC   C2B24476  12.661  41.755   8.381
 1779POPC   C3B24477  12.515  41.817   7.948
 1779POPC   C4B24478  12.545  41.437   7.743
 1780POPC   NC324479  30.566  20.167   9.418
 1780POPC   PO424480  30.820  19.530   9.407
 1780POPC   GL124481  30.702  19.799   9.062
 1780POPC   GL224482  30.943  20.042   9.069
 1780POPC   C1A24483  30.502  19.728   8.635
 1780POPC   D2A24484  30.268  19.599   8.270
 1780POPC   C3A24485  30.502  19.764   7.926
 1780POPC   C4A24486  30.663  19.619   7.519
 1780POPC   C1B24487  30.670  20.201   8.724
 1780POPC   C2B24488  30.758  20.040   8.301
 1780POPC   C3B24489  30.992  19.921   7.939
 1780POPC   C4B24490  30.932  20.038   7.469
 1781POPC   NC324491  18.036  37.835   9.578
 1781POPC   PO424492  18.099  37.224   9.346
 1781POPC   GL124493  18.086  37.557   9.128
 1781POPC   GL224494  18.389  37.675   9.199
 1781POPC   C1A24495  18.124  37.712   8.742
 1781POPC   D2A24496  17.940  37.604   8.394
 1781POPC   C3A24497  18.218  37.703   8.090
 1781POPC   C4A24498  18.195  37.737   7.683
 1781POPC   C1B24499  18.586  37.878   8.869
 1781POPC   C2B24500  18.571  37.677   8.465
 1781POPC   C3B24501  18.710  37.839   8.091
 1781POPC   C4B24502  18.649  37.947   7.679
 1782POPC   NC324503  11.684  25.736   9.471
 1782POPC   PO424504  12.202  26.286   9.485
 1782POPC   GL124505  12.054  26.225   9.091
 1782POPC   GL224506  12.076  25.893   9.135
 1782POPC   C1A24507  12.096  26.336   8.639
 1782POPC   D2A24508  12.178  26.125   8.231
 1782POPC   C3A24509  12.079  26.404   7.889
 1782POPC   C4A24510  11.624  26.542   7.791
 1782POPC   C1B24511  12.169  25.830   8.712
 1782POPC   C2B24512  12.470  25.710   8.426
 1782POPC   C3B24513  12.418  25.702   7.987
 1782POPC   C4B24514  12.156  25.940   7.698
 1783POPC   NC324515  23.570  26.385   9.402
 1783POPC   PO424516  23.985  25.960   9.492
 1783POPC   GL124517  23.863  26.139   9.071
 1783POPC   GL224518  23.574  26.001   9.028
 1783POPC   C1A24519  23.868  25.958   8.644
 1783POPC   D2A24520  23.830  25.669   8.354
 1783POPC   C3A24521  23.817  25.892   7.987
 1783POPC   C4A24522  23.926  26.084   7.595
 1783POPC   C1B24523  23.506  26.330   8.712
 1783POPC   C2B24524  23.479  26.173   8.327
 1783POPC   C3B24525  23.487  26.291   7.938
 1783POPC   C4B24526  23.435  26.099   7.572
 1784POPC   NC324527   7.080   4.383   9.412
 1784POPC   PO424528   6.524   4.433   9.832
 1784POPC   GL124529   6.494   4.391   9.313
 1784POPC   GL224530   6.162   4.585   9.304
 1784POPC   C1A24531   6.648   4.179   8.842
 1784POPC   D2A24532   7.007   4.286   8.535
 1784POPC   C3A24533   7.032   4.151   8.093
 1784POPC   C4A24534   6.791   4.209   7.706
 1784POPC   C1B24535   6.264   4.513   8.867
 1784POPC   C2B24536   6.438   4.513   8.455
 1784POPC   C3B24537   6.352   4.438   8.019
 1784POPC   C4B24538   6.415   4.526   7.574
 1785POPC   NC324539  14.361  30.676   9.731
 1785POPC   PO424540  13.955  30.409   9.299
 1785POPC   GL124541  14.335  30.449   9.198
 1785POPC   GL224542  14.542  30.751   9.230
 1785POPC   C1A24543  14.328  30.409   8.767
 1785POPC   D2A24544  14.341  30.682   8.466
 1785POPC   C3A24545  14.261  30.444   8.125
 1785POPC   C4A24546  14.276  30.733   7.798
 1785POPC   C1B24547  14.794  30.477   8.934
 1785POPC   C2B24548  14.781  30.421   8.483
 1785POPC   C3B24549  14.746  30.646   8.095
 1785POPC   C4B24550  14.789  30.716   7.659
 1786POPC   NC324551  38.168  14.204   9.429
 1786POPC   PO424552  38.718  14.634   9.554
 1786POPC   GL124553  38.612  14.514   9.126
 1786POPC   GL224554  38.605  14.193   9.145
 1786POPC   C1A24555  38.743  14.355   8.680
 1786POPC   D2A24556  38.594  14.552   8.319
 1786POPC   C3A24557  38.205  14.466   8.131
 1786POPC   C4A24558  38.330  14.479   7.705
 1786POPC   C1B24559  38.309  14.105   8.772
 1786POPC   C2B24560  38.315  13.941   8.338
 1786POPC   C3B24561  38.206  14.011   7.895
 1786POPC   C4B24562  38.221  14.065   7.438
 1787POPC   NC324563  31.712   5.183   9.547
 1787POPC   PO424564  31.074   5.493   9.646
 1787POPC   GL124565  31.337   5.402   9.229
 1787POPC   GL224566  31.656   5.308   9.072
 1787POPC   C1A24567  31.319   5.473   8.748
 1787POPC   D2A24568  31.175   5.259   8.371
 1787POPC   C3A24569  31.430   5.046   8.086
 1787POPC   C4A24570  31.653   5.185   7.738
 1787POPC   C1B24571  31.723   4.902   8.887
 1787POPC   C2B24572  31.682   4.773   8.460
 1787POPC   C3B24573  31.888   4.794   8.071
 1787POPC   C4B24574  31.815   4.698   7.627
 1788POPC   NC324575  19.304   6.197   9.564
 1788POPC   PO424576  18.699   5.823   9.452
 1788POPC   GL124577  18.981   6.048   9.185
 1788POPC   GL224578  18.751   6.245   8.979
 1788POPC   C1A24579  19.219   6.095   8.792
 1788POPC   D2A24580  19.201   5.791   8.396
 1788POPC   C3A24581  19.230   6.006   7.992
 1788POPC   C4A24582  19.056   6.257   7.667
 1788POPC   C1B24583  18.815   5.787   8.781
 1788POPC   C2B24584  18.675   5.468   8.476
 1788POPC   C3B24585  18.682   5.392   8.011
 1788POPC   C4B24586  18.800   5.791   7.797
 1789POPC   NC324587  40.944   2.188   9.573
 1789POPC   PO424588  41.123   1.577   9.386
 1789POPC   GL124589  41.003   1.832   8.982
 1789POPC   GL224590  40.970   2.192   8.941
 1789POPC   C1A24591  40.816   1.898   8.551
 1789POPC   D2A24592  40.619   2.087   8.174
 1789POPC   C3A24593  40.689   1.789   7.839
 1789POPC   C4A24594  41.068   1.530   7.756
 1789POPC   C1B24595  41.299   2.075   8.609
 1789POPC   C2B24596  41.179   1.899   8.178
 1789POPC   C3B24597  41.004   2.187   7.842
 1789POPC   C4B24598  41.073   2.419   7.439
 1790POPC   NC324599  44.331   2.313   9.484
 1790POPC   PO424600  44.652   2.909   9.628
 1790POPC   GL124601  44.806   2.896   9.209
 1790POPC   GL224602  44.648   2.610   9.167
 1790POPC   C1A24603  44.694   2.990   8.776
 1790POPC   D2A24604   0.019   3.090   8.493
 1790POPC   C3A24605  44.830   3.031   8.106
 1790POPC   C4A24606  44.731   2.736   7.759
 1790POPC   C1B24607  44.596   2.491   8.767
 1790POPC   C2B24608  44.665   2.636   8.389
 1790POPC   C3B24609  44.804   2.372   8.090
 1790POPC   C4B24610  44.809   2.228   7.683
 1791POPC   NC324611  35.143  20.797   9.499
 1791POPC   PO424612  35.616  20.260   9.528
 1791POPC   GL124613  35.398  20.480   9.166
 1791POPC   GL224614  35.509  20.823   9.141
 1791POPC   C1A24615  35.091  20.727   8.845
 1791POPC   D2A24616  34.939  20.830   8.410
 1791POPC   C3A24617  35.226  20.663   8.066
 1791POPC   C4A24618  35.133  20.592   7.629
 1791POPC   C1B24619  35.582  20.672   8.707
 1791POPC   C2B24620  35.538  20.939   8.339
 1791POPC   C3B24621  35.659  21.013   7.940
 1791POPC   C4B24622  35.657  20.597   7.751
 1792POPC   NC324623  13.847  22.931   9.413
 1792POPC   PO424624  13.086  22.862   9.409
 1792POPC   GL124625  13.428  22.890   9.109
 1792POPC   GL224626  13.483  22.558   9.201
 1792POPC   C1A24627  13.492  23.046   8.659
 1792POPC   D2A24628  13.365  23.108   8.196
 1792POPC   C3A24629  13.698  23.068   7.895
 1792POPC   C4A24630  14.061  22.773   7.870
 1792POPC   C1B24631  13.764  22.515   8.862
 1792POPC   C2B24632  13.921  22.538   8.457
 1792POPC   C3B24633  13.647  22.646   8.154
 1792POPC   C4B24634  13.519  22.600   7.746
 1793POPC   NC324635  10.160  31.287   9.461
 1793POPC   PO424636   9.746  31.726   9.680
 1793POPC   GL124637   9.753  31.579   9.263
 1793POPC   GL224638   9.773  31.251   9.099
 1793POPC   C1A24639   9.572  31.785   8.946
 1793POPC   D2A24640   9.549  31.846   8.546
 1793POPC   C3A24641   9.724  31.544   8.241
 1793POPC   C4A24642   9.723  31.505   7.804
 1793POPC   C1B24643   9.939  31.482   8.728
 1793POPC   C2B24644  10.209  31.318   8.399
 1793POPC   C3B24645  10.159  30.907   8.224
 1793POPC   C4B24646   9.986  31.088   7.905
 1794POPC   NC324647  37.505  15.138   9.938
 1794POPC   PO424648  37.111  14.961   9.405
 1794POPC   GL124649  36.831  15.011   9.096
 1794POPC   GL224650  36.830  15.346   9.148
 1794POPC   C1A24651  36.685  15.038   8.713
 1794POPC   D2A24652  36.941  15.021   8.398
 1794POPC   C3A24653  36.757  15.212   8.050
 1794POPC   C4A24654  36.596  15.140   7.654
 1794POPC   C1B24655  37.122  15.331   8.780
 1794POPC   C2B24656  37.112  15.529   8.352
 1794POPC   C3B24657  37.344  15.477   7.947
 1794POPC   C4B24658  37.098  15.244   7.651
 1795POPC   NC324659  14.062  34.589   9.888
 1795POPC   PO424660  13.552  34.791   9.452
 1795POPC   GL124661  13.734  34.606   9.113
 1795POPC   GL224662  13.600  34.332   9.119
 1795POPC   C1A24663  13.523  34.586   8.703
 1795POPC   D2A24664  13.565  34.415   8.321
 1795POPC   C3A24665  13.313  34.590   8.018
 1795POPC   C4A24666  13.302  34.723   7.575
 1795POPC   C1B24667  13.852  34.179   8.764
 1795POPC   C2B24668  14.069  34.225   8.364
 1795POPC   C3B24669  13.979  34.538   8.055
 1795POPC   C4B24670  13.716  34.392   7.766
 1796POPC   NC324671  28.346  29.272   9.568
 1796POPC   PO424672  28.224  28.604   9.445
 1796POPC   GL124673  28.434  28.919   9.160
 1796POPC   GL224674  28.293  29.242   9.069
 1796POPC   C1A24675  28.539  29.016   8.713
 1796POPC   D2A24676  28.275  29.018   8.335
 1796POPC   C3A24677  28.360  29.239   7.999
 1796POPC   C4A24678  28.646  29.102   7.679
 1796POPC   C1B24679  28.051  29.299   8.700
 1796POPC   C2B24680  27.899  29.415   8.284
 1796POPC   C3B24681  27.880  29.186   7.884
 1796POPC   C4B24682  28.061  29.092   7.483
 1797POPC   NC324683  28.253  20.727   9.495
 1797POPC   PO424684  28.798  21.012   9.363
 1797POPC   GL124685  28.559  20.742   9.081
 1797POPC   GL224686  28.285  20.466   9.076
 1797POPC   C1A24687  28.646  20.511   8.730
 1797POPC   D2A24688  28.780  20.602   8.318
 1797POPC   C3A24689  28.486  20.405   8.048
 1797POPC   C4A24690  28.469  20.435   7.615
 1797POPC   C1B24691  28.121  20.750   8.803
 1797POPC   C2B24692  28.292  20.729   8.416
 1797POPC   C3B24693  28.155  20.794   8.027
 1797POPC   C4B24694  27.964  20.547   7.744
 1798POPC   NC324695   6.238  30.524   9.454
 1798POPC   PO424696   6.856  30.550   9.532
 1798POPC   GL124697   6.810  30.723   9.125
 1798POPC   GL224698   6.498  30.747   9.077
 1798POPC   C1A24699   6.897  30.937   8.761
 1798POPC   D2A24700   6.762  31.045   8.366
 1798POPC   C3A24701   6.973  30.929   8.003
 1798POPC   C4A24702   6.753  30.625   7.803
 1798POPC   C1B24703   6.303  30.769   8.708
 1798POPC   C2B24704   6.438  30.608   8.348
 1798POPC   C3B24705   6.285  30.617   7.964
 1798POPC   C4B24706   6.094  30.543   7.582
 1799POPC   NC324707  32.370  33.314   9.475
 1799POPC   PO424708  32.319  33.947   9.564
 1799POPC   GL124709  32.327  33.746   9.186
 1799POPC   GL224710  32.672  33.650   9.143
 1799POPC   C1A24711  32.058  33.607   8.844
 1799POPC   D2A24712  32.183  33.426   8.436
 1799POPC   C3A24713  32.310  33.692   8.126
 1799POPC   C4A24714  31.969  33.807   7.862
 1799POPC   C1B24715  32.498  33.827   8.709
 1799POPC   C2B24716  32.129  34.007   8.497
 1799POPC   C3B24717  32.105  34.224   8.113
 1799POPC   C4B24718  32.394  34.095   7.769
 1800POPC   NC324719  14.467  21.439   9.586
 1800POPC   PO424720  13.888  21.152   9.491
 1800POPC   GL124721  14.219  21.316   9.145
 1800POPC   GL224722  14.614  21.372   9.129
 1800POPC   C1A24723  14.394  21.332   8.696
 1800POPC   D2A24724  14.632  21.390   8.355
 1800POPC   C3A24725  14.397  21.433   7.998
 1800POPC   C4A24726  14.291  21.333   7.577
 1800POPC   C1B24727  14.849  21.582   8.804
 1800POPC   C2B24728  14.736  21.868   8.488
 1800POPC   C3B24729  14.811  21.835   8.045
 1800POPC   C4B24730  14.703  21.641   7.646
 1801POPC   NC324731  20.024   3.113   9.251
 1801POPC   PO424732  19.469   3.452   9.503
 1801POPC   GL124733  19.719   3.609   9.174
 1801POPC   GL224734  19.738   3.358   8.934
 1801POPC   C1A24735  19.979   3.831   8.863
 1801POPC   D2A24736  20.249   3.751   8.516
 1801POPC   C3A24737  19.993   3.654   8.150
 1801POPC   C4A24738  20.020   3.643   7.697
 1801POPC   C1B24739  20.030   3.291   8.601
 1801POPC   C2B24740  20.337   3.294   8.276
 1801POPC   C3B24741  20.298   3.254   7.851
 1801POPC   C4B24742  20.199   3.236   7.421
 1802POPC   NC324743  42.852   6.760   9.498
 1802POPC   PO424744  43.480   6.625   9.492
 1802POPC   GL124745  43.228   6.509   9.188
 1802POPC   GL224746  43.174   6.857   9.114
 1802POPC   C1A24747  43.080   6.467   8.778
 1802POPC   D2A24748  43.241   6.647   8.426
 1802POPC   C3A24749  43.130   6.390   8.094
 1802POPC   C4A24750  42.992   6.434   7.667
 1802POPC   C1B24751  42.902   6.941   8.780
 1802POPC   C2B24752  42.997   7.090   8.370
 1802POPC   C3B24753  43.063   6.890   7.976
 1802POPC   C4B24754  42.774   6.954   7.647
 1803POPC   NC324755   3.701   8.368   9.451
 1803POPC   PO424756   3.130   8.584   9.173
 1803POPC   GL124757   3.323   8.164   9.087
 1803POPC   GL224758   3.683   8.186   8.970
 1803POPC   C1A24759   3.366   7.918   8.684
 1803POPC   D2A24760   3.817   7.928   8.532
 1803POPC   C3A24761   3.765   7.878   8.103
 1803POPC   C4A24762   3.324   7.956   7.961
 1803POPC   C1B24763   3.452   8.414   8.647
 1803POPC   C2B24764   3.217   8.419   8.301
 1803POPC   C3B24765   3.384   8.489   7.923
 1803POPC   C4B24766   3.682   8.222   7.722
 1804POPC   NC324767  23.601  21.897   9.558
 1804POPC   PO424768  23.911  22.477   9.402
 1804POPC   GL124769  23.646  22.253   9.179
 1804POPC   GL224770  23.916  21.996   9.157
 1804POPC   C1A24771  23.488  22.083   8.806
 1804POPC   D2A24772  23.694  22.081   8.405
 1804POPC   C3A24773  23.498  22.094   7.972
 1804POPC   C4A24774  23.473  22.033   7.499
 1804POPC   C1B24775  24.131  22.042   8.773
 1804POPC   C2B24776  24.140  21.809   8.385
 1804POPC   C3B24777  24.006  22.048   8.000
 1804POPC   C4B24778  23.941  21.885   7.590
 1805POPC   NC324779  43.834  28.820   9.483
 1805POPC   PO424780  43.452  29.344   9.419
 1805POPC   GL124781  43.854  29.298   9.200
 1805POPC   GL224782  43.786  28.986   9.007
 1805POPC   C1A24783  44.107  29.324   8.814
 1805POPC   D2A24784  43.934  29.030   8.502
 1805POPC   C3A24785  43.884  29.179   8.072
 1805POPC   C4A24786  44.214  28.987   7.854
 1805POPC   C1B24787  43.573  29.306   8.743
 1805POPC   C2B24788  43.509  29.465   8.312
 1805POPC   C3B24789  43.472  29.498   7.862
 1805POPC   C4B24790  43.627  29.545   7.457
 1806POPC   NC324791  10.764   5.564   9.685
 1806POPC   PO424792  10.275   6.021   9.519
 1806POPC   GL124793  10.515   5.911   9.161
 1806POPC   GL224794  10.374   5.586   9.187
 1806POPC   C1A24795  10.653   5.870   8.698
 1806POPC   D2A24796  10.802   5.582   8.399
 1806POPC   C3A24797  10.754   5.744   7.994
 1806POPC   C4A24798  10.895   5.727   7.540
 1806POPC   C1B24799  10.347   5.457   8.765
 1806POPC   C2B24800  10.286   5.659   8.389
 1806POPC   C3B24801  10.247   5.550   7.988
 1806POPC   C4B24802  10.375   5.770   7.624
 1807POPC   NC324803   2.515  12.891   9.498
 1807POPC   PO424804   3.069  12.524   9.473
 1807POPC   GL124805   2.930  12.774   9.151
 1807POPC   GL224806   2.612  12.665   9.073
 1807POPC   C1A24807   2.955  12.854   8.703
 1807POPC   D2A24808   2.762  12.907   8.284
 1807POPC   C3A24809   3.001  12.929   7.892
 1807POPC   C4A24810   2.855  12.904   7.480
 1807POPC   C1B24811   2.600  12.437   8.729
 1807POPC   C2B24812   2.735  12.383   8.329
 1807POPC   C3B24813   2.675  12.526   7.897
 1807POPC   C4B24814   2.743  12.401   7.456
 1808POPC   NC324815   6.758  20.158   9.630
 1808POPC   PO424816   6.417  19.562   9.480
 1808POPC   GL124817   6.713  19.810   9.244
 1808POPC   GL224818   6.641  20.105   9.121
 1808POPC   C1A24819   6.990  19.834   8.877
 1808POPC   D2A24820   6.966  20.026   8.463
 1808POPC   C3A24821   6.687  19.818   8.172
 1808POPC   C4A24822   6.788  19.710   7.744
 1808POPC   C1B24823   6.408  19.905   8.729
 1808POPC   C2B24824   6.228  20.104   8.332
 1808POPC   C3B24825   6.115  20.034   7.889
 1808POPC   C4B24826   6.201  20.194   7.439
 1809POPC   NC324827  42.562  24.220   9.541
 1809POPC   PO424828  42.026  24.699   9.524
 1809POPC   GL124829  42.171  24.724   9.106
 1809POPC   GL224830  42.442  24.482   9.126
 1809POPC   C1A24831  42.237  24.555   8.663
 1809POPC   D2A24832  42.541  24.349   8.370
 1809POPC   C3A24833  42.417  24.461   7.959
 1809POPC   C4A24834  41.986  24.534   7.860
 1809POPC   C1B24835  42.242  24.113   8.942
 1809POPC   C2B24836  42.099  24.002   8.540
 1809POPC   C3B24837  42.112  24.061   8.098
 1809POPC   C4B24838  42.165  24.082   7.656
 1810POPC   NC324839   5.224  34.676   9.357
 1810POPC   PO424840   4.724  34.228   9.473
 1810POPC   GL124841   4.779  34.499   9.108
 1810POPC   GL224842   4.835  34.877   9.088
 1810POPC   C1A24843   4.955  34.491   8.703
 1810POPC   D2A24844   4.996  34.577   8.263
 1810POPC   C3A24845   4.848  34.275   7.918
 1810POPC   C4A24846   4.815  34.450   7.466
 1810POPC   C1B24847   5.212  34.932   8.774
 1810POPC   C2B24848   5.220  35.095   8.373
 1810POPC   C3B24849   5.424  34.805   8.123
 1810POPC   C4B24850   5.200  34.604   7.787
 1811POPC   NC324851  11.778  33.265   9.597
 1811POPC   PO424852  11.797  32.667   9.437
 1811POPC   GL124853  11.974  32.994   9.171
 1811POPC   GL224854  12.300  33.180   9.175
 1811POPC   C1A24855  12.049  32.994   8.750
 1811POPC   D2A24856  11.941  32.779   8.402
 1811POPC   C3A24857  12.086  32.922   8.002
 1811POPC   C4A24858  11.909  32.657   7.676
 1811POPC   C1B24859  12.266  33.445   8.806
 1811POPC   C2B24860  12.050  33.378   8.404
 1811POPC   C3B24861  11.805  33.364   8.048
 1811POPC   C4B24862  11.969  33.311   7.680
 1812POPC   NC324863  39.809  22.763   9.570
 1812POPC   PO424864  40.086  23.398   9.492
 1812POPC   GL124865  40.142  23.022   9.227
 1812POPC   GL224866  39.797  22.984   9.117
 1812POPC   C1A24867  40.284  22.822   8.824
 1812POPC   D2A24868  40.286  23.048   8.409
 1812POPC   C3A24869  40.240  22.858   8.008
 1812POPC   C4A24870  39.948  22.884   7.705
 1812POPC   C1B24871  39.838  23.067   8.687
 1812POPC   C2B24872  39.810  22.881   8.278
 1812POPC   C3B24873  39.564  23.060   7.965
 1812POPC   C4B24874  39.658  23.314   7.613
 1813POPC   NC324875  13.100   6.565   9.348
 1813POPC   PO424876  12.552   6.702   9.694
 1813POPC   GL124877  12.555   6.829   9.234
 1813POPC   GL224878  12.869   7.013   9.148
 1813POPC   C1A24879  12.581   6.730   8.773
 1813POPC   D2A24880  12.648   6.454   8.407
 1813POPC   C3A24881  12.529   6.490   7.964
 1813POPC   C4A24882  12.703   6.669   7.604
 1813POPC   C1B24883  13.098   6.855   8.762
 1813POPC   C2B24884  13.125   6.607   8.375
 1813POPC   C3B24885  13.050   6.446   7.958
 1813POPC   C4B24886  13.188   6.784   7.709
 1814POPC   NC324887   3.266  28.180   9.532
 1814POPC   PO424888   3.834  27.876   9.469
 1814POPC   GL124889   3.617  28.154   9.124
 1814POPC   GL224890   3.303  28.398   9.092
 1814POPC   C1A24891   3.491  28.195   8.698
 1814POPC   D2A24892   3.563  28.410   8.357
 1814POPC   C3A24893   3.251  28.375   8.075
 1814POPC   C4A24894   3.367  28.385   7.692
 1814POPC   C1B24895   3.388  28.701   8.773
 1814POPC   C2B24896   3.221  28.812   8.356
 1814POPC   C3B24897   3.292  28.860   7.885
 1814POPC   C4B24898   3.286  28.799   7.390
 1815POPC   NC324899  32.743  10.613   9.677
 1815POPC   PO424900  32.130  10.721   9.616
 1815POPC   GL124901  32.419  10.654   9.277
 1815POPC   GL224902  32.111  10.486   9.146
 1815POPC   C1A24903  32.533  10.458   8.892
 1815POPC   D2A24904  32.435  10.520   8.464
 1815POPC   C3A24905  32.625  10.598   8.066
 1815POPC   C4A24906  32.470  10.598   7.629
 1815POPC   C1B24907  31.980  10.418   8.716
 1815POPC   C2B24908  31.932  10.668   8.361
 1815POPC   C3B24909  32.115  10.652   8.004
 1815POPC   C4B24910  32.036  10.357   7.725
 1816POPC   NC324911  24.319   0.070   9.943
 1816POPC   PO424912  24.430   0.653   9.565
 1816POPC   GL124913  24.464   0.465   9.162
 1816POPC   GL224914  24.264   0.735   9.028
 1816POPC   C1A24915  24.622   0.149   8.841
 1816POPC   D2A24916  24.466   0.043   8.416
 1816POPC   C3A24917  24.637   0.068   7.978
 1816POPC   C4A24918  24.500   0.292   7.584
 1816POPC   C1B24919  24.594   0.642   8.717
 1816POPC   C2B24920  24.714   0.779   8.354
 1816POPC   C3B24921  24.622   0.582   8.011
 1816POPC   C4B24922  24.670   0.757   7.644
 1817POPC   NC324923   1.077  14.863   9.442
 1817POPC   PO424924   1.418  15.462   9.507
 1817POPC   GL124925   1.168  15.344   9.191
 1817POPC   GL224926   1.377  15.077   9.100
 1817POPC   C1A24927   1.050  15.397   8.768
 1817POPC   D2A24928   1.167  15.213   8.391
 1817POPC   C3A24929   1.380  15.306   7.985
 1817POPC   C4A24930   1.158  15.201   7.613
 1817POPC   C1B24931   1.520  15.035   8.732
 1817POPC   C2B24932   1.590  14.966   8.337
 1817POPC   C3B24933   1.301  14.814   8.077
 1817POPC   C4B24934   1.512  14.799   7.717
 1818POPC   NC324935  36.769   0.191   9.990
 1818POPC   PO424936  36.800   0.697   9.535
 1818POPC   GL124937  36.905   0.693   9.095
 1818POPC   GL224938  36.973   0.341   9.088
 1818POPC   C1A24939  36.768   0.514   8.653
 1818POPC   D2A24940  36.612   0.515   8.206
 1818POPC   C3A24941  36.965   0.583   7.912
 1818POPC   C4A24942  37.036   0.396   7.514
 1818POPC   C1B24943  37.091   0.103   8.694
 1818POPC   C2B24944  37.024   0.225   8.269
 1818POPC   C3B24945  37.013   0.015   7.869
 1818POPC   C4B24946  37.135  44.908   7.426
 1819POPC   NC324947  30.360   3.527   9.430
 1819POPC   PO424948  31.050   3.851   9.503
 1819POPC   GL124949  30.776   3.770   9.150
 1819POPC   GL224950  30.780   3.396   9.116
 1819POPC   C1A24951  30.877   3.665   8.706
 1819POPC   D2A24952  30.694   3.449   8.359
 1819POPC   C3A24953  30.821   3.537   7.963
 1819POPC   C4A24954  30.716   3.879   7.743
 1819POPC   C1B24955  30.509   3.198   8.775
 1819POPC   C2B24956  30.331   3.089   8.325
 1819POPC   C3B24957  30.441   3.194   7.905
 1819POPC   C4B24958  30.327   3.545   7.634
 1820POPC   NC324959  32.906  18.548   9.466
 1820POPC   PO424960  33.132  17.893   9.512
 1820POPC   GL124961  33.076  18.166   9.180
 1820POPC   GL224962  33.324  18.441   9.169
 1820POPC   C1A24963  32.883  18.387   8.806
 1820POPC   D2A24964  32.641  18.211   8.481
 1820POPC   C3A24965  32.794  18.334   8.103
 1820POPC   C4A24966  32.876  18.266   7.710
 1820POPC   C1B24967  33.373  18.184   8.795
 1820POPC   C2B24968  33.179  18.180   8.402
 1820POPC   C3B24969  33.345  18.227   7.985
 1820POPC   C4B24970  33.403  18.442   7.588
 1821POPC   NC324971  13.966  10.627   9.465
 1821POPC   PO424972  13.341  10.772   9.528
 1821POPC   GL124973  13.465  10.547   9.154
 1821POPC   GL224974  13.819  10.432   9.026
 1821POPC   C1A24975  13.382  10.361   8.756
 1821POPC   D2A24976  13.595  10.264   8.388
 1821POPC   C3A24977  13.355  10.494   8.116
 1821POPC   C4A24978  13.428  10.701   7.743
 1821POPC   C1B24979  13.922  10.680   8.648
 1821POPC   C2B24980  13.850  10.707   8.188
 1821POPC   C3B24981  13.823  10.367   7.894
 1821POPC   C4B24982  13.726  10.385   7.465
 1822POPC   NC324983   1.384  31.819   9.476
 1822POPC   PO424984   0.957  32.228   9.253
 1822POPC   GL124985   1.321  32.109   9.064
 1822POPC   GL224986   1.646  32.179   9.197
 1822POPC   C1A24987   1.268  31.993   8.661
 1822POPC   D2A24988   1.050  32.323   8.455
 1822POPC   C3A24989   1.183  32.232   8.086
 1822POPC   C4A24990   1.101  32.237   7.703
 1822POPC   C1B24991   1.662  32.329   8.772
 1822POPC   C2B24992   1.573  32.425   8.364
 1822POPC   C3B24993   1.672  32.194   8.009
 1822POPC   C4B24994   1.525  31.937   7.721
 1823POPC   NC324995   9.583  35.171   9.420
 1823POPC   PO424996   9.872  35.746   9.449
 1823POPC   GL124997   9.714  35.585   9.091
 1823POPC   GL224998   9.874  35.258   9.016
 1823POPC   C1A24999   9.883  35.616   8.682
 1823POPC   D2A25000   9.985  35.590   8.303
 1823POPC   C3A25001   9.920  35.314   7.994
 1823POPC   C4A25002   9.639  35.560   7.764
 1823POPC   C1B25003   9.931  35.006   8.671
 1823POPC   C2B25004   9.663  34.963   8.339
 1823POPC   C3B25005   9.443  35.114   7.998
 1823POPC   C4B25006   9.590  35.065   7.579
 1824POPC   NC325007   1.538  20.215   9.430
 1824POPC   PO425008   1.530  20.940   9.501
 1824POPC   GL125009   1.430  20.635   9.154
 1824POPC   GL225010   1.136  20.386   9.111
 1824POPC   C1A25011   1.424  20.525   8.716
 1824POPC   D2A25012   1.238  20.732   8.381
 1824POPC   C3A25013   1.323  20.691   7.959
 1824POPC   C4A25014   0.972  20.834   7.749
 1824POPC   C1B25015   0.898  20.501   8.714
 1824POPC   C2B25016   0.696  20.332   8.390
 1824POPC   C3B25017   0.982  20.352   8.087
 1824POPC   C4B25018   1.025  20.332   7.683
 1825POPC   NC325019   5.629  44.430   9.467
 1825POPC   PO425020   6.160  44.768   9.509
 1825POPC   GL125021   6.016  44.570   9.150
 1825POPC   GL225022   5.702  44.754   9.075
 1825POPC   C1A25023   6.021  44.512   8.720
 1825POPC   D2A25024   5.754  44.637   8.385
 1825POPC   C3A25025   6.038  44.571   8.037
 1825POPC   C4A25026   6.208  44.465   7.650
 1825POPC   C1B25027   5.542  44.380   8.833
 1825POPC   C2B25028   5.362  44.285   8.440
 1825POPC   C3B25029   5.608  44.255   8.080
 1825POPC   C4B25030   5.660  44.458   7.678
 1826POPC   NC325031  22.178  23.910   9.494
 1826POPC   PO425032  22.247  23.228   9.481
 1826POPC   GL125033  22.174  23.527   9.116
 1826POPC   GL225034  21.979  23.868   9.051
 1826POPC   C1A25035  22.294  23.674   8.693
 1826POPC   D2A25036  22.437  23.976   8.376
 1826POPC   C3A25037  22.252  23.946   7.953
 1826POPC   C4A25038  22.145  23.527   7.784
 1826POPC   C1B25039  21.843  23.923   8.671
 1826POPC   C2B25040  21.956  23.736   8.314
 1826POPC   C3B25041  21.742  23.767   7.967
 1826POPC   C4B25042  21.832  23.934   7.595
 1827POPC   NC325043  17.003  25.599   9.454
 1827POPC   PO425044  17.681  25.320   9.567
 1827POPC   GL125045  17.676  25.111   9.151
 1827POPC   GL225046  17.305  25.059   9.064
 1827POPC   C1A25047  17.654  25.149   8.695
 1827POPC   D2A25048  17.556  25.431   8.392
 1827POPC   C3A25049  17.546  25.215   8.026
 1827POPC   C4A25050  17.729  25.324   7.652
 1827POPC   C1B25051  17.305  25.473   8.886
 1827POPC   C2B25052  17.122  25.663   8.511
 1827POPC   C3B25053  17.097  25.470   8.122
 1827POPC   C4B25054  17.298  25.625   7.771
 1828POPC   NC325055  23.759  24.742   9.438
 1828POPC   PO425056  23.493  24.038   9.491
 1828POPC   GL125057  23.430  24.341   9.159
 1828POPC   GL225058  23.786  24.404   9.035
 1828POPC   C1A25059  23.401  24.442   8.700
 1828POPC   D2A25060  23.596  24.651   8.319
 1828POPC   C3A25061  23.450  24.594   7.885
 1828POPC   C4A25062  23.671  24.377   7.535
 1828POPC   C1B25063  23.921  24.756   8.753
 1828POPC   C2B25064  24.072  24.885   8.330
 1828POPC   C3B25065  23.911  24.900   7.927
 1828POPC   C4B25066  23.825  24.878   7.470
 1829POPC   NC325067  39.963  12.893   9.636
 1829POPC   PO425068  40.505  12.622   9.413
 1829POPC   GL125069  40.102  12.721   9.162
 1829POPC   GL225070  39.747  12.877   9.175
 1829POPC   C1A25071  40.019  12.792   8.735
 1829POPC   D2A25072  40.159  12.586   8.370
 1829POPC   C3A25073  39.862  12.542   8.074
 1829POPC   C4A25074  39.995  12.614   7.684
 1829POPC   C1B25075  39.610  13.098   8.773
 1829POPC   C2B25076  39.657  12.909   8.348
 1829POPC   C3B25077  39.767  13.032   7.886
 1829POPC   C4B25078  39.687  13.214   7.413
 1830POPC   NC325079  12.517   5.109   9.518
 1830POPC   PO425080  11.982   5.510   9.500
 1830POPC   GL125081  12.098   5.209   9.141
 1830POPC   GL225082  12.395   5.041   9.020
 1830POPC   C1A25083  11.908   4.970   8.795
 1830POPC   D2A25084  12.077   4.870   8.392
 1830POPC   C3A25085  11.841   5.016   8.035
 1830POPC   C4A25086  11.703   4.829   7.678
 1830POPC   C1B25087  12.355   5.447   8.779
 1830POPC   C2B25088  12.438   5.531   8.362
 1830POPC   C3B25089  12.346   5.215   8.072
 1830POPC   C4B25090  12.182   5.109   7.682
 1831POPC   NC325091  20.221  14.233   9.462
 1831POPC   PO425092  19.683  14.651   9.510
 1831POPC   GL125093  19.686  14.307   9.218
 1831POPC   GL225094  19.409  14.409   8.979
 1831POPC   C1A25095  19.894  14.272   8.841
 1831POPC   D2A25096  19.753  14.332   8.430
 1831POPC   C3A25097  20.070  14.408   8.143
 1831POPC   C4A25098  20.035  14.402   7.716
 1831POPC   C1B25099  19.670  14.731   8.750
 1831POPC   C2B25100  19.841  14.820   8.311
 1831POPC   C3B25101  19.653  14.651   7.926
 1831POPC   C4B25102  19.695  14.698   7.466
 1832POPC   NC325103  25.190   5.112   9.527
 1832POPC   PO425104  25.456   4.507   9.438
 1832POPC   GL125105  25.189   4.785   9.122
 1832POPC   GL225106  25.313   5.182   9.062
 1832POPC   C1A25107  25.051   4.918   8.724
 1832POPC   D2A25108  25.190   5.025   8.351
 1832POPC   C3A25109  25.090   4.770   7.979
 1832POPC   C4A25110  25.164   4.960   7.600
 1832POPC   C1B25111  25.260   5.438   8.703
 1832POPC   C2B25112  25.411   5.492   8.261
 1832POPC   C3B25113  25.323   5.563   7.808
 1832POPC   C4B25114  25.236   5.414   7.358
 1833POPC   NC325115  28.771  34.380   9.487
 1833POPC   PO425116  28.158  34.673   9.556
 1833POPC   GL125117  28.269  34.702   9.161
 1833POPC   GL225118  28.584  34.747   9.152
 1833POPC   C1A25119  28.287  34.763   8.717
 1833POPC   D2A25120  28.140  34.548   8.348
 1833POPC   C3A25121  28.315  34.705   7.957
 1833POPC   C4A25122  28.232  34.613   7.513
 1833POPC   C1B25123  28.763  34.590   8.780
 1833POPC   C2B25124  28.634  34.517   8.353
 1833POPC   C3B25125  28.619  34.290   7.946
 1833POPC   C4B25126  28.598  34.255   7.511
 1834POPC   NC325127  27.962  30.387   9.423
 1834POPC   PO425128  28.691  30.568   9.505
 1834POPC   GL125129  28.437  30.529   9.182
 1834POPC   GL225130  28.423  30.174   9.187
 1834POPC   C1A25131  28.405  30.759   8.783
 1834POPC   D2A25132  28.315  31.011   8.439
 1834POPC   C3A25133  28.553  30.960   8.074
 1834POPC   C4A25134  28.237  30.842   7.805
 1834POPC   C1B25135  28.374  30.257   8.751
 1834POPC   C2B25136  28.385  30.464   8.340
 1834POPC   C3B25137  28.427  30.381   7.904
 1834POPC   C4B25138  28.563  30.282   7.477
 1835POPC   NC325139  35.733  42.658   9.377
 1835POPC   PO425140  36.313  42.426   9.482
 1835POPC   GL125141  36.132  42.387   9.112
 1835POPC   GL225142  35.849  42.199   9.115
 1835POPC   C1A25143  36.337  42.317   8.715
 1835POPC   D2A25144  36.533  42.400   8.311
 1835POPC   C3A25145  36.286  42.324   7.937
 1835POPC   C4A25146  35.987  42.026   7.840
 1835POPC   C1B25147  35.788  42.437   8.738
 1835POPC   C2B25148  36.014  42.544   8.375
 1835POPC   C3B25149  35.800  42.493   8.029
 1835POPC   C4B25150  35.689  42.434   7.659
 1836POPC   NC325151  20.907  36.936   9.556
 1836POPC   PO425152  21.115  36.328   9.418
 1836POPC   GL125153  20.864  36.588   9.138
 1836POPC   GL225154  20.540  36.720   9.167
 1836POPC   C1A25155  20.832  36.940   8.813
 1836POPC   D2A25156  21.023  37.115   8.420
 1836POPC   C3A25157  20.804  37.069   8.025
 1836POPC   C4A25158  20.582  37.272   7.690
 1836POPC   C1B25159  20.515  36.501   8.767
 1836POPC   C2B25160  20.556  36.576   8.322
 1836POPC   C3B25161  20.246  36.493   8.009
 1836POPC   C4B25162  20.303  36.799   7.749
 1837POPC   NC325163  31.316  29.536   9.155
 1837POPC   PO425164  31.720  29.028   9.367
 1837POPC   GL125165  31.622  28.982   8.943
 1837POPC   GL225166  31.271  28.842   8.826
 1837POPC   C1A25167  31.907  29.069   8.639
 1837POPC   D2A25168  31.828  29.364   8.387
 1837POPC   C3A25169  31.646  29.151   8.095
 1837POPC   C4A25170  31.761  28.974   7.716
 1837POPC   C1B25171  31.328  29.155   8.526
 1837POPC   C2B25172  31.117  29.172   8.145
 1837POPC   C3B25173  31.283  29.245   7.763
 1837POPC   C4B25174  31.067  29.406   7.426
 1838POPC   NC325175  13.196  13.810   9.496
 1838POPC   PO425176  12.678  13.399   9.762
 1838POPC   GL125177  12.783  13.540   9.283
 1838POPC   GL225178  12.772  13.908   9.192
 1838POPC   C1A25179  12.980  13.509   8.839
 1838POPC   D2A25180  12.987  13.776   8.442
 1838POPC   C3A25181  12.948  13.590   8.012
 1838POPC   C4A25182  13.264  13.332   7.809
 1838POPC   C1B25183  12.536  13.780   8.809
 1838POPC   C2B25184  12.449  13.770   8.357
 1838POPC   C3B25185  12.481  13.839   7.925
 1838POPC   C4B25186  12.583  13.688   7.547
 1839POPC   NC325187   1.027  14.159   9.439
 1839POPC   PO425188   1.507  14.673   9.425
 1839POPC   GL125189   1.415  14.463   9.067
 1839POPC   GL225190   1.085  14.503   9.049
 1839POPC   C1A25191   1.387  14.524   8.608
 1839POPC   D2A25192   1.573  14.406   8.218
 1839POPC   C3A25193   1.298  14.344   7.832
 1839POPC   C4A25194   0.900  14.164   7.701
 1839POPC   C1B25195   1.021  14.859   8.776
 1839POPC   C2B25196   0.780  14.806   8.416
 1839POPC   C3B25197   0.848  14.556   8.072
 1839POPC   C4B25198   0.982  14.720   7.679
 1840POPC   NC325199  29.418   3.067   9.442
 1840POPC   PO425200  28.984   2.509   9.472
 1840POPC   GL125201  29.199   2.548   9.071
 1840POPC   GL225202  29.287   2.901   8.982
 1840POPC   C1A25203  29.099   2.556   8.639
 1840POPC   D2A25204  29.225   2.789   8.278
 1840POPC   C3A25205  29.214   2.590   7.916
 1840POPC   C4A25206  29.174   2.756   7.490
 1840POPC   C1B25207  29.571   2.786   8.657
 1840POPC   C2B25208  29.710   2.983   8.257
 1840POPC   C3B25209  29.595   2.936   7.812
 1840POPC   C4B25210  29.631   2.917   7.362
 1841POPC   NC325211  11.172  43.781   9.489
 1841POPC   PO425212  11.451  44.305   9.210
 1841POPC   GL125213  11.502  43.886   9.046
 1841POPC   GL225214  11.187  43.786   9.002
 1841POPC   C1A25215  11.471  43.810   8.590
 1841POPC   D2A25216  11.210  44.102   8.336
 1841POPC   C3A25217  11.303  44.110   7.886
 1841POPC   C4A25218  11.408  44.169   7.437
 1841POPC   C1B25219  10.948  44.012   8.777
 1841POPC   C2B25220  10.745  43.915   8.412
 1841POPC   C3B25221  10.833  43.957   7.997
 1841POPC   C4B25222  10.964  43.901   7.549
 1842POPC   NC325223   9.561  38.855   9.839
 1842POPC   PO425224  10.106  39.145   9.548
 1842POPC   GL125225  10.016  39.186   9.113
 1842POPC   GL225226   9.636  39.129   9.049
 1842POPC   C1A25227  10.014  38.975   8.707
 1842POPC   D2A25228   9.974  39.031   8.260
 1842POPC   C3A25229   9.889  39.407   8.001
 1842POPC   C4A25230   9.989  39.420   7.537
 1842POPC   C1B25231   9.503  38.838   8.699
 1842POPC   C2B25232   9.486  38.904   8.228
 1842POPC   C3B25233   9.465  39.171   7.836
 1842POPC   C4B25234   9.152  39.287   7.503
 1843POPC   NC325235  37.254  40.626   9.458
 1843POPC   PO425236  36.658  41.036   9.438
 1843POPC   GL125237  36.839  40.769   9.138
 1843POPC   GL225238  37.102  40.975   9.096
 1843POPC   C1A25239  37.028  40.596   8.740
 1843POPC   D2A25240  36.838  40.374   8.375
 1843POPC   C3A25241  36.818  40.600   7.993
 1843POPC   C4A25242  37.170  40.622   7.720
 1843POPC   C1B25243  37.232  41.090   8.702
 1843POPC   C2B25244  37.202  41.280   8.305
 1843POPC   C3B25245  37.197  41.114   7.896
 1843POPC   C4B25246  36.905  41.013   7.537
 1844POPC   NC325247  12.359  29.067   9.680
 1844POPC   PO425248  13.057  29.019   9.621
 1844POPC   GL125249  13.116  29.153   9.130
 1844POPC   GL225250  13.086  29.520   8.970
 1844POPC   C1A25251  13.313  29.197   8.683
 1844POPC   D2A25252  13.366  29.319   8.257
 1844POPC   C3A25253  13.077  29.069   8.013
 1844POPC   C4A25254  13.190  29.086   7.557
 1844POPC   C1B25255  12.797  29.240   8.726
 1844POPC   C2B25256  12.503  29.137   8.426
 1844POPC   C3B25257  12.567  29.117   8.025
 1844POPC   C4B25258  12.703  29.199   7.644
 1845POPC   NC325259   9.361  37.422   9.362
 1845POPC   PO425260   8.771  37.766   9.586
 1845POPC   GL125261   8.738  37.804   9.140
 1845POPC   GL225262   9.031  37.634   9.040
 1845POPC   C1A25263   8.674  37.770   8.674
 1845POPC   D2A25264   8.810  37.484   8.395
 1845POPC   C3A25265   8.895  37.585   7.991
 1845POPC   C4A25266   8.595  37.539   7.691
 1845POPC   C1B25267   9.191  37.811   8.669
 1845POPC   C2B25268   9.027  37.982   8.307
 1845POPC   C3B25269   9.188  38.012   7.901
 1845POPC   C4B25270   9.353  37.639   7.772
 1846POPC   NC325271  37.422  27.233   9.450
 1846POPC   PO425272  37.574  26.601   9.483
 1846POPC   GL125273  37.618  26.614   9.090
 1846POPC   GL225274  37.699  26.973   9.079
 1846POPC   C1A25275  37.863  26.415   8.791
 1846POPC   D2A25276  38.102  26.481   8.417
 1846POPC   C3A25277  37.815  26.553   8.112
 1846POPC   C4A25278  37.895  26.929   7.892
 1846POPC   C1B25279  37.789  26.891   8.653
 1846POPC   C2B25280  37.545  26.936   8.299
 1846POPC   C3B25281  37.517  27.255   7.998
 1846POPC   C4B25282  37.303  27.360   7.650
 1847POPC   NC325283  26.448  43.895   9.659
 1847POPC   PO425284  25.897  43.623   9.553
 1847POPC   GL125285  25.883  43.901   9.190
 1847POPC   GL225286  26.235  43.962   9.183
 1847POPC   C1A25287  25.880  43.848   8.729
 1847POPC   D2A25288  26.076  43.582   8.383
 1847POPC   C3A25289  25.973  43.669   7.944
 1847POPC   C4A25290  26.028  44.078   7.695
 1847POPC   C1B25291  26.388  43.781   8.817
 1847POPC   C2B25292  26.523  43.828   8.425
 1847POPC   C3B25293  26.409  43.904   8.029
 1847POPC   C4B25294  26.399  43.736   7.646
 1848POPC   NC325295  42.061  36.861   9.553
 1848POPC   PO425296  41.460  36.886   9.594
 1848POPC   GL125297  41.689  37.092   9.245
 1848POPC   GL225298  41.381  37.173   9.073
 1848POPC   C1A25299  41.808  37.086   8.794
 1848POPC   D2A25300  41.680  36.908   8.395
 1848POPC   C3A25301  41.874  36.937   8.008
 1848POPC   C4A25302  41.745  36.972   7.632
 1848POPC   C1B25303  41.272  36.913   8.712
 1848POPC   C2B25304  41.089  36.863   8.287
 1848POPC   C3B25305  41.291  36.974   7.876
 1848POPC   C4B25306  41.354  37.333   7.559
 1849POPC   NC325307  29.952  15.653   9.579
 1849POPC   PO425308  29.670  14.971   9.495
 1849POPC   GL125309  29.951  15.233   9.247
 1849POPC   GL225310  29.692  15.465   9.140
 1849POPC   C1A25311  30.085  15.287   8.810
 1849POPC   D2A25312  30.071  15.062   8.421
 1849POPC   C3A25313  29.878  15.264   8.045
 1849POPC   C4A25314  30.120  15.339   7.648
 1849POPC   C1B25315  29.614  15.098   8.863
 1849POPC   C2B25316  29.511  15.017   8.419
 1849POPC   C3B25317  29.512  14.889   7.978
 1849POPC   C4B25318  29.765  14.979   7.606
 1850POPC   NC325319  29.228  30.718   9.683
 1850POPC   PO425320  29.180  31.100   9.159
 1850POPC   GL125321  29.336  30.739   9.058
 1850POPC   GL225322  29.105  30.547   9.211
 1850POPC   C1A25323  29.265  30.615   8.638
 1850POPC   D2A25324  29.120  30.815   8.251
 1850POPC   C3A25325  29.343  30.726   7.863
 1850POPC   C4A25326  29.258  30.810   7.433
 1850POPC   C1B25327  28.844  30.458   8.865
 1850POPC   C2B25328  28.881  30.304   8.444
 1850POPC   C3B25329  28.926  30.419   8.001
 1850POPC   C4B25330  29.079  30.373   7.583
 1851POPC   NC325331  19.377   6.904   9.513
 1851POPC   PO425332  18.917   6.437   9.505
 1851POPC   GL125333  19.184   6.544   9.182
 1851POPC   GL225334  18.971   6.833   9.181
 1851POPC   C1A25335  19.138   6.600   8.750
 1851POPC   D2A25336  18.878   6.568   8.410
 1851POPC   C3A25337  19.091   6.535   8.070
 1851POPC   C4A25338  19.238   6.794   7.757
 1851POPC   C1B25339  18.945   7.067   8.830
 1851POPC   C2B25340  18.930   7.101   8.434
 1851POPC   C3B25341  18.852   6.994   8.048
 1851POPC   C4B25342  18.899   7.150   7.643
 1852POPC   NC325343  17.231   0.218   9.206
 1852POPC   PO425344  16.620   0.423   9.567
 1852POPC   GL125345  16.762   0.483   9.183
 1852POPC   GL225346  16.751   0.148   9.100
 1852POPC   C1A25347  16.863   0.552   8.748
 1852POPC   D2A25348  16.957   0.371   8.354
 1852POPC   C3A25349  16.942   0.667   8.039
 1852POPC   C4A25350  16.845   0.579   7.658
 1852POPC   C1B25351  16.839  44.993   8.687
 1852POPC   C2B25352  16.579   0.027   8.338
 1852POPC   C3B25353  16.559   0.289   8.020
 1852POPC   C4B25354  16.542   0.107   7.648
 1853POPC   NC325355  10.643  15.025   9.333
 1853POPC   PO425356  10.220  15.494   9.518
 1853POPC   GL125357  10.397  15.406   9.101
 1853POPC   GL225358  10.781  15.371   8.980
 1853POPC   C1A25359  10.376  15.186   8.717
 1853POPC   D2A25360  10.359  15.399   8.360
 1853POPC   C3A25361  10.637  15.269   8.023
 1853POPC   C4A25362  10.392  15.325   7.676
 1853POPC   C1B25363  10.898  14.981   8.736
 1853POPC   C2B25364  10.675  14.900   8.372
 1853POPC   C3B25365  10.267  14.923   8.192
 1853POPC   C4B25366  10.324  14.843   7.757
 1854POPC   NC325367  23.440  32.899   9.429
 1854POPC   PO425368  24.080  33.053   9.405
 1854POPC   GL125369  23.820  33.303   9.107
 1854POPC   GL225370  23.440  33.234   9.051
 1854POPC   C1A25371  23.971  33.492   8.721
 1854POPC   D2A25372  24.086  33.306   8.314
 1854POPC   C3A25373  23.768  33.062   8.087
 1854POPC   C4A25374  23.798  33.023   7.653
 1854POPC   C1B25375  23.580  33.170   8.633
 1854POPC   C2B25376  23.564  33.475   8.315
 1854POPC   C3B25377  23.403  33.425   7.928
 1854POPC   C4B25378  23.332  33.205   7.555
 1855POPC   NC325379  12.501   3.543   9.771
 1855POPC   PO425380  12.994   3.847   9.355
 1855POPC   GL125381  12.879   3.693   8.989
 1855POPC   GL225382  12.535   3.863   8.980
 1855POPC   C1A25383  12.824   3.353   8.695
 1855POPC   D2A25384  12.992   3.474   8.335
 1855POPC   C3A25385  12.885   3.244   7.985
 1855POPC   C4A25386  13.070   3.426   7.610
 1855POPC   C1B25387  12.619   3.838   8.584
 1855POPC   C2B25388  12.737   3.957   8.238
 1855POPC   C3B25389  12.787   3.739   7.927
 1855POPC   C4B25390  12.615   3.846   7.573
 1856POPC   NC325391  40.396  31.679   9.511
 1856POPC   PO425392  40.070  31.040   9.544
 1856POPC   GL125393  40.017  31.435   9.222
 1856POPC   GL225394  39.676  31.573   9.160
 1856POPC   C1A25395  40.033  31.680   8.835
 1856POPC   D2A25396  40.011  31.467   8.451
 1856POPC   C3A25397  40.060  31.686   8.087
 1856POPC   C4A25398  39.919  31.503   7.751
 1856POPC   C1B25399  39.557  31.840   8.913
 1856POPC   C2B25400  39.624  31.818   8.517
 1856POPC   C3B25401  39.515  31.735   8.129
 1856POPC   C4B25402  39.514  31.846   7.719
 1857POPC   NC325403  44.323  37.226   9.538
 1857POPC   PO425404  44.990  36.862   9.524
 1857POPC   GL125405  44.693  36.958   9.216
 1857POPC   GL225406  44.672  37.311   9.162
 1857POPC   C1A25407  44.589  36.972   8.771
 1857POPC   D2A25408  44.412  36.945   8.324
 1857POPC   C3A25409  44.611  36.939   7.920
 1857POPC   C4A25410  44.488  36.968   7.468
 1857POPC   C1B25411  44.845  37.416   8.749
 1857POPC   C2B25412  44.610  37.438   8.369
 1857POPC   C3B25413  44.801  37.438   7.967
 1857POPC   C4B25414  44.908  37.222   7.584
 1858POPC   NC325415  37.720  17.210   9.519
 1858POPC   PO425416  37.331  16.631   9.553
 1858POPC   GL125417  37.566  16.807   9.196
 1858POPC   GL225418  37.364  17.079   9.171
 1858POPC   C1A25419  37.710  16.799   8.759
 1858POPC   D2A25420  37.583  16.685   8.312
 1858POPC   C3A25421  37.871  16.840   7.973
 1858POPC   C4A25422  38.069  16.814   7.552
 1858POPC   C1B25423  37.270  17.093   8.776
 1858POPC   C2B25424  37.188  17.056   8.361
 1858POPC   C3B25425  37.421  17.110   7.998
 1858POPC   C4B25426  37.418  16.777   7.729
 1859POPC   NC325427  28.529  44.342   9.463
 1859POPC   PO425428  28.209  43.736   9.453
 1859POPC   GL125429  28.303  43.872   9.091
 1859POPC   GL225430  28.151  44.216   9.071
 1859POPC   C1A25431  28.315  43.583   8.744
 1859POPC   D2A25432  28.566  43.524   8.375
 1859POPC   C3A25433  28.636  43.919   8.160
 1859POPC   C4A25434  28.538  44.029   7.733
 1859POPC   C1B25435  28.298  44.088   8.645
 1859POPC   C2B25436  28.143  43.847   8.331
 1859POPC   C3B25437  27.955  44.014   7.998
 1859POPC   C4B25438  28.044  44.052   7.617
 1860POPC   NC325439  29.912  38.362   9.567
 1860POPC   PO425440  30.257  38.953   9.564
 1860POPC   GL125441  29.967  38.791   9.225
 1860POPC   GL225442  29.758  38.507   9.110
 1860POPC   C1A25443  30.124  38.680   8.801
 1860POPC   D2A25444  30.190  38.471   8.401
 1860POPC   C3A25445  29.908  38.530   8.049
 1860POPC   C4A25446  30.185  38.444   7.702
 1860POPC   C1B25447  29.542  38.161   8.921
 1860POPC   C2B25448  29.562  38.250   8.482
 1860POPC   C3B25449  29.589  38.063   8.099
 1860POPC   C4B25450  29.756  38.133   7.735
 1861POPC   NC325451  25.447  26.765   9.280
 1861POPC   PO425452  25.021  27.189   9.606
 1861POPC   GL125453  25.065  27.122   9.192
 1861POPC   GL225454  24.862  27.424   9.153
 1861POPC   C1A25455  25.024  26.838   8.811
 1861POPC   D2A25456  25.336  26.665   8.526
 1861POPC   C3A25457  25.226  26.675   8.070
 1861POPC   C4A25458  25.362  26.881   7.696
 1861POPC   C1B25459  24.930  27.333   8.732
 1861POPC   C2B25460  24.980  27.075   8.340
 1861POPC   C3B25461  24.950  27.120   7.877
 1861POPC   C4B25462  25.019  27.143   7.390
 1862POPC   NC325463   5.569  16.938   9.396
 1862POPC   PO425464   5.033  16.521   9.483
 1862POPC   GL125465   5.105  16.681   9.105
 1862POPC   GL225466   5.438  16.552   9.026
 1862POPC   C1A25467   5.173  16.911   8.741
 1862POPC   D2A25468   5.321  16.931   8.337
 1862POPC   C3A25469   5.001  16.855   8.066
 1862POPC   C4A25470   4.858  16.659   7.728
 1862POPC   C1B25471   5.269  16.396   8.638
 1862POPC   C2B25472   5.271  16.432   8.204
 1862POPC   C3B25473   5.536  16.485   7.882
 1862POPC   C4B25474   5.453  16.409   7.456
 1863POPC   NC325475   2.532  36.352   9.357
 1863POPC   PO425476   1.863  36.247   9.478
 1863POPC   GL125477   2.098  36.253   9.106
 1863POPC   GL225478   2.340  35.979   9.077
 1863POPC   C1A25479   1.976  36.201   8.698
 1863POPC   D2A25480   1.886  36.024   8.303
 1863POPC   C3A25481   1.827  36.378   8.004
 1863POPC   C4A25482   1.629  36.331   7.609
 1863POPC   C1B25483   2.506  36.143   8.706
 1863POPC   C2B25484   2.336  36.303   8.339
 1863POPC   C3B25485   2.257  36.124   7.958
 1863POPC   C4B25486   2.155  36.302   7.561
 1864POPC   NC325487  28.718  19.931   9.654
 1864POPC   PO425488  29.343  19.673   9.576
 1864POPC   GL125489  29.067  19.690   9.274
 1864POPC   GL225490  29.218  20.009   9.161
 1864POPC   C1A25491  29.129  19.587   8.869
 1864POPC   D2A25492  29.185  19.874   8.513
 1864POPC   C3A25493  28.944  19.741   8.158
 1864POPC   C4A25494  29.061  19.730   7.774
 1864POPC   C1B25495  28.840  20.024   8.883
 1864POPC   C2B25496  28.729  20.107   8.428
 1864POPC   C3B25497  28.959  20.214   8.005
 1864POPC   C4B25498  28.929  20.134   7.525
 1865POPC   NC325499  24.720  21.033   9.856
 1865POPC   PO425500  24.770  21.514   9.350
 1865POPC   GL125501  24.556  21.383   9.011
 1865POPC   GL225502  24.302  21.611   8.975
 1865POPC   C1A25503  24.617  21.384   8.561
 1865POPC   D2A25504  24.543  21.387   8.173
 1865POPC   C3A25505  24.675  21.066   7.921
 1865POPC   C4A25506  24.438  21.172   7.596
 1865POPC   C1B25507  24.143  21.306   8.679
 1865POPC   C2B25508  24.020  21.294   8.291
 1865POPC   C3B25509  24.083  21.435   7.882
 1865POPC   C4B25510  24.012  21.415   7.457
 1866POPC   NC325511  22.635  22.165   9.480
 1866POPC   PO425512  23.305  22.248   9.628
 1866POPC   GL125513  23.143  22.389   9.229
 1866POPC   GL225514  22.997  22.083   9.092
 1866POPC   C1A25515  23.287  22.561   8.820
 1866POPC   D2A25516  23.138  22.317   8.454
 1866POPC   C3A25517  23.109  22.414   8.013
 1866POPC   C4A25518  23.028  22.058   7.775
 1866POPC   C1B25519  22.803  22.417   8.848
 1866POPC   C2B25520  22.614  22.489   8.460
 1866POPC   C3B25521  22.643  22.223   8.079
 1866POPC   C4B25522  22.658  22.391   7.637
 1867POPC   NC325523  43.273  25.477   9.323
 1867POPC   PO425524  42.851  25.007   9.492
 1867POPC   GL125525  43.032  24.932   9.081
 1867POPC   GL225526  43.385  24.949   9.059
 1867POPC   C1A25527  42.945  25.217   8.706
 1867POPC   D2A25528  43.033  25.537   8.388
 1867POPC   C3A25529  43.000  25.378   7.969
 1867POPC   C4A25530  42.628  25.368   7.705
 1867POPC   C1B25531  43.456  25.210   8.716
 1867POPC   C2B25532  43.312  25.129   8.321
 1867POPC   C3B25533  43.486  24.995   7.964
 1867POPC   C4B25534  43.454  25.318   7.716
 1868POPC   NC325535  31.215  19.836   9.462
 1868POPC   PO425536  31.766  19.608   9.093
 1868POPC   GL125537  31.416  19.812   8.996
 1868POPC   GL225538  31.161  19.549   9.043
 1868POPC   C1A25539  31.360  20.127   8.675
 1868POPC   D2A25540  31.410  20.169   8.227
 1868POPC   C3A25541  31.667  19.838   8.033
 1868POPC   C4A25542  31.764  19.463   7.767
 1868POPC   C1B25543  31.023  19.769   8.664
 1868POPC   C2B25544  31.266  19.675   8.344
 1868POPC   C3B25545  31.272  19.469   7.966
 1868POPC   C4B25546  31.305  19.703   7.609
 1869POPC   NC325547  25.589   3.554   9.461
 1869POPC   PO425548  24.909   3.159   9.492
 1869POPC   GL125549  25.062   3.420   9.115
 1869POPC   GL225550  25.376   3.583   9.023
 1869POPC   C1A25551  25.007   3.770   8.778
 1869POPC   D2A25552  25.296   3.948   8.503
 1869POPC   C3A25553  25.239   3.764   8.104
 1869POPC   C4A25554  25.199   3.691   7.698
 1869POPC   C1B25555  25.439   3.151   8.873
 1869POPC   C2B25556  25.419   3.028   8.449
 1869POPC   C3B25557  25.303   3.241   8.066
 1869POPC   C4B25558  25.559   3.300   7.718
 1870POPC   NC325559  19.621  36.897   9.144
 1870POPC   PO425560  19.054  36.997   9.488
 1870POPC   GL125561  18.898  36.967   9.108
 1870POPC   GL225562  19.178  37.079   8.952
 1870POPC   C1A25563  18.749  36.928   8.676
 1870POPC   D2A25564  18.801  37.206   8.346
 1870POPC   C3A25565  18.968  36.982   8.030
 1870POPC   C4A25566  18.825  36.836   7.676
 1870POPC   C1B25567  19.155  36.632   8.799
 1870POPC   C2B25568  19.090  36.560   8.400
 1870POPC   C3B25569  19.326  36.616   8.050
 1870POPC   C4B25570  19.179  36.443   7.695
 1871POPC   NC325571   8.158  22.615   9.602
 1871POPC   PO425572   7.685  22.974   9.446
 1871POPC   GL125573   7.953  23.040   9.125
 1871POPC   GL225574   8.302  22.900   9.187
 1871POPC   C1A25575   8.147  23.054   8.719
 1871POPC   D2A25576   8.458  22.846   8.480
 1871POPC   C3A25577   8.534  23.031   8.088
 1871POPC   C4A25578   8.249  23.024   7.753
 1871POPC   C1B25579   8.036  22.599   8.929
 1871POPC   C2B25580   8.073  22.518   8.516
 1871POPC   C3B25581   8.060  22.698   8.112
 1871POPC   C4B25582   8.078  22.563   7.669
 1872POPC   NC325583  30.616  41.039   9.451
 1872POPC   PO425584  30.954  40.500   9.428
 1872POPC   GL125585  30.713  40.657   9.112
 1872POPC   GL225586  30.433  40.500   9.026
 1872POPC   C1A25587  30.573  40.936   8.781
 1872POPC   D2A25588  30.677  41.199   8.429
 1872POPC   C3A25589  30.517  41.027   8.037
 1872POPC   C4A25590  30.736  41.030   7.613
 1872POPC   C1B25591  30.647  40.400   8.668
 1872POPC   C2B25592  30.728  40.660   8.354
 1872POPC   C3B25593  30.816  40.633   7.949
 1872POPC   C4B25594  30.531  40.508   7.689
 1873POPC   NC325595  38.961  11.217   9.411
 1873POPC   PO425596  39.482  11.597   9.604
 1873POPC   GL125597  39.463  11.566   9.172
 1873POPC   GL225598  39.529  11.205   9.151
 1873POPC   C1A25599  39.201  11.506   8.797
 1873POPC   D2A25600  39.106  11.263   8.420
 1873POPC   C3A25601  39.226  11.523   8.080
 1873POPC   C4A25602  39.065  11.399   7.714
 1873POPC   C1B25603  39.348  10.988   8.790
 1873POPC   C2B25604  39.408  10.803   8.371
 1873POPC   C3B25605  39.323  11.008   7.983
 1873POPC   C4B25606  39.430  10.983   7.555
 1874POPC   NC325607  19.546  19.583   9.462
 1874POPC   PO425608  20.014  18.999   9.453
 1874POPC   GL125609  19.666  19.029   9.202
 1874POPC   GL225610  19.701  19.320   9.052
 1874POPC   C1A25611  19.694  18.837   8.803
 1874POPC   D2A25612  19.879  19.029   8.438
 1874POPC   C3A25613  19.703  18.843   8.087
 1874POPC   C4A25614  19.880  18.802   7.703
 1874POPC   C1B25615  19.858  19.497   8.677
 1874POPC   C2B25616  19.629  19.513   8.283
 1874POPC   C3B25617  19.745  19.312   7.894
 1874POPC   C4B25618  19.768  19.491   7.489
 1875POPC   NC325619  34.128   5.279   9.406
 1875POPC   PO425620  33.511   5.025   9.575
 1875POPC   GL125621  33.466   5.112   9.155
 1875POPC   GL225622  33.704   5.391   9.151
 1875POPC   C1A25623  33.611   5.122   8.723
 1875POPC   D2A25624  33.667   5.359   8.333
 1875POPC   C3A25625  33.740   5.060   7.998
 1875POPC   C4A25626  33.392   4.918   7.750
 1875POPC   C1B25627  33.967   5.488   8.752
 1875POPC   C2B25628  34.176   5.379   8.339
 1875POPC   C3B25629  34.030   5.515   7.927
 1875POPC   C4B25630  33.974   5.269   7.556
 1876POPC   NC325631   6.146   6.666   9.418
 1876POPC   PO425632   5.513   6.823   9.297
 1876POPC   GL125633   5.798   6.558   9.041
 1876POPC   GL225634   6.151   6.441   8.972
 1876POPC   C1A25635   5.720   6.453   8.643
 1876POPC   D2A25636   5.441   6.779   8.465
 1876POPC   C3A25637   5.613   7.106   8.192
 1876POPC   C4A25638   5.880   6.977   7.827
 1876POPC   C1B25639   6.145   6.798   8.717
 1876POPC   C2B25640   5.958   6.761   8.313
 1876POPC   C3B25641   5.962   6.463   7.990
 1876POPC   C4B25642   6.204   6.596   7.657
 1877POPC   NC325643   5.977  12.389   9.439
 1877POPC   PO425644   5.435  11.897   9.551
 1877POPC   GL125645   5.707  12.019   9.221
 1877POPC   GL225646   5.559  12.301   9.100
 1877POPC   C1A25647   5.946  12.024   8.810
 1877POPC   D2A25648   5.899  11.736   8.456
 1877POPC   C3A25649   5.943  11.982   8.055
 1877POPC   C4A25650   5.851  11.998   7.615
 1877POPC   C1B25651   5.763  12.496   8.756
 1877POPC   C2B25652   5.999  12.418   8.413
 1877POPC   C3B25653   5.849  12.505   8.010
 1877POPC   C4B25654   6.096  12.517   7.644
 1878POPC   NC325655  11.088  26.527   9.611
 1878POPC   PO425656  11.547  27.023   9.653
 1878POPC   GL125657  11.226  26.778   9.219
 1878POPC   GL225658  11.329  26.460   9.147
 1878POPC   C1A25659  11.023  26.973   8.773
 1878POPC   D2A25660  10.897  27.001   8.316
 1878POPC   C3A25661  11.205  26.902   7.992
 1878POPC   C4A25662  11.563  27.095   7.778
 1878POPC   C1B25663  10.883  26.525   8.965
 1878POPC   C2B25664  10.935  26.520   8.502
 1878POPC   C3B25665  11.162  26.395   8.080
 1878POPC   C4B25666  11.077  26.517   7.624
 1879POPC   NC325667  39.044  24.420   9.565
 1879POPC   PO425668  39.561  24.865   9.564
 1879POPC   GL125669  39.321  24.678   9.241
 1879POPC   GL225670  39.200  24.925   9.077
 1879POPC   C1A25671  39.196  24.462   8.837
 1879POPC   D2A25672  39.042  24.187   8.491
 1879POPC   C3A25673  38.959  24.349   8.084
 1879POPC   C4A25674  39.241  24.367   7.713
 1879POPC   C1B25675  39.625  24.835   8.875
 1879POPC   C2B25676  39.649  24.709   8.462
 1879POPC   C3B25677  39.374  24.681   8.109
 1879POPC   C4B25678  39.382  24.879   7.720
 1880POPC   NC325679  37.592  30.110   9.873
 1880POPC   PO425680  37.442  29.591   9.434
 1880POPC   GL125681  37.627  29.825   9.111
 1880POPC   GL225682  37.736  30.176   9.138
 1880POPC   C1A25683  37.699  29.706   8.714
 1880POPC   D2A25684  37.821  29.874   8.365
 1880POPC   C3A25685  37.620  29.838   7.988
 1880POPC   C4A25686  37.826  29.689   7.631
 1880POPC   C1B25687  37.474  30.190   8.768
 1880POPC   C2B25688  37.415  30.188   8.364
 1880POPC   C3B25689  37.466  30.325   7.968
 1880POPC   C4B25690  37.332  30.147   7.628
 1881POPC   NC325691  10.499   0.741   9.347
 1881POPC   PO425692  10.619   0.073   9.594
 1881POPC   GL125693  10.663   0.121   9.171
 1881POPC   GL225694  10.365   0.286   9.173
 1881POPC   C1A25695  10.708   0.332   8.773
 1881POPC   D2A25696  10.943   0.259   8.393
 1881POPC   C3A25697  10.706   0.217   8.016
 1881POPC   C4A25698  10.841   0.320   7.595
 1881POPC   C1B25699  10.203   0.382   8.782
 1881POPC   C2B25700  10.374   0.397   8.377
 1881POPC   C3B25701  10.183   0.411   8.003
 1881POPC   C4B25702  10.214   0.520   7.579
 1882POPC   NC325703  20.988  17.739   9.453
 1882POPC   PO425704  21.026  17.048   9.537
 1882POPC   GL125705  20.806  17.293   9.152
 1882POPC   GL225706  20.804  17.598   9.002
 1882POPC   C1A25707  20.368  17.287   8.890
 1882POPC   D2A25708  20.213  17.247   8.435
 1882POPC   C3A25709  20.482  17.391   8.068
 1882POPC   C4A25710  20.673  17.388   7.642
 1882POPC   C1B25711  20.669  17.530   8.579
 1882POPC   C2B25712  20.725  17.795   8.234
 1882POPC   C3B25713  20.809  17.844   7.790
 1882POPC   C4B25714  20.718  17.888   7.339
 1883POPC   NC325715   3.136  17.676   9.320
 1883POPC   PO425716   2.672  17.193   9.472
 1883POPC   GL125717   2.654  17.353   9.112
 1883POPC   GL225718   2.632  17.682   9.226
 1883POPC   C1A25719   2.895  17.268   8.771
 1883POPC   D2A25720   2.781  17.116   8.370
 1883POPC   C3A25721   2.675  17.393   8.033
 1883POPC   C4A25722   2.850  17.388   7.599
 1883POPC   C1B25723   2.653  17.763   8.780
 1883POPC   C2B25724   2.914  17.650   8.438
 1883POPC   C3B25725   3.079  17.842   8.107
 1883POPC   C4B25726   2.869  17.871   7.735
 1884POPC   NC325727  29.045  40.752   9.750
 1884POPC   PO425728  29.374  41.359   9.532
 1884POPC   GL125729  29.274  40.965   9.297
 1884POPC   GL225730  28.913  40.914   9.200
 1884POPC   C1A25731  29.268  40.858   8.835
 1884POPC   D2A25732  29.096  40.798   8.411
 1884POPC   C3A25733  29.385  40.823   8.048
 1884POPC   C4A25734  29.398  40.690   7.635
 1884POPC   C1B25735  28.810  41.122   8.788
 1884POPC   C2B25736  28.875  41.250   8.356
 1884POPC   C3B25737  28.885  40.993   7.964
 1884POPC   C4B25738  28.491  40.908   7.721
 1885POPC   NC325739  16.500  42.246   9.493
 1885POPC   PO425740  17.219  42.235   9.331
 1885POPC   GL125741  16.976  42.365   9.004
 1885POPC   GL225742  16.623  42.259   9.008
 1885POPC   C1A25743  16.881  42.258   8.574
 1885POPC   D2A25744  16.637  42.126   8.234
 1885POPC   C3A25745  16.782  42.339   7.849
 1885POPC   C4A25746  16.819  42.225   7.418
 1885POPC   C1B25747  16.412  42.466   8.654
 1885POPC   C2B25748  16.211  42.415   8.244
 1885POPC   C3B25749  16.309  42.524   7.842
 1885POPC   C4B25750  16.523  42.663   7.458
 1886POPC   NC325751  35.294  19.874   9.638
 1886POPC   PO425752  35.709  19.511   9.317
 1886POPC   GL125753  35.305  19.615   9.100
 1886POPC   GL225754  35.192  19.977   9.130
 1886POPC   C1A25755  35.275  19.705   8.656
 1886POPC   D2A25756  35.218  19.468   8.255
 1886POPC   C3A25757  35.284  19.699   7.890
 1886POPC   C4A25758  35.131  19.729   7.434
 1886POPC   C1B25759  35.231  20.225   8.756
 1886POPC   C2B25760  35.344  20.123   8.342
 1886POPC   C3B25761  35.161  20.176   7.961
 1886POPC   C4B25762  35.388  20.164   7.580
 1887POPC   NC325763  44.463  40.441   9.585
 1887POPC   PO425764  44.892  40.932   9.472
 1887POPC   GL125765  44.704  40.637   9.166
 1887POPC   GL225766  44.333  40.702   9.169
 1887POPC   C1A25767  44.585  40.735   8.728
 1887POPC   D2A25768  44.731  40.592   8.370
 1887POPC   C3A25769  44.872  40.770   8.021
 1887POPC   C4A25770  44.886  40.532   7.635
 1887POPC   C1B25771  44.112  40.569   8.801
 1887POPC   C2B25772  44.176  40.620   8.349
 1887POPC   C3B25773  44.412  40.563   7.957
 1887POPC   C4B25774  44.481  40.790   7.554
 1888POPC   NC325775  13.102  16.566   9.451
 1888POPC   PO425776  12.468  16.637   9.655
 1888POPC   GL125777  12.682  16.635   9.165
 1888POPC   GL225778  12.988  16.846   9.047
 1888POPC   C1A25779  12.825  16.482   8.724
 1888POPC   D2A25780  12.801  16.714   8.305
 1888POPC   C3A25781  12.843  16.540   7.883
 1888POPC   C4A25782  12.927  16.699   7.432
 1888POPC   C1B25783  13.081  17.019   8.630
 1888POPC   C2B25784  12.925  17.209   8.251
 1888POPC   C3B25785  12.734  17.043   7.874
 1888POPC   C4B25786  12.713  17.188   7.455
 1889POPC   NC325787  33.091  11.127   9.696
 1889POPC   PO425788  33.133  10.488   9.488
 1889POPC   GL125789  32.968  10.632   9.123
 1889POPC   GL225790  33.176  10.861   8.906
 1889POPC   C1A25791  32.999  10.417   8.720
 1889POPC   D2A25792  33.091  10.551   8.324
 1889POPC   C3A25793  32.996  10.264   8.042
 1889POPC   C4A25794  32.914  10.341   7.646
 1889POPC   C1B25795  33.473  10.574   8.668
 1889POPC   C2B25796  33.499  10.266   8.378
 1889POPC   C3B25797  33.501  10.328   7.999
 1889POPC   C4B25798  33.326  10.648   7.839
 1890POPC   NC325799  26.931  31.680   9.577
 1890POPC   PO425800  27.011  30.982   9.387
 1890POPC   GL125801  26.918  31.313   9.113
 1890POPC   GL225802  27.006  31.642   9.102
 1890POPC   C1A25803  26.775  31.298   8.682
 1890POPC   D2A25804  26.584  31.422   8.266
 1890POPC   C3A25805  26.912  31.354   7.996
 1890POPC   C4A25806  26.675  31.120   7.779
 1890POPC   C1B25807  26.782  31.790   8.817
 1890POPC   C2B25808  26.944  31.723   8.427
 1890POPC   C3B25809  26.892  31.854   8.026
 1890POPC   C4B25810  27.016  31.903   7.633
 1891POPC   NC325811   8.753  16.663   9.458
 1891POPC   PO425812   9.324  16.299   9.409
 1891POPC   GL125813   8.951  16.326   9.138
 1891POPC   GL225814   9.038  16.651   8.997
 1891POPC   C1A25815   8.738  16.236   8.781
 1891POPC   D2A25816   8.932  16.504   8.499
 1891POPC   C3A25817   8.798  16.499   8.108
 1891POPC   C4A25818   9.026  16.535   7.728
 1891POPC   C1B25819   9.026  16.991   8.687
 1891POPC   C2B25820   9.036  17.140   8.282
 1891POPC   C3B25821   8.903  16.982   7.910
 1891POPC   C4B25822   8.621  17.125   7.601
 1892POPC   NC325823   7.281   0.153   9.659
 1892POPC   PO425824   7.581  44.519   9.588
 1892POPC   GL125825   7.547  44.419   9.129
 1892POPC   GL225826   7.348  44.677   8.957
 1892POPC   C1A25827   7.517  44.297   8.663
 1892POPC   D2A25828   7.380  44.637   8.392
 1892POPC   C3A25829   7.495  44.648   7.963
 1892POPC   C4A25830   7.075  44.854   7.807
 1892POPC   C1B25831   7.728  44.820   8.729
 1892POPC   C2B25832   7.713   0.027   8.360
 1892POPC   C3B25833   7.401   0.122   8.111
 1892POPC   C4B25834   7.546   0.101   7.719
 1893POPC   NC325835  23.486  22.664   9.487
 1893POPC   PO425836  23.969  23.177   9.670
 1893POPC   GL125837  23.751  22.993   9.237
 1893POPC   GL225838  23.920  22.785   9.018
 1893POPC   C1A25839  23.537  23.044   8.797
 1893POPC   D2A25840  23.414  23.137   8.364
 1893POPC   C3A25841  23.806  23.071   8.146
 1893POPC   C4A25842  23.881  22.972   7.722
 1893POPC   C1B25843  23.800  22.503   8.710
 1893POPC   C2B25844  23.537  22.624   8.370
 1893POPC   C3B25845  23.569  22.631   7.953
 1893POPC   C4B25846  23.783  22.392   7.675
 1894POPC   NC325847  34.167  40.075   9.568
 1894POPC   PO425848  33.519  39.868   9.668
 1894POPC   GL125849  33.631  39.933   9.247
 1894POPC   GL225850  33.922  39.766   9.215
 1894POPC   C1A25851  33.487  39.933   8.816
 1894POPC   D2A25852  33.687  40.026   8.428
 1894POPC   C3A25853  33.467  40.175   8.077
 1894POPC   C4A25854  33.441  39.817   7.793
 1894POPC   C1B25855  33.898  39.649   8.787
 1894POPC   C2B25856  33.950  39.574   8.352
 1894POPC   C3B25857  33.975  39.723   7.926
 1894POPC   C4B25858  34.199  39.544   7.564
 1895POPC   NC325859  44.160  18.033   9.758
 1895POPC   PO425860  44.168  18.343   9.154
 1895POPC   GL125861  43.797  18.204   9.059
 1895POPC   GL225862  43.634  17.917   9.177
 1895POPC   C1A25863  43.727  18.357   8.663
 1895POPC   D2A25864  43.994  18.340   8.337
 1895POPC   C3A25865  43.845  18.337   7.960
 1895POPC   C4A25866  44.088  18.380   7.638
 1895POPC   C1B25867  43.484  17.927   8.775
 1895POPC   C2B25868  43.490  18.054   8.337
 1895POPC   C3B25869  43.673  17.853   7.986
 1895POPC   C4B25870  43.713  17.979   7.558
 1896POPC   NC325871  30.336   5.818   9.418
 1896POPC   PO425872  29.677   5.968   9.544
 1896POPC   GL125873  29.778   5.911   9.140
 1896POPC   GL225874  29.710   5.566   9.035
 1896POPC   C1A25875  29.640   5.979   8.719
 1896POPC   D2A25876  29.914   5.967   8.374
 1896POPC   C3A25877  29.757   5.876   8.002
 1896POPC   C4A25878  29.702   6.246   7.780
 1896POPC   C1B25879  30.079   5.691   8.783
 1896POPC   C2B25880  30.288   5.627   8.410
 1896POPC   C3B25881  30.352   5.837   8.048
 1896POPC   C4B25882  30.123   5.842   7.656
 1897POPC   NC325883   7.182   9.860   9.525
 1897POPC   PO425884   7.882   9.963   9.504
 1897POPC   GL125885   7.679   9.745   9.143
 1897POPC   GL225886   7.347   9.571   9.100
 1897POPC   C1A25887   7.571   9.837   8.723
 1897POPC   D2A25888   7.725  10.007   8.344
 1897POPC   C3A25889   7.544   9.782   7.999
 1897POPC   C4A25890   7.390   9.863   7.562
 1897POPC   C1B25891   7.280   9.399   8.666
 1897POPC   C2B25892   7.081   9.377   8.243
 1897POPC   C3B25893   7.221   9.402   7.813
 1897POPC   C4B25894   7.645   9.436   7.634
 1898POPC   NC325895  23.187  32.246   9.371
 1898POPC   PO425896  22.502  32.009   9.521
 1898POPC   GL125897  22.706  32.077   9.165
 1898POPC   GL225898  22.805  32.429   9.098
 1898POPC   C1A25899  22.676  32.126   8.741
 1898POPC   D2A25900  22.860  32.079   8.378
 1898POPC   C3A25901  22.610  32.183   8.070
 1898POPC   C4A25902  22.814  31.975   7.747
 1898POPC   C1B25903  23.070  32.503   8.743
 1898POPC   C2B25904  22.998  32.585   8.298
 1898POPC   C3B25905  23.035  32.435   7.866
 1898POPC   C4B25906  22.989  32.359   7.409
 1899POPC   NC325907  11.211  14.895   9.546
 1899POPC   PO425908  11.463  14.226   9.545
 1899POPC   GL125909  11.293  14.370   9.207
 1899POPC   GL225910  11.609  14.356   9.038
 1899POPC   C1A25911  11.104  14.427   8.820
 1899POPC   D2A25912  11.103  14.606   8.416
 1899POPC   C3A25913  11.352  14.436   8.083
 1899POPC   C4A25914  11.313  14.478   7.643
 1899POPC   C1B25915  11.521  14.120   8.676
 1899POPC   C2B25916  11.556  14.016   8.232
 1899POPC   C3B25917  11.584  14.053   7.807
 1899POPC   C4B25918  11.570  14.135   7.348
 1900POPC   NC325919  40.672   5.494   9.279
 1900POPC   PO425920  40.895   4.849   9.458
 1900POPC   GL125921  40.977   5.061   9.130
 1900POPC   GL225922  40.648   5.026   9.035
 1900POPC   C1A25923  41.044   5.060   8.700
 1900POPC   D2A25924  40.790   5.049   8.350
 1900POPC   C3A25925  40.989   5.097   7.964
 1900POPC   C4A25926  40.954   5.132   7.514
 1900POPC   C1B25927  40.438   4.751   8.746
 1900POPC   C2B25928  40.362   4.684   8.325
 1900POPC   C3B25929  40.424   4.983   8.007
 1900POPC   C4B25930  40.263   5.016   7.633
 1901POPC   NC325931  30.404  36.169   9.430
 1901POPC   PO425932  29.711  36.196   9.511
 1901POPC   GL125933  29.921  36.112   9.140
 1901POPC   GL225934  30.170  35.897   9.047
 1901POPC   C1A25935  29.754  36.028   8.737
 1901POPC   D2A25936  29.711  35.681   8.449
 1901POPC   C3A25937  29.636  35.776   7.988
 1901POPC   C4A25938  29.657  35.948   7.517
 1901POPC   C1B25939  30.233  35.861   8.607
 1901POPC   C2B25940  30.000  36.052   8.262
 1901POPC   C3B25941  30.016  36.124   7.838
 1901POPC   C4B25942  30.339  36.277   7.646
 1902POPC   NC325943  35.876  27.880   9.476
 1902POPC   PO425944  36.468  27.583   9.624
 1902POPC   GL125945  36.287  27.610   9.212
 1902POPC   GL225946  35.925  27.509   9.113
 1902POPC   C1A25947  36.334  27.358   8.844
 1902POPC   D2A25948  36.121  27.383   8.448
 1902POPC   C3A25949  36.338  27.652   8.188
 1902POPC   C4A25950  36.424  27.469   7.822
 1902POPC   C1B25951  36.025  27.813   8.743
 1902POPC   C2B25952  35.869  27.826   8.287
 1902POPC   C3B25953  35.882  27.562   7.912
 1902POPC   C4B25954  35.779  27.741   7.498
 1903POPC   NC325955  20.951  22.789   9.524
 1903POPC   PO425956  20.216  23.014   9.499
 1903POPC   GL125957  20.471  22.917   9.136
 1903POPC   GL225958  20.786  22.695   9.074
 1903POPC   C1A25959  20.379  23.119   8.767
 1903POPC   D2A25960  20.599  23.397   8.519
 1903POPC   C3A25961  20.448  23.282   8.130
 1903POPC   C4A25962  20.403  22.970   7.845
 1903POPC   C1B25963  20.869  23.007   8.771
 1903POPC   C2B25964  20.697  22.906   8.367
 1903POPC   C3B25965  20.784  22.682   7.994
 1903POPC   C4B25966  20.809  22.808   7.567
 1904POPC   NC325967   3.076  30.317   9.420
 1904POPC   PO425968   2.782  30.851   9.612
 1904POPC   GL125969   2.861  30.742   9.198
 1904POPC   GL225970   3.233  30.739   9.159
 1904POPC   C1A25971   2.598  30.600   8.828
 1904POPC   D2A25972   2.681  30.337   8.505
 1904POPC   C3A25973   2.598  30.488   8.098
 1904POPC   C4A25974   2.548  30.781   7.787
 1904POPC   C1B25975   3.098  30.649   8.748
 1904POPC   C2B25976   2.942  30.787   8.379
 1904POPC   C3B25977   3.041  30.793   7.951
 1904POPC   C4B25978   2.963  30.786   7.513
 1905POPC   NC325979  23.463  15.096   9.625
 1905POPC   PO425980  24.169  15.057   9.605
 1905POPC   GL125981  23.884  14.991   9.204
 1905POPC   GL225982  23.552  15.079   9.119
 1905POPC   C1A25983  23.967  14.972   8.717
 1905POPC   D2A25984  24.186  15.070   8.289
 1905POPC   C3A25985  23.944  15.258   7.930
 1905POPC   C4A25986  23.849  15.068   7.529
 1905POPC   C1B25987  23.507  15.186   8.702
 1905POPC   C2B25988  23.615  15.031   8.322
 1905POPC   C3B25989  23.412  15.088   7.961
 1905POPC   C4B25990  23.371  15.418   7.736
 1906POPC   NC325991  18.053   7.205   9.371
 1906POPC   PO425992  18.555   7.694   9.402
 1906POPC   GL125993  18.429   7.420   9.086
 1906POPC   GL225994  18.482   7.065   9.121
 1906POPC   C1A25995  18.513   7.297   8.666
 1906POPC   D2A25996  18.414   7.233   8.274
 1906POPC   C3A25997  18.296   7.538   7.980
 1906POPC   C4A25998  18.473   7.387   7.617
 1906POPC   C1B25999  18.123   6.993   8.767
 1906POPC   C2B26000  17.924   7.056   8.367
 1906POPC   C3B26001  18.082   7.054   7.930
 1906POPC   C4B26002  18.121   7.077   7.443
 1907POPC   NC326003  25.356   1.556   9.731
 1907POPC   PO426004  25.136   0.914   9.556
 1907POPC   GL126005  25.316   1.055   9.148
 1907POPC   GL226006  25.303   1.411   9.191
 1907POPC   C1A26007  25.505   1.191   8.748
 1907POPC   D2A26008  25.387   1.472   8.424
 1907POPC   C3A26009  25.269   1.335   8.010
 1907POPC   C4A26010  25.474   1.035   7.706
 1907POPC   C1B26011  25.035   1.422   8.796
 1907POPC   C2B26012  24.846   1.270   8.399
 1907POPC   C3B26013  24.765   1.225   7.960
 1907POPC   C4B26014  24.991   1.209   7.570
 1908POPC   NC326015   1.532  21.976   9.401
 1908POPC   PO426016   1.153  22.478   9.684
 1908POPC   GL126017   1.173  22.303   9.255
 1908POPC   GL226018   1.529  22.373   9.096
 1908POPC   C1A26019   1.044  22.050   8.885
 1908POPC   D2A26020   0.997  22.066   8.387
 1908POPC   C3A26021   1.143  22.028   7.912
 1908POPC   C4A26022   1.300  21.662   7.714
 1908POPC   C1B26023   1.437  22.428   8.669
 1908POPC   C2B26024   1.422  22.308   8.245
 1908POPC   C3B26025   1.485  22.473   7.834
 1908POPC   C4B26026   1.343  22.532   7.385
 1909POPC   NC326027  27.844  22.799   9.460
 1909POPC   PO426028  27.195  22.648   9.546
 1909POPC   GL126029  27.439  22.827   9.118
 1909POPC   GL226030  27.717  23.094   9.057
 1909POPC   C1A26031  27.531  22.934   8.634
 1909POPC   D2A26032  27.627  23.340   8.421
 1909POPC   C3A26033  27.538  23.266   7.983
 1909POPC   C4A26034  27.310  22.921   7.805
 1909POPC   C1B26035  28.035  23.069   8.723
 1909POPC   C2B26036  28.062  22.833   8.356
 1909POPC   C3B26037  27.865  22.597   8.035
 1909POPC   C4B26038  27.825  22.895   7.729
 1910POPC   NC326039  38.680  10.414   9.422
 1910POPC   PO426040  37.993  10.658   9.508
 1910POPC   GL126041  38.292  10.723   9.197
 1910POPC   GL226042  38.579  10.933   9.153
 1910POPC   C1A26043  38.441  10.599   8.800
 1910POPC   D2A26044  38.418  10.293   8.518
 1910POPC   C3A26045  38.670  10.236   8.184
 1910POPC   C4A26046  38.678  10.353   7.770
 1910POPC   C1B26047  38.815  10.962   8.771
 1910POPC   C2B26048  38.764  10.697   8.421
 1910POPC   C3B26049  38.553  10.738   8.078
 1910POPC   C4B26050  38.810  11.027   7.916
 1911POPC   NC326051  24.872  10.124   9.368
 1911POPC   PO426052  25.170   9.534   9.396
 1911POPC   GL126053  25.136   9.717   9.012
 1911POPC   GL226054  25.286  10.018   8.981
 1911POPC   C1A26055  25.149   9.601   8.598
 1911POPC   D2A26056  25.006   9.588   8.174
 1911POPC   C3A26057  25.251   9.384   7.838
 1911POPC   C4A26058  25.371   9.542   7.422
 1911POPC   C1B26059  25.494   9.968   8.572
 1911POPC   C2B26060  25.411   9.898   8.150
 1911POPC   C3B26061  25.592   9.814   7.777
 1911POPC   C4B26062  25.816  10.043   7.495
 1912POPC   NC326063   6.108  27.079   9.490
 1912POPC   PO426064   5.442  26.860   9.416
 1912POPC   GL126065   5.815  26.716   9.205
 1912POPC   GL226066   6.139  26.531   9.134
 1912POPC   C1A26067   5.720  26.644   8.798
 1912POPC   D2A26068   5.763  27.029   8.516
 1912POPC   C3A26069   5.732  26.975   8.076
 1912POPC   C4A26070   5.766  26.880   7.628
 1912POPC   C1B26071   6.171  26.828   8.786
 1912POPC   C2B26072   6.055  26.623   8.396
 1912POPC   C3B26073   6.164  26.725   7.994
 1912POPC   C4B26074   6.163  26.561   7.579
 1913POPC   NC326075  27.095  36.468   9.784
 1913POPC   PO426076  26.707  36.940   9.358
 1913POPC   GL126077  26.895  37.068   9.011
 1913POPC   GL226078  27.154  36.862   9.014
 1913POPC   C1A26079  26.926  37.009   8.587
 1913POPC   D2A26080  27.080  37.005   8.215
 1913POPC   C3A26081  26.874  36.927   7.874
 1913POPC   C4A26082  27.217  37.116   7.669
 1913POPC   C1B26083  27.097  36.539   8.693
 1913POPC   C2B26084  27.337  36.585   8.339
 1913POPC   C3B26085  27.251  36.586   7.939
 1913POPC   C4B26086  26.981  36.488   7.640
 1914POPC   NC326087  38.363  17.229   9.427
 1914POPC   PO426088  38.818  17.559   9.741
 1914POPC   GL126089  38.657  17.639   9.237
 1914POPC   GL226090  38.488  17.379   8.984
 1914POPC   C1A26091  38.601  17.820   8.807
 1914POPC   D2A26092  38.573  17.458   8.478
 1914POPC   C3A26093  38.580  17.551   8.036
 1914POPC   C4A26094  38.492  17.373   7.621
 1914POPC   C1B26095  38.152  17.624   8.743
 1914POPC   C2B26096  38.245  17.852   8.359
 1914POPC   C3B26097  38.147  17.814   7.916
 1914POPC   C4B26098  38.159  17.726   7.460
 1915POPC   NC326099  33.556  25.478   9.484
 1915POPC   PO426100  32.948  25.378   9.617
 1915POPC   GL126101  32.940  25.163   9.207
 1915POPC   GL226102  33.244  25.250   9.159
 1915POPC   C1A26103  32.796  25.162   8.821
 1915POPC   D2A26104  32.756  25.329   8.411
 1915POPC   C3A26105  32.880  25.111   8.040
 1915POPC   C4A26106  32.758  25.290   7.644
 1915POPC   C1B26107  33.327  25.098   8.769
 1915POPC   C2B26108  33.281  25.245   8.360
 1915POPC   C3B26109  33.383  25.067   7.954
 1915POPC   C4B26110  33.118  24.936   7.618
 1916POPC   NC326111  34.142  12.330   9.363
 1916POPC   PO426112  34.777  12.055   9.431
 1916POPC   GL126113  34.531  12.149   9.094
 1916POPC   GL226114  34.451  11.794   9.056
 1916POPC   C1A26115  34.402  12.150   8.681
 1916POPC   D2A26116  34.654  12.078   8.327
 1916POPC   C3A26117  34.583  12.255   7.934
 1916POPC   C4A26118  34.275  12.046   7.708
 1916POPC   C1B26119  34.840  11.876   8.785
 1916POPC   C2B26120  35.037  11.733   8.409
 1916POPC   C3B26121  35.019  11.871   8.022
 1916POPC   C4B26122  34.758  11.803   7.700
 1917POPC   NC326123   3.680  16.113   9.558
 1917POPC   PO426124   3.055  15.700   9.505
 1917POPC   GL126125   3.356  15.892   9.200
 1917POPC   GL226126   3.417  16.248   9.143
 1917POPC   C1A26127   3.628  15.874   8.801
 1917POPC   D2A26128   3.894  15.848   8.409
 1917POPC   C3A26129   3.600  15.858   8.034
 1917POPC   C4A26130   3.650  16.042   7.612
 1917POPC   C1B26131   3.363  16.323   8.742
 1917POPC   C2B26132   3.556  16.235   8.368
 1917POPC   C3B26133   3.479  16.369   7.975
 1917POPC   C4B26134   3.334  16.466   7.568
 1918POPC   NC326135  23.796  26.750   9.638
 1918POPC   PO426136  23.392  27.169   9.293
 1918POPC   GL126137  23.697  27.004   9.018
 1918POPC   GL226138  23.783  26.677   9.063
 1918POPC   C1A26139  23.561  26.869   8.632
 1918POPC   D2A26140  23.711  26.712   8.263
 1918POPC   C3A26141  23.508  26.793   7.880
 1918POPC   C4A26142  23.723  27.120   7.714
 1918POPC   C1B26143  23.992  26.493   8.701
 1918POPC   C2B26144  23.984  26.296   8.281
 1918POPC   C3B26145  23.942  26.487   7.867
 1918POPC   C4B26146  23.676  26.531   7.481
 1919POPC   NC326147   9.791  21.050   9.940
 1919POPC   PO426148   9.872  20.405   9.593
 1919POPC   GL126149   9.817  20.729   9.257
 1919POPC   GL226150   9.571  20.982   9.303
 1919POPC   C1A26151  10.007  20.828   8.841
 1919POPC   D2A26152   9.778  20.720   8.445
 1919POPC   C3A26153   9.954  20.580   8.041
 1919POPC   C4A26154   9.757  20.247   7.805
 1919POPC   C1B26155   9.578  21.085   8.837
 1919POPC   C2B26156   9.431  21.099   8.383
 1919POPC   C3B26157   9.633  20.963   7.972
 1919POPC   C4B26158   9.811  20.744   7.566
 1920POPC   NC326159  39.014  20.282   9.519
 1920POPC   PO426160  39.577  19.768   9.479
 1920POPC   GL126161  39.349  19.786   9.125
 1920POPC   GL226162  39.206  20.087   9.094
 1920POPC   C1A26163  39.525  19.957   8.736
 1920POPC   D2A26164  39.453  19.789   8.334
 1920POPC   C3A26165  39.476  20.007   7.955
 1920POPC   C4A26166  39.385  19.623   7.740
 1920POPC   C1B26167  39.026  19.935   8.673
 1920POPC   C2B26168  39.017  20.066   8.228
 1920POPC   C3B26169  38.999  19.973   7.770
 1920POPC   C4B26170  38.916  20.209   7.352
 1921POPC   NC326171   7.445  31.792   9.508
 1921POPC   PO426172   7.434  32.494   9.476
 1921POPC   GL126173   7.316  32.167   9.194
 1921POPC   GL226174   7.636  31.983   9.069
 1921POPC   C1A26175   7.219  32.124   8.793
 1921POPC   D2A26176   7.362  32.343   8.446
 1921POPC   C3A26177   7.282  32.197   8.079
 1921POPC   C4A26178   7.208  32.288   7.698
 1921POPC   C1B26179   7.656  32.398   8.880
 1921POPC   C2B26180   7.741  32.671   8.567
 1921POPC   C3B26181   7.696  32.668   8.129
 1921POPC   C4B26182   7.705  32.384   7.805
 1922POPC   NC326183  24.461  33.338   9.467
 1922POPC   PO426184  24.931  32.857   9.336
 1922POPC   GL126185  24.750  33.187   9.030
 1922POPC   GL226186  24.363  33.268   8.983
 1922POPC   C1A26187  24.646  33.169   8.569
 1922POPC   D2A26188  24.700  32.879   8.201
 1922POPC   C3A26189  24.698  33.073   7.772
 1922POPC   C4A26190  24.586  33.231   7.338
 1922POPC   C1B26191  24.104  32.965   8.736
 1922POPC   C2B26192  24.107  32.719   8.343
 1922POPC   C3B26193  24.247  32.901   7.974
 1922POPC   C4B26194  24.293  32.863   7.531
 1923POPC   NC326195  15.332  36.599   9.475
 1923POPC   PO426196  15.099  37.227   9.606
 1923POPC   GL126197  15.209  37.188   9.167
 1923POPC   GL226198  15.409  36.912   9.031
 1923POPC   C1A26199  15.138  37.213   8.714
 1923POPC   D2A26200  14.904  37.238   8.344
 1923POPC   C3A26201  15.141  37.153   7.998
 1923POPC   C4A26202  15.036  37.320   7.644
 1923POPC   C1B26203  15.231  36.685   8.672
 1923POPC   C2B26204  15.162  36.687   8.216
 1923POPC   C3B26205  15.439  36.765   7.853
 1923POPC   C4B26206  15.429  36.621   7.425
 1924POPC   NC326207  34.851  15.263   9.249
 1924POPC   PO426208  34.841  15.869   9.454
 1924POPC   GL126209  34.433  15.907   9.219
 1924POPC   GL226210  34.310  15.567   9.135
 1924POPC   C1A26211  34.416  16.074   8.785
 1924POPC   D2A26212  34.762  16.104   8.461
 1924POPC   C3A26213  34.661  16.038   8.017
 1924POPC   C4A26214  34.424  16.207   7.671
 1924POPC   C1B26215  34.398  15.573   8.685
 1924POPC   C2B26216  34.463  15.588   8.215
 1924POPC   C3B26217  34.391  15.682   7.762
 1924POPC   C4B26218  34.635  15.802   7.407
 1925POPC   NC326219  19.110  26.587   9.414
 1925POPC   PO426220  18.945  27.313   9.348
 1925POPC   GL126221  19.069  26.963   9.066
 1925POPC   GL226222  18.886  26.629   8.968
 1925POPC   C1A26223  19.248  26.811   8.683
 1925POPC   D2A26224  19.159  27.004   8.280
 1925POPC   C3A26225  19.071  26.798   7.888
 1925POPC   C4A26226  19.024  27.094   7.555
 1925POPC   C1B26227  18.676  26.928   8.720
 1925POPC   C2B26228  18.489  26.899   8.325
 1925POPC   C3B26229  18.620  26.990   7.910
 1925POPC   C4B26230  18.654  26.781   7.512
 1926POPC   NC326231  15.682  30.221   9.531
 1926POPC   PO426232  16.171  29.723   9.501
 1926POPC   GL126233  15.889  29.775   9.185
 1926POPC   GL226234  16.032  30.095   9.133
 1926POPC   C1A26235  15.850  29.587   8.732
 1926POPC   D2A26236  15.987  29.482   8.323
 1926POPC   C3A26237  16.109  29.887   8.095
 1926POPC   C4A26238  16.243  29.959   7.659
 1926POPC   C1B26239  15.662  30.055   8.856
 1926POPC   C2B26240  15.728  30.090   8.426
 1926POPC   C3B26241  15.597  30.179   8.024
 1926POPC   C4B26242  15.683  29.920   7.701
 1927POPC   NC326243  39.183  28.846   9.571
 1927POPC   PO426244  39.151  28.128   9.538
 1927POPC   GL126245  39.271  28.259   9.125
 1927POPC   GL226246  39.076  28.547   9.118
 1927POPC   C1A26247  39.135  28.247   8.682
 1927POPC   D2A26248  38.817  28.055   8.396
 1927POPC   C3A26249  39.025  28.018   7.983
 1927POPC   C4A26250  39.406  28.272   7.900
 1927POPC   C1B26251  38.963  28.765   8.691
 1927POPC   C2B26252  39.098  28.849   8.239
 1927POPC   C3B26253  39.158  28.696   7.772
 1927POPC   C4B26254  38.955  28.710   7.348
 1928POPC   NC326255  27.879  16.016   9.457
 1928POPC   PO426256  28.515  15.939   9.557
 1928POPC   GL126257  28.246  15.797   9.191
 1928POPC   GL226258  28.468  15.898   9.005
 1928POPC   C1A26259  28.035  15.736   8.786
 1928POPC   D2A26260  28.062  15.953   8.398
 1928POPC   C3A26261  28.192  15.707   8.090
 1928POPC   C4A26262  28.147  15.831   7.660
 1928POPC   C1B26263  28.365  16.168   8.740
 1928POPC   C2B26264  28.572  16.008   8.380
 1928POPC   C3B26265  28.441  16.132   7.998
 1928POPC   C4B26266  28.629  16.028   7.632
 1929POPC   NC326267   4.570   8.589   9.544
 1929POPC   PO426268   4.115   9.081   9.529
 1929POPC   GL126269   4.018   9.017   9.109
 1929POPC   GL226270   3.945   8.656   9.075
 1929POPC   C1A26271   4.140   8.997   8.679
 1929POPC   D2A26272   3.909   8.952   8.299
 1929POPC   C3A26273   4.174   9.089   7.958
 1929POPC   C4A26274   4.569   9.031   7.745
 1929POPC   C1B26275   3.936   8.518   8.630
 1929POPC   C2B26276   3.829   8.437   8.197
 1929POPC   C3B26277   4.018   8.601   7.814
 1929POPC   C4B26278   4.052   8.884   7.473
 1930POPC   NC326279  14.077   4.925   9.444
 1930POPC   PO426280  14.322   4.398   9.688
 1930POPC   GL126281  14.367   4.447   9.223
 1930POPC   GL226282  14.675   4.593   9.074
 1930POPC   C1A26283  14.437   4.201   8.827
 1930POPC   D2A26284  14.228   4.092   8.441
 1930POPC   C3A26285  14.340   4.324   8.074
 1930POPC   C4A26286  14.325   4.227   7.642
 1930POPC   C1B26287  14.828   4.493   8.660
 1930POPC   C2B26288  14.795   4.214   8.291
 1930POPC   C3B26289  14.801   4.219   7.833
 1930POPC   C4B26290  14.831   4.432   7.399
 1931POPC   NC326291  21.307  41.390   9.867
 1931POPC   PO426292  21.796  41.725   9.618
 1931POPC   GL126293  21.501  41.536   9.291
 1931POPC   GL226294  21.317  41.194   9.261
 1931POPC   C1A26295  21.423  41.662   8.844
 1931POPC   D2A26296  21.146  41.749   8.524
 1931POPC   C3A26297  21.241  41.644   8.085
 1931POPC   C4A26298  21.243  41.784   7.644
 1931POPC   C1B26299  21.569  41.178   8.900
 1931POPC   C2B26300  21.452  41.299   8.493
 1931POPC   C3B26301  21.492  41.196   8.114
 1931POPC   C4B26302  21.412  41.314   7.732
 1932POPC   NC326303  37.063  37.394   9.630
 1932POPC   PO426304  36.657  37.900   9.480
 1932POPC   GL126305  36.765  37.573   9.229
 1932POPC   GL226306  37.088  37.641   9.193
 1932POPC   C1A26307  36.750  37.669   8.813
 1932POPC   D2A26308  36.789  37.902   8.439
 1932POPC   C3A26309  36.840  37.585   8.129
 1932POPC   C4A26310  37.164  37.438   7.819
 1932POPC   C1B26311  37.216  37.847   8.801
 1932POPC   C2B26312  37.295  37.712   8.383
 1932POPC   C3B26313  37.151  37.978   8.046
 1932POPC   C4B26314  37.055  38.083   7.645
 1933POPC   NC326315  18.478   3.022   9.347
 1933POPC   PO426316  17.957   2.580   9.462
 1933POPC   GL126317  18.175   2.694   9.080
 1933POPC   GL226318  18.498   2.600   8.997
 1933POPC   C1A26319  18.054   2.915   8.711
 1933POPC   D2A26320  18.073   3.149   8.327
 1933POPC   C3A26321  18.417   3.009   8.063
 1933POPC   C4A26322  18.457   3.046   7.633
 1933POPC   C1B26323  18.523   2.747   8.590
 1933POPC   C2B26324  18.592   2.524   8.245
 1933POPC   C3B26325  18.413   2.394   7.944
 1933POPC   C4B26326  18.337   2.573   7.593
 1934POPC   NC326327  10.902  24.202   9.496
 1934POPC   PO426328  10.862  23.515   9.513
 1934POPC   GL126329  11.294  23.519   9.288
 1934POPC   GL226330  11.444  23.843   9.224
 1934POPC   C1A26331  11.335  23.516   8.822
 1934POPC   D2A26332  11.169  23.489   8.389
 1934POPC   C3A26333  11.028  23.770   8.063
 1934POPC   C4A26334  11.029  23.524   7.680
 1934POPC   C1B26335  11.439  24.018   8.802
 1934POPC   C2B26336  11.409  23.958   8.392
 1934POPC   C3B26337  11.557  23.727   8.072
 1934POPC   C4B26338  11.470  23.754   7.675
 1935POPC   NC326339  20.148   8.646   9.253
 1935POPC   PO426340  19.830   8.132   9.586
 1935POPC   GL126341  19.734   8.084   9.177
 1935POPC   GL226342  20.054   7.939   9.055
 1935POPC   C1A26343  19.561   7.877   8.816
 1935POPC   D2A26344  19.542   7.782   8.370
 1935POPC   C3A26345  19.686   8.071   8.060
 1935POPC   C4A26346  19.970   7.985   7.708
 1935POPC   C1B26347  19.927   8.222   8.722
 1935POPC   C2B26348  20.083   8.248   8.326
 1935POPC   C3B26349  20.260   8.333   7.960
 1935POPC   C4B26350  20.481   7.989   7.800
 1936POPC   NC326351  30.172  28.475   9.435
 1936POPC   PO426352  29.865  27.929   9.522
 1936POPC   GL126353  29.818  28.192   9.183
 1936POPC   GL226354  29.503  28.303   9.240
 1936POPC   C1A26355  29.788  28.422   8.784
 1936POPC   D2A26356  29.947  28.277   8.380
 1936POPC   C3A26357  29.945  28.532   8.035
 1936POPC   C4A26358  30.007  28.289   7.702
 1936POPC   C1B26359  29.443  28.050   8.845
 1936POPC   C2B26360  29.416  28.210   8.433
 1936POPC   C3B26361  29.569  28.144   8.025
 1936POPC   C4B26362  29.561  27.843   7.720
 1937POPC   NC326363  31.335  28.771   9.316
 1937POPC   PO426364  31.422  28.079   9.467
 1937POPC   GL126365  31.378  28.091   9.062
 1937POPC   GL226366  31.026  28.084   9.116
 1937POPC   C1A26367  31.607  28.266   8.688
 1937POPC   D2A26368  31.571  28.694   8.446
 1937POPC   C3A26369  31.382  28.713   8.020
 1937POPC   C4A26370  31.576  28.498   7.675
 1937POPC   C1B26371  31.106  28.343   8.727
 1937POPC   C2B26372  31.266  28.285   8.292
 1937POPC   C3B26373  31.398  28.038   7.923
 1937POPC   C4B26374  31.384  28.044   7.478
 1938POPC   NC326375  28.931  27.254   9.599
 1938POPC   PO426376  29.484  27.517   9.807
 1938POPC   GL126377  29.270  27.418   9.297
 1938POPC   GL226378  29.295  27.642   9.106
 1938POPC   C1A26379  29.290  27.261   8.794
 1938POPC   D2A26380  29.530  27.156   8.386
 1938POPC   C3A26381  29.502  27.418   8.008
 1938POPC   C4A26382  29.312  27.370   7.554
 1938POPC   C1B26383  28.980  27.655   8.843
 1938POPC   C2B26384  29.183  27.742   8.477
 1938POPC   C3B26385  29.158  27.818   8.073
 1938POPC   C4B26386  29.007  27.739   7.697
 1939POPC   NC326387  43.405  10.824   9.502
 1939POPC   PO426388  43.493  10.145   9.481
 1939POPC   GL126389  43.111  10.329   9.283
 1939POPC   GL226390  43.316  10.516   9.109
 1939POPC   C1A26391  42.933  10.300   8.853
 1939POPC   D2A26392  43.204  10.254   8.471
 1939POPC   C3A26393  43.012  10.373   8.079
 1939POPC   C4A26394  43.041  10.588   7.674
 1939POPC   C1B26395  43.241  10.718   8.736
 1939POPC   C2B26396  43.444  10.796   8.391
 1939POPC   C3B26397  43.460  10.621   8.009
 1939POPC   C4B26398  43.576  10.760   7.649
 1940POPC   NC326399  12.176   5.978   9.509
 1940POPC   PO426400  12.710   6.290   9.298
 1940POPC   GL126401  12.390   5.964   9.031
 1940POPC   GL226402  12.090   5.743   9.082
 1940POPC   C1A26403  12.086   5.879   8.618
 1940POPC   D2A26404  11.722   6.058   8.378
 1940POPC   C3A26405  11.826   6.015   7.939
 1940POPC   C4A26406  12.240   6.101   7.807
 1940POPC   C1B26407  11.807   5.483   8.803
 1940POPC   C2B26408  11.920   5.407   8.363
 1940POPC   C3B26409  11.980   5.534   7.904
 1940POPC   C4B26410  11.951   5.587   7.433
 1941POPC   NC326411  13.383  17.485   9.729
 1941POPC   PO426412  14.046  17.593   9.682
 1941POPC   GL126413  13.744  17.463   9.102
 1941POPC   GL226414  13.754  17.751   8.896
 1941POPC   C1A26415  13.395  17.425   8.751
 1941POPC   D2A26416  13.437  17.281   8.286
 1941POPC   C3A26417  13.537  17.533   7.876
 1941POPC   C4A26418  13.489  17.755   7.469
 1941POPC   C1B26419  13.866  17.398   8.594
 1941POPC   C2B26420  13.926  17.492   8.184
 1941POPC   C3B26421  14.014  17.280   7.844
 1941POPC   C4B26422  13.746  17.274   7.474
 1942POPC   NC326423  20.992  41.529   9.429
 1942POPC   PO426424  20.294  41.500   9.406
 1942POPC   GL126425  20.607  41.497   9.067
 1942POPC   GL226426  20.893  41.761   8.992
 1942POPC   C1A26427  20.609  41.564   8.633
 1942POPC   D2A26428  20.718  41.767   8.247
 1942POPC   C3A26429  20.506  41.613   7.931
 1942POPC   C4A26430  20.505  41.336   7.582
 1942POPC   C1B26431  21.036  41.345   8.797
 1942POPC   C2B26432  20.936  41.308   8.326
 1942POPC   C3B26433  20.919  41.323   7.870
 1942POPC   C4B26434  20.993  41.277   7.412
 1943POPC   NC326435  42.808  21.793   9.501
 1943POPC   PO426436  42.841  22.480   9.324
 1943POPC   GL126437  42.855  22.122   9.071
 1943POPC   GL226438  43.175  21.989   9.164
 1943POPC   C1A26439  42.953  22.141   8.636
 1943POPC   D2A26440  42.765  21.918   8.292
 1943POPC   C3A26441  42.971  22.009   7.909
 1943POPC   C4A26442  43.190  22.394   7.961
 1943POPC   C1B26443  43.423  21.955   8.776
 1943POPC   C2B26444  43.332  21.998   8.313
 1943POPC   C3B26445  43.487  21.963   7.895
 1943POPC   C4B26446  43.330  21.691   7.629
 1944POPC   NC326447   4.528  26.641   9.549
 1944POPC   PO426448   4.075  27.147   9.485
 1944POPC   GL126449   4.362  27.011   9.125
 1944POPC   GL226450   4.356  26.664   9.087
 1944POPC   C1A26451   4.320  26.847   8.644
 1944POPC   D2A26452   4.534  27.010   8.324
 1944POPC   C3A26453   4.308  26.958   7.977
 1944POPC   C4A26454   4.427  26.943   7.573
 1944POPC   C1B26455   4.441  26.343   8.732
 1944POPC   C2B26456   4.461  26.476   8.276
 1944POPC   C3B26457   4.459  26.481   7.810
 1944POPC   C4B26458   4.473  26.479   7.378
 1945POPC   NC326459  12.295   8.822   9.311
 1945POPC   PO426460  11.644   8.647   9.475
 1945POPC   GL126461  11.742   8.808   9.046
 1945POPC   GL226462  12.029   9.020   8.949
 1945POPC   C1A26463  11.817   8.792   8.565
 1945POPC   D2A26464  12.204   8.826   8.338
 1945POPC   C3A26465  12.137   8.857   7.893
 1945POPC   C4A26466  11.823   8.852   7.555
 1945POPC   C1B26467  11.956   9.360   8.699
 1945POPC   C2B26468  12.105   9.512   8.324
 1945POPC   C3B26469  12.366   9.319   8.003
 1945POPC   C4B26470  12.229   9.245   7.568
 1946POPC   NC326471   7.184  35.963   9.598
 1946POPC   PO426472   7.453  36.611   9.445
 1946POPC   GL126473   7.426  36.283   9.146
 1946POPC   GL226474   7.159  36.067   9.118
 1946POPC   C1A26475   7.629  36.146   8.750
 1946POPC   D2A26476   7.686  35.948   8.338
 1946POPC   C3A26477   7.512  36.155   7.995
 1946POPC   C4A26478   7.586  36.367   7.597
 1946POPC   C1B26479   7.107  36.203   8.734
 1946POPC   C2B26480   7.134  36.035   8.358
 1946POPC   C3B26481   6.989  36.276   8.065
 1946POPC   C4B26482   7.113  36.178   7.659
 1947POPC   NC326483   0.495  30.336   9.462
 1947POPC   PO426484   0.233  29.678   9.433
 1947POPC   GL126485   0.498  29.721   9.081
 1947POPC   GL226486   0.611  30.074   9.041
 1947POPC   C1A26487   0.419  29.676   8.653
 1947POPC   D2A26488   0.598  29.664   8.255
 1947POPC   C3A26489   0.323  29.685   7.921
 1947POPC   C4A26490   0.609  29.668   7.604
 1947POPC   C1B26491   0.391  30.203   8.678
 1947POPC   C2B26492   0.282  30.088   8.262
 1947POPC   C3B26493   0.612  30.095   7.917
 1947POPC   C4B26494   0.939  30.390   7.810
 1948POPC   NC326495  10.915   3.839   9.569
 1948POPC   PO426496  11.399   4.361   9.618
 1948POPC   GL126497  11.343   4.230   9.214
 1948POPC   GL226498  11.671   4.341   9.130
 1948POPC   C1A26499  11.027   4.146   8.908
 1948POPC   D2A26500  10.890   4.259   8.514
 1948POPC   C3A26501  11.007   4.023   8.152
 1948POPC   C4A26502  11.041   4.348   7.868
 1948POPC   C1B26503  11.461   4.430   8.742
 1948POPC   C2B26504  11.426   4.235   8.350
 1948POPC   C3B26505  11.545   4.420   7.969
 1948POPC   C4B26506  11.822   4.311   7.658
 1949POPC   NC326507  21.680  18.065   9.555
 1949POPC   PO426508  21.062  18.377   9.568
 1949POPC   GL126509  20.999  18.196   9.169
 1949POPC   GL226510  21.373  18.180   9.151
 1949POPC   C1A26511  21.118  17.955   8.792
 1949POPC   D2A26512  21.396  18.014   8.455
 1949POPC   C3A26513  21.160  18.028   8.094
 1949POPC   C4A26514  20.970  18.368   7.871
 1949POPC   C1B26515  21.709  18.228   8.809
 1949POPC   C2B26516  21.745  18.367   8.352
 1949POPC   C3B26517  21.869  18.623   7.982
 1949POPC   C4B26518  21.749  18.710   7.542
 1950POPC   NC326519  15.087  19.184   9.802
 1950POPC   PO426520  14.983  18.696   9.389
 1950POPC   GL126521  15.038  19.004   9.048
 1950POPC   GL226522  15.122  19.299   9.054
 1950POPC   C1A26523  14.927  19.154   8.612
 1950POPC   D2A26524  14.962  18.802   8.366
 1950POPC   C3A26525  15.080  18.802   7.949
 1950POPC   C4A26526  15.044  19.029   7.562
 1950POPC   C1B26527  15.432  19.142   8.716
 1950POPC   C2B26528  15.331  19.152   8.270
 1950POPC   C3B26529  15.470  19.155   7.856
 1950POPC   C4B26530  15.518  19.093   7.403
 1951POPC   NC326531  42.059   9.519   9.459
 1951POPC   PO426532  41.437   9.538   9.417
 1951POPC   GL126533  41.584   9.739   9.054
 1951POPC   GL226534  41.868   9.891   9.119
 1951POPC   C1A26535  41.480   9.683   8.615
 1951POPC   D2A26536  41.650   9.411   8.299
 1951POPC   C3A26537  41.561   9.579   7.907
 1951POPC   C4A26538  41.158   9.624   7.693
 1951POPC   C1B26539  41.984   9.822   8.691
 1951POPC   C2B26540  41.822   9.885   8.284
 1951POPC   C3B26541  41.798  10.068   7.898
 1951POPC   C4B26542  41.531   9.976   7.578
 1952POPC   NC326543  26.916   5.106   9.465
 1952POPC   PO426544  26.406   4.730   9.485
 1952POPC   GL126545  26.703   4.820   9.091
 1952POPC   GL226546  26.979   5.086   8.960
 1952POPC   C1A26547  26.586   4.946   8.675
 1952POPC   D2A26548  26.859   5.065   8.363
 1952POPC   C3A26549  26.875   4.812   8.008
 1952POPC   C4A26550  26.740   4.860   7.585
 1952POPC   C1B26551  27.208   5.376   8.671
 1952POPC   C2B26552  27.257   5.359   8.215
 1952POPC   C3B26553  26.931   5.336   7.897
 1952POPC   C4B26554  26.944   5.299   7.435
 1953POPC   NC326555  37.955  18.756   9.290
 1953POPC   PO426556  37.458  19.082   9.604
 1953POPC   GL126557  37.558  19.099   9.175
 1953POPC   GL226558  37.906  19.212   9.075
 1953POPC   C1A26559  37.542  18.969   8.761
 1953POPC   D2A26560  37.377  19.055   8.380
 1953POPC   C3A26561  37.468  18.929   8.028
 1953POPC   C4A26562  37.428  18.982   7.664
 1953POPC   C1B26563  38.018  19.078   8.671
 1953POPC   C2B26564  37.722  19.384   8.515
 1953POPC   C3B26565  37.682  19.408   8.071
 1953POPC   C4B26566  37.932  19.060   7.874
 1954POPC   NC326567   9.092  15.282   9.291
 1954POPC   PO426568   8.843  14.721   9.534
 1954POPC   GL126569   8.831  14.934   9.050
 1954POPC   GL226570   8.524  15.156   8.927
 1954POPC   C1A26571   8.967  15.232   8.667
 1954POPC   D2A26572   8.824  15.409   8.261
 1954POPC   C3A26573   9.142  15.329   8.010
 1954POPC   C4A26574   9.352  15.381   7.651
 1954POPC   C1B26575   8.509  15.084   8.515
 1954POPC   C2B26576   8.838  14.876   8.288
 1954POPC   C3B26577   8.813  14.949   7.873
 1954POPC   C4B26578   8.740  15.343   7.709
 1955POPC   NC326579  37.138   1.023   9.575
 1955POPC   PO426580  36.882   1.693   9.488
 1955POPC   GL126581  36.861   1.353   9.206
 1955POPC   GL226582  36.610   1.127   9.331
 1955POPC   C1A26583  37.024   1.285   8.779
 1955POPC   D2A26584  36.981   1.433   8.353
 1955POPC   C3A26585  37.030   1.207   7.995
 1955POPC   C4A26586  37.036   1.413   7.644
 1955POPC   C1B26587  36.596   1.035   8.888
 1955POPC   C2B26588  36.651   0.982   8.434
 1955POPC   C3B26589  36.596   0.964   7.966
 1955POPC   C4B26590  36.862   0.948   7.557
 1956POPC   NC326591  20.090  11.797   9.398
 1956POPC   PO426592  20.547  12.318   9.527
 1956POPC   GL126593  20.428  12.155   9.160
 1956POPC   GL226594  20.523  11.825   9.084
 1956POPC   C1A26595  20.329  12.144   8.726
 1956POPC   D2A26596  20.254  12.094   8.294
 1956POPC   C3A26597  20.467  12.337   7.985
 1956POPC   C4A26598  20.705  12.297   7.603
 1956POPC   C1B26599  20.675  11.742   8.668
 1956POPC   C2B26600  20.656  11.786   8.240
 1956POPC   C3B26601  20.617  11.864   7.839
 1956POPC   C4B26602  20.898  11.825   7.490
 1957POPC   NC326603  24.725  36.085   9.431
 1957POPC   PO426604  24.242  35.827   9.681
 1957POPC   GL126605  24.254  36.127   9.239
 1957POPC   GL226606  24.482  36.376   9.101
 1957POPC   C1A26607  24.199  36.113   8.753
 1957POPC   D2A26608  24.446  35.956   8.377
 1957POPC   C3A26609  24.432  36.106   7.940
 1957POPC   C4A26610  24.461  35.841   7.573
 1957POPC   C1B26611  24.715  36.234   8.740
 1957POPC   C2B26612  24.786  36.333   8.315
 1957POPC   C3B26613  24.944  36.191   7.941
 1957POPC   C4B26614  24.733  36.281   7.535
 1958POPC   NC326615  25.422  15.526   9.606
 1958POPC   PO426616  25.448  16.169   9.532
 1958POPC   GL126617  25.424  15.898   9.227
 1958POPC   GL226618  25.098  16.003   9.161
 1958POPC   C1A26619  25.469  15.810   8.811
 1958POPC   D2A26620  25.291  15.980   8.441
 1958POPC   C3A26621  25.395  15.801   8.009
 1958POPC   C4A26622  25.155  15.700   7.629
 1958POPC   C1B26623  25.038  16.294   8.830
 1958POPC   C2B26624  24.952  16.360   8.400
 1958POPC   C3B26625  25.163  16.262   8.017
 1958POPC   C4B26626  24.939  16.166   7.650
 1959POPC   NC326627  38.473  17.878   9.626
 1959POPC   PO426628  38.213  18.537   9.606
 1959POPC   GL126629  38.211  18.310   9.203
 1959POPC   GL226630  38.522  18.177   9.175
 1959POPC   C1A26631  38.250  18.205   8.752
 1959POPC   D2A26632  38.582  18.234   8.472
 1959POPC   C3A26633  38.406  18.256   8.054
 1959POPC   C4A26634  38.528  18.073   7.664
 1959POPC   C1B26635  38.792  18.467   8.955
 1959POPC   C2B26636  38.817  18.679   8.576
 1959POPC   C3B26637  38.788  18.596   8.152
 1959POPC   C4B26638  38.748  18.541   7.725
 1960POPC   NC326639  22.575   9.667   9.335
 1960POPC   PO426640  23.038  10.130   9.520
 1960POPC   GL126641  23.047   9.925   9.091
 1960POPC   GL226642  22.974   9.543   9.053
 1960POPC   C1A26643  23.210   9.996   8.674
 1960POPC   D2A26644  23.039   9.953   8.246
 1960POPC   C3A26645  23.217   9.906   7.847
 1960POPC   C4A26646  23.093   9.643   7.498
 1960POPC   C1B26647  22.772   9.737   8.685
 1960POPC   C2B26648  22.598   9.681   8.300
 1960POPC   C3B26649  22.791   9.557   7.948
 1960POPC   C4B26650  22.889   9.208   7.724
 1961POPC   NC326651   6.471   7.605   9.534
 1961POPC   PO426652   7.060   7.350   9.575
 1961POPC   GL126653   6.880   7.571   9.177
 1961POPC   GL226654   6.508   7.621   9.032
 1961POPC   C1A26655   6.881   7.614   8.713
 1961POPC   D2A26656   6.612   7.454   8.416
 1961POPC   C3A26657   6.749   7.489   8.028
 1961POPC   C4A26658   6.580   7.571   7.635
 1961POPC   C1B26659   6.272   7.304   8.803
 1961POPC   C2B26660   6.146   7.231   8.381
 1961POPC   C3B26661   6.274   7.280   7.966
 1961POPC   C4B26662   6.270   7.168   7.538
 1962POPC   NC326663   4.652  13.225   9.426
 1962POPC   PO426664   4.305  13.757   9.480
 1962POPC   GL126665   4.448  13.613   9.132
 1962POPC   GL226666   4.082  13.553   9.040
 1962POPC   C1A26667   4.484  13.363   8.782
 1962POPC   D2A26668   4.121  13.307   8.493
 1962POPC   C3A26669   4.239  13.408   8.056
 1962POPC   C4A26670   4.623  13.274   7.805
 1962POPC   C1B26671   4.207  13.796   8.704
 1962POPC   C2B26672   4.032  13.827   8.315
 1962POPC   C3B26673   4.139  13.982   7.928
 1962POPC   C4B26674   4.369  13.980   7.536
 1963POPC   NC326675  13.350  35.211   9.468
 1963POPC   PO426676  13.777  35.498   9.214
 1963POPC   GL126677  13.738  35.346   8.876
 1963POPC   GL226678  13.543  35.050   8.975
 1963POPC   C1A26679  13.419  35.318   8.572
 1963POPC   D2A26680  13.361  35.556   8.252
 1963POPC   C3A26681  13.643  35.409   7.964
 1963POPC   C4A26682  13.539  35.580   7.611
 1963POPC   C1B26683  13.878  34.935   8.643
 1963POPC   C2B26684  13.667  34.919   8.262
 1963POPC   C3B26685  13.689  34.909   7.846
 1963POPC   C4B26686  13.972  35.102   7.637
 1964POPC   NC326687   5.641  35.855   9.448
 1964POPC   PO426688   5.852  36.460   9.590
 1964POPC   GL126689   5.782  36.301   9.185
 1964POPC   GL226690   5.867  35.968   9.025
 1964POPC   C1A26691   5.575  36.354   8.818
 1964POPC   D2A26692   5.575  36.461   8.394
 1964POPC   C3A26693   5.727  36.250   8.070
 1964POPC   C4A26694   5.665  36.281   7.619
 1964POPC   C1B26695   5.677  35.903   8.615
 1964POPC   C2B26696   5.599  35.696   8.255
 1964POPC   C3B26697   5.685  35.789   7.861
 1964POPC   C4B26698   6.071  36.034   7.698
 1965POPC   NC326699   0.144  28.506   9.522
 1965POPC   PO426700   0.577  27.969   9.491
 1965POPC   GL126701   0.306  28.120   9.200
 1965POPC   GL226702   0.457  28.420   9.091
 1965POPC   C1A26703   0.114  28.235   8.804
 1965POPC   D2A26704   0.356  28.144   8.484
 1965POPC   C3A26705   0.305  28.351   8.134
 1965POPC   C4A26706   0.451  28.270   7.737
 1965POPC   C1B26707   0.534  28.608   8.728
 1965POPC   C2B26708   0.579  28.770   8.328
 1965POPC   C3B26709   0.632  28.716   7.906
 1965POPC   C4B26710   0.700  28.694   7.445
 1966POPC   NC326711  22.666  23.140   9.256
 1966POPC   PO426712  22.361  22.590   9.589
 1966POPC   GL126713  22.270  22.790   9.169
 1966POPC   GL226714  22.506  22.805   8.900
 1966POPC   C1A26715  22.036  22.945   8.795
 1966POPC   D2A26716  22.232  22.865   8.366
 1966POPC   C3A26717  22.015  22.938   7.974
 1966POPC   C4A26718  21.669  22.840   7.671
 1966POPC   C1B26719  22.485  23.204   8.644
 1966POPC   C2B26720  22.377  23.350   8.222
 1966POPC   C3B26721  22.471  23.122   7.818
 1966POPC   C4B26722  22.521  22.866   7.403
 1967POPC   NC326723  19.655  32.880   9.299
 1967POPC   PO426724  19.939  33.375   9.399
 1967POPC   GL126725  19.803  33.305   9.004
 1967POPC   GL226726  19.442  33.309   9.101
 1967POPC   C1A26727  19.948  33.037   8.660
 1967POPC   D2A26728  20.096  32.844   8.256
 1967POPC   C3A26729  19.920  33.063   7.930
 1967POPC   C4A26730  19.992  33.479   7.776
 1967POPC   C1B26731  19.439  33.065   8.716
 1967POPC   C2B26732  19.579  32.926   8.325
 1967POPC   C3B26733  19.403  33.178   8.035
 1967POPC   C4B26734  19.530  33.327   7.680
 1968POPC   NC326735  41.490  41.173   9.513
 1968POPC   PO426736  41.209  41.734   9.436
 1968POPC   GL126737  41.541  41.521   9.135
 1968POPC   GL226738  41.814  41.230   9.140
 1968POPC   C1A26739  41.724  41.607   8.734
 1968POPC   D2A26740  41.853  41.776   8.348
 1968POPC   C3A26741  41.659  41.674   7.951
 1968POPC   C4A26742  41.498  41.699   7.507
 1968POPC   C1B26743  41.813  41.092   8.743
 1968POPC   C2B26744  41.893  41.259   8.349
 1968POPC   C3B26745  41.752  41.169   7.951
 1968POPC   C4B26746  41.750  41.273   7.528
 1969POPC   NC326747  11.652  22.580   9.459
 1969POPC   PO426748  11.036  22.293   9.597
 1969POPC   GL126749  11.135  22.332   9.086
 1969POPC   GL226750  11.401  22.534   9.034
 1969POPC   C1A26751  11.271  22.110   8.696
 1969POPC   D2A26752  11.507  21.894   8.355
 1969POPC   C3A26753  11.284  21.875   7.949
 1969POPC   C4A26754  10.948  22.085   7.686
 1969POPC   C1B26755  11.689  22.425   8.719
 1969POPC   C2B26756  11.549  22.401   8.296
 1969POPC   C3B26757  11.449  22.349   7.866
 1969POPC   C4B26758  11.423  22.625   7.503
 1970POPC   NC326759  39.744  33.280   9.439
 1970POPC   PO426760  39.647  32.563   9.518
 1970POPC   GL126761  39.906  32.638   9.133
 1970POPC   GL226762  40.135  32.952   9.197
 1970POPC   C1A26763  39.964  32.865   8.739
 1970POPC   D2A26764  39.963  33.122   8.387
 1970POPC   C3A26765  39.835  32.978   7.977
 1970POPC   C4A26766  40.008  32.645   7.742
 1970POPC   C1B26767  40.171  33.332   8.887
 1970POPC   C2B26768  40.194  33.572   8.488
 1970POPC   C3B26769  40.202  33.418   8.045
 1970POPC   C4B26770  40.173  33.190   7.662
 1971POPC   NC326771  10.144  13.495   9.542
 1971POPC   PO426772   9.548  13.548   9.317
 1971POPC   GL126773   9.883  13.711   9.123
 1971POPC   GL226774  10.087  13.432   9.041
 1971POPC   C1A26775   9.780  13.880   8.725
 1971POPC   D2A26776   9.450  13.743   8.418
 1971POPC   C3A26777   9.612  13.736   8.002
 1971POPC   C4A26778   9.801  13.430   7.703
 1971POPC   C1B26779   9.782  13.370   8.720
 1971POPC   C2B26780   9.852  13.412   8.313
 1971POPC   C3B26781  10.194  13.387   8.034
 1971POPC   C4B26782  10.175  13.066   7.733
 1972POPC   NC326783  20.780  38.438   9.650
 1972POPC   PO426784  20.367  37.973   9.438
 1972POPC   GL126785  20.598  38.218   9.109
 1972POPC   GL226786  20.838  38.509   9.154
 1972POPC   C1A26787  20.534  38.430   8.686
 1972POPC   D2A26788  20.299  38.593   8.292
 1972POPC   C3A26789  20.375  38.504   7.849
 1972POPC   C4A26790  20.500  38.114   7.627
 1972POPC   C1B26791  21.064  38.747   8.856
 1972POPC   C2B26792  21.109  38.657   8.415
 1972POPC   C3B26793  20.842  38.570   8.055
 1972POPC   C4B26794  20.840  38.472   7.586
 1973POPC   NC326795  39.935  27.544   9.553
 1973POPC   PO426796  40.475  27.626   9.282
 1973POPC   GL126797  40.107  27.512   9.039
 1973POPC   GL226798  39.738  27.568   9.097
 1973POPC   C1A26799  40.005  27.517   8.599
 1973POPC   D2A26800  39.947  27.585   8.181
 1973POPC   C3A26801  40.308  27.549   7.961
 1973POPC   C4A26802  40.475  27.764   7.642
 1973POPC   C1B26803  39.595  27.288   8.800
 1973POPC   C2B26804  39.506  27.416   8.373
 1973POPC   C3B26805  39.631  27.240   7.981
 1973POPC   C4B26806  39.892  27.444   7.664
 1974POPC   NC326807  16.893  31.548   9.544
 1974POPC   PO426808  16.426  31.023   9.437
 1974POPC   GL126809  16.654  31.282   9.125
 1974POPC   GL226810  16.554  31.638   9.146
 1974POPC   C1A26811  16.849  31.464   8.744
 1974POPC   D2A26812  17.133  31.416   8.412
 1974POPC   C3A26813  16.947  31.585   8.076
 1974POPC   C4A26814  16.836  31.480   7.669
 1974POPC   C1B26815  16.515  31.862   8.780
 1974POPC   C2B26816  16.599  31.879   8.373
 1974POPC   C3B26817  16.355  31.895   8.048
 1974POPC   C4B26818  16.333  31.678   7.753
 1975POPC   NC326819  25.840  25.986   9.604
 1975POPC   PO426820  26.476  25.754   9.518
 1975POPC   GL126821  26.368  26.094   9.210
 1975POPC   GL226822  26.056  26.087   9.164
 1975POPC   C1A26823  26.168  26.334   8.776
 1975POPC   D2A26824  26.012  26.101   8.453
 1975POPC   C3A26825  26.096  26.251   8.057
 1975POPC   C4A26826  26.009  26.090   7.652
 1975POPC   C1B26827  26.277  25.818   8.801
 1975POPC   C2B26828  26.307  25.710   8.351
 1975POPC   C3B26829  26.451  25.686   7.906
 1975POPC   C4B26830  26.372  25.764   7.419
 1976POPC   NC326831   1.904  27.256   9.443
 1976POPC   PO426832   2.151  27.929   9.480
 1976POPC   GL126833   2.017  27.694   9.147
 1976POPC   GL226834   1.692  27.723   9.121
 1976POPC   C1A26835   2.216  27.566   8.746
 1976POPC   D2A26836   2.413  27.408   8.367
 1976POPC   C3A26837   2.220  27.575   7.997
 1976POPC   C4A26838   2.023  27.474   7.640
 1976POPC   C1B26839   1.728  27.743   8.719
 1976POPC   C2B26840   1.868  27.629   8.352
 1976POPC   C3B26841   1.643  27.594   7.993
 1976POPC   C4B26842   1.629  27.818   7.613
 1977POPC   NC326843  33.642  19.163   9.506
 1977POPC   PO426844  34.076  18.702   9.686
 1977POPC   GL126845  33.999  18.879   9.250
 1977POPC   GL226846  34.308  19.052   9.137
 1977POPC   C1A26847  33.922  19.022   8.801
 1977POPC   D2A26848  33.944  18.944   8.343
 1977POPC   C3A26849  33.590  19.048   8.073
 1977POPC   C4A26850  33.514  18.933   7.662
 1977POPC   C1B26851  34.314  19.389   8.803
 1977POPC   C2B26852  34.114  19.603   8.461
 1977POPC   C3B26853  34.034  19.394   8.068
 1977POPC   C4B26854  33.777  19.376   7.702
 1978POPC   NC326855  13.153  31.164   9.501
 1978POPC   PO426856  12.464  31.096   9.430
 1978POPC   GL126857  12.720  31.342   9.095
 1978POPC   GL226858  13.042  31.314   9.047
 1978POPC   C1A26859  12.824  31.636   8.729
 1978POPC   D2A26860  12.650  31.673   8.293
 1978POPC   C3A26861  12.883  31.722   7.911
 1978POPC   C4A26862  12.873  31.774   7.412
 1978POPC   C1B26863  13.038  31.086   8.708
 1978POPC   C2B26864  12.744  31.084   8.376
 1978POPC   C3B26865  12.910  31.073   7.989
 1978POPC   C4B26866  12.923  31.316   7.633
 1979POPC   NC326867   1.237  19.509   9.532
 1979POPC   PO426868   1.087  20.156   9.572
 1979POPC   GL126869   1.035  19.872   9.222
 1979POPC   GL226870   1.179  19.553   9.044
 1979POPC   C1A26871   0.911  19.958   8.824
 1979POPC   D2A26872   1.125  20.093   8.500
 1979POPC   C3A26873   1.098  19.849   8.152
 1979POPC   C4A26874   1.046  19.808   7.704
 1979POPC   C1B26875   1.264  19.611   8.612
 1979POPC   C2B26876   1.576  19.737   8.307
 1979POPC   C3B26877   1.506  19.581   7.909
 1979POPC   C4B26878   1.438  19.611   7.469
 1980POPC   NC326879  41.003  37.970   9.370
 1980POPC   PO426880  40.693  38.597   9.568
 1980POPC   GL126881  40.684  38.490   9.141
 1980POPC   GL226882  40.971  38.300   8.989
 1980POPC   C1A26883  40.553  38.402   8.726
 1980POPC   D2A26884  40.818  38.375   8.419
 1980POPC   C3A26885  40.601  38.463   8.052
 1980POPC   C4A26886  40.711  38.420   7.611
 1980POPC   C1B26887  40.960  38.725   8.779
 1980POPC   C2B26888  41.074  38.806   8.332
 1980POPC   C3B26889  40.894  38.847   7.885
 1980POPC   C4B26890  41.115  38.717   7.481
 1981POPC   NC326891  40.544  28.071   9.380
 1981POPC   PO426892  40.820  28.701   9.478
 1981POPC   GL126893  40.871  28.528   9.097
 1981POPC   GL226894  40.980  28.228   9.065
 1981POPC   C1A26895  40.886  28.566   8.670
 1981POPC   D2A26896  40.739  28.368   8.335
 1981POPC   C3A26897  41.007  28.495   8.093
 1981POPC   C4A26898  40.930  28.662   7.729
 1981POPC   C1B26899  40.891  28.036   8.680
 1981POPC   C2B26900  41.124  27.945   8.317
 1981POPC   C3B26901  41.144  28.019   7.916
 1981POPC   C4B26902  40.828  28.168   7.682
 1982POPC   NC326903  40.702  37.432   9.547
 1982POPC   PO426904  40.528  37.999   9.274
 1982POPC   GL126905  40.756  37.702   9.030
 1982POPC   GL226906  40.543  37.510   8.853
 1982POPC   C1A26907  41.066  37.842   8.721
 1982POPC   D2A26908  41.217  38.041   8.375
 1982POPC   C3A26909  41.210  37.739   8.071
 1982POPC   C4A26910  40.946  37.674   7.741
 1982POPC   C1B26911  40.577  37.898   8.589
 1982POPC   C2B26912  40.739  37.945   8.171
 1982POPC   C3B26913  40.535  37.957   7.812
 1982POPC   C4B26914  40.255  37.844   7.481
 1983POPC   NC326915  15.743   1.275   9.566
 1983POPC   PO426916  16.016   0.723   9.475
 1983POPC   GL126917  16.009   1.071   9.176
 1983POPC   GL226918  16.329   1.237   9.047
 1983POPC   C1A26919  15.877   1.111   8.771
 1983POPC   D2A26920  16.058   1.070   8.379
 1983POPC   C3A26921  15.867   1.340   8.115
 1983POPC   C4A26922  15.844   1.334   7.696
 1983POPC   C1B26923  16.278   1.437   8.648
 1983POPC   C2B26924  16.386   1.461   8.194
 1983POPC   C3B26925  16.339   1.509   7.731
 1983POPC   C4B26926  16.279   1.711   7.290
 1984POPC   NC326927  19.860  16.546   9.578
 1984POPC   PO426928  20.040  17.152   9.492
 1984POPC   GL126929  19.988  16.820   9.146
 1984POPC   GL226930  19.683  16.563   9.110
 1984POPC   C1A26931  20.027  16.582   8.744
 1984POPC   D2A26932  19.775  16.552   8.382
 1984POPC   C3A26933  19.932  16.564   7.968
 1984POPC   C4A26934  19.627  16.488   7.679
 1984POPC   C1B26935  19.545  16.908   8.875
 1984POPC   C2B26936  19.462  16.954   8.446
 1984POPC   C3B26937  19.615  16.959   8.051
 1984POPC   C4B26938  19.533  17.222   7.728
 1985POPC   NC326939  33.395   4.575   9.446
 1985POPC   PO426940  32.945   3.921   9.413
 1985POPC   GL126941  32.802   4.292   9.200
 1985POPC   GL226942  33.119   4.427   9.048
 1985POPC   C1A26943  32.721   4.270   8.757
 1985POPC   D2A26944  32.912   4.420   8.378
 1985POPC   C3A26945  32.849   4.220   7.964
 1985POPC   C4A26946  32.883   4.076   7.522
 1985POPC   C1B26947  33.236   4.773   8.779
 1985POPC   C2B26948  33.382   4.816   8.352
 1985POPC   C3B26949  33.312   4.480   8.053
 1985POPC   C4B26950  33.158   4.487   7.628
 1986POPC   NC326951  12.553  31.594   9.503
 1986POPC   PO426952  11.826  31.490   9.621
 1986POPC   GL126953  12.092  31.590   9.261
 1986POPC   GL226954  12.209  31.338   9.067
 1986POPC   C1A26955  12.111  31.772   8.812
 1986POPC   D2A26956  12.283  31.987   8.435
 1986POPC   C3A26957  12.185  31.785   8.024
 1986POPC   C4A26958  12.406  31.802   7.603
 1986POPC   C1B26959  12.400  31.358   8.681
 1986POPC   C2B26960  12.284  31.317   8.280
 1986POPC   C3B26961  12.471  31.380   7.883
 1986POPC   C4B26962  12.468  31.342   7.410
 1987POPC   NC326963  28.303  24.244   9.451
 1987POPC   PO426964  27.800  24.756   9.507
 1987POPC   GL126965  28.184  24.691   9.196
 1987POPC   GL226966  28.258  24.373   8.977
 1987POPC   C1A26967  28.496  24.772   8.814
 1987POPC   D2A26968  28.536  24.468   8.465
 1987POPC   C3A26969  28.551  24.625   8.010
 1987POPC   C4A26970  28.266  24.765   7.678
 1987POPC   C1B26971  28.104  24.083   8.687
 1987POPC   C2B26972  28.309  24.042   8.294
 1987POPC   C3B26973  28.672  24.120   8.084
 1987POPC   C4B26974  28.454  24.197   7.727
 1988POPC   NC326975  11.333  32.560   9.438
 1988POPC   PO426976  11.303  33.184   9.624
 1988POPC   GL126977  11.462  33.009   9.247
 1988POPC   GL226978  11.139  32.951   9.149
 1988POPC   C1A26979  11.561  32.912   8.826
 1988POPC   D2A26980  11.554  33.116   8.428
 1988POPC   C3A26981  11.567  32.891   8.044
 1988POPC   C4A26982  11.551  33.027   7.628
 1988POPC   C1B26983  11.100  32.742   8.737
 1988POPC   C2B26984  11.104  32.875   8.300
 1988POPC   C3B26985  11.078  32.901   7.849
 1988POPC   C4B26986  11.158  32.815   7.376
 1989POPC   NC326987  17.526  30.919   9.935
 1989POPC   PO426988  17.124  30.402   9.676
 1989POPC   GL126989  17.336  30.714   9.312
 1989POPC   GL226990  17.124  31.041   9.258
 1989POPC   C1A26991  17.589  30.759   8.878
 1989POPC   D2A26992  17.739  30.579   8.463
 1989POPC   C3A26993  17.574  30.741   8.047
 1989POPC   C4A26994  17.676  30.545   7.669
 1989POPC   C1B26995  17.232  31.126   8.841
 1989POPC   C2B26996  17.244  30.916   8.420
 1989POPC   C3B26997  17.130  31.056   7.990
 1989POPC   C4B26998  17.243  30.823   7.609
 1990POPC   NC326999   4.473  14.192   9.423
 1990POPC   PO427000   4.800  14.865   9.499
 1990POPC   GL127001   4.588  14.639   9.164
 1990POPC   GL227002   4.219  14.592   9.123
 1990POPC   C1A27003   4.590  14.411   8.761
 1990POPC   D2A27004   4.466  14.142   8.389
 1990POPC   C3A27005   4.550  14.324   7.974
 1990POPC   C4A27006   4.579  14.437   7.530
 1990POPC   C1B27007   4.094  14.293   8.775
 1990POPC   C2B27008   3.986  14.345   8.351
 1990POPC   C3B27009   4.128  14.599   8.022
 1990POPC   C4B27010   4.096  14.399   7.628
 1991POPC   NC327011   2.722   2.199   9.540
 1991POPC   PO427012   2.401   1.644   9.130
 1991POPC   GL127013   2.744   1.958   9.080
 1991POPC   GL227014   3.042   1.766   9.005
 1991POPC   C1A27015   2.825   2.199   8.747
 1991POPC   D2A27016   2.661   2.054   8.347
 1991POPC   C3A27017   2.731   2.357   8.030
 1991POPC   C4A27018   2.986   2.234   7.703
 1991POPC   C1B27019   2.852   1.675   8.641
 1991POPC   C2B27020   2.897   1.501   8.262
 1991POPC   C3B27021   2.956   1.809   7.990
 1991POPC   C4B27022   2.627   1.884   7.719
 1992POPC   NC327023  36.679  20.042   9.379
 1992POPC   PO427024  37.294  19.750   9.451
 1992POPC   GL127025  37.049  19.705   9.108
 1992POPC   GL227026  36.687  19.620   9.096
 1992POPC   C1A27027  36.958  19.889   8.737
 1992POPC   D2A27028  36.617  20.058   8.529
 1992POPC   C3A27029  36.686  19.867   8.129
 1992POPC   C4A27030  36.913  19.998   7.769
 1992POPC   C1B27031  36.539  19.546   8.672
 1992POPC   C2B27032  36.535  19.382   8.250
 1992POPC   C3B27033  36.323  19.482   7.888
 1992POPC   C4B27034  36.305  19.907   7.786
 1993POPC   NC327035  38.862  34.058   9.908
 1993POPC   PO427036  38.338  33.925   9.509
 1993POPC   GL127037  38.435  34.045   9.141
 1993POPC   GL227038  38.787  33.988   9.171
 1993POPC   C1A27039  38.483  34.013   8.729
 1993POPC   D2A27040  38.240  33.806   8.425
 1993POPC   C3A27041  38.415  33.676   8.040
 1993POPC   C4A27042  38.515  33.840   7.646
 1993POPC   C1B27043  38.890  33.711   8.805
 1993POPC   C2B27044  38.758  33.607   8.438
 1993POPC   C3B27045  38.912  33.609   8.072
 1993POPC   C4B27046  38.996  33.593   7.679
 1994POPC   NC327047   6.271   0.969   9.813
 1994POPC   PO427048   6.886   1.251   9.484
 1994POPC   GL127049   6.570   1.401   9.127
 1994POPC   GL227050   6.735   1.510   8.914
 1994POPC   C1A27051   6.396   1.212   8.709
 1994POPC   D2A27052   6.377   0.828   8.478
 1994POPC   C3A27053   6.520   0.846   8.056
 1994POPC   C4A27054   6.375   1.104   7.711
 1994POPC   C1B27055   6.970   1.267   8.684
 1994POPC   C2B27056   6.858   1.216   8.290
 1994POPC   C3B27057   6.756   1.353   7.923
 1994POPC   C4B27058   6.860   1.169   7.534
 1995POPC   NC327059  44.058  33.183   9.645
 1995POPC   PO427060  43.871  32.594   9.518
 1995POPC   GL127061  43.887  32.938   9.210
 1995POPC   GL227062  43.679  33.249   9.310
 1995POPC   C1A27063  44.044  32.962   8.786
 1995POPC   D2A27064  44.208  33.028   8.350
 1995POPC   C3A27065  43.946  32.971   8.000
 1995POPC   C4A27066  43.909  32.922   7.554
 1995POPC   C1B27067  43.668  33.314   8.884
 1995POPC   C2B27068  43.674  33.529   8.499
 1995POPC   C3B27069  43.484  33.380   8.135
 1995POPC   C4B27070  43.582  33.252   7.734
 1996POPC   NC327071  39.637  28.491   9.430
 1996POPC   PO427072  40.098  28.011   9.540
 1996POPC   GL127073  40.082  28.323   9.196
 1996POPC   GL227074  40.365  28.541   9.148
 1996POPC   C1A27075  39.878  28.344   8.790
 1996POPC   D2A27076  39.879  28.007   8.499
 1996POPC   C3A27077  39.867  28.081   8.059
 1996POPC   C4A27078  39.896  28.476   7.842
 1996POPC   C1B27079  40.397  28.308   8.725
 1996POPC   C2B27080  40.232  28.365   8.261
 1996POPC   C3B27081  40.333  28.222   7.807
 1996POPC   C4B27082  40.486  28.146   7.320
 1997POPC   NC327083  34.042  13.899   9.527
 1997POPC   PO427084  33.669  14.462   9.361
 1997POPC   GL127085  33.879  14.458   9.025
 1997POPC   GL227086  34.216  14.330   9.149
 1997POPC   C1A27087  33.889  14.653   8.610
 1997POPC   D2A27088  34.115  14.518   8.257
 1997POPC   C3A27089  33.908  14.483   7.920
 1997POPC   C4A27090  33.500  14.540   7.764
 1997POPC   C1B27091  34.142  14.186   8.710
 1997POPC   C2B27092  34.116  13.907   8.340
 1997POPC   C3B27093  34.190  14.022   7.894
 1997POPC   C4B27094  34.178  14.018   7.391
 1998POPC   NC327095  34.783  37.473   9.658
 1998POPC   PO427096  34.320  37.836   9.327
 1998POPC   GL127097  34.720  37.852   9.128
 1998POPC   GL227098  34.927  37.545   9.101
 1998POPC   C1A27099  34.656  37.868   8.694
 1998POPC   D2A27100  34.338  38.000   8.411
 1998POPC   C3A27101  34.397  37.829   8.010
 1998POPC   C4A27102  34.108  37.588   7.798
 1998POPC   C1B27103  34.912  37.424   8.640
 1998POPC   C2B27104  34.964  37.291   8.220
 1998POPC   C3B27105  34.869  37.297   7.778
 1998POPC   C4B27106  34.670  37.265   7.369
 1999POPC   NC327107  12.240  34.751   9.538
 1999POPC   PO427108  11.786  34.350   9.264
 1999POPC   GL127109  12.066  34.684   9.065
 1999POPC   GL227110  12.428  34.680   9.068
 1999POPC   C1A27111  12.132  34.778   8.648
 1999POPC   D2A27112  11.823  34.673   8.335
 1999POPC   C3A27113  11.935  34.421   7.951
 1999POPC   C4A27114  12.089  34.611   7.571
 1999POPC   C1B27115  12.367  34.329   8.790
 1999POPC   C2B27116  12.222  34.345   8.376
 1999POPC   C3B27117  12.444  34.426   8.002
 1999POPC   C4B27118  12.486  34.279   7.604
 2000POPC   NC327119  11.851  21.147   9.551
 2000POPC   PO427120  12.329  21.600   9.475
 2000POPC   GL127121  12.130  21.375   9.153
 2000POPC   GL227122  11.826  21.529   9.187
 2000POPC   C1A27123  11.974  21.255   8.746
 2000POPC   D2A27124  12.151  21.161   8.345
 2000POPC   C3A27125  11.897  21.217   7.998
 2000POPC   C4A27126  11.958  21.420   7.588
 2000POPC   C1B27127  11.743  21.709   8.780
 2000POPC   C2B27128  11.998  21.653   8.396
 2000POPC   C3B27129  11.850  21.720   8.014
 2000POPC   C4B27130  11.792  21.890   7.661
 2001POPC   NC327131  41.915   7.758   9.437
 2001POPC   PO427132  41.232   7.707   9.399
 2001POPC   GL127133  41.554   7.371   9.182
 2001POPC   GL227134  41.898   7.420   9.043
 2001POPC   C1A27135  41.563   7.223   8.737
 2001POPC   D2A27136  41.587   7.511   8.375
 2001POPC   C3A27137  41.495   7.317   7.990
 2001POPC   C4A27138  41.607   6.973   7.737
 2001POPC   C1B27139  41.790   7.771   8.778
 2001POPC   C2B27140  41.843   7.982   8.366
 2001POPC   C3B27141  41.813   7.744   7.960
 2001POPC   C4B27142  41.670   7.541   7.568
 2002POPC   NC327143  16.202  19.539   9.360
 2002POPC   PO427144  15.554  19.561   9.282
 2002POPC   GL127145  15.876  19.687   8.985
 2002POPC   GL227146  16.070  19.971   9.117
 2002POPC   C1A27147  15.895  19.737   8.539
 2002POPC   D2A27148  15.768  19.460   8.177
 2002POPC   C3A27149  15.626  19.690   7.818
 2002POPC   C4A27150  15.798  20.095   7.859
 2002POPC   C1B27151  16.340  19.915   8.756
 2002POPC   C2B27152  16.266  20.112   8.330
 2002POPC   C3B27153  16.322  20.054   7.899
 2002POPC   C4B27154  16.125  19.748   7.634
 2003POPC   NC327155   3.700   6.540   9.494
 2003POPC   PO427156   3.755   7.220   9.488
 2003POPC   GL127157   3.444   7.128   9.135
 2003POPC   GL227158   3.438   6.739   9.113
 2003POPC   C1A27159   3.523   7.008   8.692
 2003POPC   D2A27160   3.706   6.680   8.534
 2003POPC   C3A27161   3.721   6.633   8.109
 2003POPC   C4A27162   3.763   6.694   7.690
 2003POPC   C1B27163   3.350   6.411   8.799
 2003POPC   C2B27164   3.271   6.454   8.360
 2003POPC   C3B27165   3.351   6.300   7.940
 2003POPC   C4B27166   3.256   6.164   7.501
 2004POPC   NC327167   9.942  15.836   9.396
 2004POPC   PO427168   9.423  15.534   9.481
 2004POPC   GL127169   9.544  15.891   9.122
 2004POPC   GL227170   9.828  16.115   8.971
 2004POPC   C1A27171   9.557  15.751   8.706
 2004POPC   D2A27172   9.379  15.523   8.412
 2004POPC   C3A27173   9.469  15.724   8.028
 2004POPC   C4A27174   9.631  15.792   7.606
 2004POPC   C1B27175  10.055  15.819   8.692
 2004POPC   C2B27176   9.939  15.718   8.285
 2004POPC   C3B27177   9.905  16.037   7.981
 2004POPC   C4B27178  10.044  16.055   7.564
 2005POPC   NC327179   9.292  31.779   9.536
 2005POPC   PO427180   8.805  31.395   9.748
 2005POPC   GL127181   8.863  31.296   9.235
 2005POPC   GL227182   9.246  31.321   9.165
 2005POPC   C1A27183   8.864  31.365   8.763
 2005POPC   D2A27184   8.634  31.639   8.477
 2005POPC   C3A27185   8.759  31.694   8.036
 2005POPC   C4A27186   8.625  31.359   7.782
 2005POPC   C1B27187   9.388  31.375   8.723
 2005POPC   C2B27188   9.210  31.515   8.325
 2005POPC   C3B27189   9.218  31.544   7.883
 2005POPC   C4B27190   9.118  31.167   7.689
 2006POPC   NC327191  14.928  12.436   9.382
 2006POPC   PO427192  15.280  11.947   9.609
 2006POPC   GL127193  15.189  11.903   9.213
 2006POPC   GL227194  15.538  11.853   9.115
 2006POPC   C1A27195  15.134  12.140   8.849
 2006POPC   D2A27196  14.990  12.106   8.453
 2006POPC   C3A27197  15.114  12.284   8.087
 2006POPC   C4A27198  15.209  12.018   7.756
 2006POPC   C1B27199  15.432  11.757   8.659
 2006POPC   C2B27200  15.355  11.807   8.219
 2006POPC   C3B27201  15.380  11.553   7.854
 2006POPC   C4B27202  15.402  11.665   7.408
 2007POPC   NC327203  40.546  35.757   9.405
 2007POPC   PO427204  40.874  36.417   9.363
 2007POPC   GL127205  40.788  36.072   9.094
 2007POPC   GL227206  40.411  36.142   9.089
 2007POPC   C1A27207  40.864  35.963   8.651
 2007POPC   D2A27208  40.987  36.146   8.240
 2007POPC   C3A27209  40.993  35.897   7.853
 2007POPC   C4A27210  41.000  35.925   7.383
 2007POPC   C1B27211  40.581  36.403   8.760
 2007POPC   C2B27212  40.464  36.224   8.398
 2007POPC   C3B27213  40.523  36.156   7.995
 2007POPC   C4B27214  40.672  36.212   7.623
 2008POPC   NC327215  37.535  39.898   9.532
 2008POPC   PO427216  38.264  39.862   9.490
 2008POPC   GL127217  37.905  39.749   9.208
 2008POPC   GL227218  37.768  40.070   9.117
 2008POPC   C1A27219  37.717  39.715   8.784
 2008POPC   D2A27220  37.915  39.867   8.419
 2008POPC   C3A27221  37.706  39.824   8.045
 2008POPC   C4A27222  37.868  39.886   7.675
 2008POPC   C1B27223  37.509  40.202   8.782
 2008POPC   C2B27224  37.606  40.290   8.333
 2008POPC   C3B27225  37.496  40.256   7.899
 2008POPC   C4B27226  37.357  39.929   7.612
 2009POPC   NC327227   1.950  12.265   9.492
 2009POPC   PO427228   1.921  12.984   9.483
 2009POPC   GL127229   2.077  12.728   9.181
 2009POPC   GL227230   2.234  13.029   9.076
 2009POPC   C1A27231   1.958  12.711   8.761
 2009POPC   D2A27232   1.897  13.023   8.444
 2009POPC   C3A27233   1.734  12.854   8.082
 2009POPC   C4A27234   1.830  13.005   7.716
 2009POPC   C1B27235   2.431  12.952   8.706
 2009POPC   C2B27236   2.304  12.681   8.380
 2009POPC   C3B27237   2.234  12.802   7.988
 2009POPC   C4B27238   2.342  12.837   7.595
 2010POPC   NC327239   2.871  27.006   9.516
 2010POPC   PO427240   2.589  26.442   9.715
 2010POPC   GL127241   2.547  26.590   9.235
 2010POPC   GL227242   2.606  26.920   9.095
 2010POPC   C1A27243   2.750  26.576   8.764
 2010POPC   D2A27244   2.837  26.651   8.331
 2010POPC   C3A27245   2.512  26.796   8.052
 2010POPC   C4A27246   2.616  26.612   7.660
 2010POPC   C1B27247   2.968  27.037   8.824
 2010POPC   C2B27248   2.897  27.168   8.387
 2010POPC   C3B27249   3.157  27.188   8.023
 2010POPC   C4B27250   2.918  26.986   7.758
 2011POPC   NC327251  17.084  40.377   9.574
 2011POPC   PO427252  17.448  39.794   9.543
 2011POPC   GL127253  17.593  39.788   9.160
 2011POPC   GL227254  17.631  40.157   9.131
 2011POPC   C1A27255  17.484  39.872   8.752
 2011POPC   D2A27256  17.610  39.750   8.377
 2011POPC   C3A27257  17.385  39.894   8.047
 2011POPC   C4A27258  17.047  39.738   7.799
 2011POPC   C1B27259  17.628  40.378   8.704
 2011POPC   C2B27260  17.677  40.350   8.233
 2011POPC   C3B27261  17.587  40.285   7.788
 2011POPC   C4B27262  17.818  40.265   7.379
 2012POPC   NC327263  10.057   5.610   9.616
 2012POPC   PO427264   9.674   6.250   9.581
 2012POPC   GL127265   9.782   6.037   9.168
 2012POPC   GL227266   9.863   5.689   9.167
 2012POPC   C1A27267   9.548   5.852   8.799
 2012POPC   D2A27268   9.330   5.921   8.401
 2012POPC   C3A27269   9.535   6.199   8.129
 2012POPC   C4A27270   9.828   6.257   7.800
 2012POPC   C1B27271  10.110   5.903   8.825
 2012POPC   C2B27272   9.907   6.006   8.450
 2012POPC   C3B27273   9.754   5.729   8.147
 2012POPC   C4B27274   9.854   5.750   7.737
 2013POPC   NC327275  29.939  27.578   9.809
 2013POPC   PO427276  29.731  27.293   9.254
 2013POPC   GL127277  29.793  27.683   9.073
 2013POPC   GL227278  29.722  27.495   8.771
 2013POPC   C1A27279  29.955  27.930   8.756
 2013POPC   D2A27280  29.755  27.796   8.357
 2013POPC   C3A27281  30.033  27.852   8.006
 2013POPC   C4A27282  30.057  27.810   7.566
 2013POPC   C1B27283  30.135  27.352   8.634
 2013POPC   C2B27284  30.404  27.335   8.278
 2013POPC   C3B27285  30.280  27.360   7.857
 2013POPC   C4B27286  30.309  27.421   7.401
 2014POPC   NC327287   3.202  31.103   9.593
 2014POPC   PO427288   3.556  30.484   9.464
 2014POPC   GL127289   3.772  30.567   9.127
 2014POPC   GL227290   3.773  30.912   9.221
 2014POPC   C1A27291   3.597  30.552   8.742
 2014POPC   D2A27292   3.495  30.786   8.377
 2014POPC   C3A27293   3.591  30.603   7.992
 2014POPC   C4A27294   3.455  30.812   7.616
 2014POPC   C1B27295   3.793  31.052   8.795
 2014POPC   C2B27296   3.998  31.018   8.385
 2014POPC   C3B27297   3.805  31.076   7.978
 2014POPC   C4B27298   3.822  31.143   7.529
 2015POPC   NC327299   4.203   4.905   9.573
 2015POPC   PO427300   3.731   5.358   9.709
 2015POPC   GL127301   4.089   5.256   9.257
 2015POPC   GL227302   4.363   5.016   9.101
 2015POPC   C1A27303   4.101   5.300   8.792
 2015POPC   D2A27304   4.236   5.374   8.412
 2015POPC   C3A27305   4.085   5.185   8.048
 2015POPC   C4A27306   4.160   5.344   7.683
 2015POPC   C1B27307   4.510   4.978   8.652
 2015POPC   C2B27308   4.588   5.058   8.203
 2015POPC   C3B27309   4.492   4.958   7.767
 2015POPC   C4B27310   4.499   4.741   7.348
 2016POPC   NC327311  12.120   6.784   9.518
 2016POPC   PO427312  11.735   6.167   9.480
 2016POPC   GL127313  12.080   6.378   9.185
 2016POPC   GL227314  12.010   6.745   9.029
 2016POPC   C1A27315  12.219   6.364   8.744
 2016POPC   D2A27316  12.189   6.265   8.306
 2016POPC   C3A27317  11.916   6.504   8.076
 2016POPC   C4A27318  12.040   6.597   7.671
 2016POPC   C1B27319  12.090   6.872   8.593
 2016POPC   C2B27320  12.286   6.862   8.195
 2016POPC   C3B27321  12.342   6.997   7.753
 2016POPC   C4B27322  12.319   6.864   7.307
 2017POPC   NC327323   4.273  21.621   9.492
 2017POPC   PO427324   3.826  21.093   9.644
 2017POPC   GL127325   4.067  21.165   9.232
 2017POPC   GL227326   4.457  21.227   9.200
 2017POPC   C1A27327   4.154  21.322   8.797
 2017POPC   D2A27328   4.521  21.227   8.520
 2017POPC   C3A27329   4.472  21.293   8.085
 2017POPC   C4A27330   4.153  21.328   7.730
 2017POPC   C1B27331   4.599  21.566   8.888
 2017POPC   C2B27332   4.366  21.719   8.493
 2017POPC   C3B27333   4.223  21.738   8.059
 2017POPC   C4B27334   4.517  21.724   7.732
 2018POPC   NC327335  20.488  20.989   9.600
 2018POPC   PO427336  20.880  21.601   9.420
 2018POPC   GL127337  20.657  21.497   9.066
 2018POPC   GL227338  20.598  21.178   9.107
 2018POPC   C1A27339  20.420  21.465   8.710
 2018POPC   D2A27340  20.427  21.236   8.382
 2018POPC   C3A27341  20.510  21.446   8.029
 2018POPC   C4A27342  20.307  21.242   7.735
 2018POPC   C1B27343  20.856  21.186   8.714
 2018POPC   C2B27344  20.948  21.284   8.291
 2018POPC   C3B27345  20.921  21.156   7.873
 2018POPC   C4B27346  20.762  21.340   7.526
 2019POPC   NC327347  42.775  41.754   9.488
 2019POPC   PO427348  42.047  41.578   9.452
 2019POPC   GL127349  42.280  41.471   9.089
 2019POPC   GL227350  42.615  41.583   9.021
 2019POPC   C1A27351  42.242  41.595   8.664
 2019POPC   D2A27352  42.352  41.845   8.285
 2019POPC   C3A27353  42.164  41.584   7.988
 2019POPC   C4A27354  42.235  41.379   7.629
 2019POPC   C1B27355  42.793  41.296   8.666
 2019POPC   C2B27356  42.846  41.302   8.179
 2019POPC   C3B27357  42.673  41.591   7.903
 2019POPC   C4B27358  42.859  41.922   7.706
 2020POPC   NC327359  37.551   3.924   9.377
 2020POPC   PO427360  37.580   3.331   9.710
 2020POPC   GL127361  37.617   3.359   9.229
 2020POPC   GL227362  37.822   3.592   9.108
 2020POPC   C1A27363  37.436   3.540   8.802
 2020POPC   D2A27364  37.590   3.676   8.386
 2020POPC   C3A27365  37.503   3.485   8.003
 2020POPC   C4A27366  37.440   3.700   7.674
 2020POPC   C1B27367  37.946   3.751   8.738
 2020POPC   C2B27368  38.098   3.521   8.363
 2020POPC   C3B27369  38.035   3.369   7.936
 2020POPC   C4B27370  37.933   3.572   7.562
 2021POPC   NC327371  22.230  42.888   9.463
 2021POPC   PO427372  21.885  43.451   9.307
 2021POPC   GL127373  21.991  43.080   9.027
 2021POPC   GL227374  22.343  43.062   8.969
 2021POPC   C1A27375  21.997  42.990   8.581
 2021POPC   D2A27376  22.128  42.905   8.182
 2021POPC   C3A27377  21.858  43.139   7.864
 2021POPC   C4A27378  21.583  43.394   7.552
 2021POPC   C1B27379  22.494  43.127   8.521
 2021POPC   C2B27380  22.366  43.412   8.166
 2021POPC   C3B27381  22.286  43.323   7.719
 2021POPC   C4B27382  22.347  43.070   7.303
 2022POPC   NC327383  29.590   1.373   9.558
 2022POPC   PO427384  30.267   1.402   9.624
 2022POPC   GL127385  29.981   1.304   9.243
 2022POPC   GL227386  29.945   0.925   9.154
 2022POPC   C1A27387  29.876   1.281   8.808
 2022POPC   D2A27388  30.078   1.072   8.483
 2022POPC   C3A27389  29.998   1.162   8.064
 2022POPC   C4A27390  30.074   1.123   7.632
 2022POPC   C1B27391  29.754   0.757   8.739
 2022POPC   C2B27392  29.650   0.819   8.280
 2022POPC   C3B27393  29.768   0.771   7.822
 2022POPC   C4B27394  29.651   1.030   7.393
 2023POPC   NC327395  12.686  44.190   9.444
 2023POPC   PO427396  13.237  43.861   9.489
 2023POPC   GL127397  13.091  43.816   9.108
 2023POPC   GL227398  12.751  43.731   9.198
 2023POPC   C1A27399  12.883  44.020   8.781
 2023POPC   D2A27400  12.829  43.843   8.388
 2023POPC   C3A27401  12.588  44.017   8.126
 2023POPC   C4A27402  12.798  44.150   7.788
 2023POPC   C1B27403  12.745  43.540   8.804
 2023POPC   C2B27404  12.535  43.422   8.463
 2023POPC   C3B27405  12.508  43.504   8.054
 2023POPC   C4B27406  12.785  43.634   7.761
 2024POPC   NC327407  20.816   6.262   9.581
 2024POPC   PO427408  20.674   6.895   9.351
 2024POPC   GL127409  20.603   6.502   9.129
 2024POPC   GL227410  20.912   6.338   9.108
 2024POPC   C1A27411  20.589   6.376   8.676
 2024POPC   D2A27412  20.432   6.633   8.332
 2024POPC   C3A27413  20.617   6.791   7.905
 2024POPC   C4A27414  20.547   6.730   7.421
 2024POPC   C1B27415  21.026   6.624   8.821
 2024POPC   C2B27416  21.099   6.490   8.423
 2024POPC   C3B27417  20.794   6.298   8.149
 2024POPC   C4B27418  20.832   6.371   7.720
 2025POPC   NC327419  40.635  42.789   9.418
 2025POPC   PO427420  41.189  43.230   9.421
 2025POPC   GL127421  40.973  43.283   9.073
 2025POPC   GL227422  41.291  43.346   8.903
 2025POPC   C1A27423  40.874  43.196   8.652
 2025POPC   D2A27424  41.051  43.242   8.242
 2025POPC   C3A27425  40.718  43.253   7.904
 2025POPC   C4A27426  40.547  43.470   7.498
 2025POPC   C1B27427  41.186  42.854   8.848
 2025POPC   C2B27428  40.925  42.709   8.486
 2025POPC   C3B27429  40.860  42.795   8.079
 2025POPC   C4B27430  40.753  42.790   7.663
 2026POPC   NC327431  11.335  11.378   9.429
 2026POPC   PO427432  10.930  10.924   9.752
 2026POPC   GL127433  11.235  10.843   9.199
 2026POPC   GL227434  11.488  11.121   9.024
 2026POPC   C1A27435  11.127  11.044   8.702
 2026POPC   D2A27436  11.347  11.356   8.403
 2026POPC   C3A27437  11.485  11.272   7.992
 2026POPC   C4A27438  11.592  11.168   7.586
 2026POPC   C1B27439  11.213  11.542   8.843
 2026POPC   C2B27440  10.891  11.646   8.511
 2026POPC   C3B27441  11.011  11.565   8.068
 2026POPC   C4B27442  11.118  11.389   7.654
 2027POPC   NC327443  44.010  38.606   9.470
 2027POPC   PO427444  43.409  38.798   9.223
 2027POPC   GL127445  43.695  38.489   9.091
 2027POPC   GL227446  43.995  38.228   9.113
 2027POPC   C1A27447  43.846  38.549   8.697
 2027POPC   D2A27448  43.683  38.618   8.295
 2027POPC   C3A27449  43.955  38.702   7.960
 2027POPC   C4A27450  43.630  38.888   7.766
 2027POPC   C1B27451  43.682  38.089   8.809
 2027POPC   C2B27452  43.826  38.147   8.385
 2027POPC   C3B27453  43.980  38.176   7.955
 2027POPC   C4B27454  43.862  38.253   7.497
 2028POPC   NC327455  25.741  35.053   9.444
 2028POPC   PO427456  25.973  35.692   9.616
 2028POPC   GL127457  25.951  35.445   9.189
 2028POPC   GL227458  26.159  35.113   9.156
 2028POPC   C1A27459  25.726  35.288   8.793
 2028POPC   D2A27460  25.851  35.153   8.415
 2028POPC   C3A27461  25.868  35.351   8.031
 2028POPC   C4A27462  25.978  35.415   7.618
 2028POPC   C1B27463  26.234  35.300   8.750
 2028POPC   C2B27464  26.345  35.175   8.345
 2028POPC   C3B27465  26.361  35.311   7.953
 2028POPC   C4B27466  26.464  35.212   7.564
 2029POPC   NC327467  21.653  33.020   9.641
 2029POPC   PO427468  22.360  32.999   9.511
 2029POPC   GL127469  22.128  32.916   9.156
 2029POPC   GL227470  21.855  32.709   9.211
 2029POPC   C1A27471  22.216  33.068   8.748
 2029POPC   D2A27472  22.187  33.333   8.406
 2029POPC   C3A27473  22.210  33.036   8.047
 2029POPC   C4A27474  22.021  33.076   7.647
 2029POPC   C1B27475  21.726  32.924   8.825
 2029POPC   C2B27476  21.834  32.926   8.392
 2029POPC   C3B27477  21.729  32.801   7.965
 2029POPC   C4B27478  21.803  32.602   7.570
 2030POPC   NC327479   0.892   7.740   9.488
 2030POPC   PO427480   1.490   7.838   9.451
 2030POPC   GL127481   1.401   7.636   9.069
 2030POPC   GL227482   1.049   7.517   9.053
 2030POPC   C1A27483   1.323   7.610   8.618
 2030POPC   D2A27484   1.029   7.609   8.262
 2030POPC   C3A27485   1.259   7.536   7.937
 2030POPC   C4A27486   1.537   7.790   7.820
 2030POPC   C1B27487   0.886   7.325   8.664
 2030POPC   C2B27488   0.687   7.214   8.272
 2030POPC   C3B27489   0.930   7.105   7.894
 2030POPC   C4B27490   1.112   7.334   7.489
 2031POPC   NC327491  37.512  23.533   9.624
 2031POPC   PO427492  37.920  24.033   9.486
 2031POPC   GL127493  37.789  23.700   9.162
 2031POPC   GL227494  37.422  23.701   9.156
 2031POPC   C1A27495  37.657  23.740   8.695
 2031POPC   D2A27496  37.661  23.699   8.251
 2031POPC   C3A27497  37.805  23.991   7.963
 2031POPC   C4A27498  37.988  23.843   7.569
 2031POPC   C1B27499  37.163  23.623   8.818
 2031POPC   C2B27500  37.188  23.814   8.432
 2031POPC   C3B27501  37.219  23.615   8.053
 2031POPC   C4B27502  37.532  23.629   7.721
 2032POPC   NC327503  16.226   8.588   9.438
 2032POPC   PO427504  15.891   7.961   9.581
 2032POPC   GL127505  15.923   8.225   9.160
 2032POPC   GL227506  16.140   7.973   8.941
 2032POPC   C1A27507  15.778   8.220   8.705
 2032POPC   D2A27508  16.110   7.985   8.434
 2032POPC   C3A27509  16.126   8.139   8.029
 2032POPC   C4A27510  15.850   8.418   7.813
 2032POPC   C1B27511  16.232   8.426   8.714
 2032POPC   C2B27512  16.210   8.693   8.316
 2032POPC   C3B27513  16.304   8.613   7.896
 2032POPC   C4B27514  16.321   8.294   7.552
 2033POPC   NC327515  29.963  29.554   9.543
 2033POPC   PO427516  29.992  28.914   9.402
 2033POPC   GL127517  30.039  29.296   9.107
 2033POPC   GL227518  29.678  29.445   9.119
 2033POPC   C1A27519  30.211  29.436   8.685
 2033POPC   D2A27520  30.049  29.415   8.215
 2033POPC   C3A27521  30.150  29.038   7.929
 2033POPC   C4A27522  29.910  28.791   7.582
 2033POPC   C1B27523  29.606  29.228   8.712
 2033POPC   C2B27524  29.523  29.102   8.277
 2033POPC   C3B27525  29.664  29.166   7.874
 2033POPC   C4B27526  29.829  29.539   7.717
 2034POPC   NC327527  22.458  34.772   9.473
 2034POPC   PO427528  23.178  34.455   9.380
 2034POPC   GL127529  23.092  34.588   9.006
 2034POPC   GL227530  22.899  34.845   9.207
 2034POPC   C1A27531  22.797  34.318   8.752
 2034POPC   D2A27532  22.841  34.158   8.307
 2034POPC   C3A27533  22.898  34.478   8.000
 2034POPC   C4A27534  23.242  34.688   7.781
 2034POPC   C1B27535  22.678  34.835   8.824
 2034POPC   C2B27536  22.936  34.735   8.474
 2034POPC   C3B27537  22.978  34.961   8.118
 2034POPC   C4B27538  22.824  34.958   7.704
 2035POPC   NC327539  34.213  36.046   9.425
 2035POPC   PO427540  33.504  35.906   9.484
 2035POPC   GL127541  33.629  36.134   9.090
 2035POPC   GL227542  33.964  36.023   8.995
 2035POPC   C1A27543  33.584  36.264   8.649
 2035POPC   D2A27544  33.442  36.209   8.211
 2035POPC   C3A27545  33.819  36.208   7.945
 2035POPC   C4A27546  34.056  35.863   7.764
 2035POPC   C1B27547  34.016  36.437   8.829
 2035POPC   C2B27548  33.981  36.532   8.388
 2035POPC   C3B27549  34.175  36.610   7.987
 2035POPC   C4B27550  34.203  36.336   7.614
 2036POPC   NC327551  39.171  17.805   9.567
 2036POPC   PO427552  38.822  17.147   9.362
 2036POPC   GL127553  39.124  17.466   9.193
 2036POPC   GL227554  39.505  17.541   9.278
 2036POPC   C1A27555  39.029  17.552   8.775
 2036POPC   D2A27556  39.109  17.342   8.401
 2036POPC   C3A27557  39.182  17.594   8.049
 2036POPC   C4A27558  38.941  17.699   7.695
 2036POPC   C1B27559  39.453  17.812   8.897
 2036POPC   C2B27560  39.370  17.887   8.435
 2036POPC   C3B27561  39.432  18.065   8.012
 2036POPC   C4B27562  39.455  17.794   7.646
 2037POPC   NC327563  37.774  16.461   9.513
 2037POPC   PO427564  37.690  15.774   9.476
 2037POPC   GL127565  37.438  15.900   9.165
 2037POPC   GL227566  37.364  16.238   9.233
 2037POPC   C1A27567  37.358  15.805   8.747
 2037POPC   D2A27568  37.610  15.624   8.426
 2037POPC   C3A27569  37.636  15.900   8.077
 2037POPC   C4A27570  38.019  15.915   7.888
 2037POPC   C1B27571  37.565  16.292   8.832
 2037POPC   C2B27572  37.864  16.112   8.523
 2037POPC   C3B27573  37.988  16.350   8.159
 2037POPC   C4B27574  37.734  16.370   7.800
 2038POPC   NC327575  20.012   7.686   9.498
 2038POPC   PO427576  19.712   7.169   9.342
 2038POPC   GL127577  19.816   7.464   9.053
 2038POPC   GL227578  19.913   7.164   8.869
 2038POPC   C1A27579  19.964   7.619   8.654
 2038POPC   D2A27580  19.882   7.377   8.298
 2038POPC   C3A27581  19.725   7.567   7.906
 2038POPC   C4A27582  19.746   7.615   7.423
 2038POPC   C1B27583  19.518   6.949   8.753
 2038POPC   C2B27584  19.420   6.799   8.348
 2038POPC   C3B27585  19.649   7.004   8.009
 2038POPC   C4B27586  19.620   7.142   7.603
 2039POPC   NC327587  10.893   5.539   9.164
 2039POPC   PO427588  10.411   5.242   9.576
 2039POPC   GL127589  10.441   5.071   9.153
 2039POPC   GL227590  10.093   5.119   9.080
 2039POPC   C1A27591  10.712   5.105   8.748
 2039POPC   D2A27592  10.947   5.101   8.380
 2039POPC   C3A27593  10.779   4.973   7.987
 2039POPC   C4A27594  10.646   5.321   7.753
 2039POPC   C1B27595  10.222   4.968   8.672
 2039POPC   C2B27596  10.424   5.154   8.306
 2039POPC   C3B27597  10.275   5.028   7.906
 2039POPC   C4B27598  10.108   4.685   7.671
 2040POPC   NC327599  39.802  35.542   9.364
 2040POPC   PO427600  40.411  35.237   9.425
 2040POPC   GL127601  40.221  35.423   9.091
 2040POPC   GL227602  40.334  35.128   8.897
 2040POPC   C1A27603  39.986  35.455   8.689
 2040POPC   D2A27604  40.011  35.194   8.317
 2040POPC   C3A27605  40.092  35.435   7.944
 2040POPC   C4A27606  40.049  35.630   7.514
 2040POPC   C1B27607  39.943  34.895   8.776
 2040POPC   C2B27608  39.634  34.842   8.407
 2040POPC   C3B27609  39.758  34.869   7.957
 2040POPC   C4B27610  39.984  35.085   7.608
 2041POPC   NC327611  35.305  24.900   9.297
 2041POPC   PO427612  35.259  25.569   9.393
 2041POPC   GL127613  35.276  25.353   9.030
 2041POPC   GL227614  35.630  25.272   9.125
 2041POPC   C1A27615  35.092  25.167   8.636
 2041POPC   D2A27616  35.173  24.929   8.253
 2041POPC   C3A27617  35.143  25.169   7.877
 2041POPC   C4A27618  35.427  25.063   7.498
 2041POPC   C1B27619  35.646  25.347   8.690
 2041POPC   C2B27620  35.452  25.351   8.319
 2041POPC   C3B27621  35.616  25.296   7.951
 2041POPC   C4B27622  35.443  25.545   7.652
 2042POPC   NC327623  11.886  26.649   9.521
 2042POPC   PO427624  11.556  27.112   9.138
 2042POPC   GL127625  11.991  27.031   8.977
 2042POPC   GL227626  12.156  26.731   9.081
 2042POPC   C1A27627  12.025  26.884   8.579
 2042POPC   D2A27628  11.848  26.628   8.287
 2042POPC   C3A27629  11.982  26.892   7.986
 2042POPC   C4A27630  12.038  26.869   7.565
 2042POPC   C1B27631  12.463  26.703   8.714
 2042POPC   C2B27632  12.377  26.621   8.264
 2042POPC   C3B27633  12.494  26.782   7.865
 2042POPC   C4B27634  12.457  26.632   7.438
 2043POPC   NC327635   8.962  15.987   9.508
 2043POPC   PO427636   8.643  15.411   9.333
 2043POPC   GL127637   8.782  15.694   9.020
 2043POPC   GL227638   9.068  15.831   9.048
 2043POPC   C1A27639   8.951  15.781   8.580
 2043POPC   D2A27640   9.003  16.030   8.231
 2043POPC   C3A27641   8.984  15.798   7.841
 2043POPC   C4A27642   8.892  15.722   7.413
 2043POPC   C1B27643   9.261  16.161   8.736
 2043POPC   C2B27644   9.480  16.167   8.298
 2043POPC   C3B27645   9.357  16.179   7.838
 2043POPC   C4B27646   9.199  16.153   7.366
 2044POPC   NC327647  43.155  41.638   9.885
 2044POPC   PO427648  42.690  41.286   9.454
 2044POPC   GL127649  43.047  41.340   9.182
 2044POPC   GL227650  43.199  41.648   9.192
 2044POPC   C1A27651  43.289  41.229   8.831
 2044POPC   D2A27652  43.254  41.435   8.449
 2044POPC   C3A27653  43.353  41.285   8.016
 2044POPC   C4A27654  43.448  41.585   7.676
 2044POPC   C1B27655  43.041  41.745   8.810
 2044POPC   C2B27656  42.852  41.780   8.411
 2044POPC   C3B27657  43.160  41.795   8.088
 2044POPC   C4B27658  43.324  42.100   7.807
 2045POPC   NC327659   0.833  11.781   9.458
 2045POPC   PO427660   1.467  12.217   9.471
 2045POPC   GL127661   1.187  12.046   9.190
 2045POPC   GL227662   1.258  11.746   9.042
 2045POPC   C1A27663   0.987  12.155   8.824
 2045POPC   D2A27664   1.163  12.326   8.451
 2045POPC   C3A27665   0.959  12.256   8.065
 2045POPC   C4A27666   1.051  12.372   7.642
 2045POPC   C1B27667   1.406  11.888   8.642
 2045POPC   C2B27668   1.307  11.867   8.195
 2045POPC   C3B27669   1.308  11.888   7.752
 2045POPC   C4B27670   1.570  11.783   7.352
 2046POPC   NC327671  44.092  17.087   9.440
 2046POPC   PO427672  43.918  17.692   9.533
 2046POPC   GL127673  43.839  17.421   9.163
 2046POPC   GL227674  43.941  17.645   8.914
 2046POPC   C1A27675  43.983  17.200   8.745
 2046POPC   D2A27676  43.950  17.491   8.380
 2046POPC   C3A27677  43.961  17.374   7.955
 2046POPC   C4A27678  44.023  17.502   7.541
 2046POPC   C1B27679  44.036  17.932   8.629
 2046POPC   C2B27680  44.314  17.910   8.284
 2046POPC   C3B27681  44.163  17.936   7.891
 2046POPC   C4B27682  44.275  17.922   7.487
 2047POPC   NC327683  39.575  39.225   9.732
 2047POPC   PO427684  38.949  39.132   9.503
 2047POPC   GL127685  39.023  39.351   9.154
 2047POPC   GL227686  39.401  39.245   9.179
 2047POPC   C1A27687  39.177  39.384   8.747
 2047POPC   D2A27688  39.377  39.300   8.348
 2047POPC   C3A27689  39.041  39.282   8.037
 2047POPC   C4A27690  38.902  39.547   7.728
 2047POPC   C1B27691  39.536  39.013   8.772
 2047POPC   C2B27692  39.585  38.843   8.316
 2047POPC   C3B27693  39.460  38.948   7.877
 2047POPC   C4B27694  39.523  38.835   7.393
 2048POPC   NC327695  30.341  34.604   9.435
 2048POPC   PO427696  31.001  34.940   9.505
 2048POPC   GL127697  30.776  34.688   9.175
 2048POPC   GL227698  30.793  34.319   9.117
 2048POPC   C1A27699  30.561  34.652   8.772
 2048POPC   D2A27700  30.680  34.723   8.376
 2048POPC   C3A27701  30.505  34.522   8.015
 2048POPC   C4A27702  30.541  34.799   7.675
 2048POPC   C1B27703  31.051  34.513   8.783
 2048POPC   C2B27704  31.193  34.575   8.386
 2048POPC   C3B27705  31.038  34.645   7.980
 2048POPC   C4B27706  30.856  34.352   7.693
 2049POPC   NC327707  28.649  30.140   9.668
 2049POPC   PO427708  28.088  29.946   9.550
 2049POPC   GL127709  28.247  29.698   9.246
 2049POPC   GL227710  28.608  29.675   9.240
 2049POPC   C1A27711  28.337  29.752   8.794
 2049POPC   D2A27712  28.499  29.934   8.388
 2049POPC   C3A27713  28.259  29.763   8.078
 2049POPC   C4A27714  28.192  29.976   7.710
 2049POPC   C1B27715  28.741  29.464   8.851
 2049POPC   C2B27716  28.575  29.436   8.434
 2049POPC   C3B27717  28.759  29.539   8.043
 2049POPC   C4B27718  28.519  29.585   7.674
 2050POPC   NC327719   5.228   8.430  10.092
 2050POPC   PO427720   5.380   8.278   9.467
 2050POPC   GL127721   5.163   8.179   9.074
 2050POPC   GL227722   4.805   8.275   9.134
 2050POPC   C1A27723   5.047   7.957   8.697
 2050POPC   D2A27724   5.208   8.074   8.315
 2050POPC   C3A27725   4.998   8.029   7.929
 2050POPC   C4A27726   5.272   7.761   7.726
 2050POPC   C1B27727   4.918   8.435   8.724
 2050POPC   C2B27728   4.846   8.439   8.286
 2050POPC   C3B27729   5.021   8.535   7.862
 2050POPC   C4B27730   4.902   8.324   7.476
 2051POPC   NC327731  35.583   5.760   9.486
 2051POPC   PO427732  35.006   6.049   9.686
 2051POPC   GL127733  35.168   5.872   9.239
 2051POPC   GL227734  35.281   6.095   8.956
 2051POPC   C1A27735  35.304   5.606   8.852
 2051POPC   D2A27736  35.023   5.735   8.525
 2051POPC   C3A27737  35.131   5.846   8.110
 2051POPC   C4A27738  34.974   5.978   7.693
 2051POPC   C1B27739  35.616   5.961   8.651
 2051POPC   C2B27740  35.637   5.635   8.379
 2051POPC   C3B27741  35.661   5.833   8.013
 2051POPC   C4B27742  35.463   6.072   7.698
 2052POPC   NC327743  24.348  41.379   9.896
 2052POPC   PO427744  24.713  41.756   9.471
 2052POPC   GL127745  24.498  41.589   9.140
 2052POPC   GL227746  24.340  41.307   9.309
 2052POPC   C1A27747  24.644  41.611   8.708
 2052POPC   D2A27748  24.947  41.662   8.354
 2052POPC   C3A27749  24.677  41.614   8.001
 2052POPC   C4A27750  24.709  41.381   7.641
 2052POPC   C1B27751  24.328  41.212   8.845
 2052POPC   C2B27752  24.295  41.342   8.375
 2052POPC   C3B27753  24.313  41.196   7.930
 2052POPC   C4B27754  24.274  41.204   7.452
 2053POPC   NC327755  20.537  24.732   9.443
 2053POPC   PO427756  21.153  24.895   9.374
 2053POPC   GL127757  20.910  24.607   9.091
 2053POPC   GL227758  20.645  24.316   9.168
 2053POPC   C1A27759  20.947  24.355   8.735
 2053POPC   D2A27760  21.031  24.043   8.386
 2053POPC   C3A27761  20.920  24.256   8.003
 2053POPC   C4A27762  20.786  24.698   7.997
 2053POPC   C1B27763  20.425  24.409   8.791
 2053POPC   C2B27764  20.577  24.398   8.376
 2053POPC   C3B27765  20.410  24.211   8.027
 2053POPC   C4B27766  20.546  24.356   7.655
 2054POPC   NC327767  40.453   9.000   9.379
 2054POPC   PO427768  41.066   8.692   9.343
 2054POPC   GL127769  41.125   9.087   9.106
 2054POPC   GL227770  40.788   9.190   9.046
 2054POPC   C1A27771  41.289   9.213   8.695
 2054POPC   D2A27772  41.331   9.019   8.289
 2054POPC   C3A27773  41.155   9.163   7.916
 2054POPC   C4A27774  40.752   9.311   7.810
 2054POPC   C1B27775  40.867   8.922   8.700
 2054POPC   C2B27776  40.952   8.691   8.339
 2054POPC   C3B27777  40.891   8.730   7.912
 2054POPC   C4B27778  40.578   8.565   7.646
 2055POPC   NC327779  10.084   6.438   9.698
 2055POPC   PO427780  10.631   6.805   9.430
 2055POPC   GL127781  10.872   6.662   9.120
 2055POPC   GL227782  10.825   6.319   8.977
 2055POPC   C1A27783  10.686   6.783   8.728
 2055POPC   D2A27784  10.395   6.737   8.380
 2055POPC   C3A27785  10.584   6.740   7.992
 2055POPC   C4A27786  10.442   7.023   7.701
 2055POPC   C1B27787  10.476   6.320   8.648
 2055POPC   C2B27788  10.386   6.158   8.232
 2055POPC   C3B27789  10.407   6.274   7.796
 2055POPC   C4B27790  10.711   6.508   7.547
 2056POPC   NC327791   2.676   4.475   9.517
 2056POPC   PO427792   2.382   3.913   9.229
 2056POPC   GL127793   2.686   4.207   9.065
 2056POPC   GL227794   2.631   4.593   9.028
 2056POPC   C1A27795   2.723   4.162   8.632
 2056POPC   D2A27796   2.537   3.875   8.356
 2056POPC   C3A27797   2.636   4.104   7.991
 2056POPC   C4A27798   2.557   4.126   7.573
 2056POPC   C1B27799   3.014   4.539   8.813
 2056POPC   C2B27800   3.113   4.749   8.435
 2056POPC   C3B27801   2.930   4.771   8.014
 2056POPC   C4B27802   2.970   4.427   7.708
 2057POPC   NC327803  22.457  36.580   9.473
 2057POPC   PO427804  21.915  36.926   9.433
 2057POPC   GL127805  22.096  36.968   9.049
 2057POPC   GL227806  22.345  36.791   9.048
 2057POPC   C1A27807  21.959  36.974   8.637
 2057POPC   D2A27808  22.024  37.245   8.295
 2057POPC   C3A27809  22.143  37.008   7.925
 2057POPC   C4A27810  22.335  37.067   7.524
 2057POPC   C1B27811  22.252  36.549   8.725
 2057POPC   C2B27812  22.252  36.674   8.325
 2057POPC   C3B27813  22.554  36.616   8.043
 2057POPC   C4B27814  22.344  36.574   7.681
 2058POPC   NC327815   8.002  35.696   9.389
 2058POPC   PO427816   8.468  35.276   9.351
 2058POPC   GL127817   8.200  35.377   9.041
 2058POPC   GL227818   7.890  35.181   9.144
 2058POPC   C1A27819   8.334  35.669   8.733
 2058POPC   D2A27820   8.547  35.618   8.347
 2058POPC   C3A27821   8.284  35.607   7.995
 2058POPC   C4A27822   8.206  35.191   7.845
 2058POPC   C1B27823   7.997  35.051   8.710
 2058POPC   C2B27824   8.037  35.368   8.385
 2058POPC   C3B27825   7.787  35.458   8.029
 2058POPC   C4B27826   7.706  35.095   7.792
 2059POPC   NC327827  16.442  29.336   9.466
 2059POPC   PO427828  17.082  29.425   9.468
 2059POPC   GL127829  16.799  29.292   9.095
 2059POPC   GL227830  16.545  28.995   9.092
 2059POPC   C1A27831  16.684  29.243   8.664
 2059POPC   D2A27832  16.861  28.994   8.344
 2059POPC   C3A27833  16.769  29.128   7.954
 2059POPC   C4A27834  16.597  29.141   7.553
 2059POPC   C1B27835  16.898  28.796   8.831
 2059POPC   C2B27836  17.090  28.559   8.462
 2059POPC   C3B27837  17.032  28.625   7.987
 2059POPC   C4B27838  16.999  28.844   7.569
 2060POPC   NC327839  35.347   6.316   9.440
 2060POPC   PO427840  35.289   6.986   9.489
 2060POPC   GL127841  35.262   6.808   9.147
 2060POPC   GL227842  35.598   6.698   9.121
 2060POPC   C1A27843  35.049   6.931   8.772
 2060POPC   D2A27844  35.020   6.717   8.388
 2060POPC   C3A27845  35.320   6.801   8.105
 2060POPC   C4A27846  35.271   7.012   7.730
 2060POPC   C1B27847  35.394   6.540   8.741
 2060POPC   C2B27848  35.303   6.270   8.400
 2060POPC   C3B27849  35.121   6.348   8.010
 2060POPC   C4B27850  35.257   6.522   7.669
 2061POPC   NC327851  14.990  18.235   9.503
 2061POPC   PO427852  15.547  18.693   9.556
 2061POPC   GL127853  15.395  18.391   9.177
 2061POPC   GL227854  15.185  18.541   8.951
 2061POPC   C1A27855  15.413  18.145   8.742
 2061POPC   D2A27856  15.529  18.149   8.293
 2061POPC   C3A27857  15.275  18.298   7.917
 2061POPC   C4A27858  15.306  18.588   7.544
 2061POPC   C1B27859  14.936  18.376   8.643
 2061POPC   C2B27860  14.986  18.140   8.316
 2061POPC   C3B27861  14.811  18.054   7.932
 2061POPC   C4B27862  14.932  18.164   7.542
 2062POPC   NC327863   5.831  11.810   9.758
 2062POPC   PO427864   5.800  11.208   9.527
 2062POPC   GL127865   5.722  11.500   9.217
 2062POPC   GL227866   6.011  11.620   9.086
 2062POPC   C1A27867   5.605  11.450   8.782
 2062POPC   D2A27868   5.725  11.250   8.376
 2062POPC   C3A27869   5.794  11.484   8.002
 2062POPC   C4A27870   5.748  11.161   7.709
 2062POPC   C1B27871   6.086  11.287   8.789
 2062POPC   C2B27872   6.262  11.326   8.389
 2062POPC   C3B27873   6.170  11.138   8.027
 2062POPC   C4B27874   6.233  11.251   7.642
 2063POPC   NC327875   3.762  33.172   9.387
 2063POPC   PO427876   3.184  32.899   9.624
 2063POPC   GL127877   3.266  33.104   9.230
 2063POPC   GL227878   3.381  32.795   9.118
 2063POPC   C1A27879   3.221  33.113   8.771
 2063POPC   D2A27880   3.055  32.947   8.368
 2063POPC   C3A27881   3.230  33.155   8.004
 2063POPC   C4A27882   3.690  33.230   7.917
 2063POPC   C1B27883   3.540  32.721   8.661
 2063POPC   C2B27884   3.555  32.804   8.197
 2063POPC   C3B27885   3.436  32.733   7.755
 2063POPC   C4B27886   3.306  32.747   7.250
 2064POPC   NC327887  19.341  37.412   9.568
 2064POPC   PO427888  18.720  37.716   9.568
 2064POPC   GL127889  18.931  37.492   9.208
 2064POPC   GL227890  19.311  37.601   9.106
 2064POPC   C1A27891  18.955  37.490   8.755
 2064POPC   D2A27892  19.269  37.539   8.411
 2064POPC   C3A27893  19.078  37.490   8.006
 2064POPC   C4A27894  18.683  37.423   7.774
 2064POPC   C1B27895  19.098  37.967   8.962
 2064POPC   C2B27896  18.993  37.980   8.536
 2064POPC   C3B27897  19.194  37.993   8.147
 2064POPC   C4B27898  19.111  38.086   7.740
 2065POPC   NC327899  15.455  17.566   9.743
 2065POPC   PO427900  15.686  17.024   9.501
 2065POPC   GL127901  15.863  17.396   9.206
 2065POPC   GL227902  16.174  17.599   9.283
 2065POPC   C1A27903  15.748  17.543   8.747
 2065POPC   D2A27904  15.693  17.422   8.307
 2065POPC   C3A27905  15.647  17.749   8.011
 2065POPC   C4A27906  15.700  17.807   7.557
 2065POPC   C1B27907  16.238  17.446   8.855
 2065POPC   C2B27908  16.176  17.614   8.451
 2065POPC   C3B27909  16.131  17.495   8.044
 2065POPC   C4B27910  16.485  17.325   7.847
 2066POPC   NC327911  36.256   0.757   9.440
 2066POPC   PO427912  36.371   0.141   9.746
 2066POPC   GL127913  36.226   0.250   9.280
 2066POPC   GL227914  36.453   0.457   9.085
 2066POPC   C1A27915  36.061   0.234   8.831
 2066POPC   D2A27916  36.221   0.278   8.407
 2066POPC   C3A27917  36.030   0.168   8.002
 2066POPC   C4A27918  36.082   0.217   7.560
 2066POPC   C1B27919  36.298   0.680   8.708
 2066POPC   C2B27920  36.139   0.801   8.284
 2066POPC   C3B27921  36.190   0.648   7.888
 2066POPC   C4B27922  36.533   0.541   7.651
 2067POPC   NC327923   3.713  11.185   9.879
 2067POPC   PO427924   3.808  11.628   9.346
 2067POPC   GL127925   3.760  11.444   8.970
 2067POPC   GL227926   3.750  11.070   9.010
 2067POPC   C1A27927   3.793  11.333   8.548
 2067POPC   D2A27928   3.622  11.076   8.260
 2067POPC   C3A27929   3.481  11.338   7.985
 2067POPC   C4A27930   3.633  11.404   7.604
 2067POPC   C1B27931   3.362  11.130   8.731
 2067POPC   C2B27932   3.160  10.900   8.392
 2067POPC   C3B27933   3.075  11.033   7.973
 2067POPC   C4B27934   3.279  11.026   7.574
 2068POPC   NC327935  26.273  27.739   9.384
 2068POPC   PO427936  25.733  27.157   9.427
 2068POPC   GL127937  25.963  27.323   9.059
 2068POPC   GL227938  26.328  27.389   9.011
 2068POPC   C1A27939  25.955  27.265   8.606
 2068POPC   D2A27940  26.024  27.242   8.163
 2068POPC   C3A27941  25.939  27.573   7.854
 2068POPC   C4A27942  25.976  27.458   7.408
 2068POPC   C1B27943  26.172  27.726   8.742
 2068POPC   C2B27944  26.169  27.717   8.322
 2068POPC   C3B27945  26.427  27.608   7.998
 2068POPC   C4B27946  26.389  27.738   7.568
 2069POPC   NC327947  17.935  11.420   9.553
 2069POPC   PO427948  18.168  10.718   9.441
 2069POPC   GL127949  18.127  11.094   9.200
 2069POPC   GL227950  18.412  11.363   9.092
 2069POPC   C1A27951  18.007  11.218   8.806
 2069POPC   D2A27952  18.155  11.082   8.417
 2069POPC   C3A27953  18.042  11.210   8.000
 2069POPC   C4A27954  18.354  11.046   7.742
 2069POPC   C1B27955  18.303  11.639   8.698
 2069POPC   C2B27956  18.269  11.612   8.203
 2069POPC   C3B27957  18.372  11.575   7.700
 2069POPC   C4B27958  18.586  11.746   7.267
 2070POPC   NC327959  10.457  42.427   9.634
 2070POPC   PO427960  10.906  42.884   9.472
 2070POPC   GL127961  10.616  42.641   9.170
 2070POPC   GL227962  10.623  42.272   9.150
 2070POPC   C1A27963  10.398  42.545   8.774
 2070POPC   D2A27964  10.354  42.723   8.365
 2070POPC   C3A27965  10.267  42.540   7.965
 2070POPC   C4A27966  10.594  42.626   7.695
 2070POPC   C1B27967  10.760  42.126   8.724
 2070POPC   C2B27968  10.803  42.290   8.277
 2070POPC   C3B27969  10.665  42.148   7.843
 2070POPC   C4B27970  10.649  42.038   7.368
 2071POPC   NC327971  43.678   5.414   9.789
 2071POPC   PO427972  44.047   5.903   9.403
 2071POPC   GL127973  43.903   6.071   9.032
 2071POPC   GL227974  43.747   5.783   8.824
 2071POPC   C1A27975  44.028   6.155   8.609
 2071POPC   D2A27976  43.946   5.806   8.346
 2071POPC   C3A27977  43.781   5.935   7.986
 2071POPC   C4A27978  43.957   6.202   7.683
 2071POPC   C1B27979  43.947   5.388   8.637
 2071POPC   C2B27980  44.182   5.270   8.254
 2071POPC   C3B27981  44.065   5.335   7.824
 2071POPC   C4B27982  44.066   5.715   7.583
 2072POPC   NC327983   9.922  24.051   9.438
 2072POPC   PO427984   9.840  24.771   9.394
 2072POPC   GL127985   9.783  24.409   9.101
 2072POPC   GL227986   9.454  24.343   8.947
 2072POPC   C1A27987   9.901  24.288   8.702
 2072POPC   D2A27988   9.727  24.477   8.335
 2072POPC   C3A27989   9.845  24.300   7.946
 2072POPC   C4A27990  10.059  24.674   7.907
 2072POPC   C1B27991   9.339  24.695   8.676
 2072POPC   C2B27992   9.255  24.805   8.238
 2072POPC   C3B27993   9.484  24.673   7.901
 2072POPC   C4B27994   9.442  24.321   7.603
 2073POPC   NC327995  16.766  37.101   9.418
 2073POPC   PO427996  16.820  37.724   9.520
 2073POPC   GL127997  16.847  37.847   9.115
 2073POPC   GL227998  17.181  37.885   9.032
 2073POPC   C1A27999  16.730  37.646   8.736
 2073POPC   D2A28000  16.936  37.563   8.346
 2073POPC   C3A28001  16.755  37.709   7.975
 2073POPC   C4A28002  16.390  37.948   7.858
 2073POPC   C1B28003  17.085  37.999   8.623
 2073POPC   C2B28004  16.717  38.061   8.385
 2073POPC   C3B28005  16.781  38.240   8.006
 2073POPC   C4B28006  17.031  38.071   7.731
 2074POPC   NC328007  10.984  35.698   9.453
 2074POPC   PO428008  11.513  35.328   9.548
 2074POPC   GL128009  11.210  35.263   9.194
 2074POPC   GL228010  11.112  35.568   8.993
 2074POPC   C1A28011  11.115  35.120   8.769
 2074POPC   D2A28012  11.400  35.370   8.522
 2074POPC   C3A28013  11.552  35.297   8.100
 2074POPC   C4A28014  11.742  35.614   7.802
 2074POPC   C1B28015  10.800  35.554   8.669
 2074POPC   C2B28016  10.939  35.388   8.299
 2074POPC   C3B28017  11.119  35.536   7.956
 2074POPC   C4B28018  10.932  35.564   7.598
 2075POPC   NC328019  43.549  24.064   9.486
 2075POPC   PO428020  44.045  23.627   9.790
 2075POPC   GL128021  44.030  23.811   9.314
 2075POPC   GL228022  44.344  23.967   9.167
 2075POPC   C1A28023  43.941  23.709   8.843
 2075POPC   D2A28024  43.800  23.382   8.515
 2075POPC   C3A28025  43.642  23.471   8.066
 2075POPC   C4A28026  43.649  23.839   7.750
 2075POPC   C1B28027  44.325  24.003   8.699
 2075POPC   C2B28028  44.010  23.850   8.350
 2075POPC   C3B28029  44.110  23.648   7.955
 2075POPC   C4B28030  44.169  23.823   7.546
 2076POPC   NC328031   2.086  29.200   9.587
 2076POPC   PO428032   2.375  28.775   9.181
 2076POPC   GL128033   2.231  29.177   9.053
 2076POPC   GL228034   1.873  29.190   9.131
 2076POPC   C1A28035   2.293  29.249   8.606
 2076POPC   D2A28036   2.167  28.946   8.275
 2076POPC   C3A28037   2.354  28.972   7.873
 2076POPC   C4A28038   2.240  29.236   7.546
 2076POPC   C1B28039   1.840  29.448   8.785
 2076POPC   C2B28040   1.823  29.338   8.350
 2076POPC   C3B28041   1.898  29.319   7.906
 2076POPC   C4B28042   1.800  29.447   7.463
 2077POPC   NC328043   8.909   1.993   9.349
 2077POPC   PO428044   9.310   1.465   9.544
 2077POPC   GL128045   9.161   1.578   9.069
 2077POPC   GL228046   9.212   1.914   8.961
 2077POPC   C1A28047   8.853   1.678   8.670
 2077POPC   D2A28048   8.800   1.552   8.223
 2077POPC   C3A28049   9.151   1.628   7.921
 2077POPC   C4A28050   8.958   1.750   7.510
 2077POPC   C1B28051   9.030   2.161   8.650
 2077POPC   C2B28052   8.849   2.057   8.280
 2077POPC   C3B28053   9.056   2.119   7.896
 2077POPC   C4B28054   9.069   2.442   7.631
 2078POPC   NC328055  29.539   8.067   9.516
 2078POPC   PO428056  28.883   8.290   9.467
 2078POPC   GL128057  29.246   8.374   9.222
 2078POPC   GL228058  29.286   8.054   9.062
 2078POPC   C1A28059  29.381   8.492   8.811
 2078POPC   D2A28060  29.199   8.324   8.445
 2078POPC   C3A28061  29.229   8.483   8.013
 2078POPC   C4A28062  29.049   8.367   7.595
 2078POPC   C1B28063  29.267   7.841   8.664
 2078POPC   C2B28064  29.396   7.911   8.238
 2078POPC   C3B28065  29.336   8.021   7.823
 2078POPC   C4B28066  29.401   8.065   7.371
 2079POPC   NC328067  19.875  41.630   9.566
 2079POPC   PO428068  19.343  41.831   9.232
 2079POPC   GL128069  19.748  41.716   9.052
 2079POPC   GL228070  19.901  41.430   9.094
 2079POPC   C1A28071  20.140  41.795   8.792
 2079POPC   D2A28072  20.202  41.744   8.345
 2079POPC   C3A28073  19.834  41.762   8.081
 2079POPC   C4A28074  19.836  41.997   7.732
 2079POPC   C1B28075  19.819  41.428   8.636
 2079POPC   C2B28076  19.869  41.282   8.243
 2079POPC   C3B28077  20.071  41.364   7.864
 2079POPC   C4B28078  20.021  41.250   7.412
 2080POPC   NC328079  39.647  42.698   9.384
 2080POPC   PO428080  39.705  42.023   9.367
 2080POPC   GL128081  39.959  42.388   9.134
 2080POPC   GL228082  40.292  42.595   9.038
 2080POPC   C1A28083  39.941  42.403   8.721
 2080POPC   D2A28084  40.143  42.234   8.341
 2080POPC   C3A28085  39.900  42.095   8.026
 2080POPC   C4A28086  39.953  42.212   7.621
 2080POPC   C1B28087  40.421  42.592   8.633
 2080POPC   C2B28088  40.084  42.733   8.379
 2080POPC   C3B28089  39.904  42.618   7.982
 2080POPC   C4B28090  39.963  42.697   7.548
 2081POPC   NC328091  18.373   2.388   9.459
 2081POPC   PO428092  17.913   1.847   9.433
 2081POPC   GL128093  18.077   2.115   9.113
 2081POPC   GL228094  18.428   2.069   9.067
 2081POPC   C1A28095  18.081   1.986   8.680
 2081POPC   D2A28096  17.953   1.796   8.299
 2081POPC   C3A28097  17.993   2.123   7.995
 2081POPC   C4A28098  18.185   2.104   7.565
 2081POPC   C1B28099  18.529   2.215   8.650
 2081POPC   C2B28100  18.553   2.002   8.244
 2081POPC   C3B28101  18.365   1.765   7.903
 2081POPC   C4B28102  18.507   1.724   7.466
 2082POPC   NC328103  22.867  25.110   9.472
 2082POPC   PO428104  23.166  25.727   9.646
 2082POPC   GL128105  23.034  25.550   9.241
 2082POPC   GL228106  23.169  25.204   9.068
 2082POPC   C1A28107  22.990  25.597   8.801
 2082POPC   D2A28108  22.887  25.298   8.470
 2082POPC   C3A28109  23.052  25.354   8.057
 2082POPC   C4A28110  23.088  25.381   7.604
 2082POPC   C1B28111  23.080  24.876   8.710
 2082POPC   C2B28112  23.114  24.857   8.221
 2082POPC   C3B28113  22.973  24.926   7.760
 2082POPC   C4B28114  22.732  25.094   7.355
 2083POPC   NC328115  22.470  38.053   9.516
 2083POPC   PO428116  21.935  37.641   9.522
 2083POPC   GL128117  22.192  37.746   9.163
 2083POPC   GL228118  22.308  37.419   9.195
 2083POPC   C1A28119  22.138  37.939   8.727
 2083POPC   D2A28120  21.989  37.923   8.297
 2083POPC   C3A28121  22.278  37.953   7.994
 2083POPC   C4A28122  22.255  37.827   7.590
 2083POPC   C1B28123  22.275  37.397   8.753
 2083POPC   C2B28124  22.401  37.602   8.381
 2083POPC   C3B28125  22.381  37.460   7.956
 2083POPC   C4B28126  22.639  37.505   7.615
 2084POPC   NC328127   9.522  14.269   9.421
 2084POPC   PO428128  10.107  13.958   9.580
 2084POPC   GL128129   9.956  14.229   9.178
 2084POPC   GL228130  10.015  14.590   9.076
 2084POPC   C1A28131   9.709  14.383   8.747
 2084POPC   D2A28132   9.656  14.186   8.331
 2084POPC   C3A28133   9.838  14.263   7.955
 2084POPC   C4A28134   9.522  14.442   7.746
 2084POPC   C1B28135  10.056  14.770   8.676
 2084POPC   C2B28136   9.775  14.713   8.319
 2084POPC   C3B28137   9.839  14.796   7.912
 2084POPC   C4B28138   9.918  14.691   7.493
 2085POPC   NC328139   8.521  34.081   9.724
 2085POPC   PO428140   8.744  33.484   9.473
 2085POPC   GL128141   8.854  33.605   9.094
 2085POPC   GL228142   9.081  33.888   9.052
 2085POPC   C1A28143   9.034  33.402   8.769
 2085POPC   D2A28144   8.835  33.459   8.419
 2085POPC   C3A28145   9.012  33.685   8.117
 2085POPC   C4A28146   8.896  33.572   7.678
 2085POPC   C1B28147   8.883  33.911   8.654
 2085POPC   C2B28148   8.552  33.937   8.366
 2085POPC   C3B28149   8.697  34.029   7.964
 2085POPC   C4B28150   8.749  34.054   7.527
 2086POPC   NC328151  27.802   6.151   9.464
 2086POPC   PO428152  27.403   5.542   9.444
 2086POPC   GL128153  27.445   5.767   9.061
 2086POPC   GL228154  27.405   6.119   9.090
 2086POPC   C1A28155  27.642   5.718   8.654
 2086POPC   D2A28156  27.880   5.434   8.355
 2086POPC   C3A28157  27.697   5.466   7.954
 2086POPC   C4A28158  27.704   5.881   7.827
 2086POPC   C1B28159  27.424   6.240   8.688
 2086POPC   C2B28160  27.636   6.161   8.318
 2086POPC   C3B28161  27.591   6.387   7.967
 2086POPC   C4B28162  27.691   6.322   7.557
 2087POPC   NC328163  20.872   9.220   9.598
 2087POPC   PO428164  20.344   8.745   9.660
 2087POPC   GL128165  20.613   8.860   9.263
 2087POPC   GL228166  20.739   9.170   9.119
 2087POPC   C1A28167  20.578   8.841   8.785
 2087POPC   D2A28168  20.518   9.152   8.487
 2087POPC   C3A28169  20.535   8.933   8.105
 2087POPC   C4A28170  20.454   9.066   7.708
 2087POPC   C1B28171  21.001   9.352   8.805
 2087POPC   C2B28172  20.928   9.445   8.398
 2087POPC   C3B28173  21.016   9.271   8.033
 2087POPC   C4B28174  20.946   9.111   7.644
 2088POPC   NC328175  21.642  39.731   9.443
 2088POPC   PO428176  21.109  40.224   9.323
 2088POPC   GL128177  21.470  40.085   9.099
 2088POPC   GL228178  21.247  39.781   9.078
 2088POPC   C1A28179  21.620  39.799   8.755
 2088POPC   D2A28180  21.459  39.647   8.367
 2088POPC   C3A28181  21.511  40.024   8.118
 2088POPC   C4A28182  21.679  40.106   7.725
 2088POPC   C1B28183  21.158  40.016   8.685
 2088POPC   C2B28184  21.020  39.929   8.278
 2088POPC   C3B28185  21.139  39.730   7.917
 2088POPC   C4B28186  20.855  39.735   7.620
 2089POPC   NC328187   7.949  32.534   9.482
 2089POPC   PO428188   8.130  31.852   9.503
 2089POPC   GL128189   8.113  32.147   9.148
 2089POPC   GL228190   8.397  32.273   9.048
 2089POPC   C1A28191   8.058  32.183   8.673
 2089POPC   D2A28192   7.833  32.204   8.306
 2089POPC   C3A28193   8.037  32.037   7.973
 2089POPC   C4A28194   8.088  32.098   7.546
 2089POPC   C1B28195   8.566  32.101   8.683
 2089POPC   C2B28196   8.495  32.100   8.239
 2089POPC   C3B28197   8.529  32.129   7.802
 2089POPC   C4B28198   8.538  31.851   7.429
 2090POPC   NC328199   1.011  40.919   9.325
 2090POPC   PO428200   1.483  40.489   9.569
 2090POPC   GL128201   1.434  40.680   9.161
 2090POPC   GL228202   1.582  40.954   8.999
 2090POPC   C1A28203   1.318  40.548   8.760
 2090POPC   D2A28204   1.424  40.623   8.350
 2090POPC   C3A28205   1.148  40.586   8.012
 2090POPC   C4A28206   1.150  40.412   7.618
 2090POPC   C1B28207   1.219  41.050   8.740
 2090POPC   C2B28208   1.028  40.949   8.381
 2090POPC   C3B28209   1.263  41.077   8.045
 2090POPC   C4B28210   1.186  40.989   7.644
 2091POPC   NC328211  42.339  34.064   9.378
 2091POPC   PO428212  42.689  34.714   9.464
 2091POPC   GL128213  42.592  34.552   9.094
 2091POPC   GL228214  42.662  34.191   9.009
 2091POPC   C1A28215  42.578  34.809   8.757
 2091POPC   D2A28216  42.758  34.815   8.375
 2091POPC   C3A28217  42.489  34.797   8.078
 2091POPC   C4A28218  42.170  34.666   7.827
 2091POPC   C1B28219  42.361  34.340   8.698
 2091POPC   C2B28220  42.245  34.411   8.298
 2091POPC   C3B28221  42.064  34.184   7.972
 2091POPC   C4B28222  42.008  34.256   7.568
 2092POPC   NC328223  41.940   2.201   9.665
 2092POPC   PO428224  42.598   1.987   9.499
 2092POPC   GL128225  42.410   1.994   9.128
 2092POPC   GL228226  42.270   2.290   9.248
 2092POPC   C1A28227  42.253   1.822   8.731
 2092POPC   D2A28228  42.149   1.724   8.294
 2092POPC   C3A28229  42.475   1.838   7.983
 2092POPC   C4A28230  42.314   2.046   7.620
 2092POPC   C1B28231  42.290   2.347   8.798
 2092POPC   C2B28232  42.367   2.182   8.378
 2092POPC   C3B28233  42.098   2.247   8.026
 2092POPC   C4B28234  41.884   2.325   7.649
 2093POPC   NC328235  40.686  27.271   9.482
 2093POPC   PO428236  41.000  27.899   9.439
 2093POPC   GL128237  40.908  27.690   9.041
 2093POPC   GL228238  41.024  27.376   9.118
 2093POPC   C1A28239  40.547  27.666   8.671
 2093POPC   D2A28240  40.353  27.886   8.367
 2093POPC   C3A28241  40.657  27.919   8.094
 2093POPC   C4A28242  40.896  27.573   7.932
 2093POPC   C1B28243  40.791  27.237   8.762
 2093POPC   C2B28244  40.467  27.203   8.439
 2093POPC   C3B28245  40.614  27.149   8.018
 2093POPC   C4B28246  40.636  27.301   7.583
 2094POPC   NC328247  32.594  32.631   9.472
 2094POPC   PO428248  32.017  33.011   9.384
 2094POPC   GL128249  32.129  33.117   9.040
 2094POPC   GL228250  32.448  32.986   9.076
 2094POPC   C1A28251  32.160  32.938   8.666
 2094POPC   D2A28252  32.396  32.803   8.389
 2094POPC   C3A28253  32.112  32.699   8.108
 2094POPC   C4A28254  32.137  32.831   7.749
 2094POPC   C1B28255  32.508  33.325   8.796
 2094POPC   C2B28256  32.659  33.252   8.387
 2094POPC   C3B28257  32.460  33.160   8.003
 2094POPC   C4B28258  32.603  33.000   7.609
 2095POPC   NC328259  32.174  38.223   9.439
 2095POPC   PO428260  32.520  38.770   9.497
 2095POPC   GL128261  32.309  38.624   9.139
 2095POPC   GL228262  32.495  38.327   9.059
 2095POPC   C1A28263  31.998  38.609   8.802
 2095POPC   D2A28264  32.138  38.759   8.385
 2095POPC   C3A28265  32.093  38.594   8.003
 2095POPC   C4A28266  32.432  38.475   7.715
 2095POPC   C1B28267  32.264  38.170   8.754
 2095POPC   C2B28268  32.337  38.258   8.361
 2095POPC   C3B28269  32.174  38.093   8.039
 2095POPC   C4B28270  32.004  38.216   7.677
 2096POPC   NC328271  10.048  37.814   9.585
 2096POPC   PO428272   9.484  37.855   9.257
 2096POPC   GL128273   9.705  37.633   9.000
 2096POPC   GL228274  10.027  37.594   9.116
 2096POPC   C1A28275   9.741  37.829   8.614
 2096POPC   D2A28276   9.502  37.743   8.259
 2096POPC   C3A28277   9.693  37.967   7.974
 2096POPC   C4A28278   9.763  37.864   7.565
 2096POPC   C1B28279  10.085  37.438   8.662
 2096POPC   C2B28280  10.013  37.613   8.228
 2096POPC   C3B28281   9.815  37.445   7.874
 2096POPC   C4B28282   9.953  37.121   7.629
 2097POPC   NC328283  33.596  24.479   9.491
 2097POPC   PO428284  34.267  24.591   9.515
 2097POPC   GL128285  33.961  24.684   9.197
 2097POPC   GL228286  33.895  24.320   9.084
 2097POPC   C1A28287  33.708  24.710   8.836
 2097POPC   D2A28288  33.759  24.442   8.506
 2097POPC   C3A28289  33.843  24.660   8.169
 2097POPC   C4A28290  33.826  24.751   7.789
 2097POPC   C1B28291  33.512  24.151   8.865
 2097POPC   C2B28292  33.518  24.014   8.434
 2097POPC   C3B28293  33.665  24.178   8.041
 2097POPC   C4B28294  33.452  24.082   7.694
 2098POPC   NC328295  37.186   3.284  10.006
 2098POPC   PO428296  37.052   3.759   9.482
 2098POPC   GL128297  36.729   3.627   9.207
 2098POPC   GL228298  36.604   3.271   9.271
 2098POPC   C1A28299  36.884   3.577   8.793
 2098POPC   D2A28300  37.109   3.497   8.385
 2098POPC   C3A28301  36.996   3.623   7.962
 2098POPC   C4A28302  37.042   3.397   7.541
 2098POPC   C1B28303  36.615   3.142   8.830
 2098POPC   C2B28304  36.593   3.357   8.410
 2098POPC   C3B28305  36.640   3.196   7.975
 2098POPC   C4B28306  36.742   2.922   7.608
 2099POPC   NC328307  37.297  22.688  10.114
 2099POPC   PO428308  37.663  22.763   9.505
 2099POPC   GL128309  37.566  22.858   9.126
 2099POPC   GL228310  37.444  23.196   9.227
 2099POPC   C1A28311  37.813  22.856   8.738
 2099POPC   D2A28312  37.711  22.817   8.295
 2099POPC   C3A28313  37.979  22.594   7.979
 2099POPC   C4A28314  37.809  22.720   7.581
 2099POPC   C1B28315  37.515  23.260   8.818
 2099POPC   C2B28316  37.382  23.297   8.422
 2099POPC   C3B28317  37.504  23.195   7.994
 2099POPC   C4B28318  37.473  23.154   7.517
 2100POPC   NC328319  30.063  42.816   9.510
 2100POPC   PO428320  29.767  43.400   9.492
 2100POPC   GL128321  29.792  43.157   9.143
 2100POPC   GL228322  30.133  43.126   9.106
 2100POPC   C1A28323  29.839  43.295   8.715
 2100POPC   D2A28324  30.065  43.463   8.366
 2100POPC   C3A28325  29.897  43.232   8.021
 2100POPC   C4A28326  30.105  43.227   7.643
 2100POPC   C1B28327  30.015  42.827   8.800
 2100POPC   C2B28328  30.098  42.957   8.395
 2100POPC   C3B28329  30.304  42.897   8.005
 2100POPC   C4B28330  30.183  42.710   7.589
 2101POPC   NC328331  36.877   7.203   9.404
 2101POPC   PO428332  36.611   7.762   9.545
 2101POPC   GL128333  36.651   7.544   9.110
 2101POPC   GL228334  36.515   7.184   9.041
 2101POPC   C1A28335  36.765   7.477   8.664
 2101POPC   D2A28336  36.892   7.518   8.246
 2101POPC   C3A28337  36.810   7.294   7.920
 2101POPC   C4A28338  36.743   7.469   7.452
 2101POPC   C1B28339  36.445   7.102   8.606
 2101POPC   C2B28340  36.393   7.372   8.274
 2101POPC   C3B28341  36.318   7.291   7.862
 2101POPC   C4B28342  36.627   7.018   7.569
 2102POPC   NC328343  10.376  22.180   9.466
 2102POPC   PO428344   9.735  22.339   9.448
 2102POPC   GL128345   9.993  22.051   9.141
 2102POPC   GL228346   9.712  21.904   8.936
 2102POPC   C1A28347  10.159  22.005   8.717
 2102POPC   D2A28348   9.865  22.058   8.378
 2102POPC   C3A28349   9.878  21.910   7.947
 2102POPC   C4A28350   9.642  22.092   7.594
 2102POPC   C1B28351   9.648  22.317   8.805
 2102POPC   C2B28352   9.617  22.544   8.458
 2102POPC   C3B28353   9.406  22.521   8.103
 2102POPC   C4B28354   9.271  22.416   7.717
 2103POPC   NC328355  12.749  21.576   9.646
 2103POPC   PO428356  12.641  22.285   9.522
 2103POPC   GL128357  12.639  22.145   9.116
 2103POPC   GL228358  12.968  22.108   8.995
 2103POPC   C1A28359  12.618  22.046   8.650
 2103POPC   D2A28360  12.867  22.296   8.358
 2103POPC   C3A28361  12.702  22.276   7.950
 2103POPC   C4A28362  12.713  21.823   7.864
 2103POPC   C1B28363  13.300  22.295   8.797
 2103POPC   C2B28364  13.497  22.236   8.443
 2103POPC   C3B28365  13.321  22.211   8.043
 2103POPC   C4B28366  13.105  22.086   7.691
 2104POPC   NC328367   5.098  21.060   9.557
 2104POPC   PO428368   4.733  21.622   9.534
 2104POPC   GL128369   5.022  21.476   9.207
 2104POPC   GL228370   5.311  21.688   9.211
 2104POPC   C1A28371   5.061  21.336   8.764
 2104POPC   D2A28372   5.018  21.144   8.362
 2104POPC   C3A28373   5.257  21.248   8.001
 2104POPC   C4A28374   5.104  21.106   7.605
 2104POPC   C1B28375   5.148  21.855   8.844
 2104POPC   C2B28376   4.877  21.774   8.501
 2104POPC   C3B28377   4.901  21.613   8.082
 2104POPC   C4B28378   5.143  21.652   7.700
 2105POPC   NC328379   1.406  36.365   9.525
 2105POPC   PO428380   1.114  35.735   9.544
 2105POPC   GL128381   1.112  36.048   9.213
 2105POPC   GL228382   0.917  35.866   9.021
 2105POPC   C1A28383   1.373  36.265   8.862
 2105POPC   D2A28384   1.509  36.363   8.426
 2105POPC   C3A28385   1.418  36.080   8.062
 2105POPC   C4A28386   1.153  36.175   7.731
 2105POPC   C1B28387   0.877  36.194   8.754
 2105POPC   C2B28388   0.991  36.124   8.348
 2105POPC   C3B28389   0.950  35.822   8.041
 2105POPC   C4B28390   1.030  35.679   7.663
 2106POPC   NC328391  37.063  39.036   9.540
 2106POPC   PO428392  36.534  39.469   9.461
 2106POPC   GL128393  36.771  39.238   9.161
 2106POPC   GL228394  37.120  39.338   9.137
 2106POPC   C1A28395  36.787  39.170   8.733
 2106POPC   D2A28396  36.704  38.958   8.389
 2106POPC   C3A28397  36.912  39.075   8.020
 2106POPC   C4A28398  36.849  38.925   7.624
 2106POPC   C1B28399  37.167  39.509   8.750
 2106POPC   C2B28400  36.977  39.504   8.351
 2106POPC   C3B28401  37.156  39.552   7.926
 2106POPC   C4B28402  37.104  39.507   7.472
 2107POPC   NC328403  26.840  21.506   9.617
 2107POPC   PO428404  26.591  20.912   9.557
 2107POPC   GL128405  26.876  21.110   9.270
 2107POPC   GL228406  26.574  21.287   9.201
 2107POPC   C1A28407  27.002  21.223   8.849
 2107POPC   D2A28408  27.289  21.046   8.514
 2107POPC   C3A28409  27.136  21.123   8.082
 2107POPC   C4A28410  26.927  21.303   7.720
 2107POPC   C1B28411  26.471  21.161   8.796
 2107POPC   C2B28412  26.615  21.445   8.476
 2107POPC   C3B28413  26.374  21.657   8.171
 2107POPC   C4B28414  26.477  21.702   7.741
 2108POPC   NC328415   3.481  29.154   9.613
 2108POPC   PO428416   3.572  28.521   9.488
 2108POPC   GL128417   3.669  28.906   9.189
 2108POPC   GL228418   3.413  29.176   9.111
 2108POPC   C1A28419   3.779  29.052   8.749
 2108POPC   D2A28420   3.853  28.836   8.357
 2108POPC   C3A28421   3.801  28.980   7.931
 2108POPC   C4A28422   3.593  29.157   7.601
 2108POPC   C1B28423   3.298  29.211   8.684
 2108POPC   C2B28424   3.523  29.242   8.295
 2108POPC   C3B28425   3.557  29.530   7.942
 2108POPC   C4B28426   3.223  29.513   7.616
 2109POPC   NC328427  20.889   7.627   9.558
 2109POPC   PO428428  20.307   7.360   9.608
 2109POPC   GL128429  20.327   7.437   9.140
 2109POPC   GL228430  20.426   7.141   8.980
 2109POPC   C1A28431  20.469   7.594   8.701
 2109POPC   D2A28432  20.317   7.678   8.269
 2109POPC   C3A28433  20.615   7.516   7.975
 2109POPC   C4A28434  20.750   7.642   7.561
 2109POPC   C1B28435  20.309   7.137   8.557
 2109POPC   C2B28436  20.272   7.101   8.154
 2109POPC   C3B28437  20.160   7.323   7.840
 2109POPC   C4B28438  20.494   7.206   7.570
 2110POPC   NC328439  11.185   1.395   9.325
 2110POPC   PO428440  11.524   0.928   9.691
 2110POPC   GL128441  11.572   1.016   9.241
 2110POPC   GL228442  11.671   1.365   9.167
 2110POPC   C1A28443  11.379   1.059   8.802
 2110POPC   D2A28444  11.116   1.370   8.569
 2110POPC   C3A28445  11.203   1.358   8.106
 2110POPC   C4A28446  11.111   1.288   7.674
 2110POPC   C1B28447  11.556   1.549   8.787
 2110POPC   C2B28448  11.624   1.334   8.397
 2110POPC   C3B28449  11.687   1.603   8.057
 2110POPC   C4B28450  11.541   1.560   7.688
 2111POPC   NC328451   1.904  37.414   9.567
 2111POPC   PO428452   1.958  38.032   9.607
 2111POPC   GL128453   1.947  37.837   9.234
 2111POPC   GL228454   1.603  37.667   9.233
 2111POPC   C1A28455   2.156  37.878   8.840
 2111POPC   D2A28456   2.194  37.552   8.532
 2111POPC   C3A28457   2.220  37.703   8.107
 2111POPC   C4A28458   2.146  37.415   7.753
 2111POPC   C1B28459   1.737  37.596   8.827
 2111POPC   C2B28460   1.749  37.789   8.451
 2111POPC   C3B28461   1.725  37.636   8.052
 2111POPC   C4B28462   1.843  37.813   7.683
 2112POPC   NC328463  22.990   3.996   9.597
 2112POPC   PO428464  23.093   4.646   9.649
 2112POPC   GL128465  23.069   4.361   9.261
 2112POPC   GL228466  23.329   4.114   9.198
 2112POPC   C1A28467  22.788   4.365   8.870
 2112POPC   D2A28468  22.573   4.382   8.480
 2112POPC   C3A28469  22.756   4.215   8.098
 2112POPC   C4A28470  22.809   4.433   7.685
 2112POPC   C1B28471  23.293   4.412   8.812
 2112POPC   C2B28472  23.127   4.526   8.392
 2112POPC   C3B28473  23.221   4.349   7.965
 2112POPC   C4B28474  23.284   4.279   7.474
 2113POPC   NC328475  35.440  36.651   9.474
 2113POPC   PO428476  34.995  37.130   9.433
 2113POPC   GL128477  35.287  37.147   9.108
 2113POPC   GL228478  35.596  37.002   9.134
 2113POPC   C1A28479  35.263  37.013   8.698
 2113POPC   D2A28480  35.101  36.743   8.391
 2113POPC   C3A28481  35.144  36.875   7.985
 2113POPC   C4A28482  34.950  36.820   7.593
 2113POPC   C1B28483  35.827  36.900   8.788
 2113POPC   C2B28484  35.637  36.784   8.420
 2113POPC   C3B28485  35.671  36.883   8.022
 2113POPC   C4B28486  35.500  36.798   7.628
 2114POPC   NC328487  19.670  10.099   9.768
 2114POPC   PO428488  19.913  10.728   9.543
 2114POPC   GL128489  19.799  10.855   9.126
 2114POPC   GL228490  19.636  10.534   9.059
 2114POPC   C1A28491  19.834  10.785   8.667
 2114POPC   D2A28492  19.892  10.556   8.282
 2114POPC   C3A28493  19.806  10.817   7.947
 2114POPC   C4A28494  19.553  10.793   7.613
 2114POPC   C1B28495  19.816  10.260   8.711
 2114POPC   C2B28496  20.110  10.098   8.419
 2114POPC   C3B28497  20.144  10.207   7.995
 2114POPC   C4B28498  19.803  10.330   7.751
 2115POPC   NC328499  31.698  20.771   9.404
 2115POPC   PO428500  31.150  20.313   9.445
 2115POPC   GL128501  31.412  20.428   9.100
 2115POPC   GL228502  31.362  20.792   8.984
 2115POPC   C1A28503  31.698  20.491   8.741
 2115POPC   D2A28504  31.488  20.711   8.404
 2115POPC   C3A28505  31.275  20.600   7.998
 2115POPC   C4A28506  31.341  20.242   7.702
 2115POPC   C1B28507  31.750  20.999   8.786
 2115POPC   C2B28508  31.922  21.022   8.367
 2115POPC   C3B28509  31.718  20.911   7.989
 2115POPC   C4B28510  31.926  20.865   7.611
 2116POPC   NC328511  33.672  38.779   9.349
 2116POPC   PO428512  34.073  38.244   9.627
 2116POPC   GL128513  34.007  38.382   9.172
 2116POPC   GL228514  33.914  38.687   8.902
 2116POPC   C1A28515  33.856  38.200   8.775
 2116POPC   D2A28516  33.561  38.383   8.484
 2116POPC   C3A28517  33.730  38.607   8.142
 2116POPC   C4A28518  33.736  38.453   7.739
 2116POPC   C1B28519  33.505  38.864   8.685
 2116POPC   C2B28520  33.269  38.776   8.276
 2116POPC   C3B28521  33.354  38.774   7.826
 2116POPC   C4B28522  33.642  38.877   7.493
 2117POPC   NC328523  19.406  10.117   9.277
 2117POPC   PO428524  18.935  10.546   9.440
 2117POPC   GL128525  19.057  10.392   9.062
 2117POPC   GL228526  18.756  10.245   9.013
 2117POPC   C1A28527  19.320  10.427   8.677
 2117POPC   D2A28528  19.423  10.720   8.384
 2117POPC   C3A28529  19.403  10.498   8.027
 2117POPC   C4A28530  19.110  10.542   7.725
 2117POPC   C1B28531  18.812  10.521   8.654
 2117POPC   C2B28532  18.931  10.622   8.251
 2117POPC   C3B28533  18.671  10.674   7.929
 2117POPC   C4B28534  18.668  10.306   7.660
 2118POPC   NC328535   3.084  25.152   9.335
 2118POPC   PO428536   3.651  25.535   9.367
 2118POPC   GL128537   3.731  25.198   9.035
 2118POPC   GL228538   3.426  25.157   8.989
 2118POPC   C1A28539   3.680  25.036   8.597
 2118POPC   D2A28540   3.310  25.179   8.422
 2118POPC   C3A28541   3.406  25.040   8.040
 2118POPC   C4A28542   3.373  25.169   7.658
 2118POPC   C1B28543   3.476  25.558   8.746
 2118POPC   C2B28544   3.244  25.726   8.422
 2118POPC   C3B28545   3.191  25.566   8.005
 2118POPC   C4B28546   3.528  25.662   7.742
 2119POPC   NC328547  39.794  41.550   9.267
 2119POPC   PO428548  40.345  41.726   9.565
 2119POPC   GL128549  40.232  41.735   9.078
 2119POPC   GL228550  39.995  41.923   8.962
 2119POPC   C1A28551  40.167  41.552   8.620
 2119POPC   D2A28552  39.917  41.186   8.374
 2119POPC   C3A28553  39.764  41.282   7.943
 2119POPC   C4A28554  40.031  41.221   7.569
 2119POPC   C1B28555  39.777  41.944   8.596
 2119POPC   C2B28556  39.793  41.671   8.280
 2119POPC   C3B28557  40.116  41.616   7.989
 2119POPC   C4B28558  40.005  41.722   7.572
 2120POPC   NC328559   0.474  36.713   9.516
 2120POPC   PO428560   0.906  37.206   9.435
 2120POPC   GL128561   0.661  36.980   9.115
 2120POPC   GL228562   0.303  36.974   9.113
 2120POPC   C1A28563   0.611  36.884   8.698
 2120POPC   D2A28564   0.462  37.068   8.352
 2120POPC   C3A28565   0.597  36.822   8.074
 2120POPC   C4A28566   0.718  36.747   7.684
 2120POPC   C1B28567   0.091  36.940   8.747
 2120POPC   C2B28568  44.936  37.046   8.355
 2120POPC   C3B28569   0.104  36.930   7.989
 2120POPC   C4B28570   0.215  36.837   7.593
 2121POPC   NC328571  32.931  22.270   9.363
 2121POPC   PO428572  33.446  21.832   9.580
 2121POPC   GL128573  33.329  21.980   9.148
 2121POPC   GL228574  33.348  22.359   9.101
 2121POPC   C1A28575  33.082  22.093   8.748
 2121POPC   D2A28576  33.166  22.165   8.335
 2121POPC   C3A28577  32.844  22.147   8.010
 2121POPC   C4A28578  33.175  22.138   7.705
 2121POPC   C1B28579  33.246  22.576   8.721
 2121POPC   C2B28580  32.918  22.607   8.424
 2121POPC   C3B28581  33.087  22.590   8.028
 2121POPC   C4B28582  32.889  22.550   7.643
 2122POPC   NC328583  35.785   4.889   9.536
 2122POPC   PO428584  36.236   5.367   9.654
 2122POPC   GL128585  36.211   5.164   9.249
 2122POPC   GL228586  35.894   5.148   9.129
 2122POPC   C1A28587  36.295   5.192   8.791
 2122POPC   D2A28588  36.576   5.162   8.415
 2122POPC   C3A28589  36.375   5.048   8.034
 2122POPC   C4A28590  36.244   5.116   7.612
 2122POPC   C1B28591  35.703   5.104   8.768
 2122POPC   C2B28592  35.909   5.090   8.389
 2122POPC   C3B28593  35.875   4.942   7.992
 2122POPC   C4B28594  35.734   5.175   7.665
 2123POPC   NC328595  17.790  12.979   9.326
 2123POPC   PO428596  17.776  13.507   9.777
 2123POPC   GL128597  17.635  13.603   9.309
 2123POPC   GL228598  17.851  13.424   9.119
 2123POPC   C1A28599  17.430  13.538   8.848
 2123POPC   D2A28600  17.229  13.369   8.463
 2123POPC   C3A28601  17.250  13.643   8.098
 2123POPC   C4A28602  17.419  13.403   7.775
 2123POPC   C1B28603  17.918  13.660   8.756
 2123POPC   C2B28604  17.639  13.758   8.415
 2123POPC   C3B28605  17.754  13.762   7.982
 2123POPC   C4B28606  17.790  13.684   7.542
 2124POPC   NC328607  43.119  13.267   9.340
 2124POPC   PO428608  43.287  13.818   9.662
 2124POPC   GL128609  43.362  13.683   9.189
 2124POPC   GL228610  43.112  13.815   9.017
 2124POPC   C1A28611  43.304  13.407   8.756
 2124POPC   D2A28612  43.549  13.470   8.377
 2124POPC   C3A28613  43.385  13.393   7.956
 2124POPC   C4A28614  43.242  13.231   7.577
 2124POPC   C1B28615  43.258  13.880   8.584
 2124POPC   C2B28616  43.063  13.631   8.278
 2124POPC   C3B28617  42.876  13.562   7.894
 2124POPC   C4B28618  43.071  13.795   7.596
 2125POPC   NC328619   4.889  10.564   9.557
 2125POPC   PO428620   5.483  10.268   9.651
 2125POPC   GL128621   5.194  10.255   9.279
 2125POPC   GL228622   5.159  10.611   9.114
 2125POPC   C1A28623   5.033  10.174   8.868
 2125POPC   D2A28624   5.282  10.272   8.505
 2125POPC   C3A28625   5.115  10.546   8.197
 2125POPC   C4A28626   5.113  10.523   7.743
 2125POPC   C1B28627   4.802  10.687   8.817
 2125POPC   C2B28628   4.706  10.854   8.386
 2125POPC   C3B28629   4.856  10.933   7.967
 2125POPC   C4B28630   4.808  10.867   7.536
 2126POPC   NC328631  11.884   0.599   9.656
 2126POPC   PO428632  12.499   0.442   9.960
 2126POPC   GL128633  12.289   0.504   9.369
 2126POPC   GL228634  11.976   0.686   9.178
 2126POPC   C1A28635  12.090   0.293   8.887
 2126POPC   D2A28636  11.923   0.175   8.426
 2126POPC   C3A28637  12.099   0.218   8.019
 2126POPC   C4A28638  11.959   0.360   7.596
 2126POPC   C1B28639  12.238   0.800   8.846
 2126POPC   C2B28640  12.172   0.620   8.449
 2126POPC   C3B28641  11.882   0.677   8.112
 2126POPC   C4B28642  12.167   0.757   7.811
 2127POPC   NC328643  32.430  36.475   9.402
 2127POPC   PO428644  32.558  37.135   9.404
 2127POPC   GL128645  32.152  37.005   9.199
 2127POPC   GL228646  31.898  37.251   9.068
 2127POPC   C1A28647  32.180  36.812   8.812
 2127POPC   D2A28648  32.569  36.677   8.621
 2127POPC   C3A28649  32.611  36.727   8.184
 2127POPC   C4A28650  32.393  36.748   7.796
 2127POPC   C1B28651  32.084  37.279   8.620
 2127POPC   C2B28652  32.157  37.020   8.240
 2127POPC   C3B28653  32.019  37.092   7.819
 2127POPC   C4B28654  31.784  36.893   7.477
 2128POPC   NC328655  35.531  30.426   9.442
 2128POPC   PO428656  35.579  29.743   9.438
 2128POPC   GL128657  35.301  29.701   9.117
 2128POPC   GL228658  35.342  30.065   9.106
 2128POPC   C1A28659  35.431  29.753   8.713
 2128POPC   D2A28660  35.763  29.687   8.433
 2128POPC   C3A28661  35.580  29.647   8.042
 2128POPC   C4A28662  35.691  29.728   7.668
 2128POPC   C1B28663  34.980  30.055   8.808
 2128POPC   C2B28664  34.733  30.214   8.418
 2128POPC   C3B28665  34.917  30.202   8.009
 2128POPC   C4B28666  35.318  30.054   7.793
 2129POPC   NC328667  12.280  15.422   9.597
 2129POPC   PO428668  11.721  15.041   9.507
 2129POPC   GL128669  11.925  15.185   9.131
 2129POPC   GL228670  12.304  15.255   9.130
 2129POPC   C1A28671  11.836  15.112   8.696
 2129POPC   D2A28672  12.023  14.878   8.361
 2129POPC   C3A28673  11.976  15.054   7.955
 2129POPC   C4A28674  12.335  15.233   7.708
 2129POPC   C1B28675  12.329  15.181   8.710
 2129POPC   C2B28676  12.301  15.312   8.249
 2129POPC   C3B28677  12.017  15.564   7.978
 2129POPC   C4B28678  11.881  15.398   7.562
 2130POPC   NC328679  38.270  28.823   9.411
 2130POPC   PO428680  38.454  29.484   9.356
 2130POPC   GL128681  38.429  29.158   9.041
 2130POPC   GL228682  38.140  28.964   8.951
 2130POPC   C1A28683  38.622  29.171   8.640
 2130POPC   D2A28684  38.758  29.469   8.308
 2130POPC   C3A28685  38.576  29.265   7.962
 2130POPC   C4A28686  38.694  28.862   7.801
 2130POPC   C1B28687  38.069  29.329   8.707
 2130POPC   C2B28688  38.116  29.470   8.284
 2130POPC   C3B28689  37.986  29.291   7.911
 2130POPC   C4B28690  38.178  28.960   7.719
 2131POPC   NC328691  44.194  31.325   9.669
 2131POPC   PO428692  43.633  31.698   9.614
 2131POPC   GL128693  43.958  31.564   9.290
 2131POPC   GL228694  43.710  31.460   9.110
 2131POPC   C1A28695  44.104  31.548   8.809
 2131POPC   D2A28696  43.912  31.447   8.371
 2131POPC   C3A28697  44.163  31.441   7.987
 2131POPC   C4A28698  44.153  31.710   7.609
 2131POPC   C1B28699  43.391  31.343   8.828
 2131POPC   C2B28700  43.374  31.158   8.436
 2131POPC   C3B28701  43.476  31.330   8.075
 2131POPC   C4B28702  43.711  31.501   7.782
 2132POPC   NC328703  17.425  38.707   9.658
 2132POPC   PO428704  17.702  38.137   9.440
 2132POPC   GL128705  17.437  38.314   9.132
 2132POPC   GL228706  17.341  38.682   9.158
 2132POPC   C1A28707  17.419  38.393   8.693
 2132POPC   D2A28708  17.668  38.644   8.378
 2132POPC   C3A28709  17.793  38.401   8.020
 2132POPC   C4A28710  17.512  38.178   7.675
 2132POPC   C1B28711  17.367  38.886   8.785
 2132POPC   C2B28712  17.248  38.949   8.375
 2132POPC   C3B28713  17.393  38.896   7.972
 2132POPC   C4B28714  17.624  38.663   7.626
 2133POPC   NC328715  33.422   1.731   9.803
 2133POPC   PO428716  33.998   2.021   9.447
 2133POPC   GL128717  33.937   1.876   9.062
 2133POPC   GL228718  34.027   1.514   9.188
 2133POPC   C1A28719  33.815   2.001   8.656
 2133POPC   D2A28720  33.896   2.251   8.286
 2133POPC   C3A28721  33.701   2.065   7.935
 2133POPC   C4A28722  33.559   1.698   7.750
 2133POPC   C1B28723  34.177   1.550   8.775
 2133POPC   C2B28724  33.910   1.563   8.408
 2133POPC   C3B28725  34.003   1.685   8.028
 2133POPC   C4B28726  34.053   1.679   7.609
 2134POPC   NC328727   1.029  10.218   9.817
 2134POPC   PO428728   1.651  10.463   9.524
 2134POPC   GL128729   1.500  10.379   9.148
 2134POPC   GL228730   1.160  10.418   9.169
 2134POPC   C1A28731   1.519  10.581   8.753
 2134POPC   D2A28732   1.341  10.475   8.371
 2134POPC   C3A28733   1.524  10.546   7.981
 2134POPC   C4A28734   1.331  10.457   7.602
 2134POPC   C1B28735   0.985  10.399   8.736
 2134POPC   C2B28736   0.835  10.549   8.309
 2134POPC   C3B28737   0.873  10.387   7.905
 2134POPC   C4B28738   1.055  10.043   7.706
 2135POPC   NC328739  44.191  44.639   9.494
 2135POPC   PO428740  43.456  44.446   9.518
 2135POPC   GL128741  43.810  44.382   9.208
 2135POPC   GL228742  44.189  44.364   9.069
 2135POPC   C1A28743  43.789  44.469   8.782
 2135POPC   D2A28744  43.757  44.769   8.488
 2135POPC   C3A28745  43.796  44.514   8.147
 2135POPC   C4A28746  43.822  44.667   7.742
 2135POPC   C1B28747  44.159  44.807   8.865
 2135POPC   C2B28748  44.206   0.073   8.510
 2135POPC   C3B28749  44.164  44.860   8.146
 2135POPC   C4B28750  44.307  44.892   7.767
 2136POPC   NC328751  13.442  21.005   9.417
 2136POPC   PO428752  13.342  20.288   9.412
 2136POPC   GL128753  13.478  20.600   9.098
 2136POPC   GL228754  13.775  20.853   9.068
 2136POPC   C1A28755  13.438  20.635   8.661
 2136POPC   D2A28756  13.340  20.412   8.261
 2136POPC   C3A28757  13.570  20.633   7.908
 2136POPC   C4A28758  13.409  20.814   7.534
 2136POPC   C1B28759  14.000  20.460   8.960
 2136POPC   C2B28760  14.200  20.456   8.568
 2136POPC   C3B28761  14.011  20.570   8.182
 2136POPC   C4B28762  14.066  20.498   7.743
 2137POPC   NC328763  38.036  31.517   9.577
 2137POPC   PO428764  37.384  31.415   9.499
 2137POPC   GL128765  37.559  31.151   9.065
 2137POPC   GL228766  37.892  31.005   8.934
 2137POPC   C1A28767  37.605  31.169   8.567
 2137POPC   D2A28768  37.739  31.213   8.144
 2137POPC   C3A28769  37.482  31.366   7.800
 2137POPC   C4A28770  37.548  31.752   7.564
 2137POPC   C1B28771  38.131  31.217   8.585
 2137POPC   C2B28772  38.247  31.356   8.160
 2137POPC   C3B28773  38.014  31.460   7.753
 2137POPC   C4B28774  37.805  31.366   7.354
 2138POPC   NC328775  24.559  27.154   9.522
 2138POPC   PO428776  24.184  27.750   9.485
 2138POPC   GL128777  24.401  27.682   9.119
 2138POPC   GL228778  24.301  27.369   9.132
 2138POPC   C1A28779  24.704  27.802   8.817
 2138POPC   D2A28780  24.724  27.981   8.416
 2138POPC   C3A28781  24.427  27.852   8.111
 2138POPC   C4A28782  24.503  27.623   7.742
 2138POPC   C1B28783  24.113  27.339   8.770
 2138POPC   C2B28784  24.393  27.527   8.502
 2138POPC   C3B28785  24.476  27.307   8.153
 2138POPC   C4B28786  24.097  27.397   7.909
 2139POPC   NC328787  43.076  21.047   9.467
 2139POPC   PO428788  43.250  21.626   9.594
 2139POPC   GL128789  43.103  21.482   9.181
 2139POPC   GL228790  42.895  21.202   9.012
 2139POPC   C1A28791  43.020  21.638   8.793
 2139POPC   D2A28792  42.924  21.364   8.475
 2139POPC   C3A28793  43.067  21.536   8.089
 2139POPC   C4A28794  42.900  21.426   7.707
 2139POPC   C1B28795  43.287  21.097   8.805
 2139POPC   C2B28796  43.458  21.009   8.400
 2139POPC   C3B28797  43.260  21.054   8.015
 2139POPC   C4B28798  43.371  21.188   7.636
 2140POPC   NC328799  18.368  35.357   9.593
 2140POPC   PO428800  17.866  35.671   9.669
 2140POPC   GL128801  18.032  35.443   9.236
 2140POPC   GL228802  18.443  35.473   9.105
 2140POPC   C1A28803  17.886  35.378   8.813
 2140POPC   D2A28804  18.158  35.549   8.478
 2140POPC   C3A28805  18.060  35.509   8.059
 2140POPC   C4A28806  17.840  35.242   7.801
 2140POPC   C1B28807  18.368  35.186   8.790
 2140POPC   C2B28808  18.501  35.185   8.400
 2140POPC   C3B28809  18.581  35.482   8.115
 2140POPC   C4B28810  18.666  35.280   7.764
 2141POPC   NC328811   3.243  38.485   9.554
 2141POPC   PO428812   3.684  38.093   9.394
 2141POPC   GL128813   3.468  38.295   9.084
 2141POPC   GL228814   3.741  38.493   8.976
 2141POPC   C1A28815   3.449  38.354   8.613
 2141POPC   D2A28816   3.732  38.579   8.312
 2141POPC   C3A28817   3.892  38.269   8.067
 2141POPC   C4A28818   3.656  38.054   7.725
 2141POPC   C1B28819   3.895  38.839   8.717
 2141POPC   C2B28820   3.944  39.056   8.319
 2141POPC   C3B28821   3.750  38.943   7.907
 2141POPC   C4B28822   3.728  38.550   7.683
 2142POPC   NC328823  27.452  39.274   9.359
 2142POPC   PO428824  27.956  38.942   9.458
 2142POPC   GL128825  27.891  39.169   9.090
 2142POPC   GL228826  27.963  39.523   9.087
 2142POPC   C1A28827  27.726  39.080   8.687
 2142POPC   D2A28828  27.406  39.163   8.383
 2142POPC   C3A28829  27.576  39.297   7.977
 2142POPC   C4A28830  27.818  39.158   7.617
 2142POPC   C1B28831  27.692  39.588   8.703
 2142POPC   C2B28832  27.800  39.664   8.252
 2142POPC   C3B28833  28.093  39.498   7.900
 2142POPC   C4B28834  28.146  39.505   7.433
 2143POPC   NC328835  14.265  12.919   9.715
 2143POPC   PO428836  14.494  12.533   9.295
 2143POPC   GL128837  14.513  12.881   9.066
 2143POPC   GL228838  14.253  12.685   8.885
 2143POPC   C1A28839  14.588  12.960   8.641
 2143POPC   D2A28840  14.323  12.745   8.378
 2143POPC   C3A28841  14.474  12.914   8.051
 2143POPC   C4A28842  14.355  12.984   7.673
 2143POPC   C1B28843  14.155  12.315   8.672
 2143POPC   C2B28844  13.925  12.339   8.343
 2143POPC   C3B28845  14.061  12.328   7.982
 2143POPC   C4B28846  14.406  12.485   7.801
 2144POPC   NC328847   3.999  28.314   9.450
 2144POPC   PO428848   4.580  28.541   9.444
 2144POPC   GL128849   4.408  28.348   9.096
 2144POPC   GL228850   4.226  28.030   9.118
 2144POPC   C1A28851   4.506  28.367   8.674
 2144POPC   D2A28852   4.608  28.532   8.281
 2144POPC   C3A28853   4.409  28.396   7.922
 2144POPC   C4A28854   4.275  28.563   7.549
 2144POPC   C1B28855   4.001  28.259   8.770
 2144POPC   C2B28856   4.088  28.392   8.345
 2144POPC   C3B28857   3.912  28.467   7.946
 2144POPC   C4B28858   3.983  28.152   7.592
 2145POPC   NC328859  14.997  24.915   9.774
 2145POPC   PO428860  14.462  24.999   9.429
 2145POPC   GL128861  14.540  25.285   9.101
 2145POPC   GL228862  14.231  25.433   9.042
 2145POPC   C1A28863  14.542  25.438   8.666
 2145POPC   D2A28864  14.561  25.256   8.288
 2145POPC   C3A28865  14.661  25.547   8.011
 2145POPC   C4A28866  14.813  25.344   7.724
 2145POPC   C1B28867  14.109  25.092   8.839
 2145POPC   C2B28868  14.092  25.010   8.435
 2145POPC   C3B28869  14.117  25.158   8.042
 2145POPC   C4B28870  14.212  25.432   7.711
 2146POPC   NC328871   1.727  40.915   9.525
 2146POPC   PO428872   2.179  40.390   9.371
 2146POPC   GL128873   1.955  40.638   9.137
 2146POPC   GL228874   2.088  40.919   9.180
 2146POPC   C1A28875   1.822  40.620   8.705
 2146POPC   D2A28876   1.927  40.639   8.284
 2146POPC   C3A28877   1.719  40.809   7.980
 2146POPC   C4A28878   1.954  40.981   7.668
 2146POPC   C1B28879   2.034  41.093   8.791
 2146POPC   C2B28880   2.249  41.045   8.407
 2146POPC   C3B28881   2.270  41.232   8.032
 2146POPC   C4B28882   2.423  41.177   7.660
 2147POPC   NC328883  23.377  41.660   9.337
 2147POPC   PO428884  24.012  41.561   9.618
 2147POPC   GL128885  23.927  41.561   9.150
 2147POPC   GL228886  23.618  41.649   8.904
 2147POPC   C1A28887  24.100  41.651   8.739
 2147POPC   D2A28888  23.788  41.558   8.409
 2147POPC   C3A28889  23.880  41.534   7.980
 2147POPC   C4A28890  23.488  41.486   7.729
 2147POPC   C1B28891  23.766  42.022   8.664
 2147POPC   C2B28892  23.839  42.017   8.193
 2147POPC   C3B28893  23.771  41.971   7.730
 2147POPC   C4B28894  23.911  42.081   7.305
 2148POPC   NC328895  39.722  29.634   9.689
 2148POPC   PO428896  39.627  28.967   9.452
 2148POPC   GL128897  39.811  28.936   9.054
 2148POPC   GL228898  40.166  29.032   9.094
 2148POPC   C1A28899  39.683  29.102   8.634
 2148POPC   D2A28900  39.875  29.226   8.239
 2148POPC   C3A28901  39.706  29.416   7.863
 2148POPC   C4A28902  39.892  29.301   7.466
 2148POPC   C1B28903  40.273  29.266   8.685
 2148POPC   C2B28904  40.375  29.252   8.239
 2148POPC   C3B28905  40.220  29.378   7.859
 2148POPC   C4B28906  40.067  28.960   7.795
 2149POPC   NC328907  16.315  22.932   9.514
 2149POPC   PO428908  15.692  23.238   9.717
 2149POPC   GL128909  15.865  23.159   9.273
 2149POPC   GL228910  15.825  22.781   9.239
 2149POPC   C1A28911  15.968  23.000   8.818
 2149POPC   D2A28912  15.833  22.771   8.447
 2149POPC   C3A28913  16.010  22.923   8.073
 2149POPC   C4A28914  16.212  23.216   7.852
 2149POPC   C1B28915  15.560  22.597   8.868
 2149POPC   C2B28916  15.416  22.445   8.419
 2149POPC   C3B28917  15.628  22.539   8.007
 2149POPC   C4B28918  16.072  22.521   7.784
 2150POPC   NC328919  22.416  20.462   9.546
 2150POPC   PO428920  21.867  20.884   9.624
 2150POPC   GL128921  21.970  20.647   9.233
 2150POPC   GL228922  22.314  20.670   9.096
 2150POPC   C1A28923  21.969  20.512   8.778
 2150POPC   D2A28924  22.223  20.583   8.440
 2150POPC   C3A28925  22.023  20.587   8.084
 2150POPC   C4A28926  22.141  20.469   7.687
 2150POPC   C1B28927  22.355  20.971   8.771
 2150POPC   C2B28928  22.256  21.095   8.355
 2150POPC   C3B28929  22.343  20.949   7.922
 2150POPC   C4B28930  22.457  20.916   7.439
 2151POPC   NC328931   9.353   8.591   9.258
 2151POPC   PO428932  10.007   8.866   9.313
 2151POPC   GL128933   9.936   9.213   8.978
 2151POPC   GL228934   9.610   9.276   9.026
 2151POPC   C1A28935   9.830   9.206   8.558
 2151POPC   D2A28936   9.722   8.820   8.392
 2151POPC   C3A28937  10.029   8.709   8.094
 2151POPC   C4A28938  10.082   8.798   7.667
 2151POPC   C1B28939   9.433   9.506   8.697
 2151POPC   C2B28940   9.350   9.274   8.353
 2151POPC   C3B28941   9.625   9.202   8.044
 2151POPC   C4B28942   9.469   9.384   7.700
 2152POPC   NC328943  23.175  42.792   9.450
 2152POPC   PO428944  23.220  42.077   9.488
 2152POPC   GL128945  22.918  42.277   9.199
 2152POPC   GL228946  23.024  42.546   9.061
 2152POPC   C1A28947  22.704  42.282   8.783
 2152POPC   D2A28948  22.859  42.160   8.386
 2152POPC   C3A28949  22.911  42.336   7.980
 2152POPC   C4A28950  22.766  42.648   7.712
 2152POPC   C1B28951  23.328  42.650   8.762
 2152POPC   C2B28952  23.186  42.576   8.365
 2152POPC   C3B28953  23.140  42.798   8.006
 2152POPC   C4B28954  23.280  42.640   7.643
 2153POPC   NC328955  31.870  19.935   9.396
 2153POPC   PO428956  32.508  19.611   9.469
 2153POPC   GL128957  32.336  19.942   9.173
 2153POPC   GL228958  32.254  19.672   9.017
 2153POPC   C1A28959  32.064  20.104   8.775
 2153POPC   D2A28960  31.956  20.286   8.338
 2153POPC   C3A28961  32.203  20.109   7.982
 2153POPC   C4A28962  32.240  19.706   7.789
 2153POPC   C1B28963  32.399  19.700   8.632
 2153POPC   C2B28964  32.244  19.467   8.282
 2153POPC   C3B28965  32.498  19.313   8.002
 2153POPC   C4B28966  32.755  19.538   7.756
 2154POPC   NC328967   7.173  30.876   9.440
 2154POPC   PO428968   7.735  30.555   9.375
 2154POPC   GL128969   7.409  30.533   9.097
 2154POPC   GL228970   7.130  30.317   9.174
 2154POPC   C1A28971   7.554  30.528   8.684
 2154POPC   D2A28972   7.809  30.774   8.455
 2154POPC   C3A28973   7.605  30.881   8.089
 2154POPC   C4A28974   7.631  30.961   7.662
 2154POPC   C1B28975   7.042  30.442   8.738
 2154POPC   C2B28976   6.840  30.276   8.338
 2154POPC   C3B28977   7.026  30.212   7.958
 2154POPC   C4B28978   7.281  30.550   7.836
 2155POPC   NC328979  16.840  30.634   9.379
 2155POPC   PO428980  16.140  30.485   9.518
 2155POPC   GL128981  16.282  30.635   9.114
 2155POPC   GL228982  16.516  30.410   9.049
 2155POPC   C1A28983  16.485  30.871   8.762
 2155POPC   D2A28984  16.734  31.021   8.378
 2155POPC   C3A28985  16.709  30.757   7.973
 2155POPC   C4A28986  16.991  30.430   7.798
 2155POPC   C1B28987  16.364  30.164   8.748
 2155POPC   C2B28988  16.294  30.348   8.364
 2155POPC   C3B28989  16.481  30.290   7.964
 2155POPC   C4B28990  16.430  30.446   7.558
 2156POPC   NC328991   7.501  43.267   9.583
 2156POPC   PO428992   6.847  43.186   9.562
 2156POPC   GL128993   7.187  43.099   9.237
 2156POPC   GL228994   7.402  43.392   9.113
 2156POPC   C1A28995   7.169  43.021   8.810
 2156POPC   D2A28996   7.454  42.881   8.488
 2156POPC   C3A28997   7.436  43.078   8.082
 2156POPC   C4A28998   7.242  42.884   7.749
 2156POPC   C1B28999   7.563  43.334   8.714
 2156POPC   C2B29000   7.220  43.378   8.430
 2156POPC   C3B29001   7.173  43.508   7.997
 2156POPC   C4B29002   7.591  43.492   7.767
 2157POPC   NC329003  38.327  20.019   9.375
 2157POPC   PO429004  38.853  19.867   9.633
 2157POPC   GL129005  38.766  19.864   9.183
 2157POPC   GL229006  38.542  19.586   9.182
 2157POPC   C1A29007  38.534  19.883   8.773
 2157POPC   D2A29008  38.645  19.676   8.419
 2157POPC   C3A29009  38.544  19.899   8.055
 2157POPC   C4A29010  38.544  19.827   7.625
 2157POPC   C1B29011  38.295  19.452   8.842
 2157POPC   C2B29012  38.186  19.492   8.392
 2157POPC   C3B29013  38.366  19.413   8.012
 2157POPC   C4B29014  38.175  19.462   7.645
 2158POPC   NC329015  40.661  19.929   9.538
 2158POPC   PO429016  40.809  19.309   9.585
 2158POPC   GL129017  40.651  19.555   9.102
 2158POPC   GL229018  40.824  19.858   9.040
 2158POPC   C1A29019  40.514  19.791   8.675
 2158POPC   D2A29020  40.655  19.907   8.271
 2158POPC   C3A29021  40.440  19.752   7.916
 2158POPC   C4A29022  40.590  19.559   7.556
 2158POPC   C1B29023  41.056  19.837   8.664
 2158POPC   C2B29024  41.074  19.541   8.307
 2158POPC   C3B29025  40.979  19.629   7.885
 2158POPC   C4B29026  40.842  20.022   7.776
 2159POPC   NC329027  32.818  31.922   9.651
 2159POPC   PO429028  33.039  32.511   9.515
 2159POPC   GL129029  32.832  32.294   9.177
 2159POPC   GL229030  33.168  32.286   9.072
 2159POPC   C1A29031  32.870  32.100   8.735
 2159POPC   D2A29032  33.117  32.205   8.348
 2159POPC   C3A29033  32.909  32.133   7.921
 2159POPC   C4A29034  32.928  32.008   7.469
 2159POPC   C1B29035  32.980  32.591   8.789
 2159POPC   C2B29036  32.920  32.756   8.405
 2159POPC   C3B29037  33.070  32.597   8.034
 2159POPC   C4B29038  33.025  32.651   7.600
 2160POPC   NC329039   9.047  24.120   9.620
 2160POPC   PO429040   8.874  23.518   9.495
 2160POPC   GL129041   8.964  23.672   9.087
 2160POPC   GL229042   9.138  23.938   9.089
 2160POPC   C1A29043   8.826  23.736   8.660
 2160POPC   D2A29044   8.989  23.891   8.269
 2160POPC   C3A29045   8.937  23.768   7.860
 2160POPC   C4A29046   9.003  23.688   7.412
 2160POPC   C1B29047   9.331  23.849   8.656
 2160POPC   C2B29048   9.407  23.545   8.300
 2160POPC   C3B29049   9.406  23.573   7.849
 2160POPC   C4B29050   9.549  23.833   7.472
 2161POPC   NC329051  40.178  42.208   9.560
 2161POPC   PO429052  40.866  42.369   9.507
 2161POPC   GL129053  40.726  42.334   9.157
 2161POPC   GL229054  40.471  42.154   9.154
 2161POPC   C1A29055  40.858  42.315   8.786
 2161POPC   D2A29056  40.893  42.085   8.434
 2161POPC   C3A29057  40.782  42.278   8.096
 2161POPC   C4A29058  41.055  42.423   7.814
 2161POPC   C1B29059  40.430  42.040   8.717
 2161POPC   C2B29060  40.466  41.836   8.296
 2161POPC   C3B29061  40.384  42.029   7.898
 2161POPC   C4B29062  40.372  42.483   7.819
 2162POPC   NC329063  11.214  36.034   9.950
 2162POPC   PO429064  11.023  36.179   9.354
 2162POPC   GL129065  11.224  36.092   9.022
 2162POPC   GL229066  11.169  36.446   8.899
 2162POPC   C1A29067  11.211  35.890   8.604
 2162POPC   D2A29068  11.212  36.180   8.265
 2162POPC   C3A29069  11.130  36.039   7.838
 2162POPC   C4A29070  11.265  36.238   7.450
 2162POPC   C1B29071  11.529  36.282   8.676
 2162POPC   C2B29072  11.698  36.026   8.355
 2162POPC   C3B29073  11.645  36.148   7.932
 2162POPC   C4B29074  11.769  36.040   7.529
 2163POPC   NC329075  35.404   2.338   9.402
 2163POPC   PO429076  35.096   2.830   9.662
 2163POPC   GL129077  35.222   2.798   9.208
 2163POPC   GL229078  35.450   3.095   9.178
 2163POPC   C1A29079  35.309   2.541   8.797
 2163POPC   D2A29080  35.109   2.640   8.428
 2163POPC   C3A29081  35.279   2.632   8.029
 2163POPC   C4A29082  35.462   2.656   7.624
 2163POPC   C1B29083  35.412   3.028   8.745
 2163POPC   C2B29084  35.523   2.987   8.322
 2163POPC   C3B29085  35.277   3.144   7.975
 2163POPC   C4B29086  35.301   3.163   7.565
 2164POPC   NC329087  11.986  31.099   9.451
 2164POPC   PO429088  11.836  30.454   9.550
 2164POPC   GL129089  11.803  30.686   9.160
 2164POPC   GL229090  12.169  30.758   9.117
 2164POPC   C1A29091  11.844  30.511   8.741
 2164POPC   D2A29092  11.955  30.282   8.353
 2164POPC   C3A29093  11.915  30.501   7.956
 2164POPC   C4A29094  12.234  30.478   7.622
 2164POPC   C1B29095  12.070  30.972   8.748
 2164POPC   C2B29096  11.932  30.915   8.344
 2164POPC   C3B29097  12.074  31.005   7.941
 2164POPC   C4B29098  11.930  30.883   7.581
 2165POPC   NC329099  41.921  23.535   9.195
 2165POPC   PO429100  42.414  23.778   9.566
 2165POPC   GL129101  42.478  23.621   9.149
 2165POPC   GL229102  42.679  23.934   9.123
 2165POPC   C1A29103  42.366  23.558   8.704
 2165POPC   D2A29104  42.225  23.389   8.282
 2165POPC   C3A29105  42.222  23.599   7.864
 2165POPC   C4A29106  42.155  23.624   7.404
 2165POPC   C1B29107  42.689  23.973   8.695
 2165POPC   C2B29108  42.542  23.837   8.294
 2165POPC   C3B29109  42.637  23.938   7.864
 2165POPC   C4B29110  42.585  23.916   7.414
 2166POPC   NC329111   7.748  14.656   9.397
 2166POPC   PO429112   7.108  14.568   9.480
 2166POPC   GL129113   7.238  14.354   9.110
 2166POPC   GL229114   7.596  14.200   9.141
 2166POPC   C1A29115   7.215  14.633   8.757
 2166POPC   D2A29116   7.550  14.785   8.505
 2166POPC   C3A29117   7.369  14.841   8.132
 2166POPC   C4A29118   7.241  14.576   7.804
 2166POPC   C1B29119   7.536  14.246   8.663
 2166POPC   C2B29120   7.491  14.314   8.204
 2166POPC   C3B29121   7.709  14.365   7.804
 2166POPC   C4B29122   7.395  14.195   7.500
 2167POPC   NC329123   5.300  31.991   9.567
 2167POPC   PO429124   5.290  31.333   9.424
 2167POPC   GL129125   4.913  31.495   9.222
 2167POPC   GL229126   5.023  31.815   9.111
 2167POPC   C1A29127   4.775  31.380   8.819
 2167POPC   D2A29128   5.038  31.186   8.524
 2167POPC   C3A29129   5.034  31.168   8.094
 2167POPC   C4A29130   4.804  31.262   7.735
 2167POPC   C1B29131   5.067  31.769   8.669
 2167POPC   C2B29132   4.858  31.620   8.302
 2167POPC   C3B29133   5.055  31.731   7.926
 2167POPC   C4B29134   4.943  32.138   7.773
 2168POPC   NC329135  19.342  16.108   9.715
 2168POPC   PO429136  18.771  15.957   9.826
 2168POPC   GL129137  18.990  16.203   9.329
 2168POPC   GL229138  18.716  16.073   9.038
 2168POPC   C1A29139  19.135  16.238   8.839
 2168POPC   D2A29140  18.928  16.130   8.410
 2168POPC   C3A29141  19.161  16.103   8.002
 2168POPC   C4A29142  19.159  16.332   7.596
 2168POPC   C1B29143  18.857  15.733   8.725
 2168POPC   C2B29144  18.692  15.643   8.332
 2168POPC   C3B29145  18.706  15.915   7.987
 2168POPC   C4B29146  18.874  15.899   7.607
 2169POPC   NC329147   0.028  24.231   9.261
 2169POPC   PO429148  44.396  24.407   9.442
 2169POPC   GL129149  44.554  24.434   9.045
 2169POPC   GL229150  44.812  24.681   9.108
 2169POPC   C1A29151  44.796  24.318   8.659
 2169POPC   D2A29152   0.142  24.438   8.371
 2169POPC   C3A29153  44.979  24.361   7.946
 2169POPC   C4A29154  44.545  24.264   7.775
 2169POPC   C1B29155  44.629  24.804   8.700
 2169POPC   C2B29156  44.221  24.837   8.444
 2169POPC   C3B29157  44.254  24.861   7.971
 2169POPC   C4B29158  44.670  24.804   7.733
 2170POPC   NC329159   6.492  20.934   9.453
 2170POPC   PO429160   6.273  20.313   9.599
 2170POPC   GL129161   6.374  20.518   9.173
 2170POPC   GL229162   6.660  20.740   9.016
 2170POPC   C1A29163   6.506  20.384   8.724
 2170POPC   D2A29164   6.647  20.413   8.329
 2170POPC   C3A29165   6.389  20.490   7.996
 2170POPC   C4A29166   6.580  20.173   7.775
 2170POPC   C1B29167   6.581  20.874   8.606
 2170POPC   C2B29168   6.653  20.913   8.178
 2170POPC   C3B29169   6.725  20.831   7.753
 2170POPC   C4B29170   6.748  20.946   7.317
 2171POPC   NC329171  31.726  32.233   9.746
 2171POPC   PO429172  32.375  32.090   9.538
 2171POPC   GL129173  32.299  32.201   9.142
 2171POPC   GL229174  32.174  32.552   9.094
 2171POPC   C1A29175  32.178  32.044   8.745
 2171POPC   D2A29176  32.091  32.308   8.433
 2171POPC   C3A29177  31.963  32.158   8.048
 2171POPC   C4A29178  32.120  32.334   7.706
 2171POPC   C1B29179  32.492  32.464   8.763
 2171POPC   C2B29180  32.613  32.339   8.338
 2171POPC   C3B29181  32.580  32.585   7.959
 2171POPC   C4B29182  32.607  32.397   7.600
 2172POPC   NC329183  24.513  26.531   9.315
 2172POPC   PO429184  24.120  27.021   9.452
 2172POPC   GL129185  24.255  26.863   9.026
 2172POPC   GL229186  24.603  26.963   9.048
 2172POPC   C1A29187  24.502  26.574   8.699
 2172POPC   D2A29188  24.845  26.570   8.420
 2172POPC   C3A29189  24.655  26.759   8.085
 2172POPC   C4A29190  24.436  26.584   7.765
 2172POPC   C1B29191  24.529  27.057   8.626
 2172POPC   C2B29192  24.172  26.919   8.424
 2172POPC   C3B29193  24.142  26.920   8.002
 2172POPC   C4B29194  24.465  27.090   7.692
 2173POPC   NC329195   3.964   5.698   9.468
 2173POPC   PO429196   4.545   5.270   9.506
 2173POPC   GL129197   4.490   5.561   9.128
 2173POPC   GL229198   4.364   5.916   9.218
 2173POPC   C1A29199   4.606   5.624   8.665
 2173POPC   D2A29200   4.622   5.593   8.172
 2173POPC   C3A29201   4.389   5.866   7.897
 2173POPC   C4A29202   4.525   6.093   7.565
 2173POPC   C1B29203   4.136   5.826   8.828
 2173POPC   C2B29204   4.183   5.901   8.395
 2173POPC   C3B29205   3.967   5.677   8.092
 2173POPC   C4B29206   3.827   5.706   7.704
 2174POPC   NC329207  28.089  35.121   9.563
 2174POPC   PO429208  28.459  35.624   9.490
 2174POPC   GL129209  28.246  35.549   9.121
 2174POPC   GL229210  28.305  35.202   9.099
 2174POPC   C1A29211  28.231  35.455   8.673
 2174POPC   D2A29212  28.295  35.127   8.348
 2174POPC   C3A29213  28.277  35.307   7.937
 2174POPC   C4A29214  28.325  35.737   7.826
 2174POPC   C1B29215  28.648  35.140   8.797
 2174POPC   C2B29216  28.780  34.999   8.428
 2174POPC   C3B29217  28.750  35.079   8.018
 2174POPC   C4B29218  28.564  34.998   7.620
 2175POPC   NC329219  44.386  27.881   9.301
 2175POPC   PO429220  44.725  28.345   9.693
 2175POPC   GL129221  44.718  28.353   9.258
 2175POPC   GL229222  44.383  28.404   9.206
 2175POPC   C1A29223  44.713  28.543   8.843
 2175POPC   D2A29224  44.707  28.336   8.484
 2175POPC   C3A29225  44.811  28.464   8.133
 2175POPC   C4A29226  44.973  28.459   7.748
 2175POPC   C1B29227  44.269  28.293   8.765
 2175POPC   C2B29228  44.335  27.994   8.411
 2175POPC   C3B29229  44.493  28.070   7.971
 2175POPC   C4B29230  44.434  28.495   7.812
 2176POPC   NC329231  20.858  15.004   9.428
 2176POPC   PO429232  20.361  15.380   9.606
 2176POPC   GL129233  20.502  15.292   9.199
 2176POPC   GL229234  20.418  15.002   9.087
 2176POPC   C1A29235  20.782  15.177   8.784
 2176POPC   D2A29236  20.847  14.987   8.345
 2176POPC   C3A29237  20.665  15.151   7.931
 2176POPC   C4A29238  20.704  15.014   7.471
 2176POPC   C1B29239  20.280  15.312   8.764
 2176POPC   C2B29240  20.221  15.523   8.367
 2176POPC   C3B29241  20.195  15.406   7.934
 2176POPC   C4B29242  20.442  15.444   7.543
 2177POPC   NC329243  28.901  41.382   9.420
 2177POPC   PO429244  29.126  41.996   9.439
 2177POPC   GL129245  29.079  41.744   9.085
 2177POPC   GL229246  29.202  41.389   9.022
 2177POPC   C1A29247  28.940  41.686   8.678
 2177POPC   D2A29248  29.168  41.736   8.315
 2177POPC   C3A29249  29.080  41.515   7.977
 2177POPC   C4A29250  28.992  41.657   7.597
 2177POPC   C1B29251  29.552  41.292   8.782
 2177POPC   C2B29252  29.405  41.258   8.392
 2177POPC   C3B29253  29.535  41.310   8.009
 2177POPC   C4B29254  29.301  41.183   7.655
 2178POPC   NC329255   0.975  20.884   9.471
 2178POPC   PO429256   1.293  21.580   9.504
 2178POPC   GL129257   1.078  21.403   9.173
 2178POPC   GL229258   1.312  21.139   9.076
 2178POPC   C1A29259   1.057  21.539   8.735
 2178POPC   D2A29260   0.996  21.305   8.364
 2178POPC   C3A29261   0.854  21.550   8.013
 2178POPC   C4A29262   0.895  21.328   7.638
 2178POPC   C1B29263   1.561  21.006   8.702
 2178POPC   C2B29264   1.495  21.195   8.320
 2178POPC   C3B29265   1.300  21.208   7.941
 2178POPC   C4B29266   1.452  21.179   7.512
 2179POPC   NC329267  36.136   2.338   9.568
 2179POPC   PO429268  35.610   1.927   9.434
 2179POPC   GL129269  35.969   1.754   9.181
 2179POPC   GL229270  36.213   1.990   9.122
 2179POPC   C1A29271  36.051   1.672   8.727
 2179POPC   D2A29272  36.024   1.912   8.374
 2179POPC   C3A29273  36.155   1.720   8.029
 2179POPC   C4A29274  36.246   1.710   7.623
 2179POPC   C1B29275  36.023   2.240   8.772
 2179POPC   C2B29276  36.168   2.396   8.327
 2179POPC   C3B29277  36.080   2.196   7.895
 2179POPC   C4B29278  36.295   2.187   7.458
 2180POPC   NC329279  27.704  34.585   9.614
 2180POPC   PO429280  27.072  34.388   9.444
 2180POPC   GL129281  27.438  34.577   9.166
 2180POPC   GL229282  27.816  34.434   9.150
 2180POPC   C1A29283  27.542  34.496   8.704
 2180POPC   D2A29284  27.645  34.493   8.245
 2180POPC   C3A29285  27.332  34.680   7.990
 2180POPC   C4A29286  27.286  34.900   7.615
 2180POPC   C1B29287  27.832  34.855   8.954
 2180POPC   C2B29288  27.828  34.929   8.519
 2180POPC   C3B29289  27.884  34.932   8.106
 2180POPC   C4B29290  27.788  34.721   7.745
 2181POPC   NC329291  24.577  14.715   9.426
 2181POPC   PO429292  24.261  14.121   9.274
 2181POPC   GL129293  24.463  14.353   9.033
 2181POPC   GL229294  24.785  14.328   9.095
 2181POPC   C1A29295  24.390  14.483   8.643
 2181POPC   D2A29296  24.322  14.285   8.286
 2181POPC   C3A29297  24.312  14.570   7.971
 2181POPC   C4A29298  24.380  14.350   7.594
 2181POPC   C1B29299  24.902  14.568   8.748
 2181POPC   C2B29300  24.844  14.336   8.385
 2181POPC   C3B29301  24.774  14.350   7.975
 2181POPC   C4B29302  24.763  14.650   7.668
 2182POPC   NC329303  32.523  25.328   9.442
 2182POPC   PO429304  31.893  25.321   9.464
 2182POPC   GL129305  32.103  25.477   9.114
 2182POPC   GL229306  32.407  25.694   9.115
 2182POPC   C1A29307  32.321  25.354   8.737
 2182POPC   D2A29308  32.257  25.093   8.394
 2182POPC   C3A29309  32.401  25.235   8.026
 2182POPC   C4A29310  32.203  25.119   7.660
 2182POPC   C1B29311  32.165  25.851   8.768
 2182POPC   C2B29312  31.992  25.614   8.410
 2182POPC   C3B29313  32.024  25.546   7.948
 2182POPC   C4B29314  32.348  25.589   7.629
 2183POPC   NC329315  17.743  17.873   9.450
 2183POPC   PO429316  17.125  17.713   9.539
 2183POPC   GL129317  17.401  17.508   9.222
 2183POPC   GL229318  17.687  17.328   9.117
 2183POPC   C1A29319  17.280  17.340   8.818
 2183POPC   D2A29320  17.359  17.520   8.414
 2183POPC   C3A29321  17.395  17.255   8.058
 2183POPC   C4A29322  17.413  17.446   7.644
 2183POPC   C1B29323  17.714  17.646   8.809
 2183POPC   C2B29324  17.860  17.658   8.394
 2183POPC   C3B29325  17.692  17.716   7.973
 2183POPC   C4B29326  17.881  17.567   7.567
 2184POPC   NC329327   8.652  14.032   9.323
 2184POPC   PO429328   8.078  14.335   9.411
 2184POPC   GL129329   8.287  14.297   9.071
 2184POPC   GL229330   8.521  14.522   9.204
 2184POPC   C1A29331   8.053  14.346   8.718
 2184POPC   D2A29332   7.938  14.468   8.326
 2184POPC   C3A29333   8.151  14.241   8.081
 2184POPC   C4A29334   8.222  14.202   7.693
 2184POPC   C1B29335   8.523  14.652   8.790
 2184POPC   C2B29336   8.439  14.540   8.410
 2184POPC   C3B29337   8.561  14.534   8.032
 2184POPC   C4B29338   8.621  14.495   7.631
 2185POPC   NC329339   7.309  12.533   9.943
 2185POPC   PO429340   7.427  13.062   9.387
 2185POPC   GL129341   7.336  12.938   8.999
 2185POPC   GL229342   7.409  12.592   8.943
 2185POPC   C1A29343   7.294  12.914   8.569
 2185POPC   D2A29344   7.576  13.026   8.284
 2185POPC   C3A29345   7.406  12.877   7.933
 2185POPC   C4A29346   7.305  13.142   7.628
 2185POPC   C1B29347   7.708  12.613   8.639
 2185POPC   C2B29348   7.715  12.540   8.220
 2185POPC   C3B29349   7.762  12.520   7.814
 2185POPC   C4B29350   7.611  12.739   7.473
 2186POPC   NC329351  19.810  38.239   9.508
 2186POPC   PO429352  19.821  38.920   9.466
 2186POPC   GL129353  19.787  38.600   9.149
 2186POPC   GL229354  20.096  38.376   9.120
 2186POPC   C1A29355  19.776  38.503   8.728
 2186POPC   D2A29356  19.805  38.739   8.373
 2186POPC   C3A29357  19.830  38.527   8.011
 2186POPC   C4A29358  19.934  38.680   7.628
 2186POPC   C1B29359  20.109  38.105   8.777
 2186POPC   C2B29360  20.258  38.060   8.369
 2186POPC   C3B29361  20.104  38.083   7.950
 2186POPC   C4B29362  19.990  38.181   7.525
 2187POPC   NC329363  14.758  16.606   9.312
 2187POPC   PO429364  14.344  16.986   9.619
 2187POPC   GL129365  14.401  16.940   9.118
 2187POPC   GL229366  14.702  16.883   8.899
 2187POPC   C1A29367  14.278  17.005   8.645
 2187POPC   D2A29368  14.045  17.002   8.282
 2187POPC   C3A29369  14.271  16.818   7.939
 2187POPC   C4A29370  14.134  16.896   7.524
 2187POPC   C1B29371  14.465  16.527   8.719
 2187POPC   C2B29372  14.548  16.532   8.302
 2187POPC   C3B29373  14.699  16.517   7.903
 2187POPC   C4B29374  14.510  16.546   7.514
 2188POPC   NC329375  43.740   3.799   9.417
 2188POPC   PO429376  43.937   3.114   9.576
 2188POPC   GL129377  43.930   3.353   9.162
 2188POPC   GL229378  44.172   3.645   9.198
 2188POPC   C1A29379  43.761   3.502   8.732
 2188POPC   D2A29380  43.657   3.651   8.294
 2188POPC   C3A29381  43.677   3.393   7.886
 2188POPC   C4A29382  43.730   3.538   7.425
 2188POPC   C1B29383  44.112   3.865   8.805
 2188POPC   C2B29384  44.160   3.687   8.395
 2188POPC   C3B29385  44.053   3.721   7.967
 2188POPC   C4B29386  44.190   3.507   7.633
 2189POPC   NC329387  28.142   8.727   9.514
 2189POPC   PO429388  28.592   9.099   9.704
 2189POPC   GL129389  28.496   8.892   9.170
 2189POPC   GL229390  28.091   8.870   9.035
 2189POPC   C1A29391  28.446   8.968   8.703
 2189POPC   D2A29392  28.267   8.976   8.279
 2189POPC   C3A29393  28.582   8.889   7.981
 2189POPC   C4A29394  28.702   9.253   7.786
 2189POPC   C1B29395  28.086   8.559   8.762
 2189POPC   C2B29396  28.070   8.497   8.325
 2189POPC   C3B29397  28.116   8.636   7.883
 2189POPC   C4B29398  28.197   9.052   7.680
 2190POPC   NC329399  10.297  32.112   9.533
 2190POPC   PO429400  10.839  32.496   9.365
 2190POPC   GL129401  10.495  32.416   9.146
 2190POPC   GL229402  10.438  32.119   9.033
 2190POPC   C1A29403  10.324  32.541   8.764
 2190POPC   D2A29404  10.456  32.321   8.405
 2190POPC   C3A29405  10.602  32.579   8.040
 2190POPC   C4A29406  10.799  32.555   7.627
 2190POPC   C1B29407  10.546  31.869   8.718
 2190POPC   C2B29408  10.423  31.779   8.327
 2190POPC   C3B29409  10.428  32.057   7.977
 2190POPC   C4B29410  10.429  31.977   7.578
 2191POPC   NC329411  12.231  22.066   9.444
 2191POPC   PO429412  11.493  22.136   9.398
 2191POPC   GL129413  11.822  22.080   9.128
 2191POPC   GL229414  11.990  22.381   9.123
 2191POPC   C1A29415  12.114  22.037   8.779
 2191POPC   D2A29416  11.983  22.148   8.394
 2191POPC   C3A29417  12.297  22.007   8.159
 2191POPC   C4A29418  12.259  22.049   7.763
 2191POPC   C1B29419  12.343  22.483   8.870
 2191POPC   C2B29420  12.374  22.463   8.418
 2191POPC   C3B29421  12.143  22.503   8.032
 2191POPC   C4B29422  12.334  22.557   7.636
 2192POPC   NC329423  20.168  28.212   9.417
 2192POPC   PO429424  20.872  28.400   9.432
 2192POPC   GL129425  20.599  28.369   9.094
 2192POPC   GL229426  20.307  28.636   9.155
 2192POPC   C1A29427  20.881  28.328   8.712
 2192POPC   D2A29428  21.136  28.207   8.336
 2192POPC   C3A29429  20.987  28.519   8.050
 2192POPC   C4A29430  20.631  28.332   7.887
 2192POPC   C1B29431  20.450  28.680   8.735
 2192POPC   C2B29432  20.564  28.555   8.356
 2192POPC   C3B29433  20.561  28.828   8.040
 2192POPC   C4B29434  20.462  28.748   7.650
 2193POPC   NC329435  18.931  32.805   9.531
 2193POPC   PO429436  19.065  33.493   9.438
 2193POPC   GL129437  18.925  33.166   9.140
 2193POPC   GL229438  19.177  32.860   9.095
 2193POPC   C1A29439  18.825  32.928   8.755
 2193POPC   D2A29440  19.068  32.953   8.385
 2193POPC   C3A29441  18.834  32.937   8.034
 2193POPC   C4A29442  19.044  33.078   7.692
 2193POPC   C1B29443  19.208  32.568   8.742
 2193POPC   C2B29444  19.329  32.484   8.314
 2193POPC   C3B29445  19.295  32.698   7.896
 2193POPC   C4B29446  19.215  32.675   7.414
 2194POPC   NC329447  41.692  37.622   9.525
 2194POPC   PO429448  41.115  37.504   9.366
 2194POPC   GL129449  41.384  37.707   9.091
 2194POPC   GL229450  41.725  37.564   9.021
 2194POPC   C1A29451  41.571  37.975   8.759
 2194POPC   D2A29452  41.697  37.851   8.370
 2194POPC   C3A29453  41.603  38.070   8.012
 2194POPC   C4A29454  41.521  37.826   7.681
 2194POPC   C1B29455  41.470  37.471   8.663
 2194POPC   C2B29456  41.355  37.303   8.307
 2194POPC   C3B29457  41.614  37.392   7.981
 2194POPC   C4B29458  41.862  37.478   7.618
 2195POPC   NC329459  16.440   5.998   9.496
 2195POPC   PO429460  16.946   5.519   9.468
 2195POPC   GL129461  16.973   5.677   9.076
 2195POPC   GL229462  16.692   5.872   9.063
 2195POPC   C1A29463  16.958   5.843   8.645
 2195POPC   D2A29464  16.841   6.095   8.289
 2195POPC   C3A29465  16.880   5.915   7.912
 2195POPC   C4A29466  16.776   5.761   7.537
 2195POPC   C1B29467  16.470   5.746   8.651
 2195POPC   C2B29468  16.450   5.736   8.200
 2195POPC   C3B29469  16.389   6.057   7.888
 2195POPC   C4B29470  16.514   6.187   7.481
 2196POPC   NC329471   4.258  40.412   9.219
 2196POPC   PO429472   4.211  39.834   9.568
 2196POPC   GL129473   4.186  39.897   9.162
 2196POPC   GL229474   4.534  40.007   9.107
 2196POPC   C1A29475   4.237  39.854   8.714
 2196POPC   D2A29476   4.566  39.879   8.398
 2196POPC   C3A29477   4.461  39.771   7.975
 2196POPC   C4A29478   4.050  39.738   7.770
 2196POPC   C1B29479   4.584  40.276   8.712
 2196POPC   C2B29480   4.624  40.366   8.296
 2196POPC   C3B29481   4.445  40.295   7.896
 2196POPC   C4B29482   4.594  40.413   7.468
 2197POPC   NC329483   2.186  28.377   9.337
 2197POPC   PO429484   2.806  28.187   9.596
 2197POPC   GL129485   2.798  28.265   9.174
 2197POPC   GL229486   2.992  27.967   9.135
 2197POPC   C1A29487   2.948  28.355   8.741
 2197POPC   D2A29488   2.849  28.195   8.338
 2197POPC   C3A29489   2.728  28.483   8.027
 2197POPC   C4A29490   2.480  28.496   7.665
 2197POPC   C1B29491   3.136  27.828   8.750
 2197POPC   C2B29492   3.285  27.923   8.325
 2197POPC   C3B29493   3.086  27.894   7.915
 2197POPC   C4B29494   2.873  28.156   7.604
 2198POPC   NC329495  32.521   4.638   9.767
 2198POPC   PO429496  32.179   5.201   9.634
 2198POPC   GL129497  32.172   5.154   9.192
 2198POPC   GL229498  32.142   5.474   9.054
 2198POPC   C1A29499  32.455   5.165   8.818
 2198POPC   D2A29500  32.306   5.040   8.416
 2198POPC   C3A29501  32.486   5.123   8.038
 2198POPC   C4A29502  32.251   4.916   7.740
 2198POPC   C1B29503  31.955   5.340   8.652
 2198POPC   C2B29504  31.911   5.311   8.186
 2198POPC   C3B29505  32.106   5.405   7.769
 2198POPC   C4B29506  32.347   5.270   7.403
 2199POPC   NC329507  33.999  15.696   9.546
 2199POPC   PO429508  33.421  15.747   9.838
 2199POPC   GL129509  33.569  15.836   9.296
 2199POPC   GL229510  33.908  15.904   9.102
 2199POPC   C1A29511  33.478  15.987   8.859
 2199POPC   D2A29512  33.564  15.878   8.400
 2199POPC   C3A29513  33.528  16.094   7.995
 2199POPC   C4A29514  33.903  16.247   7.747
 2199POPC   C1B29515  33.837  15.611   8.786
 2199POPC   C2B29516  33.976  15.568   8.383
 2199POPC   C3B29517  33.989  15.827   8.049
 2199POPC   C4B29518  33.759  15.760   7.692
 2200POPC   NC329519  27.000  14.930   9.500
 2200POPC   PO429520  26.972  15.543   9.680
 2200POPC   GL129521  27.012  15.421   9.251
 2200POPC   GL229522  26.770  15.194   9.065
 2200POPC   C1A29523  27.155  15.413   8.825
 2200POPC   D2A29524  27.207  15.423   8.395
 2200POPC   C3A29525  26.900  15.270   8.135
 2200POPC   C4A29526  26.846  15.510   7.766
 2200POPC   C1B29527  26.927  14.993   8.658
 2200POPC   C2B29528  26.953  14.753   8.259
 2200POPC   C3B29529  27.180  14.876   7.893
 2200POPC   C4B29530  27.310  15.316   7.831
 2201POPC   NC329531  28.599  28.308   9.488
 2201POPC   PO429532  28.001  28.002   9.455
 2201POPC   GL129533  28.265  28.212   9.091
 2201POPC   GL229534  28.559  28.058   9.043
 2201POPC   C1A29535  28.371  28.180   8.589
 2201POPC   D2A29536  28.222  28.001   8.183
 2201POPC   C3A29537  28.197  28.324   7.853
 2201POPC   C4A29538  28.288  28.781   7.796
 2201POPC   C1B29539  28.613  28.518   8.867
 2201POPC   C2B29540  28.666  28.619   8.452
 2201POPC   C3B29541  28.603  28.523   8.070
 2201POPC   C4B29542  28.643  28.488   7.604
 2202POPC   NC329543  34.725   3.518   9.785
 2202POPC   PO429544  35.375   3.481   9.528
 2202POPC   GL129545  35.209   3.562   9.183
 2202POPC   GL229546  34.920   3.701   9.334
 2202POPC   C1A29547  35.444   3.528   8.833
 2202POPC   D2A29548  35.738   3.640   8.533
 2202POPC   C3A29549  35.645   3.478   8.134
 2202POPC   C4A29550  35.469   3.603   7.759
 2202POPC   C1B29551  34.884   3.801   8.883
 2202POPC   C2B29552  35.133   3.764   8.521
 2202POPC   C3B29553  35.097   3.626   8.121
 2202POPC   C4B29554  35.038   3.890   7.763
 2203POPC   NC329555  29.168  13.508   9.215
 2203POPC   PO429556  28.808  14.065   9.358
 2203POPC   GL129557  29.052  13.937   8.969
 2203POPC   GL229558  29.426  13.922   9.032
 2203POPC   C1A29559  29.077  13.639   8.590
 2203POPC   D2A29560  28.823  13.605   8.221
 2203POPC   C3A29561  28.842  13.389   7.819
 2203POPC   C4A29562  29.103  13.583   7.490
 2203POPC   C1B29563  29.586  13.638   8.716
 2203POPC   C2B29564  29.503  13.605   8.307
 2203POPC   C3B29565  29.309  13.526   7.959
 2203POPC   C4B29566  29.571  13.310   7.715
 2204POPC   NC329567   1.598  18.577   9.555
 2204POPC   PO429568   2.071  18.051   9.539
 2204POPC   GL129569   1.904  18.299   9.197
 2204POPC   GL229570   2.185  18.428   9.060
 2204POPC   C1A29571   1.807  18.268   8.767
 2204POPC   D2A29572   2.077  18.395   8.411
 2204POPC   C3A29573   1.906  18.322   8.016
 2204POPC   C4A29574   2.025  18.233   7.621
 2204POPC   C1B29575   2.245  18.740   8.767
 2204POPC   C2B29576   2.223  18.957   8.397
 2204POPC   C3B29577   2.272  18.746   8.031
 2204POPC   C4B29578   2.400  18.628   7.640
 2205POPC   NC329579  19.417  12.039   9.568
 2205POPC   PO429580  20.018  12.260   9.558
 2205POPC   GL129581  19.928  12.243   9.136
 2205POPC   GL229582  19.675  12.047   9.105
 2205POPC   C1A29583  19.903  12.434   8.739
 2205POPC   D2A29584  19.762  12.236   8.366
 2205POPC   C3A29585  19.933  12.351   7.982
 2205POPC   C4A29586  20.110  11.973   7.811
 2205POPC   C1B29587  19.843  11.871   8.741
 2205POPC   C2B29588  19.661  11.713   8.355
 2205POPC   C3B29589  19.597  11.872   7.951
 2205POPC   C4B29590  19.395  11.740   7.561
 2206POPC   NC329591  42.440  20.628   9.507
 2206POPC   PO429592  41.932  21.048   9.278
 2206POPC   GL129593  42.250  20.762   9.056
 2206POPC   GL229594  42.648  20.758   9.077
 2206POPC   C1A29595  42.232  20.504   8.681
 2206POPC   D2A29596  42.142  20.251   8.282
 2206POPC   C3A29597  42.436  20.450   7.977
 2206POPC   C4A29598  42.312  20.811   7.745
 2206POPC   C1B29599  42.578  20.942   8.687
 2206POPC   C2B29600  42.452  20.925   8.255
 2206POPC   C3B29601  42.742  21.001   7.917
 2206POPC   C4B29602  42.728  20.993   7.447
 2207POPC   NC329603   4.605   9.821   9.496
 2207POPC   PO429604   3.940   9.666   9.734
 2207POPC   GL129605   4.117   9.689   9.271
 2207POPC   GL229606   4.218  10.021   9.156
 2207POPC   C1A29607   4.364   9.616   8.853
 2207POPC   D2A29608   4.375   9.838   8.434
 2207POPC   C3A29609   4.346   9.597   8.026
 2207POPC   C4A29610   4.592   9.776   7.701
 2207POPC   C1B29611   3.971   9.945   8.771
 2207POPC   C2B29612   3.928  10.129   8.372
 2207POPC   C3B29613   4.192  10.091   8.013
 2207POPC   C4B29614   4.072   9.872   7.679
 2208POPC   NC329615   9.605  42.714   9.363
 2208POPC   PO429616  10.175  42.788   9.750
 2208POPC   GL129617  10.054  42.396   9.331
 2208POPC   GL229618   9.743  42.200   9.329
 2208POPC   C1A29619   9.878  42.410   8.827
 2208POPC   D2A29620   9.764  42.614   8.388
 2208POPC   C3A29621   9.639  42.455   7.971
 2208POPC   C4A29622   9.798  42.196   7.594
 2208POPC   C1B29623   9.555  42.038   8.913
 2208POPC   C2B29624   9.673  42.087   8.441
 2208POPC   C3B29625   9.427  41.992   8.048
 2208POPC   C4B29626   9.312  42.068   7.614
 2209POPC   NC329627  31.322  37.934   9.505
 2209POPC   PO429628  31.760  37.443   9.580
 2209POPC   GL129629  31.531  37.591   9.205
 2209POPC   GL229630  31.536  37.915   9.050
 2209POPC   C1A29631  31.320  37.550   8.795
 2209POPC   D2A29632  31.500  37.799   8.468
 2209POPC   C3A29633  31.412  37.638   8.049
 2209POPC   C4A29634  31.604  37.373   7.715
 2209POPC   C1B29635  31.732  38.176   8.773
 2209POPC   C2B29636  31.813  38.331   8.378
 2209POPC   C3B29637  31.664  38.102   8.041
 2209POPC   C4B29638  31.614  37.885   7.640
 2210POPC   NC329639  38.056   4.418   9.460
 2210POPC   PO429640  37.417   4.392   9.409
 2210POPC   GL129641  37.471   4.310   8.992
 2210POPC   GL229642  37.815   4.234   9.039
 2210POPC   C1A29643  37.640   4.138   8.587
 2210POPC   D2A29644  37.967   4.013   8.294
 2210POPC   C3A29645  37.865   3.853   7.976
 2210POPC   C4A29646  37.784   4.078   7.649
 2210POPC   C1B29647  37.830   4.584   8.745
 2210POPC   C2B29648  37.844   4.516   8.320
 2210POPC   C3B29649  37.689   4.483   7.927
 2210POPC   C4B29650  37.874   4.558   7.512
 2211POPC   NC329651  15.162   2.932   9.418
 2211POPC   PO429652  14.722   2.458   9.469
 2211POPC   GL129653  15.046   2.529   9.131
 2211POPC   GL229654  14.965   2.844   8.965
 2211POPC   C1A29655  15.353   2.612   8.768
 2211POPC   D2A29656  15.522   2.523   8.371
 2211POPC   C3A29657  15.340   2.632   7.979
 2211POPC   C4A29658  14.929   2.517   7.829
 2211POPC   C1B29659  14.765   2.492   8.722
 2211POPC   C2B29660  14.972   2.540   8.348
 2211POPC   C3B29661  14.942   2.947   8.131
 2211POPC   C4B29662  15.027   3.098   7.721
 2212POPC   NC329663  16.336  25.443   9.487
 2212POPC   PO429664  16.941  25.086   9.481
 2212POPC   GL129665  16.745  25.184   9.116
 2212POPC   GL229666  16.656  25.524   9.070
 2212POPC   C1A29667  16.883  25.222   8.680
 2212POPC   D2A29668  16.717  25.082   8.278
 2212POPC   C3A29669  16.956  25.030   7.870
 2212POPC   C4A29670  17.135  24.935   7.447
 2212POPC   C1B29671  16.468  25.547   8.673
 2212POPC   C2B29672  16.636  25.596   8.300
 2212POPC   C3B29673  16.566  25.416   7.908
 2212POPC   C4B29674  16.486  25.689   7.614
 2213POPC   NC329675  27.027  44.110   9.459
 2213POPC   PO429676  26.689  43.509   9.594
 2213POPC   GL129677  26.741  43.778   9.203
 2213POPC   GL229678  27.116  43.733   9.132
 2213POPC   C1A29679  26.791  44.087   8.821
 2213POPC   D2A29680  26.643  44.333   8.436
 2213POPC   C3A29681  26.790  44.232   8.014
 2213POPC   C4A29682  26.836  44.085   7.581
 2213POPC   C1B29683  27.237  43.857   8.711
 2213POPC   C2B29684  27.012  43.898   8.343
 2213POPC   C3B29685  26.870  43.721   7.947
 2213POPC   C4B29686  27.111  43.640   7.571
 2214POPC   NC329687  19.875  39.826   9.496
 2214POPC   PO429688  20.155  40.510   9.386
 2214POPC   GL129689  19.996  40.151   9.123
 2214POPC   GL229690  19.704  39.924   9.036
 2214POPC   C1A29691  20.087  40.053   8.692
 2214POPC   D2A29692  19.992  40.283   8.326
 2214POPC   C3A29693  19.905  40.045   7.945
 2214POPC   C4A29694  19.989  39.764   7.626
 2214POPC   C1B29695  19.779  39.642   8.723
 2214POPC   C2B29696  19.843  39.736   8.338
 2214POPC   C3B29697  19.682  39.557   7.979
 2214POPC   C4B29698  19.458  39.850   7.720
 2215POPC   NC329699   6.257  36.641   9.501
 2215POPC   PO429700   5.667  37.021   9.443
 2215POPC   GL129701   5.668  36.804   9.100
 2215POPC   GL229702   6.022  36.783   9.081
 2215POPC   C1A29703   5.674  36.837   8.690
 2215POPC   D2A29704   5.924  36.903   8.361
 2215POPC   C3A29705   5.690  36.784   8.026
 2215POPC   C4A29706   5.762  36.765   7.628
 2215POPC   C1B29707   6.066  36.498   8.752
 2215POPC   C2B29708   6.182  36.415   8.344
 2215POPC   C3B29709   6.124  36.545   7.935
 2215POPC   C4B29710   6.235  36.566   7.528
 2216POPC   NC329711  26.554  24.551   9.459
 2216POPC   PO429712  27.097  24.984   9.662
 2216POPC   GL129713  27.067  24.820   9.173
 2216POPC   GL229714  26.792  24.617   9.030
 2216POPC   C1A29715  27.143  24.727   8.704
 2216POPC   D2A29716  26.882  24.492   8.413
 2216POPC   C3A29717  26.971  24.494   7.983
 2216POPC   C4A29718  26.951  24.733   7.624
 2216POPC   C1B29719  26.508  24.392   8.760
 2216POPC   C2B29720  26.418  24.252   8.316
 2216POPC   C3B29721  26.481  24.281   7.867
 2216POPC   C4B29722  26.305  24.326   7.414
 2217POPC   NC329723  13.096  36.105   9.419
 2217POPC   PO429724  12.420  36.047   9.352
 2217POPC   GL129725  12.776  35.896   9.079
 2217POPC   GL229726  13.177  35.827   9.003
 2217POPC   C1A29727  12.822  36.037   8.663
 2217POPC   D2A29728  12.773  36.288   8.308
 2217POPC   C3A29729  12.712  36.018   7.967
 2217POPC   C4A29730  12.505  36.169   7.637
 2217POPC   C1B29731  13.326  36.079   8.660
 2217POPC   C2B29732  13.229  36.059   8.205
 2217POPC   C3B29733  13.177  36.148   7.776
 2217POPC   C4B29734  13.263  35.954   7.388
 2218POPC   NC329735  18.113  25.106   9.517
 2218POPC   PO429736  18.674  25.462   9.424
 2218POPC   GL129737  18.315  25.400   9.158
 2218POPC   GL229738  18.009  25.580   9.289
 2218POPC   C1A29739  18.139  25.098   8.857
 2218POPC   D2A29740  18.033  24.861   8.466
 2218POPC   C3A29741  18.047  25.075   8.120
 2218POPC   C4A29742  18.229  24.972   7.760
 2218POPC   C1B29743  17.855  25.568   8.883
 2218POPC   C2B29744  18.055  25.462   8.487
 2218POPC   C3B29745  17.965  25.563   8.060
 2218POPC   C4B29746  18.203  25.516   7.671
 2219POPC   NC329747  36.434  27.102   9.537
 2219POPC   PO429748  35.703  27.059   9.480
 2219POPC   GL129749  36.049  26.984   9.190
 2219POPC   GL229750  36.264  26.666   9.300
 2219POPC   C1A29751  35.973  26.969   8.744
 2219POPC   D2A29752  35.948  26.568   8.518
 2219POPC   C3A29753  35.993  26.642   8.069
 2219POPC   C4A29754  36.166  27.026   7.900
 2219POPC   C1B29755  36.356  26.657   8.862
 2219POPC   C2B29756  36.458  26.593   8.417
 2219POPC   C3B29757  36.397  26.342   8.058
 2219POPC   C4B29758  36.313  26.508   7.664
 2220POPC   NC329759  22.768   7.394   9.451
 2220POPC   PO429760  23.282   6.935   9.453
 2220POPC   GL129761  23.149   7.258   9.120
 2220POPC   GL229762  22.785   7.301   8.956
 2220POPC   C1A29763  23.222   7.418   8.695
 2220POPC   D2A29764  23.172   7.207   8.308
 2220POPC   C3A29765  22.900   7.306   7.998
 2220POPC   C4A29766  22.628   7.066   7.714
 2220POPC   C1B29767  22.765   7.627   8.620
 2220POPC   C2B29768  22.592   7.726   8.198
 2220POPC   C3B29769  22.543   7.565   7.769
 2220POPC   C4B29770  22.428   7.461   7.353
 2221POPC   NC329771  29.364   6.133   9.857
 2221POPC   PO429772  29.094   6.716   9.539
 2221POPC   GL129773  29.103   6.479   9.148
 2221POPC   GL229774  28.819   6.495   8.898
 2221POPC   C1A29775  29.315   6.546   8.747
 2221POPC   D2A29776  29.122   6.445   8.369
 2221POPC   C3A29777  29.325   6.560   7.989
 2221POPC   C4A29778  29.343   6.700   7.580
 2221POPC   C1B29779  28.899   6.886   8.682
 2221POPC   C2B29780  29.049   6.956   8.255
 2221POPC   C3B29781  28.941   6.897   7.821
 2221POPC   C4B29782  28.943   6.917   7.294
 2222POPC   NC329783  16.300   7.772   9.484
 2222POPC   PO429784  16.969   7.842   9.641
 2222POPC   GL129785  16.839   7.613   9.246
 2222POPC   GL229786  16.903   7.236   9.250
 2222POPC   C1A29787  16.583   7.595   8.846
 2222POPC   D2A29788  16.371   7.522   8.435
 2222POPC   C3A29789  16.500   7.776   8.112
 2222POPC   C4A29790  16.890   7.759   7.880
 2222POPC   C1B29791  16.985   7.249   8.801
 2222POPC   C2B29792  16.745   7.116   8.462
 2222POPC   C3B29793  16.658   7.279   8.067
 2222POPC   C4B29794  16.901   7.169   7.697
 2223POPC   NC329795  41.208  25.914   9.617
 2223POPC   PO429796  41.731  26.374   9.539
 2223POPC   GL129797  41.474  26.307   9.192
 2223POPC   GL229798  41.336  25.966   9.127
 2223POPC   C1A29799  41.512  26.292   8.746
 2223POPC   D2A29800  41.617  26.404   8.334
 2223POPC   C3A29801  41.322  26.338   8.000
 2223POPC   C4A29802  41.440  26.009   7.724
 2223POPC   C1B29803  41.136  25.877   8.719
 2223POPC   C2B29804  41.238  25.898   8.262
 2223POPC   C3B29805  41.242  25.590   7.936
 2223POPC   C4B29806  41.151  25.615   7.521
 2224POPC   NC329807  27.940  23.608   9.374
 2224POPC   PO429808  28.571  23.780   9.470
 2224POPC   GL129809  28.340  23.833   9.093
 2224POPC   GL229810  28.337  23.475   9.061
 2224POPC   C1A29811  28.490  23.725   8.659
 2224POPC   D2A29812  28.738  23.651   8.298
 2224POPC   C3A29813  28.463  23.649   7.940
 2224POPC   C4A29814  28.624  23.709   7.539
 2224POPC   C1B29815  28.013  23.575   8.747
 2224POPC   C2B29816  28.049  23.613   8.332
 2224POPC   C3B29817  28.036  23.325   8.017
 2224POPC   C4B29818  28.006  23.363   7.575
 2225POPC   NC329819  30.896  32.726   9.488
 2225POPC   PO429820  30.354  33.095   9.566
 2225POPC   GL129821  30.634  33.170   9.238
 2225POPC   GL229822  30.379  33.368   9.103
 2225POPC   C1A29823  30.819  33.032   8.858
 2225POPC   D2A29824  30.946  32.802   8.473
 2225POPC   C3A29825  30.861  33.078   8.124
 2225POPC   C4A29826  31.018  33.164   7.726
 2225POPC   C1B29827  30.305  32.974   8.863
 2225POPC   C2B29828  30.447  32.907   8.459
 2225POPC   C3B29829  30.467  32.743   8.049
 2225POPC   C4B29830  30.589  32.883   7.646
 2226POPC   NC329831  31.352  26.615   9.556
 2226POPC   PO429832  31.652  26.075   9.644
 2226POPC   GL129833  31.810  25.989   9.231
 2226POPC   GL229834  31.657  26.325   9.185
 2226POPC   C1A29835  31.685  25.991   8.787
 2226POPC   D2A29836  31.506  25.817   8.430
 2226POPC   C3A29837  31.754  25.952   8.111
 2226POPC   C4A29838  31.757  25.915   7.702
 2226POPC   C1B29839  31.264  26.220   8.940
 2226POPC   C2B29840  31.189  26.222   8.495
 2226POPC   C3B29841  31.377  26.269   8.090
 2226POPC   C4B29842  31.479  26.352   7.663
 2227POPC   NC329843   5.667  38.305   9.501
 2227POPC   PO429844   5.760  38.953   9.276
 2227POPC   GL129845   5.966  38.630   9.125
 2227POPC   GL229846   5.642  38.474   9.013
 2227POPC   C1A29847   6.224  38.695   8.768
 2227POPC   D2A29848   6.171  38.553   8.354
 2227POPC   C3A29849   5.928  38.747   8.027
 2227POPC   C4A29850   5.549  38.688   7.747
 2227POPC   C1B29851   5.965  38.211   8.820
 2227POPC   C2B29852   6.036  38.052   8.386
 2227POPC   C3B29853   6.171  38.163   8.010
 2227POPC   C4B29854   6.068  38.411   7.671
 2228POPC   NC329855  40.889  12.378   9.507
 2228POPC   PO429856  40.420  11.858   9.514
 2228POPC   GL129857  40.662  11.948   9.146
 2228POPC   GL229858  40.705  12.286   9.048
 2228POPC   C1A29859  40.700  11.869   8.706
 2228POPC   D2A29860  40.622  11.590   8.365
 2228POPC   C3A29861  40.851  11.755   7.994
 2228POPC   C4A29862  40.792  12.148   7.754
 2228POPC   C1B29863  40.470  12.332   8.693
 2228POPC   C2B29864  40.647  12.345   8.284
 2228POPC   C3B29865  40.358  12.347   7.942
 2228POPC   C4B29866  40.311  12.215   7.527
 2229POPC   NC329867  33.138  24.950   9.605
 2229POPC   PO429868  33.128  24.302   9.527
 2229POPC   GL129869  32.988  24.605   9.237
 2229POPC   GL229870  33.307  24.744   9.155
 2229POPC   C1A29871  32.751  24.625   8.854
 2229POPC   D2A29872  32.843  24.819   8.460
 2229POPC   C3A29873  32.895  24.591   8.104
 2229POPC   C4A29874  32.777  24.556   7.699
 2229POPC   C1B29875  33.237  24.574   8.735
 2229POPC   C2B29876  33.350  24.712   8.329
 2229POPC   C3B29877  33.353  24.555   7.894
 2229POPC   C4B29878  33.404  24.558   7.451
 2230POPC   NC329879  41.240  36.202   9.534
 2230POPC   PO429880  41.837  35.968   9.474
 2230POPC   GL129881  41.626  36.211   9.192
 2230POPC   GL229882  41.694  36.564   9.257
 2230POPC   C1A29883  41.479  36.062   8.796
 2230POPC   D2A29884  41.716  35.877   8.452
 2230POPC   C3A29885  41.530  35.937   8.036
 2230POPC   C4A29886  41.375  36.194   7.704
 2230POPC   C1B29887  41.681  36.574   8.800
 2230POPC   C2B29888  41.825  36.399   8.373
 2230POPC   C3B29889  41.799  36.405   7.893
 2230POPC   C4B29890  41.884  36.264   7.431
 2231POPC   NC329891  17.707  25.884   9.695
 2231POPC   PO429892  17.048  26.076   9.574
 2231POPC   GL129893  17.360  25.933   9.271
 2231POPC   GL229894  17.707  26.069   9.233
 2231POPC   C1A29895  17.397  25.969   8.837
 2231POPC   D2A29896  17.270  26.217   8.515
 2231POPC   C3A29897  17.353  25.997   8.139
 2231POPC   C4A29898  17.253  26.187   7.757
 2231POPC   C1B29899  17.918  26.073   8.833
 2231POPC   C2B29900  17.766  25.906   8.469
 2231POPC   C3B29901  17.884  26.064   8.094
 2231POPC   C4B29902  17.730  25.890   7.724
 2232POPC   NC329903   0.396  34.993   9.256
 2232POPC   PO429904   0.142  35.603   9.351
 2232POPC   GL129905   0.320  35.458   8.967
 2232POPC   GL229906   0.631  35.418   9.033
 2232POPC   C1A29907   0.435  35.198   8.592
 2232POPC   D2A29908   0.157  35.002   8.309
 2232POPC   C3A29909   0.080  35.138   7.924
 2232POPC   C4A29910   0.325  35.105   7.628
 2232POPC   C1B29911   0.864  35.495   8.686
 2232POPC   C2B29912   0.639  35.641   8.390
 2232POPC   C3B29913   0.492  35.417   8.050
 2232POPC   C4B29914   0.488  35.573   7.639
 2233POPC   NC329915  19.222  14.245   9.453
 2233POPC   PO429916  18.850  14.721   9.356
 2233POPC   GL129917  18.876  14.470   9.037
 2233POPC   GL229918  18.749  14.733   8.831
 2233POPC   C1A29919  18.999  14.116   8.785
 2233POPC   D2A29920  19.241  14.206   8.406
 2233POPC   C3A29921  19.027  14.123   8.043
 2233POPC   C4A29922  18.794  14.331   7.762
 2233POPC   C1B29923  19.170  14.853   8.743
 2233POPC   C2B29924  19.353  14.724   8.362
 2233POPC   C3B29925  19.151  14.627   8.012
 2233POPC   C4B29926  18.800  14.835   7.878
 2234POPC   NC329927  42.942  35.121   9.505
 2234POPC   PO429928  43.488  35.574   9.609
 2234POPC   GL129929  43.276  35.418   9.204
 2234POPC   GL229930  42.921  35.520   9.144
 2234POPC   C1A29931  43.387  35.436   8.755
 2234POPC   D2A29932  43.451  35.677   8.354
 2234POPC   C3A29933  43.326  35.466   7.974
 2234POPC   C4A29934  42.957  35.406   7.700
 2234POPC   C1B29935  42.913  35.215   8.804
 2234POPC   C2B29936  43.038  35.269   8.381
 2234POPC   C3B29937  43.088  35.028   8.021
 2234POPC   C4B29938  42.814  34.916   7.715
 2235POPC   NC329939  22.724  25.882   9.580
 2235POPC   PO429940  23.192  26.190   9.255
 2235POPC   GL129941  22.888  26.072   9.010
 2235POPC   GL229942  22.639  25.848   9.088
 2235POPC   C1A29943  22.992  26.113   8.590
 2235POPC   D2A29944  22.806  26.340   8.261
 2235POPC   C3A29945  22.983  26.247   7.872
 2235POPC   C4A29946  23.172  26.511   7.562
 2235POPC   C1B29947  22.544  25.801   8.651
 2235POPC   C2B29948  22.785  25.778   8.263
 2235POPC   C3B29949  22.792  25.772   7.832
 2235POPC   C4B29950  23.016  25.847   7.479
 2236POPC   NC329951  42.969  30.369   9.537
 2236POPC   PO429952  43.393  30.806   9.493
 2236POPC   GL129953  43.106  30.838   9.178
 2236POPC   GL229954  42.943  30.548   9.063
 2236POPC   C1A29955  43.238  30.783   8.745
 2236POPC   D2A29956  43.174  30.546   8.345
 2236POPC   C3A29957  43.021  30.790   7.987
 2236POPC   C4A29958  43.396  30.853   7.759
 2236POPC   C1B29959  42.787  30.406   8.667
 2236POPC   C2B29960  42.685  30.395   8.252
 2236POPC   C3B29961  42.943  30.280   7.922
 2236POPC   C4B29962  43.084  30.460   7.531
 2237POPC   NC329963  37.687  24.512   9.515
 2237POPC   PO429964  38.263  24.766   9.325
 2237POPC   GL129965  37.995  24.511   9.068
 2237POPC   GL229966  37.684  24.692   9.053
 2237POPC   C1A29967  37.733  24.265   8.783
 2237POPC   D2A29968  37.560  24.541   8.479
 2237POPC   C3A29969  37.761  24.547   8.071
 2237POPC   C4A29970  37.907  24.386   7.677
 2237POPC   C1B29971  37.404  24.925   8.834
 2237POPC   C2B29972  37.174  24.916   8.481
 2237POPC   C3B29973  37.272  24.745   8.102
 2237POPC   C4B29974  37.528  24.914   7.756
 2238POPC   NC329975   8.227  12.953   9.349
 2238POPC   PO429976   7.672  12.682   9.699
 2238POPC   GL129977   7.855  12.645   9.194
 2238POPC   GL229978   7.858  12.974   8.984
 2238POPC   C1A29979   8.188  12.564   8.767
 2238POPC   D2A29980   8.409  12.737   8.376
 2238POPC   C3A29981   8.102  12.865   8.084
 2238POPC   C4A29982   8.129  12.824   7.642
 2238POPC   C1B29983   8.252  13.069   8.708
 2238POPC   C2B29984   8.418  13.264   8.313
 2238POPC   C3B29985   8.325  13.266   7.857
 2238POPC   C4B29986   8.173  13.286   7.420
 2239POPC   NC329987  29.574  16.118   9.529
 2239POPC   PO429988  30.120  16.049   9.762
 2239POPC   GL129989  30.143  16.038   9.269
 2239POPC   GL229990  30.128  15.724   9.108
 2239POPC   C1A29991  29.938  16.090   8.824
 2239POPC   D2A29992  29.723  16.299   8.482
 2239POPC   C3A29993  29.778  16.049   8.127
 2239POPC   C4A29994  29.783  16.190   7.708
 2239POPC   C1B29995  30.312  15.742   8.743
 2239POPC   C2B29996  30.067  15.695   8.413
 2239POPC   C3B29997  30.154  15.689   8.009
 2239POPC   C4B29998  29.799  15.699   7.734
 2240POPC   NC329999  26.302  33.367   9.366
 2240POPC   PO430000  25.832  33.716   9.636
 2240POPC   GL130001  25.999  33.800   9.160
 2240POPC   GL230002  26.254  33.956   9.082
 2240POPC   C1A30003  26.118  33.651   8.711
 2240POPC   D2A30004  26.419  33.596   8.384
 2240POPC   C3A30005  26.284  33.733   7.992
 2240POPC   C4A30006  25.941  33.587   7.724
 2240POPC   C1B30007  25.845  34.068   8.749
 2240POPC   C2B30008  25.791  34.288   8.350
 2240POPC   C3B30009  25.915  34.120   7.939
 2240POPC   C4B30010  26.206  34.024   7.580
 2241POPC   NC330011   0.183   6.301   9.625
 2241POPC   PO430012   0.600   5.718   9.486
 2241POPC   GL130013   0.712   5.698   9.100
 2241POPC   GL230014   0.388   5.884   9.030
 2241POPC   C1A30015   0.651   5.580   8.711
 2241POPC   D2A30016   0.549   5.815   8.357
 2241POPC   C3A30017   0.653   5.658   7.972
 2241POPC   C4A30018   0.463   5.804   7.613
 2241POPC   C1B30019   0.227   6.090   8.649
 2241POPC   C2B30020   0.236   6.211   8.204
 2241POPC   C3B30021   0.159   6.254   7.756
 2241POPC   C4B30022  44.942   6.094   7.373
 2242POPC   NC330023  42.309  42.632   9.598
 2242POPC   PO430024  42.850  43.059   9.602
 2242POPC   GL130025  42.549  42.999   9.279
 2242POPC   GL230026  42.674  42.673   9.205
 2242POPC   C1A30027  42.219  42.949   8.940
 2242POPC   D2A30028  42.263  42.866   8.454
 2242POPC   C3A30029  42.244  43.152   8.079
 2242POPC   C4A30030  42.360  43.114   7.652
 2242POPC   C1B30031  42.609  42.665   8.804
 2242POPC   C2B30032  42.774  42.764   8.413
 2242POPC   C3B30033  42.677  42.776   7.987
 2242POPC   C4B30034  42.475  42.627   7.608
 2243POPC   NC330035  32.471  20.777   9.339
 2243POPC   PO430036  33.095  20.348   9.385
 2243POPC   GL130037  32.876  20.558   9.088
 2243POPC   GL230038  33.008  20.841   9.157
 2243POPC   C1A30039  32.770  20.668   8.682
 2243POPC   D2A30040  32.967  20.832   8.331
 2243POPC   C3A30041  32.855  20.786   7.923
 2243POPC   C4A30042  33.031  20.469   7.719
 2243POPC   C1B30043  33.254  20.902   8.774
 2243POPC   C2B30044  33.478  20.870   8.354
 2243POPC   C3B30045  33.404  20.766   7.909
 2243POPC   C4B30046  33.256  20.911   7.506
 2244POPC   NC330047  18.880  43.180   9.469
 2244POPC   PO430048  19.441  42.712   9.427
 2244POPC   GL130049  19.020  42.741   9.238
 2244POPC   GL230050  19.093  43.087   9.028
 2244POPC   C1A30051  18.790  42.751   8.873
 2244POPC   D2A30052  19.051  42.836   8.543
 2244POPC   C3A30053  18.844  43.000   8.200
 2244POPC   C4A30054  19.149  43.047   7.889
 2244POPC   C1B30055  18.791  43.257   8.692
 2244POPC   C2B30056  18.778  43.528   8.275
 2244POPC   C3B30057  19.086  43.542   7.889
 2244POPC   C4B30058  19.463  43.349   7.621
 2245POPC   NC330059   5.895  29.779   9.450
 2245POPC   PO430060   6.052  29.140   9.539
 2245POPC   GL130061   5.997  29.099   9.130
 2245POPC   GL230062   5.637  29.061   9.195
 2245POPC   C1A30063   5.980  29.309   8.742
 2245POPC   D2A30064   6.081  29.142   8.334
 2245POPC   C3A30065   6.121  29.394   7.988
 2245POPC   C4A30066   6.192  29.221   7.601
 2245POPC   C1B30067   5.565  29.005   8.779
 2245POPC   C2B30068   5.637  28.868   8.371
 2245POPC   C3B30069   5.747  28.981   7.960
 2245POPC   C4B30070   5.577  28.819   7.613
 2246POPC   NC330071  16.255  39.036   9.480
 2246POPC   PO430072  15.848  39.571   9.442
 2246POPC   GL130073  15.995  39.308   9.100
 2246POPC   GL230074  15.883  38.912   9.164
 2246POPC   C1A30075  16.102  39.433   8.647
 2246POPC   D2A30076  16.000  39.331   8.188
 2246POPC   C3A30077  16.200  39.485   7.822
 2246POPC   C4A30078  16.031  39.721   7.436
 2246POPC   C1B30079  16.192  38.884   8.842
 2246POPC   C2B30080  16.192  38.949   8.445
 2246POPC   C3B30081  16.347  38.986   8.022
 2246POPC   C4B30082  16.238  38.988   7.620
 2247POPC   NC330083  30.562  16.089   9.607
 2247POPC   PO430084  31.092  16.437   9.320
 2247POPC   GL130085  30.949  16.038   9.081
 2247POPC   GL230086  30.633  15.883   9.122
 2247POPC   C1A30087  30.814  15.871   8.641
 2247POPC   D2A30088  30.730  16.137   8.264
 2247POPC   C3A30089  30.731  15.970   7.838
 2247POPC   C4A30090  30.981  16.076   7.469
 2247POPC   C1B30091  30.476  16.210   8.848
 2247POPC   C2B30092  30.246  16.210   8.424
 2247POPC   C3B30093  30.252  16.183   7.981
 2247POPC   C4B30094  30.246  15.967   7.593
 2248POPC   NC330095  29.168  15.033   9.574
 2248POPC   PO430096  29.421  15.673   9.541
 2248POPC   GL130097  29.172  15.455   9.182
 2248POPC   GL230098  28.975  15.130   9.105
 2248POPC   C1A30099  29.204  15.335   8.733
 2248POPC   D2A30100  28.991  15.155   8.421
 2248POPC   C3A30101  29.201  15.300   8.084
 2248POPC   C4A30102  29.421  15.346   7.729
 2248POPC   C1B30103  28.700  14.918   8.779
 2248POPC   C2B30104  28.745  14.713   8.354
 2248POPC   C3B30105  28.983  14.860   7.990
 2248POPC   C4B30106  28.899  15.176   7.683
 2249POPC   NC330107  35.019  44.813   9.687
 2249POPC   PO430108  34.509  44.417   9.541
 2249POPC   GL130109  34.417  44.541   9.160
 2249POPC   GL230110  34.686  44.771   9.144
 2249POPC   C1A30111  34.397  44.351   8.754
 2249POPC   D2A30112  34.546  44.111   8.409
 2249POPC   C3A30113  34.373  44.357   8.101
 2249POPC   C4A30114  34.570  44.521   7.748
 2249POPC   C1B30115  34.737   0.041   8.823
 2249POPC   C2B30116  34.917   0.132   8.479
 2249POPC   C3B30117  34.906  44.876   8.143
 2249POPC   C4B30118  34.868  44.946   7.732
 2250POPC   NC330119  35.543   8.823   9.565
 2250POPC   PO430120  34.873   8.861   9.321
 2250POPC   GL130121  35.257   9.014   9.176
 2250POPC   GL230122  35.505   8.741   9.073
 2250POPC   C1A30123  35.411   9.114   8.756
 2250POPC   D2A30124  35.197   8.944   8.402
 2250POPC   C3A30125  35.322   9.086   7.980
 2250POPC   C4A30126  35.149   9.277   7.624
 2250POPC   C1B30127  35.461   8.585   8.651
 2250POPC   C2B30128  35.565   8.688   8.185
 2250POPC   C3B30129  35.733   8.828   7.750
 2250POPC   C4B30130  35.664   8.610   7.314
 2251POPC   NC330131   2.220  17.298   9.453
 2251POPC   PO430132   1.740  17.535   9.063
 2251POPC   GL130133   2.177  17.538   9.009
 2251POPC   GL230134   2.200  17.894   9.068
 2251POPC   C1A30135   2.378  17.352   8.658
 2251POPC   D2A30136   2.023  17.393   8.414
 2251POPC   C3A30137   2.033  17.388   7.995
 2251POPC   C4A30138   1.877  17.345   7.580
 2251POPC   C1B30139   2.154  17.887   8.629
 2251POPC   C2B30140   2.409  17.759   8.300
 2251POPC   C3B30141   2.375  17.764   7.868
 2251POPC   C4B30142   2.185  17.735   7.502
 2252POPC   NC330143  19.376  28.817   9.336
 2252POPC   PO430144  18.616  28.783   9.458
 2252POPC   GL130145  18.887  28.986   9.153
 2252POPC   GL230146  18.987  29.336   9.201
 2252POPC   C1A30147  19.106  28.958   8.759
 2252POPC   D2A30148  18.986  28.835   8.353
 2252POPC   C3A30149  18.830  29.141   8.102
 2252POPC   C4A30150  18.946  28.929   7.748
 2252POPC   C1B30151  19.143  29.461   8.825
 2252POPC   C2B30152  19.228  29.339   8.407
 2252POPC   C3B30153  19.312  29.273   7.978
 2252POPC   C4B30154  19.090  29.381   7.632
 2253POPC   NC330155  33.941  16.756   9.847
 2253POPC   PO430156  33.731  17.175   9.329
 2253POPC   GL130157  33.804  17.529   9.102
 2253POPC   GL230158  34.140  17.728   9.159
 2253POPC   C1A30159  33.504  17.658   8.764
 2253POPC   D2A30160  33.577  17.509   8.329
 2253POPC   C3A30161  33.486  17.744   7.943
 2253POPC   C4A30162  33.605  17.646   7.460
 2253POPC   C1B30163  34.153  17.545   8.732
 2253POPC   C2B30164  34.054  17.672   8.301
 2253POPC   C3B30165  33.972  17.649   7.853
 2253POPC   C4B30166  34.117  17.660   7.458
 2254POPC   NC330167  10.984  10.531   9.508
 2254POPC   PO430168  11.638  10.298   9.492
 2254POPC   GL130169  11.457  10.320   9.090
 2254POPC   GL230170  11.106  10.261   9.067
 2254POPC   C1A30171  11.336  10.575   8.733
 2254POPC   D2A30172  11.564  10.884   8.460
 2254POPC   C3A30173  11.532  10.773   8.020
 2254POPC   C4A30174  11.148  10.713   7.758
 2254POPC   C1B30175  10.834  10.292   8.699
 2254POPC   C2B30176  10.807  10.216   8.258
 2254POPC   C3B30177  11.196  10.246   8.050
 2254POPC   C4B30178  11.503  10.345   7.745
 2255POPC   NC330179  10.683  30.432   9.538
 2255POPC   PO430180  10.335  30.893   9.882
 2255POPC   GL130181  10.577  30.847   9.295
 2255POPC   GL230182  10.817  31.080   9.126
 2255POPC   C1A30183  10.697  30.608   8.880
 2255POPC   D2A30184  10.505  30.470   8.437
 2255POPC   C3A30185  10.630  30.618   8.003
 2255POPC   C4A30186  10.512  30.584   7.503
 2255POPC   C1B30187  11.035  30.962   8.748
 2255POPC   C2B30188  11.040  30.696   8.393
 2255POPC   C3B30189  11.046  30.939   8.042
 2255POPC   C4B30190  10.882  30.900   7.674
 2256POPC   NC330191  40.503  33.400   9.594
 2256POPC   PO430192  40.535  32.767   9.462
 2256POPC   GL130193  40.723  32.766   9.058
 2256POPC   GL230194  41.102  32.858   9.050
 2256POPC   C1A30195  40.478  32.931   8.760
 2256POPC   D2A30196  40.490  33.171   8.414
 2256POPC   C3A30197  40.369  32.907   8.083
 2256POPC   C4A30198  40.536  32.809   7.700
 2256POPC   C1B30199  40.977  33.031   8.626
 2256POPC   C2B30200  40.894  33.005   8.158
 2256POPC   C3B30201  41.027  32.819   7.800
 2256POPC   C4B30202  41.331  32.472   7.791
 2257POPC   NC330203   4.204  29.553   9.580
 2257POPC   PO430204   4.178  30.161   9.541
 2257POPC   GL130205   4.198  29.918   9.177
 2257POPC   GL230206   4.383  29.656   9.090
 2257POPC   C1A30207   4.041  29.925   8.775
 2257POPC   D2A30208   4.137  29.792   8.366
 2257POPC   C3A30209   4.127  30.120   8.098
 2257POPC   C4A30210   4.234  30.258   7.717
 2257POPC   C1B30211   4.550  29.978   8.787
 2257POPC   C2B30212   4.621  29.972   8.348
 2257POPC   C3B30213   4.525  29.845   7.913
 2257POPC   C4B30214   4.804  29.804   7.568
 2258POPC   NC330215  31.152   8.205   9.384
 2258POPC   PO430216  30.556   8.347   9.534
 2258POPC   GL130217  30.640   8.250   9.123
 2258POPC   GL230218  30.828   7.965   9.035
 2258POPC   C1A30219  30.565   8.380   8.723
 2258POPC   D2A30220  30.496   8.344   8.297
 2258POPC   C3A30221  30.691   8.475   7.912
 2258POPC   C4A30222  30.801   8.543   7.474
 2258POPC   C1B30223  30.693   7.914   8.600
 2258POPC   C2B30224  30.853   8.002   8.162
 2258POPC   C3B30225  30.688   7.830   7.769
 2258POPC   C4B30226  30.479   7.715   7.368
 2259POPC   NC330227  21.125  33.463   9.512
 2259POPC   PO430228  21.247  32.773   9.691
 2259POPC   GL130229  21.352  32.763   9.272
 2259POPC   GL230230  21.419  33.107   9.199
 2259POPC   C1A30231  21.248  32.728   8.858
 2259POPC   D2A30232  21.162  33.070   8.596
 2259POPC   C3A30233  21.376  33.101   8.227
 2259POPC   C4A30234  21.327  33.229   7.812
 2259POPC   C1B30235  21.476  33.390   8.845
 2259POPC   C2B30236  21.684  33.465   8.441
 2259POPC   C3B30237  21.795  33.328   8.025
 2259POPC   C4B30238  21.702  33.475   7.592
 2260POPC   NC330239   9.961   8.043   9.578
 2260POPC   PO430240   9.298   8.249   9.561
 2260POPC   GL130241   9.667   8.220   9.196
 2260POPC   GL230242   9.922   7.974   9.088
 2260POPC   C1A30243   9.847   8.403   8.814
 2260POPC   D2A30244   9.830   8.272   8.407
 2260POPC   C3A30245   9.597   8.422   8.102
 2260POPC   C4A30246   9.817   8.370   7.765
 2260POPC   C1B30247  10.050   7.912   8.693
 2260POPC   C2B30248   9.885   7.765   8.315
 2260POPC   C3B30249   9.690   7.923   7.986
 2260POPC   C4B30250   9.975   7.879   7.683
 2261POPC   NC330251  30.448  18.434   9.465
 2261POPC   PO430252  31.044  18.035   9.489
 2261POPC   GL130253  30.789  18.233   9.142
 2261POPC   GL230254  30.456  18.092   9.046
 2261POPC   C1A30255  30.861  18.372   8.721
 2261POPC   D2A30256  30.744  18.205   8.299
 2261POPC   C3A30257  30.948  18.328   7.893
 2261POPC   C4A30258  30.871  18.374   7.439
 2261POPC   C1B30259  30.337  18.323   8.661
 2261POPC   C2B30260  30.293  18.593   8.310
 2261POPC   C3B30261  30.398  18.446   7.943
 2261POPC   C4B30262  30.496  18.015   7.869
 2262POPC   NC330263   3.762  30.082   9.369
 2262POPC   PO430264   3.366  29.583   9.468
 2262POPC   GL130265   3.550  29.690   9.072
 2262POPC   GL230266   3.510  30.042   8.929
 2262POPC   C1A30267   3.667  29.616   8.646
 2262POPC   D2A30268   3.664  30.042   8.424
 2262POPC   C3A30269   3.608  30.065   7.991
 2262POPC   C4A30270   3.888  29.895   7.688
 2262POPC   C1B30271   3.188  30.161   8.619
 2262POPC   C2B30272   3.118  30.329   8.207
 2262POPC   C3B30273   3.208  30.346   7.767
 2262POPC   C4B30274   3.562  30.322   7.527
 2263POPC   NC330275   3.336  23.575   9.525
 2263POPC   PO430276   4.006  23.929   9.574
 2263POPC   GL130277   3.732  23.817   9.224
 2263POPC   GL230278   3.364  23.849   9.107
 2263POPC   C1A30279   3.733  23.637   8.819
 2263POPC   D2A30280   3.641  23.882   8.473
 2263POPC   C3A30281   3.843  23.666   8.164
 2263POPC   C4A30282   3.770  23.529   7.772
 2263POPC   C1B30283   3.211  23.604   8.762
 2263POPC   C2B30284   3.322  23.523   8.321
 2263POPC   C3B30285   3.392  23.820   7.964
 2263POPC   C4B30286   3.350  23.728   7.506
 2264POPC   NC330287   7.974  18.151   9.451
 2264POPC   PO430288   8.395  18.662   9.482
 2264POPC   GL130289   8.105  18.551   9.112
 2264POPC   GL230290   8.125  18.168   8.978
 2264POPC   C1A30291   8.106  18.548   8.652
 2264POPC   D2A30292   8.348  18.241   8.468
 2264POPC   C3A30293   8.440  18.341   8.057
 2264POPC   C4A30294   8.174  18.525   7.796
 2264POPC   C1B30295   7.881  18.074   8.627
 2264POPC   C2B30296   7.689  18.299   8.318
 2264POPC   C3B30297   7.806  18.210   7.931
 2264POPC   C4B30298   8.162  18.012   7.773
 2265POPC   NC330299  25.046   2.690   9.497
 2265POPC   PO430300  25.630   2.492   9.305
 2265POPC   GL130301  25.293   2.695   9.040
 2265POPC   GL230302  24.916   2.876   9.066
 2265POPC   C1A30303  25.322   2.547   8.638
 2265POPC   D2A30304  25.578   2.545   8.330
 2265POPC   C3A30305  25.451   2.744   7.998
 2265POPC   C4A30306  25.470   2.520   7.621
 2265POPC   C1B30307  24.970   2.955   8.694
 2265POPC   C2B30308  24.973   2.778   8.338
 2265POPC   C3B30309  24.928   2.900   7.971
 2265POPC   C4B30310  25.197   2.947   7.618
 2266POPC   NC330311   0.810  28.370   9.445
 2266POPC   PO430312   1.459  28.426   9.377
 2266POPC   GL130313   1.132  28.446   9.047
 2266POPC   GL230314   0.958  28.739   9.120
 2266POPC   C1A30315   0.813  28.159   8.820
 2266POPC   D2A30316   0.809  27.896   8.445
 2266POPC   C3A30317   0.806  28.226   8.124
 2266POPC   C4A30318   0.978  28.386   7.737
 2266POPC   C1B30319   0.989  28.871   8.684
 2266POPC   C2B30320   1.095  28.752   8.229
 2266POPC   C3B30321   1.391  28.626   7.885
 2266POPC   C4B30322   1.277  28.660   7.414
 2267POPC   NC330323   8.049  12.070   9.478
 2267POPC   PO430324   8.472  12.556   9.332
 2267POPC   GL130325   8.310  12.173   9.067
 2267POPC   GL230326   7.916  12.175   8.985
 2267POPC   C1A30327   8.264  11.973   8.653
 2267POPC   D2A30328   8.354  12.235   8.310
 2267POPC   C3A30329   8.206  12.221   7.893
 2267POPC   C4A30330   8.439  12.078   7.504
 2267POPC   C1B30331   7.815  11.778   8.779
 2267POPC   C2B30332   7.791  11.554   8.400
 2267POPC   C3B30333   7.869  11.615   7.979
 2267POPC   C4B30334   7.967  11.883   7.602
 2268POPC   NC330335   0.029  41.344   9.351
 2268POPC   PO430336  44.327  41.508   9.400
 2268POPC   GL130337  44.618  41.479   9.072
 2268POPC   GL230338  44.647  41.129   9.054
 2268POPC   C1A30339  44.895  41.408   8.700
 2268POPC   D2A30340  44.795  41.198   8.334
 2268POPC   C3A30341  44.754  41.552   8.088
 2268POPC   C4A30342   0.064  41.707   7.833
 2268POPC   C1B30343  44.225  41.098   8.836
 2268POPC   C2B30344  44.108  41.141   8.403
 2268POPC   C3B30345  44.405  41.080   8.045
 2268POPC   C4B30346  44.751  41.185   7.755
 2269POPC   NC330347  20.109  30.429   9.388
 2269POPC   PO430348  19.741  30.925   9.740
 2269POPC   GL130349  19.763  30.881   9.229
 2269POPC   GL230350  19.527  30.714   9.044
 2269POPC   C1A30351  19.999  30.751   8.829
 2269POPC   D2A30352  20.137  30.561   8.446
 2269POPC   C3A30353  19.902  30.664   8.086
 2269POPC   C4A30354  20.066  30.555   7.692
 2269POPC   C1B30355  19.576  30.668   8.598
 2269POPC   C2B30356  19.387  30.823   8.298
 2269POPC   C3B30357  19.322  30.584   8.009
 2269POPC   C4B30358  19.574  30.594   7.689
 2270POPC   NC330359  31.682  14.570   9.490
 2270POPC   PO430360  31.235  14.119   9.671
 2270POPC   GL130361  31.220  14.384   9.266
 2270POPC   GL230362  31.525  14.305   9.087
 2270POPC   C1A30363  31.196  14.557   8.821
 2270POPC   D2A30364  31.365  14.346   8.463
 2270POPC   C3A30365  31.252  14.534   8.094
 2270POPC   C4A30366  31.164  14.456   7.678
 2270POPC   C1B30367  31.775  14.156   8.712
 2270POPC   C2B30368  31.879  14.374   8.317
 2270POPC   C3B30369  31.783  14.688   7.964
 2270POPC   C4B30370  31.641  14.597   7.585
 2271POPC   NC330371  18.829  21.786   9.403
 2271POPC   PO430372  19.338  21.246   9.445
 2271POPC   GL130373  19.136  21.436   9.098
 2271POPC   GL230374  18.787  21.383   9.056
 2271POPC   C1A30375  19.140  21.686   8.728
 2271POPC   D2A30376  19.014  21.831   8.334
 2271POPC   C3A30377  18.960  21.520   8.037
 2271POPC   C4A30378  18.996  21.334   7.652
 2271POPC   C1B30379  18.626  21.064   8.746
 2271POPC   C2B30380  18.566  21.237   8.297
 2271POPC   C3B30381  18.507  21.283   7.819
 2271POPC   C4B30382  18.627  21.097   7.393
 2272POPC   NC330383  43.807  26.530   9.473
 2272POPC   PO430384  44.398  26.717   9.628
 2272POPC   GL130385  44.181  26.757   9.198
 2272POPC   GL230386  43.863  26.989   9.260
 2272POPC   C1A30387  44.064  26.613   8.737
 2272POPC   D2A30388  44.209  26.711   8.282
 2272POPC   C3A30389  43.862  26.677   7.974
 2272POPC   C4A30390  43.426  26.502   7.864
 2272POPC   C1B30391  43.935  27.119   8.860
 2272POPC   C2B30392  43.830  27.039   8.462
 2272POPC   C3B30393  43.952  27.171   8.085
 2272POPC   C4B30394  43.818  27.119   7.697
 2273POPC   NC330395  44.317  15.303   9.504
 2273POPC   PO430396  44.754  14.757   9.452
 2273POPC   GL130397  44.489  14.924   9.147
 2273POPC   GL230398  44.616  15.270   9.110
 2273POPC   C1A30399  44.426  15.048   8.715
 2273POPC   D2A30400  44.689  15.200   8.356
 2273POPC   C3A30401  44.570  15.129   7.914
 2273POPC   C4A30402  44.850  14.925   7.608
 2273POPC   C1B30403  44.376  15.544   8.859
 2273POPC   C2B30404  44.397  15.607   8.440
 2273POPC   C3B30405  44.430  15.629   7.985
 2273POPC   C4B30406  44.336  15.440   7.569
 2274POPC   NC330407  23.973  35.725   9.291
 2274POPC   PO430408  23.561  35.240   9.614
 2274POPC   GL130409  23.735  35.276   9.138
 2274POPC   GL230410  24.012  35.471   8.870
 2274POPC   C1A30411  23.666  35.169   8.693
 2274POPC   D2A30412  23.837  35.295   8.292
 2274POPC   C3A30413  23.622  35.574   8.025
 2274POPC   C4A30414  23.717  35.410   7.640
 2274POPC   C1B30415  24.139  35.045   8.896
 2274POPC   C2B30416  24.075  34.892   8.506
 2274POPC   C3B30417  24.242  35.008   8.119
 2274POPC   C4B30418  24.150  35.207   7.753
 2275POPC   NC330419  33.188  41.093   9.499
 2275POPC   PO430420  32.571  40.971   9.594
 2275POPC   GL130421  32.801  40.965   9.205
 2275POPC   GL230422  33.142  40.778   9.090
 2275POPC   C1A30423  32.764  40.947   8.822
 2275POPC   D2A30424  32.995  40.840   8.524
 2275POPC   C3A30425  32.896  40.917   8.144
 2275POPC   C4A30426  32.743  40.885   7.730
 2275POPC   C1B30427  33.446  40.863   8.706
 2275POPC   C2B30428  33.400  40.730   8.226
 2275POPC   C3B30429  33.288  40.929   7.811
 2275POPC   C4B30430  33.292  40.950   7.364
 2276POPC   NC330431   1.805  14.182   9.360
 2276POPC   PO430432   2.463  14.186   9.635
 2276POPC   GL130433   2.303  14.457   9.212
 2276POPC   GL230434   2.014  14.677   9.272
 2276POPC   C1A30435   2.256  14.369   8.757
 2276POPC   D2A30436   1.944  14.164   8.510
 2276POPC   C3A30437   2.068  14.214   8.100
 2276POPC   C4A30438   2.376  14.137   7.764
 2276POPC   C1B30439   1.856  14.672   8.860
 2276POPC   C2B30440   1.983  14.697   8.460
 2276POPC   C3B30441   1.913  14.713   8.040
 2276POPC   C4B30442   2.124  14.570   7.748
 2277POPC   NC330443  18.262   3.777   9.541
 2277POPC   PO430444  18.098   3.192   9.529
 2277POPC   GL130445  18.034   3.211   9.109
 2277POPC   GL230446  18.290   3.455   9.100
 2277POPC   C1A30447  17.973   3.491   8.713
 2277POPC   D2A30448  18.128   3.728   8.357
 2277POPC   C3A30449  17.911   3.540   8.000
 2277POPC   C4A30450  17.990   3.160   7.754
 2277POPC   C1B30451  18.452   3.267   8.731
 2277POPC   C2B30452  18.555   3.408   8.337
 2277POPC   C3B30453  18.407   3.552   7.921
 2277POPC   C4B30454  18.588   3.485   7.479
 2278POPC   NC330455  32.357  40.188   9.455
 2278POPC   PO430456  32.061  39.589   9.519
 2278POPC   GL130457  32.097  39.850   9.112
 2278POPC   GL230458  31.995  40.195   9.076
 2278POPC   C1A30459  32.419  40.056   8.804
 2278POPC   D2A30460  32.612  40.125   8.406
 2278POPC   C3A30461  32.479  39.988   8.043
 2278POPC   C4A30462  32.094  39.929   7.872
 2278POPC   C1B30463  32.098  40.439   8.687
 2278POPC   C2B30464  32.122  40.321   8.245
 2278POPC   C3B30465  32.069  40.443   7.802
 2278POPC   C4B30466  31.943  40.366   7.353
 2279POPC   NC330467  35.725  40.425   9.424
 2279POPC   PO430468  35.959  39.705   9.572
 2279POPC   GL130469  36.068  39.828   9.204
 2279POPC   GL230470  35.791  40.010   9.135
 2279POPC   C1A30471  36.100  39.720   8.800
 2279POPC   D2A30472  36.058  39.941   8.435
 2279POPC   C3A30473  36.198  39.831   8.059
 2279POPC   C4A30474  36.454  40.196   7.893
 2279POPC   C1B30475  35.903  40.283   8.796
 2279POPC   C2B30476  35.765  40.371   8.402
 2279POPC   C3B30477  35.867  40.201   7.994
 2279POPC   C4B30478  35.962  39.962   7.595
 2280POPC   NC330479   3.179  44.378   9.886
 2280POPC   PO430480   3.469  44.889   9.536
 2280POPC   GL130481   3.517  44.858   9.128
 2280POPC   GL230482   3.750  44.586   9.169
 2280POPC   C1A30483   3.509  44.650   8.735
 2280POPC   D2A30484   3.805  44.475   8.463
 2280POPC   C3A30485   3.659  44.487   8.079
 2280POPC   C4A30486   3.539  44.337   7.714
 2280POPC   C1B30487   3.975  44.818   8.804
 2280POPC   C2B30488   4.131  44.974   8.407
 2280POPC   C3B30489   4.014   0.060   7.977
 2280POPC   C4B30490   3.916  44.721   7.707
 2281POPC   NC330491  38.855  33.483   9.381
 2281POPC   PO430492  38.706  32.891   9.595
 2281POPC   GL130493  38.441  32.862   9.247
 2281POPC   GL230494  38.507  33.184   9.138
 2281POPC   C1A30495  38.538  32.777   8.782
 2281POPC   D2A30496  38.735  32.813   8.354
 2281POPC   C3A30497  38.443  32.739   8.042
 2281POPC   C4A30498  38.246  32.970   7.704
 2281POPC   C1B30499  38.429  33.397   8.757
 2281POPC   C2B30500  38.436  33.232   8.326
 2281POPC   C3B30501  38.645  33.211   7.928
 2281POPC   C4B30502  38.551  33.332   7.510
 2282POPC   NC330503  28.365  21.953   9.558
 2282POPC   PO430504  28.181  22.614   9.709
 2282POPC   GL130505  28.221  22.353   9.258
 2282POPC   GL230506  28.560  22.274   9.184
 2282POPC   C1A30507  28.248  22.158   8.786
 2282POPC   D2A30508  28.157  22.031   8.332
 2282POPC   C3A30509  28.207  22.134   7.837
 2282POPC   C4A30510  28.084  21.972   7.381
 2282POPC   C1B30511  28.765  22.167   8.786
 2282POPC   C2B30512  28.623  22.245   8.401
 2282POPC   C3B30513  28.703  22.089   8.002
 2282POPC   C4B30514  28.727  22.281   7.593
 2283POPC   NC330515  21.134  34.974   9.379
 2283POPC   PO430516  21.607  34.480   9.562
 2283POPC   GL130517  21.549  34.514   9.130
 2283POPC   GL230518  21.300  34.704   8.987
 2283POPC   C1A30519  21.597  34.307   8.754
 2283POPC   D2A30520  21.742  34.494   8.380
 2283POPC   C3A30521  21.445  34.499   8.051
 2283POPC   C4A30522  21.531  34.495   7.641
 2283POPC   C1B30523  21.255  34.648   8.541
 2283POPC   C2B30524  21.246  34.957   8.192
 2283POPC   C3B30525  21.182  34.879   7.761
 2283POPC   C4B30526  21.040  34.507   7.534
 2284POPC   NC330527  26.286  30.269   9.461
 2284POPC   PO430528  26.133  29.614   9.484
 2284POPC   GL130529  26.168  29.857   9.134
 2284POPC   GL230530  25.929  30.153   9.027
 2284POPC   C1A30531  26.128  29.730   8.735
 2284POPC   D2A30532  25.937  29.947   8.472
 2284POPC   C3A30533  25.981  29.687   8.177
 2284POPC   C4A30534  26.017  29.791   7.771
 2284POPC   C1B30535  26.296  30.221   8.809
 2284POPC   C2B30536  26.443  30.116   8.442
 2284POPC   C3B30537  26.293  30.102   8.059
 2284POPC   C4B30538  26.009  30.326   7.824
 2285POPC   NC330539  37.954  41.056   9.463
 2285POPC   PO430540  37.725  40.373   9.509
 2285POPC   GL130541  37.780  40.586   9.107
 2285POPC   GL230542  37.620  40.889   9.118
 2285POPC   C1A30543  37.592  40.688   8.660
 2285POPC   D2A30544  37.320  40.744   8.280
 2285POPC   C3A30545  37.619  40.755   7.925
 2285POPC   C4A30546  38.044  40.795   7.759
 2285POPC   C1B30547  37.733  41.153   8.799
 2285POPC   C2B30548  37.700  41.252   8.411
 2285POPC   C3B30549  37.939  41.152   8.113
 2285POPC   C4B30550  37.752  41.204   7.716
 2286POPC   NC330551  32.091   6.808   9.520
 2286POPC   PO430552  32.641   7.018   9.275
 2286POPC   GL130553  32.273   6.818   9.036
 2286POPC   GL230554  32.005   6.549   9.087
 2286POPC   C1A30555  31.907   6.906   8.756
 2286POPC   D2A30556  31.943   6.627   8.410
 2286POPC   C3A30557  32.071   6.843   8.036
 2286POPC   C4A30558  32.239   6.969   7.692
 2286POPC   C1B30559  32.190   6.327   8.753
 2286POPC   C2B30560  32.083   6.137   8.363
 2286POPC   C3B30561  32.008   6.334   7.979
 2286POPC   C4B30562  32.395   6.497   7.776
 2287POPC   NC330563  37.718  42.738   9.558
 2287POPC   PO430564  37.875  42.130   9.679
 2287POPC   GL130565  37.773  42.136   9.225
 2287POPC   GL230566  37.467  41.913   9.147
 2287POPC   C1A30567  37.759  42.461   8.884
 2287POPC   D2A30568  37.845  42.435   8.431
 2287POPC   C3A30569  37.699  42.141   8.089
 2287POPC   C4A30570  37.662  42.330   7.662
 2287POPC   C1B30571  37.488  42.070   8.720
 2287POPC   C2B30572  37.334  42.370   8.425
 2287POPC   C3B30573  37.463  42.607   8.079
 2287POPC   C4B30574  37.239  42.581   7.697
 2288POPC   NC330575   1.299  33.945   9.382
 2288POPC   PO430576   1.374  34.647   9.516
 2288POPC   GL130577   1.263  34.456   9.148
 2288POPC   GL230578   1.586  34.319   9.131
 2288POPC   C1A30579   1.066  34.591   8.753
 2288POPC   D2A30580   1.029  34.393   8.334
 2288POPC   C3A30581   1.023  34.666   7.986
 2288POPC   C4A30582   0.986  34.379   7.647
 2288POPC   C1B30583   1.583  34.658   8.798
 2288POPC   C2B30584   1.446  34.649   8.370
 2288POPC   C3B30585   1.449  34.399   7.985
 2288POPC   C4B30586   1.549  34.772   7.803
 2289POPC   NC330587  30.926  20.793   9.495
 2289POPC   PO430588  30.243  20.510   9.509
 2289POPC   GL130589  30.523  20.654   9.159
 2289POPC   GL230590  30.869  20.536   9.074
 2289POPC   C1A30591  30.601  20.802   8.729
 2289POPC   D2A30592  30.590  21.086   8.387
 2289POPC   C3A30593  30.804  20.985   7.992
 2289POPC   C4A30594  30.607  20.808   7.642
 2289POPC   C1B30595  31.050  20.545   8.665
 2289POPC   C2B30596  30.804  20.557   8.286
 2289POPC   C3B30597  30.810  20.396   7.857
 2289POPC   C4B30598  31.013  20.540   7.459
 2290POPC   NC330599  17.017  12.756   9.252
 2290POPC   PO430600  16.641  13.215   9.473
 2290POPC   GL130601  16.585  12.977   9.082
 2290POPC   GL230602  16.399  12.667   9.148
 2290POPC   C1A30603  16.819  12.987   8.650
 2290POPC   D2A30604  16.693  13.041   8.221
 2290POPC   C3A30605  17.008  13.066   7.889
 2290POPC   C4A30606  17.056  12.839   7.493
 2290POPC   C1B30607  16.547  12.560   8.737
 2290POPC   C2B30608  16.565  12.514   8.298
 2290POPC   C3B30609  16.689  12.649   7.887
 2290POPC   C4B30610  16.266  12.685   7.778
 2291POPC   NC330611  27.897   3.406   9.473
 2291POPC   PO430612  28.498   3.095   9.386
 2291POPC   GL130613  28.418   3.490   9.187
 2291POPC   GL230614  28.742   3.663   9.184
 2291POPC   C1A30615  28.177   3.575   8.840
 2291POPC   D2A30616  28.119   3.645   8.401
 2291POPC   C3A30617  28.140   3.270   8.161
 2291POPC   C4A30618  28.512   3.127   7.956
 2291POPC   C1B30619  28.661   3.772   8.747
 2291POPC   C2B30620  28.633   3.614   8.299
 2291POPC   C3B30621  28.410   3.663   7.891
 2291POPC   C4B30622  28.582   3.903   7.533
 2292POPC   NC330623  29.168  44.675   9.528
 2292POPC   PO430624  28.490  44.712   9.736
 2292POPC   GL130625  28.701  44.791   9.255
 2292POPC   GL230626  28.791  44.512   9.064
 2292POPC   C1A30627  29.073  44.900   8.908
 2292POPC   D2A30628  29.323  44.718   8.538
 2292POPC   C3A30629  29.252  44.929   8.153
 2292POPC   C4A30630  28.946  44.813   7.830
 2292POPC   C1B30631  29.057  44.301   8.767
 2292POPC   C2B30632  29.030  44.318   8.325
 2292POPC   C3B30633  29.359  44.442   8.039
 2292POPC   C4B30634  29.598  44.352   7.688
 2293POPC   NC330635  17.102  34.039   9.516
 2293POPC   PO430636  16.798  34.611   9.477
 2293POPC   GL130637  17.028  34.554   9.151
 2293POPC   GL230638  17.067  34.890   9.067
 2293POPC   C1A30639  16.855  34.429   8.758
 2293POPC   D2A30640  16.980  34.423   8.339
 2293POPC   C3A30641  16.721  34.616   8.059
 2293POPC   C4A30642  16.571  34.463   7.684
 2293POPC   C1B30643  16.896  34.947   8.670
 2293POPC   C2B30644  16.901  35.076   8.248
 2293POPC   C3B30645  16.842  35.076   7.826
 2293POPC   C4B30646  16.945  34.929   7.467
 2294POPC   NC330647  34.820  44.045   9.479
 2294POPC   PO430648  34.593  43.518   9.461
 2294POPC   GL130649  34.692  43.760   9.081
 2294POPC   GL230650  34.428  44.030   9.155
 2294POPC   C1A30651  34.797  43.727   8.629
 2294POPC   D2A30652  34.778  43.692   8.152
 2294POPC   C3A30653  34.638  44.016   7.837
 2294POPC   C4A30654  34.703  44.188   7.398
 2294POPC   C1B30655  34.281  43.810   8.799
 2294POPC   C2B30656  34.284  43.576   8.439
 2294POPC   C3B30657  34.266  43.729   8.044
 2294POPC   C4B30658  34.266  43.749   7.607
 2295POPC   NC330659  25.182   8.476   9.382
 2295POPC   PO430660  25.669   8.011   9.307
 2295POPC   GL130661  25.347   8.154   9.026
 2295POPC   GL230662  24.956   8.107   9.098
 2295POPC   C1A30663  25.381   8.413   8.677
 2295POPC   D2A30664  25.254   8.178   8.349
 2295POPC   C3A30665  25.437   8.214   7.942
 2295POPC   C4A30666  25.557   7.815   7.704
 2295POPC   C1B30667  24.860   8.378   8.741
 2295POPC   C2B30668  24.734   8.268   8.345
 2295POPC   C3B30669  24.918   8.167   7.968
 2295POPC   C4B30670  25.018   8.315   7.578
 2296POPC   NC330671   4.020  30.601   9.582
 2296POPC   PO430672   4.458  31.118   9.478
 2296POPC   GL130673   4.274  30.808   9.170
 2296POPC   GL230674   4.314  30.446   9.161
 2296POPC   C1A30675   4.131  30.669   8.754
 2296POPC   D2A30676   3.945  30.498   8.382
 2296POPC   C3A30677   4.163  30.665   8.049
 2296POPC   C4A30678   4.446  30.735   7.712
 2296POPC   C1B30679   4.670  30.567   8.895
 2296POPC   C2B30680   4.778  30.480   8.459
 2296POPC   C3B30681   4.616  30.378   8.040
 2296POPC   C4B30682   4.741  30.318   7.605
 2297POPC   NC330683  21.151  14.403   9.562
 2297POPC   PO430684  20.430  14.671   9.464
 2297POPC   GL130685  20.763  14.556   9.197
 2297POPC   GL230686  20.635  14.253   9.180
 2297POPC   C1A30687  20.806  14.586   8.750
 2297POPC   D2A30688  20.549  14.546   8.388
 2297POPC   C3A30689  20.658  14.637   7.990
 2297POPC   C4A30690  20.500  14.561   7.572
 2297POPC   C1B30691  20.410  14.222   8.784
 2297POPC   C2B30692  20.388  14.074   8.353
 2297POPC   C3B30693  20.448  14.170   7.901
 2297POPC   C4B30694  20.282  14.054   7.452
 2298POPC   NC330695  31.264   1.026   9.481
 2298POPC   PO430696  31.447   1.656   9.608
 2298POPC   GL130697  31.443   1.416   9.172
 2298POPC   GL230698  31.184   1.142   8.988
 2298POPC   C1A30699  31.538   1.393   8.728
 2298POPC   D2A30700  31.329   1.376   8.337
 2298POPC   C3A30701  31.568   1.454   7.982
 2298POPC   C4A30702  31.804   1.190   7.750
 2298POPC   C1B30703  31.330   0.927   8.637
 2298POPC   C2B30704  31.127   0.914   8.271
 2298POPC   C3B30705  31.254   1.055   7.882
 2298POPC   C4B30706  31.182   0.851   7.520
 2299POPC   NC330707  24.381   3.018   9.557
 2299POPC   PO430708  24.679   2.403   9.477
 2299POPC   GL130709  24.478   2.560   9.090
 2299POPC   GL230710  24.390   2.876   9.086
 2299POPC   C1A30711  24.514   2.683   8.638
 2299POPC   D2A30712  24.506   2.594   8.219
 2299POPC   C3A30713  24.159   2.424   7.989
 2299POPC   C4A30714  24.306   2.428   7.553
 2299POPC   C1B30715  24.270   3.117   8.749
 2299POPC   C2B30716  24.506   3.116   8.360
 2299POPC   C3B30717  24.400   3.027   7.949
 2299POPC   C4B30718  24.590   2.858   7.605
 2300POPC   NC330719  17.104  36.416   9.152
 2300POPC   PO430720  16.567  36.145   9.498
 2300POPC   GL130721  16.660  36.176   9.067
 2300POPC   GL230722  16.895  35.879   9.000
 2300POPC   C1A30723  16.750  36.206   8.626
 2300POPC   D2A30724  16.755  35.916   8.309
 2300POPC   C3A30725  16.857  36.087   7.893
 2300POPC   C4A30726  17.144  36.406   7.696
 2300POPC   C1B30727  16.492  35.777   8.746
 2300POPC   C2B30728  16.237  35.818   8.370
 2300POPC   C3B30729  16.371  35.822   7.949
 2300POPC   C4B30730  16.534  35.849   7.525
 2301POPC   NC330731  14.054  15.544   9.458
 2301POPC   PO430732  14.002  14.767   9.383
 2301POPC   GL130733  13.662  14.979   9.129
 2301POPC   GL230734  13.635  15.319   9.210
 2301POPC   C1A30735  13.469  15.099   8.717
 2301POPC   D2A30736  13.577  15.184   8.284
 2301POPC   C3A30737  13.939  15.270   8.034
 2301POPC   C4A30738  13.948  15.173   7.597
 2301POPC   C1B30739  13.768  15.507   8.853
 2301POPC   C2B30740  13.608  15.690   8.510
 2301POPC   C3B30741  13.585  15.654   8.078
 2301POPC   C4B30742  13.611  15.532   7.669
 2302POPC   NC330743  12.576  38.547   9.230
 2302POPC   PO430744  12.970  38.108   9.490
 2302POPC   GL130745  12.969  38.223   9.056
 2302POPC   GL230746  13.210  37.981   9.032
 2302POPC   C1A30747  12.868  38.437   8.666
 2302POPC   D2A30748  12.639  38.359   8.344
 2302POPC   C3A30749  12.798  38.599   8.061
 2302POPC   C4A30750  12.723  38.519   7.679
 2302POPC   C1B30751  13.296  38.176   8.636
 2302POPC   C2B30752  13.165  38.291   8.246
 2302POPC   C3B30753  13.113  38.234   7.816
 2302POPC   C4B30754  13.327  38.030   7.501
 2303POPC   NC330755  12.478   9.614   9.490
 2303POPC   PO430756  13.026  10.009   9.495
 2303POPC   GL130757  12.832   9.786   9.128
 2303POPC   GL230758  12.800   9.412   9.148
 2303POPC   C1A30759  12.800   9.635   8.691
 2303POPC   D2A30760  12.590   9.661   8.340
 2303POPC   C3A30761  12.820   9.839   8.055
 2303POPC   C4A30762  12.710   9.963   7.675
 2303POPC   C1B30763  13.047   9.217   8.813
 2303POPC   C2B30764  13.178   9.288   8.398
 2303POPC   C3B30765  12.981   9.314   8.001
 2303POPC   C4B30766  13.161   9.638   7.736
 2304POPC   NC330767   4.500   4.123   9.377
 2304POPC   PO430768   3.931   4.481   9.506
 2304POPC   GL130769   4.080   4.377   9.129
 2304POPC   GL230770   4.113   4.038   9.025
 2304POPC   C1A30771   4.097   4.677   8.817
 2304POPC   D2A30772   4.004   4.914   8.479
 2304POPC   C3A30773   4.203   4.707   8.175
 2304POPC   C4A30774   4.231   4.499   7.823
 2304POPC   C1B30775   4.430   4.273   8.761
 2304POPC   C2B30776   4.463   4.305   8.350
 2304POPC   C3B30777   4.249   4.034   8.095
 2304POPC   C4B30778   4.184   4.004   7.661
 2305POPC   NC330779  36.515  23.572   9.554
 2305POPC   PO430780  37.133  23.279   9.659
 2305POPC   GL130781  36.939  23.452   9.264
 2305POPC   GL230782  36.925  23.828   9.273
 2305POPC   C1A30783  36.687  23.436   8.856
 2305POPC   D2A30784  36.852  23.443   8.417
 2305POPC   C3A30785  36.822  23.283   7.998
 2305POPC   C4A30786  37.041  23.409   7.631
 2305POPC   C1B30787  36.850  24.023   8.846
 2305POPC   C2B30788  36.691  23.970   8.401
 2305POPC   C3B30789  36.777  23.830   7.971
 2305POPC   C4B30790  37.136  23.976   7.719
 2306POPC   NC330791   3.849  13.821   9.416
 2306POPC   PO430792   3.698  13.181   9.389
 2306POPC   GL130793   3.543  13.477   9.112
 2306POPC   GL230794   3.175  13.398   9.130
 2306POPC   C1A30795   3.688  13.648   8.707
 2306POPC   D2A30796   3.661  13.449   8.308
 2306POPC   C3A30797   3.768  13.606   7.919
 2306POPC   C4A30798   3.534  13.594   7.567
 2306POPC   C1B30799   3.175  13.716   8.798
 2306POPC   C2B30800   3.319  13.841   8.376
 2306POPC   C3B30801   3.212  13.736   7.967
 2306POPC   C4B30802   3.069  13.425   7.711
 2307POPC   NC330803  43.670  32.170   9.560
 2307POPC   PO430804  44.366  32.047   9.547
 2307POPC   GL130805  44.052  32.165   9.239
 2307POPC   GL230806  43.755  31.984   9.088
 2307POPC   C1A30807  43.929  32.437   8.882
 2307POPC   D2A30808  44.169  32.533   8.513
 2307POPC   C3A30809  44.025  32.339   8.134
 2307POPC   C4A30810  43.971  32.458   7.723
 2307POPC   C1B30811  43.638  31.789   8.679
 2307POPC   C2B30812  43.628  31.836   8.201
 2307POPC   C3B30813  43.755  32.003   7.796
 2307POPC   C4B30814  43.528  32.178   7.455
 2308POPC   NC330815   3.248  36.463   9.256
 2308POPC   PO430816   2.793  35.929   9.444
 2308POPC   GL130817   2.867  36.017   9.057
 2308POPC   GL230818   3.213  35.989   8.990
 2308POPC   C1A30819   2.879  35.752   8.680
 2308POPC   D2A30820   2.969  35.788   8.243
 2308POPC   C3A30821   2.762  36.144   8.091
 2308POPC   C4A30822   2.643  36.144   7.644
 2308POPC   C1B30823   3.030  36.255   8.644
 2308POPC   C2B30824   2.988  36.547   8.327
 2308POPC   C3B30825   3.213  36.432   7.969
 2308POPC   C4B30826   3.138  36.086   7.765
 2309POPC   NC330827  42.737   0.213   9.418
 2309POPC   PO430828  43.334   0.573   9.486
 2309POPC   GL130829  43.081   0.534   9.163
 2309POPC   GL230830  43.159   0.191   9.113
 2309POPC   C1A30831  43.077   0.505   8.731
 2309POPC   D2A30832  43.361   0.542   8.413
 2309POPC   C3A30833  43.310   0.469   7.988
 2309POPC   C4A30834  42.939   0.525   7.736
 2309POPC   C1B30835  43.436   0.137   8.751
 2309POPC   C2B30836  43.326   0.029   8.324
 2309POPC   C3B30837  43.505   0.017   7.909
 2309POPC   C4B30838  43.346   0.241   7.515
 2310POPC   NC330839  25.562  36.619   9.310
 2310POPC   PO430840  25.191  36.081   9.492
 2310POPC   GL130841  25.114  36.040   9.075
 2310POPC   GL230842  25.040  36.396   9.100
 2310POPC   C1A30843  25.368  36.143   8.729
 2310POPC   D2A30844  25.693  36.195   8.434
 2310POPC   C3A30845  25.522  36.124   8.023
 2310POPC   C4A30846  25.709  36.283   7.646
 2310POPC   C1B30847  25.111  36.583   8.696
 2310POPC   C2B30848  25.267  36.499   8.280
 2310POPC   C3B30849  25.314  36.546   7.842
 2310POPC   C4B30850  25.548  36.780   7.535
 2311POPC   NC330851  37.004  16.266   9.639
 2311POPC   PO430852  36.974  15.608   9.691
 2311POPC   GL130853  36.945  15.826   9.269
 2311POPC   GL230854  36.865  16.153   9.143
 2311POPC   C1A30855  36.836  15.767   8.815
 2311POPC   D2A30856  36.795  15.989   8.425
 2311POPC   C3A30857  37.070  15.974   8.070
 2311POPC   C4A30858  36.880  15.658   7.844
 2311POPC   C1B30859  36.652  16.346   8.783
 2311POPC   C2B30860  36.579  16.439   8.368
 2311POPC   C3B30861  36.621  16.234   7.980
 2311POPC   C4B30862  36.451  16.338   7.595
 2312POPC   NC330863  18.137  24.187   9.515
 2312POPC   PO430864  18.526  24.789   9.499
 2312POPC   GL130865  18.422  24.540   9.164
 2312POPC   GL230866  18.069  24.457   9.107
 2312POPC   C1A30867  18.400  24.658   8.742
 2312POPC   D2A30868  18.513  24.655   8.306
 2312POPC   C3A30869  18.278  24.486   7.968
 2312POPC   C4A30870  18.467  24.507   7.574
 2312POPC   C1B30871  18.068  24.226   8.741
 2312POPC   C2B30872  17.936  24.306   8.347
 2312POPC   C3B30873  17.951  24.055   7.990
 2312POPC   C4B30874  18.134  24.132   7.584
 2313POPC   NC330875   8.816  11.663   9.408
 2313POPC   PO430876   9.214  12.227   9.486
 2313POPC   GL130877   8.939  12.178   9.137
 2313POPC   GL230878   9.146  12.424   8.996
 2313POPC   C1A30879   8.716  12.193   8.740
 2313POPC   D2A30880   8.793  11.936   8.351
 2313POPC   C3A30881   8.750  12.114   7.928
 2313POPC   C4A30882   8.945  12.188   7.499
 2313POPC   C1B30883   9.216  12.131   8.677
 2313POPC   C2B30884   9.275  12.230   8.272
 2313POPC   C3B30885   9.280  12.093   7.888
 2313POPC   C4B30886   9.434  11.793   7.691
 2314POPC   NC330887   4.111   3.142   9.256
 2314POPC   PO430888   4.237   3.751   9.417
 2314POPC   GL130889   4.359   3.557   9.038
 2314POPC   GL230890   4.595   3.806   8.963
 2314POPC   C1A30891   4.478   3.316   8.647
 2314POPC   D2A30892   4.448   3.001   8.292
 2314POPC   C3A30893   4.056   3.027   8.079
 2314POPC   C4A30894   3.942   3.320   7.803
 2314POPC   C1B30895   4.285   3.816   8.600
 2314POPC   C2B30896   4.084   3.538   8.326
 2314POPC   C3B30897   4.381   3.476   8.025
 2314POPC   C4B30898   4.361   3.539   7.597
 2315POPC   NC330899  25.971  32.834   9.549
 2315POPC   PO430900  25.790  33.360   9.221
 2315POPC   GL130901  26.016  33.063   9.059
 2315POPC   GL230902  25.904  32.703   9.056
 2315POPC   C1A30903  26.205  33.157   8.679
 2315POPC   D2A30904  25.984  33.332   8.312
 2315POPC   C3A30905  26.198  33.235   7.953
 2315POPC   C4A30906  26.486  32.995   7.788
 2315POPC   C1B30907  25.882  32.782   8.640
 2315POPC   C2B30908  26.106  32.833   8.263
 2315POPC   C3B30909  25.973  32.785   7.869
 2315POPC   C4B30910  26.084  32.575   7.550
 2316POPC   NC330911   9.229   0.269   9.502
 2316POPC   PO430912   8.556   0.434   9.564
 2316POPC   GL130913   8.876   0.399   9.179
 2316POPC   GL230914   9.169   0.245   9.005
 2316POPC   C1A30915   8.883   0.629   8.790
 2316POPC   D2A30916   9.061   0.825   8.462
 2316POPC   C3A30917   8.876   0.639   8.100
 2316POPC   C4A30918   8.868   0.439   7.706
 2316POPC   C1B30919   9.362   0.410   8.635
 2316POPC   C2B30920   9.368   0.513   8.200
 2316POPC   C3B30921   9.316   0.660   7.778
 2316POPC   C4B30922   9.384   0.472   7.364
 2317POPC   NC330923  43.611   2.090   9.534
 2317POPC   PO430924  44.178   1.860   9.384
 2317POPC   GL130925  43.925   2.085   9.076
 2317POPC   GL230926  43.650   2.272   9.077
 2317POPC   C1A30927  43.741   1.987   8.643
 2317POPC   D2A30928  43.852   1.601   8.396
 2317POPC   C3A30929  43.782   1.607   7.956
 2317POPC   C4A30930  44.069   1.763   7.696
 2317POPC   C1B30931  43.697   2.508   8.752
 2317POPC   C2B30932  43.810   2.482   8.370
 2317POPC   C3B30933  43.832   2.106   8.121
 2317POPC   C4B30934  43.758   2.158   7.683
 2318POPC   NC330935  32.930  16.822   9.458
 2318POPC   PO430936  33.552  16.676   9.609
 2318POPC   GL130937  33.207  16.450   9.265
 2318POPC   GL230938  32.861  16.510   9.057
 2318POPC   C1A30939  33.251  16.426   8.785
 2318POPC   D2A30940  32.929  16.424   8.477
 2318POPC   C3A30941  33.162  16.443   8.089
 2318POPC   C4A30942  33.311  16.789   7.811
 2318POPC   C1B30943  32.950  16.861   8.762
 2318POPC   C2B30944  32.989  16.906   8.296
 2318POPC   C3B30945  32.803  16.744   7.913
 2318POPC   C4B30946  32.582  16.888   7.581
 2319POPC   NC330947  33.267  14.692   9.390
 2319POPC   PO430948  32.840  14.249   9.617
 2319POPC   GL130949  32.946  14.412   9.136
 2319POPC   GL230950  33.000  14.703   8.960
 2319POPC   C1A30951  33.159  14.236   8.730
 2319POPC   D2A30952  33.085  14.416   8.320
 2319POPC   C3A30953  33.071  14.226   7.907
 2319POPC   C4A30954  33.282  14.172   7.516
 2319POPC   C1B30955  33.384  14.696   8.724
 2319POPC   C2B30956  33.427  14.819   8.291
 2319POPC   C3B30957  33.106  14.778   7.956
 2319POPC   C4B30958  32.989  14.580   7.547
 2320POPC   NC330959  15.408  14.407   9.755
 2320POPC   PO430960  15.982  14.180   9.669
 2320POPC   GL130961  15.904  14.301   9.239
 2320POPC   GL230962  16.026  14.057   9.030
 2320POPC   C1A30963  15.990  14.527   8.847
 2320POPC   D2A30964  16.063  14.689   8.448
 2320POPC   C3A30965  15.890  14.489   8.115
 2320POPC   C4A30966  16.170  14.399   7.789
 2320POPC   C1B30967  15.640  14.008   8.809
 2320POPC   C2B30968  15.633  14.115   8.381
 2320POPC   C3B30969  15.934  13.968   8.057
 2320POPC   C4B30970  15.925  13.988   7.626
 2321POPC   NC330971  44.548  10.431   9.371
 2321POPC   PO430972   0.141  10.631   9.246
 2321POPC   GL130973  44.803  10.626   8.982
 2321POPC   GL230974  44.513  10.838   9.062
 2321POPC   C1A30975  44.680  10.469   8.602
 2321POPC   D2A30976  44.836  10.513   8.203
 2321POPC   C3A30977  44.757  10.286   7.830
 2321POPC   C4A30978  44.753  10.297   7.352
 2321POPC   C1B30979  44.188  10.853   8.752
 2321POPC   C2B30980  44.298  10.727   8.347
 2321POPC   C3B30981  44.473  10.824   7.940
 2321POPC   C4B30982  44.411  10.643   7.547
 2322POPC   NC330983   6.177  19.954   9.337
 2322POPC   PO430984   5.594  19.735   9.768
 2322POPC   GL130985   5.644  19.442   9.305
 2322POPC   GL230986   5.974  19.524   9.147
 2322POPC   C1A30987   5.562  19.416   8.821
 2322POPC   D2A30988   5.699  19.389   8.356
 2322POPC   C3A30989   5.756  19.818   8.180
 2322POPC   C4A30990   5.609  20.108   7.853
 2322POPC   C1B30991   6.079  19.460   8.716
 2322POPC   C2B30992   6.221  19.597   8.337
 2322POPC   C3B30993   6.084  19.500   7.957
 2322POPC   C4B30994   5.695  19.422   7.803
 2323POPC   NC330995  27.816  13.168   9.546
 2323POPC   PO430996  27.202  13.034   9.582
 2323POPC   GL130997  27.468  13.156   9.135
 2323POPC   GL230998  27.850  13.158   9.041
 2323POPC   C1A30999  27.525  13.058   8.646
 2323POPC   D2A31000  27.674  13.031   8.191
 2323POPC   C3A31001  27.479  12.656   7.939
 2323POPC   C4A31002  27.331  12.530   7.521
 2323POPC   C1B31003  27.950  12.782   8.811
 2323POPC   C2B31004  28.107  12.802   8.392
 2323POPC   C3B31005  27.967  12.624   8.017
 2323POPC   C4B31006  27.824  12.761   7.564
 2324POPC   NC331007   4.068  20.645   9.564
 2324POPC   PO431008   4.676  20.880   9.518
 2324POPC   GL131009   4.422  20.698   9.140
 2324POPC   GL231010   4.047  20.672   9.065
 2324POPC   C1A31011   4.429  20.379   8.761
 2324POPC   D2A31012   4.666  20.250   8.378
 2324POPC   C3A31013   4.606  20.408   7.964
 2324POPC   C4A31014   4.256  20.385   7.653
 2324POPC   C1B31015   4.221  20.826   8.681
 2324POPC   C2B31016   4.166  20.630   8.293
 2324POPC   C3B31017   4.277  20.836   7.936
 2324POPC   C4B31018   4.106  20.851   7.521
 2325POPC   NC331019  29.393  34.802   9.685
 2325POPC   PO431020  29.906  34.519   9.264
 2325POPC   GL131021  30.099  34.602   8.964
 2325POPC   GL231022  30.284  34.281   8.991
 2325POPC   C1A31023  29.983  34.774   8.578
 2325POPC   D2A31024  30.201  34.878   8.195
 2325POPC   C3A31025  29.979  34.648   7.865
 2325POPC   C4A31026  29.515  34.654   7.822
 2325POPC   C1B31027  29.994  34.218   8.649
 2325POPC   C2B31028  29.911  34.256   8.217
 2325POPC   C3B31029  30.123  34.140   7.836
 2325POPC   C4B31030  30.079  34.048   7.403
 2326POPC   NC331031  42.056  21.502   9.365
 2326POPC   PO431032  42.689  21.324   9.471
 2326POPC   GL131033  42.531  21.548   9.151
 2326POPC   GL231034  42.343  21.267   8.998
 2326POPC   C1A31035  42.521  21.691   8.753
 2326POPC   D2A31036  42.390  21.392   8.470
 2326POPC   C3A31037  42.575  21.478   8.116
 2326POPC   C4A31038  42.527  21.784   7.784
 2326POPC   C1B31039  42.075  21.036   8.662
 2326POPC   C2B31040  41.906  21.203   8.308
 2326POPC   C3B31041  42.085  21.456   8.021
 2326POPC   C4B31042  42.367  21.308   7.704
 2327POPC   NC331043  23.815  43.560   9.474
 2327POPC   PO431044  23.390  44.080   9.531
 2327POPC   GL131045  23.449  43.993   9.106
 2327POPC   GL231046  23.779  43.895   9.082
 2327POPC   C1A31047  23.560  44.005   8.643
 2327POPC   D2A31048  23.925  43.864   8.445
 2327POPC   C3A31049  23.872  44.043   8.061
 2327POPC   C4A31050  23.646  44.077   7.684
 2327POPC   C1B31051  23.621  43.550   8.839
 2327POPC   C2B31052  23.694  43.404   8.436
 2327POPC   C3B31053  23.646  43.392   8.023
 2327POPC   C4B31054  23.923  43.610   7.746
 2328POPC   NC331055   2.751   1.574   9.410
 2328POPC   PO431056   2.982   0.881   9.414
 2328POPC   GL131057   2.631   1.076   9.198
 2328POPC   GL231058   2.787   1.309   8.983
 2328POPC   C1A31059   2.488   0.933   8.795
 2328POPC   D2A31060   2.316   1.113   8.438
 2328POPC   C3A31061   2.613   1.085   8.112
 2328POPC   C4A31062   2.653   1.381   7.812
 2328POPC   C1B31063   3.108   1.212   8.677
 2328POPC   C2B31064   3.159   1.040   8.254
 2328POPC   C3B31065   3.144   1.244   7.873
 2328POPC   C4B31066   3.082   1.562   7.573
 2329POPC   NC331067  18.594  23.458   9.508
 2329POPC   PO431068  17.940  23.763   9.485
 2329POPC   GL131069  18.140  23.857   9.093
 2329POPC   GL231070  18.438  24.038   9.120
 2329POPC   C1A31071  18.361  23.733   8.701
 2329POPC   D2A31072  18.560  23.592   8.308
 2329POPC   C3A31073  18.244  23.448   7.997
 2329POPC   C4A31074  18.085  23.645   7.688
 2329POPC   C1B31075  18.599  24.199   8.732
 2329POPC   C2B31076  18.448  24.134   8.327
 2329POPC   C3B31077  18.457  23.937   7.938
 2329POPC   C4B31078  18.541  23.860   7.528
 2330POPC   NC331079  38.177  35.330   9.777
 2330POPC   PO431080  38.405  35.658   9.235
 2330POPC   GL131081  38.541  35.592   8.865
 2330POPC   GL231082  38.568  35.255   8.980
 2330POPC   C1A31083  38.258  35.665   8.519
 2330POPC   D2A31084  37.993  35.362   8.301
 2330POPC   C3A31085  38.219  35.327   7.923
 2330POPC   C4A31086  38.658  35.562   7.876
 2330POPC   C1B31087  38.325  35.170   8.640
 2330POPC   C2B31088  38.587  35.283   8.312
 2330POPC   C3B31089  38.628  35.040   7.959
 2330POPC   C4B31090  38.320  34.781   7.802
 2331POPC   NC331091  12.899  44.887   9.289
 2331POPC   PO431092  12.368  44.524   9.543
 2331POPC   GL131093  12.593  44.548   9.099
 2331POPC   GL231094  12.555  44.848   8.885
 2331POPC   C1A31095  12.932  44.510   8.716
 2331POPC   D2A31096  12.967  44.359   8.241
 2331POPC   C3A31097  12.938  44.663   7.872
 2331POPC   C4A31098  12.649  44.841   7.591
 2331POPC   C1B31099  12.897   0.014   8.672
 2331POPC   C2B31100  13.030  44.874   8.334
 2331POPC   C3B31101  13.119   0.107   8.023
 2331POPC   C4B31102  12.993   0.211   7.682
 2332POPC   NC331103  27.045  30.599   9.668
 2332POPC   PO431104  27.724  30.815   9.443
 2332POPC   GL131105  27.675  30.721   9.048
 2332POPC   GL231106  27.641  30.389   8.946
 2332POPC   C1A31107  27.512  30.892   8.672
 2332POPC   D2A31108  27.422  30.797   8.246
 2332POPC   C3A31109  27.217  30.954   7.892
 2332POPC   C4A31110  27.474  31.011   7.537
 2332POPC   C1B31111  27.945  30.537   8.645
 2332POPC   C2B31112  27.935  30.725   8.240
 2332POPC   C3B31113  27.750  30.673   7.841
 2332POPC   C4B31114  28.026  30.435   7.566
 2333POPC   NC331115  37.430  20.230   9.438
 2333POPC   PO431116  37.543  20.888   9.425
 2333POPC   GL131117  37.692  20.762   9.046
 2333POPC   GL231118  37.687  20.409   9.033
 2333POPC   C1A31119  37.659  20.854   8.616
 2333POPC   D2A31120  37.884  20.716   8.258
 2333POPC   C3A31121  37.669  20.400   8.023
 2333POPC   C4A31122  37.682  20.586   7.622
 2333POPC   C1B31123  37.780  20.333   8.593
 2333POPC   C2B31124  38.115  20.254   8.272
 2333POPC   C3B31125  38.119  20.298   7.790
 2333POPC   C4B31126  37.917  20.250   7.325
 2334POPC   NC331127   4.570  16.561   9.468
 2334POPC   PO431128   4.283  17.175   9.469
 2334POPC   GL131129   4.213  16.785   9.192
 2334POPC   GL231130   4.553  16.869   9.080
 2334POPC   C1A31131   4.332  16.615   8.728
 2334POPC   D2A31132   4.475  16.889   8.417
 2334POPC   C3A31133   4.459  16.683   8.043
 2334POPC   C4A31134   4.288  16.528   7.682
 2334POPC   C1B31135   4.202  17.095   8.818
 2334POPC   C2B31136   3.947  17.008   8.481
 2334POPC   C3B31137   4.104  17.063   8.084
 2334POPC   C4B31138   4.327  17.057   7.723
 2335POPC   NC331139  19.873  32.221   9.796
 2335POPC   PO431140  19.358  32.565   9.476
 2335POPC   GL131141  19.514  32.411   9.125
 2335POPC   GL231142  19.846  32.305   9.281
 2335POPC   C1A31143  19.710  32.576   8.720
 2335POPC   D2A31144  19.927  32.396   8.397
 2335POPC   C3A31145  19.756  32.533   8.001
 2335POPC   C4A31146  19.552  32.344   7.635
 2335POPC   C1B31147  19.846  32.120   8.888
 2335POPC   C2B31148  19.589  32.038   8.513
 2335POPC   C3B31149  19.804  31.987   8.108
 2335POPC   C4B31150  19.659  31.853   7.742
 2336POPC   NC331151   8.831   8.247   9.512
 2336POPC   PO431152   8.679   7.525   9.404
 2336POPC   GL131153   8.792   7.877   9.110
 2336POPC   GL231154   9.135   8.028   9.134
 2336POPC   C1A31155   8.812   8.174   8.742
 2336POPC   D2A31156   8.953   8.396   8.354
 2336POPC   C3A31157   8.690   8.306   8.000
 2336POPC   C4A31158   8.616   7.916   7.788
 2336POPC   C1B31159   9.379   8.130   8.776
 2336POPC   C2B31160   9.353   8.051   8.353
 2336POPC   C3B31161   9.191   8.173   7.939
 2336POPC   C4B31162   9.371   8.346   7.573
 2337POPC   NC331163  10.808  25.567   9.574
 2337POPC   PO431164  10.435  26.095   9.536
 2337POPC   GL131165  10.644  26.049   9.138
 2337POPC   GL231166  10.802  25.708   9.081
 2337POPC   C1A31167  10.503  26.242   8.736
 2337POPC   D2A31168  10.206  26.153   8.375
 2337POPC   C3A31169  10.295  26.305   7.949
 2337POPC   C4A31170  10.328  26.002   7.594
 2337POPC   C1B31171  10.747  25.801   8.618
 2337POPC   C2B31172  10.725  26.122   8.283
 2337POPC   C3B31173  10.775  26.088   7.869
 2337POPC   C4B31174  10.931  25.666   7.703
 2338POPC   NC331175  32.485  30.915   9.486
 2338POPC   PO431176  32.077  30.388   9.518
 2338POPC   GL131177  32.082  30.690   9.174
 2338POPC   GL231178  31.850  30.979   9.234
 2338POPC   C1A31179  32.285  30.693   8.761
 2338POPC   D2A31180  32.449  30.647   8.340
 2338POPC   C3A31181  32.166  30.626   8.004
 2338POPC   C4A31182  32.289  30.952   7.759
 2338POPC   C1B31183  31.817  30.909   8.779
 2338POPC   C2B31184  32.048  31.004   8.390
 2338POPC   C3B31185  31.960  31.227   8.016
 2338POPC   C4B31186  31.713  30.887   7.835
 2339POPC   NC331187  17.223   0.838   9.693
 2339POPC   PO431188  17.604   0.281   9.456
 2339POPC   GL131189  17.658   0.417   9.047
 2339POPC   GL231190  17.658   0.728   9.173
 2339POPC   C1A31191  17.589   0.401   8.604
 2339POPC   D2A31192  17.628   0.417   8.144
 2339POPC   C3A31193  17.401   0.384   7.777
 2339POPC   C4A31194  17.644   0.288   7.390
 2339POPC   C1B31195  17.345   0.800   8.841
 2339POPC   C2B31196  17.289   0.750   8.407
 2339POPC   C3B31197  17.475   0.887   8.043
 2339POPC   C4B31198  17.247   0.948   7.711
 2340POPC   NC331199  41.811  32.150   9.286
 2340POPC   PO431200  41.226  32.116   9.439
 2340POPC   GL131201  41.358  32.404   9.098
 2340POPC   GL231202  41.682  32.615   9.072
 2340POPC   C1A31203  41.358  32.597   8.681
 2340POPC   D2A31204  41.200  32.589   8.275
 2340POPC   C3A31205  41.135  32.137   8.126
 2340POPC   C4A31206  41.334  31.917   7.771
 2340POPC   C1B31207  41.887  32.363   8.689
 2340POPC   C2B31208  41.896  32.186   8.248
 2340POPC   C3B31209  41.855  32.268   7.793
 2340POPC   C4B31210  41.842  32.573   7.416
 2341POPC   NC331211  43.808  11.243   9.739
 2341POPC   PO431212  44.276  10.796   9.502
 2341POPC   GL131213  44.079  11.095   9.192
 2341POPC   GL231214  43.767  11.190   9.233
 2341POPC   C1A31215  44.050  11.389   8.827
 2341POPC   D2A31216  44.120  11.614   8.428
 2341POPC   C3A31217  44.068  11.404   8.027
 2341POPC   C4A31218  44.312  11.602   7.706
 2341POPC   C1B31219  43.676  11.022   8.824
 2341POPC   C2B31220  43.871  11.088   8.415
 2341POPC   C3B31221  43.924  10.872   8.023
 2341POPC   C4B31222  44.042  11.006   7.624
 2342POPC   NC331223  17.336  14.593   9.380
 2342POPC   PO431224  17.949  14.354   9.585
 2342POPC   GL131225  17.690  14.188   9.241
 2342POPC   GL231226  17.662  14.488   8.984
 2342POPC   C1A31227  17.528  14.035   8.839
 2342POPC   D2A31228  17.671  14.284   8.471
 2342POPC   C3A31229  17.475  14.179   8.108
 2342POPC   C4A31230  17.465  14.424   7.748
 2342POPC   C1B31231  17.255  14.467   8.733
 2342POPC   C2B31232  17.068  14.466   8.322
 2342POPC   C3B31233  17.060  14.679   7.921
 2342POPC   C4B31234  17.100  14.730   7.430
 2343POPC   NC331235  39.172  19.539   9.612
 2343POPC   PO431236  39.104  18.899   9.621
 2343POPC   GL131237  38.978  18.895   9.204
 2343POPC   GL231238  38.911  19.241   9.263
 2343POPC   C1A31239  39.165  19.005   8.782
 2343POPC   D2A31240  39.180  18.920   8.314
 2343POPC   C3A31241  39.280  19.128   7.914
 2343POPC   C4A31242  39.504  18.931   7.566
 2343POPC   C1B31243  38.984  19.486   8.904
 2343POPC   C2B31244  39.080  19.416   8.475
 2343POPC   C3B31245  39.009  19.563   8.081
 2343POPC   C4B31246  38.882  19.423   7.699
 2344POPC   NC331247  34.797   6.768   9.406
 2344POPC   PO431248  34.142   6.536   9.554
 2344POPC   GL131249  34.414   6.474   9.201
 2344POPC   GL231250  34.137   6.641   9.043
 2344POPC   C1A31251  34.568   6.608   8.756
 2344POPC   D2A31252  34.565   6.936   8.450
 2344POPC   C3A31253  34.574   6.697   8.078
 2344POPC   C4A31254  34.808   6.732   7.732
 2344POPC   C1B31255  34.170   6.274   8.810
 2344POPC   C2B31256  34.267   6.291   8.374
 2344POPC   C3B31257  34.161   6.346   7.939
 2344POPC   C4B31258  34.201   6.439   7.486
 2345POPC   NC331259  27.747  14.834   9.389
 2345POPC   PO431260  27.798  15.531   9.517
 2345POPC   GL131261  27.550  15.359   9.146
 2345POPC   GL231262  27.332  15.036   9.130
 2345POPC   C1A31263  27.656  15.385   8.682
 2345POPC   D2A31264  27.937  15.308   8.309
 2345POPC   C3A31265  27.776  15.489   7.916
 2345POPC   C4A31266  27.705  15.390   7.495
 2345POPC   C1B31267  27.454  14.914   8.716
 2345POPC   C2B31268  27.487  15.019   8.281
 2345POPC   C3B31269  27.694  14.970   7.888
 2345POPC   C4B31270  27.597  14.645   7.591
 2346POPC   NC331271  12.087  30.107   9.382
 2346POPC   PO431272  12.174  29.482   9.560
 2346POPC   GL131273  12.049  29.680   9.128
 2346POPC   GL231274  11.706  29.657   9.157
 2346POPC   C1A31275  12.181  29.945   8.720
 2346POPC   D2A31276  12.443  30.030   8.309
 2346POPC   C3A31277  12.238  30.042   7.893
 2346POPC   C4A31278  12.254  29.984   7.403
 2346POPC   C1B31279  11.737  29.638   8.696
 2346POPC   C2B31280  11.925  29.767   8.291
 2346POPC   C3B31281  11.863  29.724   7.842
 2346POPC   C4B31282  11.816  29.666   7.396
 2347POPC   NC331283  19.267  42.258   9.475
 2347POPC   PO431284  18.621  42.118   9.649
 2347POPC   GL131285  18.843  42.087   9.234
 2347POPC   GL231286  18.837  41.722   9.190
 2347POPC   C1A31287  19.079  42.339   8.862
 2347POPC   D2A31288  19.215  42.269   8.432
 2347POPC   C3A31289  19.100  42.556   8.098
 2347POPC   C4A31290  19.191  42.593   7.666
 2347POPC   C1B31291  18.881  41.882   8.770
 2347POPC   C2B31292  18.767  41.990   8.372
 2347POPC   C3B31293  18.994  42.032   8.000
 2347POPC   C4B31294  18.817  42.273   7.708
 2348POPC   NC331295  10.353  39.583   9.545
 2348POPC   PO431296  10.654  40.168   9.577
 2348POPC   GL131297  10.793  39.983   9.215
 2348POPC   GL231298  10.921  40.347   9.143
 2348POPC   C1A31299  10.672  39.744   8.862
 2348POPC   D2A31300  10.787  39.540   8.473
 2348POPC   C3A31301  10.441  39.668   8.169
 2348POPC   C4A31302  10.470  39.965   7.803
 2348POPC   C1B31303  10.905  40.176   8.760
 2348POPC   C2B31304  10.750  40.052   8.364
 2348POPC   C3B31305  10.783  40.317   8.016
 2348POPC   C4B31306  10.923  40.193   7.626
 2349POPC   NC331307  20.587  32.665   9.392
 2349POPC   PO431308  20.749  33.232   9.688
 2349POPC   GL131309  20.564  33.186   9.242
 2349POPC   GL231310  20.234  32.986   9.126
 2349POPC   C1A31311  20.686  32.983   8.845
 2349POPC   D2A31312  20.536  32.999   8.453
 2349POPC   C3A31313  20.852  33.147   8.191
 2349POPC   C4A31314  20.851  33.065   7.786
 2349POPC   C1B31315  20.241  32.637   8.774
 2349POPC   C2B31316  20.429  32.461   8.366
 2349POPC   C3B31317  20.574  32.701   8.029
 2349POPC   C4B31318  20.355  32.811   7.681
 2350POPC   NC331319  29.870  40.262   9.471
 2350POPC   PO431320  29.716  39.658   9.359
 2350POPC   GL131321  29.793  39.966   9.054
 2350POPC   GL231322  30.139  40.092   9.077
 2350POPC   C1A31323  29.804  39.865   8.628
 2350POPC   D2A31324  29.558  39.887   8.247
 2350POPC   C3A31325  29.870  39.932   7.930
 2350POPC   C4A31326  29.907  39.753   7.506
 2350POPC   C1B31327  30.109  40.281   8.700
 2350POPC   C2B31328  29.888  40.304   8.325
 2350POPC   C3B31329  30.224  40.292   8.041
 2350POPC   C4B31330  30.239  40.100   7.639
 2351POPC   NC331331  19.594  34.990   9.391
 2351POPC   PO431332  20.008  35.465   9.463
 2351POPC   GL131333  19.907  35.272   9.100
 2351POPC   GL231334  19.544  35.404   9.090
 2351POPC   C1A31335  19.781  35.141   8.705
 2351POPC   D2A31336  19.989  35.312   8.369
 2351POPC   C3A31337  19.861  35.216   7.999
 2351POPC   C4A31338  19.985  35.528   7.703
 2351POPC   C1B31339  19.364  35.567   8.718
 2351POPC   C2B31340  19.481  35.400   8.338
 2351POPC   C3B31341  19.546  35.603   7.964
 2351POPC   C4B31342  19.501  35.363   7.588
 2352POPC   NC331343  26.730  18.344   9.520
 2352POPC   PO431344  26.937  17.693   9.560
 2352POPC   GL131345  26.731  17.968   9.192
 2352POPC   GL231346  27.040  18.035   9.156
 2352POPC   C1A31347  26.732  18.252   8.802
 2352POPC   D2A31348  26.941  18.431   8.437
 2352POPC   C3A31349  26.625  18.526   8.137
 2352POPC   C4A31350  26.520  18.328   7.741
 2352POPC   C1B31351  27.197  18.078   8.741
 2352POPC   C2B31352  27.069  17.925   8.316
 2352POPC   C3B31353  26.950  18.151   7.965
 2352POPC   C4B31354  27.180  18.355   7.656
 2353POPC   NC331355  33.281  42.037   9.337
 2353POPC   PO431356  32.669  42.212   9.542
 2353POPC   GL131357  32.807  42.220   9.175
 2353POPC   GL231358  32.834  41.863   9.168
 2353POPC   C1A31359  32.887  42.395   8.773
 2353POPC   D2A31360  32.943  42.190   8.394
 2353POPC   C3A31361  33.160  42.391   8.075
 2353POPC   C4A31362  33.030  42.333   7.682
 2353POPC   C1B31363  32.595  41.959   8.800
 2353POPC   C2B31364  32.367  41.901   8.453
 2353POPC   C3B31365  32.566  42.009   8.095
 2353POPC   C4B31366  32.593  42.109   7.706
 2354POPC   NC331367   4.076  35.207   9.553
 2354POPC   PO431368   4.428  35.796   9.549
 2354POPC   GL131369   4.184  35.573   9.221
 2354POPC   GL231370   4.492  35.397   9.118
 2354POPC   C1A31371   4.101  35.469   8.792
 2354POPC   D2A31372   4.277  35.184   8.520
 2354POPC   C3A31373   4.251  35.252   8.060
 2354POPC   C4A31374   4.177  35.222   7.599
 2354POPC   C1B31375   4.603  35.581   8.709
 2354POPC   C2B31376   4.692  35.446   8.267
 2354POPC   C3B31377   4.666  35.439   7.813
 2354POPC   C4B31378   4.488  35.561   7.411
 2355POPC   NC331379  29.800   0.424   9.328
 2355POPC   PO431380  30.272   0.034   9.504
 2355POPC   GL131381  30.253   0.237   9.135
 2355POPC   GL231382  30.329   0.572   9.240
 2355POPC   C1A31383  30.065   0.324   8.728
 2355POPC   D2A31384  30.102   0.576   8.349
 2355POPC   C3A31385  30.017   0.313   8.019
 2355POPC   C4A31386  29.857   0.274   7.630
 2355POPC   C1B31387  30.341   0.737   8.819
 2355POPC   C2B31388  30.541   0.851   8.424
 2355POPC   C3B31389  30.445   0.936   8.066
 2355POPC   C4B31390  30.286   0.689   7.774
 2356POPC   NC331391  21.937  28.719   9.465
 2356POPC   PO431392  22.053  29.455   9.493
 2356POPC   GL131393  22.091  29.146   9.166
 2356POPC   GL231394  21.788  28.987   9.061
 2356POPC   C1A31395  22.226  28.987   8.751
 2356POPC   D2A31396  22.306  28.800   8.332
 2356POPC   C3A31397  22.475  29.047   7.986
 2356POPC   C4A31398  22.402  29.118   7.525
 2356POPC   C1B31399  21.722  29.181   8.661
 2356POPC   C2B31400  21.750  28.994   8.258
 2356POPC   C3B31401  21.991  28.948   7.887
 2356POPC   C4B31402  21.862  28.921   7.460
 2357POPC   NC331403  19.390  29.737   9.452
 2357POPC   PO431404  19.687  30.272   9.235
 2357POPC   GL131405  19.916  29.983   9.004
 2357POPC   GL231406  19.788  29.629   9.094
 2357POPC   C1A31407  19.921  30.076   8.558
 2357POPC   D2A31408  19.636  30.252   8.245
 2357POPC   C3A31409  19.784  30.121   7.836
 2357POPC   C4A31410  20.001  29.708   7.723
 2357POPC   C1B31411  19.544  29.748   8.712
 2357POPC   C2B31412  19.570  29.720   8.257
 2357POPC   C3B31413  19.425  29.758   7.840
 2357POPC   C4B31414  19.575  29.464   7.548
 2358POPC   NC331415   1.741  15.099   9.466
 2358POPC   PO431416   2.398  14.995   9.412
 2358POPC   GL131417   2.118  15.207   9.138
 2358POPC   GL231418   1.881  15.494   9.162
 2358POPC   C1A31419   2.008  15.188   8.723
 2358POPC   D2A31420   2.307  15.273   8.424
 2358POPC   C3A31421   2.301  15.026   8.085
 2358POPC   C4A31422   2.365  15.006   7.667
 2358POPC   C1B31423   1.558  15.533   8.859
 2358POPC   C2B31424   1.635  15.471   8.433
 2358POPC   C3B31425   1.903  15.405   8.100
 2358POPC   C4B31426   1.883  15.138   7.768
 2359POPC   NC331427  16.907  41.340   9.613
 2359POPC   PO431428  16.420  41.798   9.687
 2359POPC   GL131429  16.511  41.743   9.209
 2359POPC   GL231430  16.638  41.390   9.153
 2359POPC   C1A31431  16.684  41.810   8.754
 2359POPC   D2A31432  17.011  41.709   8.408
 2359POPC   C3A31433  17.001  41.871   7.985
 2359POPC   C4A31434  16.647  41.855   7.722
 2359POPC   C1B31435  16.888  41.340   8.770
 2359POPC   C2B31436  16.987  41.191   8.335
 2359POPC   C3B31437  16.908  41.329   7.881
 2359POPC   C4B31438  16.998  41.174   7.432
 2360POPC   NC331439   2.484   5.360   9.485
 2360POPC   PO431440   2.927   4.853   9.396
 2360POPC   GL131441   2.859   5.206   9.135
 2360POPC   GL231442   3.144   5.417   9.094
 2360POPC   C1A31443   2.827   5.095   8.698
 2360POPC   D2A31444   2.547   4.996   8.341
 2360POPC   C3A31445   2.627   5.222   7.951
 2360POPC   C4A31446   2.647   4.953   7.582
 2360POPC   C1B31447   3.140   5.498   8.654
 2360POPC   C2B31448   3.121   5.236   8.261
 2360POPC   C3B31449   3.118   5.209   7.801
 2360POPC   C4B31450   2.853   5.416   7.506
 2361POPC   NC331451  38.618  41.126   9.349
 2361POPC   PO431452  38.095  41.534   9.507
 2361POPC   GL131453  38.291  41.496   9.131
 2361POPC   GL231454  38.182  41.212   9.038
 2361POPC   C1A31455  38.602  41.562   8.791
 2361POPC   D2A31456  38.632  41.928   8.515
 2361POPC   C3A31457  38.552  41.840   8.063
 2361POPC   C4A31458  38.416  41.736   7.672
 2361POPC   C1B31459  38.149  41.394   8.622
 2361POPC   C2B31460  38.412  41.406   8.274
 2361POPC   C3B31461  38.352  41.271   7.846
 2361POPC   C4B31462  38.200  41.231   7.444
 2362POPC   NC331463  25.685   1.043   9.491
 2362POPC   PO431464  26.390   1.219   9.431
 2362POPC   GL131465  26.074   1.055   9.147
 2362POPC   GL231466  25.838   1.319   9.108
 2362POPC   C1A31467  26.064   1.011   8.706
 2362POPC   D2A31468  26.288   1.294   8.388
 2362POPC   C3A31469  26.376   1.053   8.000
 2362POPC   C4A31470  25.977   0.922   7.768
 2362POPC   C1B31471  26.073   1.512   8.811
 2362POPC   C2B31472  25.858   1.730   8.505
 2362POPC   C3B31473  25.824   1.531   8.119
 2362POPC   C4B31474  25.844   1.762   7.763
 2363POPC   NC331475   2.385  30.704   9.430
 2363POPC   PO431476   1.742  30.486   9.509
 2363POPC   GL131477   1.854  30.711   9.161
 2363POPC   GL231478   1.642  30.986   9.234
 2363POPC   C1A31479   2.091  30.738   8.760
 2363POPC   D2A31480   2.330  30.850   8.390
 2363POPC   C3A31481   2.096  30.759   8.000
 2363POPC   C4A31482   2.162  30.620   7.531
 2363POPC   C1B31483   1.605  30.983   8.796
 2363POPC   C2B31484   1.591  31.111   8.360
 2363POPC   C3B31485   1.648  31.015   7.928
 2363POPC   C4B31486   1.679  30.648   7.697
 2364POPC   NC331487  11.144   0.670   9.625
 2364POPC   PO431488  11.599   0.221   9.583
 2364POPC   GL131489  11.446   0.472   9.200
 2364POPC   GL231490  11.039   0.516   9.157
 2364POPC   C1A31491  11.572   0.328   8.762
 2364POPC   D2A31492  11.440   0.062   8.370
 2364POPC   C3A31493  11.584   0.260   7.974
 2364POPC   C4A31494  11.494   0.553   7.655
 2364POPC   C1B31495  11.155   0.596   8.743
 2364POPC   C2B31496  11.378   0.571   8.344
 2364POPC   C3B31497  11.115   0.543   7.987
 2364POPC   C4B31498  11.038   0.775   7.618
 2365POPC   NC331499  27.202  20.799   9.516
 2365POPC   PO431500  27.852  20.494   9.425
 2365POPC   GL131501  27.427  20.517   9.157
 2365POPC   GL231502  27.267  20.806   8.994
 2365POPC   C1A31503  27.150  20.358   8.786
 2365POPC   D2A31504  27.211  20.234   8.351
 2365POPC   C3A31505  27.487  20.520   8.095
 2365POPC   C4A31506  27.407  20.783   7.720
 2365POPC   C1B31507  27.597  20.621   8.706
 2365POPC   C2B31508  27.789  20.829   8.400
 2365POPC   C3B31509  27.651  21.042   8.086
 2365POPC   C4B31510  27.849  21.065   7.736
 2366POPC   NC331511   7.327  37.605   9.688
 2366POPC   PO431512   6.965  38.117   9.442
 2366POPC   GL131513   7.136  37.861   9.082
 2366POPC   GL231514   7.260  37.528   9.188
 2366POPC   C1A31515   7.426  37.836   8.735
 2366POPC   D2A31516   7.668  37.969   8.378
 2366POPC   C3A31517   7.711  37.706   8.027
 2366POPC   C4A31518   7.559  37.855   7.628
 2366POPC   C1B31519   7.071  37.463   8.783
 2366POPC   C2B31520   7.261  37.485   8.370
 2366POPC   C3B31521   7.215  37.538   7.938
 2366POPC   C4B31522   6.834  37.471   7.681
 2367POPC   NC331523   2.827  24.310   9.362
 2367POPC   PO431524   2.709  24.900   9.266
 2367POPC   GL131525   2.827  24.646   9.002
 2367POPC   GL231526   3.152  24.644   9.132
 2367POPC   C1A31527   2.875  24.397   8.669
 2367POPC   D2A31528   2.640  24.203   8.371
 2367POPC   C3A31529   2.812  24.374   8.057
 2367POPC   C4A31530   2.686  24.480   7.691
 2367POPC   C1B31531   3.264  24.743   8.729
 2367POPC   C2B31532   3.094  24.720   8.316
 2367POPC   C3B31533   2.947  24.863   7.918
 2367POPC   C4B31534   3.151  24.677   7.625
 2368POPC   NC331535  13.840  13.394   9.567
 2368POPC   PO431536  13.182  13.334   9.559
 2368POPC   GL131537  13.424  13.495   9.181
 2368POPC   GL231538  13.766  13.568   9.116
 2368POPC   C1A31539  13.434  13.737   8.781
 2368POPC   D2A31540  13.697  13.864   8.434
 2368POPC   C3A31541  13.457  13.720   8.120
 2368POPC   C4A31542  13.511  13.812   7.725
 2368POPC   C1B31543  13.909  13.537   8.766
 2368POPC   C2B31544  13.748  13.375   8.408
 2368POPC   C3B31545  13.710  13.258   8.029
 2368POPC   C4B31546  13.921  13.222   7.664
 2369POPC   NC331547  19.360   9.224   9.397
 2369POPC   PO431548  18.797   9.189   9.616
 2369POPC   GL131549  18.928   9.014   9.178
 2369POPC   GL231550  19.155   8.708   9.232
 2369POPC   C1A31551  19.208   8.982   8.785
 2369POPC   D2A31552  19.171   9.152   8.366
 2369POPC   C3A31553  19.098   8.930   8.000
 2369POPC   C4A31554  19.091   9.086   7.612
 2369POPC   C1B31555  18.919   8.578   8.863
 2369POPC   C2B31556  18.995   8.628   8.419
 2369POPC   C3B31557  18.879   8.469   7.988
 2369POPC   C4B31558  18.840   8.629   7.550
 2370POPC   NC331559   5.593   9.884   9.354
 2370POPC   PO431560   4.990   9.549   9.403
 2370POPC   GL131561   5.217   9.681   9.071
 2370POPC   GL231562   5.375   9.371   8.964
 2370POPC   C1A31563   5.224   9.742   8.632
 2370POPC   D2A31564   5.406   9.831   8.246
 2370POPC   C3A31565   5.100  10.053   8.002
 2370POPC   C4A31566   4.987  10.066   7.565
 2370POPC   C1B31567   4.900   9.353   8.789
 2370POPC   C2B31568   4.608   9.357   8.412
 2370POPC   C3B31569   4.826   9.444   8.009
 2370POPC   C4B31570   5.235   9.572   7.820
 2371POPC   NC331571  21.754  14.645   9.365
 2371POPC   PO431572  21.552  14.077   9.614
 2371POPC   GL131573  21.434  14.275   9.170
 2371POPC   GL231574  21.135  14.156   9.131
 2371POPC   C1A31575  21.289  14.391   8.704
 2371POPC   D2A31576  21.111  14.535   8.272
 2371POPC   C3A31577  21.378  14.395   7.910
 2371POPC   C4A31578  21.519  14.661   7.566
 2371POPC   C1B31579  20.910  14.057   8.824
 2371POPC   C2B31580  20.870  14.126   8.455
 2371POPC   C3B31581  20.928  14.055   8.050
 2371POPC   C4B31582  20.933  14.322   7.700
 2372POPC   NC331583  25.887  31.022   9.479
 2372POPC   PO431584  26.447  31.496   9.443
 2372POPC   GL131585  26.430  31.412   9.045
 2372POPC   GL231586  26.110  31.356   9.082
 2372POPC   C1A31587  26.333  31.603   8.653
 2372POPC   D2A31588  26.034  31.540   8.318
 2372POPC   C3A31589  26.180  31.398   7.910
 2372POPC   C4A31590  26.521  31.614   7.746
 2372POPC   C1B31591  25.860  31.263   8.742
 2372POPC   C2B31592  25.597  31.270   8.416
 2372POPC   C3B31593  25.711  31.203   8.028
 2372POPC   C4B31594  25.626  31.297   7.644
 2373POPC   NC331595  34.955  42.522   9.355
 2373POPC   PO431596  35.614  42.246   9.567
 2373POPC   GL131597  35.361  42.086   9.238
 2373POPC   GL231598  35.362  42.394   9.090
 2373POPC   C1A31599  35.430  41.998   8.793
 2373POPC   D2A31600  35.298  42.188   8.411
 2373POPC   C3A31601  35.498  42.065   8.032
 2373POPC   C4A31602  35.292  42.125   7.645
 2373POPC   C1B31603  35.282  42.595   8.718
 2373POPC   C2B31604  35.437  42.668   8.342
 2373POPC   C3B31605  35.253  42.526   7.988
 2373POPC   C4B31606  35.205  42.623   7.581
 2374POPC   NC331607  24.740  29.698   9.555
 2374POPC   PO431608  24.251  30.248   9.523
 2374POPC   GL131609  24.523  30.092   9.198
 2374POPC   GL231610  24.465  29.744   9.126
 2374POPC   C1A31611  24.687  30.037   8.765
 2374POPC   D2A31612  24.649  29.791   8.400
 2374POPC   C3A31613  24.685  30.042   8.039
 2374POPC   C4A31614  24.660  29.784   7.675
 2374POPC   C1B31615  24.246  29.712   8.747
 2374POPC   C2B31616  24.149  29.948   8.410
 2374POPC   C3B31617  24.272  29.753   8.037
 2374POPC   C4B31618  24.132  29.844   7.649
 2375POPC   NC331619  39.917  20.150   9.411
 2375POPC   PO431620  40.313  19.633   9.462
 2375POPC   GL131621  40.211  19.817   9.117
 2375POPC   GL231622  40.399  20.111   9.131
 2375POPC   C1A31623  40.003  19.779   8.743
 2375POPC   D2A31624  39.910  20.052   8.410
 2375POPC   C3A31625  39.941  19.806   8.076
 2375POPC   C4A31626  39.745  19.389   8.023
 2375POPC   C1B31627  40.239  20.243   8.765
 2375POPC   C2B31628  40.334  20.329   8.350
 2375POPC   C3B31629  40.452  20.285   7.943
 2375POPC   C4B31630  40.240  20.111   7.591
 2376POPC   NC331631  22.227   3.495   9.588
 2376POPC   PO431632  21.761   3.960   9.447
 2376POPC   GL131633  22.008   3.661   9.121
 2376POPC   GL231634  22.242   3.354   9.117
 2376POPC   C1A31635  22.168   3.589   8.682
 2376POPC   D2A31636  21.963   3.580   8.314
 2376POPC   C3A31637  22.075   3.524   7.902
 2376POPC   C4A31638  22.071   3.845   7.681
 2376POPC   C1B31639  22.079   3.071   8.829
 2376POPC   C2B31640  22.236   3.099   8.436
 2376POPC   C3B31641  22.451   3.377   8.231
 2376POPC   C4B31642  22.544   3.390   7.796
 2377POPC   NC331643   4.287  15.005   9.453
 2377POPC   PO431644   3.818  15.641   9.475
 2377POPC   GL131645   3.990  15.332   9.132
 2377POPC   GL231646   4.355  15.298   9.039
 2377POPC   C1A31647   3.985  15.383   8.694
 2377POPC   D2A31648   4.294  15.262   8.380
 2377POPC   C3A31649   4.163  15.177   7.973
 2377POPC   C4A31650   4.418  15.355   7.665
 2377POPC   C1B31651   4.394  14.927   8.769
 2377POPC   C2B31652   4.572  14.785   8.365
 2377POPC   C3B31653   4.616  14.876   7.923
 2377POPC   C4B31654   4.316  14.866   7.587
 2378POPC   NC331655  20.652  40.366   9.371
 2378POPC   PO431656  20.309  39.738   9.316
 2378POPC   GL131657  20.500  40.022   9.018
 2378POPC   GL231658  20.400  40.386   8.922
 2378POPC   C1A31659  20.633  40.048   8.609
 2378POPC   D2A31660  20.497  40.212   8.241
 2378POPC   C3A31661  20.403  39.927   7.902
 2378POPC   C4A31662  20.427  39.962   7.453
 2378POPC   C1B31663  20.821  40.512   8.785
 2378POPC   C2B31664  20.989  40.424   8.424
 2378POPC   C3B31665  21.122  40.369   8.023
 2378POPC   C4B31666  20.828  40.177   7.843
 2379POPC   NC331667  14.186   9.769   9.445
 2379POPC   PO431668  14.754   9.372   9.396
 2379POPC   GL131669  14.491   9.573   9.064
 2379POPC   GL231670  14.109   9.503   9.025
 2379POPC   C1A31671  14.446   9.853   8.711
 2379POPC   D2A31672  14.652  10.067   8.372
 2379POPC   C3A31673  14.498  10.012   7.955
 2379POPC   C4A31674  14.694   9.677   7.741
 2379POPC   C1B31675  14.241   9.384   8.639
 2379POPC   C2B31676  14.387   9.547   8.256
 2379POPC   C3B31677  14.198   9.581   7.862
 2379POPC   C4B31678  13.965   9.413   7.505
 2380POPC   NC331679   8.736  14.372   9.821
 2380POPC   PO431680   9.116  14.039   9.357
 2380POPC   GL131681   9.073  14.457   9.153
 2380POPC   GL231682   8.889  14.295   8.958
 2380POPC   C1A31683   9.091  14.667   8.699
 2380POPC   D2A31684   9.255  14.505   8.284
 2380POPC   C3A31685   9.041  14.386   7.887
 2380POPC   C4A31686   9.137  14.243   7.448
 2380POPC   C1B31687   8.685  14.189   8.658
 2380POPC   C2B31688   8.829  14.147   8.289
 2380POPC   C3B31689   8.632  14.037   7.942
 2380POPC   C4B31690   8.733  13.991   7.558
 2381POPC   NC331691  10.061   4.872   9.534
 2381POPC   PO431692   9.629   5.406   9.549
 2381POPC   GL131693   9.599   5.072   9.235
 2381POPC   GL231694   9.497   5.300   9.017
 2381POPC   C1A31695   9.714   4.922   8.782
 2381POPC   D2A31696   9.519   4.967   8.354
 2381POPC   C3A31697   9.656   4.735   7.966
 2381POPC   C4A31698   9.662   4.888   7.523
 2381POPC   C1B31699   9.833   5.427   8.746
 2381POPC   C2B31700   9.941   5.286   8.379
 2381POPC   C3B31701   9.823   5.226   7.990
 2381POPC   C4B31702   9.997   5.285   7.589
 2382POPC   NC331703  37.785  43.934   9.473
 2382POPC   PO431704  37.161  43.819   9.427
 2382POPC   GL131705  37.432  43.663   9.121
 2382POPC   GL231706  37.732  43.894   8.968
 2382POPC   C1A31707  37.414  43.599   8.692
 2382POPC   D2A31708  37.601  43.905   8.412
 2382POPC   C3A31709  37.660  43.791   7.957
 2382POPC   C4A31710  37.357  43.600   7.653
 2382POPC   C1B31711  37.357  44.119   8.834
 2382POPC   C2B31712  37.194  44.255   8.440
 2382POPC   C3B31713  37.284  44.122   8.029
 2382POPC   C4B31714  37.497  44.157   7.668
 2383POPC   NC331715   6.251  44.127   9.565
 2383POPC   PO431716   5.547  43.980   9.440
 2383POPC   GL131717   5.780  44.004   9.081
 2383POPC   GL231718   5.717  43.658   9.041
 2383POPC   C1A31719   5.745  43.944   8.614
 2383POPC   D2A31720   5.412  43.774   8.362
 2383POPC   C3A31721   5.526  43.788   7.937
 2383POPC   C4A31722   5.903  44.039   7.734
 2383POPC   C1B31723   6.061  43.552   8.792
 2383POPC   C2B31724   6.180  43.559   8.420
 2383POPC   C3B31725   6.016  43.729   8.115
 2383POPC   C4B31726   5.910  43.536   7.749
 2384POPC   NC331727  15.775  10.247   9.356
 2384POPC   PO431728  15.177  10.757   9.440
 2384POPC   GL131729  15.226  10.686   9.029
 2384POPC   GL231730  15.571  10.606   8.980
 2384POPC   C1A31731  14.907  10.678   8.691
 2384POPC   D2A31732  14.686  10.582   8.310
 2384POPC   C3A31733  14.899  10.350   8.011
 2384POPC   C4A31734  15.158  10.536   7.717
 2384POPC   C1B31735  15.369  10.459   8.597
 2384POPC   C2B31736  15.253  10.697   8.243
 2384POPC   C3B31737  15.589  10.692   7.908
 2384POPC   C4B31738  15.668  10.302   7.625
 2385POPC   NC331739  34.642  28.995   9.501
 2385POPC   PO431740  34.293  29.385   9.181
 2385POPC   GL131741  34.467  28.983   9.032
 2385POPC   GL231742  34.320  28.664   9.237
 2385POPC   C1A31743  34.838  29.003   8.765
 2385POPC   D2A31744  34.893  29.079   8.318
 2385POPC   C3A31745  34.643  29.371   8.076
 2385POPC   C4A31746  34.810  29.346   7.677
 2385POPC   C1B31747  34.325  28.559   8.791
 2385POPC   C2B31748  34.427  28.906   8.454
 2385POPC   C3B31749  34.475  28.902   7.981
 2385POPC   C4B31750  34.268  28.993   7.594
 2386POPC   NC331751  34.178   9.968   9.375
 2386POPC   PO431752  33.622   9.617   9.545
 2386POPC   GL131753  33.654   9.970   9.271
 2386POPC   GL231754  33.811   9.729   9.059
 2386POPC   C1A31755  33.566  10.101   8.850
 2386POPC   D2A31756  33.573   9.799   8.531
 2386POPC   C3A31757  33.759   9.896   8.129
 2386POPC   C4A31758  33.719   9.753   7.708
 2386POPC   C1B31759  34.079   9.827   8.710
 2386POPC   C2B31760  34.266   9.818   8.301
 2386POPC   C3B31761  34.195   9.886   7.842
 2386POPC   C4B31762  34.142   9.906   7.361
 2387POPC   NC331763  27.367  24.586   9.526
 2387POPC   PO431764  27.854  24.086   9.333
 2387POPC   GL131765  27.755  24.336   8.999
 2387POPC   GL231766  27.610  24.637   9.063
 2387POPC   C1A31767  27.540  24.388   8.618
 2387POPC   D2A31768  27.287  24.170   8.316
 2387POPC   C3A31769  27.454  24.265   7.925
 2387POPC   C4A31770  27.314  24.397   7.543
 2387POPC   C1B31771  27.946  24.747   8.757
 2387POPC   C2B31772  28.023  24.519   8.431
 2387POPC   C3B31773  27.936  24.571   8.041
 2387POPC   C4B31774  27.963  24.236   7.814
 2388POPC   NC331775  20.360  27.440   9.544
 2388POPC   PO431776  21.021  27.424   9.591
 2388POPC   GL131777  20.769  27.571   9.230
 2388POPC   GL231778  20.550  27.350   9.056
 2388POPC   C1A31779  20.662  27.869   8.889
 2388POPC   D2A31780  20.571  28.022   8.448
 2388POPC   C3A31781  20.689  27.844   8.054
 2388POPC   C4A31782  20.526  27.620   7.697
 2388POPC   C1B31783  20.576  27.463   8.597
 2388POPC   C2B31784  20.531  27.363   8.171
 2388POPC   C3B31785  20.293  27.197   7.827
 2388POPC   C4B31786  20.300  27.104   7.356
 2389POPC   NC331787  21.101  30.299   9.425
 2389POPC   PO431788  21.600  29.874   9.499
 2389POPC   GL131789  21.389  29.962   9.149
 2389POPC   GL231790  21.559  30.282   9.112
 2389POPC   C1A31791  21.150  30.062   8.780
 2389POPC   D2A31792  21.265  29.890   8.397
 2389POPC   C3A31793  21.572  30.040   8.182
 2389POPC   C4A31794  21.417  30.190   7.825
 2389POPC   C1B31795  21.666  30.077   8.712
 2389POPC   C2B31796  21.799  29.688   8.515
 2389POPC   C3B31797  21.753  29.513   8.119
 2389POPC   C4B31798  21.660  29.739   7.753
 2390POPC   NC331799  20.829  37.780   9.342
 2390POPC   PO431800  20.483  37.146   9.459
 2390POPC   GL131801  20.503  37.386   9.091
 2390POPC   GL231802  20.370  37.720   9.003
 2390POPC   C1A31803  20.649  37.404   8.685
 2390POPC   D2A31804  20.652  37.478   8.276
 2390POPC   C3A31805  20.314  37.632   8.070
 2390POPC   C4A31806  20.266  37.683   7.656
 2390POPC   C1B31807  20.693  37.912   8.711
 2390POPC   C2B31808  20.912  38.179   8.441
 2390POPC   C3B31809  20.695  38.067   8.087
 2390POPC   C4B31810  20.792  37.714   7.847
 2391POPC   NC331811   5.020   1.533   9.538
 2391POPC   PO431812   5.279   0.877   9.470
 2391POPC   GL131813   5.068   1.201   9.158
 2391POPC   GL231814   4.762   1.478   9.123
 2391POPC   C1A31815   5.340   1.371   8.845
 2391POPC   D2A31816   5.339   1.178   8.443
 2391POPC   C3A31817   5.417   1.357   8.047
 2391POPC   C4A31818   5.173   1.153   7.742
 2391POPC   C1B31819   4.879   1.523   8.714
 2391POPC   C2B31820   5.098   1.637   8.346
 2391POPC   C3B31821   4.967   1.579   7.915
 2391POPC   C4B31822   4.974   1.503   7.425
 2392POPC   NC331823  30.443  41.967   9.518
 2392POPC   PO431824  30.915  41.400   9.523
 2392POPC   GL131825  30.949  41.474   9.106
 2392POPC   GL231826  30.787  41.803   9.158
 2392POPC   C1A31827  30.919  41.668   8.688
 2392POPC   D2A31828  31.000  41.791   8.275
 2392POPC   C3A31829  30.842  41.448   8.007
 2392POPC   C4A31830  30.474  41.452   7.780
 2392POPC   C1B31831  30.480  41.941   8.830
 2392POPC   C2B31832  30.570  42.071   8.410
 2392POPC   C3B31833  30.578  41.918   7.991
 2392POPC   C4B31834  30.970  41.885   7.773
 2393POPC   NC331835   2.038  36.646   9.616
 2393POPC   PO431836   1.636  37.132   9.862
 2393POPC   GL131837   2.118  37.042   9.360
 2393POPC   GL231838   2.123  37.333   9.106
 2393POPC   C1A31839   2.177  36.757   8.933
 2393POPC   D2A31840   1.982  36.675   8.481
 2393POPC   C3A31841   2.072  36.841   8.042
 2393POPC   C4A31842   1.805  36.809   7.668
 2393POPC   C1B31843   1.941  37.146   8.733
 2393POPC   C2B31844   1.829  37.214   8.345
 2393POPC   C3B31845   1.582  37.129   8.015
 2393POPC   C4B31846   1.667  37.332   7.627
 2394POPC   NC331847  32.257  35.712   9.549
 2394POPC   PO431848  32.005  36.305   9.483
 2394POPC   GL131849  32.139  36.058   9.157
 2394POPC   GL231850  31.892  35.792   9.165
 2394POPC   C1A31851  32.294  36.226   8.766
 2394POPC   D2A31852  32.526  36.222   8.391
 2394POPC   C3A31853  32.388  36.282   8.008
 2394POPC   C4A31854  32.579  36.035   7.701
 2394POPC   C1B31855  31.879  35.934   8.734
 2394POPC   C2B31856  32.048  35.991   8.295
 2394POPC   C3B31857  32.061  35.946   7.824
 2394POPC   C4B31858  31.788  35.871   7.469
 2395POPC   NC331859  25.934  28.383   9.437
 2395POPC   PO431860  26.535  28.113   9.306
 2395POPC   GL131861  26.200  28.199   9.029
 2395POPC   GL231862  26.126  28.558   9.017
 2395POPC   C1A31863  26.123  28.271   8.592
 2395POPC   D2A31864  25.893  28.147   8.241
 2395POPC   C3A31865  26.139  28.053   7.900
 2395POPC   C4A31866  26.171  28.218   7.505
 2395POPC   C1B31867  25.881  28.720   8.705
 2395POPC   C2B31868  25.948  28.668   8.276
 2395POPC   C3B31869  26.068  28.582   7.881
 2395POPC   C4B31870  25.823  28.708   7.555
 2396POPC   NC331871   8.000  16.249   9.578
 2396POPC   PO431872   7.993  16.919   9.841
 2396POPC   GL131873   8.017  16.720   9.345
 2396POPC   GL231874   8.338  16.554   9.193
 2396POPC   C1A31875   8.027  16.647   8.826
 2396POPC   D2A31876   8.319  16.452   8.493
 2396POPC   C3A31877   8.207  16.422   8.091
 2396POPC   C4A31878   8.009  16.627   7.770
 2396POPC   C1B31879   8.563  16.744   8.807
 2396POPC   C2B31880   8.604  16.896   8.383
 2396POPC   C3B31881   8.395  16.905   8.014
 2396POPC   C4B31882   8.509  16.625   7.720
 2397POPC   NC331883  31.512  33.513   9.535
 2397POPC   PO431884  31.080  33.962   9.514
 2397POPC   GL131885  31.351  33.855   9.193
 2397POPC   GL231886  31.338  34.205   9.088
 2397POPC   C1A31887  31.518  33.708   8.785
 2397POPC   D2A31888  31.745  33.682   8.400
 2397POPC   C3A31889  31.503  33.762   8.071
 2397POPC   C4A31890  31.410  33.494   7.753
 2397POPC   C1B31891  31.106  34.009   8.791
 2397POPC   C2B31892  31.090  33.842   8.422
 2397POPC   C3B31893  31.132  34.125   8.095
 2397POPC   C4B31894  31.218  34.001   7.722
 2398POPC   NC331895   4.612  22.560   9.426
 2398POPC   PO431896   4.105  23.061   9.499
 2398POPC   GL131897   4.260  22.823   9.164
 2398POPC   GL231898   3.974  22.633   9.159
 2398POPC   C1A31899   4.414  22.760   8.735
 2398POPC   D2A31900   4.697  22.898   8.412
 2398POPC   C3A31901   4.575  23.024   8.002
 2398POPC   C4A31902   4.453  22.875   7.590
 2398POPC   C1B31903   3.927  22.902   8.792
 2398POPC   C2B31904   4.005  22.784   8.382
 2398POPC   C3B31905   4.123  22.741   7.972
 2398POPC   C4B31906   4.078  22.557   7.553
 2399POPC   NC331907  21.956   5.572   9.575
 2399POPC   PO431908  22.080   6.246   9.557
 2399POPC   GL131909  22.157   5.997   9.155
 2399POPC   GL231910  21.989   5.681   9.080
 2399POPC   C1A31911  22.402   5.807   8.788
 2399POPC   D2A31912  22.338   5.924   8.354
 2399POPC   C3A31913  22.677   5.804   8.094
 2399POPC   C4A31914  22.648   5.657   7.682
 2399POPC   C1B31915  21.912   5.839   8.661
 2399POPC   C2B31916  21.965   5.584   8.277
 2399POPC   C3B31917  22.138   5.698   7.886
 2399POPC   C4B31918  21.985   5.691   7.465
 2400POPC   NC331919  14.679  34.167   9.609
 2400POPC   PO431920  14.174  33.752   9.519
 2400POPC   GL131921  14.402  33.727   9.122
 2400POPC   GL231922  14.657  34.003   9.091
 2400POPC   C1A31923  14.173  33.754   8.722
 2400POPC   D2A31924  13.998  33.423   8.454
 2400POPC   C3A31925  13.985  33.559   8.042
 2400POPC   C4A31926  14.323  33.595   7.778
 2400POPC   C1B31927  14.659  33.793   8.669
 2400POPC   C2B31928  14.456  33.844   8.245
 2400POPC   C3B31929  14.687  33.922   7.847
 2400POPC   C4B31930  14.629  34.210   7.510
 2401POPC   NC331931  30.060  10.775   9.625
 2401POPC   PO431932  29.579  10.331   9.621
 2401POPC   GL131933  29.708  10.603   9.281
 2401POPC   GL231934  29.871  10.304   9.186
 2401POPC   C1A31935  30.004  10.752   8.928
 2401POPC   D2A31936  30.194  10.914   8.507
 2401POPC   C3A31937  30.128  10.622   8.134
 2401POPC   C4A31938  29.915  10.679   7.690
 2401POPC   C1B31939  29.983  10.260   8.778
 2401POPC   C2B31940  29.804  10.263   8.382
 2401POPC   C3B31941  29.891  10.190   7.985
 2401POPC   C4B31942  30.163  10.235   7.677
 2402POPC   NC331943   6.501  19.013   9.435
 2402POPC   PO431944   6.855  18.443   9.644
 2402POPC   GL131945   6.981  19.050   9.321
 2402POPC   GL231946   6.775  19.321   9.151
 2402POPC   C1A31947   6.895  19.036   8.765
 2402POPC   D2A31948   7.057  19.000   8.380
 2402POPC   C3A31949   6.798  18.871   8.042
 2402POPC   C4A31950   6.976  18.772   7.667
 2402POPC   C1B31951   6.614  19.450   8.737
 2402POPC   C2B31952   6.618  19.294   8.303
 2402POPC   C3B31953   6.535  19.276   7.849
 2402POPC   C4B31954   6.530  18.962   7.536
 2403POPC   NC331955  17.687  44.564   9.494
 2403POPC   PO431956  17.079  44.801   9.294
 2403POPC   GL131957  17.357  44.630   9.078
 2403POPC   GL231958  17.622  44.893   9.109
 2403POPC   C1A31959  17.366  44.775   8.672
 2403POPC   D2A31960  17.577  44.964   8.357
 2403POPC   C3A31961  17.475  44.850   7.968
 2403POPC   C4A31962  17.190  44.525   7.805
 2403POPC   C1B31963  17.816  44.605   8.853
 2403POPC   C2B31964  17.796  44.526   8.456
 2403POPC   C3B31965  17.943  44.681   8.112
 2403POPC   C4B31966  17.835  44.609   7.715
 2404POPC   NC331967  29.194  33.704   9.562
 2404POPC   PO431968  29.256  34.385   9.521
 2404POPC   GL131969  29.193  34.047   9.193
 2404POPC   GL231970  28.901  34.113   9.068
 2404POPC   C1A31971  29.142  33.722   8.828
 2404POPC   D2A31972  29.343  33.824   8.382
 2404POPC   C3A31973  29.290  33.616   7.942
 2404POPC   C4A31974  29.048  33.425   7.575
 2404POPC   C1B31975  29.093  34.209   8.684
 2404POPC   C2B31976  28.982  34.169   8.299
 2404POPC   C3B31977  28.858  33.848   8.089
 2404POPC   C4B31978  28.951  33.910   7.690
 2405POPC   NC331979   1.721   3.070   9.587
 2405POPC   PO431980   2.184   2.569   9.442
 2405POPC   GL131981   2.030   2.899   9.198
 2405POPC   GL231982   1.726   2.770   9.154
 2405POPC   C1A31983   2.063   3.040   8.785
 2405POPC   D2A31984   2.036   2.807   8.412
 2405POPC   C3A31985   1.934   2.988   8.031
 2405POPC   C4A31986   2.084   3.005   7.623
 2405POPC   C1B31987   1.944   2.510   8.836
 2405POPC   C2B31988   1.794   2.287   8.474
 2405POPC   C3B31989   1.843   2.427   8.055
 2405POPC   C4B31990   1.573   2.417   7.706
 2406POPC   NC331991  20.801   3.521   9.516
 2406POPC   PO431992  20.065   3.667   9.545
 2406POPC   GL131993  20.308   3.528   9.156
 2406POPC   GL231994  20.496   3.799   9.033
 2406POPC   C1A31995  20.549   3.349   8.755
 2406POPC   D2A31996  20.822   3.172   8.374
 2406POPC   C3A31997  20.773   3.347   7.932
 2406POPC   C4A31998  20.613   3.528   7.518
 2406POPC   C1B31999  20.731   3.862   8.674
 2406POPC   C2B32000  20.815   3.684   8.318
 2406POPC   C3B32001  20.688   3.842   7.944
 2406POPC   C4B32002  20.904   3.983   7.611
 2407POPC   NC332003  19.648  22.339   9.249
 2407POPC   PO432004  19.278  21.858   9.361
 2407POPC   GL132005  19.117  22.111   9.040
 2407POPC   GL232006  19.147  22.475   9.082
 2407POPC   C1A32007  19.233  22.217   8.616
 2407POPC   D2A32008  19.365  22.272   8.199
 2407POPC   C3A32009  19.371  21.916   7.938
 2407POPC   C4A32010  19.131  21.809   7.608
 2407POPC   C1B32011  18.819  22.482   8.750
 2407POPC   C2B32012  18.738  22.258   8.361
 2407POPC   C3B32013  18.894  22.149   7.952
 2407POPC   C4B32014  19.182  22.353   7.700
 2408POPC   NC332015  18.565  27.708   9.348
 2408POPC   PO432016  18.158  27.190   9.605
 2408POPC   GL132017  18.187  27.436   9.185
 2408POPC   GL232018  18.566  27.362   8.996
 2408POPC   C1A32019  18.180  27.695   8.790
 2408POPC   D2A32020  17.882  27.713   8.469
 2408POPC   C3A32021  18.081  27.720   8.043
 2408POPC   C4A32022  18.023  27.509   7.645
 2408POPC   C1B32023  18.678  27.693   8.705
 2408POPC   C2B32024  18.518  27.838   8.321
 2408POPC   C3B32025  18.637  27.751   7.932
 2408POPC   C4B32026  18.536  27.419   7.644
 2409POPC   NC332027   6.196  38.970   9.459
 2409POPC   PO432028   5.820  39.551   9.597
 2409POPC   GL132029   5.751  39.537   9.174
 2409POPC   GL232030   6.075  39.363   9.137
 2409POPC   C1A32031   5.594  39.402   8.779
 2409POPC   D2A32032   5.635  39.032   8.514
 2409POPC   C3A32033   5.597  39.117   8.096
 2409POPC   C4A32034   5.702  39.173   7.681
 2409POPC   C1B32035   6.072  39.241   8.722
 2409POPC   C2B32036   5.939  39.434   8.337
 2409POPC   C3B32037   6.105  39.354   7.915
 2409POPC   C4B32038   6.183  38.975   7.637
 2410POPC   NC332039  16.959   8.361   9.591
 2410POPC   PO432040  16.410   8.189   9.296
 2410POPC   GL132041  16.737   8.098   9.042
 2410POPC   GL232042  17.056   8.091   9.180
 2410POPC   C1A32043  16.701   8.045   8.612
 2410POPC   D2A32044  16.533   8.304   8.307
 2410POPC   C3A32045  16.662   8.218   7.921
 2410POPC   C4A32046  16.858   8.223   7.545
 2410POPC   C1B32047  17.176   8.311   8.804
 2410POPC   C2B32048  17.043   8.352   8.375
 2410POPC   C3B32049  17.184   8.351   7.959
 2410POPC   C4B32050  17.168   8.635   7.628
 2411POPC   NC332051  44.940  31.142   9.431
 2411POPC   PO432052   0.026  30.437   9.417
 2411POPC   GL132053   0.279  30.535   9.047
 2411POPC   GL232054   0.428  30.831   9.136
 2411POPC   C1A32055   0.357  30.725   8.642
 2411POPC   D2A32056   0.305  30.892   8.246
 2411POPC   C3A32057   0.444  30.559   8.042
 2411POPC   C4A32058   0.494  30.547   7.624
 2411POPC   C1B32059   0.745  31.006   8.795
 2411POPC   C2B32060   0.802  30.833   8.356
 2411POPC   C3B32061   0.749  30.938   7.928
 2411POPC   C4B32062   0.752  30.946   7.471
 2412POPC   NC332063  12.747  14.592   9.291
 2412POPC   PO432064  12.710  15.223   9.590
 2412POPC   GL132065  12.805  15.104   9.161
 2412POPC   GL232066  13.129  15.244   9.143
 2412POPC   C1A32067  12.927  15.034   8.723
 2412POPC   D2A32068  13.098  14.963   8.323
 2412POPC   C3A32069  12.825  15.152   8.061
 2412POPC   C4A32070  12.838  15.235   7.656
 2412POPC   C1B32071  13.222  15.539   8.835
 2412POPC   C2B32072  13.167  15.465   8.408
 2412POPC   C3B32073  13.120  15.538   7.963
 2412POPC   C4B32074  13.309  15.138   7.808
 2413POPC   NC332075  42.693  37.502   9.458
 2413POPC   PO432076  42.110  37.661   9.699
 2413POPC   GL132077  42.201  37.628   9.221
 2413POPC   GL232078  42.506  37.771   9.074
 2413POPC   C1A32079  42.162  37.503   8.760
 2413POPC   D2A32080  41.909  37.392   8.403
 2413POPC   C3A32081  42.134  37.408   8.033
 2413POPC   C4A32082  42.349  37.625   7.705
 2413POPC   C1B32083  42.699  37.522   8.730
 2413POPC   C2B32084  42.613  37.479   8.263
 2413POPC   C3B32085  42.842  37.669   7.878
 2413POPC   C4B32086  42.715  37.851   7.447
 2414POPC   NC332087   1.343  37.363   9.564
 2414POPC   PO432088   1.165  37.968   9.579
 2414POPC   GL132089   1.115  37.847   9.167
 2414POPC   GL232090   0.812  37.973   9.114
 2414POPC   C1A32091   1.262  37.765   8.749
 2414POPC   D2A32092   1.374  37.425   8.483
 2414POPC   C3A32093   1.231  37.514   8.090
 2414POPC   C4A32094   1.339  37.720   7.715
 2414POPC   C1B32095   0.753  37.753   8.729
 2414POPC   C2B32096   0.717  37.533   8.339
 2414POPC   C3B32097   0.769  37.697   7.939
 2414POPC   C4B32098   0.896  37.549   7.573
 2415POPC   NC332099  28.807  40.312   9.333
 2415POPC   PO432100  28.430  39.769   9.480
 2415POPC   GL132101  28.383  39.938   9.084
 2415POPC   GL232102  28.033  40.019   8.991
 2415POPC   C1A32103  28.453  40.202   8.711
 2415POPC   D2A32104  28.761  40.353   8.399
 2415POPC   C3A32105  28.605  40.189   8.018
 2415POPC   C4A32106  28.492  39.835   7.786
 2415POPC   C1B32107  28.177  39.755   8.658
 2415POPC   C2B32108  28.266  39.877   8.256
 2415POPC   C3B32109  28.036  40.006   7.893
 2415POPC   C4B32110  28.176  40.016   7.427
 2416POPC   NC332111  27.075  33.839   9.323
 2416POPC   PO432112  27.604  34.074   9.726
 2416POPC   GL132113  27.656  33.912   9.269
 2416POPC   GL232114  27.435  34.083   9.075
 2416POPC   C1A32115  27.592  33.673   8.816
 2416POPC   D2A32116  27.381  33.591   8.391
 2416POPC   C3A32117  27.585  33.668   7.973
 2416POPC   C4A32118  27.671  33.952   7.631
 2416POPC   C1B32119  27.177  34.052   8.723
 2416POPC   C2B32120  27.207  34.241   8.356
 2416POPC   C3B32121  27.347  34.148   7.978
 2416POPC   C4B32122  27.184  33.851   7.713
 2417POPC   NC332123  26.134  34.058   9.584
 2417POPC   PO432124  26.001  34.696   9.533
 2417POPC   GL132125  25.860  34.672   9.128
 2417POPC   GL232126  25.929  34.344   9.141
 2417POPC   C1A32127  25.985  34.770   8.724
 2417POPC   D2A32128  26.191  34.619   8.351
 2417POPC   C3A32129  26.022  34.853   8.057
 2417POPC   C4A32130  25.908  34.920   7.683
 2417POPC   C1B32131  26.266  34.338   8.774
 2417POPC   C2B32132  26.252  34.078   8.400
 2417POPC   C3B32133  26.407  34.238   8.011
 2417POPC   C4B32134  26.217  34.498   7.752
 2418POPC   NC332135  33.027  25.873   9.673
 2418POPC   PO432136  33.400  26.220   9.320
 2418POPC   GL132137  33.085  26.017   9.092
 2418POPC   GL232138  32.959  25.686   9.189
 2418POPC   C1A32139  33.117  26.174   8.685
 2418POPC   D2A32140  33.345  26.218   8.310
 2418POPC   C3A32141  33.025  26.179   8.023
 2418POPC   C4A32142  32.926  26.362   7.646
 2418POPC   C1B32143  33.077  25.595   8.769
 2418POPC   C2B32144  33.065  25.746   8.362
 2418POPC   C3B32145  33.135  25.553   7.974
 2418POPC   C4B32146  33.049  25.818   7.667
 2419POPC   NC332147  34.722  30.615   9.600
 2419POPC   PO432148  35.251  30.235   9.762
 2419POPC   GL132149  34.928  30.294   9.264
 2419POPC   GL232150  34.570  30.454   9.134
 2419POPC   C1A32151  34.868  30.554   8.774
 2419POPC   D2A32152  34.445  30.648   8.523
 2419POPC   C3A32153  34.458  30.796   8.078
 2419POPC   C4A32154  34.671  30.562   7.739
 2419POPC   C1B32155  34.244  30.300   8.835
 2419POPC   C2B32156  34.208  30.209   8.348
 2419POPC   C3B32157  34.183  30.388   7.883
 2419POPC   C4B32158  34.235  30.742   7.540
 2420POPC   NC332159  30.212  43.529   9.441
 2420POPC   PO432160  29.839  44.133   9.494
 2420POPC   GL132161  30.005  43.895   9.159
 2420POPC   GL232162  29.796  43.662   9.055
 2420POPC   C1A32163  30.214  43.792   8.779
 2420POPC   D2A32164  29.974  43.959   8.451
 2420POPC   C3A32165  30.154  43.921   8.068
 2420POPC   C4A32166  30.264  43.966   7.655
 2420POPC   C1B32167  29.606  44.010   8.828
 2420POPC   C2B32168  29.481  44.097   8.413
 2420POPC   C3B32169  29.639  43.960   8.014
 2420POPC   C4B32170  29.856  43.656   7.759
 2421POPC   NC332171   0.105   3.597   9.409
 2421POPC   PO432172   0.568   3.252   9.419
 2421POPC   GL132173   0.442   3.495   9.030
 2421POPC   GL232174   0.385   3.855   9.054
 2421POPC   C1A32175   0.467   3.381   8.599
 2421POPC   D2A32176   0.773   3.435   8.256
 2421POPC   C3A32177   0.686   3.595   7.819
 2421POPC   C4A32178   0.573   3.453   7.396
 2421POPC   C1B32179   0.481   3.927   8.619
 2421POPC   C2B32180   0.361   3.732   8.222
 2421POPC   C3B32181   0.191   3.498   7.880
 2421POPC   C4B32182   0.269   3.820   7.584
 2422POPC   NC332183  16.260  27.134   9.208
 2422POPC   PO432184  16.610  26.636   9.513
 2422POPC   GL132185  16.763  26.937   9.201
 2422POPC   GL232186  16.576  26.875   8.911
 2422POPC   C1A32187  17.037  27.002   8.814
 2422POPC   D2A32188  16.874  26.916   8.375
 2422POPC   C3A32189  17.042  26.570   8.129
 2422POPC   C4A32190  17.032  26.694   7.705
 2422POPC   C1B32191  16.521  27.207   8.608
 2422POPC   C2B32192  16.343  26.991   8.270
 2422POPC   C3B32193  16.591  26.889   7.918
 2422POPC   C4B32194  16.684  27.165   7.594
 2423POPC   NC332195  14.771  19.801   9.627
 2423POPC   PO432196  14.215  20.210   9.578
 2423POPC   GL132197  14.469  20.051   9.240
 2423POPC   GL232198  14.456  19.691   9.248
 2423POPC   C1A32199  14.356  20.028   8.802
 2423POPC   D2A32200  14.473  20.022   8.365
 2423POPC   C3A32201  14.262  20.051   7.959
 2423POPC   C4A32202  14.507  19.964   7.590
 2423POPC   C1B32203  14.716  19.630   8.900
 2423POPC   C2B32204  14.788  19.618   8.443
 2423POPC   C3B32205  14.662  19.680   7.998
 2423POPC   C4B32206  14.658  19.396   7.626
 2424POPC   NC332207  24.197  22.831   9.474
 2424POPC   PO432208  24.819  23.169   9.359
 2424POPC   GL132209  24.586  23.301   9.013
 2424POPC   GL232210  24.261  23.160   9.062
 2424POPC   C1A32211  24.676  23.197   8.573
 2424POPC   D2A32212  24.823  22.781   8.396
 2424POPC   C3A32213  24.695  22.762   7.976
 2424POPC   C4A32214  24.365  23.060   7.841
 2424POPC   C1B32215  24.360  22.833   8.759
 2424POPC   C2B32216  24.284  22.835   8.310
 2424POPC   C3B32217  24.153  22.606   7.933
 2424POPC   C4B32218  24.166  22.634   7.447
 2425POPC   NC332219   1.171   1.516   9.566
 2425POPC   PO432220   1.695   1.109   9.596
 2425POPC   GL132221   1.339   1.148   9.207
 2425POPC   GL232222   1.112   0.816   9.126
 2425POPC   C1A32223   1.176   1.177   8.765
 2425POPC   D2A32224   1.310   1.337   8.364
 2425POPC   C3A32225   1.462   1.177   7.957
 2425POPC   C4A32226   1.341   1.288   7.529
 2425POPC   C1B32227   0.837   0.798   8.773
 2425POPC   C2B32228   0.949   0.762   8.337
 2425POPC   C3B32229   0.994   0.959   7.908
 2425POPC   C4B32230   0.906   0.920   7.451
 2426POPC   NC332231  17.246   7.468   9.590
 2426POPC   PO432232  17.936   7.620   9.544
 2426POPC   GL132233  17.631   7.405   9.227
 2426POPC   GL232234  17.324   7.492   9.090
 2426POPC   C1A32235  17.704   7.309   8.801
 2426POPC   D2A32236  17.474   7.471   8.485
 2426POPC   C3A32237  17.703   7.446   8.102
 2426POPC   C4A32238  17.740   7.301   7.671
 2426POPC   C1B32239  17.093   7.751   8.807
 2426POPC   C2B32240  16.933   7.618   8.409
 2426POPC   C3B32241  17.145   7.351   8.125
 2426POPC   C4B32242  17.291   7.475   7.773
 2427POPC   NC332243  38.821  30.900   9.525
 2427POPC   PO432244  39.461  30.662   9.454
 2427POPC   GL132245  39.148  30.803   9.147
 2427POPC   GL232246  38.840  30.653   9.066
 2427POPC   C1A32247  39.252  30.897   8.729
 2427POPC   D2A32248  39.342  30.623   8.404
 2427POPC   C3A32249  39.322  30.826   8.011
 2427POPC   C4A32250  39.430  30.701   7.598
 2427POPC   C1B32251  38.849  30.544   8.627
 2427POPC   C2B32252  38.870  30.636   8.180
 2427POPC   C3B32253  38.963  30.542   7.771
 2427POPC   C4B32254  39.026  30.558   7.331
 2428POPC   NC332255  20.378  10.796   9.634
 2428POPC   PO432256  20.612  11.464   9.445
 2428POPC   GL132257  20.597  11.290   9.048
 2428POPC   GL232258  20.500  10.941   9.123
 2428POPC   C1A32259  20.794  11.154   8.710
 2428POPC   D2A32260  20.549  11.303   8.415
 2428POPC   C3A32261  20.632  11.169   8.053
 2428POPC   C4A32262  20.745  11.399   7.732
 2428POPC   C1B32263  20.269  11.025   8.728
 2428POPC   C2B32264  20.113  11.088   8.267
 2428POPC   C3B32265  20.220  11.052   7.777
 2428POPC   C4B32266  20.276  11.114   7.295
 2429POPC   NC332267   1.442  44.132   9.591
 2429POPC   PO432268   0.940  43.738   9.523
 2429POPC   GL132269   1.062  44.020   9.192
 2429POPC   GL232270   1.420  43.921   9.120
 2429POPC   C1A32271   1.085  43.865   8.772
 2429POPC   D2A32272   1.002  43.973   8.393
 2429POPC   C3A32273   0.872  43.620   8.209
 2429POPC   C4A32274   0.897  43.597   7.752
 2429POPC   C1B32275   1.588  43.788   8.701
 2429POPC   C2B32276   1.395  43.627   8.335
 2429POPC   C3B32277   1.283  43.854   7.956
 2429POPC   C4B32278   1.600  44.116   7.779
 2430POPC   NC332279  37.299  15.416   9.429
 2430POPC   PO432280  37.769  14.941   9.618
 2430POPC   GL132281  37.587  15.051   9.195
 2430POPC   GL232282  37.611  15.401   9.027
 2430POPC   C1A32283  37.510  14.944   8.765
 2430POPC   D2A32284  37.796  15.129   8.453
 2430POPC   C3A32285  37.850  14.922   8.076
 2430POPC   C4A32286  37.545  15.000   7.737
 2430POPC   C1B32287  38.016  15.448   8.802
 2430POPC   C2B32288  38.142  15.538   8.363
 2430POPC   C3B32289  37.879  15.433   8.003
 2430POPC   C4B32290  37.928  15.384   7.569
 2431POPC   NC332291  11.018  13.917   9.468
 2431POPC   PO432292  10.537  13.411   9.305
 2431POPC   GL132293  10.651  13.690   9.030
 2431POPC   GL232294  10.365  13.887   9.109
 2431POPC   C1A32295  10.752  13.668   8.569
 2431POPC   D2A32296  10.579  13.953   8.251
 2431POPC   C3A32297  10.637  13.765   7.865
 2431POPC   C4A32298  10.586  13.356   7.681
 2431POPC   C1B32299  10.259  13.745   8.667
 2431POPC   C2B32300  10.067  13.867   8.253
 2431POPC   C3B32301  10.100  13.833   7.797
 2431POPC   C4B32302  10.393  13.806   7.430
 2432POPC   NC332303  33.259  33.049   9.610
 2432POPC   PO432304  32.647  33.029   9.694
 2432POPC   GL132305  32.899  33.012   9.266
 2432POPC   GL232306  33.207  32.831   9.162
 2432POPC   C1A32307  32.942  33.107   8.813
 2432POPC   D2A32308  33.176  33.217   8.407
 2432POPC   C3A32309  32.990  33.086   8.000
 2432POPC   C4A32310  33.195  33.116   7.596
 2432POPC   C1B32311  33.384  32.902   8.764
 2432POPC   C2B32312  33.451  32.762   8.344
 2432POPC   C3B32313  33.485  32.844   7.920
 2432POPC   C4B32314  33.516  32.718   7.496
 2433POPC   NC332315  34.643  34.911   9.528
 2433POPC   PO432316  34.275  34.355   9.485
 2433POPC   GL132317  34.359  34.624   9.134
 2433POPC   GL232318  34.716  34.681   9.082
 2433POPC   C1A32319  34.322  34.452   8.701
 2433POPC   D2A32320  34.593  34.186   8.431
 2433POPC   C3A32321  34.706  34.273   8.020
 2433POPC   C4A32322  34.840  34.356   7.600
 2433POPC   C1B32323  34.639  34.845   8.684
 2433POPC   C2B32324  34.509  34.684   8.266
 2433POPC   C3B32325  34.651  34.783   7.844
 2433POPC   C4B32326  34.664  35.088   7.512
 2434POPC   NC332327  29.334  36.519   9.509
 2434POPC   PO432328  28.924  37.112   9.339
 2434POPC   GL132329  29.176  36.812   9.033
 2434POPC   GL232330  29.046  36.551   9.076
 2434POPC   C1A32331  29.311  36.883   8.579
 2434POPC   D2A32332  28.997  37.031   8.253
 2434POPC   C3A32333  29.123  37.189   7.865
 2434POPC   C4A32334  29.350  36.862   7.679
 2434POPC   C1B32335  28.883  36.633   8.638
 2434POPC   C2B32336  29.012  36.467   8.246
 2434POPC   C3B32337  28.968  36.417   7.812
 2434POPC   C4B32338  28.994  36.593   7.452
 2435POPC   NC332339  14.490  44.788   9.488
 2435POPC   PO432340  13.965  44.358   9.530
 2435POPC   GL132341  14.216  44.510   9.146
 2435POPC   GL232342  14.586  44.463   9.089
 2435POPC   C1A32343  14.286  44.704   8.717
 2435POPC   D2A32344  14.321  44.520   8.304
 2435POPC   C3A32345  14.458  44.681   7.917
 2435POPC   C4A32346  14.286  44.678   7.507
 2435POPC   C1B32347  14.759  44.812   8.854
 2435POPC   C2B32348  14.794  44.776   8.410
 2435POPC   C3B32349  14.910  44.963   8.022
 2435POPC   C4B32350  14.795  44.912   7.603
 2436POPC   NC332351  36.101  19.314   9.454
 2436POPC   PO432352  35.807  18.685   9.584
 2436POPC   GL132353  36.044  18.915   9.184
 2436POPC   GL232354  36.328  18.787   9.048
 2436POPC   C1A32355  36.015  19.066   8.725
 2436POPC   D2A32356  36.027  19.282   8.311
 2436POPC   C3A32357  35.983  18.984   7.982
 2436POPC   C4A32358  36.068  19.111   7.579
 2436POPC   C1B32359  36.523  18.939   8.716
 2436POPC   C2B32360  36.392  18.889   8.295
 2436POPC   C3B32361  36.489  18.993   7.873
 2436POPC   C4B32362  36.483  18.770   7.476
 2437POPC   NC332363  10.260  44.030   9.457
 2437POPC   PO432364  10.804  43.682   9.780
 2437POPC   GL132365  10.705  43.897   9.302
 2437POPC   GL232366  10.661  44.197   9.157
 2437POPC   C1A32367  10.476  43.816   8.865
 2437POPC   D2A32368  10.351  43.627   8.482
 2437POPC   C3A32369  10.335  43.831   8.118
 2437POPC   C4A32370  10.486  43.724   7.715
 2437POPC   C1B32371  10.355  44.316   8.814
 2437POPC   C2B32372  10.102  44.162   8.490
 2437POPC   C3B32373   9.961  44.204   8.083
 2437POPC   C4B32374  10.239  44.161   7.739
 2438POPC   NC332375  10.973  29.657   9.274
 2438POPC   PO432376  11.010  30.137   9.782
 2438POPC   GL132377  11.228  30.140   9.326
 2438POPC   GL232378  11.026  30.134   9.039
 2438POPC   C1A32379  11.521  30.079   8.919
 2438POPC   D2A32380  11.386  30.090   8.457
 2438POPC   C3A32381  11.498  30.028   8.008
 2438POPC   C4A32382  11.388  29.682   7.672
 2438POPC   C1B32383  10.921  30.226   8.631
 2438POPC   C2B32384  10.904  30.204   8.200
 2438POPC   C3B32385  10.997  29.926   7.878
 2438POPC   C4B32386  10.950  29.830   7.440
 2439POPC   NC332387  18.477  12.381   9.566
 2439POPC   PO432388  18.386  11.681   9.502
 2439POPC   GL132389  18.408  11.947   9.133
 2439POPC   GL232390  18.710  12.114   9.182
 2439POPC   C1A32391  18.222  12.174   8.750
 2439POPC   D2A32392  18.056  12.305   8.316
 2439POPC   C3A32393  18.009  11.996   7.937
 2439POPC   C4A32394  18.173  12.009   7.491
 2439POPC   C1B32395  18.868  12.017   8.762
 2439POPC   C2B32396  18.705  11.837   8.372
 2439POPC   C3B32397  18.546  11.978   7.965
 2439POPC   C4B32398  18.674  12.148   7.560
 2440POPC   NC332399  13.350  27.694   9.466
 2440POPC   PO432400  13.841  27.252   9.447
 2440POPC   GL132401  13.705  27.322   9.053
 2440POPC   GL232402  13.374  27.437   9.055
 2440POPC   C1A32403  13.882  27.478   8.676
 2440POPC   D2A32404  13.876  27.862   8.394
 2440POPC   C3A32405  13.966  27.774   7.944
 2440POPC   C4A32406  13.923  27.561   7.545
 2440POPC   C1B32407  13.467  27.760   8.777
 2440POPC   C2B32408  13.442  27.590   8.372
 2440POPC   C3B32409  13.305  27.393   8.029
 2440POPC   C4B32410  13.478  27.633   7.736
 2441POPC   NC332411  41.062   9.816   9.432
 2441POPC   PO432412  40.455   9.483   9.381
 2441POPC   GL132413  40.724   9.690   9.021
 2441POPC   GL232414  41.104   9.591   8.997
 2441POPC   C1A32415  40.839   9.488   8.603
 2441POPC   D2A32416  41.104   9.551   8.264
 2441POPC   C3A32417  40.816   9.806   8.046
 2441POPC   C4A32418  40.607   9.769   7.666
 2441POPC   C1B32419  41.132   9.997   8.814
 2441POPC   C2B32420  41.205  10.159   8.434
 2441POPC   C3B32421  41.305  10.009   8.053
 2441POPC   C4B32422  41.049  10.125   7.711
 2442POPC   NC332423  39.744   9.041  10.083
 2442POPC   PO432424  40.096   8.761   9.549
 2442POPC   GL132425  39.981   9.092   9.183
 2442POPC   GL232426  40.188   8.940   8.940
 2442POPC   C1A32427  39.897   9.284   8.710
 2442POPC   D2A32428  40.078   9.200   8.281
 2442POPC   C3A32429  39.901   9.062   7.880
 2442POPC   C4A32430  39.905   9.164   7.436
 2442POPC   C1B32431  40.427   9.196   8.673
 2442POPC   C2B32432  40.640   9.122   8.276
 2442POPC   C3B32433  40.409   8.961   7.926
 2442POPC   C4B32434  40.395   9.020   7.486
 2443POPC   NC332435  32.470  44.167   9.674
 2443POPC   PO432436  32.180  43.562   9.794
 2443POPC   GL132437  32.249  43.801   9.349
 2443POPC   GL232438  32.612  43.814   9.285
 2443POPC   C1A32439  32.213  44.028   8.917
 2443POPC   D2A32440  32.139  44.130   8.456
 2443POPC   C3A32441  32.035  43.915   8.046
 2443POPC   C4A32442  32.031  43.927   7.563
 2443POPC   C1B32443  32.492  43.626   8.908
 2443POPC   C2B32444  32.397  43.672   8.491
 2443POPC   C3B32445  32.370  43.452   8.114
 2443POPC   C4B32446  32.173  43.488   7.740
 2444POPC   NC332447  24.122  32.599   9.355
 2444POPC   PO432448  24.545  32.144   9.616
 2444POPC   GL132449  24.440  32.234   9.175
 2444POPC   GL232450  24.634  32.523   9.057
 2444POPC   C1A32451  24.262  32.331   8.729
 2444POPC   D2A32452  24.297  32.174   8.289
 2444POPC   C3A32453  24.480  32.443   7.970
 2444POPC   C4A32454  24.928  32.530   7.881
 2444POPC   C1B32455  24.737  32.135   8.788
 2444POPC   C2B32456  24.776  31.957   8.410
 2444POPC   C3B32457  24.795  32.034   8.002
 2444POPC   C4B32458  24.790  31.753   7.675
 2445POPC   NC332459  17.444  35.561   9.544
 2445POPC   PO432460  17.748  34.911   9.552
 2445POPC   GL132461  17.537  35.195   9.180
 2445POPC   GL232462  17.373  35.527   9.059
 2445POPC   C1A32463  17.396  35.155   8.738
 2445POPC   D2A32464  17.619  35.319   8.364
 2445POPC   C3A32465  17.359  35.230   8.041
 2445POPC   C4A32466  17.362  35.150   7.623
 2445POPC   C1B32467  17.379  35.689   8.659
 2445POPC   C2B32468  17.276  35.709   8.227
 2445POPC   C3B32469  17.559  35.662   7.847
 2445POPC   C4B32470  17.422  35.605   7.394
 2446POPC   NC332471  38.762  13.483   9.450
 2446POPC   PO432472  38.142  13.752   9.561
 2446POPC   GL132473  38.295  13.775   9.148
 2446POPC   GL232474  38.611  13.704   9.021
 2446POPC   C1A32475  38.187  13.599   8.742
 2446POPC   D2A32476  38.290  13.341   8.383
 2446POPC   C3A32477  38.215  13.520   8.009
 2446POPC   C4A32478  38.539  13.698   7.694
 2446POPC   C1B32479  38.632  13.342   8.779
 2446POPC   C2B32480  38.823  13.302   8.399
 2446POPC   C3B32481  38.685  13.304   8.012
 2446POPC   C4B32482  38.843  13.260   7.628
 2447POPC   NC332483  36.752   3.465   9.727
 2447POPC   PO432484  37.069   2.795   9.700
 2447POPC   GL132485  37.026   2.944   9.221
 2447POPC   GL232486  37.121   3.287   9.198
 2447POPC   C1A32487  36.882   2.695   8.777
 2447POPC   D2A32488  36.705   2.435   8.409
 2447POPC   C3A32489  36.775   2.609   8.014
 2447POPC   C4A32490  36.791   2.391   7.598
 2447POPC   C1B32491  37.140   3.127   8.763
 2447POPC   C2B32492  36.970   2.999   8.358
 2447POPC   C3B32493  37.146   3.089   7.955
 2447POPC   C4B32494  37.256   2.928   7.546
 2448POPC   NC332495  15.474  13.093   9.298
 2448POPC   PO432496  15.241  13.679   9.411
 2448POPC   GL132497  15.175  13.429   9.036
 2448POPC   GL232498  14.834  13.583   9.040
 2448POPC   C1A32499  15.118  13.384   8.606
 2448POPC   D2A32500  15.239  13.745   8.415
 2448POPC   C3A32501  15.444  13.787   8.045
 2448POPC   C4A32502  15.455  13.760   7.581
 2448POPC   C1B32503  14.745  13.857   8.714
 2448POPC   C2B32504  14.685  13.625   8.363
 2448POPC   C3B32505  14.896  13.640   8.002
 2448POPC   C4B32506  14.753  13.799   7.641
 2449POPC   NC332507  39.732  26.756   9.545
 2449POPC   PO432508  40.295  27.039   9.674
 2449POPC   GL132509  40.253  27.043   9.234
 2449POPC   GL232510  40.096  26.734   9.168
 2449POPC   C1A32511  40.092  27.054   8.793
 2449POPC   D2A32512  39.845  27.008   8.422
 2449POPC   C3A32513  40.106  27.077   8.076
 2449POPC   C4A32514  40.197  26.994   7.659
 2449POPC   C1B32515  39.853  26.570   8.803
 2449POPC   C2B32516  39.710  26.506   8.363
 2449POPC   C3B32517  39.830  26.650   7.954
 2449POPC   C4B32518  39.771  26.531   7.522
 2450POPC   NC332519  12.668  41.910   9.635
 2450POPC   PO432520  13.159  42.337   9.526
 2450POPC   GL132521  12.866  42.254   9.199
 2450POPC   GL232522  12.664  42.574   9.190
 2450POPC   C1A32523  12.926  42.092   8.765
 2450POPC   D2A32524  13.035  42.326   8.391
 2450POPC   C3A32525  12.928  42.096   8.034
 2450POPC   C4A32526  12.861  42.196   7.619
 2450POPC   C1B32527  12.882  42.605   8.811
 2450POPC   C2B32528  12.658  42.687   8.397
 2450POPC   C3B32529  12.734  42.556   7.979
 2450POPC   C4B32530  12.672  42.668   7.532
 2451POPC   NC332531   3.293  31.873   9.416
 2451POPC   PO432532   3.579  31.401   9.861
 2451POPC   GL132533   3.593  31.413   9.349
 2451POPC   GL232534   3.378  31.215   9.114
 2451POPC   C1A32535   3.642  31.566   8.874
 2451POPC   D2A32536   3.901  31.492   8.500
 2451POPC   C3A32537   3.809  31.595   8.059
 2451POPC   C4A32538   3.534  31.507   7.736
 2451POPC   C1B32539   3.297  31.128   8.708
 2451POPC   C2B32540   3.424  31.312   8.331
 2451POPC   C3B32541   3.158  31.285   7.984
 2451POPC   C4B32542   3.182  31.237   7.513
 2452POPC   NC332543  20.478   2.409   9.383
 2452POPC   PO432544  20.413   3.121   9.524
 2452POPC   GL132545  20.558   2.894   9.171
 2452POPC   GL232546  20.332   2.703   8.987
 2452POPC   C1A32547  20.792   2.856   8.780
 2452POPC   D2A32548  20.925   2.652   8.356
 2452POPC   C3A32549  20.939   2.878   7.934
 2452POPC   C4A32550  20.636   2.982   7.583
 2452POPC   C1B32551  20.333   2.861   8.574
 2452POPC   C2B32552  20.421   2.799   8.134
 2452POPC   C3B32553  20.589   2.527   7.831
 2452POPC   C4B32554  20.468   2.362   7.434
 2453POPC   NC332555  11.584  38.497   9.646
 2453POPC   PO432556  10.966  38.672   9.487
 2453POPC   GL132557  11.247  38.584   9.142
 2453POPC   GL232558  11.436  38.283   9.145
 2453POPC   C1A32559  11.211  38.456   8.704
 2453POPC   D2A32560  11.038  38.334   8.314
 2453POPC   C3A32561  11.255  38.444   7.981
 2453POPC   C4A32562  11.142  38.283   7.638
 2453POPC   C1B32563  11.481  37.988   8.780
 2453POPC   C2B32564  11.354  37.922   8.358
 2453POPC   C3B32565  11.496  38.009   7.933
 2453POPC   C4B32566  11.552  38.046   7.452
 2454POPC   NC332567  20.264  19.259   9.161
 2454POPC   PO432568  20.774  19.119   9.604
 2454POPC   GL132569  20.754  18.985   9.187
 2454POPC   GL232570  20.731  18.652   9.230
 2454POPC   C1A32571  20.668  19.045   8.737
 2454POPC   D2A32572  20.533  19.195   8.318
 2454POPC   C3A32573  20.208  19.052   8.030
 2454POPC   C4A32574  20.519  19.144   7.757
 2454POPC   C1B32575  20.783  18.544   8.808
 2454POPC   C2B32576  20.886  18.762   8.400
 2454POPC   C3B32577  20.940  18.989   8.025
 2454POPC   C4B32578  20.870  18.808   7.637
 2455POPC   NC332579  44.163  38.006   9.576
 2455POPC   PO432580  43.837  37.422   9.486
 2455POPC   GL132581  43.977  37.688   9.186
 2455POPC   GL232582  44.182  37.423   9.096
 2455POPC   C1A32583  43.929  37.682   8.740
 2455POPC   D2A32584  43.589  37.711   8.475
 2455POPC   C3A32585  43.798  37.724   8.118
 2455POPC   C4A32586  43.951  37.653   7.747
 2455POPC   C1B32587  44.195  37.255   8.693
 2455POPC   C2B32588  44.095  37.362   8.289
 2455POPC   C3B32589  44.235  37.252   7.873
 2455POPC   C4B32590  44.113  37.311   7.411
 2456POPC   NC332591  34.676  13.136   9.542
 2456POPC   PO432592  34.087  12.751   9.572
 2456POPC   GL132593  34.444  12.748   9.223
 2456POPC   GL232594  34.763  12.599   9.196
 2456POPC   C1A32595  34.468  12.641   8.763
 2456POPC   D2A32596  34.677  12.587   8.350
 2456POPC   C3A32597  34.476  12.787   8.027
 2456POPC   C4A32598  34.577  13.164   7.796
 2456POPC   C1B32599  34.927  12.864   8.850
 2456POPC   C2B32600  35.132  12.803   8.462
 2456POPC   C3B32601  35.005  12.907   8.046
 2456POPC   C4B32602  34.831  12.676   7.694
 2457POPC   NC332603  43.788  19.536   9.462
 2457POPC   PO432604  44.051  20.210   9.571
 2457POPC   GL132605  44.028  19.902   9.218
 2457POPC   GL232606  43.677  19.972   9.216
 2457POPC   C1A32607  44.163  19.705   8.785
 2457POPC   D2A32608  44.216  19.856   8.348
 2457POPC   C3A32609  44.259  19.664   7.907
 2457POPC   C4A32610  44.170  19.793   7.460
 2457POPC   C1B32611  43.665  19.713   8.847
 2457POPC   C2B32612  43.704  19.694   8.424
 2457POPC   C3B32613  43.790  19.844   8.029
 2457POPC   C4B32614  43.558  19.847   7.673
 2458POPC   NC332615  34.964  40.666   9.446
 2458POPC   PO432616  35.662  40.942   9.436
 2458POPC   GL132617  35.398  40.747   9.148
 2458POPC   GL232618  35.234  41.040   8.991
 2458POPC   C1A32619  35.403  40.539   8.755
 2458POPC   D2A32620  35.410  40.770   8.374
 2458POPC   C3A32621  35.566  40.617   8.012
 2458POPC   C4A32622  35.491  40.736   7.648
 2458POPC   C1B32623  35.639  41.023   8.767
 2458POPC   C2B32624  35.805  41.079   8.355
 2458POPC   C3B32625  35.558  41.137   7.985
 2458POPC   C4B32626  35.445  41.221   7.544
 2459POPC   NC332627   8.836   1.188   9.554
 2459POPC   PO432628   9.356   0.781   9.402
 2459POPC   GL132629   9.001   0.933   9.158
 2459POPC   GL232630   8.623   0.836   9.229
 2459POPC   C1A32631   8.951   1.190   8.799
 2459POPC   D2A32632   9.209   1.348   8.450
 2459POPC   C3A32633   9.122   1.124   8.061
 2459POPC   C4A32634   8.987   1.239   7.660
 2459POPC   C1B32635   8.489   0.961   8.811
 2459POPC   C2B32636   8.611   1.104   8.396
 2459POPC   C3B32637   8.625   1.042   7.945
 2459POPC   C4B32638   8.678   0.875   7.482
 2460POPC   NC332639  12.944   6.053   9.616
 2460POPC   PO432640  12.870   5.390   9.704
 2460POPC   GL132641  12.842   5.644   9.299
 2460POPC   GL232642  13.153   5.848   9.205
 2460POPC   C1A32643  12.812   5.692   8.843
 2460POPC   D2A32644  12.593   5.981   8.575
 2460POPC   C3A32645  12.627   5.985   8.147
 2460POPC   C4A32646  12.533   5.669   7.852
 2460POPC   C1B32647  13.268   6.029   8.809
 2460POPC   C2B32648  13.081   6.089   8.408
 2460POPC   C3B32649  13.123   5.929   8.003
 2460POPC   C4B32650  13.244   6.044   7.613
 2461POPC   NC332651   3.311   3.007   9.560
 2461POPC   PO432652   3.415   3.711   9.655
 2461POPC   GL132653   3.474   3.645   9.210
 2461POPC   GL232654   3.827   3.587   9.161
 2461POPC   C1A32655   3.303   3.504   8.818
 2461POPC   D2A32656   3.481   3.420   8.421
 2461POPC   C3A32657   3.373   3.592   8.018
 2461POPC   C4A32658   3.443   3.394   7.639
 2461POPC   C1B32659   3.788   3.710   8.741
 2461POPC   C2B32660   3.667   3.892   8.348
 2461POPC   C3B32661   3.825   3.791   7.941
 2461POPC   C4B32662   3.813   3.690   7.492
 2462POPC   NC332663  39.083  14.384   9.337
 2462POPC   PO432664  39.683  14.163   9.590
 2462POPC   GL132665  39.501  14.072   9.148
 2462POPC   GL232666  39.178  14.073   8.950
 2462POPC   C1A32667  39.554  14.327   8.746
 2462POPC   D2A32668  39.230  14.598   8.567
 2462POPC   C3A32669  39.077  14.472   8.170
 2462POPC   C4A32670  39.074  14.577   7.718
 2462POPC   C1B32671  39.174  14.088   8.506
 2462POPC   C2B32672  38.855  13.961   8.254
 2462POPC   C3B32673  38.690  14.187   7.930
 2462POPC   C4B32674  38.750  14.223   7.497
 2463POPC   NC332675  19.905  42.590   9.433
 2463POPC   PO432676  19.615  42.014   9.688
 2463POPC   GL132677  19.710  42.176   9.246
 2463POPC   GL232678  20.037  42.150   9.146
 2463POPC   C1A32679  19.650  42.192   8.778
 2463POPC   D2A32680  19.776  42.202   8.324
 2463POPC   C3A32681  19.485  42.267   7.949
 2463POPC   C4A32682  19.593  42.369   7.482
 2463POPC   C1B32683  20.155  42.330   8.713
 2463POPC   C2B32684  20.157  42.543   8.284
 2463POPC   C3B32685  19.960  42.484   7.862
 2463POPC   C4B32686  20.049  42.622   7.438
 2464POPC   NC332687   0.001  32.884   9.500
 2464POPC   PO432688   0.674  32.782   9.454
 2464POPC   GL132689   0.405  32.975   9.142
 2464POPC   GL232690   0.120  32.812   8.973
 2464POPC   C1A32691   0.538  33.000   8.718
 2464POPC   D2A32692   0.368  32.792   8.369
 2464POPC   C3A32693   0.557  32.851   7.956
 2464POPC   C4A32694   0.830  33.007   7.617
 2464POPC   C1B32695   0.065  33.187   8.679
 2464POPC   C2B32696   0.079  33.272   8.205
 2464POPC   C3B32697   0.195  33.288   7.734
 2464POPC   C4B32698   0.072  33.256   7.276
 2465POPC   NC332699  38.752   2.929   9.416
 2465POPC   PO432700  38.017   2.962   9.429
 2465POPC   GL132701  38.226   2.861   9.082
 2465POPC   GL232702  38.231   2.538   9.190
 2465POPC   C1A32703  38.149   2.921   8.639
 2465POPC   D2A32704  38.306   3.059   8.238
 2465POPC   C3A32705  38.448   2.918   7.833
 2465POPC   C4A32706  38.815   3.030   7.587
 2465POPC   C1B32707  38.309   2.459   8.767
 2465POPC   C2B32708  38.476   2.486   8.380
 2465POPC   C3B32709  38.377   2.345   8.004
 2465POPC   C4B32710  38.458   2.400   7.614
 2466POPC   NC332711  10.653  31.183   9.632
 2466POPC   PO432712  10.284  31.715   9.315
 2466POPC   GL132713  10.544  31.509   9.100
 2466POPC   GL232714  10.325  31.256   8.997
 2466POPC   C1A32715  10.724  31.388   8.698
 2466POPC   D2A32716  10.930  31.372   8.299
 2466POPC   C3A32717  10.709  31.612   7.932
 2466POPC   C4A32718  10.242  31.558   7.864
 2466POPC   C1B32719  10.381  30.958   8.713
 2466POPC   C2B32720  10.631  30.975   8.393
 2466POPC   C3B32721  10.560  31.142   8.009
 2466POPC   C4B32722  10.411  31.060   7.628
 2467POPC   NC332723  22.619  23.123   9.768
 2467POPC   PO432724  23.062  22.892   9.374
 2467POPC   GL132725  23.108  23.012   9.035
 2467POPC   GL232726  23.156  23.339   9.131
 2467POPC   C1A32727  22.945  22.940   8.665
 2467POPC   D2A32728  23.027  22.807   8.311
 2467POPC   C3A32729  22.709  22.742   8.033
 2467POPC   C4A32730  22.933  22.811   7.674
 2467POPC   C1B32731  23.154  23.425   8.727
 2467POPC   C2B32732  22.902  23.377   8.375
 2467POPC   C3B32733  22.945  23.226   7.977
 2467POPC   C4B32734  22.998  23.289   7.516
 2468POPC   NC332735   0.690  29.357   9.424
 2468POPC   PO432736   0.530  28.732   9.465
 2468POPC   GL132737   0.524  29.001   9.101
 2468POPC   GL232738   0.241  29.257   9.134
 2468POPC   C1A32739   0.459  29.131   8.686
 2468POPC   D2A32740   0.240  29.275   8.339
 2468POPC   C3A32741   0.486  29.211   7.949
 2468POPC   C4A32742   0.660  29.189   7.524
 2468POPC   C1B32743   0.066  28.892   8.917
 2468POPC   C2B32744   0.076  28.723   8.496
 2468POPC   C3B32745   0.147  28.841   8.064
 2468POPC   C4B32746   0.231  28.891   7.639
 2469POPC   NC332747  28.171  17.580   9.451
 2469POPC   PO432748  28.704  17.916   9.350
 2469POPC   GL132749  28.449  17.673   9.037
 2469POPC   GL232750  28.403  17.311   8.996
 2469POPC   C1A32751  28.176  17.622   8.643
 2469POPC   D2A32752  28.067  17.371   8.283
 2469POPC   C3A32753  28.138  17.626   7.945
 2469POPC   C4A32754  28.506  17.733   7.722
 2469POPC   C1B32755  28.655  17.476   8.630
 2469POPC   C2B32756  28.595  17.525   8.188
 2469POPC   C3B32757  28.502  17.250   7.835
 2469POPC   C4B32758  28.799  16.981   7.554
 2470POPC   NC332759  22.629  21.419   9.378
 2470POPC   PO432760  23.290  21.260   9.470
 2470POPC   GL132761  23.156  21.275   9.034
 2470POPC   GL232762  22.916  21.548   8.967
 2470POPC   C1A32763  23.109  21.219   8.577
 2470POPC   D2A32764  23.169  20.985   8.198
 2470POPC   C3A32765  23.156  21.243   7.830
 2470POPC   C4A32766  22.844  21.260   7.484
 2470POPC   C1B32767  22.620  21.382   8.636
 2470POPC   C2B32768  22.697  21.284   8.180
 2470POPC   C3B32769  22.785  21.604   7.877
 2470POPC   C4B32770  22.636  21.805   7.518
 2471POPC   NC332771   2.725   8.465   9.350
 2471POPC   PO432772   3.043   7.886   9.549
 2471POPC   GL132773   2.834   8.009   9.133
 2471POPC   GL232774   2.489   7.890   9.099
 2471POPC   C1A32775   2.936   8.204   8.713
 2471POPC   D2A32776   2.711   8.335   8.347
 2471POPC   C3A32777   2.885   8.224   7.960
 2471POPC   C4A32778   2.698   8.387   7.636
 2471POPC   C1B32779   2.441   8.130   8.764
 2471POPC   C2B32780   2.283   8.049   8.383
 2471POPC   C3B32781   2.347   8.221   7.973
 2471POPC   C4B32782   2.372   7.947   7.618
 2472POPC   NC332783  14.069  17.816   9.279
 2472POPC   PO432784  14.467  18.286   9.555
 2472POPC   GL132785  14.343  18.345   9.123
 2472POPC   GL232786  14.685  18.415   9.073
 2472POPC   C1A32787  14.397  18.388   8.635
 2472POPC   D2A32788  14.432  18.105   8.269
 2472POPC   C3A32789  14.137  18.154   7.909
 2472POPC   C4A32790  14.098  18.183   7.411
 2472POPC   C1B32791  14.636  18.794   8.810
 2472POPC   C2B32792  14.473  18.850   8.405
 2472POPC   C3B32793  14.617  18.545   8.090
 2472POPC   C4B32794  14.503  18.395   7.685
 2473POPC   NC332795   7.046  10.825   9.472
 2473POPC   PO432796   6.335  10.714   9.576
 2473POPC   GL132797   6.375  10.639   9.114
 2473POPC   GL232798   6.730  10.609   9.122
 2473POPC   C1A32799   6.446  10.336   8.758
 2473POPC   D2A32800   6.380  10.369   8.292
 2473POPC   C3A32801   6.547  10.765   8.101
 2473POPC   C4A32802   6.862  10.807   7.746
 2473POPC   C1B32803   6.956  10.392   8.826
 2473POPC   C2B32804   6.965  10.544   8.415
 2473POPC   C3B32805   6.879  10.372   8.021
 2473POPC   C4B32806   7.131  10.330   7.659
 2474POPC   NC332807  41.757  38.688   9.428
 2474POPC   PO432808  41.514  38.043   9.435
 2474POPC   GL132809  41.571  38.337   9.110
 2474POPC   GL232810  41.345  38.637   9.109
 2474POPC   C1A32811  41.874  38.439   8.752
 2474POPC   D2A32812  41.965  38.292   8.330
 2474POPC   C3A32813  41.886  38.536   7.957
 2474POPC   C4A32814  41.544  38.474   7.686
 2474POPC   C1B32815  41.367  38.456   8.671
 2474POPC   C2B32816  41.468  38.497   8.260
 2474POPC   C3B32817  41.134  38.396   7.988
 2474POPC   C4B32818  41.126  38.138   7.654
 2475POPC   NC332819  27.876  16.922   9.306
 2475POPC   PO432820  27.252  17.090   9.553
 2475POPC   GL132821  27.339  16.801   9.179
 2475POPC   GL232822  27.412  17.055   8.973
 2475POPC   C1A32823  27.588  16.570   8.804
 2475POPC   D2A32824  27.905  16.452   8.461
 2475POPC   C3A32825  27.732  16.527   8.040
 2475POPC   C4A32826  27.845  16.839   7.716
 2475POPC   C1B32827  27.280  16.880   8.560
 2475POPC   C2B32828  27.242  16.652   8.194
 2475POPC   C3B32829  27.346  16.778   7.773
 2475POPC   C4B32830  27.392  16.789   7.306
 2476POPC   NC332831  38.400  21.776   9.405
 2476POPC   PO432832  38.627  22.513   9.419
 2476POPC   GL132833  38.736  22.148   9.167
 2476POPC   GL232834  38.404  22.108   9.003
 2476POPC   C1A32835  38.848  22.081   8.731
 2476POPC   D2A32836  38.643  21.827   8.401
 2476POPC   C3A32837  38.382  22.142   8.146
 2476POPC   C4A32838  38.526  22.490   7.895
 2476POPC   C1B32839  38.172  21.990   8.612
 2476POPC   C2B32840  38.148  21.703   8.267
 2476POPC   C3B32841  38.478  21.700   7.921
 2476POPC   C4B32842  38.453  22.045   7.635
 2477POPC   NC332843  10.059   7.290   9.477
 2477POPC   PO432844   9.578   7.780   9.416
 2477POPC   GL132845   9.657   7.407   9.159
 2477POPC   GL232846   9.974   7.477   8.983
 2477POPC   C1A32847   9.484   7.159   8.767
 2477POPC   D2A32848   9.579   7.064   8.296
 2477POPC   C3A32849   9.989   7.192   8.098
 2477POPC   C4A32850  10.091   7.389   7.694
 2477POPC   C1B32851   9.592   7.664   8.722
 2477POPC   C2B32852   9.404   7.552   8.300
 2477POPC   C3B32853   9.582   7.433   7.877
 2477POPC   C4B32854   9.696   7.497   7.411
 2478POPC   NC332855   4.577  33.143   9.488
 2478POPC   PO432856   4.049  33.520   9.265
 2478POPC   GL132857   4.377  33.337   9.032
 2478POPC   GL232858   4.381  32.991   9.028
 2478POPC   C1A32859   4.472  33.295   8.595
 2478POPC   D2A32860   4.254  33.227   8.194
 2478POPC   C3A32861   4.481  33.156   7.806
 2478POPC   C4A32862   4.508  33.295   7.352
 2478POPC   C1B32863   4.100  32.926   8.682
 2478POPC   C2B32864   4.080  32.733   8.277
 2478POPC   C3B32865   4.038  32.855   7.863
 2478POPC   C4B32866   4.118  32.620   7.532
 2479POPC   NC332867  16.180  16.893   9.524
 2479POPC   PO432868  15.817  16.312   9.591
 2479POPC   GL132869  15.863  16.625   9.237
 2479POPC   GL232870  16.149  16.578   9.107
 2479POPC   C1A32871  15.955  16.988   8.900
 2479POPC   D2A32872  16.054  16.823   8.520
 2479POPC   C3A32873  15.950  17.013   8.172
 2479POPC   C4A32874  16.068  17.029   7.777
 2479POPC   C1B32875  16.349  16.469   8.718
 2479POPC   C2B32876  16.326  16.349   8.297
 2479POPC   C3B32877  16.183  16.429   7.874
 2479POPC   C4B32878  16.287  16.632   7.494
 2480POPC   NC332879  35.810  44.117   9.600
 2480POPC   PO432880  36.372  43.803   9.596
 2480POPC   GL132881  36.087  43.724   9.227
 2480POPC   GL232882  36.061  44.045   9.148
 2480POPC   C1A32883  35.950  43.795   8.743
 2480POPC   D2A32884  35.907  43.997   8.330
 2480POPC   C3A32885  35.952  43.754   7.939
 2480POPC   C4A32886  36.029  43.534   7.549
 2480POPC   C1B32887  36.310  44.216   8.797
 2480POPC   C2B32888  36.467  44.355   8.377
 2480POPC   C3B32889  36.320  44.081   8.041
 2480POPC   C4B32890  36.159  44.133   7.649
 2481POPC   NC332891  31.249  23.191   9.438
 2481POPC   PO432892  30.539  22.890   9.470
 2481POPC   GL132893  30.698  22.921   9.126
 2481POPC   GL232894  30.892  22.609   9.170
 2481POPC   C1A32895  30.499  23.106   8.756
 2481POPC   D2A32896  30.258  23.057   8.361
 2481POPC   C3A32897  30.535  23.023   8.052
 2481POPC   C4A32898  30.587  22.816   7.680
 2481POPC   C1B32899  31.032  22.795   8.785
 2481POPC   C2B32900  30.954  22.942   8.392
 2481POPC   C3B32901  30.938  22.700   8.056
 2481POPC   C4B32902  31.081  22.875   7.706
 2482POPC   NC332903  33.017  38.087   9.290
 2482POPC   PO432904  33.452  37.496   9.469
 2482POPC   GL132905  33.203  37.615   9.102
 2482POPC   GL232906  32.833  37.627   9.133
 2482POPC   C1A32907  33.073  37.778   8.701
 2482POPC   D2A32908  33.062  37.539   8.366
 2482POPC   C3A32909  33.118  37.789   8.016
 2482POPC   C4A32910  33.302  37.753   7.639
 2482POPC   C1B32911  32.835  37.320   8.786
 2482POPC   C2B32912  32.597  37.229   8.399
 2482POPC   C3B32913  32.586  37.224   7.938
 2482POPC   C4B32914  32.793  37.549   7.704
 2483POPC   NC332915  41.290  28.619   9.486
 2483POPC   PO432916  41.644  28.107   9.483
 2483POPC   GL132917  41.690  28.406   9.126
 2483POPC   GL232918  41.392  28.550   8.994
 2483POPC   C1A32919  41.840  28.292   8.694
 2483POPC   D2A32920  42.082  28.186   8.331
 2483POPC   C3A32921  41.933  28.371   7.938
 2483POPC   C4A32922  41.810  28.750   7.688
 2483POPC   C1B32923  41.332  28.297   8.641
 2483POPC   C2B32924  41.496  28.354   8.223
 2483POPC   C3B32925  41.397  28.429   7.777
 2483POPC   C4B32926  41.255  28.130   7.416
 2484POPC   NC332927   2.579  43.181   9.858
 2484POPC   PO432928   1.999  42.933   9.507
 2484POPC   GL132929   1.923  43.099   9.071
 2484POPC   GL232930   2.139  42.798   9.038
 2484POPC   C1A32931   1.945  43.371   8.688
 2484POPC   D2A32932   2.300  43.341   8.341
 2484POPC   C3A32933   2.035  43.294   7.973
 2484POPC   C4A32934   1.632  43.480   7.881
 2484POPC   C1B32935   2.201  42.948   8.674
 2484POPC   C2B32936   2.044  42.884   8.336
 2484POPC   C3B32937   2.051  42.776   7.998
 2484POPC   C4B32938   2.383  42.938   7.770
 2485POPC   NC332939  23.673  31.815   9.573
 2485POPC   PO432940  23.628  32.462   9.376
 2485POPC   GL132941  23.637  32.072   9.115
 2485POPC   GL232942  24.005  31.965   9.220
 2485POPC   C1A32943  23.367  32.070   8.707
 2485POPC   D2A32944  23.335  32.117   8.208
 2485POPC   C3A32945  23.541  32.467   8.033
 2485POPC   C4A32946  23.925  32.551   7.830
 2485POPC   C1B32947  24.021  31.879   8.798
 2485POPC   C2B32948  23.807  32.052   8.428
 2485POPC   C3B32949  23.888  32.055   7.991
 2485POPC   C4B32950  24.299  31.923   7.821
 2486POPC   NC332951   8.581  34.056   9.212
 2486POPC   PO432952   7.941  34.040   9.555
 2486POPC   GL132953   8.108  33.882   9.163
 2486POPC   GL232954   8.280  33.554   9.216
 2486POPC   C1A32955   8.158  34.039   8.726
 2486POPC   D2A32956   7.844  34.116   8.421
 2486POPC   C3A32957   8.001  33.963   8.032
 2486POPC   C4A32958   7.902  33.858   7.632
 2486POPC   C1B32959   8.441  33.556   8.793
 2486POPC   C2B32960   8.332  33.448   8.400
 2486POPC   C3B32961   8.516  33.544   8.029
 2486POPC   C4B32962   8.376  33.752   7.706
 2487POPC   NC332963  36.093  12.408   9.481
 2487POPC   PO432964  36.213  11.826   9.737
 2487POPC   GL132965  36.221  11.940   9.254
 2487POPC   GL232966  36.496  12.183   9.120
 2487POPC   C1A32967  36.045  12.221   8.855
 2487POPC   D2A32968  36.251  12.323   8.480
 2487POPC   C3A32969  35.973  12.406   8.168
 2487POPC   C4A32970  36.047  12.334   7.756
 2487POPC   C1B32971  36.383  11.864   8.782
 2487POPC   C2B32972  36.094  11.857   8.450
 2487POPC   C3B32973  36.255  11.986   8.078
 2487POPC   C4B32974  36.239  11.849   7.693
 2488POPC   NC332975  41.442  22.691   9.500
 2488POPC   PO432976  41.736  23.262   9.507
 2488POPC   GL132977  41.559  23.154   9.108
 2488POPC   GL232978  41.567  22.809   9.038
 2488POPC   C1A32979  41.441  23.124   8.662
 2488POPC   D2A32980  41.196  22.952   8.328
 2488POPC   C3A32981  41.439  23.004   7.949
 2488POPC   C4A32982  41.238  22.854   7.590
 2488POPC   C1B32983  41.794  22.465   8.821
 2488POPC   C2B32984  42.037  22.391   8.444
 2488POPC   C3B32985  41.905  22.556   8.053
 2488POPC   C4B32986  41.748  22.728   7.647
 2489POPC   NC332987  39.346  34.886   9.627
 2489POPC   PO432988  38.850  34.491   9.764
 2489POPC   GL132989  39.103  34.545   9.323
 2489POPC   GL232990  39.474  34.574   9.235
 2489POPC   C1A32991  39.168  34.699   8.855
 2489POPC   D2A32992  39.221  34.531   8.419
 2489POPC   C3A32993  39.203  34.761   8.016
 2489POPC   C4A32994  38.895  34.715   7.688
 2489POPC   C1B32995  39.624  34.452   8.805
 2489POPC   C2B32996  39.698  34.296   8.367
 2489POPC   C3B32997  39.387  34.206   8.046
 2489POPC   C4B32998  39.297  34.401   7.628
 2490POPC   NC332999  24.706   1.000   9.691
 2490POPC   PO433000  24.306   1.500   9.690
 2490POPC   GL133001  24.633   1.343   9.336
 2490POPC   GL233002  24.683   1.577   9.106
 2490POPC   C1A33003  24.617   1.116   8.897
 2490POPC   D2A33004  24.251   1.030   8.592
 2490POPC   C3A33005  24.298   0.991   8.141
 2490POPC   C4A33006  24.332   1.111   7.717
 2490POPC   C1B33007  24.520   1.593   8.642
 2490POPC   C2B33008  24.405   1.509   8.207
 2490POPC   C3B33009  24.498   1.653   7.790
 2490POPC   C4B33010  24.568   1.461   7.403
 2491POPC   NC333011  30.329   8.734   9.592
 2491POPC   PO433012  30.928   9.200   9.614
 2491POPC   GL133013  30.808   9.149   9.170
 2491POPC   GL233014  30.688   8.804   9.216
 2491POPC   C1A33015  30.790   9.304   8.725
 2491POPC   D2A33016  31.123   9.246   8.453
 2491POPC   C3A33017  31.116   9.148   8.056
 2491POPC   C4A33018  31.068   8.824   7.793
 2491POPC   C1B33019  30.560   8.869   8.780
 2491POPC   C2B33020  30.720   8.878   8.332
 2491POPC   C3B33021  30.577   8.981   7.896
 2491POPC   C4B33022  30.375   8.792   7.512
 2492POPC   NC333023  34.487  33.930   9.410
 2492POPC   PO433024  35.155  33.919   9.422
 2492POPC   GL133025  34.873  33.875   9.037
 2492POPC   GL233026  34.557  33.665   8.984
 2492POPC   C1A33027  34.885  33.782   8.590
 2492POPC   D2A33028  34.715  33.674   8.197
 2492POPC   C3A33029  34.960  33.826   7.854
 2492POPC   C4A33030  34.893  33.846   7.404
 2492POPC   C1B33031  34.335  33.784   8.607
 2492POPC   C2B33032  34.251  33.885   8.163
 2492POPC   C3B33033  34.459  33.924   7.752
 2492POPC   C4B33034  34.439  34.128   7.342
 2493POPC   NC333035  11.920  44.658   9.557
 2493POPC   PO433036  12.482   0.051   9.351
 2493POPC   GL133037  12.122  44.831   9.133
 2493POPC   GL233038  12.070  44.448   9.100
 2493POPC   C1A33039  12.046  44.774   8.702
 2493POPC   D2A33040  12.037  44.545   8.312
 2493POPC   C3A33041  11.792  44.798   8.053
 2493POPC   C4A33042  11.763  44.915   7.611
 2493POPC   C1B33043  12.354  44.381   8.711
 2493POPC   C2B33044  12.550  44.628   8.403
 2493POPC   C3B33045  12.476  44.527   8.004
 2493POPC   C4B33046  12.200  44.740   7.765
 2494POPC   NC333047   4.696   6.460   9.500
 2494POPC   PO433048   4.086   6.278   9.540
 2494POPC   GL133049   4.145   6.600   9.199
 2494POPC   GL233050   4.313   6.963   9.177
 2494POPC   C1A33051   4.203   6.663   8.762
 2494POPC   D2A33052   4.145   6.468   8.379
 2494POPC   C3A33053   4.426   6.360   8.076
 2494POPC   C4A33054   4.230   6.469   7.687
 2494POPC   C1B33055   4.505   7.064   8.730
 2494POPC   C2B33056   4.533   6.832   8.355
 2494POPC   C3B33057   4.272   6.854   7.981
 2494POPC   C4B33058   4.425   6.944   7.539
 2495POPC   NC333059  29.574  23.339   9.721
 2495POPC   PO433060  28.981  22.892   9.675
 2495POPC   GL133061  29.204  22.919   9.272
 2495POPC   GL233062  29.010  23.065   9.086
 2495POPC   C1A33063  29.349  22.867   8.780
 2495POPC   D2A33064  29.537  22.662   8.453
 2495POPC   C3A33065  29.419  22.841   8.130
 2495POPC   C4A33066  29.501  22.721   7.778
 2495POPC   C1B33067  29.033  23.284   8.719
 2495POPC   C2B33068  28.991  23.068   8.339
 2495POPC   C3B33069  28.974  22.948   7.912
 2495POPC   C4B33070  28.894  23.355   7.776
 2496POPC   NC333071  38.392  24.337   9.344
 2496POPC   PO433072  38.854  24.860   9.527
 2496POPC   GL133073  38.791  24.604   9.158
 2496POPC   GL233074  38.669  24.879   9.035
 2496POPC   C1A33075  38.612  24.448   8.745
 2496POPC   D2A33076  38.185  24.386   8.555
 2496POPC   C3A33077  38.218  24.304   8.106
 2496POPC   C4A33078  38.395  24.536   7.770
 2496POPC   C1B33079  38.414  24.965   8.691
 2496POPC   C2B33080  38.333  24.821   8.281
 2496POPC   C3B33081  38.533  25.000   7.924
 2496POPC   C4B33082  38.872  24.729   7.759
 2497POPC   NC333083  24.437  31.704   9.669
 2497POPC   PO433084  24.653  31.139   9.732
 2497POPC   GL133085  24.597  31.428   9.278
 2497POPC   GL233086  24.280  31.477   9.109
 2497POPC   C1A33087  24.655  31.607   8.817
 2497POPC   D2A33088  24.354  31.680   8.467
 2497POPC   C3A33089  24.568  31.583   8.101
 2497POPC   C4A33090  24.497  31.337   7.733
 2497POPC   C1B33091  24.258  31.227   8.726
 2497POPC   C2B33092  24.275  31.204   8.295
 2497POPC   C3B33093  24.080  31.435   8.000
 2497POPC   C4B33094  24.023  31.179   7.677
 2498POPC   NC333095  29.848   7.414   9.443
 2498POPC   PO433096  30.398   7.816   9.305
 2498POPC   GL133097  30.103   7.532   9.001
 2498POPC   GL233098  29.724   7.344   8.967
 2498POPC   C1A33099  30.062   7.224   8.647
 2498POPC   D2A33100  29.825   7.133   8.275
 2498POPC   C3A33101  30.058   7.279   7.940
 2498POPC   C4A33102  30.149   7.681   7.747
 2498POPC   C1B33103  29.732   7.625   8.596
 2498POPC   C2B33104  29.869   7.721   8.200
 2498POPC   C3B33105  29.653   7.612   7.872
 2498POPC   C4B33106  29.402   7.597   7.544
 2499POPC   NC333107   3.633  34.798   9.445
 2499POPC   PO433108   3.991  34.323   9.625
 2499POPC   GL133109   3.791  34.429   9.122
 2499POPC   GL233110   3.535  34.723   8.982
 2499POPC   C1A33111   3.616  34.415   8.631
 2499POPC   D2A33112   3.592  34.783   8.335
 2499POPC   C3A33113   3.602  34.572   7.961
 2499POPC   C4A33114   3.507  34.149   7.807
 2499POPC   C1B33115   3.161  34.649   8.749
 2499POPC   C2B33116   3.155  34.512   8.345
 2499POPC   C3B33117   3.149  34.783   7.988
 2499POPC   C4B33118   3.206  34.642   7.597
 2500POPC   NC333119  28.663   7.874   9.495
 2500POPC   PO433120  28.101   8.260   9.475
 2500POPC   GL133121  28.107   8.160   9.080
 2500POPC   GL233122  28.480   8.179   9.094
 2500POPC   C1A33123  27.990   8.075   8.658
 2500POPC   D2A33124  28.307   8.056   8.345
 2500POPC   C3A33125  28.180   7.865   7.997
 2500POPC   C4A33126  28.190   8.114   7.686
 2500POPC   C1B33127  28.820   8.066   8.798
 2500POPC   C2B33128  28.842   7.935   8.358
 2500POPC   C3B33129  28.693   8.050   7.942
 2500POPC   C4B33130  28.574   8.430   7.741
 2501POPC   NC333131  25.550  20.322   9.329
 2501POPC   PO433132  25.945  20.656   9.747
 2501POPC   GL133133  26.072  20.474   9.251
 2501POPC   GL233134  25.955  20.183   9.047
 2501POPC   C1A33135  26.175  20.622   8.815
 2501POPC   D2A33136  26.122  20.889   8.456
 2501POPC   C3A33137  26.174  20.624   8.090
 2501POPC   C4A33138  26.089  20.617   7.668
 2501POPC   C1B33139  25.736  20.367   8.663
 2501POPC   C2B33140  25.607  20.735   8.407
 2501POPC   C3B33141  25.743  20.911   8.015
 2501POPC   C4B33142  25.607  20.866   7.593
 2502POPC   NC333143  16.630   4.413   9.575
 2502POPC   PO433144  17.377   4.321   9.725
 2502POPC   GL133145  17.089   4.260   9.275
 2502POPC   GL233146  16.841   4.023   9.263
 2502POPC   C1A33147  16.970   4.431   8.796
 2502POPC   D2A33148  16.790   4.680   8.378
 2502POPC   C3A33149  16.725   4.461   7.941
 2502POPC   C4A33150  17.025   4.115   7.766
 2502POPC   C1B33151  16.640   4.016   8.866
 2502POPC   C2B33152  16.422   4.028   8.471
 2502POPC   C3B33153  16.576   3.981   8.040
 2502POPC   C4B33154  16.554   4.041   7.594
 2503POPC   NC333155  19.984   9.518   9.460
 2503POPC   PO433156  19.855  10.175   9.354
 2503POPC   GL133157  19.793   9.837   9.084
 2503POPC   GL233158  20.143   9.793   9.067
 2503POPC   C1A33159  19.555   9.821   8.689
 2503POPC   D2A33160  19.578  10.047   8.267
 2503POPC   C3A33161  19.599   9.710   7.942
 2503POPC   C4A33162  19.859   9.409   7.680
 2503POPC   C1B33163  20.046   9.560   8.731
 2503POPC   C2B33164  19.893   9.635   8.361
 2503POPC   C3B33165  20.102   9.709   8.029
 2503POPC   C4B33166  20.199   9.811   7.645
 2504POPC   NC333167  36.661  14.932   9.558
 2504POPC   PO433168  36.049  15.298   9.468
 2504POPC   GL133169  36.123  15.498   9.080
 2504POPC   GL233170  36.341  15.234   9.026
 2504POPC   C1A33171  36.074  15.436   8.638
 2504POPC   D2A33172  36.347  15.194   8.360
 2504POPC   C3A33173  36.203  15.254   7.976
 2504POPC   C4A33174  35.785  15.251   7.801
 2504POPC   C1B33175  36.138  14.925   8.751
 2504POPC   C2B33176  35.870  14.960   8.386
 2504POPC   C3B33177  35.909  14.789   7.975
 2504POPC   C4B33178  36.131  14.917   7.594
 2505POPC   NC333179   7.711  42.339   9.890
 2505POPC   PO433180   7.420  42.772   9.570
 2505POPC   GL133181   7.342  42.624   9.105
 2505POPC   GL233182   7.594  42.844   8.997
 2505POPC   C1A33183   7.535  42.407   8.684
 2505POPC   D2A33184   7.552  42.054   8.344
 2505POPC   C3A33185   7.374  42.100   7.941
 2505POPC   C4A33186   7.405  42.406   7.645
 2505POPC   C1B33187   7.924  42.885   8.688
 2505POPC   C2B33188   7.901  42.939   8.247
 2505POPC   C3B33189   7.684  42.657   7.968
 2505POPC   C4B33190   7.901  42.501   7.550
 2506POPC   NC333191  26.594   4.324   9.674
 2506POPC   PO433192  26.916   3.909   9.227
 2506POPC   GL133193  26.910   4.334   9.173
 2506POPC   GL233194  26.593   4.334   9.163
 2506POPC   C1A33195  26.967   4.431   8.741
 2506POPC   D2A33196  26.903   4.085   8.394
 2506POPC   C3A33197  26.809   4.251   7.975
 2506POPC   C4A33198  27.033   4.478   7.634
 2506POPC   C1B33199  26.467   4.452   8.759
 2506POPC   C2B33200  26.599   4.554   8.349
 2506POPC   C3B33201  26.425   4.577   7.929
 2506POPC   C4B33202  26.520   4.368   7.533
 2507POPC   NC333203   2.817   6.202   9.438
 2507POPC   PO433204   2.896   5.574   9.585
 2507POPC   GL133205   2.747   5.746   9.193
 2507POPC   GL233206   3.026   5.942   9.029
 2507POPC   C1A33207   2.636   5.754   8.751
 2507POPC   D2A33208   2.680   5.504   8.381
 2507POPC   C3A33209   2.922   5.661   8.032
 2507POPC   C4A33210   2.845   5.911   7.675
 2507POPC   C1B33211   2.890   6.206   8.651
 2507POPC   C2B33212   2.878   6.174   8.164
 2507POPC   C3B33213   2.877   6.399   7.776
 2507POPC   C4B33214   2.778   6.285   7.313
 2508POPC   NC333215  37.121   2.322   9.739
 2508POPC   PO433216  37.709   2.030   9.618
 2508POPC   GL133217  37.701   1.971   9.188
 2508POPC   GL233218  37.899   2.178   9.077
 2508POPC   C1A33219  37.529   2.023   8.749
 2508POPC   D2A33220  37.594   1.860   8.341
 2508POPC   C3A33221  37.352   1.683   7.998
 2508POPC   C4A33222  37.684   1.756   7.718
 2508POPC   C1B33223  38.055   2.027   8.727
 2508POPC   C2B33224  38.111   2.084   8.357
 2508POPC   C3B33225  37.869   2.161   8.025
 2508POPC   C4B33226  38.034   2.134   7.676
 2509POPC   NC333227  31.585  25.624   9.625
 2509POPC   PO433228  31.000  25.405   9.561
 2509POPC   GL133229  31.345  25.449   9.217
 2509POPC   GL233230  31.490  25.122   9.221
 2509POPC   C1A33231  31.620  25.470   8.830
 2509POPC   D2A33232  31.573  25.289   8.406
 2509POPC   C3A33233  31.520  25.491   8.004
 2509POPC   C4A33234  31.692  25.205   7.691
 2509POPC   C1B33235  31.382  24.976   8.819
 2509POPC   C2B33236  31.095  25.154   8.546
 2509POPC   C3B33237  31.062  25.258   8.116
 2509POPC   C4B33238  31.178  25.260   7.696
 2510POPC   NC333239  12.966  25.223   9.628
 2510POPC   PO433240  12.405  25.527   9.381
 2510POPC   GL133241  12.815  25.422   9.211
 2510POPC   GL233242  12.883  25.073   9.114
 2510POPC   C1A33243  13.032  25.519   8.875
 2510POPC   D2A33244  12.835  25.272   8.586
 2510POPC   C3A33245  12.799  25.390   8.174
 2510POPC   C4A33246  12.663  25.300   7.761
 2510POPC   C1B33247  12.971  24.799   8.756
 2510POPC   C2B33248  13.132  24.937   8.326
 2510POPC   C3B33249  13.066  25.027   7.900
 2510POPC   C4B33250  13.025  25.080   7.441
 2511POPC   NC333251  25.980  22.016   9.656
 2511POPC   PO433252  26.230  22.629   9.532
 2511POPC   GL133253  26.055  22.369   9.157
 2511POPC   GL233254  26.098  21.994   9.145
 2511POPC   C1A33255  26.306  22.234   8.759
 2511POPC   D2A33256  26.169  22.328   8.357
 2511POPC   C3A33257  26.296  22.131   7.992
 2511POPC   C4A33258  26.153  22.065   7.588
 2511POPC   C1B33259  25.890  21.954   8.709
 2511POPC   C2B33260  25.897  21.896   8.248
 2511POPC   C3B33261  25.700  22.042   7.859
 2511POPC   C4B33262  25.701  21.931   7.389
 2512POPC   NC333263  21.182  10.222   9.368
 2512POPC   PO433264  21.194   9.601   9.678
 2512POPC   GL133265  21.291   9.638   9.259
 2512POPC   GL233266  21.042   9.796   9.087
 2512POPC   C1A33267  21.454   9.597   8.838
 2512POPC   D2A33268  21.722   9.764   8.512
 2512POPC   C3A33269  21.518   9.643   8.123
 2512POPC   C4A33270  21.631   9.555   7.683
 2512POPC   C1B33271  20.938   9.880   8.646
 2512POPC   C2B33272  21.053   9.903   8.198
 2512POPC   C3B33273  21.128   9.685   7.774
 2512POPC   C4B33274  20.972   9.803   7.347
 2513POPC   NC333275   4.258   1.637   9.557
 2513POPC   PO433276   4.639   1.091   9.481
 2513POPC   GL133277   4.410   1.135   9.093
 2513POPC   GL233278   4.198   1.366   9.142
 2513POPC   C1A33279   4.463   1.200   8.633
 2513POPC   D2A33280   4.747   1.259   8.261
 2513POPC   C3A33281   4.623   1.169   7.832
 2513POPC   C4A33282   4.623   0.728   7.748
 2513POPC   C1B33283   3.986   1.385   8.770
 2513POPC   C2B33284   4.054   1.555   8.377
 2513POPC   C3B33285   4.013   1.329   8.013
 2513POPC   C4B33286   4.121   1.092   7.651
 2514POPC   NC333287  38.736  20.853   9.223
 2514POPC   PO433288  39.327  20.737   9.498
 2514POPC   GL133289  39.171  20.600   9.118
 2514POPC   GL233290  39.426  20.774   8.974
 2514POPC   C1A33291  39.208  20.402   8.696
 2514POPC   D2A33292  39.465  20.316   8.369
 2514POPC   C3A33293  39.436  20.563   8.023
 2514POPC   C4A33294  39.201  20.436   7.702
 2514POPC   C1B33295  39.051  20.874   8.680
 2514POPC   C2B33296  38.990  20.730   8.261
 2514POPC   C3B33297  38.885  20.814   7.840
 2514POPC   C4B33298  38.888  20.732   7.379
 2515POPC   NC333299  40.332  25.709   9.407
 2515POPC   PO433300  40.041  26.340   9.473
 2515POPC   GL133301  40.154  26.206   9.055
 2515POPC   GL233302  39.990  25.890   9.047
 2515POPC   C1A33303  40.092  26.146   8.595
 2515POPC   D2A33304  39.861  25.880   8.302
 2515POPC   C3A33305  39.826  26.123   7.931
 2515POPC   C4A33306  40.203  26.304   7.758
 2515POPC   C1B33307  40.324  25.721   8.778
 2515POPC   C2B33308  40.294  25.609   8.384
 2515POPC   C3B33309  40.324  25.864   8.025
 2515POPC   C4B33310  40.169  25.792   7.633
 2516POPC   NC333311  16.174  26.156   9.398
 2516POPC   PO433312  15.831  25.589   9.454
 2516POPC   GL133313  15.728  25.903   9.114
 2516POPC   GL233314  15.901  26.216   8.991
 2516POPC   C1A33315  15.591  26.008   8.681
 2516POPC   D2A33316  15.802  25.999   8.287
 2516POPC   C3A33317  15.584  25.703   8.026
 2516POPC   C4A33318  15.541  25.738   7.574
 2516POPC   C1B33319  16.252  26.016   8.779
 2516POPC   C2B33320  16.362  26.031   8.369
 2516POPC   C3B33321  16.262  26.048   7.943
 2516POPC   C4B33322  15.853  26.120   7.781
 2517POPC   NC333323  27.495  26.041   9.542
 2517POPC   PO433324  27.128  26.457   9.232
 2517POPC   GL133325  27.473  26.195   9.047
 2517POPC   GL233326  27.827  26.140   9.180
 2517POPC   C1A33327  27.615  25.889   8.781
 2517POPC   D2A33328  27.491  25.721   8.389
 2517POPC   C3A33329  27.376  26.062   8.135
 2517POPC   C4A33330  27.561  26.098   7.745
 2517POPC   C1B33331  27.909  26.352   8.805
 2517POPC   C2B33332  27.761  26.278   8.411
 2517POPC   C3B33333  27.949  26.241   8.018
 2517POPC   C4B33334  28.006  26.569   7.715
 2518POPC   NC333335  22.971  39.419   9.845
 2518POPC   PO433336  22.393  39.450   9.706
 2518POPC   GL133337  22.741  39.369   9.378
 2518POPC   GL233338  22.696  39.034   9.251
 2518POPC   C1A33339  22.964  39.348   8.956
 2518POPC   D2A33340  23.015  39.186   8.513
 2518POPC   C3A33341  22.891  39.277   8.095
 2518POPC   C4A33342  22.924  39.493   7.682
 2518POPC   C1B33343  22.650  38.930   8.816
 2518POPC   C2B33344  22.593  38.894   8.369
 2518POPC   C3B33345  22.758  38.796   7.968
 2518POPC   C4B33346  22.928  38.989   7.612
 2519POPC   NC333347  21.693  38.046   9.534
 2519POPC   PO433348  21.220  38.477   9.562
 2519POPC   GL133349  21.346  38.287   9.157
 2519POPC   GL233350  21.103  38.071   8.999
 2519POPC   C1A33351  21.510  38.523   8.793
 2519POPC   D2A33352  21.602  38.830   8.436
 2519POPC   C3A33353  21.468  38.641   8.031
 2519POPC   C4A33354  21.173  38.810   7.744
 2519POPC   C1B33355  21.407  38.025   8.647
 2519POPC   C2B33356  21.471  38.104   8.209
 2519POPC   C3B33357  21.159  38.177   7.918
 2519POPC   C4B33358  21.027  38.012   7.515
 2520POPC   NC333359  25.604  24.320   9.554
 2520POPC   PO433360  25.770  24.963   9.462
 2520POPC   GL133361  26.129  24.916   9.213
 2520POPC   GL233362  26.078  24.559   9.205
 2520POPC   C1A33363  26.226  24.829   8.796
 2520POPC   D2A33364  26.067  24.551   8.509
 2520POPC   C3A33365  26.150  24.657   8.091
 2520POPC   C4A33366  25.953  24.535   7.723
 2520POPC   C1B33367  25.747  24.401   8.899
 2520POPC   C2B33368  25.744  24.151   8.501
 2520POPC   C3B33369  25.936  24.155   8.080
 2520POPC   C4B33370  25.760  24.035   7.688
 2521POPC   NC333371  41.967   6.898   9.485
 2521POPC   PO433372  42.501   6.429   9.550
 2521POPC   GL133373  42.372   6.633   9.212
 2521POPC   GL233374  42.038   6.470   9.216
 2521POPC   C1A33375  42.549   6.542   8.801
 2521POPC   D2A33376  42.591   6.759   8.395
 2521POPC   C3A33377  42.641   6.561   7.995
 2521POPC   C4A33378  42.503   6.529   7.535
 2521POPC   C1B33379  42.055   6.642   8.806
 2521POPC   C2B33380  42.122   6.442   8.401
 2521POPC   C3B33381  42.144   6.497   7.946
 2521POPC   C4B33382  42.107   6.218   7.599
 2522POPC   NC333383  15.362  17.345   9.236
 2522POPC   PO433384  15.033  17.751   9.713
 2522POPC   GL133385  14.976  17.713   9.252
 2522POPC   GL233386  14.761  17.403   9.164
 2522POPC   C1A33387  15.098  17.726   8.799
 2522POPC   D2A33388  15.299  17.709   8.420
 2522POPC   C3A33389  15.214  17.466   8.043
 2522POPC   C4A33390  15.205  17.781   7.744
 2522POPC   C1B33391  14.751  17.353   8.705
 2522POPC   C2B33392  15.010  17.147   8.398
 2522POPC   C3B33393  14.949  17.008   7.965
 2522POPC   C4B33394  14.987  17.235   7.587
 2523POPC   NC333395  41.243  10.798   9.396
 2523POPC   PO433396  41.725  11.338   9.431
 2523POPC   GL133397  41.512  11.182   9.130
 2523POPC   GL233398  41.277  11.467   9.156
 2523POPC   C1A33399  41.302  11.125   8.760
 2523POPC   D2A33400  41.351  11.333   8.390
 2523POPC   C3A33401  41.537  11.036   8.139
 2523POPC   C4A33402  41.563  10.992   7.735
 2523POPC   C1B33403  41.529  11.641   8.810
 2523POPC   C2B33404  41.771  11.680   8.403
 2523POPC   C3B33405  41.687  11.533   7.956
 2523POPC   C4B33406  41.300  11.658   7.718
 2524POPC   NC333407  30.332   5.101   9.567
 2524POPC   PO433408  29.749   4.920   9.547
 2524POPC   GL133409  29.976   5.089   9.181
 2524POPC   GL233410  30.167   5.378   9.168
 2524POPC   C1A33411  29.807   5.134   8.772
 2524POPC   D2A33412  29.675   4.895   8.420
 2524POPC   C3A33413  29.651   5.056   8.010
 2524POPC   C4A33414  29.709   4.864   7.613
 2524POPC   C1B33415  30.315   5.231   8.769
 2524POPC   C2B33416  30.121   5.153   8.368
 2524POPC   C3B33417  30.035   5.404   7.997
 2524POPC   C4B33418  30.190   5.345   7.581
 2525POPC   NC333419  33.077  34.819   9.470
 2525POPC   PO433420  33.301  34.131   9.523
 2525POPC   GL133421  33.103  34.397   9.202
 2525POPC   GL233422  33.389  34.364   9.038
 2525POPC   C1A33423  32.895  34.615   8.862
 2525POPC   D2A33424  32.872  34.596   8.420
 2525POPC   C3A33425  32.973  34.889   8.062
 2525POPC   C4A33426  32.761  35.054   7.704
 2525POPC   C1B33427  33.346  34.485   8.627
 2525POPC   C2B33428  33.364  34.580   8.215
 2525POPC   C3B33429  33.195  34.457   7.819
 2525POPC   C4B33430  33.380  34.373   7.435
 2526POPC   NC333431  37.779  38.876   9.534
 2526POPC   PO433432  37.409  39.419   9.579
 2526POPC   GL133433  37.626  39.270   9.213
 2526POPC   GL233434  37.441  38.949   9.168
 2526POPC   C1A33435  37.588  39.224   8.757
 2526POPC   D2A33436  37.525  39.470   8.358
 2526POPC   C3A33437  37.872  39.325   8.083
 2526POPC   C4A33438  38.128  38.979   7.868
 2526POPC   C1B33439  37.192  38.878   8.829
 2526POPC   C2B33440  37.226  39.059   8.418
 2526POPC   C3B33441  37.413  39.100   7.981
 2526POPC   C4B33442  37.335  39.056   7.520
 2527POPC   NC333443  36.913  34.920  10.071
 2527POPC   PO433444  36.696  34.528   9.667
 2527POPC   GL133445  36.968  34.511   9.303
 2527POPC   GL233446  36.867  34.825   9.213
 2527POPC   C1A33447  37.065  34.301   8.879
 2527POPC   D2A33448  36.863  34.366   8.443
 2527POPC   C3A33449  37.067  34.261   8.042
 2527POPC   C4A33450  36.942  34.363   7.615
 2527POPC   C1B33451  36.849  34.760   8.786
 2527POPC   C2B33452  36.993  34.863   8.386
 2527POPC   C3B33453  36.929  34.764   7.960
 2527POPC   C4B33454  36.872  34.865   7.530
 2528POPC   NC333455  18.847  11.678   9.508
 2528POPC   PO433456  19.019  12.320   9.550
 2528POPC   GL133457  19.204  12.268   9.152
 2528POPC   GL233458  19.178  11.882   9.153
 2528POPC   C1A33459  19.396  12.277   8.747
 2528POPC   D2A33460  19.281  12.081   8.373
 2528POPC   C3A33461  18.991  12.219   8.095
 2528POPC   C4A33462  19.169  12.144   7.732
 2528POPC   C1B33463  19.337  11.754   8.778
 2528POPC   C2B33464  19.156  11.598   8.412
 2528POPC   C3B33465  19.187  11.548   8.004
 2528POPC   C4B33466  18.889  11.699   7.703
 2529POPC   NC333467   7.662   5.375   9.414
 2529POPC   PO433468   7.424   4.729   9.556
 2529POPC   GL133469   7.679   4.777   9.198
 2529POPC   GL233470   7.385   4.943   9.079
 2529POPC   C1A33471   7.818   4.867   8.773
 2529POPC   D2A33472   7.800   5.142   8.414
 2529POPC   C3A33473   7.670   4.993   8.022
 2529POPC   C4A33474   7.514   5.123   7.609
 2529POPC   C1B33475   7.406   5.193   8.742
 2529POPC   C2B33476   7.290   5.303   8.344
 2529POPC   C3B33477   7.156   5.076   8.004
 2529POPC   C4B33478   7.013   5.202   7.637
 2530POPC   NC333479  18.347   1.507   9.472
 2530POPC   PO433480  18.387   0.867   9.247
 2530POPC   GL133481  18.189   1.218   9.060
 2530POPC   GL233482  18.317   1.569   8.961
 2530POPC   C1A33483  18.133   1.187   8.623
 2530POPC   D2A33484  18.410   0.965   8.398
 2530POPC   C3A33485  18.303   1.067   8.021
 2530POPC   C4A33486  18.191   1.322   7.678
 2530POPC   C1B33487  18.383   1.602   8.504
 2530POPC   C2B33488  18.631   1.427   8.181
 2530POPC   C3B33489  18.689   1.299   7.751
 2530POPC   C4B33490  18.576   1.207   7.332
 2531POPC   NC333491  10.413  33.899   9.321
 2531POPC   PO433492  11.029  34.041   9.652
 2531POPC   GL133493  10.958  33.784   9.188
 2531POPC   GL233494  10.834  33.424   9.127
 2531POPC   C1A33495  10.961  33.785   8.710
 2531POPC   D2A33496  10.735  33.970   8.350
 2531POPC   C3A33497  10.596  33.777   7.968
 2531POPC   C4A33498  10.287  33.925   7.742
 2531POPC   C1B33499  10.525  33.541   8.760
 2531POPC   C2B33500  10.370  33.525   8.344
 2531POPC   C3B33501  10.157  33.470   7.941
 2531POPC   C4B33502  10.229  33.462   7.503
 2532POPC   NC333503  30.262  26.232   9.456
 2532POPC   PO433504  29.611  26.148   9.522
 2532POPC   GL133505  29.766  25.996   9.158
 2532POPC   GL233506  29.589  25.691   9.049
 2532POPC   C1A33507  29.919  26.217   8.802
 2532POPC   D2A33508  29.876  26.190   8.383
 2532POPC   C3A33509  30.097  26.436   8.081
 2532POPC   C4A33510  30.094  26.294   7.659
 2532POPC   C1B33511  29.808  25.742   8.670
 2532POPC   C2B33512  29.826  25.600   8.281
 2532POPC   C3B33513  29.828  25.898   7.967
 2532POPC   C4B33514  29.882  25.803   7.572
 2533POPC   NC333515   4.678  39.884   9.592
 2533POPC   PO433516   5.293  39.699   9.476
 2533POPC   GL133517   5.036  39.950   9.234
 2533POPC   GL233518   5.283  40.089   9.096
 2533POPC   C1A33519   4.917  39.912   8.799
 2533POPC   D2A33520   5.074  40.056   8.408
 2533POPC   C3A33521   4.974  39.803   8.090
 2533POPC   C4A33522   4.847  40.028   7.714
 2533POPC   C1B33523   5.454  39.899   8.756
 2533POPC   C2B33524   5.590  40.032   8.359
 2533POPC   C3B33525   5.390  40.071   7.951
 2533POPC   C4B33526   5.305  40.007   7.501
 2534POPC   NC333527  28.092  40.140   9.477
 2534POPC   PO433528  27.563  39.718   9.364
 2534POPC   GL133529  27.494  39.971   9.054
 2534POPC   GL233530  27.611  40.265   9.197
 2534POPC   C1A33531  27.378  39.993   8.640
 2534POPC   D2A33532  27.544  40.161   8.291
 2534POPC   C3A33533  27.496  40.025   7.887
 2534POPC   C4A33534  27.693  39.704   7.664
 2534POPC   C1B33535  27.742  40.365   8.770
 2534POPC   C2B33536  27.998  40.377   8.401
 2534POPC   C3B33537  27.834  40.459   7.978
 2534POPC   C4B33538  27.788  40.302   7.550
 2535POPC   NC333539  22.104  27.845   9.496
 2535POPC   PO433540  21.888  27.179   9.476
 2535POPC   GL133541  22.056  27.459   9.159
 2535POPC   GL233542  22.408  27.482   9.229
 2535POPC   C1A33543  21.985  27.792   8.824
 2535POPC   D2A33544  22.176  27.772   8.402
 2535POPC   C3A33545  21.979  27.714   8.024
 2535POPC   C4A33546  22.035  27.604   7.627
 2535POPC   C1B33547  22.450  27.525   8.797
 2535POPC   C2B33548  22.646  27.533   8.406
 2535POPC   C3B33549  22.467  27.578   8.003
 2535POPC   C4B33550  22.499  27.806   7.640
 2536POPC   NC333551  13.204   9.585   9.431
 2536POPC   PO433552  13.846   9.436   9.494
 2536POPC   GL133553  13.630   9.666   9.145
 2536POPC   GL233554  13.451  10.009   9.184
 2536POPC   C1A33555  13.626   9.555   8.705
 2536POPC   D2A33556  13.866   9.625   8.327
 2536POPC   C3A33557  13.691   9.568   7.920
 2536POPC   C4A33558  13.838   9.896   7.626
 2536POPC   C1B33559  13.233   9.876   8.801
 2536POPC   C2B33560  13.268   9.825   8.338
 2536POPC   C3B33561  13.443  10.010   7.939
 2536POPC   C4B33562  13.380  10.032   7.443
 2537POPC   NC333563  38.493  12.530   9.363
 2537POPC   PO433564  38.824  13.025   9.488
 2537POPC   GL133565  38.578  12.998   9.143
 2537POPC   GL233566  38.322  13.263   9.192
 2537POPC   C1A33567  38.657  12.816   8.730
 2537POPC   D2A33568  38.583  12.887   8.295
 2537POPC   C3A33569  38.863  12.812   7.964
 2537POPC   C4A33570  38.613  12.474   7.906
 2537POPC   C1B33571  38.183  13.065   8.802
 2537POPC   C2B33572  38.086  12.875   8.412
 2537POPC   C3B33573  38.168  12.936   7.983
 2537POPC   C4B33574  38.324  13.182   7.655
 2538POPC   NC333575  42.320   0.862   9.966
 2538POPC   PO433576  42.355   0.348   9.611
 2538POPC   GL133577  42.336   0.473   9.152
 2538POPC   GL233578  42.624   0.373   8.966
 2538POPC   C1A33579  42.141   0.507   8.726
 2538POPC   D2A33580  42.167   0.315   8.301
 2538POPC   C3A33581  42.117   0.459   7.842
 2538POPC   C4A33582  42.013   0.500   7.376
 2538POPC   C1B33583  42.618   0.412   8.553
 2538POPC   C2B33584  42.874   0.378   8.244
 2538POPC   C3B33585  42.586   0.252   7.983
 2538POPC   C4B33586  42.576   0.129   7.595
 2539POPC   NC333587  16.421  35.691   9.495
 2539POPC   PO433588  15.758  35.945   9.565
 2539POPC   GL133589  15.845  36.001   9.147
 2539POPC   GL233590  16.187  35.989   9.098
 2539POPC   C1A33591  15.738  36.008   8.716
 2539POPC   D2A33592  15.713  35.834   8.312
 2539POPC   C3A33593  15.938  36.103   8.039
 2539POPC   C4A33594  15.829  36.437   7.736
 2539POPC   C1B33595  16.236  36.222   8.682
 2539POPC   C2B33596  16.403  36.302   8.224
 2539POPC   C3B33597  16.331  36.280   7.760
 2539POPC   C4B33598  16.195  36.391   7.338
 2540POPC   NC333599  19.401  23.706   9.308
 2540POPC   PO433600  18.755  23.931   9.511
 2540POPC   GL133601  18.845  23.721   9.113
 2540POPC   GL233602  18.987  23.425   9.174
 2540POPC   C1A33603  18.899  23.783   8.666
 2540POPC   D2A33604  19.196  23.852   8.306
 2540POPC   C3A33605  18.960  23.769   7.914
 2540POPC   C4A33606  18.709  23.448   7.788
 2540POPC   C1B33607  19.200  23.386   8.769
 2540POPC   C2B33608  19.301  23.279   8.355
 2540POPC   C3B33609  19.440  23.485   8.002
 2540POPC   C4B33610  19.205  23.353   7.666
 2541POPC   NC333611   9.750  16.529   9.327
 2541POPC   PO433612   9.780  17.147   9.141
 2541POPC   GL133613   9.653  16.798   8.905
 2541POPC   GL233614   9.981  16.607   8.874
 2541POPC   C1A33615   9.477  16.605   8.560
 2541POPC   D2A33616   9.284  16.699   8.157
 2541POPC   C3A33617   9.501  16.729   7.758
 2541POPC   C4A33618   9.784  16.796   7.383
 2541POPC   C1B33619   9.971  16.892   8.511
 2541POPC   C2B33620   9.854  16.855   8.099
 2541POPC   C3B33621   9.974  16.534   7.801
 2541POPC   C4B33622  10.226  16.501   7.422
 2542POPC   NC333623  26.272  43.276   9.556
 2542POPC   PO433624  26.617  42.724   9.675
 2542POPC   GL133625  26.572  42.916   9.197
 2542POPC   GL233626  26.620  43.272   9.148
 2542POPC   C1A33627  26.790  42.974   8.765
 2542POPC   D2A33628  26.881  42.833   8.339
 2542POPC   C3A33629  27.029  43.100   7.987
 2542POPC   C4A33630  27.174  42.947   7.557
 2542POPC   C1B33631  26.831  43.491   8.784
 2542POPC   C2B33632  26.748  43.369   8.365
 2542POPC   C3B33633  26.493  43.417   8.040
 2542POPC   C4B33634  26.712  43.333   7.641
 2543POPC   NC333635  11.145   2.999   9.517
 2543POPC   PO433636  11.586   2.533   9.641
 2543POPC   GL133637  11.420   2.649   9.230
 2543POPC   GL233638  11.494   3.015   9.151
 2543POPC   C1A33639  11.453   2.582   8.772
 2543POPC   D2A33640  11.600   2.590   8.323
 2543POPC   C3A33641  11.325   2.466   7.944
 2543POPC   C4A33642  11.312   2.685   7.516
 2543POPC   C1B33643  11.391   3.209   8.764
 2543POPC   C2B33644  11.491   3.102   8.371
 2543POPC   C3B33645  11.263   2.961   8.026
 2543POPC   C4B33646  11.068   3.132   7.673
 2544POPC   NC333647  30.953  35.413   9.434
 2544POPC   PO433648  30.380  35.724   9.479
 2544POPC   GL133649  30.600  35.621   9.082
 2544POPC   GL233650  30.946  35.703   9.006
 2544POPC   C1A33651  30.699  35.269   8.794
 2544POPC   D2A33652  30.938  35.155   8.429
 2544POPC   C3A33653  30.733  35.097   8.044
 2544POPC   C4A33654  30.504  35.313   7.748
 2544POPC   C1B33655  31.093  35.608   8.613
 2544POPC   C2B33656  31.165  35.803   8.226
 2544POPC   C3B33657  30.921  35.567   7.928
 2544POPC   C4B33658  30.935  35.443   7.494
 2545POPC   NC333659  15.005  41.361   9.259
 2545POPC   PO433660  15.147  40.738   9.496
 2545POPC   GL133661  15.272  40.689   9.102
 2545POPC   GL233662  15.391  41.005   9.005
 2545POPC   C1A33663  15.062  40.561   8.747
 2545POPC   D2A33664  15.169  40.445   8.334
 2545POPC   C3A33665  15.105  40.788   8.054
 2545POPC   C4A33666  15.202  40.925   7.659
 2545POPC   C1B33667  15.055  41.068   8.673
 2545POPC   C2B33668  14.793  41.108   8.315
 2545POPC   C3B33669  14.815  41.225   7.894
 2545POPC   C4B33670  14.747  41.099   7.488
 2546POPC   NC333671  34.243   1.663   9.635
 2546POPC   PO433672  34.237   1.053   9.368
 2546POPC   GL133673  34.476   1.268   9.070
 2546POPC   GL233674  34.767   1.441   9.137
 2546POPC   C1A33675  34.639   1.090   8.704
 2546POPC   D2A33676  34.604   0.830   8.305
 2546POPC   C3A33677  34.599   1.033   7.887
 2546POPC   C4A33678  34.272   1.172   7.581
 2546POPC   C1B33679  34.689   1.624   8.721
 2546POPC   C2B33680  34.549   1.425   8.325
 2546POPC   C3B33681  34.457   1.509   7.911
 2546POPC   C4B33682  34.720   1.430   7.566
 2547POPC   NC333683  32.814  19.980   9.494
 2547POPC   PO433684  33.314  19.515   9.424
 2547POPC   GL133685  33.120  19.818   9.094
 2547POPC   GL233686  32.805  20.063   9.013
 2547POPC   C1A33687  32.927  19.698   8.704
 2547POPC   D2A33688  32.806  19.541   8.332
 2547POPC   C3A33689  33.156  19.623   8.072
 2547POPC   C4A33690  33.320  19.652   7.687
 2547POPC   C1B33691  33.023  20.206   8.683
 2547POPC   C2B33692  32.945  20.038   8.292
 2547POPC   C3B33693  32.813  20.013   7.871
 2547POPC   C4B33694  33.001  20.025   7.467
 2548POPC   NC333695  33.163  14.026   9.377
 2548POPC   PO433696  33.645  13.647   9.530
 2548POPC   GL133697  33.836  13.587   9.164
 2548POPC   GL233698  33.820  13.946   9.064
 2548POPC   C1A33699  33.995  13.568   8.753
 2548POPC   D2A33700  33.837  13.358   8.404
 2548POPC   C3A33701  33.816  13.567   8.022
 2548POPC   C4A33702  33.707  13.331   7.662
 2548POPC   C1B33703  33.472  13.746   8.837
 2548POPC   C2B33704  33.264  13.779   8.457
 2548POPC   C3B33705  33.454  13.947   8.083
 2548POPC   C4B33706  33.407  13.726   7.717
 2549POPC   NC333707  39.360  36.819   9.408
 2549POPC   PO433708  38.905  37.388   9.469
 2549POPC   GL133709  39.027  37.084   9.126
 2549POPC   GL233710  38.965  36.725   9.100
 2549POPC   C1A33711  39.245  37.024   8.735
 2549POPC   D2A33712  39.511  37.109   8.402
 2549POPC   C3A33713  39.421  37.125   7.978
 2549POPC   C4A33714  39.228  36.921   7.638
 2549POPC   C1B33715  39.227  36.527   8.747
 2549POPC   C2B33716  39.251  36.659   8.300
 2549POPC   C3B33717  39.159  36.485   7.877
 2549POPC   C4B33718  38.941  36.559   7.433
 2550POPC   NC333719   9.100  32.759   9.496
 2550POPC   PO433720   8.421  32.647   9.427
 2550POPC   GL133721   8.537  32.927   9.054
 2550POPC   GL233722   8.908  33.000   9.072
 2550POPC   C1A33723   8.587  33.038   8.621
 2550POPC   D2A33724   8.982  32.978   8.398
 2550POPC   C3A33725   8.979  33.173   8.008
 2550POPC   C4A33726   8.848  33.029   7.631
 2550POPC   C1B33727   9.226  32.747   8.805
 2550POPC   C2B33728   9.485  32.825   8.424
 2550POPC   C3B33729   9.322  32.776   8.003
 2550POPC   C4B33730   9.352  33.029   7.629
 2551POPC   NC333731   7.242  25.462   9.446
 2551POPC   PO433732   7.456  24.789   9.516
 2551POPC   GL133733   7.403  25.081   9.140
 2551POPC   GL233734   7.660  25.356   9.073
 2551POPC   C1A33735   7.591  25.040   8.703
 2551POPC   D2A33736   7.504  25.219   8.320
 2551POPC   C3A33737   7.275  25.021   8.004
 2551POPC   C4A33738   7.307  25.105   7.574
 2551POPC   C1B33739   7.373  25.501   8.766
 2551POPC   C2B33740   7.259  25.668   8.358
 2551POPC   C3B33741   7.386  25.542   7.938
 2551POPC   C4B33742   7.278  25.621   7.527
 2552POPC   NC333743  27.330  40.988   9.556
 2552POPC   PO433744  27.935  40.578   9.449
 2552POPC   GL133745  27.726  40.820   9.145
 2552POPC   GL233746  27.376  40.726   9.146
 2552POPC   C1A33747  27.566  40.834   8.708
 2552POPC   D2A33748  27.516  40.670   8.316
 2552POPC   C3A33749  27.631  40.932   7.945
 2552POPC   C4A33750  27.960  40.822   7.636
 2552POPC   C1B33751  27.221  40.421   8.881
 2552POPC   C2B33752  27.075  40.388   8.467
 2552POPC   C3B33753  27.088  40.567   8.068
 2552POPC   C4B33754  27.352  40.515   7.733
 2553POPC   NC333755  38.051   3.420   9.522
 2553POPC   PO433756  38.718   3.466   9.393
 2553POPC   GL133757  38.411   3.340   9.122
 2553POPC   GL233758  38.320   3.650   9.077
 2553POPC   C1A33759  38.489   3.316   8.676
 2553POPC   D2A33760  38.825   3.404   8.386
 2553POPC   C3A33761  38.676   3.361   7.992
 2553POPC   C4A33762  38.454   3.399   7.621
 2553POPC   C1B33763  38.437   3.833   8.673
 2553POPC   C2B33764  38.515   3.804   8.236
 2553POPC   C3B33765  38.340   3.836   7.825
 2553POPC   C4B33766  38.593   3.874   7.443
 2554POPC   NC333767  34.740  39.221   9.463
 2554POPC   PO433768  34.113  38.936   9.290
 2554POPC   GL133769  34.327  39.126   8.981
 2554POPC   GL233770  34.291  39.439   9.030
 2554POPC   C1A33771  34.723  39.258   8.784
 2554POPC   D2A33772  34.821  39.321   8.341
 2554POPC   C3A33773  34.676  39.015   8.056
 2554POPC   C4A33774  34.959  38.779   7.822
 2554POPC   C1B33775  34.420  39.667   8.682
 2554POPC   C2B33776  34.690  39.807   8.365
 2554POPC   C3B33777  34.523  39.724   7.979
 2554POPC   C4B33778  34.693  39.450   7.751
 2555POPC   NC333779   6.965  38.693   9.491
 2555POPC   PO433780   6.326  38.483   9.489
 2555POPC   GL133781   6.578  38.534   9.132
 2555POPC   GL233782   6.629  38.199   9.053
 2555POPC   C1A33783   6.753  38.624   8.701
 2555POPC   D2A33784   6.740  38.800   8.268
 2555POPC   C3A33785   6.452  38.672   7.950
 2555POPC   C4A33786   6.632  38.696   7.564
 2555POPC   C1B33787   6.448  38.233   8.652
 2555POPC   C2B33788   6.610  38.293   8.246
 2555POPC   C3B33789   6.623  38.223   7.794
 2555POPC   C4B33790   6.436  38.088   7.405
 2556POPC   NC333791  19.067   3.196   9.528
 2556POPC   PO433792  18.791   2.617   9.403
 2556POPC   GL133793  18.916   2.943   9.100
 2556POPC   GL233794  19.260   2.852   9.030
 2556POPC   C1A33795  18.927   3.046   8.666
 2556POPC   D2A33796  19.027   2.754   8.281
 2556POPC   C3A33797  18.842   2.795   7.855
 2556POPC   C4A33798  18.929   3.075   7.465
 2556POPC   C1B33799  18.997   2.552   8.760
 2556POPC   C2B33800  19.002   2.235   8.434
 2556POPC   C3B33801  19.092   2.275   8.013
 2556POPC   C4B33802  19.201   2.503   7.644
 2557POPC   NC333803  14.993  30.936   9.415
 2557POPC   PO433804  15.553  30.632   9.728
 2557POPC   GL133805  15.305  30.510   9.254
 2557POPC   GL233806  15.174  30.771   9.004
 2557POPC   C1A33807  15.427  30.481   8.726
 2557POPC   D2A33808  15.217  30.672   8.349
 2557POPC   C3A33809  15.246  30.530   7.921
 2557POPC   C4A33810  15.591  30.722   7.755
 2557POPC   C1B33811  14.932  30.964   8.680
 2557POPC   C2B33812  15.086  31.179   8.319
 2557POPC   C3B33813  15.105  31.015   7.960
 2557POPC   C4B33814  15.050  31.157   7.595
 2558POPC   NC333815  33.571   1.698   9.322
 2558POPC   PO433816  33.034   1.946   9.699
 2558POPC   GL133817  33.038   1.959   9.227
 2558POPC   GL233818  33.356   2.117   9.127
 2558POPC   C1A33819  32.766   1.948   8.823
 2558POPC   D2A33820  32.791   2.117   8.370
 2558POPC   C3A33821  32.739   1.889   7.967
 2558POPC   C4A33822  32.825   2.046   7.523
 2558POPC   C1B33823  33.266   1.920   8.706
 2558POPC   C2B33824  33.302   1.848   8.250
 2558POPC   C3B33825  33.205   2.055   7.871
 2558POPC   C4B33826  33.336   2.051   7.431
 2559POPC   NC333827   5.326  32.932   9.907
 2559POPC   PO433828   5.054  32.392   9.593
 2559POPC   GL133829   4.941  32.317   9.194
 2559POPC   GL233830   5.294  32.266   9.134
 2559POPC   C1A33831   4.948  32.269   8.746
 2559POPC   D2A33832   4.977  32.147   8.308
 2559POPC   C3A33833   5.115  32.520   8.089
 2559POPC   C4A33834   4.916  32.689   7.754
 2559POPC   C1B33835   5.518  32.058   8.812
 2559POPC   C2B33836   5.460  32.009   8.385
 2559POPC   C3B33837   5.429  32.124   7.964
 2559POPC   C4B33838   5.365  31.957   7.538
 2560POPC   NC333839  29.226  13.223   9.843
 2560POPC   PO433840  29.233  12.709   9.449
 2560POPC   GL133841  29.214  12.793   9.047
 2560POPC   GL233842  28.885  12.629   9.031
 2560POPC   C1A33843  29.377  13.071   8.696
 2560POPC   D2A33844  29.142  13.200   8.320
 2560POPC   C3A33845  29.207  13.023   7.906
 2560POPC   C4A33846  29.197  13.096   7.444
 2560POPC   C1B33847  28.932  12.815   8.628
 2560POPC   C2B33848  29.162  12.661   8.287
 2560POPC   C3B33849  28.961  12.588   7.909
 2560POPC   C4B33850  28.771  12.891   7.651
 2561POPC   NC333851  37.686  35.886   9.575
 2561POPC   PO433852  37.350  36.423   9.827
 2561POPC   GL133853  37.587  36.463   9.277
 2561POPC   GL233854  37.631  36.145   9.079
 2561POPC   C1A33855  37.411  36.524   8.820
 2561POPC   D2A33856  37.127  36.370   8.463
 2561POPC   C3A33857  37.377  36.203   8.105
 2561POPC   C4A33858  37.460  36.398   7.709
 2561POPC   C1B33859  37.547  36.081   8.621
 2561POPC   C2B33860  37.833  35.948   8.334
 2561POPC   C3B33861  38.059  35.800   8.048
 2561POPC   C4B33862  37.877  36.077   7.805
 2562POPC   NC333863  22.018  41.308   9.614
 2562POPC   PO433864  22.226  42.006   9.415
 2562POPC   GL133865  22.298  41.595   9.246
 2562POPC   GL233866  21.980  41.467   9.139
 2562POPC   C1A33867  22.408  41.430   8.838
 2562POPC   D2A33868  22.415  41.251   8.425
 2562POPC   C3A33869  22.329  41.506   8.068
 2562POPC   C4A33870  22.265  41.700   7.675
 2562POPC   C1B33871  21.914  41.587   8.736
 2562POPC   C2B33872  21.927  41.420   8.354
 2562POPC   C3B33873  21.820  41.549   7.935
 2562POPC   C4B33874  21.777  41.749   7.546
 2563POPC   NC333875  21.887  34.868   9.615
 2563POPC   PO433876  22.289  34.348   9.569
 2563POPC   GL133877  22.049  34.518   9.235
 2563POPC   GL233878  22.071  34.861   9.136
 2563POPC   C1A33879  22.100  34.483   8.779
 2563POPC   D2A33880  22.372  34.334   8.445
 2563POPC   C3A33881  22.135  34.274   8.092
 2563POPC   C4A33882  22.012  34.532   7.787
 2563POPC   C1B33883  22.118  35.004   8.699
 2563POPC   C2B33884  22.145  34.803   8.297
 2563POPC   C3B33885  22.439  34.767   7.974
 2563POPC   C4B33886  22.388  34.767   7.507
 2564POPC   NC333887  20.046  17.657   9.533
 2564POPC   PO433888  19.363  17.539   9.499
 2564POPC   GL133889  19.577  17.382   9.117
 2564POPC   GL233890  19.916  17.498   9.088
 2564POPC   C1A33891  19.736  17.346   8.653
 2564POPC   D2A33892  19.722  17.454   8.212
 2564POPC   C3A33893  20.008  17.263   7.929
 2564POPC   C4A33894  20.075  17.342   7.504
 2564POPC   C1B33895  20.164  17.777   8.826
 2564POPC   C2B33896  20.242  17.763   8.393
 2564POPC   C3B33897  20.086  17.772   7.983
 2564POPC   C4B33898  20.301  17.778   7.613
 2565POPC   NC333899  40.449  44.041   9.759
 2565POPC   PO433900  39.844  43.769   9.626
 2565POPC   GL133901  39.976  43.858   9.254
 2565POPC   GL233902  40.189  43.586   9.154
 2565POPC   C1A33903  39.916  44.126   8.914
 2565POPC   D2A33904  40.128  44.180   8.547
 2565POPC   C3A33905  40.007  43.914   8.269
 2565POPC   C4A33906  40.079  43.986   7.862
 2565POPC   C1B33907  40.166  43.676   8.706
 2565POPC   C2B33908  40.137  43.424   8.354
 2565POPC   C3B33909  40.299  43.532   7.932
 2565POPC   C4B33910  40.028  43.466   7.531
 2566POPC   NC333911  26.286  25.341   9.456
 2566POPC   PO433912  25.585  25.581   9.547
 2566POPC   GL133913  25.816  25.391   9.221
 2566POPC   GL233914  25.995  25.608   9.161
 2566POPC   C1A33915  25.883  25.234   8.810
 2566POPC   D2A33916  25.926  25.046   8.419
 2566POPC   C3A33917  26.145  25.264   8.117
 2566POPC   C4A33918  26.064  25.064   7.752
 2566POPC   C1B33919  25.756  25.741   8.812
 2566POPC   C2B33920  25.805  25.573   8.416
 2566POPC   C3B33921  25.876  25.763   8.050
 2566POPC   C4B33922  25.998  25.571   7.698
 2567POPC   NC333923  27.681   8.057   9.449
 2567POPC   PO433924  27.684   8.721   9.528
 2567POPC   GL133925  27.695   8.513   9.110
 2567POPC   GL233926  27.594   8.156   8.969
 2567POPC   C1A33927  27.533   8.540   8.674
 2567POPC   D2A33928  27.572   8.205   8.380
 2567POPC   C3A33929  27.793   8.222   8.007
 2567POPC   C4A33930  27.764   8.386   7.585
 2567POPC   C1B33931  27.428   7.814   8.688
 2567POPC   C2B33932  27.247   7.832   8.258
 2567POPC   C3B33933  27.320   8.057   7.856
 2567POPC   C4B33934  27.376   8.065   7.386
 2568POPC   NC333935  34.044  14.796   9.390
 2568POPC   PO433936  33.699  15.363   9.409
 2568POPC   GL133937  33.946  15.207   9.076
 2568POPC   GL233938  33.735  14.942   9.016
 2568POPC   C1A33939  34.099  15.144   8.622
 2568POPC   D2A33940  33.926  15.021   8.232
 2568POPC   C3A33941  34.061  15.317   7.934
 2568POPC   C4A33942  34.042  15.383   7.502
 2568POPC   C1B33943  33.601  15.168   8.666
 2568POPC   C2B33944  33.519  15.363   8.292
 2568POPC   C3B33945  33.519  15.168   7.925
 2568POPC   C4B33946  33.796  14.947   7.694
 2569POPC   NC333947  21.911  25.169   9.184
 2569POPC   PO433948  22.502  25.486   9.426
 2569POPC   GL133949  22.349  25.430   9.014
 2569POPC   GL233950  22.654  25.222   8.970
 2569POPC   C1A33951  22.082  25.556   8.632
 2569POPC   D2A33952  21.904  25.414   8.231
 2569POPC   C3A33953  22.082  25.014   8.115
 2569POPC   C4A33954  22.118  25.178   7.717
 2569POPC   C1B33955  22.404  25.139   8.588
 2569POPC   C2B33956  22.441  25.379   8.204
 2569POPC   C3B33957  22.601  25.305   7.795
 2569POPC   C4B33958  22.568  25.573   7.397
 2570POPC   NC333959  24.866  41.321   9.414
 2570POPC   PO433960  25.522  41.310   9.560
 2570POPC   GL133961  25.297  41.445   9.179
 2570POPC   GL233962  25.183  41.798   9.165
 2570POPC   C1A33963  25.097  41.359   8.770
 2570POPC   D2A33964  25.180  41.110   8.397
 2570POPC   C3A33965  25.035  41.229   8.008
 2570POPC   C4A33966  25.094  41.071   7.571
 2570POPC   C1B33967  25.447  41.722   8.781
 2570POPC   C2B33968  25.468  41.533   8.407
 2570POPC   C3B33969  25.526  41.391   8.024
 2570POPC   C4B33970  25.228  41.604   7.764
 2571POPC   NC333971  18.535  37.249   9.480
 2571POPC   PO433972  18.127  36.631   9.564
 2571POPC   GL133973  18.397  36.810   9.198
 2571POPC   GL233974  18.450  37.170   8.998
 2571POPC   C1A33975  18.270  36.728   8.784
 2571POPC   D2A33976  18.140  36.781   8.368
 2571POPC   C3A33977  18.445  36.830   8.030
 2571POPC   C4A33978  18.300  36.799   7.610
 2571POPC   C1B33979  18.213  37.221   8.658
 2571POPC   C2B33980  18.293  37.249   8.248
 2571POPC   C3B33981  18.205  37.251   7.805
 2571POPC   C4B33982  18.083  37.359   7.380
 2572POPC   NC333983  11.847  29.177   9.442
 2572POPC   PO433984  12.619  29.075   9.312
 2572POPC   GL133985  12.271  29.234   9.104
 2572POPC   GL233986  11.887  29.205   8.956
 2572POPC   C1A33987  12.236  29.441   8.712
 2572POPC   D2A33988  11.977  29.230   8.418
 2572POPC   C3A33989  12.140  29.360   8.042
 2572POPC   C4A33990  12.236  29.467   7.602
 2572POPC   C1B33991  11.639  28.924   8.718
 2572POPC   C2B33992  11.601  28.687   8.344
 2572POPC   C3B33993  11.724  28.812   7.925
 2572POPC   C4B33994  11.750  29.245   7.724
 2573POPC   NC333995  28.076  42.740   9.537
 2573POPC   PO433996  28.171  42.172   9.677
 2573POPC   GL133997  28.196  42.263   9.241
 2573POPC   GL233998  28.362  42.517   9.174
 2573POPC   C1A33999  28.092  42.210   8.801
 2573POPC   D2A34000  28.292  41.981   8.501
 2573POPC   C3A34001  28.329  42.181   8.103
 2573POPC   C4A34002  28.259  42.270   7.693
 2573POPC   C1B34003  28.402  42.609   8.788
 2573POPC   C2B34004  28.537  42.546   8.405
 2573POPC   C3B34005  28.466  42.664   7.980
 2573POPC   C4B34006  28.739  42.410   7.732
 2574POPC   NC334007  26.060   2.596   9.402
 2574POPC   PO434008  25.985   3.295   9.552
 2574POPC   GL134009  25.839   2.978   9.174
 2574POPC   GL234010  26.172   2.950   8.995
 2574POPC   C1A34011  25.797   2.751   8.739
 2574POPC   D2A34012  26.103   2.777   8.389
 2574POPC   C3A34013  25.954   2.665   7.988
 2574POPC   C4A34014  25.846   2.874   7.599
 2574POPC   C1B34015  26.279   2.508   8.796
 2574POPC   C2B34016  26.479   2.398   8.400
 2574POPC   C3B34017  26.463   2.611   8.017
 2574POPC   C4B34018  26.284   2.618   7.605
 2575POPC   NC334019   2.638  27.712   9.571
 2575POPC   PO434020   2.352  27.064   9.510
 2575POPC   GL134021   2.483  27.415   9.171
 2575POPC   GL234022   2.506  27.807   9.110
 2575POPC   C1A34023   2.736  27.488   8.770
 2575POPC   D2A34024   2.841  27.682   8.351
 2575POPC   C3A34025   2.729  27.480   7.959
 2575POPC   C4A34026   2.766  27.410   7.523
 2575POPC   C1B34027   2.596  27.977   8.738
 2575POPC   C2B34028   2.381  27.927   8.360
 2575POPC   C3B34029   2.528  28.002   7.967
 2575POPC   C4B34030   2.463  27.786   7.592
 2576POPC   NC334031  33.516  28.008   9.515
 2576POPC   PO434032  33.965  28.554   9.630
 2576POPC   GL134033  33.811  28.390   9.263
 2576POPC   GL234034  33.926  28.048   9.183
 2576POPC   C1A34035  33.818  28.440   8.833
 2576POPC   D2A34036  33.534  28.382   8.505
 2576POPC   C3A34037  33.708  28.470   8.076
 2576POPC   C4A34038  33.513  28.694   7.791
 2576POPC   C1B34039  34.066  27.982   8.770
 2576POPC   C2B34040  33.927  28.089   8.360
 2576POPC   C3B34041  33.757  27.989   7.959
 2576POPC   C4B34042  33.989  27.940   7.603
 2577POPC   NC334043   0.814  31.427   9.790
 2577POPC   PO434044   0.226  31.554   9.414
 2577POPC   GL134045   0.091  31.538   9.050
 2577POPC   GL234046   0.262  31.277   8.985
 2577POPC   C1A34047   0.269  31.761   8.737
 2577POPC   D2A34048   0.403  31.754   8.358
 2577POPC   C3A34049   0.193  31.459   8.138
 2577POPC   C4A34050   0.164  31.682   7.793
 2577POPC   C1B34051   0.352  31.266   8.591
 2577POPC   C2B34052   0.705  31.331   8.340
 2577POPC   C3B34053   0.666  31.482   7.968
 2577POPC   C4B34054   0.401  31.245   7.707
 2578POPC   NC334055   2.938  33.290   9.595
 2578POPC   PO434056   2.472  32.752   9.462
 2578POPC   GL134057   2.646  33.078   9.177
 2578POPC   GL234058   2.868  32.848   9.066
 2578POPC   C1A34059   2.719  33.159   8.712
 2578POPC   D2A34060   2.554  33.101   8.309
 2578POPC   C3A34061   2.728  33.168   7.886
 2578POPC   C4A34062   2.846  33.316   7.408
 2578POPC   C1B34063   3.056  32.578   8.767
 2578POPC   C2B34064   3.186  32.446   8.352
 2578POPC   C3B34065   2.985  32.620   7.970
 2578POPC   C4B34066   2.984  32.867   7.602
 2579POPC   NC334067  43.516   2.779   9.563
 2579POPC   PO434068  42.801   2.975   9.430
 2579POPC   GL134069  43.011   2.776   9.118
 2579POPC   GL234070  43.338   2.661   9.118
 2579POPC   C1A34071  43.175   2.934   8.738
 2579POPC   D2A34072  43.376   2.778   8.405
 2579POPC   C3A34073  43.042   2.681   8.119
 2579POPC   C4A34074  43.041   2.816   7.710
 2579POPC   C1B34075  43.182   2.426   8.772
 2579POPC   C2B34076  43.335   2.255   8.387
 2579POPC   C3B34077  43.442   2.421   8.006
 2579POPC   C4B34078  43.209   2.348   7.638
 2580POPC   NC334079  26.173  26.927   9.538
 2580POPC   PO434080  25.644  26.411   9.527
 2580POPC   GL134081  25.888  26.568   9.158
 2580POPC   GL234082  26.236  26.576   9.200
 2580POPC   C1A34083  25.816  26.761   8.746
 2580POPC   D2A34084  26.002  26.645   8.383
 2580POPC   C3A34085  25.806  26.764   8.002
 2580POPC   C4A34086  25.820  27.100   7.716
 2580POPC   C1B34087  26.297  26.871   8.859
 2580POPC   C2B34088  26.394  27.003   8.440
 2580POPC   C3B34089  26.331  26.827   8.038
 2580POPC   C4B34090  26.193  26.592   7.689
 2581POPC   NC334091  41.460  29.195   9.954
 2581POPC   PO434092  41.814  28.796   9.536
 2581POPC   GL134093  41.648  29.037   9.216
 2581POPC   GL234094  41.813  29.403   9.261
 2581POPC   C1A34095  41.528  28.988   8.789
 2581POPC   D2A34096  41.323  28.777   8.452
 2581POPC   C3A34097  41.497  28.869   8.065
 2581POPC   C4A34098  41.338  28.943   7.647
 2581POPC   C1B34099  41.812  29.406   8.813
 2581POPC   C2B34100  41.659  29.301   8.402
 2581POPC   C3B34101  41.548  29.528   8.046
 2581POPC   C4B34102  41.592  29.395   7.642
 2582POPC   NC334103   0.083   7.901   9.528
 2582POPC   PO434104   0.614   7.365   9.542
 2582POPC   GL134105   0.483   7.258   9.132
 2582POPC   GL234106   0.099   7.308   9.109
 2582POPC   C1A34107   0.408   7.431   8.728
 2582POPC   D2A34108   0.604   7.753   8.497
 2582POPC   C3A34109   0.499   7.669   8.092
 2582POPC   C4A34110   0.778   7.565   7.788
 2582POPC   C1B34111   0.073   7.035   8.776
 2582POPC   C2B34112   0.193   7.071   8.378
 2582POPC   C3B34113   0.062   7.307   8.040
 2582POPC   C4B34114   0.342   7.342   7.716
 2583POPC   NC334115  34.863  25.840   9.430
 2583POPC   PO434116  34.299  26.262   9.477
 2583POPC   GL134117  34.481  26.053   9.134
 2583POPC   GL234118  34.777  26.212   9.042
 2583POPC   C1A34119  34.429  25.867   8.734
 2583POPC   D2A34120  34.487  25.783   8.290
 2583POPC   C3A34121  34.352  26.088   8.011
 2583POPC   C4A34122  34.425  26.022   7.596
 2583POPC   C1B34123  34.644  26.325   8.650
 2583POPC   C2B34124  34.846  26.139   8.305
 2583POPC   C3B34125  34.843  26.185   7.883
 2583POPC   C4B34126  34.546  26.497   7.729
 2584POPC   NC334127  32.193  41.029   9.332
 2584POPC   PO434128  32.303  41.583   9.737
 2584POPC   GL134129  32.368  41.651   9.304
 2584POPC   GL234130  32.627  41.423   9.314
 2584POPC   C1A34131  32.263  41.567   8.862
 2584POPC   D2A34132  32.138  41.410   8.437
 2584POPC   C3A34133  32.217  41.645   8.024
 2584POPC   C4A34134  32.281  41.361   7.634
 2584POPC   C1B34135  32.742  41.449   8.876
 2584POPC   C2B34136  32.633  41.257   8.461
 2584POPC   C3B34137  32.611  41.313   8.039
 2584POPC   C4B34138  32.671  41.623   7.778
 2585POPC   NC334139  30.076  13.743   9.537
 2585POPC   PO434140  29.499  13.355   9.490
 2585POPC   GL134141  29.817  13.435   9.174
 2585POPC   GL234142  29.922  13.785   9.054
 2585POPC   C1A34143  30.068  13.384   8.801
 2585POPC   D2A34144  30.054  13.690   8.495
 2585POPC   C3A34145  30.002  13.570   8.096
 2585POPC   C4A34146  29.728  13.779   7.834
 2585POPC   C1B34147  30.319  13.881   8.899
 2585POPC   C2B34148  30.466  14.044   8.522
 2585POPC   C3B34149  30.237  14.050   8.160
 2585POPC   C4B34150  30.228  13.864   7.747
 2586POPC   NC334151  39.808  37.943   9.511
 2586POPC   PO434152  40.342  37.671   9.706
 2586POPC   GL134153  40.161  37.647   9.187
 2586POPC   GL234154  39.826  37.758   9.052
 2586POPC   C1A34155  40.109  37.607   8.669
 2586POPC   D2A34156  40.350  37.580   8.262
 2586POPC   C3A34157  40.078  37.696   7.936
 2586POPC   C4A34158  39.887  37.344   7.791
 2586POPC   C1B34159  39.605  37.535   8.723
 2586POPC   C2B34160  39.707  37.550   8.274
 2586POPC   C3B34161  39.489  37.650   7.908
 2586POPC   C4B34162  39.570  38.052   7.778
 2587POPC   NC334163  33.830  26.437   9.421
 2587POPC   PO434164  33.574  25.873   9.710
 2587POPC   GL134165  33.731  25.875   9.209
 2587POPC   GL234166  33.498  25.686   9.039
 2587POPC   C1A34167  33.975  26.104   8.884
 2587POPC   D2A34168  34.027  26.007   8.459
 2587POPC   C3A34169  33.837  26.201   8.133
 2587POPC   C4A34170  33.907  26.165   7.712
 2587POPC   C1B34171  33.550  25.878   8.671
 2587POPC   C2B34172  33.575  25.708   8.281
 2587POPC   C3B34173  33.489  25.912   7.915
 2587POPC   C4B34174  33.510  25.888   7.488
 2588POPC   NC334175  18.051   0.685   9.534
 2588POPC   PO434176  18.529   0.216   9.829
 2588POPC   GL134177  18.433   0.296   9.329
 2588POPC   GL234178  18.152   0.440   9.104
 2588POPC   C1A34179  18.453   0.147   8.861
 2588POPC   D2A34180  18.357   0.479   8.577
 2588POPC   C3A34181  18.538   0.493   8.174
 2588POPC   C4A34182  18.371   0.208   7.897
 2588POPC   C1B34183  17.953   0.727   8.769
 2588POPC   C2B34184  17.931   0.777   8.327
 2588POPC   C3B34185  18.073   0.621   7.926
 2588POPC   C4B34186  18.366   0.814   7.596
 2589POPC   NC334187   6.935  28.528   9.353
 2589POPC   PO434188   6.331  28.179   9.542
 2589POPC   GL134189   6.481  28.255   9.133
 2589POPC   GL234190   6.819  28.115   9.031
 2589POPC   C1A34191   6.438  28.426   8.719
 2589POPC   D2A34192   6.726  28.385   8.409
 2589POPC   C3A34193   6.616  28.477   8.002
 2589POPC   C4A34194   6.949  28.490   7.733
 2589POPC   C1B34195   6.531  27.917   8.700
 2589POPC   C2B34196   6.321  28.075   8.297
 2589POPC   C3B34197   6.379  28.045   7.829
 2589POPC   C4B34198   6.543  27.921   7.387
 2590POPC   NC334199  33.417  36.358   9.516
 2590POPC   PO434200  32.747  36.121   9.487
 2590POPC   GL134201  33.100  36.019   9.172
 2590POPC   GL234202  32.859  35.765   9.042
 2590POPC   C1A34203  33.213  35.943   8.719
 2590POPC   D2A34204  32.938  35.897   8.344
 2590POPC   C3A34205  33.122  35.853   7.926
 2590POPC   C4A34206  33.389  36.119   7.683
 2590POPC   C1B34207  32.805  36.215   8.819
 2590POPC   C2B34208  33.007  36.407   8.448
 2590POPC   C3B34209  32.914  36.319   8.008
 2590POPC   C4B34210  32.958  36.350   7.560
 2591POPC   NC334211   4.499  42.266   9.626
 2591POPC   PO434212   4.025  42.719   9.522
 2591POPC   GL134213   4.248  42.433   9.223
 2591POPC   GL234214   4.640  42.431   9.172
 2591POPC   C1A34215   4.315  42.222   8.841
 2591POPC   D2A34216   4.183  42.324   8.437
 2591POPC   C3A34217   4.149  42.503   8.062
 2591POPC   C4A34218   4.197  42.243   7.720
 2591POPC   C1B34219   4.745  42.502   8.759
 2591POPC   C2B34220   4.696  42.241   8.459
 2591POPC   C3B34221   4.590  42.219   8.065
 2591POPC   C4B34222   4.628  42.599   7.921
 2592POPC   NC334223   7.838   4.401   9.554
 2592POPC   PO434224   7.334   3.955   9.490
 2592POPC   GL134225   7.509   4.268   9.188
 2592POPC   GL234226   7.262   4.088   8.985
 2592POPC   C1A34227   7.498   4.478   8.778
 2592POPC   D2A34228   7.643   4.574   8.354
 2592POPC   C3A34229   7.335   4.588   8.028
 2592POPC   C4A34230   7.398   4.632   7.580
 2592POPC   C1B34231   7.725   3.937   8.891
 2592POPC   C2B34232   7.838   3.906   8.465
 2592POPC   C3B34233   7.511   4.016   8.204
 2592POPC   C4B34234   7.491   4.167   7.786
 2593POPC   NC334235   8.181   0.617   9.769
 2593POPC   PO434236   7.875   0.355   9.235
 2593POPC   GL134237   8.215   0.546   8.979
 2593POPC   GL234238   8.399   0.356   9.058
 2593POPC   C1A34239   8.331   0.541   8.571
 2593POPC   D2A34240   7.956   0.456   8.412
 2593POPC   C3A34241   8.077   0.366   8.036
 2593POPC   C4A34242   8.391   0.600   7.836
 2593POPC   C1B34243   8.652   0.189   8.737
 2593POPC   C2B34244   8.672   0.169   8.266
 2593POPC   C3B34245   8.490   0.096   7.842
 2593POPC   C4B34246   8.476   0.324   7.412
 2594POPC   NC334247   5.657   3.299   9.552
 2594POPC   PO434248   5.836   3.831   9.691
 2594POPC   GL134249   5.860   3.647   9.242
 2594POPC   GL234250   5.592   3.746   9.034
 2594POPC   C1A34251   6.001   3.494   8.809
 2594POPC   D2A34252   6.317   3.611   8.479
 2594POPC   C3A34253   6.235   3.582   8.040
 2594POPC   C4A34254   6.152   3.526   7.618
 2594POPC   C1B34255   5.672   3.895   8.642
 2594POPC   C2B34256   5.822   3.635   8.317
 2594POPC   C3B34257   5.705   3.534   7.875
 2594POPC   C4B34258   5.667   3.570   7.405
 2595POPC   NC334259   0.127  37.362   9.388
 2595POPC   PO434260  44.580  37.705   9.607
 2595POPC   GL134261  44.502  37.844   9.205
 2595POPC   GL234262  44.826  37.797   9.089
 2595POPC   C1A34263  44.426  37.713   8.780
 2595POPC   D2A34264  44.279  37.906   8.415
 2595POPC   C3A34265  44.362  37.757   8.030
 2595POPC   C4A34266  44.456  37.621   7.622
 2595POPC   C1B34267  44.785  38.038   8.693
 2595POPC   C2B34268  44.838  37.889   8.276
 2595POPC   C3B34269  44.788  37.987   7.854
 2595POPC   C4B34270  44.933  37.711   7.533
 2596POPC   NC334271   9.314  26.417   9.427
 2596POPC   PO434272   9.914  26.818   9.542
 2596POPC   GL134273   9.850  26.792   9.085
 2596POPC   GL234274   9.527  26.779   9.140
 2596POPC   C1A34275   9.965  26.576   8.667
 2596POPC   D2A34276   9.819  26.462   8.221
 2596POPC   C3A34277   9.823  26.760   7.848
 2596POPC   C4A34278   9.939  27.204   7.813
 2596POPC   C1B34279   9.365  26.796   8.764
 2596POPC   C2B34280   9.579  26.882   8.437
 2596POPC   C3B34281   9.384  26.762   8.080
 2596POPC   C4B34282   9.282  26.851   7.662
 2597POPC   NC334283  15.451  19.113   9.375
 2597POPC   PO434284  16.160  19.081   9.376
 2597POPC   GL134285  15.886  19.156   9.084
 2597POPC   GL234286  15.749  18.816   9.090
 2597POPC   C1A34287  15.988  19.037   8.689
 2597POPC   D2A34288  15.795  18.975   8.353
 2597POPC   C3A34289  16.010  19.028   8.015
 2597POPC   C4A34290  15.939  19.269   7.715
 2597POPC   C1B34291  15.631  18.624   8.733
 2597POPC   C2B34292  15.424  18.629   8.359
 2597POPC   C3B34293  15.608  18.683   7.972
 2597POPC   C4B34294  15.840  18.749   7.611
 2598POPC   NC334295  40.211  18.240   9.510
 2598POPC   PO434296  39.545  18.122   9.519
 2598POPC   GL134297  39.767  18.404   9.203
 2598POPC   GL234298  40.120  18.415   9.064
 2598POPC   C1A34299  39.713  18.238   8.795
 2598POPC   D2A34300  39.739  18.241   8.374
 2598POPC   C3A34301  40.057  18.010   8.153
 2598POPC   C4A34302  39.921  18.000   7.726
 2598POPC   C1B34303  40.104  18.537   8.666
 2598POPC   C2B34304  40.087  18.578   8.259
 2598POPC   C3B34305  40.140  18.431   7.902
 2598POPC   C4B34306  40.445  18.143   7.819
 2599POPC   NC334307  16.245  12.990   9.534
 2599POPC   PO434308  15.545  12.738   9.579
 2599POPC   GL134309  15.876  12.774   9.256
 2599POPC   GL234310  15.742  12.636   9.004
 2599POPC   C1A34311  16.057  12.989   8.863
 2599POPC   D2A34312  16.251  12.905   8.452
 2599POPC   C3A34313  16.014  13.026   8.086
 2599POPC   C4A34314  15.950  13.063   7.622
 2599POPC   C1B34315  16.040  12.479   8.654
 2599POPC   C2B34316  16.027  12.464   8.186
 2599POPC   C3B34317  15.762  12.647   7.830
 2599POPC   C4B34318  15.568  12.729   7.428
 2600POPC   NC334319  43.320  35.909   9.350
 2600POPC   PO434320  42.787  36.261   9.373
 2600POPC   GL134321  43.090  36.320   9.087
 2600POPC   GL234322  43.013  35.999   8.943
 2600POPC   C1A34323  43.199  36.416   8.666
 2600POPC   D2A34324  43.309  36.272   8.252
 2600POPC   C3A34325  43.122  36.358   7.857
 2600POPC   C4A34326  43.202  36.142   7.462
 2600POPC   C1B34327  42.743  36.211   8.648
 2600POPC   C2B34328  42.805  36.145   8.239
 2600POPC   C3B34329  42.988  35.874   7.930
 2600POPC   C4B34330  42.722  36.091   7.669
 2601POPC   NC334331  21.056  19.505   9.526
 2601POPC   PO434332  21.371  20.037   9.460
 2601POPC   GL134333  21.219  19.864   9.115
 2601POPC   GL234334  21.397  19.593   9.132
 2601POPC   C1A34335  21.384  19.962   8.719
 2601POPC   D2A34336  21.244  19.806   8.342
 2601POPC   C3A34337  21.437  19.948   7.993
 2601POPC   C4A34338  21.252  20.229   7.717
 2601POPC   C1B34339  21.607  19.478   8.768
 2601POPC   C2B34340  21.573  19.401   8.345
 2601POPC   C3B34341  21.334  19.415   7.989
 2601POPC   C4B34342  21.595  19.574   7.687
 2602POPC   NC334343   1.614  44.787   9.615
 2602POPC   PO434344   1.063  44.405   9.551
 2602POPC   GL134345   1.176  44.543   9.166
 2602POPC   GL234346   1.460  44.428   9.160
 2602POPC   C1A34347   1.184  44.788   8.794
 2602POPC   D2A34348   1.378  44.779   8.382
 2602POPC   C3A34349   1.079  44.916   8.072
 2602POPC   C4A34350   0.800  44.985   7.711
 2602POPC   C1B34351   1.360  44.300   8.713
 2602POPC   C2B34352   1.410  44.251   8.264
 2602POPC   C3B34353   1.252  44.463   7.912
 2602POPC   C4B34354   1.300  44.826   7.610
 2603POPC   NC334355  43.599   7.059   9.499
 2603POPC   PO434356  43.908   7.665   9.577
 2603POPC   GL134357  43.882   7.397   9.223
 2603POPC   GL234358  43.568   7.488   9.244
 2603POPC   C1A34359  43.896   7.293   8.777
 2603POPC   D2A34360  44.130   7.487   8.407
 2603POPC   C3A34361  44.107   7.222   8.040
 2603POPC   C4A34362  43.751   7.082   7.832
 2603POPC   C1B34363  43.546   7.649   8.881
 2603POPC   C2B34364  43.628   7.595   8.443
 2603POPC   C3B34365  43.756   7.619   8.021
 2603POPC   C4B34366  43.639   7.548   7.594
 2604POPC   NC334367  13.419  43.471   9.373
 2604POPC   PO434368  13.470  42.890   9.540
 2604POPC   GL134369  13.660  42.839   9.172
 2604POPC   GL234370  13.348  42.976   9.056
 2604POPC   C1A34371  13.770  43.053   8.791
 2604POPC   D2A34372  13.561  43.131   8.426
 2604POPC   C3A34373  13.853  43.203   8.083
 2604POPC   C4A34374  13.769  43.210   7.649
 2604POPC   C1B34375  13.355  42.747   8.723
 2604POPC   C2B34376  13.525  42.638   8.381
 2604POPC   C3B34377  13.508  42.839   7.973
 2604POPC   C4B34378  13.132  42.793   7.739
 2605POPC   NC334379   2.187  24.204   9.557
 2605POPC   PO434380   2.066  23.599   9.521
 2605POPC   GL134381   2.103  23.892   9.158
 2605POPC   GL234382   1.827  24.092   9.014
 2605POPC   C1A34383   2.259  23.978   8.719
 2605POPC   D2A34384   2.127  24.049   8.287
 2605POPC   C3A34385   2.151  23.709   7.976
 2605POPC   C4A34386   2.178  23.258   7.857
 2605POPC   C1B34387   1.817  23.691   8.785
 2605POPC   C2B34388   1.843  23.544   8.370
 2605POPC   C3B34389   1.697  23.433   7.986
 2605POPC   C4B34390   1.785  23.441   7.586
 2606POPC   NC334391  40.317  36.569   9.413
 2606POPC   PO434392  40.044  35.938   9.411
 2606POPC   GL134393  39.871  36.050   9.033
 2606POPC   GL234394  39.709  36.384   9.002
 2606POPC   C1A34395  39.996  36.017   8.616
 2606POPC   D2A34396  39.870  35.773   8.268
 2606POPC   C3A34397  40.040  35.978   7.898
 2606POPC   C4A34398  39.855  36.323   7.672
 2606POPC   C1B34399  40.090  36.495   8.823
 2606POPC   C2B34400  40.214  36.674   8.462
 2606POPC   C3B34401  40.124  36.474   8.093
 2606POPC   C4B34402  40.312  36.551   7.711
 2607POPC   NC334403   8.688  44.247   9.411
 2607POPC   PO434404   9.024  44.839   9.452
 2607POPC   GL134405   8.882  44.821   9.022
 2607POPC   GL234406   8.599  44.619   9.062
 2607POPC   C1A34407   8.748  44.729   8.580
 2607POPC   D2A34408   8.831  44.535   8.216
 2607POPC   C3A34409   9.007  44.793   7.910
 2607POPC   C4A34410   9.270   0.136   7.751
 2607POPC   C1B34411   8.499  44.321   8.765
 2607POPC   C2B34412   8.353  44.400   8.345
 2607POPC   C3B34413   8.411  44.585   7.945
 2607POPC   C4B34414   8.658  44.526   7.620
 2608POPC   NC334415  44.678   0.887   9.545
 2608POPC   PO434416   0.015   1.494   9.425
 2608POPC   GL134417  44.757   1.235   9.175
 2608POPC   GL234418  44.951   0.977   9.121
 2608POPC   C1A34419  44.590   1.261   8.771
 2608POPC   D2A34420  44.693   1.501   8.407
 2608POPC   C3A34421  44.428   1.539   8.047
 2608POPC   C4A34422  44.541   1.238   7.750
 2608POPC   C1B34423  44.805   0.793   8.764
 2608POPC   C2B34424  44.653   0.939   8.357
 2608POPC   C3B34425  44.554   0.772   7.958
 2608POPC   C4B34426  44.797   0.820   7.575
 2609POPC   NC334427  13.790  20.069   9.471
 2609POPC   PO434428  13.441  19.512   9.491
 2609POPC   GL134429  13.643  19.689   9.147
 2609POPC   GL234430  13.949  19.578   9.310
 2609POPC   C1A34431  13.750  19.981   8.794
 2609POPC   D2A34432  13.962  20.045   8.400
 2609POPC   C3A34433  13.746  20.151   8.030
 2609POPC   C4A34434  13.574  19.919   7.732
 2609POPC   C1B34435  14.095  19.605   8.899
 2609POPC   C2B34436  13.934  19.544   8.503
 2609POPC   C3B34437  13.924  19.638   8.059
 2609POPC   C4B34438  14.196  19.564   7.752
 2610POPC   NC334439  39.918  19.407   9.423
 2610POPC   PO434440  40.085  18.745   9.502
 2610POPC   GL134441  40.119  18.938   9.114
 2610POPC   GL234442  40.323  19.184   9.181
 2610POPC   C1A34443  39.908  19.005   8.726
 2610POPC   D2A34444  39.640  18.743   8.464
 2610POPC   C3A34445  39.715  18.851   8.036
 2610POPC   C4A34446  39.989  18.866   7.687
 2610POPC   C1B34447  40.303  19.340   8.766
 2610POPC   C2B34448  40.259  19.479   8.312
 2610POPC   C3B34449  40.224  19.294   7.849
 2610POPC   C4B34450  40.295  19.162   7.393
 2611POPC   NC334451  12.417  34.003   9.382
 2611POPC   PO434452  13.117  33.896   9.551
 2611POPC   GL134453  12.872  33.898   9.170
 2611POPC   GL234454  12.684  33.580   9.084
 2611POPC   C1A34455  12.726  33.948   8.729
 2611POPC   D2A34456  12.666  34.055   8.295
 2611POPC   C3A34457  12.767  33.767   7.975
 2611POPC   C4A34458  12.859  33.928   7.619
 2611POPC   C1B34459  12.771  33.364   8.705
 2611POPC   C2B34460  12.573  33.491   8.357
 2611POPC   C3B34461  12.350  33.459   7.970
 2611POPC   C4B34462  12.390  33.728   7.590
 2612POPC   NC334463  24.428  21.860   9.411
 2612POPC   PO434464  24.687  22.496   9.517
 2612POPC   GL134465  24.546  22.302   9.143
 2612POPC   GL234466  24.777  22.024   9.099
 2612POPC   C1A34467  24.574  22.347   8.698
 2612POPC   D2A34468  24.305  22.313   8.357
 2612POPC   C3A34469  24.530  22.288   7.989
 2612POPC   C4A34470  24.332  22.194   7.607
 2612POPC   C1B34471  24.686  21.847   8.725
 2612POPC   C2B34472  24.660  21.898   8.298
 2612POPC   C3B34473  24.423  21.801   7.949
 2612POPC   C4B34474  24.438  21.686   7.570
 2613POPC   NC334475  44.499  30.410   9.405
 2613POPC   PO434476  44.353  31.078   9.303
 2613POPC   GL134477  44.472  30.737   8.993
 2613POPC   GL234478  44.772  30.513   8.980
 2613POPC   C1A34479  44.404  30.460   8.627
 2613POPC   D2A34480  44.291  30.260   8.241
 2613POPC   C3A34481  44.371  30.619   7.982
 2613POPC   C4A34482  44.473  31.054   8.076
 2613POPC   C1B34483  44.917  30.933   8.795
 2613POPC   C2B34484  44.878  31.139   8.371
 2613POPC   C3B34485  44.945  31.032   7.881
 2613POPC   C4B34486  44.856  30.624   7.618
 2614POPC   NC334487  19.673  21.589   9.388
 2614POPC   PO434488  20.325  21.404   9.483
 2614POPC   GL134489  20.125  21.538   9.124
 2614POPC   GL234490  20.002  21.226   8.966
 2614POPC   C1A34491  19.973  21.700   8.739
 2614POPC   D2A34492  19.933  21.414   8.396
 2614POPC   C3A34493  19.978  21.537   7.998
 2614POPC   C4A34494  19.817  21.751   7.656
 2614POPC   C1B34495  19.572  21.358   8.759
 2614POPC   C2B34496  19.398  21.442   8.328
 2614POPC   C3B34497  19.478  21.416   7.875
 2614POPC   C4B34498  19.442  21.425   7.417
 2615POPC   NC334499  19.494  11.076   9.737
 2615POPC   PO434500  19.632  11.660   9.420
 2615POPC   GL134501  19.828  11.450   9.092
 2615POPC   GL234502  20.115  11.285   9.208
 2615POPC   C1A34503  19.808  11.305   8.664
 2615POPC   D2A34504  19.600  11.200   8.276
 2615POPC   C3A34505  19.784  11.370   7.902
 2615POPC   C4A34506  19.831  11.227   7.476
 2615POPC   C1B34507  20.235  11.529   8.810
 2615POPC   C2B34508  20.155  11.616   8.410
 2615POPC   C3B34509  20.266  11.526   8.020
 2615POPC   C4B34510  20.278  11.517   7.600
 2616POPC   NC334511  35.513  13.180   9.515
 2616POPC   PO434512  35.006  12.789   9.592
 2616POPC   GL134513  35.254  12.816   9.240
 2616POPC   GL234514  35.127  13.183   9.184
 2616POPC   C1A34515  35.390  12.569   8.865
 2616POPC   D2A34516  35.592  12.345   8.522
 2616POPC   C3A34517  35.519  12.631   8.156
 2616POPC   C4A34518  35.353  12.714   7.719
 2616POPC   C1B34519  35.428  13.096   8.851
 2616POPC   C2B34520  35.556  13.087   8.451
 2616POPC   C3B34521  35.500  13.133   7.994
 2616POPC   C4B34522  35.639  13.173   7.544
 2617POPC   NC334523  15.975  30.780   9.844
 2617POPC   PO434524  15.484  30.998   9.361
 2617POPC   GL134525  15.675  30.821   9.006
 2617POPC   GL234526  15.787  30.539   9.142
 2617POPC   C1A34527  15.972  30.960   8.698
 2617POPC   D2A34528  16.200  30.992   8.330
 2617POPC   C3A34529  15.993  30.974   7.962
 2617POPC   C4A34530  16.080  30.853   7.591
 2617POPC   C1B34531  15.944  30.462   8.742
 2617POPC   C2B34532  15.796  30.604   8.337
 2617POPC   C3B34533  16.003  30.474   7.972
 2617POPC   C4B34534  15.932  30.364   7.596
 2618POPC   NC334535   8.135   1.517   9.556
 2618POPC   PO434536   8.717   1.557   9.309
 2618POPC   GL134537   8.492   1.906   9.086
 2618POPC   GL234538   8.178   2.065   9.161
 2618POPC   C1A34539   8.531   2.167   8.747
 2618POPC   D2A34540   8.363   1.869   8.487
 2618POPC   C3A34541   8.378   1.958   8.101
 2618POPC   C4A34542   8.580   2.014   7.751
 2618POPC   C1B34543   8.030   2.228   8.749
 2618POPC   C2B34544   8.144   2.361   8.311
 2618POPC   C3B34545   7.929   2.142   7.934
 2618POPC   C4B34546   8.116   1.796   7.702
 2619POPC   NC334547   8.599   6.869   9.827
 2619POPC   PO434548   8.209   6.364   9.683
 2619POPC   GL134549   8.263   6.407   9.248
 2619POPC   GL234550   8.217   6.739   9.191
 2619POPC   C1A34551   8.102   6.398   8.811
 2619POPC   D2A34552   7.897   6.592   8.445
 2619POPC   C3A34553   8.058   6.385   8.078
 2619POPC   C4A34554   8.240   6.463   7.683
 2619POPC   C1B34555   8.065   6.931   8.803
 2619POPC   C2B34556   8.178   7.045   8.372
 2619POPC   C3B34557   8.015   6.892   7.968
 2619POPC   C4B34558   8.040   6.927   7.512
 2620POPC   NC334559  33.500  10.681   9.279
 2620POPC   PO434560  34.100  10.421   9.316
 2620POPC   GL134561  33.895  10.453   8.998
 2620POPC   GL234562  33.890  10.818   8.914
 2620POPC   C1A34563  33.973  10.359   8.605
 2620POPC   D2A34564  33.847  10.655   8.340
 2620POPC   C3A34565  33.967  10.501   7.993
 2620POPC   C4A34566  33.872  10.232   7.641
 2620POPC   C1B34567  33.581  11.064   8.660
 2620POPC   C2B34568  33.454  10.990   8.263
 2620POPC   C3B34569  33.732  10.952   7.941
 2620POPC   C4B34570  33.767  10.719   7.564
 2621POPC   NC334571  38.012  20.857   9.475
 2621POPC   PO434572  38.586  20.419   9.315
 2621POPC   GL134573  38.188  20.489   9.139
 2621POPC   GL234574  38.157  20.216   8.934
 2621POPC   C1A34575  38.130  20.701   8.747
 2621POPC   D2A34576  38.477  20.875   8.496
 2621POPC   C3A34577  38.385  20.846   8.058
 2621POPC   C4A34578  38.404  20.750   7.625
 2621POPC   C1B34579  38.506  20.372   8.653
 2621POPC   C2B34580  38.611  20.399   8.219
 2621POPC   C3B34581  38.653  20.341   7.782
 2621POPC   C4B34582  38.417  20.274   7.383
 2622POPC   NC334583  15.087   6.978   9.284
 2622POPC   PO434584  15.593   6.531   9.385
 2622POPC   GL134585  15.158   6.471   9.206
 2622POPC   GL234586  15.063   6.143   9.109
 2622POPC   C1A34587  14.986   6.527   8.780
 2622POPC   D2A34588  14.891   6.696   8.375
 2622POPC   C3A34589  15.187   6.902   8.109
 2622POPC   C4A34590  15.022   6.747   7.731
 2622POPC   C1B34591  15.423   6.205   8.819
 2622POPC   C2B34592  15.430   6.486   8.471
 2622POPC   C3B34593  15.280   6.404   8.046
 2622POPC   C4B34594  15.530   6.327   7.695
 2623POPC   NC334595  19.877   1.612   9.438
 2623POPC   PO434596  19.343   1.120   9.399
 2623POPC   GL134597  19.587   1.207   9.007
 2623POPC   GL234598  19.560   1.586   9.038
 2623POPC   C1A34599  19.962   0.975   8.719
 2623POPC   D2A34600  20.224   0.910   8.285
 2623POPC   C3A34601  19.884   0.982   7.943
 2623POPC   C4A34602  19.594   1.093   7.595
 2623POPC   C1B34603  19.925   1.497   8.767
 2623POPC   C2B34604  19.988   1.337   8.366
 2623POPC   C3B34605  20.116   1.416   7.993
 2623POPC   C4B34606  19.959   1.522   7.617
 2624POPC   NC334607  26.837  17.255   9.669
 2624POPC   PO434608  26.416  17.613   9.386
 2624POPC   GL134609  26.719  17.487   9.098
 2624POPC   GL234610  26.984  17.281   9.169
 2624POPC   C1A34611  26.797  17.706   8.702
 2624POPC   D2A34612  26.689  17.457   8.319
 2624POPC   C3A34613  26.766  17.663   7.936
 2624POPC   C4A34614  26.603  17.735   7.528
 2624POPC   C1B34615  26.969  17.240   8.727
 2624POPC   C2B34616  27.182  17.356   8.368
 2624POPC   C3B34617  27.254  17.513   7.986
 2624POPC   C4B34618  27.260  17.297   7.613
 2625POPC   NC334619  10.529   2.234   9.333
 2625POPC   PO434620  10.181   1.724   9.578
 2625POPC   GL134621  10.425   1.744   9.182
 2625POPC   GL234622  10.799   1.762   9.197
 2625POPC   C1A34623  10.449   1.941   8.751
 2625POPC   D2A34624  10.540   2.209   8.404
 2625POPC   C3A34625  10.405   1.953   8.067
 2625POPC   C4A34626  10.414   1.995   7.641
 2625POPC   C1B34627  10.957   1.829   8.771
 2625POPC   C2B34628  10.815   1.774   8.354
 2625POPC   C3B34629  10.838   1.666   7.928
 2625POPC   C4B34630  10.656   1.544   7.536
 2626POPC   NC334631  17.918   8.081   9.624
 2626POPC   PO434632  17.385   8.462   9.451
 2626POPC   GL134633  17.545   8.219   9.175
 2626POPC   GL234634  17.536   7.901   9.318
 2626POPC   C1A34635  17.706   8.326   8.768
 2626POPC   D2A34636  17.553   8.451   8.375
 2626POPC   C3A34637  17.692   8.264   7.997
 2626POPC   C4A34638  17.536   8.276   7.562
 2626POPC   C1B34639  17.637   7.828   8.864
 2626POPC   C2B34640  17.414   7.977   8.486
 2626POPC   C3B34641  17.366   7.872   8.074
 2626POPC   C4B34642  17.690   7.815   7.752
 2627POPC   NC334643   1.657  33.274   9.359
 2627POPC   PO434644   1.647  32.624   9.450
 2627POPC   GL134645   1.792  32.876   9.090
 2627POPC   GL234646   2.115  33.010   9.177
 2627POPC   C1A34647   1.685  33.116   8.699
 2627POPC   D2A34648   1.617  32.921   8.268
 2627POPC   C3A34649   1.729  33.125   7.891
 2627POPC   C4A34650   1.853  33.212   7.447
 2627POPC   C1B34651   2.215  33.150   8.767
 2627POPC   C2B34652   2.049  33.192   8.343
 2627POPC   C3B34653   2.219  33.086   7.933
 2627POPC   C4B34654   2.369  33.141   7.506
 2628POPC   NC334655  24.809   3.619   9.506
 2628POPC   PO434656  24.222   3.597   9.696
 2628POPC   GL134657  24.367   3.670   9.262
 2628POPC   GL234658  24.499   3.362   9.185
 2628POPC   C1A34659  24.219   3.652   8.839
 2628POPC   D2A34660  24.414   3.606   8.448
 2628POPC   C3A34661  24.250   3.679   8.082
 2628POPC   C4A34662  24.385   3.501   7.736
 2628POPC   C1B34663  24.692   3.373   8.798
 2628POPC   C2B34664  24.949   3.402   8.432
 2628POPC   C3B34665  24.796   3.439   8.050
 2628POPC   C4B34666  24.857   3.311   7.657
 2629POPC   NC334667   0.876  18.586   9.397
 2629POPC   PO434668   1.410  19.043   9.490
 2629POPC   GL134669   1.204  18.952   9.141
 2629POPC   GL234670   0.939  19.109   9.261
 2629POPC   C1A34671   1.371  19.106   8.757
 2629POPC   D2A34672   1.519  19.231   8.342
 2629POPC   C3A34673   1.361  19.065   7.926
 2629POPC   C4A34674   1.210  18.772   7.605
 2629POPC   C1B34675   0.851  19.208   8.835
 2629POPC   C2B34676   0.977  19.201   8.407
 2629POPC   C3B34677   0.952  19.387   8.010
 2629POPC   C4B34678   0.941  19.247   7.608
 2630POPC   NC334679  14.927  10.404   9.305
 2630POPC   PO434680  14.264  10.244   9.420
 2630POPC   GL134681  14.400  10.541   9.116
 2630POPC   GL234682  14.208  10.848   9.073
 2630POPC   C1A34683  14.402  10.396   8.700
 2630POPC   D2A34684  14.176  10.318   8.313
 2630POPC   C3A34685  14.322  10.523   7.937
 2630POPC   C4A34686  14.648  10.602   7.641
 2630POPC   C1B34687  14.424  10.898   8.688
 2630POPC   C2B34688  14.325  10.929   8.269
 2630POPC   C3B34689  14.225  11.021   7.850
 2630POPC   C4B34690  13.915  10.816   7.660
 2631POPC   NC334691   2.171  26.590   9.608
 2631POPC   PO434692   1.635  26.846   9.417
 2631POPC   GL134693   2.035  26.809   9.170
 2631POPC   GL234694   1.987  26.474   9.146
 2631POPC   C1A34695   2.229  26.853   8.755
 2631POPC   D2A34696   2.007  27.121   8.425
 2631POPC   C3A34697   1.957  27.069   7.962
 2631POPC   C4A34698   1.572  27.186   7.710
 2631POPC   C1B34699   1.873  26.474   8.725
 2631POPC   C2B34700   2.038  26.609   8.337
 2631POPC   C3B34701   1.890  26.542   7.949
 2631POPC   C4B34702   2.114  26.665   7.646
 2632POPC   NC334703  35.296  38.745   9.430
 2632POPC   PO434704  35.173  39.411   9.397
 2632POPC   GL134705  35.167  39.110   9.077
 2632POPC   GL234706  35.498  38.996   9.045
 2632POPC   C1A34707  35.218  39.108   8.633
 2632POPC   D2A34708  35.298  39.512   8.464
 2632POPC   C3A34709  35.170  39.602   8.068
 2632POPC   C4A34710  35.161  39.291   7.732
 2632POPC   C1B34711  35.662  38.809   8.666
 2632POPC   C2B34712  35.671  38.982   8.331
 2632POPC   C3B34713  35.503  39.215   8.084
 2632POPC   C4B34714  35.663  39.250   7.691
 2633POPC   NC334715  14.094  22.287   9.609
 2633POPC   PO434716  14.614  21.864   9.509
 2633POPC   GL134717  14.401  22.124   9.242
 2633POPC   GL234718  14.141  21.853   9.251
 2633POPC   C1A34719  14.235  22.311   8.863
 2633POPC   D2A34720  14.349  22.244   8.451
 2633POPC   C3A34721  14.448  22.395   8.054
 2633POPC   C4A34722  14.567  22.137   7.704
 2633POPC   C1B34723  14.367  21.805   8.862
 2633POPC   C2B34724  14.246  21.746   8.453
 2633POPC   C3B34725  14.276  21.912   8.072
 2633POPC   C4B34726  14.126  21.789   7.709
 2634POPC   NC334727  43.415   9.692   9.499
 2634POPC   PO434728  42.704   9.672   9.487
 2634POPC   GL134729  42.947   9.833   9.159
 2634POPC   GL234730  43.122   9.526   9.112
 2634POPC   C1A34731  42.990   9.816   8.693
 2634POPC   D2A34732  42.814   9.863   8.296
 2634POPC   C3A34733  43.090   9.859   7.951
 2634POPC   C4A34734  43.016  10.046   7.541
 2634POPC   C1B34735  43.075   9.301   8.724
 2634POPC   C2B34736  43.137   9.426   8.283
 2634POPC   C3B34737  43.186   9.271   7.871
 2634POPC   C4B34738  43.192   9.561   7.533
 2635POPC   NC334739  22.149  25.795   9.350
 2635POPC   PO434740  21.849  26.249   9.632
 2635POPC   GL134741  21.919  26.240   9.174
 2635POPC   GL234742  22.245  26.147   9.015
 2635POPC   C1A34743  21.853  26.056   8.739
 2635POPC   D2A34744  21.648  26.118   8.375
 2635POPC   C3A34745  21.931  26.062   8.041
 2635POPC   C4A34746  21.975  26.235   7.623
 2635POPC   C1B34747  22.519  26.324   8.739
 2635POPC   C2B34748  22.322  26.258   8.348
 2635POPC   C3B34749  22.427  26.143   7.921
 2635POPC   C4B34750  22.273  25.721   7.797
 2636POPC   NC334751  17.030  26.511   9.352
 2636POPC   PO434752  17.596  26.800   9.498
 2636POPC   GL134753  17.842  26.854   9.136
 2636POPC   GL234754  17.950  26.501   9.119
 2636POPC   C1A34755  17.747  26.892   8.705
 2636POPC   D2A34756  17.366  26.796   8.467
 2636POPC   C3A34757  17.371  26.972   8.044
 2636POPC   C4A34758  17.767  26.933   7.812
 2636POPC   C1B34759  17.583  26.450   8.889
 2636POPC   C2B34760  17.727  26.421   8.476
 2636POPC   C3B34761  17.559  26.480   8.084
 2636POPC   C4B34762  17.789  26.423   7.736
 2637POPC   NC334763  24.768  30.698   9.579
 2637POPC   PO434764  25.468  30.803   9.440
 2637POPC   GL134765  25.171  30.626   9.126
 2637POPC   GL234766  25.029  30.783   8.849
 2637POPC   C1A34767  25.193  30.310   8.782
 2637POPC   D2A34768  25.516  30.286   8.474
 2637POPC   C3A34769  25.294  30.396   8.089
 2637POPC   C4A34770  25.508  30.352   7.722
 2637POPC   C1B34771  25.403  30.786   8.596
 2637POPC   C2B34772  25.308  30.919   8.194
 2637POPC   C3B34773  25.297  30.924   7.771
 2637POPC   C4B34774  25.342  30.983   7.313
 2638POPC   NC334775   9.115  19.587   9.367
 2638POPC   PO434776   9.196  18.913   9.501
 2638POPC   GL134777   8.941  18.954   9.107
 2638POPC   GL234778   8.872  19.301   9.035
 2638POPC   C1A34779   8.961  19.008   8.636
 2638POPC   D2A34780   8.744  19.093   8.260
 2638POPC   C3A34781   9.027  19.075   7.894
 2638POPC   C4A34782   9.258  18.735   7.708
 2638POPC   C1B34783   8.669  19.448   8.670
 2638POPC   C2B34784   8.660  19.595   8.241
 2638POPC   C3B34785   8.591  19.373   7.844
 2638POPC   C4B34786   8.862  19.373   7.481
 2639POPC   NC334787  28.648   1.694   9.653
 2639POPC   PO434788  28.176   2.215   9.499
 2639POPC   GL134789  28.365   2.060   9.118
 2639POPC   GL234790  28.546   1.755   9.156
 2639POPC   C1A34791  28.274   2.061   8.667
 2639POPC   D2A34792  28.252   1.846   8.268
 2639POPC   C3A34793  28.348   2.123   7.908
 2639POPC   C4A34794  28.129   2.120   7.440
 2639POPC   C1B34795  28.632   1.652   8.736
 2639POPC   C2B34796  28.751   1.804   8.343
 2639POPC   C3B34797  28.690   1.691   7.924
 2639POPC   C4B34798  28.452   1.747   7.548
 2640POPC   NC334799  21.917  13.588   9.410
 2640POPC   PO434800  22.588  13.793   9.327
 2640POPC   GL134801  22.309  13.793   8.986
 2640POPC   GL234802  22.228  13.514   9.036
 2640POPC   C1A34803  22.176  13.924   8.567
 2640POPC   D2A34804  22.432  13.847   8.194
 2640POPC   C3A34805  22.205  13.940   7.842
 2640POPC   C4A34806  21.812  13.754   7.720
 2640POPC   C1B34807  21.941  13.320   8.793
 2640POPC   C2B34808  21.994  13.473   8.399
 2640POPC   C3B34809  22.034  13.409   7.986
 2640POPC   C4B34810  22.252  13.488   7.617
 2641POPC   NC334811   7.572  15.365   9.762
 2641POPC   PO434812   6.932  15.365   9.559
 2641POPC   GL134813   7.235  15.547   9.250
 2641POPC   GL234814   7.585  15.433   9.252
 2641POPC   C1A34815   7.211  15.482   8.804
 2641POPC   D2A34816   7.112  15.112   8.534
 2641POPC   C3A34817   7.090  15.261   8.108
 2641POPC   C4A34818   7.385  15.303   7.779
 2641POPC   C1B34819   7.600  15.161   8.877
 2641POPC   C2B34820   7.599  15.308   8.441
 2641POPC   C3B34821   7.798  15.222   8.056
 2641POPC   C4B34822   7.688  14.893   7.749
 2642POPC   NC334823  24.034  29.877   9.349
 2642POPC   PO434824  23.417  30.127   9.543
 2642POPC   GL134825  23.545  29.923   9.162
 2642POPC   GL234826  23.637  29.585   9.174
 2642POPC   C1A34827  23.777  30.010   8.779
 2642POPC   D2A34828  23.581  29.918   8.407
 2642POPC   C3A34829  23.800  29.950   8.024
 2642POPC   C4A34830  23.601  29.890   7.635
 2642POPC   C1B34831  23.754  29.502   8.747
 2642POPC   C2B34832  23.892  29.519   8.287
 2642POPC   C3B34833  23.818  29.464   7.811
 2642POPC   C4B34834  23.847  29.581   7.321
 2643POPC   NC334835  23.404  10.401   9.551
 2643POPC   PO434836  23.971  10.793   9.547
 2643POPC   GL134837  23.699  10.736   9.194
 2643POPC   GL234838  23.688  10.401   9.142
 2643POPC   C1A34839  23.667  10.855   8.759
 2643POPC   D2A34840  23.822  10.672   8.344
 2643POPC   C3A34841  23.761  10.802   7.907
 2643POPC   C4A34842  23.931  10.496   7.610
 2643POPC   C1B34843  23.755  10.345   8.733
 2643POPC   C2B34844  23.544  10.232   8.352
 2643POPC   C3B34845  23.555  10.342   7.943
 2643POPC   C4B34846  23.576  10.148   7.553
 2644POPC   NC334847  23.117  38.237   9.391
 2644POPC   PO434848  22.575  38.519   9.391
 2644POPC   GL134849  22.842  38.518   9.067
 2644POPC   GL234850  23.110  38.722   9.217
 2644POPC   C1A34851  22.986  38.279   8.686
 2644POPC   D2A34852  22.822  38.231   8.251
 2644POPC   C3A34853  23.055  38.373   7.916
 2644POPC   C4A34854  22.978  38.480   7.512
 2644POPC   C1B34855  23.158  38.773   8.776
 2644POPC   C2B34856  23.078  38.682   8.351
 2644POPC   C3B34857  23.289  38.815   7.972
 2644POPC   C4B34858  23.387  38.839   7.534
 2645POPC   NC334859  42.329  35.900   9.482
 2645POPC   PO434860  42.444  36.619   9.569
 2645POPC   GL134861  42.173  36.343   9.266
 2645POPC   GL234862  42.421  36.217   9.040
 2645POPC   C1A34863  41.986  36.164   8.838
 2645POPC   D2A34864  42.254  36.100   8.486
 2645POPC   C3A34865  42.055  35.998   8.098
 2645POPC   C4A34866  42.211  36.025   7.709
 2645POPC   C1B34867  42.526  35.803   8.864
 2645POPC   C2B34868  42.680  35.661   8.473
 2645POPC   C3B34869  42.504  35.773   8.079
 2645POPC   C4B34870  42.492  35.610   7.683
 2646POPC   NC334871  26.530  42.312   9.494
 2646POPC   PO434872  27.045  42.626   9.286
 2646POPC   GL134873  26.809  42.402   9.009
 2646POPC   GL234874  26.998  42.086   9.068
 2646POPC   C1A34875  26.482  42.224   8.725
 2646POPC   D2A34876  26.287  42.094   8.315
 2646POPC   C3A34877  26.556  42.259   7.982
 2646POPC   C4A34878  26.783  42.642   7.852
 2646POPC   C1B34879  27.107  42.120   8.614
 2646POPC   C2B34880  27.059  42.286   8.168
 2646POPC   C3B34881  26.969  42.110   7.740
 2646POPC   C4B34882  26.973  41.967   7.265
 2647POPC   NC334883   8.524   5.224   9.513
 2647POPC   PO434884   8.144   4.723   9.444
 2647POPC   GL134885   8.159   5.054   9.165
 2647POPC   GL234886   8.498   4.923   9.088
 2647POPC   C1A34887   7.998   5.348   8.832
 2647POPC   D2A34888   8.124   5.581   8.468
 2647POPC   C3A34889   8.084   5.369   8.065
 2647POPC   C4A34890   8.238   5.471   7.675
 2647POPC   C1B34891   8.308   4.945   8.697
 2647POPC   C2B34892   8.217   4.842   8.303
 2647POPC   C3B34893   8.343   4.969   7.930
 2647POPC   C4B34894   8.018   5.015   7.657
 2648POPC   NC334895   4.182  18.307   9.971
 2648POPC   PO434896   4.453  18.234   9.323
 2648POPC   GL134897   4.113  18.351   9.090
 2648POPC   GL234898   4.210  18.684   9.087
 2648POPC   C1A34899   3.986  18.120   8.747
 2648POPC   D2A34900   4.257  18.005   8.404
 2648POPC   C3A34901   4.102  18.112   8.024
 2648POPC   C4A34902   4.185  17.968   7.664
 2648POPC   C1B34903   4.355  18.477   8.662
 2648POPC   C2B34904   4.362  18.560   8.208
 2648POPC   C3B34905   4.314  18.549   7.750
 2648POPC   C4B34906   4.568  18.719   7.339
 2649POPC   NC334907  13.852  37.533   9.392
 2649POPC   PO434908  14.368  37.689   9.631
 2649POPC   GL134909  14.191  37.774   9.124
 2649POPC   GL234910  14.107  38.086   8.993
 2649POPC   C1A34911  14.163  37.711   8.641
 2649POPC   D2A34912  13.995  37.851   8.216
 2649POPC   C3A34913  14.252  37.724   7.910
 2649POPC   C4A34914  14.597  37.546   7.728
 2649POPC   C1B34915  14.403  38.178   8.675
 2649POPC   C2B34916  14.444  38.182   8.217
 2649POPC   C3B34917  14.632  38.045   7.829
 2649POPC   C4B34918  14.581  38.150   7.395
 2650POPC   NC334919  27.063  25.337   9.357
 2650POPC   PO434920  27.781  25.678   9.436
 2650POPC   GL134921  27.527  25.454   9.151
 2650POPC   GL234922  27.481  25.098   9.240
 2650POPC   C1A34923  27.260  25.471   8.769
 2650POPC   D2A34924  27.173  25.180   8.428
 2650POPC   C3A34925  27.454  25.289   8.105
 2650POPC   C4A34926  27.365  25.631   7.850
 2650POPC   C1B34927  27.530  25.041   8.784
 2650POPC   C2B34928  27.594  24.843   8.364
 2650POPC   C3B34929  27.464  24.809   7.917
 2650POPC   C4B34930  27.615  25.132   7.611
 2651POPC   NC334931  37.091  35.713   9.488
 2651POPC   PO434932  36.915  35.113   9.659
 2651POPC   GL134933  37.019  35.311   9.201
 2651POPC   GL234934  36.802  35.621   9.076
 2651POPC   C1A34935  37.171  35.209   8.792
 2651POPC   D2A34936  37.032  35.360   8.406
 2651POPC   C3A34937  37.204  35.198   8.032
 2651POPC   C4A34938  37.079  35.325   7.650
 2651POPC   C1B34939  36.696  35.684   8.624
 2651POPC   C2B34940  36.631  35.659   8.162
 2651POPC   C3B34941  36.730  35.696   7.723
 2651POPC   C4B34942  36.489  35.807   7.322
 2652POPC   NC334943  44.816  31.901   9.507
 2652POPC   PO434944  44.656  31.303   9.753
 2652POPC   GL134945  44.628  31.494   9.280
 2652POPC   GL234946  44.442  31.732   9.153
 2652POPC   C1A34947  44.661  31.397   8.806
 2652POPC   D2A34948  44.466  31.545   8.414
 2652POPC   C3A34949  44.691  31.529   8.019
 2652POPC   C4A34950  44.567  31.396   7.631
 2652POPC   C1B34951  44.764  31.893   8.818
 2652POPC   C2B34952  44.899  31.839   8.382
 2652POPC   C3B34953  44.834  32.035   7.967
 2652POPC   C4B34954  44.763  31.865   7.531
 2653POPC   NC334955  11.120  12.250   9.706
 2653POPC   PO434956  11.607  11.826   9.547
 2653POPC   GL134957  11.327  12.025   9.261
 2653POPC   GL234958  11.379  12.366   9.239
 2653POPC   C1A34959  11.182  12.065   8.832
 2653POPC   D2A34960  11.314  11.879   8.447
 2653POPC   C3A34961  11.230  12.022   8.049
 2653POPC   C4A34962  11.510  11.866   7.710
 2653POPC   C1B34963  11.554  12.473   8.857
 2653POPC   C2B34964  11.432  12.382   8.461
 2653POPC   C3B34965  11.290  12.529   8.082
 2653POPC   C4B34966  11.350  12.359   7.675
 2654POPC   NC334967  42.330  28.925   9.540
 2654POPC   PO434968  42.492  29.514   9.193
 2654POPC   GL134969  42.270  29.298   8.959
 2654POPC   GL234970  42.149  29.042   9.096
 2654POPC   C1A34971  42.194  29.122   8.562
 2654POPC   D2A34972  42.511  28.982   8.290
 2654POPC   C3A34973  42.567  29.222   7.957
 2654POPC   C4A34974  42.580  29.053   7.570
 2654POPC   C1B34975  41.961  28.754   8.853
 2654POPC   C2B34976  41.890  28.731   8.383
 2654POPC   C3B34977  41.991  29.075   8.063
 2654POPC   C4B34978  42.143  29.320   7.696
 2655POPC   NC334979  26.761  44.893   9.531
 2655POPC   PO434980  26.571  44.278   9.435
 2655POPC   GL134981  26.911  44.543   9.186
 2655POPC   GL234982  26.970  44.913   9.081
 2655POPC   C1A34983  27.002  44.566   8.738
 2655POPC   D2A34984  27.077  44.732   8.340
 2655POPC   C3A34985  26.745  44.729   8.040
 2655POPC   C4A34986  27.030  44.573   7.700
 2655POPC   C1B34987  27.081   0.119   8.681
 2655POPC   C2B34988  27.110   0.241   8.252
 2655POPC   C3B34989  27.033   0.087   7.830
 2655POPC   C4B34990  27.143  45.000   7.407
 2656POPC   NC334991  25.185  25.815   9.453
 2656POPC   PO434992  24.971  26.509   9.420
 2656POPC   GL134993  25.249  26.250   9.137
 2656POPC   GL234994  25.554  26.037   9.178
 2656POPC   C1A34995  25.259  25.936   8.787
 2656POPC   D2A34996  25.353  25.805   8.396
 2656POPC   C3A34997  25.266  25.997   8.019
 2656POPC   C4A34998  25.513  25.838   7.685
 2656POPC   C1B34999  25.642  26.270   8.762
 2656POPC   C2B35000  25.599  26.317   8.266
 2656POPC   C3B35001  25.570  26.362   7.797
 2656POPC   C4B35002  25.619  26.218   7.369
 2657POPC   NC335003  22.665  12.375   9.663
 2657POPC   PO435004  23.001  11.818   9.521
 2657POPC   GL135005  23.018  12.154   9.226
 2657POPC   GL235006  22.640  12.163   9.204
 2657POPC   C1A35007  23.169  12.111   8.794
 2657POPC   D2A35008  22.950  11.955   8.442
 2657POPC   C3A35009  23.096  11.972   8.061
 2657POPC   C4A35010  23.054  12.245   7.752
 2657POPC   C1B35011  22.592  11.975   8.811
 2657POPC   C2B35012  22.429  12.009   8.387
 2657POPC   C3B35013  22.593  12.039   7.984
 2657POPC   C4B35014  22.816  11.807   7.668
 2658POPC   NC335015  31.078  18.500   9.479
 2658POPC   PO435016  31.641  18.503   9.372
 2658POPC   GL135017  31.310  18.361   9.045
 2658POPC   GL235018  31.223  18.021   8.998
 2658POPC   C1A35019  31.364  18.429   8.595
 2658POPC   D2A35020  31.698  18.484   8.272
 2658POPC   C3A35021  31.621  18.455   7.811
 2658POPC   C4A35022  31.700  18.554   7.338
 2658POPC   C1B35023  31.426  17.932   8.641
 2658POPC   C2B35024  31.355  18.073   8.218
 2658POPC   C3B35025  31.350  18.003   7.805
 2658POPC   C4B35026  31.346  18.205   7.431
 2659POPC   NC335027  13.924  35.068   9.293
 2659POPC   PO435028  14.523  34.993   9.322
 2659POPC   GL135029  14.356  35.183   9.002
 2659POPC   GL235030  14.268  35.495   9.114
 2659POPC   C1A35031  14.362  35.188   8.571
 2659POPC   D2A35032  14.084  35.226   8.213
 2659POPC   C3A35033  14.356  35.297   7.887
 2659POPC   C4A35034  14.410  35.323   7.457
 2659POPC   C1B35035  14.225  35.734   8.784
 2659POPC   C2B35036  14.312  35.669   8.368
 2659POPC   C3B35037  14.308  35.785   7.951
 2659POPC   C4B35038  14.022  35.622   7.661
 2660POPC   NC335039  23.907   1.652   9.508
 2660POPC   PO435040  23.517   2.129   9.579
 2660POPC   GL135041  23.485   1.919   9.147
 2660POPC   GL235042  23.684   1.624   9.060
 2660POPC   C1A35043  23.423   2.068   8.707
 2660POPC   D2A35044  23.344   2.153   8.269
 2660POPC   C3A35045  23.599   2.367   7.964
 2660POPC   C4A35046  23.832   2.245   7.618
 2660POPC   C1B35047  23.880   1.839   8.690
 2660POPC   C2B35048  23.863   2.015   8.271
 2660POPC   C3B35049  24.065   1.895   7.885
 2660POPC   C4B35050  24.206   1.942   7.420
 2661POPC   NC335051  14.141  41.875   9.746
 2661POPC   PO435052  14.134  42.607   9.553
 2661POPC   GL135053  14.289  42.392   9.175
 2661POPC   GL235054  14.185  42.069   9.248
 2661POPC   C1A35055  14.336  42.412   8.714
 2661POPC   D2A35056  14.594  42.584   8.392
 2661POPC   C3A35057  14.407  42.519   8.018
 2661POPC   C4A35058  14.168  42.759   7.726
 2661POPC   C1B35059  14.040  41.974   8.828
 2661POPC   C2B35060  14.004  42.110   8.416
 2661POPC   C3B35061  14.116  41.827   8.080
 2661POPC   C4B35062  14.338  42.045   7.820
 2662POPC   NC335063  41.934  18.192   9.505
 2662POPC   PO435064  41.265  18.114   9.356
 2662POPC   GL135065  41.655  18.095   9.103
 2662POPC   GL235066  41.863  18.408   9.052
 2662POPC   C1A35067  41.821  18.031   8.684
 2662POPC   D2A35068  41.541  18.097   8.346
 2662POPC   C3A35069  41.700  18.227   7.991
 2662POPC   C4A35070  41.903  18.133   7.622
 2662POPC   C1B35071  41.485  18.410   8.742
 2662POPC   C2B35072  41.291  18.545   8.357
 2662POPC   C3B35073  41.401  18.678   7.954
 2662POPC   C4B35074  41.690  18.616   7.629
 2663POPC   NC335075  11.692   3.901   9.427
 2663POPC   PO435076  11.194   3.451   9.465
 2663POPC   GL135077  11.209   3.702   9.122
 2663POPC   GL235078  11.538   3.592   9.060
 2663POPC   C1A35079  11.132   3.668   8.671
 2663POPC   D2A35080  11.068   3.378   8.337
 2663POPC   C3A35081  11.371   3.476   8.006
 2663POPC   C4A35082  11.021   3.626   7.798
 2663POPC   C1B35083  11.550   3.932   8.782
 2663POPC   C2B35084  11.662   3.786   8.389
 2663POPC   C3B35085  11.739   3.916   7.980
 2663POPC   C4B35086  11.387   3.975   7.780
 2664POPC   NC335087  34.541  36.987   9.351
 2664POPC   PO435088  35.000  36.520   9.588
 2664POPC   GL135089  34.976  36.713   9.142
 2664POPC   GL235090  34.819  37.058   8.959
 2664POPC   C1A35091  34.750  36.624   8.765
 2664POPC   D2A35092  34.637  36.977   8.482
 2664POPC   C3A35093  34.660  36.782   8.104
 2664POPC   C4A35094  34.711  36.425   7.845
 2664POPC   C1B35095  34.459  37.366   8.857
 2664POPC   C2B35096  34.380  37.480   8.462
 2664POPC   C3B35097  34.442  37.298   8.082
 2664POPC   C4B35098  34.421  37.031   7.748
 2665POPC   NC335099  22.393   2.647   9.430
 2665POPC   PO435100  23.092   2.792   9.406
 2665POPC   GL135101  23.095   2.782   9.008
 2665POPC   GL235102  22.735   2.707   9.016
 2665POPC   C1A35103  23.161   2.522   8.638
 2665POPC   D2A35104  22.923   2.420   8.290
 2665POPC   C3A35105  23.098   2.442   7.889
 2665POPC   C4A35106  23.192   2.843   7.816
 2665POPC   C1B35107  22.785   2.908   8.614
 2665POPC   C2B35108  22.894   3.096   8.240
 2665POPC   C3B35109  22.700   2.937   7.919
 2665POPC   C4B35110  22.684   2.631   7.663
 2666POPC   NC335111   3.911  32.438   9.519
 2666POPC   PO435112   3.322  32.325   9.358
 2666POPC   GL135113   3.643  32.363   9.066
 2666POPC   GL235114   3.873  32.677   9.063
 2666POPC   C1A35115   3.483  32.187   8.706
 2666POPC   D2A35116   3.558  31.863   8.434
 2666POPC   C3A35117   3.450  31.967   8.005
 2666POPC   C4A35118   3.661  31.959   7.593
 2666POPC   C1B35119   3.953  32.420   8.662
 2666POPC   C2B35120   3.729  32.336   8.281
 2666POPC   C3B35121   3.793  32.383   7.854
 2666POPC   C4B35122   3.666  32.430   7.411
 2667POPC   NC335123  33.839  11.479   9.558
 2667POPC   PO435124  33.359  11.103   9.330
 2667POPC   GL135125  33.683  11.279   9.113
 2667POPC   GL235126  33.631  11.630   9.116
 2667POPC   C1A35127  33.988  11.361   8.775
 2667POPC   D2A35128  34.030  11.136   8.377
 2667POPC   C3A35129  34.020  11.361   7.983
 2667POPC   C4A35130  33.930  11.228   7.542
 2667POPC   C1B35131  33.495  11.571   8.719
 2667POPC   C2B35132  33.659  11.485   8.331
 2667POPC   C3B35133  33.494  11.454   7.927
 2667POPC   C4B35134  33.334  11.587   7.512
 2668POPC   NC335135  18.798  30.219   9.463
 2668POPC   PO435136  19.379  30.142   9.673
 2668POPC   GL135137  19.209  30.116   9.193
 2668POPC   GL235138  19.112  30.402   9.056
 2668POPC   C1A35139  18.945  29.937   8.839
 2668POPC   D2A35140  18.806  29.641   8.476
 2668POPC   C3A35141  18.973  29.655   8.072
 2668POPC   C4A35142  18.912  29.840   7.676
 2668POPC   C1B35143  19.333  30.239   8.697
 2668POPC   C2B35144  19.171  30.022   8.381
 2668POPC   C3B35145  19.007  30.179   8.037
 2668POPC   C4B35146  19.242  30.218   7.667
 2669POPC   NC335147  25.563  30.368   9.319
 2669POPC   PO435148  25.155  29.871   9.469
 2669POPC   GL135149  25.331  29.926   9.131
 2669POPC   GL235150  25.656  29.801   9.271
 2669POPC   C1A35151  25.143  29.789   8.748
 2669POPC   D2A35152  25.113  29.985   8.368
 2669POPC   C3A35153  25.101  29.776   7.995
 2669POPC   C4A35154  25.057  30.087   7.664
 2669POPC   C1B35155  25.640  29.692   8.830
 2669POPC   C2B35156  25.516  29.650   8.403
 2669POPC   C3B35157  25.573  29.958   8.073
 2669POPC   C4B35158  25.511  29.852   7.673
 2670POPC   NC335159  42.277   3.121   9.462
 2670POPC   PO435160  42.555   3.793   9.470
 2670POPC   GL135161  42.559   3.747   9.054
 2670POPC   GL235162  42.268   3.519   9.109
 2670POPC   C1A35163  42.586   3.551   8.638
 2670POPC   D2A35164  42.789   3.362   8.254
 2670POPC   C3A35165  42.705   3.690   7.960
 2670POPC   C4A35166  42.400   3.932   7.798
 2670POPC   C1B35167  42.112   3.347   8.730
 2670POPC   C2B35168  42.152   3.408   8.280
 2670POPC   C3B35169  42.122   3.525   7.832
 2670POPC   C4B35170  41.986   3.368   7.406
 2671POPC   NC335171  43.595  15.618   9.504
 2671POPC   PO435172  43.953  14.959   9.486
 2671POPC   GL135173  44.048  15.179   9.080
 2671POPC   GL235174  43.811  15.409   9.085
 2671POPC   C1A35175  43.997  15.300   8.628
 2671POPC   D2A35176  43.727  15.284   8.296
 2671POPC   C3A35177  43.983  15.322   7.946
 2671POPC   C4A35178  44.117  14.972   7.733
 2671POPC   C1B35179  43.623  15.620   8.704
 2671POPC   C2B35180  43.447  15.724   8.299
 2671POPC   C3B35181  43.570  15.608   7.830
 2671POPC   C4B35182  43.439  15.563   7.346
 2672POPC   NC335183  23.196   1.780   9.566
 2672POPC   PO435184  22.660   1.832   9.215
 2672POPC   GL135185  22.986   1.918   8.968
 2672POPC   GL235186  23.069   2.259   9.071
 2672POPC   C1A35187  22.965   1.889   8.518
 2672POPC   D2A35188  22.802   1.751   8.110
 2672POPC   C3A35189  23.087   1.923   7.869
 2672POPC   C4A35190  23.538   1.867   7.883
 2672POPC   C1B35191  22.705   2.284   8.739
 2672POPC   C2B35192  22.524   2.100   8.356
 2672POPC   C3B35193  22.631   2.212   7.934
 2672POPC   C4B35194  22.792   2.134   7.493
 2673POPC   NC335195  41.476  19.269   9.588
 2673POPC   PO435196  41.983  18.730   9.506
 2673POPC   GL135197  41.675  18.948   9.256
 2673POPC   GL235198  41.510  18.790   9.043
 2673POPC   C1A35199  41.639  19.251   8.877
 2673POPC   D2A35200  41.852  19.279   8.471
 2673POPC   C3A35201  41.813  18.981   8.128
 2673POPC   C4A35202  41.666  19.102   7.727
 2673POPC   C1B35203  41.266  18.925   8.698
 2673POPC   C2B35204  41.353  19.092   8.314
 2673POPC   C3B35205  41.175  19.139   7.909
 2673POPC   C4B35206  41.233  18.929   7.498
 2674POPC   NC335207  42.826   3.442   9.354
 2674POPC   PO435208  43.279   3.850   9.417
 2674POPC   GL135209  43.396   3.643   9.068
 2674POPC   GL235210  43.298   3.275   9.136
 2674POPC   C1A35211  43.346   3.849   8.663
 2674POPC   D2A35212  43.010   3.809   8.370
 2674POPC   C3A35213  43.223   3.645   8.010
 2674POPC   C4A35214  43.570   3.892   7.835
 2674POPC   C1B35215  43.076   3.426   8.751
 2674POPC   C2B35216  43.298   3.315   8.409
 2674POPC   C3B35217  43.253   3.144   8.022
 2674POPC   C4B35218  42.948   3.318   7.707
 2675POPC   NC335219  34.499  43.059   9.557
 2675POPC   PO435220  35.085  42.735   9.754
 2675POPC   GL135221  34.874  42.994   9.255
 2675POPC   GL235222  34.917  43.294   9.133
 2675POPC   C1A35223  34.810  42.850   8.789
 2675POPC   D2A35224  34.949  42.786   8.364
 2675POPC   C3A35225  34.680  42.799   8.020
 2675POPC   C4A35226  34.713  42.933   7.569
 2675POPC   C1B35227  34.572  43.300   8.812
 2675POPC   C2B35228  34.637  43.214   8.367
 2675POPC   C3B35229  34.533  43.287   7.931
 2675POPC   C4B35230  34.875  43.423   7.699
 2676POPC   NC335231   7.169  35.149   9.474
 2676POPC   PO435232   7.559  35.660   9.517
 2676POPC   GL135233   7.438  35.465   9.155
 2676POPC   GL235234   7.091  35.545   9.088
 2676POPC   C1A35235   7.512  35.229   8.773
 2676POPC   D2A35236   7.582  35.059   8.347
 2676POPC   C3A35237   7.268  35.163   8.035
 2676POPC   C4A35238   7.290  35.313   7.581
 2676POPC   C1B35239   7.288  35.720   8.742
 2676POPC   C2B35240   7.378  35.542   8.370
 2676POPC   C3B35241   7.326  35.670   7.977
 2676POPC   C4B35242   7.514  35.794   7.632
 2677POPC   NC335243   7.590  23.389   9.291
 2677POPC   PO435244   7.967  23.933   9.430
 2677POPC   GL135245   7.532  23.983   9.163
 2677POPC   GL235246   7.376  23.682   8.959
 2677POPC   C1A35247   7.367  24.129   8.736
 2677POPC   D2A35248   7.469  23.823   8.396
 2677POPC   C3A35249   7.563  23.975   7.988
 2677POPC   C4A35250   7.272  24.113   7.720
 2677POPC   C1B35251   7.252  23.342   8.667
 2677POPC   C2B35252   7.395  23.338   8.238
 2677POPC   C3B35253   7.392  23.516   7.824
 2677POPC   C4B35254   7.194  23.403   7.424
 2678POPC   NC335255  32.820   3.067   9.391
 2678POPC   PO435256  33.121   2.476   9.436
 2678POPC   GL135257  33.174   2.596   9.080
 2678POPC   GL235258  33.273   2.927   9.091
 2678POPC   C1A35259  32.954   2.429   8.739
 2678POPC   D2A35260  32.860   2.641   8.339
 2678POPC   C3A35261  32.880   2.448   7.956
 2678POPC   C4A35262  33.093   2.475   7.581
 2678POPC   C1B35263  33.231   2.838   8.649
 2678POPC   C2B35264  33.247   2.979   8.251
 2678POPC   C3B35265  33.290   2.918   7.812
 2678POPC   C4B35266  33.609   2.928   7.560
 2679POPC   NC335267  40.862  17.879   9.499
 2679POPC   PO435268  41.159  17.150   9.530
 2679POPC   GL135269  40.831  17.433   9.237
 2679POPC   GL235270  40.944  17.762   9.025
 2679POPC   C1A35271  40.510  17.550   8.891
 2679POPC   D2A35272  40.639  17.793   8.567
 2679POPC   C3A35273  40.522  17.726   8.139
 2679POPC   C4A35274  40.662  17.688   7.703
 2679POPC   C1B35275  41.049  17.434   8.754
 2679POPC   C2B35276  40.940  17.385   8.338
 2679POPC   C3B35277  41.116  17.207   7.970
 2679POPC   C4B35278  41.348  17.100   7.593
 2680POPC   NC335279   6.264  35.076   9.379
 2680POPC   PO435280   6.820  35.517   9.504
 2680POPC   GL135281   6.558  35.432   9.148
 2680POPC   GL235282   6.337  35.681   9.015
 2680POPC   C1A35283   6.552  35.217   8.754
 2680POPC   D2A35284   6.717  35.088   8.335
 2680POPC   C3A35285   6.479  35.228   7.999
 2680POPC   C4A35286   6.433  35.229   7.542
 2680POPC   C1B35287   6.720  35.754   8.771
 2680POPC   C2B35288   6.861  35.599   8.369
 2680POPC   C3B35289   6.854  35.799   7.967
 2680POPC   C4B35290   6.836  35.489   7.704
 2681POPC   NC335291  41.907  11.767   9.405
 2681POPC   PO435292  41.338  12.255   9.514
 2681POPC   GL135293  41.546  12.076   9.161
 2681POPC   GL235294  41.188  12.022   9.044
 2681POPC   C1A35295  41.825  12.071   8.768
 2681POPC   D2A35296  42.003  12.216   8.359
 2681POPC   C3A35297  41.822  12.025   8.031
 2681POPC   C4A35298  41.587  12.089   7.683
 2681POPC   C1B35299  41.375  12.337   8.762
 2681POPC   C2B35300  41.486  12.184   8.379
 2681POPC   C3B35301  41.234  12.126   8.025
 2681POPC   C4B35302  41.216  12.449   7.700
 2682POPC   NC335303  18.130  29.908   9.539
 2682POPC   PO435304  18.753  29.744   9.461
 2682POPC   GL135305  18.465  29.974   9.149
 2682POPC   GL235306  18.084  29.983   9.056
 2682POPC   C1A35307  18.447  29.902   8.728
 2682POPC   D2A35308  18.647  30.132   8.433
 2682POPC   C3A35309  18.525  29.936   8.059
 2682POPC   C4A35310  18.483  30.097   7.657
 2682POPC   C1B35311  17.949  29.890   8.633
 2682POPC   C2B35312  18.045  29.616   8.320
 2682POPC   C3B35313  18.044  29.720   7.916
 2682POPC   C4B35314  17.973  30.146   7.804
 2683POPC   NC335315  13.855   6.418   9.521
 2683POPC   PO435316  13.402   6.998   9.417
 2683POPC   GL135317  13.597   6.716   9.204
 2683POPC   GL235318  13.930   6.886   9.309
 2683POPC   C1A35319  13.573   6.506   8.811
 2683POPC   D2A35320  13.554   6.340   8.395
 2683POPC   C3A35321  13.541   6.554   8.025
 2683POPC   C4A35322  13.574   6.480   7.555
 2683POPC   C1B35323  13.929   6.879   8.875
 2683POPC   C2B35324  14.030   6.769   8.495
 2683POPC   C3B35325  13.947   6.920   8.120
 2683POPC   C4B35326  13.701   6.940   7.766
 2684POPC   NC335327  18.834   0.852   9.420
 2684POPC   PO435328  19.011   0.171   9.513
 2684POPC   GL135329  18.903   0.244   9.062
 2684POPC   GL235330  18.709   0.563   8.992
 2684POPC   C1A35331  18.850   0.255   8.583
 2684POPC   D2A35332  19.072   0.069   8.253
 2684POPC   C3A35333  19.138   0.379   7.918
 2684POPC   C4A35334  19.171   0.484   7.462
 2684POPC   C1B35335  19.005   0.764   8.740
 2684POPC   C2B35336  19.209   0.668   8.366
 2684POPC   C3B35337  19.344   0.869   8.009
 2684POPC   C4B35338  19.563   0.633   7.743
 2685POPC   NC335339  19.301  36.610   9.540
 2685POPC   PO435340  18.847  36.114   9.801
 2685POPC   GL135341  19.006  36.186   9.360
 2685POPC   GL235342  18.894  36.471   9.214
 2685POPC   C1A35343  19.044  36.049   8.905
 2685POPC   D2A35344  18.898  36.093   8.472
 2685POPC   C3A35345  19.153  36.103   8.085
 2685POPC   C4A35346  18.923  36.027   7.721
 2685POPC   C1B35347  18.679  36.422   8.836
 2685POPC   C2B35348  18.558  36.478   8.416
 2685POPC   C3B35349  18.751  36.422   8.028
 2685POPC   C4B35350  18.589  36.395   7.633
 2686POPC   NC335351  13.260  34.352   9.508
 2686POPC   PO435352  12.571  34.421   9.483
 2686POPC   GL135353  12.874  34.444   9.167
 2686POPC   GL235354  13.192  34.643   9.110
 2686POPC   C1A35355  12.836  34.590   8.757
 2686POPC   D2A35356  12.609  34.660   8.438
 2686POPC   C3A35357  12.804  34.816   8.105
 2686POPC   C4A35358  12.879  34.547   7.763
 2686POPC   C1B35359  13.187  34.224   8.847
 2686POPC   C2B35360  13.091  34.276   8.433
 2686POPC   C3B35361  13.162  34.093   8.047
 2686POPC   C4B35362  13.270  34.219   7.648
 2687POPC   NC335363  41.585  20.166   9.485
 2687POPC   PO435364  41.756  20.735   9.745
 2687POPC   GL135365  41.627  20.637   9.273
 2687POPC   GL235366  41.860  20.438   9.128
 2687POPC   C1A35367  41.603  20.746   8.796
 2687POPC   D2A35368  41.828  20.680   8.376
 2687POPC   C3A35369  41.694  20.877   7.976
 2687POPC   C4A35370  41.453  20.958   7.595
 2687POPC   C1B35371  41.777  20.279   8.716
 2687POPC   C2B35372  41.604  20.208   8.328
 2687POPC   C3B35373  41.713  20.363   7.954
 2687POPC   C4B35374  42.052  20.224   7.735
 2688POPC   NC335375   9.791  43.164   9.748
 2688POPC   PO435376  10.054  42.870   9.245
 2688POPC   GL135377   9.761  43.112   9.059
 2688POPC   GL235378   9.906  42.915   8.765
 2688POPC   C1A35379   9.664  43.336   8.680
 2688POPC   D2A35380   9.636  43.125   8.291
 2688POPC   C3A35381   9.910  42.934   8.004
 2688POPC   C4A35382   9.804  43.215   7.706
 2688POPC   C1B35383   9.465  42.864   8.720
 2688POPC   C2B35384   9.247  42.817   8.307
 2688POPC   C3B35385   9.394  42.914   7.864
 2688POPC   C4B35386   9.680  42.745   7.522
 2689POPC   NC335387   5.141  24.140   9.495
 2689POPC   PO435388   5.594  23.654   9.532
 2689POPC   GL135389   5.222  23.688   9.238
 2689POPC   GL235390   5.008  23.406   9.119
 2689POPC   C1A35391   5.047  23.856   8.853
 2689POPC   D2A35392   5.231  23.880   8.442
 2689POPC   C3A35393   5.012  23.855   8.075
 2689POPC   C4A35394   5.099  23.937   7.634
 2689POPC   C1B35395   4.738  23.441   8.715
 2689POPC   C2B35396   4.665  23.508   8.255
 2689POPC   C3B35397   4.831  23.442   7.822
 2689POPC   C4B35398   5.030  23.450   7.407
 2690POPC   NC335399  23.850   3.402   9.869
 2690POPC   PO435400  23.359   3.698   9.529
 2690POPC   GL135401  23.572   3.615   9.162
 2690POPC   GL235402  23.901   3.449   9.237
 2690POPC   C1A35403  23.472   3.709   8.724
 2690POPC   D2A35404  23.847   3.752   8.463
 2690POPC   C3A35405  23.744   3.668   8.050
 2690POPC   C4A35406  23.481   3.606   7.691
 2690POPC   C1B35407  23.810   3.321   8.782
 2690POPC   C2B35408  23.983   3.263   8.327
 2690POPC   C3B35409  23.957   3.268   7.860
 2690POPC   C4B35410  24.032   3.271   7.424
 2691POPC   NC335411  32.869  13.453   9.586
 2691POPC   PO435412  32.767  13.955   9.164
 2691POPC   GL135413  32.878  13.546   9.082
 2691POPC   GL235414  33.231  13.514   9.228
 2691POPC   C1A35415  32.820  13.485   8.644
 2691POPC   D2A35416  32.735  13.852   8.391
 2691POPC   C3A35417  32.958  13.750   8.031
 2691POPC   C4A35418  32.924  13.810   7.603
 2691POPC   C1B35419  33.246  13.278   8.868
 2691POPC   C2B35420  33.324  13.236   8.439
 2691POPC   C3B35421  33.141  13.258   8.025
 2691POPC   C4B35422  32.765  13.343   7.772
 2692POPC   NC335423  15.142  44.039   9.610
 2692POPC   PO435424  15.488  43.666   9.264
 2692POPC   GL135425  15.197  43.862   9.047
 2692POPC   GL235426  15.183  44.153   9.129
 2692POPC   C1A35427  15.252  43.936   8.635
 2692POPC   D2A35428  15.415  43.823   8.262
 2692POPC   C3A35429  15.070  43.893   7.973
 2692POPC   C4A35430  14.914  43.874   7.560
 2692POPC   C1B35431  15.552  44.248   8.896
 2692POPC   C2B35432  15.551  44.316   8.449
 2692POPC   C3B35433  15.404  44.268   8.021
 2692POPC   C4B35434  15.410  44.044   7.619
 2693POPC   NC335435  16.438   9.156   9.901
 2693POPC   PO435436  15.889   8.907   9.514
 2693POPC   GL135437  15.892   9.095   9.115
 2693POPC   GL235438  16.270   9.065   9.166
 2693POPC   C1A35439  15.741   9.194   8.687
 2693POPC   D2A35440  15.959   9.142   8.318
 2693POPC   C3A35441  15.878   8.931   7.932
 2693POPC   C4A35442  15.811   8.829   7.479
 2693POPC   C1B35443  16.299   9.008   8.721
 2693POPC   C2B35444  16.441   9.250   8.359
 2693POPC   C3B35445  16.480   9.110   7.943
 2693POPC   C4B35446  16.242   9.049   7.600
 2694POPC   NC335447  10.603  11.411   9.878
 2694POPC   PO435448  10.896  11.166   9.303
 2694POPC   GL135449  10.475  11.274   9.148
 2694POPC   GL235450  10.288  10.960   9.021
 2694POPC   C1A35451  10.458  11.390   8.747
 2694POPC   D2A35452  10.670  11.209   8.419
 2694POPC   C3A35453  10.513  11.442   8.108
 2694POPC   C4A35454  10.647  11.594   7.713
 2694POPC   C1B35455  10.213  10.963   8.563
 2694POPC   C2B35456  10.368  10.912   8.143
 2694POPC   C3B35457  10.369  10.730   7.754
 2694POPC   C4B35458  10.287  10.906   7.347
 2695POPC   NC335459  24.777  34.087   9.370
 2695POPC   PO435460  24.218  33.816   9.583
 2695POPC   GL135461  24.394  33.784   9.189
 2695POPC   GL235462  24.299  34.149   9.186
 2695POPC   C1A35463  24.583  33.712   8.766
 2695POPC   D2A35464  24.810  33.630   8.363
 2695POPC   C3A35465  24.534  33.505   8.010
 2695POPC   C4A35466  24.214  33.337   7.744
 2695POPC   C1B35467  24.152  34.018   8.811
 2695POPC   C2B35468  24.270  34.199   8.456
 2695POPC   C3B35469  24.381  33.976   8.140
 2695POPC   C4B35470  24.426  34.114   7.783
 2696POPC   NC335471  41.374  30.181   9.532
 2696POPC   PO435472  41.671  30.769   9.507
 2696POPC   GL135473  41.535  30.697   9.120
 2696POPC   GL235474  41.398  30.391   9.072
 2696POPC   C1A35475  41.652  30.776   8.723
 2696POPC   D2A35476  41.896  31.008   8.466
 2696POPC   C3A35477  41.615  30.987   8.134
 2696POPC   C4A35478  41.558  30.735   7.764
 2696POPC   C1B35479  41.333  30.372   8.648
 2696POPC   C2B35480  41.385  30.468   8.201
 2696POPC   C3B35481  41.258  30.313   7.787
 2696POPC   C4B35482  41.359  30.237   7.323
 2697POPC   NC335483  28.088   0.876   9.521
 2697POPC   PO435484  28.579   1.303   9.429
 2697POPC   GL135485  28.466   1.260   9.071
 2697POPC   GL235486  28.105   1.309   9.149
 2697POPC   C1A35487  28.668   1.129   8.694
 2697POPC   D2A35488  28.785   1.311   8.340
 2697POPC   C3A35489  28.586   1.140   7.990
 2697POPC   C4A35490  28.254   1.395   7.910
 2697POPC   C1B35491  28.151   1.445   8.720
 2697POPC   C2B35492  28.230   1.159   8.392
 2697POPC   C3B35493  28.157   0.859   8.081
 2697POPC   C4B35494  28.194   0.932   7.681
 2698POPC   NC335495   5.458   6.351   9.385
 2698POPC   PO435496   4.992   6.735   9.701
 2698POPC   GL135497   5.059   6.629   9.208
 2698POPC   GL235498   4.799   6.805   9.073
 2698POPC   C1A35499   5.129   6.485   8.785
 2698POPC   D2A35500   4.873   6.443   8.414
 2698POPC   C3A35501   5.059   6.724   8.137
 2698POPC   C4A35502   5.454   6.685   7.935
 2698POPC   C1B35503   5.027   7.006   8.720
 2698POPC   C2B35504   4.945   7.194   8.321
 2698POPC   C3B35505   4.727   7.049   7.938
 2698POPC   C4B35506   4.738   6.607   7.755
 2699POPC   NC335507  26.327   8.944   9.941
 2699POPC   PO435508  26.009   9.526   9.747
 2699POPC   GL135509  26.019   9.234   9.313
 2699POPC   GL235510  26.153   9.373   8.982
 2699POPC   C1A35511  25.882   8.931   8.937
 2699POPC   D2A35512  26.120   8.794   8.541
 2699POPC   C3A35513  25.990   8.674   8.126
 2699POPC   C4A35514  26.014   8.927   7.722
 2699POPC   C1B35515  25.930   9.292   8.585
 2699POPC   C2B35516  25.945   9.167   8.180
 2699POPC   C3B35517  25.764   9.344   7.813
 2699POPC   C4B35518  25.963   9.363   7.413
 2700POPC   NC335519  39.854   5.086   9.684
 2700POPC   PO435520  40.288   5.536   9.541
 2700POPC   GL135521  40.217   5.126   9.309
 2700POPC   GL235522  40.232   5.343   9.034
 2700POPC   C1A35523  39.996   4.916   8.917
 2700POPC   D2A35524  40.020   5.043   8.445
 2700POPC   C3A35525  39.912   4.923   8.010
 2700POPC   C4A35526  39.762   5.176   7.630
 2700POPC   C1B35527  40.427   5.260   8.652
 2700POPC   C2B35528  40.374   5.423   8.256
 2700POPC   C3B35529  40.119   5.451   7.890
 2700POPC   C4B35530  40.209   5.491   7.444
 2701POPC   NC335531  22.416  30.839   9.610
 2701POPC   PO435532  22.109  30.370   9.238
 2701POPC   GL135533  22.210  30.778   9.035
 2701POPC   GL235534  22.319  31.136   9.179
 2701POPC   C1A35535  22.076  30.645   8.653
 2701POPC   D2A35536  21.952  30.350   8.364
 2701POPC   C3A35537  22.175  30.446   8.008
 2701POPC   C4A35538  22.077  30.580   7.576
 2701POPC   C1B35539  22.520  31.123   8.774
 2701POPC   C2B35540  22.368  30.952   8.380
 2701POPC   C3B35541  22.187  30.980   7.988
 2701POPC   C4B35542  22.364  31.006   7.614
 2702POPC   NC335543  19.919  23.270   9.216
 2702POPC   PO435544  19.634  22.723   9.548
 2702POPC   GL135545  19.683  22.832   9.140
 2702POPC   GL235546  19.983  22.746   9.129
 2702POPC   C1A35547  19.584  22.984   8.716
 2702POPC   D2A35548  19.529  22.768   8.301
 2702POPC   C3A35549  19.537  23.000   7.889
 2702POPC   C4A35550  19.655  23.224   7.473
 2702POPC   C1B35551  20.014  22.712   8.714
 2702POPC   C2B35552  20.191  22.874   8.362
 2702POPC   C3B35553  19.974  22.796   8.043
 2702POPC   C4B35554  19.958  22.839   7.611
 2703POPC   NC335555   1.659  38.383   9.531
 2703POPC   PO435556   2.332  38.455   9.314
 2703POPC   GL135557   1.987  38.393   9.123
 2703POPC   GL235558   1.847  38.734   9.197
 2703POPC   C1A35559   1.992  38.344   8.683
 2703POPC   D2A35560   1.883  38.473   8.303
 2703POPC   C3A35561   1.905  38.135   8.077
 2703POPC   C4A35562   2.223  38.128   7.795
 2703POPC   C1B35563   1.596  38.620   8.834
 2703POPC   C2B35564   1.476  38.732   8.411
 2703POPC   C3B35565   1.649  38.850   8.025
 2703POPC   C4B35566   1.857  38.560   7.791
 2704POPC   NC335567  21.627   6.180   9.639
 2704POPC   PO435568  21.392   5.553   9.584
 2704POPC   GL135569  21.260   5.941   9.301
 2704POPC   GL235570  21.593   5.999   9.183
 2704POPC   C1A35571  21.236   6.090   8.826
 2704POPC   D2A35572  21.125   5.970   8.384
 2704POPC   C3A35573  21.284   6.230   7.997
 2704POPC   C4A35574  21.282   6.207   7.526
 2704POPC   C1B35575  21.495   5.650   8.931
 2704POPC   C2B35576  21.506   5.579   8.509
 2704POPC   C3B35577  21.502   5.764   8.108
 2704POPC   C4B35578  21.670   5.965   7.756
 2705POPC   NC335579  24.268  44.403   9.506
 2705POPC   PO435580  24.542   0.109   9.546
 2705POPC   GL135581  24.383  44.844   9.214
 2705POPC   GL235582  24.617  44.561   9.158
 2705POPC   C1A35583  24.185  44.774   8.799
 2705POPC   D2A35584  23.974  44.928   8.416
 2705POPC   C3A35585  24.162  44.780   8.079
 2705POPC   C4A35586  24.249  44.875   7.703
 2705POPC   C1B35587  24.581  44.410   8.732
 2705POPC   C2B35588  24.578  44.562   8.322
 2705POPC   C3B35589  24.744  44.564   7.922
 2705POPC   C4B35590  24.877  44.186   7.749
 2706POPC   NC335591  37.149  22.855   9.447
 2706POPC   PO435592  36.439  23.089   9.455
 2706POPC   GL135593  36.774  22.974   9.104
 2706POPC   GL235594  36.984  22.627   9.032
 2706POPC   C1A35595  36.807  22.962   8.649
 2706POPC   D2A35596  36.603  22.754   8.319
 2706POPC   C3A35597  36.659  22.812   7.882
 2706POPC   C4A35598  36.803  22.955   7.465
 2706POPC   C1B35599  37.283  22.764   8.702
 2706POPC   C2B35600  37.167  22.861   8.266
 2706POPC   C3B35601  37.154  22.877   7.819
 2706POPC   C4B35602  37.314  22.681   7.445
 2707POPC   NC335603  20.467  21.832   9.383
 2707POPC   PO435604  20.900  22.313   9.536
 2707POPC   GL135605  20.803  22.182   9.153
 2707POPC   GL235606  20.937  21.931   9.060
 2707POPC   C1A35607  20.949  22.312   8.758
 2707POPC   D2A35608  20.821  22.378   8.391
 2707POPC   C3A35609  20.722  22.092   8.101
 2707POPC   C4A35610  20.685  22.255   7.702
 2707POPC   C1B35611  20.552  21.969   8.728
 2707POPC   C2B35612  20.288  21.845   8.326
 2707POPC   C3B35613  20.307  21.899   7.844
 2707POPC   C4B35614  20.338  21.657   7.459
 2708POPC   NC335615  16.137  44.096   9.530
 2708POPC   PO435616  16.140  43.471   9.686
 2708POPC   GL135617  16.012  43.612   9.208
 2708POPC   GL235618  15.936  43.963   9.095
 2708POPC   C1A35619  15.868  43.649   8.717
 2708POPC   D2A35620  16.087  43.778   8.339
 2708POPC   C3A35621  15.858  44.034   8.110
 2708POPC   C4A35622  15.878  43.862   7.744
 2708POPC   C1B35623  16.002  44.147   8.670
 2708POPC   C2B35624  16.234  44.308   8.317
 2708POPC   C3B35625  16.221  44.291   7.852
 2708POPC   C4B35626  16.088  44.153   7.392
 2709POPC   NC335627  35.105   7.414   9.531
 2709POPC   PO435628  35.773   7.409   9.744
 2709POPC   GL135629  35.557   7.405   9.309
 2709POPC   GL235630  35.352   7.705   9.207
 2709POPC   C1A35631  35.509   7.304   8.880
 2709POPC   D2A35632  35.515   7.073   8.496
 2709POPC   C3A35633  35.449   7.302   8.103
 2709POPC   C4A35634  35.428   7.495   7.696
 2709POPC   C1B35635  35.083   7.616   8.865
 2709POPC   C2B35636  34.930   7.797   8.473
 2709POPC   C3B35637  34.990   7.729   8.038
 2709POPC   C4B35638  34.959   7.618   7.607
 2710POPC   NC335639  23.836  28.079   9.506
 2710POPC   PO435640  23.393  28.485   9.400
 2710POPC   GL135641  23.575  28.224   9.072
 2710POPC   GL235642  23.907  28.354   9.084
 2710POPC   C1A35643  23.734  28.273   8.618
 2710POPC   D2A35644  23.864  28.607   8.344
 2710POPC   C3A35645  23.686  28.577   7.968
 2710POPC   C4A35646  23.554  28.144   7.949
 2710POPC   C1B35647  24.242  28.155   8.884
 2710POPC   C2B35648  24.274  28.228   8.461
 2710POPC   C3B35649  24.083  28.250   8.064
 2710POPC   C4B35650  24.146  28.541   7.732
 2711POPC   NC335651  25.185  28.803   9.570
 2711POPC   PO435652  24.997  28.182   9.494
 2711POPC   GL135653  25.267  28.460   9.176
 2711POPC   GL235654  25.618  28.326   9.024
 2711POPC   C1A35655  25.348  28.675   8.767
 2711POPC   D2A35656  25.521  28.446   8.449
 2711POPC   C3A35657  25.433  28.650   8.066
 2711POPC   C4A35658  25.202  28.508   7.721
 2711POPC   C1B35659  25.710  27.984   8.701
 2711POPC   C2B35660  25.676  27.669   8.363
 2711POPC   C3B35661  25.536  27.864   7.981
 2711POPC   C4B35662  25.667  28.274   7.789
 2712POPC   NC335663  43.476  33.715   9.481
 2712POPC   PO435664  42.786  33.885   9.401
 2712POPC   GL135665  43.127  33.924   9.129
 2712POPC   GL235666  43.213  33.572   9.055
 2712POPC   C1A35667  43.199  33.946   8.683
 2712POPC   D2A35668  43.064  33.679   8.324
 2712POPC   C3A35669  42.941  33.959   7.997
 2712POPC   C4A35670  43.237  34.148   7.783
 2712POPC   C1B35671  42.817  33.527   8.794
 2712POPC   C2B35672  42.702  33.306   8.387
 2712POPC   C3B35673  42.717  33.490   7.948
 2712POPC   C4B35674  43.154  33.556   7.792
 2713POPC   NC335675   2.496  21.745   9.533
 2713POPC   PO435676   3.098  21.277   9.562
 2713POPC   GL135677   2.820  21.468   9.254
 2713POPC   GL235678   2.920  21.221   9.059
 2713POPC   C1A35679   2.548  21.464   8.836
 2713POPC   D2A35680   2.504  21.247   8.407
 2713POPC   C3A35681   2.533  21.544   8.014
 2713POPC   C4A35682   2.903  21.811   7.890
 2713POPC   C1B35683   3.011  21.638   8.811
 2713POPC   C2B35684   2.877  21.625   8.396
 2713POPC   C3B35685   2.940  21.288   8.136
 2713POPC   C4B35686   2.810  21.219   7.714
 2714POPC   NC335687   4.612  41.573   9.420
 2714POPC   PO435688   4.093  41.957   9.602
 2714POPC   GL135689   4.097  41.658   9.252
 2714POPC   GL235690   4.238  41.328   9.191
 2714POPC   C1A35691   4.150  41.711   8.827
 2714POPC   D2A35692   4.340  41.847   8.475
 2714POPC   C3A35693   4.196  41.669   8.119
 2714POPC   C4A35694   4.201  41.738   7.711
 2714POPC   C1B35695   4.442  41.280   8.796
 2714POPC   C2B35696   4.547  41.353   8.362
 2714POPC   C3B35697   4.491  41.275   7.901
 2714POPC   C4B35698   4.511  41.428   7.469
 2715POPC   NC335699   9.319   9.949   9.853
 2715POPC   PO435700   8.824  10.286   9.414
 2715POPC   GL135701   8.878  10.518   9.076
 2715POPC   GL235702   9.077  10.302   8.940
 2715POPC   C1A35703   8.947  10.778   8.719
 2715POPC   D2A35704   8.744  10.913   8.349
 2715POPC   C3A35705   8.805  10.551   8.066
 2715POPC   C4A35706   8.983  10.593   7.649
 2715POPC   C1B35707   9.073  10.337   8.522
 2715POPC   C2B35708   9.304  10.549   8.238
 2715POPC   C3B35709   9.277  10.260   7.910
 2715POPC   C4B35710   8.873  10.097   7.747
 2716POPC   NC335711  34.669  41.604   9.630
 2716POPC   PO435712  34.638  42.235   9.630
 2716POPC   GL135713  34.408  41.834   9.273
 2716POPC   GL235714  34.619  41.493   9.156
 2716POPC   C1A35715  34.497  41.783   8.792
 2716POPC   D2A35716  34.483  41.543   8.427
 2716POPC   C3A35717  34.744  41.569   8.057
 2716POPC   C4A35718  34.476  41.586   7.675
 2716POPC   C1B35719  34.377  41.244   8.848
 2716POPC   C2B35720  34.525  41.036   8.475
 2716POPC   C3B35721  34.452  41.151   8.049
 2716POPC   C4B35722  34.612  41.104   7.654
 2717POPC   NC335723  23.810  35.696   9.758
 2717POPC   PO435724  23.798  36.291   9.409
 2717POPC   GL135725  23.602  36.102   9.068
 2717POPC   GL235726  23.586  35.746   8.963
 2717POPC   C1A35727  23.672  36.149   8.630
 2717POPC   D2A35728  23.379  36.043   8.275
 2717POPC   C3A35729  23.536  36.123   7.899
 2717POPC   C4A35730  23.944  36.290   7.924
 2717POPC   C1B35731  23.573  35.658   8.558
 2717POPC   C2B35732  23.949  35.797   8.363
 2717POPC   C3B35733  24.107  35.711   7.970
 2717POPC   C4B35734  23.948  35.882   7.633
 2718POPC   NC335735   2.096  39.651   9.516
 2718POPC   PO435736   1.941  39.031   9.644
 2718POPC   GL135737   1.974  39.245   9.237
 2718POPC   GL235738   2.270  39.432   9.072
 2718POPC   C1A35739   1.798  39.268   8.853
 2718POPC   D2A35740   1.791  39.135   8.445
 2718POPC   C3A35741   2.117  38.931   8.243
 2718POPC   C4A35742   2.163  39.040   7.820
 2718POPC   C1B35743   2.257  39.323   8.610
 2718POPC   C2B35744   2.154  39.444   8.187
 2718POPC   C3B35745   1.797  39.342   7.948
 2718POPC   C4B35746   1.701  39.502   7.539
 2719POPC   NC335747  20.961  28.887   9.415
 2719POPC   PO435748  20.409  29.241   9.711
 2719POPC   GL135749  20.517  29.128   9.270
 2719POPC   GL235750  20.431  29.437   9.124
 2719POPC   C1A35751  20.687  29.128   8.815
 2719POPC   D2A35752  20.536  29.265   8.417
 2719POPC   C3A35753  20.815  29.267   8.065
 2719POPC   C4A35754  20.902  29.012   7.689
 2719POPC   C1B35755  20.215  29.613   8.787
 2719POPC   C2B35756  20.296  29.759   8.383
 2719POPC   C3B35757  20.391  29.554   8.015
 2719POPC   C4B35758  20.629  29.448   7.630
 2720POPC   NC335759  29.652   3.821   9.439
 2720POPC   PO435760  29.972   3.249   9.419
 2720POPC   GL135761  30.084   3.410   9.014
 2720POPC   GL235762  29.972   3.763   9.019
 2720POPC   C1A35763  30.137   3.532   8.582
 2720POPC   D2A35764  30.220   3.605   8.152
 2720POPC   C3A35765  29.941   3.318   7.926
 2720POPC   C4A35766  29.749   3.385   7.513
 2720POPC   C1B35767  29.676   3.787   8.701
 2720POPC   C2B35768  29.703   3.654   8.264
 2720POPC   C3B35769  29.813   3.800   7.835
 2720POPC   C4B35770  29.537   3.848   7.457
 2721POPC   NC335771   3.004  10.777   9.613
 2721POPC   PO435772   2.825  10.203   9.839
 2721POPC   GL135773   2.922  10.336   9.370
 2721POPC   GL235774   2.688  10.608   9.236
 2721POPC   C1A35775   2.995  10.344   8.895
 2721POPC   D2A35776   2.818  10.526   8.485
 2721POPC   C3A35777   2.941  10.365   8.057
 2721POPC   C4A35778   2.957  10.629   7.687
 2721POPC   C1B35779   2.412  10.632   8.870
 2721POPC   C2B35780   2.318  10.672   8.419
 2721POPC   C3B35781   2.518  10.695   8.016
 2721POPC   C4B35782   2.510  10.352   7.740
 2722POPC   NC335783  11.361   8.277   9.398
 2722POPC   PO435784  11.001   7.702   9.188
 2722POPC   GL135785  11.273   7.967   8.994
 2722POPC   GL235786  11.624   7.981   9.064
 2722POPC   C1A35787  11.404   8.040   8.595
 2722POPC   D2A35788  11.384   8.340   8.350
 2722POPC   C3A35789  11.376   8.138   8.017
 2722POPC   C4A35790  11.189   8.106   7.629
 2722POPC   C1B35791  11.741   8.336   8.817
 2722POPC   C2B35792  11.887   8.304   8.411
 2722POPC   C3B35793  11.784   8.515   8.055
 2722POPC   C4B35794  11.673   8.369   7.668
 2723POPC   NC335795  36.340  14.116   9.784
 2723POPC   PO435796  36.032  13.605   9.500
 2723POPC   GL135797  36.090  13.493   9.095
 2723POPC   GL235798  35.869  13.187   9.104
 2723POPC   C1A35799  36.232  13.714   8.734
 2723POPC   D2A35800  35.960  13.953   8.475
 2723POPC   C3A35801  35.974  13.842   8.056
 2723POPC   C4A35802  36.250  13.811   7.725
 2723POPC   C1B35803  36.100  13.169   8.705
 2723POPC   C2B35804  36.107  13.418   8.323
 2723POPC   C3B35805  35.986  13.351   7.887
 2723POPC   C4B35806  36.146  13.333   7.455
 2724POPC   NC335807  32.282  10.272   9.596
 2724POPC   PO435808  31.835  10.031   9.249
 2724POPC   GL135809  32.094   9.733   9.068
 2724POPC   GL235810  32.345   9.994   9.111
 2724POPC   C1A35811  32.128   9.526   8.643
 2724POPC   D2A35812  32.456   9.582   8.371
 2724POPC   C3A35813  32.287   9.668   7.979
 2724POPC   C4A35814  31.976   9.459   7.746
 2724POPC   C1B35815  32.313  10.027   8.652
 2724POPC   C2B35816  32.187  10.142   8.218
 2724POPC   C3B35817  32.481  10.130   7.856
 2724POPC   C4B35818  32.523  10.114   7.399
 2725POPC   NC335819  38.680  11.916   9.539
 2725POPC   PO435820  38.064  12.338   9.433
 2725POPC   GL135821  38.144  12.103   9.100
 2725POPC   GL235822  38.365  11.871   9.170
 2725POPC   C1A35823  38.456  12.163   8.776
 2725POPC   D2A35824  38.488  12.401   8.436
 2725POPC   C3A35825  38.388  12.090   8.165
 2725POPC   C4A35826  38.368  12.050   7.749
 2725POPC   C1B35827  38.676  11.696   8.836
 2725POPC   C2B35828  38.811  11.694   8.394
 2725POPC   C3B35829  38.654  11.604   7.974
 2725POPC   C4B35830  38.711  11.759   7.552
 2726POPC   NC335831  20.249   4.874   9.503
 2726POPC   PO435832  20.898   5.032   9.569
 2726POPC   GL135833  20.660   5.089   9.211
 2726POPC   GL235834  20.779   4.811   9.095
 2726POPC   C1A35835  20.612   5.168   8.758
 2726POPC   D2A35836  20.769   5.052   8.347
 2726POPC   C3A35837  20.457   5.002   8.034
 2726POPC   C4A35838  20.412   5.274   7.722
 2726POPC   C1B35839  21.046   4.841   8.771
 2726POPC   C2B35840  21.122   4.664   8.425
 2726POPC   C3B35841  21.153   4.850   8.042
 2726POPC   C4B35842  20.901   5.009   7.724
 2727POPC   NC335843  24.281   6.428   9.488
 2727POPC   PO435844  24.754   6.894   9.565
 2727POPC   GL135845  24.509   6.793   9.207
 2727POPC   GL235846  24.632   6.441   9.131
 2727POPC   C1A35847  24.258   6.657   8.833
 2727POPC   D2A35848  24.157   6.852   8.451
 2727POPC   C3A35849  24.335   6.703   8.056
 2727POPC   C4A35850  24.540   6.856   7.650
 2727POPC   C1B35851  24.526   6.213   8.783
 2727POPC   C2B35852  24.314   6.300   8.424
 2727POPC   C3B35853  24.553   6.254   8.075
 2727POPC   C4B35854  24.432   6.311   7.652
 2728POPC   NC335855  22.409   1.174   9.450
 2728POPC   PO435856  21.863   1.609   9.430
 2728POPC   GL135857  22.098   1.577   9.025
 2728POPC   GL235858  22.415   1.447   9.019
 2728POPC   C1A35859  22.099   1.319   8.632
 2728POPC   D2A35860  21.880   1.225   8.243
 2728POPC   C3A35861  21.998   1.113   7.815
 2728POPC   C4A35862  21.802   1.155   7.385
 2728POPC   C1B35863  22.504   1.644   8.615
 2728POPC   C2B35864  22.404   1.461   8.237
 2728POPC   C3B35865  22.489   1.311   7.886
 2728POPC   C4B35866  22.472   0.928   7.698
 2729POPC   NC335867   3.787  37.649   9.474
 2729POPC   PO435868   3.169  37.445   9.630
 2729POPC   GL135869   3.399  37.514   9.159
 2729POPC   GL235870   3.678  37.779   9.004
 2729POPC   C1A35871   3.491  37.460   8.684
 2729POPC   D2A35872   3.525  37.320   8.295
 2729POPC   C3A35873   3.535  37.659   8.027
 2729POPC   C4A35874   3.172  37.895   7.830
 2729POPC   C1B35875   3.999  37.578   8.716
 2729POPC   C2B35876   4.025  37.449   8.295
 2729POPC   C3B35877   3.939  37.323   7.900
 2729POPC   C4B35878   3.733  37.550   7.572
 2730POPC   NC335879  34.353  44.930   9.492
 2730POPC   PO435880  33.761  44.576   9.583
 2730POPC   GL135881  33.850  44.574   9.164
 2730POPC   GL235882  33.975  44.902   9.149
 2730POPC   C1A35883  33.779  44.663   8.716
 2730POPC   D2A35884  33.893  44.534   8.296
 2730POPC   C3A35885  33.578  44.572   7.938
 2730POPC   C4A35886  33.525  44.858   7.585
 2730POPC   C1B35887  34.259  44.868   8.815
 2730POPC   C2B35888  34.480  44.791   8.434
 2730POPC   C3B35889  34.358  44.901   8.026
 2730POPC   C4B35890  34.060  44.633   7.803
 2731POPC   NC335891  14.136  30.027   9.524
 2731POPC   PO435892  14.716  30.403   9.598
 2731POPC   GL135893  14.654  30.068   9.243
 2731POPC   GL235894  14.356  29.857   9.105
 2731POPC   C1A35895  14.651  30.017   8.760
 2731POPC   D2A35896  14.345  29.994   8.430
 2731POPC   C3A35897  14.464  29.959   8.016
 2731POPC   C4A35898  14.513  30.279   7.706
 2731POPC   C1B35899  14.417  29.565   8.717
 2731POPC   C2B35900  14.380  29.477   8.256
 2731POPC   C3B35901  14.319  29.519   7.797
 2731POPC   C4B35902  14.357  29.461   7.345
 2732POPC   NC335903  11.697   9.829   9.479
 2732POPC   PO435904  11.930   9.131   9.440
 2732POPC   GL135905  12.093   9.502   9.169
 2732POPC   GL235906  11.865   9.765   9.023
 2732POPC   C1A35907  12.301   9.752   8.791
 2732POPC   D2A35908  12.104  10.039   8.466
 2732POPC   C3A35909  12.315  10.011   8.054
 2732POPC   C4A35910  12.266   9.728   7.734
 2732POPC   C1B35911  11.644  10.004   8.737
 2732POPC   C2B35912  11.559   9.853   8.329
 2732POPC   C3B35913  11.835   9.823   8.028
 2732POPC   C4B35914  11.895  10.054   7.695
 2733POPC   NC335915  16.041  13.776   9.469
 2733POPC   PO435916  15.825  13.195   9.591
 2733POPC   GL135917  15.857  13.379   9.146
 2733POPC   GL235918  16.137  13.564   9.016
 2733POPC   C1A35919  15.666  13.450   8.716
 2733POPC   D2A35920  15.595  13.295   8.270
 2733POPC   C3A35921  15.807  13.483   7.872
 2733POPC   C4A35922  15.898  13.541   7.421
 2733POPC   C1B35923  16.376  13.829   8.687
 2733POPC   C2B35924  16.342  14.129   8.339
 2733POPC   C3B35925  16.463  13.983   7.912
 2733POPC   C4B35926  16.349  13.680   7.606
 2734POPC   NC335927   3.830  17.084   9.430
 2734POPC   PO435928   3.395  16.544   9.555
 2734POPC   GL135929   3.373  16.788   9.179
 2734POPC   GL235930   3.701  16.793   9.006
 2734POPC   C1A35931   3.218  16.823   8.752
 2734POPC   D2A35932   3.487  16.736   8.396
 2734POPC   C3A35933   3.427  16.890   7.992
 2734POPC   C4A35934   3.704  17.226   7.815
 2734POPC   C1B35935   3.850  16.503   8.688
 2734POPC   C2B35936   3.960  16.558   8.228
 2734POPC   C3B35937   3.841  16.689   7.796
 2734POPC   C4B35938   3.801  16.477   7.377
 2735POPC   NC335939  36.599   5.100   9.589
 2735POPC   PO435940  37.238   5.355   9.535
 2735POPC   GL135941  37.031   5.092   9.168
 2735POPC   GL235942  36.670   4.981   9.108
 2735POPC   C1A35943  36.978   5.020   8.708
 2735POPC   D2A35944  37.119   4.981   8.309
 2735POPC   C3A35945  36.882   4.922   7.983
 2735POPC   C4A35946  36.732   5.175   7.657
 2735POPC   C1B35947  36.553   4.736   8.747
 2735POPC   C2B35948  36.754   4.608   8.391
 2735POPC   C3B35949  36.538   4.559   8.007
 2735POPC   C4B35950  36.652   4.701   7.587
 2736POPC   NC335951  38.462  44.213   9.572
 2736POPC   PO435952  38.149  43.670   9.394
 2736POPC   GL135953  38.268  43.807   9.008
 2736POPC   GL235954  38.599  43.911   9.163
 2736POPC   C1A35955  38.129  43.993   8.596
 2736POPC   D2A35956  37.936  44.193   8.184
 2736POPC   C3A35957  38.114  44.018   7.792
 2736POPC   C4A35958  38.121  43.607   7.592
 2736POPC   C1B35959  38.731  43.688   8.814
 2736POPC   C2B35960  38.547  43.674   8.415
 2736POPC   C3B35961  38.520  43.703   7.927
 2736POPC   C4B35962  38.642  43.376   7.649
 2737POPC   NC335963  23.157  37.294   9.446
 2737POPC   PO435964  22.884  36.693   9.354
 2737POPC   GL135965  23.021  36.976   9.060
 2737POPC   GL235966  22.719  37.133   9.088
 2737POPC   C1A35967  23.170  37.033   8.651
 2737POPC   D2A35968  23.086  36.815   8.257
 2737POPC   C3A35969  23.214  36.999   7.835
 2737POPC   C4A35970  23.226  36.980   7.344
 2737POPC   C1B35971  22.652  36.890   8.669
 2737POPC   C2B35972  22.529  37.090   8.286
 2737POPC   C3B35973  22.711  37.067   7.870
 2737POPC   C4B35974  22.852  36.718   7.597
 2738POPC   NC335975  14.188  13.907   9.580
 2738POPC   PO435976  14.726  14.332   9.405
 2738POPC   GL135977  14.508  14.366   9.007
 2738POPC   GL235978  14.290  14.692   8.919
 2738POPC   C1A35979  14.676  14.444   8.598
 2738POPC   D2A35980  14.505  14.579   8.214
 2738POPC   C3A35981  14.614  14.296   7.854
 2738POPC   C4A35982  14.771  14.319   7.435
 2738POPC   C1B35983  14.166  14.396   8.627
 2738POPC   C2B35984  13.910  14.311   8.322
 2738POPC   C3B35985  14.054  14.393   7.943
 2738POPC   C4B35986  13.925  14.204   7.597
 2739POPC   NC335987   7.976  21.099   9.313
 2739POPC   PO435988   8.196  20.433   9.443
 2739POPC   GL135989   8.426  20.546   9.089
 2739POPC   GL235990   8.391  20.907   9.052
 2739POPC   C1A35991   8.399  20.341   8.689
 2739POPC   D2A35992   8.621  20.324   8.317
 2739POPC   C3A35993   8.316  20.272   8.019
 2739POPC   C4A35994   8.308  20.443   7.637
 2739POPC   C1B35995   8.049  20.725   8.759
 2739POPC   C2B35996   7.947  20.708   8.305
 2739POPC   C3B35997   8.112  20.871   7.922
 2739POPC   C4B35998   7.922  21.218   7.721
 2740POPC   NC335999  28.785   8.723   9.545
 2740POPC   PO436000  29.189   9.260   9.526
 2740POPC   GL136001  28.995   9.083   9.200
 2740POPC   GL236002  29.318   8.885   9.152
 2740POPC   C1A36003  28.979   8.923   8.779
 2740POPC   D2A36004  29.235   8.842   8.422
 2740POPC   C3A36005  29.096   9.003   8.055
 2740POPC   C4A36006  29.080   8.868   7.675
 2740POPC   C1B36007  29.608   8.947   8.782
 2740POPC   C2B36008  29.708   8.677   8.404
 2740POPC   C3B36009  29.656   8.771   7.979
 2740POPC   C4B36010  29.547   9.072   7.684
 2741POPC   NC336011  34.593   5.893   9.535
 2741POPC   PO436012  34.947   6.362   9.221
 2741POPC   GL136013  34.700   6.048   9.068
 2741POPC   GL236014  34.728   5.674   9.090
 2741POPC   C1A36015  34.620   6.067   8.691
 2741POPC   D2A36016  34.791   6.261   8.390
 2741POPC   C3A36017  34.636   6.171   8.018
 2741POPC   C4A36018  34.474   6.048   7.640
 2741POPC   C1B36019  34.473   5.589   8.736
 2741POPC   C2B36020  34.540   5.741   8.314
 2741POPC   C3B36021  34.603   5.647   7.909
 2741POPC   C4B36022  34.381   5.554   7.529
 2742POPC   NC336023  26.456  35.711   9.646
 2742POPC   PO436024  26.840  35.230   9.432
 2742POPC   GL136025  26.634  35.324   9.077
 2742POPC   GL236026  26.432  35.611   9.141
 2742POPC   C1A36027  26.748  35.251   8.656
 2742POPC   D2A36028  26.964  35.174   8.286
 2742POPC   C3A36029  26.887  35.178   7.891
 2742POPC   C4A36030  27.104  35.394   7.632
 2742POPC   C1B36031  26.564  35.718   8.731
 2742POPC   C2B36032  26.646  35.594   8.279
 2742POPC   C3B36033  26.716  35.657   7.857
 2742POPC   C4B36034  26.397  35.728   7.621
 2743POPC   NC336035  13.317   1.263   9.417
 2743POPC   PO436036  13.894   0.917   9.466
 2743POPC   GL136037  13.602   0.913   9.142
 2743POPC   GL236038  13.751   1.224   9.011
 2743POPC   C1A36039  13.471   0.926   8.719
 2743POPC   D2A36040  13.754   1.218   8.461
 2743POPC   C3A36041  13.736   1.242   8.008
 2743POPC   C4A36042  13.384   1.109   7.751
 2743POPC   C1B36043  13.420   1.450   8.787
 2743POPC   C2B36044  13.413   1.619   8.377
 2743POPC   C3B36045  13.357   1.583   7.941
 2743POPC   C4B36046  13.568   1.504   7.525
 2744POPC   NC336047   5.119  15.258   9.552
 2744POPC   PO436048   4.689  15.714   9.421
 2744POPC   GL136049   4.866  15.338   9.125
 2744POPC   GL236050   5.137  15.010   9.125
 2744POPC   C1A36051   5.125  15.358   8.768
 2744POPC   D2A36052   5.208  15.469   8.347
 2744POPC   C3A36053   4.831  15.403   8.102
 2744POPC   C4A36054   4.912  15.269   7.707
 2744POPC   C1B36055   4.903  14.834   8.811
 2744POPC   C2B36056   5.070  14.936   8.445
 2744POPC   C3B36057   5.154  14.993   8.051
 2744POPC   C4B36058   5.298  14.931   7.645
 2745POPC   NC336059  38.090  27.736   9.265
 2745POPC   PO436060  38.659  27.507   9.582
 2745POPC   GL136061  38.714  27.617   9.175
 2745POPC   GL236062  38.426  27.410   9.100
 2745POPC   C1A36063  38.659  27.674   8.716
 2745POPC   D2A36064  38.583  27.353   8.398
 2745POPC   C3A36065  38.451  27.387   7.999
 2745POPC   C4A36066  38.685  27.388   7.627
 2745POPC   C1B36067  38.191  27.440   8.710
 2745POPC   C2B36068  38.248  27.758   8.370
 2745POPC   C3B36069  38.310  27.916   7.943
 2745POPC   C4B36070  38.286  27.702   7.553
 2746POPC   NC336071  11.432  24.997   9.792
 2746POPC   PO436072  11.353  24.386   9.507
 2746POPC   GL136073  11.258  24.346   9.117
 2746POPC   GL236074  11.604  24.462   9.010
 2746POPC   C1A36075  11.191  24.519   8.707
 2746POPC   D2A36076  11.430  24.476   8.320
 2746POPC   C3A36077  11.314  24.218   7.943
 2746POPC   C4A36078  11.043  24.063   7.621
 2746POPC   C1B36079  11.611  24.807   8.673
 2746POPC   C2B36080  11.765  24.854   8.242
 2746POPC   C3B36081  11.656  24.605   7.861
 2746POPC   C4B36082  11.612  24.731   7.408
 2747POPC   NC336083  24.236  31.118   9.492
 2747POPC   PO436084  24.851  31.006   9.264
 2747POPC   GL136085  24.496  30.937   9.071
 2747POPC   GL236086  24.310  30.657   9.203
 2747POPC   C1A36087  24.549  30.800   8.664
 2747POPC   D2A36088  24.830  30.739   8.321
 2747POPC   C3A36089  24.538  30.847   7.991
 2747POPC   C4A36090  24.238  30.712   7.685
 2747POPC   C1B36091  24.284  30.369   8.818
 2747POPC   C2B36092  24.429  30.371   8.377
 2747POPC   C3B36093  24.240  30.274   7.967
 2747POPC   C4B36094  24.438  30.230   7.526
 2748POPC   NC336095  29.940  20.853   9.334
 2748POPC   PO436096  30.110  21.501   9.499
 2748POPC   GL136097  30.029  21.357   9.122
 2748POPC   GL236098  30.207  21.064   8.944
 2748POPC   C1A36099  30.082  21.544   8.736
 2748POPC   D2A36100  30.123  21.309   8.372
 2748POPC   C3A36101  30.034  21.553   8.036
 2748POPC   C4A36102  29.841  21.626   7.658
 2748POPC   C1B36103  29.797  21.084   8.757
 2748POPC   C2B36104  29.646  21.001   8.394
 2748POPC   C3B36105  29.852  21.002   8.052
 2748POPC   C4B36106  29.738  21.138   7.667
 2749POPC   NC336107  10.876  29.643   9.859
 2749POPC   PO436108  10.646  30.004   9.351
 2749POPC   GL136109  10.549  29.894   8.961
 2749POPC   GL236110  10.300  29.668   9.033
 2749POPC   C1A36111  10.537  29.891   8.525
 2749POPC   D2A36112  10.253  30.031   8.196
 2749POPC   C3A36113  10.521  30.138   7.848
 2749POPC   C4A36114  10.516  30.079   7.416
 2749POPC   C1B36115  10.112  29.440   8.700
 2749POPC   C2B36116  10.303  29.486   8.323
 2749POPC   C3B36117  10.584  29.664   8.052
 2749POPC   C4B36118  10.351  29.644   7.692
 2750POPC   NC336119  22.624  31.539   9.480
 2750POPC   PO436120  23.262  31.737   9.386
 2750POPC   GL136121  22.999  31.466   9.120
 2750POPC   GL236122  22.692  31.577   8.993
 2750POPC   C1A36123  23.159  31.344   8.739
 2750POPC   D2A36124  23.256  31.667   8.432
 2750POPC   C3A36125  23.079  31.671   8.071
 2750POPC   C4A36126  23.158  31.565   7.675
 2750POPC   C1B36127  22.769  31.625   8.599
 2750POPC   C2B36128  22.846  31.264   8.329
 2750POPC   C3B36129  22.827  31.230   7.891
 2750POPC   C4B36130  22.714  31.421   7.462
 2751POPC   NC336131  33.354  29.632   9.549
 2751POPC   PO436132  32.932  30.107   9.642
 2751POPC   GL136133  33.062  29.959   9.229
 2751POPC   GL236134  32.795  29.722   9.134
 2751POPC   C1A36135  32.946  30.081   8.768
 2751POPC   D2A36136  32.891  30.302   8.326
 2751POPC   C3A36137  32.876  29.956   7.982
 2751POPC   C4A36138  32.684  29.567   7.786
 2751POPC   C1B36139  33.182  29.609   8.879
 2751POPC   C2B36140  33.340  29.544   8.480
 2751POPC   C3B36141  33.105  29.492   8.111
 2751POPC   C4B36142  33.154  29.422   7.677
 2752POPC   NC336143  44.497  19.082   9.445
 2752POPC   PO436144  44.361  18.478   9.689
 2752POPC   GL136145  44.557  18.639   9.221
 2752POPC   GL236146  44.258  18.839   9.082
 2752POPC   C1A36147  44.752  18.825   8.813
 2752POPC   D2A36148  44.897  19.159   8.502
 2752POPC   C3A36149  44.839  18.992   8.055
 2752POPC   C4A36150  44.970  19.048   7.621
 2752POPC   C1B36151  44.362  19.160   8.783
 2752POPC   C2B36152  44.430  18.975   8.385
 2752POPC   C3B36153  44.335  19.116   7.994
 2752POPC   C4B36154  44.465  19.096   7.611
 2753POPC   NC336155  12.983   8.691   9.552
 2753POPC   PO436156  12.514   9.151   9.534
 2753POPC   GL136157  12.757   8.903   9.155
 2753POPC   GL236158  13.108   8.803   9.087
 2753POPC   C1A36159  12.671   8.868   8.732
 2753POPC   D2A36160  12.667   9.141   8.403
 2753POPC   C3A36161  12.632   8.884   8.055
 2753POPC   C4A36162  12.677   8.998   7.662
 2753POPC   C1B36163  13.166   8.673   8.699
 2753POPC   C2B36164  13.079   8.794   8.304
 2753POPC   C3B36165  13.095   8.791   7.857
 2753POPC   C4B36166  13.124   8.770   7.409
 2754POPC   NC336167  18.276  19.418   9.549
 2754POPC   PO436168  18.488  18.793   9.559
 2754POPC   GL136169  18.436  19.064   9.206
 2754POPC   GL236170  18.674  19.377   9.223
 2754POPC   C1A36171  18.117  19.053   8.862
 2754POPC   D2A36172  17.897  19.252   8.503
 2754POPC   C3A36173  18.040  19.020   8.137
 2754POPC   C4A36174  18.047  19.092   7.712
 2754POPC   C1B36175  18.439  19.455   8.833
 2754POPC   C2B36176  18.403  19.225   8.451
 2754POPC   C3B36177  18.343  19.429   8.056
 2754POPC   C4B36178  18.498  19.378   7.672
 2755POPC   NC336179  39.219  12.739   9.571
 2755POPC   PO436180  39.678  13.244   9.559
 2755POPC   GL136181  39.280  13.087   9.222
 2755POPC   GL236182  39.055  12.746   9.103
 2755POPC   C1A36183  39.103  13.140   8.811
 2755POPC   D2A36184  39.119  12.860   8.461
 2755POPC   C3A36185  39.239  13.123   8.138
 2755POPC   C4A36186  39.303  13.118   7.741
 2755POPC   C1B36187  39.421  12.610   8.858
 2755POPC   C2B36188  39.478  12.449   8.438
 2755POPC   C3B36189  39.350  12.616   7.999
 2755POPC   C4B36190  39.079  12.406   7.666
 2756POPC   NC336191  41.089  19.543   9.310
 2756POPC   PO436192  41.727  19.696   9.507
 2756POPC   GL136193  41.499  19.809   9.114
 2756POPC   GL236194  41.411  20.154   9.016
 2756POPC   C1A36195  41.592  19.793   8.673
 2756POPC   D2A36196  41.817  19.750   8.277
 2756POPC   C3A36197  41.546  19.487   8.056
 2756POPC   C4A36198  41.411  19.521   7.638
 2756POPC   C1B36199  41.247  20.358   8.653
 2756POPC   C2B36200  41.096  20.170   8.250
 2756POPC   C3B36201  41.351  19.979   7.908
 2756POPC   C4B36202  41.560  20.124   7.534
 2757POPC   NC336203  38.461   5.075   9.638
 2757POPC   PO436204  38.501   4.508   9.481
 2757POPC   GL136205  38.545   4.852   9.173
 2757POPC   GL236206  38.211   4.957   9.114
 2757POPC   C1A36207  38.696   5.067   8.782
 2757POPC   D2A36208  38.515   5.180   8.373
 2757POPC   C3A36209  38.611   5.112   7.963
 2757POPC   C4A36210  38.561   5.334   7.585
 2757POPC   C1B36211  38.280   4.802   8.666
 2757POPC   C2B36212  38.245   4.784   8.223
 2757POPC   C3B36213  38.212   4.816   7.803
 2757POPC   C4B36214  38.489   4.831   7.473
 2758POPC   NC336215   2.636  28.629   9.528
 2758POPC   PO436216   2.860  29.175   9.741
 2758POPC   GL136217   2.917  29.141   9.297
 2758POPC   GL236218   3.033  28.808   9.226
 2758POPC   C1A36219   2.744  29.348   8.933
 2758POPC   D2A36220   2.837  29.361   8.489
 2758POPC   C3A36221   2.540  29.407   8.158
 2758POPC   C4A36222   2.735  29.352   7.747
 2758POPC   C1B36223   2.906  28.880   8.799
 2758POPC   C2B36224   2.660  28.869   8.441
 2758POPC   C3B36225   2.825  28.982   8.072
 2758POPC   C4B36226   2.836  28.857   7.640
 2759POPC   NC336227  38.205  40.319   9.423
 2759POPC   PO436228  38.825  39.890   9.431
 2759POPC   GL136229  38.586  39.847   9.075
 2759POPC   GL236230  38.267  40.062   9.007
 2759POPC   C1A36231  38.613  40.035   8.673
 2759POPC   D2A36232  38.361  40.155   8.317
 2759POPC   C3A36233  38.574  40.056   7.944
 2759POPC   C4A36234  38.350  39.965   7.597
 2759POPC   C1B36235  38.013  40.297   8.699
 2759POPC   C2B36236  38.043  40.562   8.315
 2759POPC   C3B36237  38.022  40.300   7.946
 2759POPC   C4B36238  38.027  40.332   7.501
 2760POPC   NC336239  13.693   7.366   9.428
 2760POPC   PO436240  13.564   8.001   9.370
 2760POPC   GL136241  13.502   7.812   9.012
 2760POPC   GL236242  13.303   7.505   9.078
 2760POPC   C1A36243  13.711   7.673   8.651
 2760POPC   D2A36244  13.585   7.405   8.313
 2760POPC   C3A36245  13.835   7.393   7.952
 2760POPC   C4A36246  13.733   7.703   7.682
 2760POPC   C1B36247  13.524   7.196   8.802
 2760POPC   C2B36248  13.537   6.906   8.468
 2760POPC   C3B36249  13.324   7.025   8.111
 2760POPC   C4B36250  13.361   7.315   7.755
 2761POPC   NC336251  28.720  11.402   9.478
 2761POPC   PO436252  29.317  11.799   9.488
 2761POPC   GL136253  29.293  11.980   9.090
 2761POPC   GL236254  28.989  12.133   9.096
 2761POPC   C1A36255  29.492  12.044   8.706
 2761POPC   D2A36256  29.485  12.229   8.296
 2761POPC   C3A36257  29.475  11.989   7.919
 2761POPC   C4A36258  29.148  12.170   7.711
 2761POPC   C1B36259  29.055  12.301   8.664
 2761POPC   C2B36260  28.967  12.179   8.238
 2761POPC   C3B36261  28.683  12.157   7.909
 2761POPC   C4B36262  28.663  12.369   7.510
 2762POPC   NC336263  26.105  17.926   9.547
 2762POPC   PO436264  26.367  18.500   9.275
 2762POPC   GL136265  26.063  18.217   9.109
 2762POPC   GL236266  26.211  17.905   9.047
 2762POPC   C1A36267  25.868  18.144   8.709
 2762POPC   D2A36268  25.999  18.050   8.295
 2762POPC   C3A36269  26.126  18.405   8.065
 2762POPC   C4A36270  26.045  18.553   7.641
 2762POPC   C1B36271  26.350  17.951   8.660
 2762POPC   C2B36272  26.533  17.988   8.262
 2762POPC   C3B36273  26.285  17.899   7.898
 2762POPC   C4B36274  25.886  18.076   7.746
 2763POPC   NC336275   6.287  31.939   9.413
 2763POPC   PO436276   5.685  32.242   9.557
 2763POPC   GL136277   5.813  32.355   9.142
 2763POPC   GL236278   6.005  32.057   9.006
 2763POPC   C1A36279   5.905  32.455   8.719
 2763POPC   D2A36280   5.936  32.178   8.397
 2763POPC   C3A36281   6.018  32.403   8.062
 2763POPC   C4A36282   5.798  32.307   7.674
 2763POPC   C1B36283   6.344  32.148   8.679
 2763POPC   C2B36284   6.350  31.923   8.249
 2763POPC   C3B36285   6.057  31.918   7.891
 2763POPC   C4B36286   5.863  31.843   7.473
 2764POPC   NC336287  28.557  26.645   9.434
 2764POPC   PO436288  28.246  27.139   9.754
 2764POPC   GL136289  28.256  27.104   9.220
 2764POPC   GL236290  28.050  26.831   9.046
 2764POPC   C1A36291  28.288  27.092   8.702
 2764POPC   D2A36292  28.171  26.820   8.326
 2764POPC   C3A36293  28.218  27.012   7.902
 2764POPC   C4A36294  28.146  26.976   7.442
 2764POPC   C1B36295  28.356  26.601   8.781
 2764POPC   C2B36296  28.659  26.703   8.460
 2764POPC   C3B36297  28.725  26.864   8.033
 2764POPC   C4B36298  28.578  26.769   7.618
 2765POPC   NC336299  28.722  33.384   9.405
 2765POPC   PO436300  28.645  32.684   9.408
 2765POPC   GL136301  28.890  32.885   9.056
 2765POPC   GL236302  29.260  32.954   8.976
 2765POPC   C1A36303  28.893  33.223   8.762
 2765POPC   D2A36304  29.008  33.454   8.405
 2765POPC   C3A36305  28.912  33.266   8.041
 2765POPC   C4A36306  29.181  32.988   7.799
 2765POPC   C1B36307  29.421  33.287   8.710
 2765POPC   C2B36308  29.661  33.288   8.328
 2765POPC   C3B36309  29.646  33.268   7.888
 2765POPC   C4B36310  29.512  33.273   7.464
 2766POPC   NC336311  39.507  12.057   9.611
 2766POPC   PO436312  38.899  12.344   9.503
 2766POPC   GL136313  39.240  12.260   9.219
 2766POPC   GL236314  39.059  11.951   9.119
 2766POPC   C1A36315  39.450  12.070   8.829
 2766POPC   D2A36316  39.274  11.920   8.440
 2766POPC   C3A36317  39.419  12.110   8.057
 2766POPC   C4A36318  39.573  12.263   7.653
 2766POPC   C1B36319  38.978  12.299   8.770
 2766POPC   C2B36320  38.979  12.365   8.304
 2766POPC   C3B36321  38.904  12.048   7.991
 2766POPC   C4B36322  39.187  11.886   7.674
 2767POPC   NC336323  38.142  35.267   9.254
 2767POPC   PO436324  37.473  35.431   9.520
 2767POPC   GL136325  37.580  35.394   9.125
 2767POPC   GL236326  37.840  35.659   9.130
 2767POPC   C1A36327  37.699  35.106   8.777
 2767POPC   D2A36328  37.501  35.007   8.402
 2767POPC   C3A36329  37.716  35.058   8.009
 2767POPC   C4A36330  37.558  35.134   7.618
 2767POPC   C1B36331  37.758  35.608   8.703
 2767POPC   C2B36332  37.512  35.531   8.345
 2767POPC   C3B36333  37.606  35.570   7.909
 2767POPC   C4B36334  37.906  35.589   7.593
 2768POPC   NC336335  35.229  22.576   9.491
 2768POPC   PO436336  35.417  21.917   9.432
 2768POPC   GL136337  35.428  22.267   9.151
 2768POPC   GL236338  35.428  22.082   8.909
 2768POPC   C1A36339  35.271  22.535   8.806
 2768POPC   D2A36340  35.289  22.288   8.425
 2768POPC   C3A36341  35.144  22.470   8.050
 2768POPC   C4A36342  35.179  22.321   7.614
 2768POPC   C1B36343  35.019  21.960   8.743
 2768POPC   C2B36344  35.025  21.798   8.329
 2768POPC   C3B36345  35.266  21.964   8.007
 2768POPC   C4B36346  35.618  22.043   7.797
 2769POPC   NC336347   6.448  38.003   9.486
 2769POPC   PO436348   6.565  37.217   9.612
 2769POPC   GL136349   6.412  37.515   9.262
 2769POPC   GL236350   6.689  37.672   9.169
 2769POPC   C1A36351   6.377  37.451   8.806
 2769POPC   D2A36352   6.683  37.337   8.447
 2769POPC   C3A36353   6.477  37.399   8.045
 2769POPC   C4A36354   6.413  37.767   7.791
 2769POPC   C1B36355   6.704  37.807   8.739
 2769POPC   C2B36356   6.486  37.807   8.353
 2769POPC   C3B36357   6.817  37.817   8.073
 2769POPC   C4B36358   7.059  37.953   7.705
 2770POPC   NC336359  15.001  21.604   9.446
 2770POPC   PO436360  15.531  21.219   9.453
 2770POPC   GL136361  15.349  21.340   9.116
 2770POPC   GL236362  15.062  21.137   9.128
 2770POPC   C1A36363  15.368  21.537   8.728
 2770POPC   D2A36364  15.150  21.384   8.369
 2770POPC   C3A36365  15.304  21.513   7.981
 2770POPC   C4A36366  15.158  21.427   7.587
 2770POPC   C1B36367  14.789  20.992   8.789
 2770POPC   C2B36368  14.899  20.945   8.357
 2770POPC   C3B36369  14.817  21.137   7.950
 2770POPC   C4B36370  14.754  21.132   7.514
 2771POPC   NC336371  32.249   3.716   9.814
 2771POPC   PO436372  32.354   3.112   9.367
 2771POPC   GL136373  32.351   3.217   8.997
 2771POPC   GL236374  32.003   3.252   8.987
 2771POPC   C1A36375  32.510   3.350   8.615
 2771POPC   D2A36376  32.333   3.585   8.296
 2771POPC   C3A36377  32.244   3.388   7.964
 2771POPC   C4A36378  32.490   3.342   7.638
 2771POPC   C1B36379  32.058   3.626   8.738
 2771POPC   C2B36380  31.890   3.813   8.330
 2771POPC   C3B36381  31.979   3.812   7.869
 2771POPC   C4B36382  32.120   3.693   7.417
 2772POPC   NC336383  44.608   1.697   9.349
 2772POPC   PO436384  44.865   2.306   9.511
 2772POPC   GL136385  44.822   2.124   9.128
 2772POPC   GL236386  44.452   2.101   9.031
 2772POPC   C1A36387  44.829   1.876   8.764
 2772POPC   D2A36388  44.621   2.008   8.402
 2772POPC   C3A36389  44.859   1.854   8.047
 2772POPC   C4A36390  44.762   1.689   7.657
 2772POPC   C1B36391  44.184   2.237   8.658
 2772POPC   C2B36392  44.278   2.347   8.234
 2772POPC   C3B36393  44.395   2.068   7.911
 2772POPC   C4B36394  44.340   2.115   7.439
 2773POPC   NC336395  22.243  38.876   9.409
 2773POPC   PO436396  22.093  38.266   9.656
 2773POPC   GL136397  22.105  38.275   9.200
 2773POPC   GL236398  22.422  38.208   9.034
 2773POPC   C1A36399  22.037  38.516   8.814
 2773POPC   D2A36400  21.838  38.382   8.441
 2773POPC   C3A36401  21.916  38.372   8.011
 2773POPC   C4A36402  21.811  38.045   7.747
 2773POPC   C1B36403  22.512  38.444   8.669
 2773POPC   C2B36404  22.342  38.369   8.294
 2773POPC   C3B36405  22.435  38.419   7.858
 2773POPC   C4B36406  22.505  38.710   7.526
 2774POPC   NC336407  31.634  30.453   9.335
 2774POPC   PO436408  31.369  31.091   9.451
 2774POPC   GL136409  31.365  30.825   9.092
 2774POPC   GL236410  31.161  30.506   9.080
 2774POPC   C1A36411  31.197  30.872   8.705
 2774POPC   D2A36412  31.476  30.857   8.373
 2774POPC   C3A36413  31.184  30.847   8.058
 2774POPC   C4A36414  31.077  30.658   7.722
 2774POPC   C1B36415  31.439  30.421   8.691
 2774POPC   C2B36416  31.393  30.358   8.225
 2774POPC   C3B36417  31.510  30.404   7.775
 2774POPC   C4B36418  31.332  30.380   7.358
 2775POPC   NC336419  22.724  33.293   9.443
 2775POPC   PO436420  23.012  32.684   9.465
 2775POPC   GL136421  22.982  32.923   9.112
 2775POPC   GL236422  22.637  32.956   9.072
 2775POPC   C1A36423  23.050  33.028   8.673
 2775POPC   D2A36424  23.218  33.069   8.253
 2775POPC   C3A36425  22.959  33.157   7.889
 2775POPC   C4A36426  22.974  32.847   7.528
 2775POPC   C1B36427  22.610  32.719   8.716
 2775POPC   C2B36428  22.475  32.633   8.315
 2775POPC   C3B36429  22.640  32.771   7.931
 2775POPC   C4B36430  22.512  33.042   7.572
 2776POPC   NC336431   7.259  16.011   9.477
 2776POPC   PO436432   7.797  15.794   9.689
 2776POPC   GL136433   7.790  15.909   9.229
 2776POPC   GL236434   7.474  16.052   9.026
 2776POPC   C1A36435   7.730  15.681   8.834
 2776POPC   D2A36436   7.475  15.818   8.500
 2776POPC   C3A36437   7.522  15.731   8.070
 2776POPC   C4A36438   7.103  15.711   7.866
 2776POPC   C1B36439   7.224  16.240   8.678
 2776POPC   C2B36440   7.223  16.410   8.238
 2776POPC   C3B36441   7.318  16.197   7.857
 2776POPC   C4B36442   7.733  16.202   7.708
 2777POPC   NC336443   7.331  16.960   9.783
 2777POPC   PO436444   7.520  16.404   9.400
 2777POPC   GL136445   7.573  16.705   9.072
 2777POPC   GL236446   7.401  16.990   9.224
 2777POPC   C1A36447   7.536  16.649   8.615
 2777POPC   D2A36448   7.724  16.662   8.195
 2777POPC   C3A36449   7.508  16.669   7.757
 2777POPC   C4A36450   7.739  16.686   7.337
 2777POPC   C1B36451   7.249  17.089   8.818
 2777POPC   C2B36452   7.505  17.129   8.449
 2777POPC   C3B36453   7.284  16.956   8.116
 2777POPC   C4B36454   7.198  17.090   7.689
 2778POPC   NC336455  21.910  26.707   9.531
 2778POPC   PO436456  22.472  26.263   9.446
 2778POPC   GL136457  22.348  26.608   9.185
 2778POPC   GL236458  22.267  26.954   9.218
 2778POPC   C1A36459  22.073  26.603   8.840
 2778POPC   D2A36460  21.881  26.790   8.476
 2778POPC   C3A36461  22.011  26.587   8.103
 2778POPC   C4A36462  22.100  26.721   7.706
 2778POPC   C1B36463  22.142  27.107   8.808
 2778POPC   C2B36464  22.202  27.242   8.393
 2778POPC   C3B36465  22.085  27.188   7.974
 2778POPC   C4B36466  22.401  27.166   7.689
 2779POPC   NC336467  19.356  12.666   9.533
 2779POPC   PO436468  18.903  13.143   9.420
 2779POPC   GL136469  19.054  12.826   9.167
 2779POPC   GL236470  19.388  12.971   9.115
 2779POPC   C1A36471  19.073  12.671   8.770
 2779POPC   D2A36472  19.302  12.785   8.411
 2779POPC   C3A36473  19.051  12.750   8.044
 2779POPC   C4A36474  18.924  12.578   7.645
 2779POPC   C1B36475  19.178  13.184   8.792
 2779POPC   C2B36476  18.966  13.191   8.387
 2779POPC   C3B36477  19.154  13.251   7.997
 2779POPC   C4B36478  19.008  13.079   7.636
 2780POPC   NC336479  13.183  37.679   9.516
 2780POPC   PO436480  13.750  37.986   9.362
 2780POPC   GL136481  13.681  37.789   9.000
 2780POPC   GL236482  13.458  37.532   9.045
 2780POPC   C1A36483  13.658  37.839   8.595
 2780POPC   D2A36484  13.343  37.784   8.279
 2780POPC   C3A36485  13.468  37.596   7.917
 2780POPC   C4A36486  13.786  37.781   7.678
 2780POPC   C1B36487  13.799  37.367   8.763
 2780POPC   C2B36488  13.754  37.398   8.331
 2780POPC   C3B36489  13.914  37.346   7.925
 2780POPC   C4B36490  13.829  37.347   7.438
 2781POPC   NC336491  42.152  34.921   9.375
 2781POPC   PO436492  42.547  35.462   9.498
 2781POPC   GL136493  42.309  35.391   9.199
 2781POPC   GL236494  42.003  35.501   9.325
 2781POPC   C1A36495  42.400  35.304   8.806
 2781POPC   D2A36496  42.418  35.180   8.419
 2781POPC   C3A36497  42.616  35.281   8.064
 2781POPC   C4A36498  42.348  35.132   7.721
 2781POPC   C1B36499  42.028  35.664   8.882
 2781POPC   C2B36500  42.166  35.613   8.459
 2781POPC   C3B36501  42.100  35.432   8.054
 2781POPC   C4B36502  41.969  35.560   7.646
 2782POPC   NC336503   1.391   9.342   9.499
 2782POPC   PO436504   0.807   8.973   9.502
 2782POPC   GL136505   1.090   8.926   9.140
 2782POPC   GL236506   1.265   9.210   9.026
 2782POPC   C1A36507   1.198   8.635   8.794
 2782POPC   D2A36508   1.308   8.497   8.390
 2782POPC   C3A36509   1.286   8.800   8.073
 2782POPC   C4A36510   1.197   8.743   7.654
 2782POPC   C1B36511   1.062   9.134   8.654
 2782POPC   C2B36512   0.847   9.235   8.296
 2782POPC   C3B36513   0.924   9.141   7.874
 2782POPC   C4B36514   1.024   9.203   7.443
 2783POPC   NC336515  31.205  39.467   9.420
 2783POPC   PO436516  31.556  40.006   9.683
 2783POPC   GL136517  31.575  39.897   9.270
 2783POPC   GL236518  31.230  39.929   9.223
 2783POPC   C1A36519  31.640  39.957   8.823
 2783POPC   D2A36520  31.648  40.269   8.471
 2783POPC   C3A36521  31.655  40.072   8.071
 2783POPC   C4A36522  31.585  40.117   7.635
 2783POPC   C1B36523  31.186  39.708   8.813
 2783POPC   C2B36524  31.334  39.849   8.430
 2783POPC   C3B36525  31.160  39.904   8.061
 2783POPC   C4B36526  31.241  39.733   7.700
 2784POPC   NC336527  34.063  40.922   9.441
 2784POPC   PO436528  34.513  40.402   9.469
 2784POPC   GL136529  34.475  40.719   9.168
 2784POPC   GL236530  34.728  40.977   9.105
 2784POPC   C1A36531  34.373  40.641   8.762
 2784POPC   D2A36532  34.277  40.487   8.382
 2784POPC   C3A36533  34.495  40.629   8.037
 2784POPC   C4A36534  34.222  40.774   7.746
 2784POPC   C1B36535  34.887  40.721   8.750
 2784POPC   C2B36536  34.913  40.764   8.300
 2784POPC   C3B36537  35.054  40.620   7.932
 2784POPC   C4B36538  34.972  40.400   7.578
 2785POPC   NC336539  36.831  27.672   9.926
 2785POPC   PO436540  37.391  27.686   9.528
 2785POPC   GL136541  37.123  27.696   9.186
 2785POPC   GL236542  36.798  27.485   9.134
 2785POPC   C1A36543  37.016  27.791   8.764
 2785POPC   D2A36544  36.727  27.525   8.547
 2785POPC   C3A36545  36.844  27.507   8.127
 2785POPC   C4A36546  36.892  27.672   7.748
 2785POPC   C1B36547  37.121  27.301   8.859
 2785POPC   C2B36548  37.173  27.249   8.440
 2785POPC   C3B36549  37.060  27.045   8.082
 2785POPC   C4B36550  36.848  27.161   7.708
 2786POPC   NC336551  22.735  13.355   9.476
 2786POPC   PO436552  23.251  13.740   9.665
 2786POPC   GL136553  23.113  13.637   9.205
 2786POPC   GL236554  22.775  13.502   8.976
 2786POPC   C1A36555  23.180  13.711   8.761
 2786POPC   D2A36556  22.909  13.641   8.405
 2786POPC   C3A36557  23.080  13.344   8.153
 2786POPC   C4A36558  23.350  13.572   7.892
 2786POPC   C1B36559  22.477  13.507   8.605
 2786POPC   C2B36560  22.493  13.348   8.207
 2786POPC   C3B36561  22.697  13.530   7.873
 2786POPC   C4B36562  22.940  13.886   7.930
 2787POPC   NC336563  21.196  34.293   9.435
 2787POPC   PO436564  20.860  33.737   9.255
 2787POPC   GL136565  21.097  34.025   9.005
 2787POPC   GL236566  20.919  34.355   8.991
 2787POPC   C1A36567  21.322  33.864   8.636
 2787POPC   D2A36568  21.189  33.581   8.296
 2787POPC   C3A36569  21.462  33.706   7.982
 2787POPC   C4A36570  21.745  34.023   7.794
 2787POPC   C1B36571  20.878  34.166   8.555
 2787POPC   C2B36572  21.137  34.102   8.172
 2787POPC   C3B36573  21.222  34.064   7.719
 2787POPC   C4B36574  21.021  34.061   7.306
 2788POPC   NC336575   8.579   3.731   9.514
 2788POPC   PO436576   8.462   3.094   9.351
 2788POPC   GL136577   8.155   3.370   9.151
 2788POPC   GL236578   8.335   3.679   9.064
 2788POPC   C1A36579   8.008   3.476   8.713
 2788POPC   D2A36580   8.180   3.494   8.310
 2788POPC   C3A36581   7.977   3.698   7.989
 2788POPC   C4A36582   7.879   3.494   7.586
 2788POPC   C1B36583   8.529   3.722   8.643
 2788POPC   C2B36584   8.374   3.971   8.274
 2788POPC   C3B36585   8.490   3.774   7.914
 2788POPC   C4B36586   8.373   3.632   7.512
 2789POPC   NC336587  12.888  32.292   9.526
 2789POPC   PO436588  13.079  31.635   9.442
 2789POPC   GL136589  13.094  32.003   9.113
 2789POPC   GL236590  13.130  32.399   9.088
 2789POPC   C1A36591  12.823  32.164   8.741
 2789POPC   D2A36592  12.890  32.161   8.284
 2789POPC   C3A36593  12.574  32.115   7.968
 2789POPC   C4A36594  12.568  32.283   7.519
 2789POPC   C1B36595  13.262  32.445   8.686
 2789POPC   C2B36596  13.391  32.706   8.356
 2789POPC   C3B36597  13.194  32.502   8.023
 2789POPC   C4B36598  13.049  32.177   7.751
 2790POPC   NC336599  29.240   0.436   9.523
 2790POPC   PO436600  28.701   0.210   9.540
 2790POPC   GL136601  28.884   0.344   9.129
 2790POPC   GL236602  29.114   0.655   9.073
 2790POPC   C1A36603  28.847   0.486   8.683
 2790POPC   D2A36604  29.151   0.408   8.369
 2790POPC   C3A36605  28.960   0.329   7.999
 2790POPC   C4A36606  28.968   0.485   7.642
 2790POPC   C1B36607  29.384   0.347   8.822
 2790POPC   C2B36608  29.641   0.317   8.422
 2790POPC   C3B36609  29.500   0.361   7.991
 2790POPC   C4B36610  29.335   0.108   7.661
 2791POPC   NC336611  40.550  24.083   9.673
 2791POPC   PO436612  41.041  24.538   9.589
 2791POPC   GL136613  40.872  24.550   9.127
 2791POPC   GL236614  40.616  24.302   9.208
 2791POPC   C1A36615  41.103  24.483   8.694
 2791POPC   D2A36616  41.217  24.570   8.291
 2791POPC   C3A36617  40.886  24.646   8.001
 2791POPC   C4A36618  40.533  24.812   7.815
 2791POPC   C1B36619  40.674  24.195   8.792
 2791POPC   C2B36620  40.746  24.294   8.379
 2791POPC   C3B36621  40.727  24.124   7.987
 2791POPC   C4B36622  40.745  24.337   7.613
 2792POPC   NC336623  13.979  17.208   9.440
 2792POPC   PO436624  13.509  16.764   9.524
 2792POPC   GL136625  13.503  16.728   9.094
 2792POPC   GL236626  13.543  16.377   9.029
 2792POPC   C1A36627  13.597  16.941   8.699
 2792POPC   D2A36628  13.595  16.740   8.300
 2792POPC   C3A36629  13.622  16.971   7.911
 2792POPC   C4A36630  13.392  16.895   7.531
 2792POPC   C1B36631  13.923  16.545   8.779
 2792POPC   C2B36632  14.046  16.502   8.332
 2792POPC   C3B36633  13.873  16.508   7.887
 2792POPC   C4B36634  14.037  16.363   7.472
 2793POPC   NC336635  43.996  36.279   9.453
 2793POPC   PO436636  43.366  36.559   9.478
 2793POPC   GL136637  43.629  36.474   9.059
 2793POPC   GL236638  43.979  36.326   8.957
 2793POPC   C1A36639  43.705  36.435   8.568
 2793POPC   D2A36640  43.779  36.093   8.260
 2793POPC   C3A36641  43.621  36.177   7.834
 2793POPC   C4A36642  43.888  36.328   7.505
 2793POPC   C1B36643  44.061  35.918   8.678
 2793POPC   C2B36644  44.269  35.914   8.305
 2793POPC   C3B36645  44.130  36.021   7.884
 2793POPC   C4B36646  44.387  36.030   7.535
 2794POPC   NC336647  29.391  31.857   9.590
 2794POPC   PO436648  29.630  32.546   9.513
 2794POPC   GL136649  29.790  32.417   9.107
 2794POPC   GL236650  29.937  32.074   9.061
 2794POPC   C1A36651  29.630  32.343   8.721
 2794POPC   D2A36652  29.826  32.084   8.461
 2794POPC   C3A36653  29.621  32.145   8.094
 2794POPC   C4A36654  29.856  32.137   7.725
 2794POPC   C1B36655  30.167  32.330   8.772
 2794POPC   C2B36656  30.042  32.592   8.463
 2794POPC   C3B36657  30.007  32.486   8.066
 2794POPC   C4B36658  30.096  32.617   7.669
 2795POPC   NC336659  17.280  34.883   9.517
 2795POPC   PO436660  17.576  34.241   9.575
 2795POPC   GL136661  17.514  34.360   9.135
 2795POPC   GL236662  17.549  34.693   9.120
 2795POPC   C1A36663  17.790  34.447   8.753
 2795POPC   D2A36664  17.789  34.864   8.579
 2795POPC   C3A36665  17.755  34.861   8.116
 2795POPC   C4A36666  17.699  34.759   7.667
 2795POPC   C1B36667  17.323  34.627   8.731
 2795POPC   C2B36668  17.317  34.806   8.355
 2795POPC   C3B36669  17.228  34.754   7.935
 2795POPC   C4B36670  17.081  34.462   7.679
 2796POPC   NC336671   4.011  38.440   9.389
 2796POPC   PO436672   4.519  38.115   9.567
 2796POPC   GL136673   4.522  38.275   9.120
 2796POPC   GL236674   4.262  38.512   8.941
 2796POPC   C1A36675   4.556  38.207   8.683
 2796POPC   D2A36676   4.282  38.434   8.396
 2796POPC   C3A36677   4.420  38.285   7.998
 2796POPC   C4A36678   4.173  38.277   7.651
 2796POPC   C1B36679   4.404  38.854   8.674
 2796POPC   C2B36680   4.454  38.948   8.262
 2796POPC   C3B36681   4.213  38.744   7.963
 2796POPC   C4B36682   4.137  38.799   7.553
 2797POPC   NC336683  39.525  44.086   9.493
 2797POPC   PO436684  38.898  44.015   9.590
 2797POPC   GL136685  39.128  43.802   9.251
 2797POPC   GL236686  39.473  43.592   9.296
 2797POPC   C1A36687  39.114  44.023   8.849
 2797POPC   D2A36688  39.094  43.805   8.416
 2797POPC   C3A36689  38.880  43.985   8.149
 2797POPC   C4A36690  38.692  44.214   7.768
 2797POPC   C1B36691  39.721  43.612   8.899
 2797POPC   C2B36692  39.581  43.512   8.428
 2797POPC   C3B36693  39.363  43.343   8.029
 2797POPC   C4B36694  39.392  43.400   7.566
 2798POPC   NC336695  43.627  20.461   9.555
 2798POPC   PO436696  42.925  20.604   9.504
 2798POPC   GL136697  43.183  20.656   9.149
 2798POPC   GL236698  43.411  20.391   9.092
 2798POPC   C1A36699  43.049  20.644   8.743
 2798POPC   D2A36700  42.970  20.852   8.379
 2798POPC   C3A36701  43.002  20.580   8.041
 2798POPC   C4A36702  42.864  20.543   7.633
 2798POPC   C1B36703  43.559  20.592   8.723
 2798POPC   C2B36704  43.419  20.497   8.333
 2798POPC   C3B36705  43.598  20.381   7.971
 2798POPC   C4B36706  43.443  20.672   7.724
 2799POPC   NC336707   8.516  24.827   9.318
 2799POPC   PO436708   9.169  25.119   9.507
 2799POPC   GL136709   8.946  25.189   9.147
 2799POPC   GL236710   9.045  25.488   8.950
 2799POPC   C1A36711   8.964  25.034   8.713
 2799POPC   D2A36712   8.926  25.246   8.350
 2799POPC   C3A36713   8.900  25.087   7.946
 2799POPC   C4A36714   8.999  25.471   7.704
 2799POPC   C1B36715   8.611  25.402   8.823
 2799POPC   C2B36716   8.470  25.054   8.544
 2799POPC   C3B36717   8.341  25.042   8.118
 2799POPC   C4B36718   8.509  25.403   7.871
 2800POPC   NC336719   1.417  17.245   9.239
 2800POPC   PO436720   1.190  17.881   9.365
 2800POPC   GL136721   1.119  17.642   9.044
 2800POPC   GL236722   0.756  17.628   9.075
 2800POPC   C1A36723   1.241  17.547   8.619
 2800POPC   D2A36724   1.584  17.648   8.346
 2800POPC   C3A36725   1.525  17.452   7.944
 2800POPC   C4A36726   1.204  17.180   7.807
 2800POPC   C1B36727   0.836  17.854   8.677
 2800POPC   C2B36728   1.015  17.857   8.241
 2800POPC   C3B36729   1.066  17.673   7.805
 2800POPC   C4B36730   0.914  17.545   7.358
 2801POPC   NC336731   5.936  40.944   9.466
 2801POPC   PO436732   5.507  40.462   9.330
 2801POPC   GL136733   5.561  40.877   9.115
 2801POPC   GL236734   5.861  40.709   9.001
 2801POPC   C1A36735   5.746  41.111   8.717
 2801POPC   D2A36736   5.531  41.081   8.303
 2801POPC   C3A36737   5.723  41.037   7.888
 2801POPC   C4A36738   5.944  40.708   7.624
 2801POPC   C1B36739   5.513  40.663   8.653
 2801POPC   C2B36740   5.487  40.512   8.223
 2801POPC   C3B36741   5.498  40.567   7.805
 2801POPC   C4B36742   5.498  40.472   7.328
 2802POPC   NC336743  13.625  40.594   9.434
 2802POPC   PO436744  13.416  41.153   9.209
 2802POPC   GL136745  13.671  40.917   9.037
 2802POPC   GL236746  13.425  40.721   8.921
 2802POPC   C1A36747  13.835  40.910   8.639
 2802POPC   D2A36748  13.553  40.839   8.297
 2802POPC   C3A36749  13.776  40.882   7.912
 2802POPC   C4A36750  14.065  40.600   7.794
 2802POPC   C1B36751  13.661  40.445   8.732
 2802POPC   C2B36752  13.607  40.291   8.347
 2802POPC   C3B36753  13.486  40.449   7.961
 2802POPC   C4B36754  13.225  40.790   7.878
 2803POPC   NC336755  23.452  34.839   9.389
 2803POPC   PO436756  23.848  34.295   9.438
 2803POPC   GL136757  23.641  34.400   9.062
 2803POPC   GL236758  23.733  34.733   8.969
 2803POPC   C1A36759  23.784  34.321   8.643
 2803POPC   D2A36760  23.882  34.500   8.266
 2803POPC   C3A36761  23.943  34.217   7.960
 2803POPC   C4A36762  23.628  34.382   7.752
 2803POPC   C1B36763  23.467  34.709   8.606
 2803POPC   C2B36764  23.483  34.898   8.227
 2803POPC   C3B36765  23.748  34.922   7.910
 2803POPC   C4B36766  23.648  34.868   7.508
 2804POPC   NC336767   2.764  13.906   9.409
 2804POPC   PO436768   2.817  13.254   9.510
 2804POPC   GL136769   2.690  13.230   9.103
 2804POPC   GL236770   2.499  13.538   9.083
 2804POPC   C1A36771   2.809  13.352   8.700
 2804POPC   D2A36772   2.844  13.646   8.386
 2804POPC   C3A36773   2.793  13.392   8.110
 2804POPC   C4A36774   2.578  13.215   7.802
 2804POPC   C1B36775   2.645  13.891   8.782
 2804POPC   C2B36776   2.473  14.042   8.404
 2804POPC   C3B36777   2.420  13.748   8.090
 2804POPC   C4B36778   2.667  13.719   7.735
 2805POPC   NC336779   9.760  13.137   9.361
 2805POPC   PO436780  10.074  12.497   9.291
 2805POPC   GL136781   9.836  12.721   9.065
 2805POPC   GL236782   9.512  12.746   9.136
 2805POPC   C1A36783   9.903  12.880   8.691
 2805POPC   D2A36784  10.106  12.956   8.308
 2805POPC   C3A36785   9.763  12.994   8.007
 2805POPC   C4A36786   9.675  12.947   7.552
 2805POPC   C1B36787   9.352  12.844   8.728
 2805POPC   C2B36788   9.387  12.742   8.301
 2805POPC   C3B36789   9.563  12.533   7.940
 2805POPC   C4B36790   9.387  12.482   7.530
 2806POPC   NC336791  14.895  29.608   9.605
 2806POPC   PO436792  14.962  28.936   9.471
 2806POPC   GL136793  15.137  29.174   9.156
 2806POPC   GL236794  15.318  29.398   9.338
 2806POPC   C1A36795  15.219  29.185   8.736
 2806POPC   D2A36796  15.413  29.248   8.376
 2806POPC   C3A36797  15.182  29.142   8.047
 2806POPC   C4A36798  15.338  28.972   7.685
 2806POPC   C1B36799  15.412  29.604   8.968
 2806POPC   C2B36800  15.380  29.717   8.543
 2806POPC   C3B36801  15.539  29.671   8.126
 2806POPC   C4B36802  15.413  29.475   7.733
 2807POPC   NC336803  11.580   5.726   9.483
 2807POPC   PO436804  11.038   5.967   9.292
 2807POPC   GL136805  11.340   5.732   9.029
 2807POPC   GL236806  11.630   5.928   8.991
 2807POPC   C1A36807  11.326   5.610   8.589
 2807POPC   D2A36808  11.501   5.649   8.180
 2807POPC   C3A36809  11.288   5.828   7.856
 2807POPC   C4A36810  11.512   5.881   7.491
 2807POPC   C1B36811  11.325   6.127   8.696
 2807POPC   C2B36812  11.086   6.031   8.317
 2807POPC   C3B36813  10.916   6.212   7.920
 2807POPC   C4B36814  11.118   6.218   7.504
 2808POPC   NC336815  15.048  41.589   9.734
 2808POPC   PO436816  15.134  42.148   9.494
 2808POPC   GL136817  15.106  41.853   9.171
 2808POPC   GL236818  15.402  41.715   9.123
 2808POPC   C1A36819  15.038  41.802   8.723
 2808POPC   D2A36820  15.048  41.538   8.370
 2808POPC   C3A36821  15.077  41.743   7.984
 2808POPC   C4A36822  14.797  41.892   7.673
 2808POPC   C1B36823  15.411  41.454   8.743
 2808POPC   C2B36824  15.557  41.392   8.337
 2808POPC   C3B36825  15.322  41.288   7.991
 2808POPC   C4B36826  15.165  41.451   7.582
 2809POPC   NC336827  42.368  18.852   9.763
 2809POPC   PO436828  42.417  18.211   9.490
 2809POPC   GL136829  42.358  18.171   9.094
 2809POPC   GL236830  42.151  17.935   9.081
 2809POPC   C1A36831  42.233  18.320   8.698
 2809POPC   D2A36832  42.199  18.127   8.285
 2809POPC   C3A36833  42.541  18.283   8.018
 2809POPC   C4A36834  42.450  18.460   7.633
 2809POPC   C1B36835  42.273  17.783   8.697
 2809POPC   C2B36836  41.978  17.644   8.375
 2809POPC   C3B36837  41.984  17.745   7.957
 2809POPC   C4B36838  42.355  17.907   7.729
 2810POPC   NC336839  31.745  15.471   9.187
 2810POPC   PO436840  31.310  15.183   9.554
 2810POPC   GL136841  31.349  14.910   9.187
 2810POPC   GL236842  31.699  14.927   9.128
 2810POPC   C1A36843  31.322  15.060   8.740
 2810POPC   D2A36844  31.525  15.366   8.419
 2810POPC   C3A36845  31.390  15.494   7.937
 2810POPC   C4A36846  31.138  15.450   7.498
 2810POPC   C1B36847  31.694  14.659   8.785
 2810POPC   C2B36848  31.597  14.804   8.407
 2810POPC   C3B36849  31.409  15.012   8.080
 2810POPC   C4B36850  31.393  15.032   7.638
 2811POPC   NC336851  35.647   1.055   9.395
 2811POPC   PO436852  35.038   1.140   9.428
 2811POPC   GL136853  35.266   1.296   9.100
 2811POPC   GL236854  35.549   1.486   9.112
 2811POPC   C1A36855  35.152   1.335   8.696
 2811POPC   D2A36856  35.069   0.997   8.450
 2811POPC   C3A36857  35.089   1.098   8.032
 2811POPC   C4A36858  35.218   1.433   7.755
 2811POPC   C1B36859  35.666   1.252   8.727
 2811POPC   C2B36860  35.567   0.985   8.326
 2811POPC   C3B36861  35.636   1.143   7.928
 2811POPC   C4B36862  35.732   1.548   7.830
 2812POPC   NC336863  17.952  34.170   9.319
 2812POPC   PO436864  17.371  33.662   9.428
 2812POPC   GL136865  17.459  33.865   9.132
 2812POPC   GL236866  17.618  33.587   8.973
 2812POPC   C1A36867  17.224  33.986   8.791
 2812POPC   D2A36868  17.287  33.624   8.520
 2812POPC   C3A36869  17.183  33.636   8.070
 2812POPC   C4A36870  17.285  33.998   7.805
 2812POPC   C1B36871  17.708  33.931   8.675
 2812POPC   C2B36872  17.464  34.245   8.405
 2812POPC   C3B36873  17.569  34.380   8.002
 2812POPC   C4B36874  17.812  34.066   7.820
 2813POPC   NC336875  27.062  34.042   9.772
 2813POPC   PO436876  26.769  33.479   9.382
 2813POPC   GL136877  26.669  33.649   9.059
 2813POPC   GL236878  27.017  33.567   8.893
 2813POPC   C1A36879  26.644  33.899   8.738
 2813POPC   D2A36880  26.898  33.763   8.400
 2813POPC   C3A36881  26.826  33.952   8.047
 2813POPC   C4A36882  26.686  33.917   7.639
 2813POPC   C1B36883  26.699  33.284   8.705
 2813POPC   C2B36884  26.558  33.117   8.303
 2813POPC   C3B36885  26.708  33.411   7.974
 2813POPC   C4B36886  27.151  33.386   7.925
 2814POPC   NC336887   3.917  12.730   9.461
 2814POPC   PO436888   4.598  12.812   9.622
 2814POPC   GL136889   4.403  12.822   9.181
 2814POPC   GL236890   4.148  13.063   9.132
 2814POPC   C1A36891   4.396  12.880   8.720
 2814POPC   D2A36892   4.557  13.084   8.329
 2814POPC   C3A36893   4.538  12.755   8.027
 2814POPC   C4A36894   4.496  12.559   7.621
 2814POPC   C1B36895   3.879  12.909   8.778
 2814POPC   C2B36896   3.684  12.935   8.370
 2814POPC   C3B36897   3.865  12.904   7.956
 2814POPC   C4B36898   4.212  13.014   7.724
 2815POPC   NC336899  42.234  19.613   9.465
 2815POPC   PO436900  42.475  20.208   9.303
 2815POPC   GL136901  42.063  19.971   9.121
 2815POPC   GL236902  41.969  19.593   9.043
 2815POPC   C1A36903  42.101  19.906   8.675
 2815POPC   D2A36904  42.339  19.737   8.347
 2815POPC   C3A36905  42.334  19.845   7.946
 2815POPC   C4A36906  42.638  20.044   7.709
 2815POPC   C1B36907  42.280  19.411   8.734
 2815POPC   C2B36908  42.345  19.235   8.289
 2815POPC   C3B36909  42.069  19.389   7.948
 2815POPC   C4B36910  41.851  19.755   7.758
 2816POPC   NC336911   0.794   2.888   9.260
 2816POPC   PO436912   1.351   2.746   9.584
 2816POPC   GL136913   1.226   2.609   9.192
 2816POPC   GL236914   1.263   2.951   9.021
 2816POPC   C1A36915   1.444   2.437   8.870
 2816POPC   D2A36916   1.547   2.729   8.558
 2816POPC   C3A36917   1.386   2.651   8.156
 2816POPC   C4A36918   1.451   2.919   7.821
 2816POPC   C1B36919   1.047   2.703   8.699
 2816POPC   C2B36920   0.865   2.610   8.344
 2816POPC   C3B36921   0.909   2.798   7.974
 2816POPC   C4B36922   1.096   2.582   7.702
 2817POPC   NC336923  34.568  22.585   9.453
 2817POPC   PO436924  34.138  23.095   9.467
 2817POPC   GL136925  34.403  22.967   9.128
 2817POPC   GL236926  34.690  23.223   9.030
 2817POPC   C1A36927  34.355  22.818   8.735
 2817POPC   D2A36928  34.312  23.038   8.373
 2817POPC   C3A36929  34.334  22.901   7.952
 2817POPC   C4A36930  34.228  23.215   7.639
 2817POPC   C1B36931  34.863  22.861   8.853
 2817POPC   C2B36932  34.762  22.753   8.425
 2817POPC   C3B36933  34.874  22.925   8.043
 2817POPC   C4B36934  34.967  22.774   7.628
 2818POPC   NC336935  40.195  32.441   9.512
 2818POPC   PO436936  39.848  31.815   9.551
 2818POPC   GL136937  39.916  32.096   9.218
 2818POPC   GL236938  40.246  32.035   9.139
 2818POPC   C1A36939  39.907  32.204   8.794
 2818POPC   D2A36940  40.112  32.032   8.468
 2818POPC   C3A36941  39.848  32.125   8.159
 2818POPC   C4A36942  39.938  32.116   7.756
 2818POPC   C1B36943  40.373  32.404   8.873
 2818POPC   C2B36944  40.230  32.535   8.476
 2818POPC   C3B36945  40.271  32.384   8.087
 2818POPC   C4B36946  40.394  32.327   7.672
 2819POPC   NC336947  32.171  42.062   9.563
 2819POPC   PO436948  32.235  42.769   9.797
 2819POPC   GL136949  32.157  42.494   9.298
 2819POPC   GL236950  32.064  42.698   8.954
 2819POPC   C1A36951  32.133  42.206   8.881
 2819POPC   D2A36952  31.899  42.169   8.467
 2819POPC   C3A36953  32.111  42.233   8.052
 2819POPC   C4A36954  32.105  42.004   7.653
 2819POPC   C1B36955  32.433  42.654   8.754
 2819POPC   C2B36956  32.489  42.419   8.407
 2819POPC   C3B36957  32.644  42.514   8.009
 2819POPC   C4B36958  32.429  42.568   7.650
 2820POPC   NC336959  30.295  30.080   9.385
 2820POPC   PO436960  29.661  29.922   9.499
 2820POPC   GL136961  29.868  29.915   9.156
 2820POPC   GL236962  29.963  30.225   8.998
 2820POPC   C1A36963  29.807  29.808   8.761
 2820POPC   D2A36964  29.927  30.100   8.458
 2820POPC   C3A36965  29.802  29.909   8.089
 2820POPC   C4A36966  29.870  30.038   7.689
 2820POPC   C1B36967  30.369  30.148   8.771
 2820POPC   C2B36968  30.531  30.113   8.392
 2820POPC   C3B36969  30.265  30.156   8.042
 2820POPC   C4B36970  30.375  30.117   7.624
 2821POPC   NC336971   5.309  23.265   9.554
 2821POPC   PO436972   5.063  22.566   9.513
 2821POPC   GL136973   5.187  22.791   9.134
 2821POPC   GL236974   5.435  23.082   9.106
 2821POPC   C1A36975   5.095  23.043   8.729
 2821POPC   D2A36976   5.084  23.186   8.288
 2821POPC   C3A36977   5.047  22.838   7.982
 2821POPC   C4A36978   4.931  22.970   7.539
 2821POPC   C1B36979   5.552  22.792   8.788
 2821POPC   C2B36980   5.385  22.699   8.393
 2821POPC   C3B36981   5.532  22.996   8.109
 2821POPC   C4B36982   5.308  23.235   7.800
 2822POPC   NC336983  16.493  38.059   9.500
 2822POPC   PO436984  17.090  38.399   9.506
 2822POPC   GL136985  16.727  38.345   9.163
 2822POPC   GL236986  16.956  38.354   8.972
 2822POPC   C1A36987  16.488  38.406   8.731
 2822POPC   D2A36988  16.507  38.575   8.295
 2822POPC   C3A36989  16.374  38.487   7.845
 2822POPC   C4A36990  16.680  38.359   7.499
 2822POPC   C1B36991  16.914  38.677   8.714
 2822POPC   C2B36992  17.018  38.492   8.381
 2822POPC   C3B36993  17.279  38.404   8.084
 2822POPC   C4B36994  17.123  38.552   7.714
 2823POPC   NC336995  17.405   3.966  10.021
 2823POPC   PO436996  17.381   3.465   9.573
 2823POPC   GL136997  17.528   3.371   9.176
 2823POPC   GL236998  17.780   3.646   9.170
 2823POPC   C1A36999  17.589   3.156   8.805
 2823POPC   D2A37000  17.481   3.297   8.439
 2823POPC   C3A37001  17.601   3.135   8.083
 2823POPC   C4A37002  17.513   3.323   7.719
 2823POPC   C1B37003  17.493   3.688   8.795
 2823POPC   C2B37004  17.599   3.784   8.381
 2823POPC   C3B37005  17.447   3.753   7.991
 2823POPC   C4B37006  17.660   3.795   7.581
 2824POPC   NC337007  15.155  44.793   9.630
 2824POPC   PO437008  15.544  44.274   9.679
 2824POPC   GL137009  15.455  44.562   9.289
 2824POPC   GL237010  15.093  44.639   9.169
 2824POPC   C1A37011  15.483  44.754   8.890
 2824POPC   D2A37012  15.228  44.978   8.628
 2824POPC   C3A37013  15.313  44.739   8.257
 2824POPC   C4A37014  15.340  44.715   7.819
 2824POPC   C1B37015  15.102  44.457   8.739
 2824POPC   C2B37016  15.020  44.294   8.367
 2824POPC   C3B37017  14.891  44.428   8.013
 2824POPC   C4B37018  15.031  44.376   7.639
 2825POPC   NC337019   0.646  26.094   9.539
 2825POPC   PO437020   0.052  25.975   9.466
 2825POPC   GL137021   0.354  26.001   9.119
 2825POPC   GL237022   0.675  25.808   9.126
 2825POPC   C1A37023   0.321  26.126   8.695
 2825POPC   D2A37024   0.369  25.888   8.326
 2825POPC   C3A37025   0.439  26.138   7.983
 2825POPC   C4A37026   0.329  25.988   7.607
 2825POPC   C1B37027   0.895  25.835   8.779
 2825POPC   C2B37028   0.836  25.674   8.415
 2825POPC   C3B37029   0.812  25.796   8.049
 2825POPC   C4B37030   0.695  25.670   7.688
 2826POPC   NC337031  27.830  31.275   9.414
 2826POPC   PO437032  27.395  31.736   9.654
 2826POPC   GL137033  27.502  31.646   9.243
 2826POPC   GL237034  27.821  31.843   9.286
 2826POPC   C1A37035  27.387  31.387   8.849
 2826POPC   D2A37036  27.215  31.259   8.421
 2826POPC   C3A37037  27.491  31.345   8.064
 2826POPC   C4A37038  27.778  31.398   7.722
 2826POPC   C1B37039  27.788  31.776   8.841
 2826POPC   C2B37040  27.918  31.632   8.454
 2826POPC   C3B37041  27.973  31.761   8.036
 2826POPC   C4B37042  27.943  31.923   7.637
 2827POPC   NC337043  14.090   8.119   9.707
 2827POPC   PO437044  13.470   8.510   9.526
 2827POPC   GL137045  13.382   8.377   9.089
 2827POPC   GL237046  13.609   8.634   8.983
 2827POPC   C1A37047  13.447   8.241   8.643
 2827POPC   D2A37048  13.389   8.389   8.183
 2827POPC   C3A37049  13.635   8.236   7.828
 2827POPC   C4A37050  13.539   8.457   7.418
 2827POPC   C1B37051  13.923   8.425   8.710
 2827POPC   C2B37052  13.876   8.301   8.329
 2827POPC   C3B37053  13.963   8.569   8.038
 2827POPC   C4B37054  14.129   8.421   7.676
 2828POPC   NC337055  31.971  11.221   9.646
 2828POPC   PO437056  32.624  11.097   9.647
 2828POPC   GL137057  32.362  11.203   9.281
 2828POPC   GL237058  32.093  11.030   9.170
 2828POPC   C1A37059  32.299  11.408   8.873
 2828POPC   D2A37060  32.440  11.497   8.463
 2828POPC   C3A37061  32.253  11.511   8.032
 2828POPC   C4A37062  32.404  11.436   7.592
 2828POPC   C1B37063  32.171  10.900   8.754
 2828POPC   C2B37064  32.346  11.007   8.336
 2828POPC   C3B37065  32.457  11.048   7.913
 2828POPC   C4B37066  32.152  10.992   7.600
 2829POPC   NC337067  19.417  38.940   9.273
 2829POPC   PO437068  18.953  39.273   9.646
 2829POPC   GL137069  18.917  39.183   9.212
 2829POPC   GL237070  18.884  39.535   9.081
 2829POPC   C1A37071  18.857  38.946   8.811
 2829POPC   D2A37072  18.824  39.121   8.396
 2829POPC   C3A37073  18.848  38.860   8.056
 2829POPC   C4A37074  19.071  38.932   7.698
 2829POPC   C1B37075  19.149  39.385   8.768
 2829POPC   C2B37076  19.360  39.447   8.394
 2829POPC   C3B37077  19.137  39.351   8.033
 2829POPC   C4B37078  19.318  39.367   7.669
 2830POPC   NC337079  41.757  24.315   9.558
 2830POPC   PO437080  41.345  24.768   9.227
 2830POPC   GL137081  41.672  24.681   8.979
 2830POPC   GL237082  41.790  24.353   9.040
 2830POPC   C1A37083  41.739  24.628   8.543
 2830POPC   D2A37084  41.648  24.807   8.167
 2830POPC   C3A37085  41.473  24.611   7.840
 2830POPC   C4A37086  41.200  24.296   7.837
 2830POPC   C1B37087  41.601  24.164   8.659
 2830POPC   C2B37088  41.644  24.272   8.193
 2830POPC   C3B37089  41.665  24.052   7.806
 2830POPC   C4B37090  41.738  23.959   7.365
 2831POPC   NC337091  31.509  16.392   9.497
 2831POPC   PO437092  31.831  15.800   9.539
 2831POPC   GL137093  31.687  15.962   9.125
 2831POPC   GL237094  31.451  16.202   9.033
 2831POPC   C1A37095  31.521  15.847   8.685
 2831POPC   D2A37096  31.248  15.870   8.331
 2831POPC   C3A37097  31.423  16.019   7.966
 2831POPC   C4A37098  31.417  15.858   7.562
 2831POPC   C1B37099  31.163  16.255   8.674
 2831POPC   C2B37100  31.116  16.502   8.327
 2831POPC   C3B37101  31.065  16.399   7.892
 2831POPC   C4B37102  31.398  16.357   7.573
 2832POPC   NC337103  11.173   2.315   9.717
 2832POPC   PO437104  11.493   1.741   9.473
 2832POPC   GL137105  11.308   1.941   9.127
 2832POPC   GL237106  11.096   2.229   9.192
 2832POPC   C1A37107  11.407   2.060   8.710
 2832POPC   D2A37108  11.330   1.786   8.372
 2832POPC   C3A37109  11.294   1.927   7.961
 2832POPC   C4A37110  11.610   2.078   7.694
 2832POPC   C1B37111  10.960   2.354   8.767
 2832POPC   C2B37112  11.056   2.234   8.340
 2832POPC   C3B37113  10.860   2.183   7.920
 2832POPC   C4B37114  11.097   2.241   7.521
 2833POPC   NC337115   9.634   2.679   9.303
 2833POPC   PO437116   9.917   3.299   9.513
 2833POPC   GL137117   9.865   3.127   9.087
 2833POPC   GL237118  10.108   2.866   9.005
 2833POPC   C1A37119   9.729   3.007   8.660
 2833POPC   D2A37120   9.833   2.844   8.219
 2833POPC   C3A37121   9.544   2.892   7.873
 2833POPC   C4A37122   9.570   3.139   7.506
 2833POPC   C1B37123   9.917   2.525   8.709
 2833POPC   C2B37124   9.881   2.314   8.299
 2833POPC   C3B37125  10.098   2.371   7.928
 2833POPC   C4B37126   9.951   2.680   7.663
 2834POPC   NC337127  43.700   6.230   9.498
 2834POPC   PO437128  44.059   6.895   9.531
 2834POPC   GL137129  43.927   6.639   9.232
 2834POPC   GL237130  43.684   6.839   9.035
 2834POPC   C1A37131  44.109   6.602   8.862
 2834POPC   D2A37132  43.936   6.667   8.462
 2834POPC   C3A37133  44.077   6.394   8.135
 2834POPC   C4A37134  44.093   6.682   7.748
 2834POPC   C1B37135  43.603   6.426   8.809
 2834POPC   C2B37136  43.591   6.269   8.362
 2834POPC   C3B37137  43.613   6.585   8.037
 2834POPC   C4B37138  43.456   6.700   7.660
 2835POPC   NC337139  11.771  23.315   9.448
 2835POPC   PO437140  12.108  22.681   9.512
 2835POPC   GL137141  11.973  22.890   9.132
 2835POPC   GL237142  12.142  23.208   9.099
 2835POPC   C1A37143  12.125  22.910   8.684
 2835POPC   D2A37144  12.335  23.162   8.347
 2835POPC   C3A37145  12.252  23.023   7.916
 2835POPC   C4A37146  11.900  22.841   7.703
 2835POPC   C1B37147  11.759  23.237   8.822
 2835POPC   C2B37148  11.673  23.354   8.403
 2835POPC   C3B37149  11.796  23.277   7.959
 2835POPC   C4B37150  11.844  23.294   7.462
 2836POPC   NC337151   9.661  12.410   9.484
 2836POPC   PO437152  10.006  11.797   9.581
 2836POPC   GL137153   9.881  11.895   9.155
 2836POPC   GL237154   9.587  12.131   9.066
 2836POPC   C1A37155   9.998  12.036   8.742
 2836POPC   D2A37156   9.693  11.998   8.427
 2836POPC   C3A37157   9.759  11.754   8.078
 2836POPC   C4A37158  10.135  11.737   7.859
 2836POPC   C1B37159   9.633  12.423   8.715
 2836POPC   C2B37160   9.882  12.488   8.354
 2836POPC   C3B37161   9.976  12.221   8.023
 2836POPC   C4B37162   9.757  12.163   7.656
 2837POPC   NC337163  24.458  24.970   9.401
 2837POPC   PO437164  24.812  25.570   9.562
 2837POPC   GL137165  24.559  25.537   9.174
 2837POPC   GL237166  24.603  25.210   8.986
 2837POPC   C1A37167  24.412  25.610   8.747
 2837POPC   D2A37168  24.334  25.713   8.315
 2837POPC   C3A37169  24.377  25.335   8.057
 2837POPC   C4A37170  24.688  25.447   7.754
 2837POPC   C1B37171  24.434  24.926   8.704
 2837POPC   C2B37172  24.590  24.860   8.289
 2837POPC   C3B37173  24.717  24.945   7.855
 2837POPC   C4B37174  24.358  25.062   7.570
 2838POPC   NC337175  24.875   0.456   9.479
 2838POPC   PO437176  25.371  44.974   9.310
 2838POPC   GL137177  25.289   0.430   9.118
 2838POPC   GL237178  24.969   0.683   9.060
 2838POPC   C1A37179  25.204   0.444   8.670
 2838POPC   D2A37180  24.905   0.307   8.377
 2838POPC   C3A37181  25.112   0.280   7.989
 2838POPC   C4A37182  25.437   0.501   7.770
 2838POPC   C1B37183  25.058   0.923   8.720
 2838POPC   C2B37184  25.228   0.912   8.323
 2838POPC   C3B37185  25.075   0.815   7.924
 2838POPC   C4B37186  25.117   0.737   7.443
 2839POPC   NC337187  17.447  41.053   9.411
 2839POPC   PO437188  17.697  40.481   9.536
 2839POPC   GL137189  17.612  40.663   9.150
 2839POPC   GL237190  17.295  40.599   9.160
 2839POPC   C1A37191  17.669  40.891   8.780
 2839POPC   D2A37192  17.773  40.859   8.365
 2839POPC   C3A37193  17.539  41.114   8.077
 2839POPC   C4A37194  17.431  41.028   7.628
 2839POPC   C1B37195  17.134  40.758   8.783
 2839POPC   C2B37196  17.295  40.716   8.387
 2839POPC   C3B37197  17.293  40.668   7.960
 2839POPC   C4B37198  16.954  40.716   7.661
 2840POPC   NC337199  36.802  44.061   9.603
 2840POPC   PO437200  36.834  43.438   9.825
 2840POPC   GL137201  36.702  43.613   9.278
 2840POPC   GL237202  36.591  43.953   9.159
 2840POPC   C1A37203  36.920  43.665   8.839
 2840POPC   D2A37204  37.026  43.756   8.397
 2840POPC   C3A37205  36.812  44.019   8.121
 2840POPC   C4A37206  36.937  43.927   7.713
 2840POPC   C1B37207  36.426  43.695   8.849
 2840POPC   C2B37208  36.474  43.839   8.457
 2840POPC   C3B37209  36.506  43.623   8.044
 2840POPC   C4B37210  36.484  43.732   7.624
 2841POPC   NC337211  39.162  17.156   9.673
 2841POPC   PO437212  39.198  16.471   9.536
 2841POPC   GL137213  39.175  16.726   9.137
 2841POPC   GL237214  39.351  17.015   9.203
 2841POPC   C1A37215  39.217  16.872   8.686
 2841POPC   D2A37216  39.466  16.783   8.310
 2841POPC   C3A37217  39.323  16.835   7.881
 2841POPC   C4A37218  38.993  16.774   7.594
 2841POPC   C1B37219  39.469  17.294   8.846
 2841POPC   C2B37220  39.615  17.286   8.437
 2841POPC   C3B37221  39.672  17.164   8.022
 2841POPC   C4B37222  39.431  17.300   7.716
 2842POPC   NC337223  15.336  40.315   9.459
 2842POPC   PO437224  14.985  39.759   9.515
 2842POPC   GL137225  15.165  39.926   9.169
 2842POPC   GL237226  15.224  39.650   8.996
 2842POPC   C1A37227  15.261  40.108   8.783
 2842POPC   D2A37228  15.250  39.935   8.400
 2842POPC   C3A37229  15.309  40.102   7.964
 2842POPC   C4A37230  15.120  39.956   7.583
 2842POPC   C1B37231  15.584  39.617   8.769
 2842POPC   C2B37232  15.597  39.572   8.351
 2842POPC   C3B37233  15.283  39.588   8.033
 2842POPC   C4B37234  15.440  39.574   7.642
 2843POPC   NC337235  27.454   7.083   9.470
 2843POPC   PO437236  27.301   6.337   9.526
 2843POPC   GL137237  27.380   6.627   9.249
 2843POPC   GL237238  27.750   6.663   9.233
 2843POPC   C1A37239  27.370   6.740   8.841
 2843POPC   D2A37240  27.578   6.698   8.462
 2843POPC   C3A37241  27.349   6.807   8.114
 2843POPC   C4A37242  27.459   6.798   7.687
 2843POPC   C1B37243  27.932   6.899   8.880
 2843POPC   C2B37244  28.011   7.004   8.458
 2843POPC   C3B37245  27.847   6.921   8.046
 2843POPC   C4B37246  27.973   6.719   7.675
 2844POPC   NC337247   8.118  30.299   9.453
 2844POPC   PO437248   8.344  30.980   9.477
 2844POPC   GL137249   8.251  30.702   9.152
 2844POPC   GL237250   8.520  30.497   9.198
 2844POPC   C1A37251   8.092  30.473   8.793
 2844POPC   D2A37252   8.136  30.368   8.346
 2844POPC   C3A37253   8.082  30.689   8.006
 2844POPC   C4A37254   8.228  31.025   7.690
 2844POPC   C1B37255   8.596  30.636   8.777
 2844POPC   C2B37256   8.522  30.721   8.336
 2844POPC   C3B37257   8.518  30.405   8.000
 2844POPC   C4B37258   8.634  30.102   7.719
 2845POPC   NC337259   3.793  41.558   9.652
 2845POPC   PO437260   3.176  41.649   9.660
 2845POPC   GL137261   3.410  41.581   9.261
 2845POPC   GL237262   3.083  41.473   9.181
 2845POPC   C1A37263   3.627  41.765   8.849
 2845POPC   D2A37264   3.819  41.920   8.422
 2845POPC   C3A37265   3.679  41.803   7.994
 2845POPC   C4A37266   3.802  41.437   7.771
 2845POPC   C1B37267   3.110  41.689   8.792
 2845POPC   C2B37268   3.337  41.659   8.396
 2845POPC   C3B37269   3.166  41.606   8.002
 2845POPC   C4B37270   3.312  41.356   7.680
 2846POPC   NC337271  31.238  11.825   9.793
 2846POPC   PO437272  31.490  11.144   9.623
 2846POPC   GL137273  31.302  11.114   9.224
 2846POPC   GL237274  31.622  11.228   9.150
 2846POPC   C1A37275  31.289  11.316   8.800
 2846POPC   D2A37276  31.461  11.206   8.424
 2846POPC   C3A37277  31.410  11.397   8.044
 2846POPC   C4A37278  31.311  11.053   7.750
 2846POPC   C1B37279  31.812  11.288   8.803
 2846POPC   C2B37280  31.959  11.324   8.425
 2846POPC   C3B37281  31.883  11.111   8.061
 2846POPC   C4B37282  31.785  11.330   7.716
 2847POPC   NC337283  19.396  31.169   9.991
 2847POPC   PO437284  19.317  31.571   9.374
 2847POPC   GL137285  18.996  31.511   9.016
 2847POPC   GL237286  18.751  31.196   9.026
 2847POPC   C1A37287  18.950  31.549   8.596
 2847POPC   D2A37288  19.167  31.281   8.316
 2847POPC   C3A37289  19.374  31.519   8.010
 2847POPC   C4A37290  19.369  31.451   7.574
 2847POPC   C1B37291  18.706  31.090   8.567
 2847POPC   C2B37292  18.680  31.328   8.183
 2847POPC   C3B37293  18.908  31.347   7.821
 2847POPC   C4B37294  18.696  31.212   7.464
 2848POPC   NC337295  14.035  12.492   9.300
 2848POPC   PO437296  14.382  12.320   9.847
 2848POPC   GL137297  14.402  12.046   9.396
 2848POPC   GL237298  14.685  12.093   9.100
 2848POPC   C1A37299  14.262  11.877   8.957
 2848POPC   D2A37300  14.492  11.907   8.573
 2848POPC   C3A37301  14.250  11.894   8.183
 2848POPC   C4A37302  14.287  11.956   7.735
 2848POPC   C1B37303  14.664  12.401   8.701
 2848POPC   C2B37304  14.550  12.304   8.268
 2848POPC   C3B37305  14.721  11.978   8.002
 2848POPC   C4B37306  14.751  12.172   7.607
 2849POPC   NC337307   7.776  28.621   9.551
 2849POPC   PO437308   7.194  28.132   9.448
 2849POPC   GL137309   7.350  28.113   9.089
 2849POPC   GL237310   7.499  28.435   9.119
 2849POPC   C1A37311   7.261  28.221   8.681
 2849POPC   D2A37312   7.556  28.250   8.359
 2849POPC   C3A37313   7.382  28.191   7.934
 2849POPC   C4A37314   7.398  28.316   7.489
 2849POPC   C1B37315   7.775  28.503   8.792
 2849POPC   C2B37316   8.015  28.495   8.429
 2849POPC   C3B37317   7.835  28.530   8.040
 2849POPC   C4B37318   7.963  28.514   7.646
 2850POPC   NC337319   6.531   1.529   9.632
 2850POPC   PO437320   6.297   2.176   9.488
 2850POPC   GL137321   6.530   1.908   9.188
 2850POPC   GL237322   6.870   1.815   9.289
 2850POPC   C1A37323   6.645   2.052   8.746
 2850POPC   D2A37324   6.563   2.335   8.376
 2850POPC   C3A37325   6.893   2.382   8.072
 2850POPC   C4A37326   6.756   2.237   7.666
 2850POPC   C1B37327   7.093   1.828   8.852
 2850POPC   C2B37328   6.910   1.721   8.437
 2850POPC   C3B37329   6.892   1.854   8.016
 2850POPC   C4B37330   6.770   1.754   7.597
 2851POPC   NC337331   2.413  25.197   9.119
 2851POPC   PO437332   1.867  25.280   9.489
 2851POPC   GL137333   1.936  25.427   9.110
 2851POPC   GL237334   1.912  25.074   8.992
 2851POPC   C1A37335   2.006  25.464   8.676
 2851POPC   D2A37336   1.798  25.319   8.338
 2851POPC   C3A37337   1.954  25.595   8.068
 2851POPC   C4A37338   2.032  25.547   7.632
 2851POPC   C1B37339   2.174  24.992   8.586
 2851POPC   C2B37340   2.281  25.212   8.213
 2851POPC   C3B37341   1.959  25.104   7.877
 2851POPC   C4B37342   2.013  25.020   7.418
 2852POPC   NC337343  23.098   0.278   9.397
 2852POPC   PO437344  22.714   0.845   9.367
 2852POPC   GL137345  23.010   0.772   8.996
 2852POPC   GL237346  23.314   0.567   8.942
 2852POPC   C1A37347  23.036   0.680   8.508
 2852POPC   D2A37348  22.739   0.551   8.144
 2852POPC   C3A37349  22.855   0.568   7.711
 2852POPC   C4A37350  23.040   0.596   7.280
 2852POPC   C1B37351  23.187   0.182   8.745
 2852POPC   C2B37352  22.980   0.083   8.362
 2852POPC   C3B37353  23.195   0.304   8.052
 2852POPC   C4B37354  23.229   0.238   7.645
 2853POPC   NC337355  36.700  27.923   9.392
 2853POPC   PO437356  37.259  28.240   9.583
 2853POPC   GL137357  37.052  28.217   9.125
 2853POPC   GL237358  36.659  28.320   9.081
 2853POPC   C1A37359  36.947  28.324   8.669
 2853POPC   D2A37360  36.632  28.515   8.377
 2853POPC   C3A37361  36.805  28.503   7.971
 2853POPC   C4A37362  37.058  28.163   7.762
 2853POPC   C1B37363  36.552  27.992   8.745
 2853POPC   C2B37364  36.721  27.991   8.303
 2853POPC   C3B37365  36.545  28.031   7.884
 2853POPC   C4B37366  36.391  28.302   7.556
 2854POPC   NC337367   4.624  29.011   9.529
 2854POPC   PO437368   3.943  29.193   9.633
 2854POPC   GL137369   4.178  29.157   9.246
 2854POPC   GL237370   3.948  29.384   9.111
 2854POPC   C1A37371   4.261  28.882   8.889
 2854POPC   D2A37372   4.373  28.963   8.468
 2854POPC   C3A37373   4.294  28.885   8.041
 2854POPC   C4A37374   4.517  29.188   7.833
 2854POPC   C1B37375   4.158  29.394   8.703
 2854POPC   C2B37376   4.043  29.308   8.264
 2854POPC   C3B37377   4.065  29.435   7.831
 2854POPC   C4B37378   3.915  29.488   7.386
 2855POPC   NC337379  10.828  32.021   9.336
 2855POPC   PO437380  11.450  32.134   9.581
 2855POPC   GL137381  11.300  32.151   9.137
 2855POPC   GL237382  10.990  32.289   8.940
 2855POPC   C1A37383  11.466  32.367   8.774
 2855POPC   D2A37384  11.346  32.176   8.383
 2855POPC   C3A37385  11.133  32.410   8.058
 2855POPC   C4A37386  11.392  32.513   7.719
 2855POPC   C1B37387  11.069  31.906   8.744
 2855POPC   C2B37388  10.927  31.867   8.360
 2855POPC   C3B37389  11.132  31.892   8.002
 2855POPC   C4B37390  10.923  32.080   7.700
 2856POPC   NC337391  37.621  25.675   9.490
 2856POPC   PO437392  37.510  24.945   9.522
 2856POPC   GL137393  37.705  25.202   9.180
 2856POPC   GL237394  38.031  25.096   9.042
 2856POPC   C1A37395  37.683  25.347   8.746
 2856POPC   D2A37396  37.775  25.606   8.443
 2856POPC   C3A37397  37.745  25.521   8.069
 2856POPC   C4A37398  37.788  25.391   7.693
 2856POPC   C1B37399  37.904  24.890   8.651
 2856POPC   C2B37400  37.691  25.027   8.280
 2856POPC   C3B37401  37.993  24.996   7.943
 2856POPC   C4B37402  38.012  24.860   7.531
 2857POPC   NC337403   5.784  25.780   9.766
 2857POPC   PO437404   5.894  25.147   9.496
 2857POPC   GL137405   5.896  25.166   9.088
 2857POPC   GL237406   6.044  24.872   8.993
 2857POPC   C1A37407   5.776  25.312   8.698
 2857POPC   D2A37408   5.978  25.556   8.407
 2857POPC   C3A37409   5.976  25.291   8.057
 2857POPC   C4A37410   5.705  25.344   7.739
 2857POPC   C1B37411   5.558  24.873   8.875
 2857POPC   C2B37412   5.371  24.742   8.515
 2857POPC   C3B37413   5.298  24.697   8.087
 2857POPC   C4B37414   5.377  24.973   7.790
 2858POPC   NC337415  35.608  30.436   9.980
 2858POPC   PO437416  35.163  30.694   9.478
 2858POPC   GL137417  35.299  30.592   9.025
 2858POPC   GL237418  35.654  30.512   8.966
 2858POPC   C1A37419  35.396  30.763   8.598
 2858POPC   D2A37420  35.180  31.049   8.343
 2858POPC   C3A37421  34.987  30.811   8.054
 2858POPC   C4A37422  35.241  30.548   7.831
 2858POPC   C1B37423  35.459  30.255   8.650
 2858POPC   C2B37424  35.579  30.135   8.237
 2858POPC   C3B37425  35.818  30.186   7.847
 2858POPC   C4B37426  35.614  30.421   7.513
 2859POPC   NC337427  32.935  31.326   9.259
 2859POPC   PO437428  33.283  31.766   9.697
 2859POPC   GL137429  32.990  31.814   9.188
 2859POPC   GL237430  32.632  31.805   9.170
 2859POPC   C1A37431  33.087  31.628   8.697
 2859POPC   D2A37432  33.158  31.316   8.351
 2859POPC   C3A37433  32.784  31.325   8.094
 2859POPC   C4A37434  32.783  31.643   7.809
 2859POPC   C1B37435  32.565  31.700   8.732
 2859POPC   C2B37436  32.781  31.795   8.315
 2859POPC   C3B37437  33.219  31.761   8.100
 2859POPC   C4B37438  33.363  31.815   7.661
 2860POPC   NC337439  34.573  36.575   9.745
 2860POPC   PO437440  34.647  35.947   9.629
 2860POPC   GL137441  34.633  36.281   9.293
 2860POPC   GL237442  34.897  36.214   9.167
 2860POPC   C1A37443  34.465  36.201   8.845
 2860POPC   D2A37444  34.161  36.054   8.504
 2860POPC   C3A37445  34.343  36.135   8.101
 2860POPC   C4A37446  34.556  35.942   7.745
 2860POPC   C1B37447  34.965  36.141   8.757
 2860POPC   C2B37448  34.783  36.290   8.375
 2860POPC   C3B37449  34.914  35.997   8.100
 2860POPC   C4B37450  35.045  36.036   7.705
 2861POPC   NC337451  33.413  17.517   9.471
 2861POPC   PO437452  32.742  17.244   9.464
 2861POPC   GL137453  33.003  17.263   9.106
 2861POPC   GL237454  33.077  17.610   9.093
 2861POPC   C1A37455  33.097  17.346   8.639
 2861POPC   D2A37456  33.123  17.380   8.170
 2861POPC   C3A37457  32.990  17.209   7.768
 2861POPC   C4A37458  33.113  17.490   7.453
 2861POPC   C1B37459  32.920  17.865   8.793
 2861POPC   C2B37460  32.858  17.758   8.407
 2861POPC   C3B37461  32.988  17.856   8.024
 2861POPC   C4B37462  32.788  17.780   7.677
 2862POPC   NC337463   6.841  11.801   9.448
 2862POPC   PO437464   6.223  11.836   9.526
 2862POPC   GL137465   6.442  11.950   9.149
 2862POPC   GL237466   6.534  12.278   9.151
 2862POPC   C1A37467   6.813  11.934   8.832
 2862POPC   D2A37468   6.842  11.715   8.452
 2862POPC   C3A37469   6.803  11.980   8.095
 2862POPC   C4A37470   6.769  11.830   7.708
 2862POPC   C1B37471   6.423  12.244   8.698
 2862POPC   C2B37472   6.489  12.386   8.270
 2862POPC   C3B37473   6.772  12.467   7.930
 2862POPC   C4B37474   6.787  12.294   7.508
 2863POPC   NC337475  16.967  36.432   9.666
 2863POPC   PO437476  16.405  36.817   9.449
 2863POPC   GL137477  16.704  36.717   9.082
 2863POPC   GL237478  16.964  36.992   8.969
 2863POPC   C1A37479  16.738  36.721   8.617
 2863POPC   D2A37480  16.739  37.103   8.382
 2863POPC   C3A37481  16.576  37.006   8.001
 2863POPC   C4A37482  16.696  36.606   7.844
 2863POPC   C1B37483  17.217  36.972   8.597
 2863POPC   C2B37484  17.289  37.201   8.223
 2863POPC   C3B37485  17.021  37.257   7.905
 2863POPC   C4B37486  16.913  36.979   7.574
 2864POPC   NC337487  15.218   9.471   9.514
 2864POPC   PO437488  15.323  10.186   9.227
 2864POPC   GL137489  15.233   9.762   9.098
 2864POPC   GL237490  15.457   9.442   9.075
 2864POPC   C1A37491  14.975   9.642   8.766
 2864POPC   D2A37492  15.224   9.551   8.415
 2864POPC   C3A37493  15.065   9.762   8.081
 2864POPC   C4A37494  15.254  10.031   7.796
 2864POPC   C1B37495  15.231   9.205   8.793
 2864POPC   C2B37496  15.302   9.034   8.401
 2864POPC   C3B37497  15.522   9.276   8.096
 2864POPC   C4B37498  15.376   9.501   7.759
 2865POPC   NC337499  29.796  39.272   9.593
 2865POPC   PO437500  30.164  39.897   9.538
 2865POPC   GL137501  30.150  39.583   9.106
 2865POPC   GL237502  29.924  39.289   9.092
 2865POPC   C1A37503  30.224  39.391   8.681
 2865POPC   D2A37504  30.423  39.358   8.240
 2865POPC   C3A37505  30.117  39.476   7.911
 2865POPC   C4A37506  29.652  39.469   7.915
 2865POPC   C1B37507  29.733  39.013   8.792
 2865POPC   C2B37508  29.592  38.821   8.416
 2865POPC   C3B37509  29.410  39.024   8.056
 2865POPC   C4B37510  29.640  39.034   7.656
 2866POPC   NC337511  31.113  19.180   9.451
 2866POPC   PO437512  31.616  19.573   9.584
 2866POPC   GL137513  31.532  19.194   9.196
 2866POPC   GL237514  31.314  18.871   9.110
 2866POPC   C1A37515  31.406  19.244   8.724
 2866POPC   D2A37516  31.654  19.333   8.341
 2866POPC   C3A37517  31.643  18.984   8.093
 2866POPC   C4A37518  31.645  18.945   7.671
 2866POPC   C1B37519  31.095  18.847   8.687
 2866POPC   C2B37520  31.137  19.091   8.301
 2866POPC   C3B37521  31.174  18.967   7.889
 2866POPC   C4B37522  31.223  18.693   7.574
 2867POPC   NC337523  42.679  36.656   9.172
 2867POPC   PO437524  42.374  37.172   9.390
 2867POPC   GL137525  42.255  37.100   9.055
 2867POPC   GL237526  42.124  36.797   9.059
 2867POPC   C1A37527  42.446  37.068   8.682
 2867POPC   D2A37528  42.223  36.997   8.358
 2867POPC   C3A37529  42.406  36.993   7.961
 2867POPC   C4A37530  42.221  37.140   7.559
 2867POPC   C1B37531  42.195  36.602   8.696
 2867POPC   C2B37532  42.466  36.547   8.364
 2867POPC   C3B37533  42.477  36.460   7.932
 2867POPC   C4B37534  42.172  36.649   7.662
 2868POPC   NC337535   7.738  24.361   9.472
 2868POPC   PO437536   7.112  24.205   9.431
 2868POPC   GL137537   7.350  24.475   9.125
 2868POPC   GL237538   7.701  24.686   9.091
 2868POPC   C1A37539   7.217  24.724   8.805
 2868POPC   D2A37540   7.348  24.696   8.394
 2868POPC   C3A37541   7.170  24.406   8.126
 2868POPC   C4A37542   7.167  24.607   7.731
 2868POPC   C1B37543   7.696  24.500   8.726
 2868POPC   C2B37544   7.710  24.313   8.336
 2868POPC   C3B37545   7.629  24.493   7.922
 2868POPC   C4B37546   7.584  24.420   7.460
 2869POPC   NC337547  29.947  34.101   9.420
 2869POPC   PO437548  29.624  33.539   9.638
 2869POPC   GL137549  29.595  33.711   9.236
 2869POPC   GL237550  29.940  33.646   9.182
 2869POPC   C1A37551  29.612  33.921   8.840
 2869POPC   D2A37552  29.820  33.735   8.497
 2869POPC   C3A37553  29.765  33.783   8.060
 2869POPC   C4A37554  29.806  33.672   7.630
 2869POPC   C1B37555  30.194  33.769   8.823
 2869POPC   C2B37556  30.274  33.888   8.358
 2869POPC   C3B37557  30.254  33.647   7.969
 2869POPC   C4B37558  30.546  33.362   7.792
 2870POPC   NC337559   8.016  11.069   9.492
 2870POPC   PO437560   8.224  11.653   9.453
 2870POPC   GL137561   8.126  11.473   9.055
 2870POPC   GL237562   8.118  11.121   9.005
 2870POPC   C1A37563   8.244  11.431   8.625
 2870POPC   D2A37564   8.329  11.622   8.251
 2870POPC   C3A37565   8.296  11.312   7.934
 2870POPC   C4A37566   8.486  11.494   7.590
 2870POPC   C1B37567   8.029  10.929   8.615
 2870POPC   C2B37568   7.906  11.084   8.240
 2870POPC   C3B37569   7.847  10.973   7.837
 2870POPC   C4B37570   8.163  10.944   7.571
 2871POPC   NC337571  25.514   2.059   9.378
 2871POPC   PO437572  24.993   1.824   9.672
 2871POPC   GL137573  25.078   1.873   9.230
 2871POPC   GL237574  25.083   2.244   9.187
 2871POPC   C1A37575  25.373   1.805   8.826
 2871POPC   D2A37576  25.400   2.053   8.454
 2871POPC   C3A37577  25.421   1.843   8.088
 2871POPC   C4A37578  25.394   2.023   7.727
 2871POPC   C1B37579  24.888   2.418   8.829
 2871POPC   C2B37580  24.878   2.278   8.406
 2871POPC   C3B37581  25.122   2.335   8.047
 2871POPC   C4B37582  24.961   2.487   7.653
 2872POPC   NC337583  26.520  14.278   9.514
 2872POPC   PO437584  26.523  14.952   9.438
 2872POPC   GL137585  26.779  14.665   9.131
 2872POPC   GL237586  26.929  14.339   9.244
 2872POPC   C1A37587  26.644  14.577   8.720
 2872POPC   D2A37588  26.513  14.281   8.443
 2872POPC   C3A37589  26.642  14.338   8.044
 2872POPC   C4A37590  26.691  14.691   7.809
 2872POPC   C1B37591  26.865  14.135   8.823
 2872POPC   C2B37592  26.987  14.057   8.385
 2872POPC   C3B37593  26.968  13.950   7.959
 2872POPC   C4B37594  26.858  14.197   7.584
 2873POPC   NC337595  33.414  11.955   9.445
 2873POPC   PO437596  32.766  12.035   9.352
 2873POPC   GL137597  33.064  11.983   9.040
 2873POPC   GL237598  33.210  12.295   9.067
 2873POPC   C1A37599  33.064  11.854   8.612
 2873POPC   D2A37600  33.333  11.873   8.255
 2873POPC   C3A37601  33.069  11.766   7.917
 2873POPC   C4A37602  32.635  11.821   7.820
 2873POPC   C1B37603  33.285  12.311   8.603
 2873POPC   C2B37604  32.981  12.273   8.241
 2873POPC   C3B37605  33.067  12.254   7.807
 2873POPC   C4B37606  33.471  12.034   7.776
 2874POPC   NC337607  42.221  41.139   9.484
 2874POPC   PO437608  42.600  40.534   9.483
 2874POPC   GL137609  42.386  40.782   9.137
 2874POPC   GL237610  42.054  40.747   9.068
 2874POPC   C1A37611  42.327  41.070   8.768
 2874POPC   D2A37612  42.388  41.243   8.346
 2874POPC   C3A37613  42.254  41.044   7.991
 2874POPC   C4A37614  42.406  40.811   7.654
 2874POPC   C1B37615  42.204  40.554   8.725
 2874POPC   C2B37616  42.103  40.765   8.386
 2874POPC   C3B37617  42.132  40.546   8.024
 2874POPC   C4B37618  42.111  40.307   7.662
 2875POPC   NC337619  20.674  26.323   9.599
 2875POPC   PO437620  20.471  26.987   9.431
 2875POPC   GL137621  20.497  26.817   9.081
 2875POPC   GL237622  20.800  26.647   9.092
 2875POPC   C1A37623  20.502  26.966   8.710
 2875POPC   D2A37624  20.434  26.748   8.393
 2875POPC   C3A37625  20.616  26.867   8.039
 2875POPC   C4A37626  20.459  26.740   7.678
 2875POPC   C1B37627  20.731  26.481   8.711
 2875POPC   C2B37628  20.883  26.521   8.308
 2875POPC   C3B37629  21.102  26.733   7.975
 2875POPC   C4B37630  20.974  26.703   7.558
 2876POPC   NC337631  37.481  17.903   9.502
 2876POPC   PO437632  38.044  17.563   9.483
 2876POPC   GL137633  37.904  17.358   9.087
 2876POPC   GL237634  37.587  17.548   9.107
 2876POPC   C1A37635  37.734  17.320   8.667
 2876POPC   D2A37636  37.752  17.677   8.393
 2876POPC   C3A37637  37.699  17.573   7.971
 2876POPC   C4A37638  37.975  17.300   7.726
 2876POPC   C1B37639  37.357  17.660   8.739
 2876POPC   C2B37640  37.263  17.571   8.306
 2876POPC   C3B37641  37.201  17.552   7.862
 2876POPC   C4B37642  37.166  17.677   7.412
 2877POPC   NC337643  35.836  17.475   9.417
 2877POPC   PO437644  36.520  17.205   9.442
 2877POPC   GL137645  36.281  17.383   9.103
 2877POPC   GL237646  36.478  17.590   8.932
 2877POPC   C1A37647  35.972  17.491   8.774
 2877POPC   D2A37648  35.736  17.620   8.406
 2877POPC   C3A37649  35.959  17.713   8.037
 2877POPC   C4A37650  35.955  17.375   7.723
 2877POPC   C1B37651  36.411  17.571   8.504
 2877POPC   C2B37652  36.244  17.324   8.212
 2877POPC   C3B37653  36.412  17.216   7.827
 2877POPC   C4B37654  36.327  17.291   7.358
 2878POPC   NC337655   5.407  13.839   9.470
 2878POPC   PO437656   5.123  13.183   9.524
 2878POPC   GL137657   5.010  13.497   9.181
 2878POPC   GL237658   5.172  13.800   9.003
 2878POPC   C1A37659   5.030  13.376   8.756
 2878POPC   D2A37660   5.150  13.635   8.441
 2878POPC   C3A37661   5.007  13.441   8.089
 2878POPC   C4A37662   5.022  13.573   7.676
 2878POPC   C1B37663   4.754  13.822   8.767
 2878POPC   C2B37664   4.592  13.637   8.368
 2878POPC   C3B37665   4.614  13.777   7.947
 2878POPC   C4B37666   4.862  14.049   7.686
 2879POPC   NC337667  35.567  37.435   9.416
 2879POPC   PO437668  35.127  37.798   9.718
 2879POPC   GL137669  35.241  37.941   9.224
 2879POPC   GL237670  35.557  37.885   9.006
 2879POPC   C1A37671  35.147  38.002   8.755
 2879POPC   D2A37672  35.184  37.747   8.364
 2879POPC   C3A37673  34.935  37.796   8.013
 2879POPC   C4A37674  35.102  37.719   7.600
 2879POPC   C1B37675  35.393  37.520   8.768
 2879POPC   C2B37676  35.486  37.305   8.329
 2879POPC   C3B37677  35.384  37.304   7.852
 2879POPC   C4B37678  35.575  37.515   7.466
 2880POPC   NC337679   7.834   6.600   9.563
 2880POPC   PO437680   7.174   6.488   9.491
 2880POPC   GL137681   7.295   6.783   9.159
 2880POPC   GL237682   7.671   6.914   9.182
 2880POPC   C1A37683   7.207   6.676   8.715
 2880POPC   D2A37684   7.412   6.374   8.400
 2880POPC   C3A37685   7.573   6.603   8.049
 2880POPC   C4A37686   7.746   6.460   7.675
 2880POPC   C1B37687   7.548   7.056   8.783
 2880POPC   C2B37688   7.655   7.128   8.371
 2880POPC   C3B37689   7.570   7.161   7.946
 2880POPC   C4B37690   7.440   6.900   7.654
 2881POPC   NC337691  34.594   8.508   9.526
 2881POPC   PO437692  34.912   7.864   9.506
 2881POPC   GL137693  34.662   8.077   9.156
 2881POPC   GL237694  34.745   8.431   9.071
 2881POPC   C1A37695  34.645   8.163   8.686
 2881POPC   D2A37696  34.400   8.244   8.350
 2881POPC   C3A37697  34.681   8.178   8.060
 2881POPC   C4A37698  34.627   7.948   7.739
 2881POPC   C1B37699  34.957   8.604   8.748
 2881POPC   C2B37700  34.894   8.532   8.369
 2881POPC   C3B37701  34.960   8.683   7.968
 2881POPC   C4B37702  34.897   8.373   7.622
 2882POPC   NC337703  29.785  18.656   9.379
 2882POPC   PO437704  30.128  18.083   9.452
 2882POPC   GL137705  29.736  18.154   9.211
 2882POPC   GL237706  29.987  18.364   9.016
 2882POPC   C1A37707  29.549  18.274   8.789
 2882POPC   D2A37708  29.804  18.426   8.473
 2882POPC   C3A37709  29.610  18.363   8.093
 2882POPC   C4A37710  29.656  18.589   7.737
 2882POPC   C1B37711  29.933  17.953   8.786
 2882POPC   C2B37712  29.769  17.902   8.382
 2882POPC   C3B37713  30.049  18.102   8.126
 2882POPC   C4B37714  29.978  18.204   7.723
 2883POPC   NC337715  20.979  16.607   9.676
 2883POPC   PO437716  21.612  16.603   9.545
 2883POPC   GL137717  21.257  16.626   9.241
 2883POPC   GL237718  21.231  16.940   9.078
 2883POPC   C1A37719  21.080  16.565   8.805
 2883POPC   D2A37720  21.266  16.610   8.438
 2883POPC   C3A37721  21.133  16.638   8.061
 2883POPC   C4A37722  21.472  16.730   7.818
 2883POPC   C1B37723  21.570  16.736   8.827
 2883POPC   C2B37724  21.730  16.790   8.379
 2883POPC   C3B37725  21.947  16.869   8.004
 2883POPC   C4B37726  21.928  16.497   7.773
 2884POPC   NC337727  32.742   0.276   9.605
 2884POPC   PO437728  33.416   0.514   9.554
 2884POPC   GL137729  33.082   0.413   9.186
 2884POPC   GL237730  32.901   0.083   9.163
 2884POPC   C1A37731  33.000   0.270   8.721
 2884POPC   D2A37732  32.905   0.477   8.381
 2884POPC   C3A37733  33.009   0.312   8.035
 2884POPC   C4A37734  33.091   0.436   7.651
 2884POPC   C1B37735  32.650  44.915   8.826
 2884POPC   C2B37736  32.426   0.114   8.493
 2884POPC   C3B37737  32.498   0.254   8.082
 2884POPC   C4B37738  32.666   0.128   7.692
 2885POPC   NC337739  15.693   7.775   9.204
 2885POPC   PO437740  16.048   7.390   9.619
 2885POPC   GL137741  15.938   7.328   9.245
 2885POPC   GL237742  15.575   7.275   9.310
 2885POPC   C1A37743  16.068   7.396   8.824
 2885POPC   D2A37744  15.807   7.504   8.476
 2885POPC   C3A37745  15.979   7.616   8.083
 2885POPC   C4A37746  16.250   7.409   7.814
 2885POPC   C1B37747  15.671   7.051   8.907
 2885POPC   C2B37748  15.689   6.985   8.462
 2885POPC   C3B37749  15.611   7.217   8.079
 2885POPC   C4B37750  15.716   7.405   7.682
 2886POPC   NC337751  18.038  26.666   9.574
 2886POPC   PO437752  18.663  26.458   9.406
 2886POPC   GL137753  18.413  26.704   9.116
 2886POPC   GL237754  18.336  26.954   9.197
 2886POPC   C1A37755  18.213  26.629   8.709
 2886POPC   D2A37756  18.221  26.417   8.307
 2886POPC   C3A37757  18.232  26.629   7.913
 2886POPC   C4A37758  18.262  26.486   7.474
 2886POPC   C1B37759  18.186  27.134   8.784
 2886POPC   C2B37760  18.272  27.366   8.406
 2886POPC   C3B37761  18.178  27.200   8.010
 2886POPC   C4B37762  18.205  27.027   7.590
 2887POPC   NC337763  35.584  26.665   9.242
 2887POPC   PO437764  34.981  26.973   9.304
 2887POPC   GL137765  35.245  26.971   9.034
 2887POPC   GL237766  35.170  26.628   8.933
 2887POPC   C1A37767  35.449  26.940   8.644
 2887POPC   D2A37768  35.537  26.765   8.290
 2887POPC   C3A37769  35.664  27.042   8.017
 2887POPC   C4A37770  35.324  26.951   7.808
 2887POPC   C1B37771  35.066  26.585   8.493
 2887POPC   C2B37772  35.292  26.336   8.168
 2887POPC   C3B37773  35.554  26.455   7.849
 2887POPC   C4B37774  35.360  26.572   7.488
 2888POPC   NC337775  28.607  14.587   9.567
 2888POPC   PO437776  27.896  14.421   9.562
 2888POPC   GL137777  28.276  14.282   9.279
 2888POPC   GL237778  28.538  14.524   9.075
 2888POPC   C1A37779  28.336  14.126   8.849
 2888POPC   D2A37780  28.333  14.429   8.548
 2888POPC   C3A37781  28.298  14.312   8.138
 2888POPC   C4A37782  28.367  14.105   7.746
 2888POPC   C1B37783  28.829  14.361   8.733
 2888POPC   C2B37784  28.798  14.196   8.295
 2888POPC   C3B37785  28.741  14.421   7.887
 2888POPC   C4B37786  28.840  14.678   7.522
 2889POPC   NC337787   6.497  10.293   9.453
 2889POPC   PO437788   6.290   9.682   9.720
 2889POPC   GL137789   6.493   9.796   9.305
 2889POPC   GL237790   6.799   9.980   9.177
 2889POPC   C1A37791   6.486   9.743   8.845
 2889POPC   D2A37792   6.488   9.525   8.446
 2889POPC   C3A37793   6.540   9.774   8.089
 2889POPC   C4A37794   6.606   9.571   7.712
 2889POPC   C1B37795   7.026   9.851   8.801
 2889POPC   C2B37796   7.182   9.877   8.371
 2889POPC   C3B37797   7.031   9.875   7.932
 2889POPC   C4B37798   6.718  10.056   7.647
 2890POPC   NC337799  18.423  10.822   9.802
 2890POPC   PO437800  17.993  10.224   9.532
 2890POPC   GL137801  18.045  10.376   9.089
 2890POPC   GL237802  18.389  10.605   9.007
 2890POPC   C1A37803  17.963  10.709   8.785
 2890POPC   D2A37804  17.892  10.631   8.379
 2890POPC   C3A37805  18.155  10.703   8.070
 2890POPC   C4A37806  18.237  10.553   7.694
 2890POPC   C1B37807  18.354  10.289   8.706
 2890POPC   C2B37808  18.439  10.379   8.321
 2890POPC   C3B37809  18.364  10.143   8.016
 2890POPC   C4B37810  18.134  10.065   7.675
 2891POPC   NC337811  34.937  13.827   9.967
 2891POPC   PO437812  34.624  14.304   9.611
 2891POPC   GL137813  34.758  14.362   9.193
 2891POPC   GL237814  34.648  14.660   9.188
 2891POPC   C1A37815  34.677  14.302   8.765
 2891POPC   D2A37816  34.517  14.231   8.377
 2891POPC   C3A37817  34.586  14.469   8.057
 2891POPC   C4A37818  34.430  14.401   7.661
 2891POPC   C1B37819  34.887  14.765   8.861
 2891POPC   C2B37820  34.893  14.711   8.446
 2891POPC   C3B37821  34.955  14.828   8.060
 2891POPC   C4B37822  34.797  14.773   7.688
 2892POPC   NC337823   6.127   9.231   9.903
 2892POPC   PO437824   6.587   8.954   9.541
 2892POPC   GL137825   6.721   9.089   9.174
 2892POPC   GL237826   6.708   8.757   9.051
 2892POPC   C1A37827   6.783   9.302   8.796
 2892POPC   D2A37828   6.745   9.025   8.441
 2892POPC   C3A37829   6.647   9.155   8.016
 2892POPC   C4A37830   6.836   9.135   7.582
 2892POPC   C1B37831   6.504   8.604   8.683
 2892POPC   C2B37832   6.419   8.681   8.240
 2892POPC   C3B37833   6.411   8.723   7.800
 2892POPC   C4B37834   6.213   8.479   7.491
 2893POPC   NC337835   9.144  13.508   9.529
 2893POPC   PO437836   8.729  13.919   9.756
 2893POPC   GL137837   8.793  13.595   9.207
 2893POPC   GL237838   9.102  13.433   9.050
 2893POPC   C1A37839   8.829  13.717   8.746
 2893POPC   D2A37840   8.953  13.578   8.330
 2893POPC   C3A37841   9.076  13.800   7.959
 2893POPC   C4A37842   8.776  13.513   7.750
 2893POPC   C1B37843   9.265  13.334   8.659
 2893POPC   C2B37844   9.368  13.272   8.205
 2893POPC   C3B37845   9.300  13.386   7.766
 2893POPC   C4B37846   9.115  13.185   7.393
 2894POPC   NC337847   4.723  19.605   9.854
 2894POPC   PO437848   4.242  19.275   9.483
 2894POPC   GL137849   4.314  19.208   9.065
 2894POPC   GL237850   4.664  19.226   9.071
 2894POPC   C1A37851   4.275  18.979   8.663
 2894POPC   D2A37852   3.999  18.904   8.313
 2894POPC   C3A37853   4.203  19.029   7.940
 2894POPC   C4A37854   4.641  18.958   7.776
 2894POPC   C1B37855   4.591  19.374   8.670
 2894POPC   C2B37856   4.599  19.229   8.242
 2894POPC   C3B37857   4.524  19.449   7.852
 2894POPC   C4B37858   4.831  19.560   7.539
 2895POPC   NC337859  41.027  31.695   9.535
 2895POPC   PO437860  40.548  32.129   9.524
 2895POPC   GL137861  40.782  32.097   9.161
 2895POPC   GL237862  40.749  31.729   9.107
 2895POPC   C1A37863  40.887  32.352   8.776
 2895POPC   D2A37864  40.719  32.615   8.435
 2895POPC   C3A37865  40.762  32.457   8.007
 2895POPC   C4A37866  40.897  32.183   7.647
 2895POPC   C1B37867  40.540  31.915   8.751
 2895POPC   C2B37868  40.618  32.107   8.366
 2895POPC   C3B37869  40.556  31.929   7.962
 2895POPC   C4B37870  40.329  31.779   7.607
 2896POPC   NC337871  23.882  14.258   9.509
 2896POPC   PO437872  23.270  14.669   9.537
 2896POPC   GL137873  23.577  14.579   9.169
 2896POPC   GL237874  23.935  14.489   9.051
 2896POPC   C1A37875  23.584  14.630   8.697
 2896POPC   D2A37876  23.930  14.608   8.359
 2896POPC   C3A37877  23.812  14.749   7.944
 2896POPC   C4A37878  23.401  14.606   7.798
 2896POPC   C1B37879  23.958  14.190   8.689
 2896POPC   C2B37880  23.839  14.092   8.255
 2896POPC   C3B37881  23.914  14.270   7.826
 2896POPC   C4B37882  23.981  14.166   7.356
 2897POPC   NC337883  43.878   1.492   9.365
 2897POPC   PO437884  44.199   0.920   9.488
 2897POPC   GL137885  43.892   1.001   9.152
 2897POPC   GL237886  43.537   1.025   9.291
 2897POPC   C1A37887  43.876   1.142   8.714
 2897POPC   D2A37888  44.209   1.211   8.404
 2897POPC   C3A37889  44.100   1.115   7.987
 2897POPC   C4A37890  44.071   1.286   7.577
 2897POPC   C1B37891  43.488   0.802   8.887
 2897POPC   C2B37892  43.407   1.018   8.531
 2897POPC   C3B37893  43.533   1.235   8.201
 2897POPC   C4B37894  43.623   1.130   7.783
 2898POPC   NC337895  39.931  25.119   9.496
 2898POPC   PO437896  40.530  25.289   9.533
 2898POPC   GL137897  40.196  25.330   9.124
 2898POPC   GL237898  40.103  25.008   9.034
 2898POPC   C1A37899  39.893  25.442   8.782
 2898POPC   D2A37900  39.793  25.318   8.366
 2898POPC   C3A37901  39.970  25.468   7.972
 2898POPC   C4A37902  39.894  25.372   7.510
 2898POPC   C1B37903  40.289  25.137   8.654
 2898POPC   C2B37904  40.111  24.906   8.337
 2898POPC   C3B37905  39.838  24.914   8.012
 2898POPC   C4B37906  40.046  24.885   7.672
 2899POPC   NC337907  40.393   5.923   9.781
 2899POPC   PO437908  40.993   5.842   9.410
 2899POPC   GL137909  40.964   5.845   8.965
 2899POPC   GL237910  41.120   5.525   8.979
 2899POPC   C1A37911  40.894   6.010   8.499
 2899POPC   D2A37912  40.528   5.944   8.198
 2899POPC   C3A37913  40.596   5.894   7.754
 2899POPC   C4A37914  40.798   6.091   7.414
 2899POPC   C1B37915  40.861   5.517   8.594
 2899POPC   C2B37916  40.853   5.554   8.150
 2899POPC   C3B37917  40.619   5.400   7.778
 2899POPC   C4B37918  40.721   5.566   7.349
 2900POPC   NC337919  29.060  38.806   9.541
 2900POPC   PO437920  29.365  39.348   9.782
 2900POPC   GL137921  29.319  39.321   9.308
 2900POPC   GL237922  29.442  38.987   9.197
 2900POPC   C1A37923  29.257  39.559   8.890
 2900POPC   D2A37924  29.377  39.448   8.448
 2900POPC   C3A37925  29.130  39.499   8.051
 2900POPC   C4A37926  29.212  39.319   7.675
 2900POPC   C1B37927  29.204  39.068   8.782
 2900POPC   C2B37928  28.970  39.125   8.374
 2900POPC   C3B37929  28.895  38.949   7.960
 2900POPC   C4B37930  28.863  38.968   7.519
 2901POPC   NC337931  27.723  18.467   9.563
 2901POPC   PO437932  27.114  18.658   9.476
 2901POPC   GL137933  27.401  18.388   9.172
 2901POPC   GL237934  27.554  18.026   9.143
 2901POPC   C1A37935  27.583  18.418   8.778
 2901POPC   D2A37936  27.548  18.216   8.385
 2901POPC   C3A37937  27.391  18.488   8.091
 2901POPC   C4A37938  27.666  18.549   7.727
 2901POPC   C1B37939  27.849  17.984   8.781
 2901POPC   C2B37940  28.046  18.044   8.351
 2901POPC   C3B37941  27.979  18.101   7.867
 2901POPC   C4B37942  28.087  17.863   7.463
 2902POPC   NC337943  25.720   4.148   9.546
 2902POPC   PO437944  25.188   3.865   9.461
 2902POPC   GL137945  25.293   4.098   9.088
 2902POPC   GL237946  25.638   4.184   9.038
 2902POPC   C1A37947  25.030   4.295   8.781
 2902POPC   D2A37948  25.013   4.510   8.415
 2902POPC   C3A37949  25.209   4.289   8.131
 2902POPC   C4A37950  25.084   4.255   7.752
 2902POPC   C1B37951  25.479   4.508   8.730
 2902POPC   C2B37952  25.550   4.667   8.296
 2902POPC   C3B37953  25.559   4.572   7.856
 2902POPC   C4B37954  25.578   4.126   7.792
 2903POPC   NC337955  27.268  16.603   9.651
 2903POPC   PO437956  26.625  16.820   9.736
 2903POPC   GL137957  26.825  16.819   9.346
 2903POPC   GL237958  26.570  17.001   9.175
 2903POPC   C1A37959  26.902  16.770   8.880
 2903POPC   D2A37960  26.769  16.867   8.410
 2903POPC   C3A37961  26.956  17.045   8.009
 2903POPC   C4A37962  26.926  16.925   7.542
 2903POPC   C1B37963  26.372  16.930   8.758
 2903POPC   C2B37964  26.260  17.010   8.329
 2903POPC   C3B37965  26.457  16.822   7.955
 2903POPC   C4B37966  26.472  16.630   7.516
 2904POPC   NC337967  28.218  39.343   9.492
 2904POPC   PO437968  28.607  38.785   9.451
 2904POPC   GL137969  28.413  39.058   9.119
 2904POPC   GL237970  28.543  39.422   9.126
 2904POPC   C1A37971  28.243  39.246   8.738
 2904POPC   D2A37972  28.094  39.226   8.330
 2904POPC   C3A37973  28.323  38.935   8.053
 2904POPC   C4A37974  28.344  39.089   7.657
 2904POPC   C1B37975  28.764  39.354   8.796
 2904POPC   C2B37976  28.591  39.509   8.442
 2904POPC   C3B37977  28.575  39.383   8.053
 2904POPC   C4B37978  28.724  39.416   7.669
 2905POPC   NC337979   5.229  26.452   9.410
 2905POPC   PO437980   4.806  27.032   9.575
 2905POPC   GL137981   4.973  26.871   9.171
 2905POPC   GL237982   4.842  26.548   9.095
 2905POPC   C1A37983   5.262  26.864   8.756
 2905POPC   D2A37984   5.456  26.601   8.376
 2905POPC   C3A37985   5.344  26.665   7.949
 2905POPC   C4A37986   5.310  27.082   7.784
 2905POPC   C1B37987   4.799  26.702   8.680
 2905POPC   C2B37988   4.943  26.710   8.259
 2905POPC   C3B37989   4.865  26.785   7.799
 2905POPC   C4B37990   4.869  26.802   7.329
 2906POPC   NC337991  30.432  39.474   9.502
 2906POPC   PO437992  30.960  39.171   9.173
 2906POPC   GL137993  30.619  39.342   9.031
 2906POPC   GL237994  30.393  39.076   9.072
 2906POPC   C1A37995  30.733  39.467   8.630
 2906POPC   D2A37996  31.023  39.456   8.299
 2906POPC   C3A37997  30.909  39.167   7.983
 2906POPC   C4A37998  30.554  39.269   7.738
 2906POPC   C1B37999  30.538  38.955   8.625
 2906POPC   C2B38000  30.464  38.849   8.160
 2906POPC   C3B38001  30.158  38.938   7.805
 2906POPC   C4B38002  30.193  38.789   7.344
 2907POPC   NC338003   6.014  14.814   9.507
 2907POPC   PO438004   5.710  14.206   9.478
 2907POPC   GL138005   5.883  14.338   9.129
 2907POPC   GL238006   5.704  14.656   9.153
 2907POPC   C1A38007   5.745  14.293   8.710
 2907POPC   D2A38008   5.912  14.483   8.330
 2907POPC   C3A38009   5.797  14.227   7.986
 2907POPC   C4A38010   5.881  14.089   7.598
 2907POPC   C1B38011   5.952  14.737   8.802
 2907POPC   C2B38012   6.290  14.804   8.517
 2907POPC   C3B38013   6.352  14.617   8.109
 2907POPC   C4B38014   5.980  14.689   7.819
 2908POPC   NC338015  33.371  44.301   9.549
 2908POPC   PO438016  33.038  44.907   9.611
 2908POPC   GL138017  33.302  44.758   9.267
 2908POPC   GL238018  33.043  44.587   9.140
 2908POPC   C1A38019  33.318  44.868   8.803
 2908POPC   D2A38020  33.295  44.659   8.356
 2908POPC   C3A38021  33.098  44.819   7.898
 2908POPC   C4A38022  33.075  44.991   7.412
 2908POPC   C1B38023  32.948  44.500   8.723
 2908POPC   C2B38024  32.774  44.344   8.325
 2908POPC   C3B38025  32.801  44.335   7.876
 2908POPC   C4B38026  32.719  44.644   7.541
 2909POPC   NC338027   7.461  29.359   9.538
 2909POPC   PO438028   7.333  28.730   9.494
 2909POPC   GL138029   7.377  28.985   9.141
 2909POPC   GL238030   7.720  28.932   9.068
 2909POPC   C1A38031   7.115  29.045   8.759
 2909POPC   D2A38032   7.137  29.266   8.354
 2909POPC   C3A38033   7.448  29.263   7.971
 2909POPC   C4A38034   7.813  29.000   7.812
 2909POPC   C1B38035   7.603  29.082   8.630
 2909POPC   C2B38036   7.468  28.833   8.253
 2909POPC   C3B38037   7.416  28.711   7.794
 2909POPC   C4B38038   7.621  28.762   7.360
 2910POPC   NC338039   8.154  15.565   9.488
 2910POPC   PO438040   8.520  16.193   9.505
 2910POPC   GL138041   8.360  16.022   9.098
 2910POPC   GL238042   8.263  15.666   9.019
 2910POPC   C1A38043   8.065  16.071   8.742
 2910POPC   D2A38044   7.841  16.139   8.334
 2910POPC   C3A38045   8.058  15.940   7.975
 2910POPC   C4A38046   8.232  16.202   7.607
 2910POPC   C1B38047   8.470  15.622   8.635
 2910POPC   C2B38048   8.489  15.978   8.383
 2910POPC   C3B38049   8.558  16.061   7.978
 2910POPC   C4B38050   8.449  15.749   7.695
 2911POPC   NC338051   3.049   8.915   9.485
 2911POPC   PO438052   2.406   8.787   9.332
 2911POPC   GL138053   2.646   8.903   9.088
 2911POPC   GL238054   2.508   9.233   9.049
 2911POPC   C1A38055   2.645   8.705   8.702
 2911POPC   D2A38056   2.756   8.922   8.368
 2911POPC   C3A38057   2.867   8.721   8.011
 2911POPC   C4A38058   3.068   8.782   7.630
 2911POPC   C1B38059   2.888   9.220   8.789
 2911POPC   C2B38060   3.045   9.346   8.405
 2911POPC   C3B38061   2.888   9.256   7.988
 2911POPC   C4B38062   2.564   9.413   7.715
 2912POPC   NC338063  24.780  19.493   9.469
 2912POPC   PO438064  25.294  19.978   9.560
 2912POPC   GL138065  25.338  19.878   9.161
 2912POPC   GL238066  24.987  19.834   9.142
 2912POPC   C1A38067  25.273  19.670   8.766
 2912POPC   D2A38068  25.391  19.867   8.393
 2912POPC   C3A38069  25.161  19.843   8.010
 2912POPC   C4A38070  25.115  19.605   7.621
 2912POPC   C1B38071  24.785  20.082   8.817
 2912POPC   C2B38072  24.842  20.019   8.379
 2912POPC   C3B38073  24.800  20.175   7.951
 2912POPC   C4B38074  24.821  20.063   7.504
 2913POPC   NC338075  37.749  37.318   9.414
 2913POPC   PO438076  37.377  37.837   9.583
 2913POPC   GL138077  37.555  37.833   9.173
 2913POPC   GL238078  37.547  37.497   8.992
 2913POPC   C1A38079  37.722  37.916   8.753
 2913POPC   D2A38080  37.889  37.743   8.404
 2913POPC   C3A38081  37.689  37.903   8.063
 2913POPC   C4A38082  37.504  37.810   7.716
 2913POPC   C1B38083  37.907  37.346   8.743
 2913POPC   C2B38084  37.862  37.029   8.378
 2913POPC   C3B38085  37.784  37.174   7.988
 2913POPC   C4B38086  37.968  37.529   7.793
 2914POPC   NC338087  44.484   4.851   9.605
 2914POPC   PO438088  44.855   5.317   9.343
 2914POPC   GL138089  44.465   5.159   9.187
 2914POPC   GL238090  44.180   5.423   9.093
 2914POPC   C1A38091  44.448   4.859   8.838
 2914POPC   D2A38092  44.303   4.768   8.402
 2914POPC   C3A38093  44.564   4.923   8.123
 2914POPC   C4A38094  44.535   5.030   7.730
 2914POPC   C1B38095  44.461   5.366   8.734
 2914POPC   C2B38096  44.789   5.246   8.469
 2914POPC   C3B38097  44.861   5.329   8.030
 2914POPC   C4B38098  44.526   5.535   7.782
 2915POPC   NC338099  41.720  12.496   9.504
 2915POPC   PO438100  41.869  13.103   9.506
 2915POPC   GL138101  41.731  12.846   9.123
 2915POPC   GL238102  41.849  12.512   9.022
 2915POPC   C1A38103  41.449  12.841   8.750
 2915POPC   D2A38104  41.380  13.097   8.368
 2915POPC   C3A38105  41.657  13.061   8.021
 2915POPC   C4A38106  41.608  12.852   7.618
 2915POPC   C1B38107  41.974  12.635   8.642
 2915POPC   C2B38108  41.707  12.673   8.344
 2915POPC   C3B38109  41.649  12.509   7.987
 2915POPC   C4B38110  41.956  12.423   7.703
 2916POPC   NC338111  44.610  38.944   9.574
 2916POPC   PO438112  44.871  39.530   9.245
 2916POPC   GL138113  44.535  39.274   9.095
 2916POPC   GL238114  44.401  38.944   9.103
 2916POPC   C1A38115  44.624  39.161   8.660
 2916POPC   D2A38116  44.675  39.246   8.228
 2916POPC   C3A38117   0.004  39.195   7.994
 2916POPC   C4A38118  44.764  39.406   7.697
 2916POPC   C1B38119  44.231  38.863   8.715
 2916POPC   C2B38120  44.395  38.816   8.313
 2916POPC   C3B38121  44.421  38.927   7.889
 2916POPC   C4B38122  44.295  38.639   7.537
 2917POPC   NC338123   4.708  20.421   9.465
 2917POPC   PO438124   5.344  20.676   9.538
 2917POPC   GL138125   5.164  20.762   9.135
 2917POPC   GL238126   4.905  20.986   9.084
 2917POPC   C1A38127   5.239  20.813   8.704
 2917POPC   D2A38128   5.106  20.605   8.335
 2917POPC   C3A38129   5.282  20.737   7.970
 2917POPC   C4A38130   5.448  20.540   7.621
 2917POPC   C1B38131   4.744  20.771   8.747
 2917POPC   C2B38132   4.639  20.777   8.335
 2917POPC   C3B38133   4.791  20.892   7.950
 2917POPC   C4B38134   4.601  20.748   7.562
 2918POPC   NC338135  10.589  32.850   9.501
 2918POPC   PO438136  10.358  33.385   9.367
 2918POPC   GL138137  10.423  33.100   9.034
 2918POPC   GL238138  10.667  32.866   9.002
 2918POPC   C1A38139  10.244  33.081   8.643
 2918POPC   D2A38140  10.112  32.889   8.283
 2918POPC   C3A38141  10.277  32.969   7.868
 2918POPC   C4A38142  10.227  32.948   7.421
 2918POPC   C1B38143  10.771  33.112   8.665
 2918POPC   C2B38144  10.629  33.086   8.265
 2918POPC   C3B38145  10.717  33.280   7.906
 2918POPC   C4B38146  10.687  33.069   7.541
 2919POPC   NC338147  35.762   6.992   9.545
 2919POPC   PO438148  35.899   6.244   9.715
 2919POPC   GL138149  36.041   6.478   9.251
 2919POPC   GL238150  36.130   6.788   9.243
 2919POPC   C1A38151  35.918   6.476   8.773
 2919POPC   D2A38152  35.741   6.609   8.390
 2919POPC   C3A38153  35.657   6.387   8.042
 2919POPC   C4A38154  35.758   6.557   7.661
 2919POPC   C1B38155  36.348   6.701   8.876
 2919POPC   C2B38156  36.305   6.585   8.445
 2919POPC   C3B38157  36.136   6.561   8.017
 2919POPC   C4B38158  36.165   6.856   7.666
 2920POPC   NC338159  24.156  20.271   9.539
 2920POPC   PO438160  23.693  20.686   9.543
 2920POPC   GL138161  23.717  20.715   9.128
 2920POPC   GL238162  24.039  20.577   9.122
 2920POPC   C1A38163  23.658  20.507   8.713
 2920POPC   D2A38164  23.705  20.231   8.327
 2920POPC   C3A38165  23.495  20.366   7.925
 2920POPC   C4A38166  23.347  20.762   7.693
 2920POPC   C1B38167  24.072  20.790   8.731
 2920POPC   C2B38168  24.096  20.557   8.351
 2920POPC   C3B38169  24.000  20.432   7.925
 2920POPC   C4B38170  23.789  20.470   7.517
 2921POPC   NC338171  43.595  28.097   9.539
 2921POPC   PO438172  44.115  28.456   9.646
 2921POPC   GL138173  43.869  28.396   9.232
 2921POPC   GL238174  43.959  28.115   9.129
 2921POPC   C1A38175  43.745  28.517   8.815
 2921POPC   D2A38176  43.948  28.515   8.419
 2921POPC   C3A38177  43.840  28.659   8.003
 2921POPC   C4A38178  44.026  28.616   7.554
 2921POPC   C1B38179  43.834  28.010   8.706
 2921POPC   C2B38180  43.824  28.050   8.268
 2921POPC   C3B38181  43.731  28.138   7.874
 2921POPC   C4B38182  44.079  27.920   7.714
 2922POPC   NC338183   0.124  20.899   9.462
 2922POPC   PO438184   0.682  20.570   9.288
 2922POPC   GL138185   0.389  20.677   9.044
 2922POPC   GL238186   0.241  20.332   9.119
 2922POPC   C1A38187   0.474  20.813   8.597
 2922POPC   D2A38188   0.754  20.830   8.229
 2922POPC   C3A38189   0.545  20.584   7.928
 2922POPC   C4A38190   0.118  20.741   7.896
 2922POPC   C1B38191   0.098  20.451   8.706
 2922POPC   C2B38192   0.211  20.408   8.301
 2922POPC   C3B38193   0.184  20.216   7.942
 2922POPC   C4B38194   0.044  20.377   7.550
 2923POPC   NC338195  23.803  33.841   9.372
 2923POPC   PO438196  23.203  33.532   9.429
 2923POPC   GL138197  23.362  33.753   9.060
 2923POPC   GL238198  23.241  34.086   8.988
 2923POPC   C1A38199  23.582  33.841   8.675
 2923POPC   D2A38200  23.912  33.866   8.362
 2923POPC   C3A38201  23.921  33.673   7.967
 2923POPC   C4A38202  23.735  33.533   7.556
 2923POPC   C1B38203  23.270  34.246   8.588
 2923POPC   C2B38204  23.484  34.142   8.219
 2923POPC   C3B38205  23.498  33.909   7.841
 2923POPC   C4B38206  23.551  34.006   7.396
 2924POPC   NC338207  16.775  44.949   9.591
 2924POPC   PO438208  16.299  44.502   9.701
 2924POPC   GL138209  16.423  44.789   9.239
 2924POPC   GL238210  16.724  44.619   9.002
 2924POPC   C1A38211  16.368  44.758   8.720
 2924POPC   D2A38212  16.680  44.533   8.412
 2924POPC   C3A38213  16.636  44.658   7.964
 2924POPC   C4A38214  16.488  44.573   7.553
 2924POPC   C1B38215  17.024  44.349   8.748
 2924POPC   C2B38216  17.219  44.435   8.337
 2924POPC   C3B38217  17.056  44.844   8.228
 2924POPC   C4B38218  17.005   0.054   7.841
 2925POPC   NC338219   4.544   2.278   9.314
 2925POPC   PO438220   4.011   2.043   9.620
 2925POPC   GL138221   4.073   2.130   9.207
 2925POPC   GL238222   4.281   1.885   9.114
 2925POPC   C1A38223   4.169   2.280   8.779
 2925POPC   D2A38224   4.201   2.058   8.424
 2925POPC   C3A38225   4.334   2.127   8.047
 2925POPC   C4A38226   4.199   2.118   7.664
 2925POPC   C1B38227   4.392   1.701   8.764
 2925POPC   C2B38228   4.569   1.723   8.365
 2925POPC   C3B38229   4.438   1.629   7.993
 2925POPC   C4B38230   4.587   1.750   7.624
 2926POPC   NC338231  30.381  19.337   9.696
 2926POPC   PO438232  30.776  18.844   9.480
 2926POPC   GL138233  30.801  18.751   9.094
 2926POPC   GL238234  30.838  19.106   9.037
 2926POPC   C1A38235  30.576  18.805   8.714
 2926POPC   D2A38236  30.589  19.030   8.365
 2926POPC   C3A38237  30.763  18.766   8.121
 2926POPC   C4A38238  30.707  18.771   7.709
 2926POPC   C1B38239  30.866  19.311   8.676
 2926POPC   C2B38240  30.794  19.495   8.266
 2926POPC   C3B38241  30.757  19.275   7.886
 2926POPC   C4B38242  31.024  19.255   7.501
 2927POPC   NC338243   8.687  37.274   9.632
 2927POPC   PO438244   9.232  36.975   9.449
 2927POPC   GL138245   9.041  36.780   9.106
 2927POPC   GL238246   8.717  36.922   9.200
 2927POPC   C1A38247   9.157  36.903   8.679
 2927POPC   D2A38248   9.282  37.295   8.445
 2927POPC   C3A38249   9.317  37.186   8.000
 2927POPC   C4A38250   9.208  36.753   7.806
 2927POPC   C1B38251   8.723  37.158   8.831
 2927POPC   C2B38252   8.668  36.994   8.416
 2927POPC   C3B38253   8.534  37.159   8.041
 2927POPC   C4B38254   8.866  37.124   7.760
 2928POPC   NC338255  21.297  13.731   9.459
 2928POPC   PO438256  21.830  13.966   9.143
 2928POPC   GL138257  21.442  13.778   8.983
 2928POPC   GL238258  21.450  13.411   9.066
 2928POPC   C1A38259  21.122  13.612   8.716
 2928POPC   D2A38260  21.470  13.420   8.518
 2928POPC   C3A38261  21.568  13.572   8.131
 2928POPC   C4A38262  21.502  13.359   7.759
 2928POPC   C1B38263  21.191  13.101   8.801
 2928POPC   C2B38264  21.016  13.234   8.375
 2928POPC   C3B38265  21.076  13.537   8.047
 2928POPC   C4B38266  21.261  13.822   7.716
 2929POPC   NC338267  15.450   0.497   9.495
 2929POPC   PO438268  14.826   0.127   9.536
 2929POPC   GL138269  15.015   0.149   9.161
 2929POPC   GL238270  15.367   0.159   9.128
 2929POPC   C1A38271  14.970   0.406   8.822
 2929POPC   D2A38272  14.781   0.666   8.515
 2929POPC   C3A38273  14.878   0.496   8.100
 2929POPC   C4A38274  15.064   0.756   7.784
 2929POPC   C1B38275  15.474   0.483   8.816
 2929POPC   C2B38276  15.292   0.551   8.410
 2929POPC   C3B38277  15.457   0.484   7.994
 2929POPC   C4B38278  15.735   0.390   7.633
 2930POPC   NC338279  15.833  38.130   9.387
 2930POPC   PO438280  16.315  38.582   9.427
 2930POPC   GL138281  16.110  38.431   9.081
 2930POPC   GL238282  16.235  38.097   9.059
 2930POPC   C1A38283  15.776  38.538   8.791
 2930POPC   D2A38284  15.675  38.396   8.381
 2930POPC   C3A38285  15.952  38.642   8.126
 2930POPC   C4A38286  15.873  38.654   7.727
 2930POPC   C1B38287  16.281  37.943   8.668
 2930POPC   C2B38288  16.203  38.164   8.309
 2930POPC   C3B38289  15.948  38.175   7.981
 2930POPC   C4B38290  16.006  38.174   7.578
 2931POPC   NC338291  32.687  27.367   9.438
 2931POPC   PO438292  33.228  27.670   9.374
 2931POPC   GL138293  32.975  27.583   9.020
 2931POPC   GL238294  32.765  27.293   8.959
 2931POPC   C1A38295  33.154  27.611   8.612
 2931POPC   D2A38296  33.431  27.866   8.358
 2931POPC   C3A38297  33.276  27.783   7.948
 2931POPC   C4A38298  32.930  27.694   7.695
 2931POPC   C1B38299  32.764  27.279   8.545
 2931POPC   C2B38300  32.901  27.446   8.165
 2931POPC   C3B38301  33.088  27.238   7.814
 2931POPC   C4B38302  32.906  27.261   7.388
 2932POPC   NC338303  31.384  41.438   9.585
 2932POPC   PO438304  31.705  42.006   9.426
 2932POPC   GL138305  31.527  41.674   9.161
 2932POPC   GL238306  31.841  41.473   9.157
 2932POPC   C1A38307  31.395  41.418   8.794
 2932POPC   D2A38308  31.194  41.340   8.383
 2932POPC   C3A38309  31.361  41.469   7.965
 2932POPC   C4A38310  31.547  41.175   7.634
 2932POPC   C1B38311  31.808  41.730   8.746
 2932POPC   C2B38312  31.675  41.611   8.342
 2932POPC   C3B38313  31.848  41.327   7.997
 2932POPC   C4B38314  31.834  41.572   7.594
 2933POPC   NC338315  30.891  29.975   9.569
 2933POPC   PO438316  30.402  29.626   9.423
 2933POPC   GL138317  30.664  29.792   9.108
 2933POPC   GL238318  30.767  30.137   9.105
 2933POPC   C1A38319  30.713  29.706   8.683
 2933POPC   D2A38320  30.528  29.591   8.290
 2933POPC   C3A38321  30.660  29.840   7.969
 2933POPC   C4A38322  31.001  29.649   7.864
 2933POPC   C1B38323  31.017  30.117   8.730
 2933POPC   C2B38324  31.034  29.978   8.295
 2933POPC   C3B38325  31.053  30.164   7.877
 2933POPC   C4B38326  30.858  30.244   7.495
 2934POPC   NC338327  15.004   1.384   9.372
 2934POPC   PO438328  15.410   0.932   9.635
 2934POPC   GL138329  15.264   0.943   9.210
 2934POPC   GL238330  15.475   1.225   9.123
 2934POPC   C1A38331  15.224   0.961   8.742
 2934POPC   D2A38332  15.504   1.053   8.382
 2934POPC   C3A38333  15.357   1.190   7.975
 2934POPC   C4A38334  15.417   1.090   7.558
 2934POPC   C1B38335  15.481   1.442   8.740
 2934POPC   C2B38336  15.380   1.549   8.338
 2934POPC   C3B38337  15.541   1.738   7.994
 2934POPC   C4B38338  15.474   1.665   7.565
 2935POPC   NC338339  20.338  34.376   9.502
 2935POPC   PO438340  20.712  34.830   9.285
 2935POPC   GL138341  20.456  34.603   9.060
 2935POPC   GL238342  20.238  34.847   8.985
 2935POPC   C1A38343  20.546  34.570   8.652
 2935POPC   D2A38344  20.791  34.822   8.420
 2935POPC   C3A38345  20.890  34.592   8.066
 2935POPC   C4A38346  20.611  34.703   7.736
 2935POPC   C1B38347  20.318  35.020   8.613
 2935POPC   C2B38348  20.337  34.989   8.178
 2935POPC   C3B38349  20.274  35.081   7.748
 2935POPC   C4B38350  20.153  34.766   7.421
 2936POPC   NC338351   8.486  27.725   9.961
 2936POPC   PO438352   8.548  27.691   9.357
 2936POPC   GL138353   8.277  27.709   9.065
 2936POPC   GL238354   8.190  27.360   9.100
 2936POPC   C1A38355   8.433  27.728   8.656
 2936POPC   D2A38356   8.346  27.505   8.300
 2936POPC   C3A38357   8.326  27.767   7.977
 2936POPC   C4A38358   8.301  27.617   7.605
 2936POPC   C1B38359   7.989  27.462   8.710
 2936POPC   C2B38360   7.816  27.449   8.329
 2936POPC   C3B38361   7.975  27.382   7.934
 2936POPC   C4B38362   7.842  27.440   7.518
 2937POPC   NC338363  44.959  17.471   9.564
 2937POPC   PO438364   0.332  18.002   9.507
 2937POPC   GL138365   0.243  17.654   9.162
 2937POPC   GL238366   0.304  17.284   9.222
 2937POPC   C1A38367   0.345  17.454   8.742
 2937POPC   D2A38368   0.641  17.485   8.388
 2937POPC   C3A38369   0.541  17.615   7.972
 2937POPC   C4A38370   0.708  17.271   7.736
 2937POPC   C1B38371  44.927  17.190   8.959
 2937POPC   C2B38372  44.915  17.203   8.525
 2937POPC   C3B38373  44.953  17.293   8.099
 2937POPC   C4B38374   0.213  17.257   7.758
 2938POPC   NC338375  44.229  12.110   9.475
 2938POPC   PO438376  43.905  11.684   9.773
 2938POPC   GL138377  43.882  11.783   9.266
 2938POPC   GL238378  43.583  12.017   9.112
 2938POPC   C1A38379  43.999  11.928   8.828
 2938POPC   D2A38380  43.950  12.129   8.401
 2938POPC   C3A38381  44.002  11.921   7.995
 2938POPC   C4A38382  43.993  11.994   7.540
 2938POPC   C1B38383  43.525  12.210   8.693
 2938POPC   C2B38384  43.483  12.395   8.268
 2938POPC   C3B38385  43.656  12.294   7.849
 2938POPC   C4B38386  43.632  12.374   7.401
 2939POPC   NC338387  41.628  17.243   9.590
 2939POPC   PO438388  41.973  17.730   9.501
 2939POPC   GL138389  41.753  17.588   9.139
 2939POPC   GL238390  41.397  17.615   9.220
 2939POPC   C1A38391  41.575  17.329   8.794
 2939POPC   D2A38392  41.397  17.114   8.413
 2939POPC   C3A38393  41.630  17.256   8.022
 2939POPC   C4A38394  41.718  17.459   7.617
 2939POPC   C1B38395  41.389  17.802   8.779
 2939POPC   C2B38396  41.432  17.615   8.369
 2939POPC   C3B38397  41.447  17.765   7.948
 2939POPC   C4B38398  41.175  17.608   7.668
 2940POPC   NC338399  20.226  41.015   9.472
 2940POPC   PO438400  20.880  40.805   9.499
 2940POPC   GL138401  20.818  40.986   9.100
 2940POPC   GL238402  20.467  40.867   9.063
 2940POPC   C1A38403  20.716  40.992   8.650
 2940POPC   D2A38404  20.520  40.710   8.419
 2940POPC   C3A38405  20.682  40.634   8.025
 2940POPC   C4A38406  20.391  40.420   7.760
 2940POPC   C1B38407  20.260  41.186   8.801
 2940POPC   C2B38408  20.349  41.242   8.371
 2940POPC   C3B38409  20.481  41.090   8.025
 2940POPC   C4B38410  20.225  40.900   7.716
 2941POPC   NC338411  21.542  36.540   9.472
 2941POPC   PO438412  21.890  35.932   9.545
 2941POPC   GL138413  21.792  35.920   9.122
 2941POPC   GL238414  21.473  36.087   9.129
 2941POPC   C1A38415  21.696  35.975   8.680
 2941POPC   D2A38416  21.412  36.043   8.324
 2941POPC   C3A38417  21.511  36.191   7.910
 2941POPC   C4A38418  21.392  36.161   7.450
 2941POPC   C1B38419  21.169  36.134   8.783
 2941POPC   C2B38420  20.993  36.328   8.425
 2941POPC   C3B38421  21.001  36.278   7.978
 2941POPC   C4B38422  20.764  36.614   7.822
 2942POPC   NC338423   7.857  26.841   9.652
 2942POPC   PO438424   8.408  27.002   9.623
 2942POPC   GL138425   8.203  26.855   9.216
 2942POPC   GL238426   8.511  26.945   9.096
 2942POPC   C1A38427   8.269  26.758   8.713
 2942POPC   D2A38428   8.119  27.031   8.351
 2942POPC   C3A38429   7.920  26.873   7.946
 2942POPC   C4A38430   8.094  26.655   7.548
 2942POPC   C1B38431   8.488  27.204   8.703
 2942POPC   C2B38432   8.628  27.059   8.299
 2942POPC   C3B38433   8.426  26.932   7.945
 2942POPC   C4B38434   8.301  27.118   7.587
 2943POPC   NC338435  23.371  31.263   9.393
 2943POPC   PO438436  24.033  31.545   9.538
 2943POPC   GL138437  23.763  31.510   9.182
 2943POPC   GL238438  23.849  31.223   9.018
 2943POPC   C1A38439  23.598  31.608   8.796
 2943POPC   D2A38440  23.797  31.540   8.405
 2943POPC   C3A38441  23.593  31.620   7.995
 2943POPC   C4A38442  23.854  31.704   7.620
 2943POPC   C1B38443  23.664  31.097   8.631
 2943POPC   C2B38444  23.393  31.210   8.297
 2943POPC   C3B38445  23.353  31.136   7.886
 2943POPC   C4B38446  23.562  31.284   7.551
 2944POPC   NC338447  37.356   4.896   9.506
 2944POPC   PO438448  38.013   5.148   9.581
 2944POPC   GL138449  37.729   5.106   9.234
 2944POPC   GL238450  37.739   4.751   9.199
 2944POPC   C1A38451  37.699   5.258   8.844
 2944POPC   D2A38452  37.854   5.036   8.496
 2944POPC   C3A38453  37.604   4.939   8.160
 2944POPC   C4A38454  37.713   4.976   7.765
 2944POPC   C1B38455  37.421   4.832   8.861
 2944POPC   C2B38456  37.353   4.572   8.499
 2944POPC   C3B38457  37.171   4.497   8.096
 2944POPC   C4B38458  37.264   4.638   7.684
 2945POPC   NC338459  44.592  39.603   9.599
 2945POPC   PO438460  44.913  40.274   9.607
 2945POPC   GL138461  44.742  40.121   9.243
 2945POPC   GL238462   0.079  40.202   9.123
 2945POPC   C1A38463  44.558  40.232   8.837
 2945POPC   D2A38464  44.448  40.163   8.379
 2945POPC   C3A38465  44.550  39.772   8.130
 2945POPC   C4A38466  44.518  39.849   7.669
 2945POPC   C1B38467   0.048  40.380   8.738
 2945POPC   C2B38468  44.977  40.146   8.389
 2945POPC   C3B38469  44.798  40.195   7.997
 2945POPC   C4B38470  44.980  40.036   7.631
 2946POPC   NC338471  15.864  27.776   9.523
 2946POPC   PO438472  15.806  27.177   9.264
 2946POPC   GL138473  15.892  27.575   9.053
 2946POPC   GL238474  16.224  27.701   9.104
 2946POPC   C1A38475  15.767  27.868   8.692
 2946POPC   D2A38476  15.758  27.870   8.220
 2946POPC   C3A38477  15.773  27.465   7.998
 2946POPC   C4A38478  15.507  27.207   7.773
 2946POPC   C1B38479  16.249  27.653   8.686
 2946POPC   C2B38480  16.191  27.511   8.289
 2946POPC   C3B38481  16.181  27.745   7.904
 2946POPC   C4B38482  16.088  28.000   7.574
 2947POPC   NC338483   2.403  38.794   9.607
 2947POPC   PO438484   2.852  39.304   9.485
 2947POPC   GL138485   2.690  39.111   9.098
 2947POPC   GL238486   2.357  38.917   9.085
 2947POPC   C1A38487   2.765  39.324   8.700
 2947POPC   D2A38488   3.097  39.505   8.426
 2947POPC   C3A38489   3.015  39.672   7.989
 2947POPC   C4A38490   3.095  39.556   7.549
 2947POPC   C1B38491   2.496  38.853   8.640
 2947POPC   C2B38492   2.602  39.115   8.253
 2947POPC   C3B38493   2.614  39.333   7.866
 2947POPC   C4B38494   2.681  39.310   7.412
 2948POPC   NC338495  10.481   8.754   9.444
 2948POPC   PO438496  10.322   9.467   9.538
 2948POPC   GL138497  10.384   9.192   9.209
 2948POPC   GL238498  10.700   9.100   9.118
 2948POPC   C1A38499  10.349   9.024   8.752
 2948POPC   D2A38500  10.595   9.124   8.389
 2948POPC   C3A38501  10.402   9.088   8.003
 2948POPC   C4A38502  10.510   9.100   7.585
 2948POPC   C1B38503  10.839   8.846   8.751
 2948POPC   C2B38504  10.821   8.670   8.344
 2948POPC   C3B38505  10.921   8.824   7.941
 2948POPC   C4B38506  11.250   8.599   7.810
 2949POPC   NC338507  12.916  26.898   9.470
 2949POPC   PO438508  12.357  27.235   9.425
 2949POPC   GL138509  12.592  26.997   9.113
 2949POPC   GL238510  12.642  26.596   9.179
 2949POPC   C1A38511  12.885  27.037   8.766
 2949POPC   D2A38512  12.852  26.803   8.367
 2949POPC   C3A38513  13.007  26.942   7.962
 2949POPC   C4A38514  12.833  27.060   7.565
 2949POPC   C1B38515  12.943  26.538   8.829
 2949POPC   C2B38516  13.095  26.359   8.425
 2949POPC   C3B38517  13.032  26.443   7.994
 2949POPC   C4B38518  12.928  26.558   7.566
 2950POPC   NC338519   6.640   3.350   9.379
 2950POPC   PO438520   6.350   3.876   9.330
 2950POPC   GL138521   6.575   3.639   8.956
 2950POPC   GL238522   6.840   3.338   8.913
 2950POPC   C1A38523   6.804   3.760   8.587
 2950POPC   D2A38524   6.580   4.024   8.298
 2950POPC   C3A38525   6.680   3.779   7.958
 2950POPC   C4A38526   6.637   3.691   7.515
 2950POPC   C1B38527   6.523   3.172   8.662
 2950POPC   C2B38528   6.486   3.172   8.221
 2950POPC   C3B38529   6.598   3.275   7.812
 2950POPC   C4B38530   6.745   3.089   7.448
 2951POPC   NC338531  34.947   3.194   9.431
 2951POPC   PO438532  34.390   3.646   9.475
 2951POPC   GL138533  34.429   3.685   9.076
 2951POPC   GL238534  34.614   3.378   9.074
 2951POPC   C1A38535  34.449   3.698   8.618
 2951POPC   D2A38536  34.683   3.927   8.293
 2951POPC   C3A38537  34.541   3.853   7.853
 2951POPC   C4A38538  34.325   3.472   7.696
 2951POPC   C1B38539  34.968   3.305   8.799
 2951POPC   C2B38540  35.024   3.152   8.416
 2951POPC   C3B38541  34.763   3.184   8.069
 2951POPC   C4B38542  34.858   3.398   7.730
 2952POPC   NC338543  18.315  14.651   9.576
 2952POPC   PO438544  18.458  13.966   9.590
 2952POPC   GL138545  18.437  14.242   9.192
 2952POPC   GL238546  18.158  14.441   9.130
 2952POPC   C1A38547  18.478  14.342   8.719
 2952POPC   D2A38548  18.245  14.457   8.328
 2952POPC   C3A38549  18.367  14.564   7.891
 2952POPC   C4A38550  18.389  14.970   7.635
 2952POPC   C1B38551  18.027  14.148   8.822
 2952POPC   C2B38552  18.093  13.981   8.371
 2952POPC   C3B38553  17.966  14.220   7.947
 2952POPC   C4B38554  17.845  14.213   7.462
 2953POPC   NC338555  35.836  11.641   9.532
 2953POPC   PO438556  35.210  11.414   9.610
 2953POPC   GL138557  35.185  11.326   9.172
 2953POPC   GL238558  35.550  11.239   9.101
 2953POPC   C1A38559  35.268  11.437   8.742
 2953POPC   D2A38560  35.467  11.253   8.386
 2953POPC   C3A38561  35.364  11.468   8.005
 2953POPC   C4A38562  35.406  11.779   7.701
 2953POPC   C1B38563  35.320  10.938   8.814
 2953POPC   C2B38564  34.973  10.978   8.531
 2953POPC   C3B38565  34.983  11.133   8.117
 2953POPC   C4B38566  34.991  10.961   7.717
 2954POPC   NC338567  34.428  22.079   9.826
 2954POPC   PO438568  34.909  22.257   9.430
 2954POPC   GL138569  34.500  22.131   9.227
 2954POPC   GL238570  34.295  22.419   9.060
 2954POPC   C1A38571  34.421  21.941   8.832
 2954POPC   D2A38572  34.240  22.143   8.493
 2954POPC   C3A38573  34.407  22.023   8.096
 2954POPC   C4A38574  34.782  21.940   7.869
 2954POPC   C1B38575  34.681  22.378   8.793
 2954POPC   C2B38576  34.771  22.251   8.372
 2954POPC   C3B38577  34.633  22.467   7.997
 2954POPC   C4B38578  34.676  22.351   7.596
 2955POPC   NC338579  24.883   9.127   9.435
 2955POPC   PO438580  24.256   9.224   9.660
 2955POPC   GL138581  24.250   9.239   9.219
 2955POPC   GL238582  24.455   8.985   9.178
 2955POPC   C1A38583  24.539   9.331   8.835
 2955POPC   D2A38584  24.799   9.248   8.496
 2955POPC   C3A38585  24.645   9.214   8.096
 2955POPC   C4A38586  24.572   9.017   7.716
 2955POPC   C1B38587  24.635   8.844   8.776
 2955POPC   C2B38588  24.648   8.766   8.341
 2955POPC   C3B38589  24.610   8.575   7.944
 2955POPC   C4B38590  24.186   8.580   7.815
 2956POPC   NC338591  38.288  27.229   9.608
 2956POPC   PO438592  38.453  26.530   9.626
 2956POPC   GL138593  38.545  26.600   9.236
 2956POPC   GL238594  38.525  26.939   9.250
 2956POPC   C1A38595  38.327  26.642   8.864
 2956POPC   D2A38596  38.293  26.952   8.551
 2956POPC   C3A38597  38.342  26.850   8.147
 2956POPC   C4A38598  38.247  26.491   7.876
 2956POPC   C1B38599  38.689  27.088   8.832
 2956POPC   C2B38600  38.827  26.917   8.413
 2956POPC   C3B38601  38.811  27.003   7.993
 2956POPC   C4B38602  38.560  26.871   7.689
 2957POPC   NC338603  15.859  44.604   9.589
 2957POPC   PO438604  16.353  44.315   9.193
 2957POPC   GL138605  15.974  44.496   9.069
 2957POPC   GL238606  15.920  44.833   9.135
 2957POPC   C1A38607  15.894  44.641   8.642
 2957POPC   D2A38608  16.069  44.825   8.300
 2957POPC   C3A38609  15.832  44.552   8.085
 2957POPC   C4A38610  15.769  44.432   7.700
 2957POPC   C1B38611  15.837   0.117   8.782
 2957POPC   C2B38612  15.648   0.147   8.379
 2957POPC   C3B38613  15.706   0.019   7.968
 2957POPC   C4B38614  16.102  44.868   7.777
 2958POPC   NC338615   2.683  26.025   9.610
 2958POPC   PO438616   3.173  26.361   9.360
 2958POPC   GL138617   2.867  26.209   9.083
 2958POPC   GL238618   2.801  25.904   9.127
 2958POPC   C1A38619   2.843  26.039   8.641
 2958POPC   D2A38620   2.797  25.858   8.216
 2958POPC   C3A38621   2.795  26.140   7.868
 2958POPC   C4A38622   3.083  26.420   7.703
 2958POPC   C1B38623   2.436  25.793   8.834
 2958POPC   C2B38624   2.320  25.767   8.375
 2958POPC   C3B38625   2.399  25.798   7.893
 2958POPC   C4B38626   2.626  25.813   7.469
 2959POPC   NC338627  10.291  26.532   9.575
 2959POPC   PO438628  10.800  26.948   9.573
 2959POPC   GL138629  10.683  26.975   9.162
 2959POPC   GL238630  10.329  26.985   9.160
 2959POPC   C1A38631  10.532  26.812   8.725
 2959POPC   D2A38632  10.443  26.595   8.357
 2959POPC   C3A38633  10.722  26.620   8.003
 2959POPC   C4A38634  10.740  27.024   7.782
 2959POPC   C1B38635  10.092  27.089   8.747
 2959POPC   C2B38636  10.054  26.947   8.301
 2959POPC   C3B38637  10.295  26.869   7.950
 2959POPC   C4B38638  10.273  26.855   7.505
 2960POPC   NC338639  30.152   8.185   9.398
 2960POPC   PO438640  29.702   7.778   9.207
 2960POPC   GL138641  29.799   8.157   9.029
 2960POPC   GL238642  30.153   8.086   8.911
 2960POPC   C1A38643  29.726   8.167   8.608
 2960POPC   D2A38644  30.000   8.238   8.311
 2960POPC   C3A38645  29.756   8.260   7.999
 2960POPC   C4A38646  29.818   8.047   7.639
 2960POPC   C1B38647  30.202   7.813   8.582
 2960POPC   C2B38648  30.358   7.867   8.176
 2960POPC   C3B38649  30.287   8.158   7.845
 2960POPC   C4B38650  30.321   8.217   7.401
 2961POPC   NC338651  10.994   4.611   9.522
 2961POPC   PO438652  10.517   4.151   9.561
 2961POPC   GL138653  10.555   4.262   9.204
 2961POPC   GL238654  10.299   4.530   9.211
 2961POPC   C1A38655  10.476   4.147   8.808
 2961POPC   D2A38656  10.345   4.245   8.443
 2961POPC   C3A38657  10.490   4.102   8.076
 2961POPC   C4A38658  10.696   3.991   7.724
 2961POPC   C1B38659  10.559   4.639   8.874
 2961POPC   C2B38660  10.633   4.695   8.451
 2961POPC   C3B38661  10.431   4.607   8.105
 2961POPC   C4B38662  10.581   4.502   7.739
 2962POPC   NC338663  41.294  43.683   9.365
 2962POPC   PO438664  40.874  44.161   9.663
 2962POPC   GL138665  40.930  44.076   9.202
 2962POPC   GL238666  40.791  43.751   9.215
 2962POPC   C1A38667  40.795  44.117   8.726
 2962POPC   D2A38668  41.047  44.198   8.314
 2962POPC   C3A38669  40.850  44.232   7.911
 2962POPC   C4A38670  40.592  43.939   7.726
 2962POPC   C1B38671  40.641  43.612   8.818
 2962POPC   C2B38672  40.621  43.512   8.344
 2962POPC   C3B38673  40.934  43.695   8.007
 2962POPC   C4B38674  41.299  43.469   7.833
 2963POPC   NC338675  16.336  20.385   9.567
 2963POPC   PO438676  15.632  20.535   9.497
 2963POPC   GL138677  15.965  20.480   9.184
 2963POPC   GL238678  16.034  20.775   8.974
 2963POPC   C1A38679  16.074  20.336   8.754
 2963POPC   D2A38680  16.183  20.616   8.404
 2963POPC   C3A38681  16.065  20.544   7.957
 2963POPC   C4A38682  16.058  20.391   7.535
 2963POPC   C1B38683  15.691  20.645   8.681
 2963POPC   C2B38684  15.725  20.354   8.324
 2963POPC   C3B38685  15.547  20.539   7.958
 2963POPC   C4B38686  15.672  20.772   7.608
 2964POPC   NC338687  24.167  42.840   9.329
 2964POPC   PO438688  23.543  43.093   9.493
 2964POPC   GL138689  23.678  42.906   9.127
 2964POPC   GL238690  23.881  43.202   9.092
 2964POPC   C1A38691  23.762  42.944   8.684
 2964POPC   D2A38692  23.492  42.964   8.353
 2964POPC   C3A38693  23.645  42.824   8.013
 2964POPC   C4A38694  23.700  42.988   7.659
 2964POPC   C1B38695  24.086  43.380   8.741
 2964POPC   C2B38696  24.285  43.313   8.340
 2964POPC   C3B38697  24.107  43.172   7.940
 2964POPC   C4B38698  24.121  43.218   7.489
 2965POPC   NC338699  24.097   0.248   9.437
 2965POPC   PO438700  23.442   0.592   9.428
 2965POPC   GL138701  23.776   0.652   9.147
 2965POPC   GL238702  23.797   0.341   9.035
 2965POPC   C1A38703  23.805   0.716   8.664
 2965POPC   D2A38704  23.732   0.408   8.293
 2965POPC   C3A38705  23.656   0.504   7.830
 2965POPC   C4A38706  23.554   0.484   7.372
 2965POPC   C1B38707  24.136   0.312   8.756
 2965POPC   C2B38708  24.239   0.495   8.382
 2965POPC   C3B38709  24.164   0.298   8.012
 2965POPC   C4B38710  24.158   0.629   7.784
 2966POPC   NC338711   8.404  10.080   9.487
 2966POPC   PO438712   8.184  10.664   9.594
 2966POPC   GL138713   8.129  10.620   9.180
 2966POPC   GL238714   7.803  10.720   9.081
 2966POPC   C1A38715   8.419  10.691   8.849
 2966POPC   D2A38716   8.408  10.547   8.432
 2966POPC   C3A38717   8.316  10.771   8.052
 2966POPC   C4A38718   8.458  10.530   7.692
 2966POPC   C1B38719   7.922  10.439   8.737
 2966POPC   C2B38720   7.903  10.493   8.305
 2966POPC   C3B38721   8.056  10.327   7.954
 2966POPC   C4B38722   7.983  10.470   7.560
 2967POPC   NC338723  39.208  25.187   9.536
 2967POPC   PO438724  39.848  25.575   9.430
 2967POPC   GL138725  39.490  25.377   9.144
 2967POPC   GL238726  39.071  25.406   9.091
 2967POPC   C1A38727  39.405  25.257   8.710
 2967POPC   D2A38728  39.223  25.400   8.320
 2967POPC   C3A38729  39.492  25.317   7.950
 2967POPC   C4A38730  39.382  25.357   7.516
 2967POPC   C1B38731  38.902  25.187   8.719
 2967POPC   C2B38732  38.910  24.990   8.288
 2967POPC   C3B38733  39.014  25.188   7.875
 2967POPC   C4B38734  38.988  25.056   7.395
 2968POPC   NC338735  36.008  23.147   9.255
 2968POPC   PO438736  35.626  23.629   9.673
 2968POPC   GL138737  36.099  23.688   9.306
 2968POPC   GL238738  36.440  23.815   9.124
 2968POPC   C1A38739  36.178  23.570   8.793
 2968POPC   D2A38740  35.934  23.508   8.430
 2968POPC   C3A38741  36.046  23.606   8.007
 2968POPC   C4A38742  36.051  23.408   7.573
 2968POPC   C1B38743  36.341  24.052   8.772
 2968POPC   C2B38744  36.141  23.989   8.401
 2968POPC   C3B38745  36.313  24.051   8.024
 2968POPC   C4B38746  36.318  23.825   7.624
 2969POPC   NC338747  36.149  36.574   9.512
 2969POPC   PO438748  35.960  37.184   9.444
 2969POPC   GL138749  36.343  37.055   9.179
 2969POPC   GL238750  36.561  36.721   9.224
 2969POPC   C1A38751  36.321  37.111   8.728
 2969POPC   D2A38752  36.051  37.125   8.356
 2969POPC   C3A38753  36.260  36.974   7.998
 2969POPC   C4A38754  36.031  36.745   7.688
 2969POPC   C1B38755  36.274  36.613   8.865
 2969POPC   C2B38756  36.173  36.619   8.434
 2969POPC   C3B38757  36.286  36.450   8.039
 2969POPC   C4B38758  36.532  36.622   7.680
 2970POPC   NC338759  14.388  28.980   9.530
 2970POPC   PO438760  14.429  29.636   9.576
 2970POPC   GL138761  14.304  29.362   9.205
 2970POPC   GL238762  14.629  29.261   9.169
 2970POPC   C1A38763  14.239  29.098   8.808
 2970POPC   D2A38764  14.351  28.940   8.415
 2970POPC   C3A38765  14.079  29.047   8.081
 2970POPC   C4A38766  14.138  29.056   7.648
 2970POPC   C1B38767  14.737  29.081   8.792
 2970POPC   C2B38768  14.798  29.207   8.386
 2970POPC   C3B38769  14.618  29.088   7.984
 2970POPC   C4B38770  14.868  28.805   7.781
 2971POPC   NC338771  33.522   2.680   9.503
 2971POPC   PO438772  34.148   2.739   9.357
 2971POPC   GL138773  33.807   2.923   9.149
 2971POPC   GL238774  33.699   2.611   9.022
 2971POPC   C1A38775  33.678   3.053   8.751
 2971POPC   D2A38776  33.686   2.739   8.407
 2971POPC   C3A38777  33.743   2.967   8.050
 2971POPC   C4A38778  34.078   3.013   7.777
 2971POPC   C1B38779  33.481   2.388   8.721
 2971POPC   C2B38780  33.289   2.357   8.338
 2971POPC   C3B38781  33.451   2.494   7.982
 2971POPC   C4B38782  33.835   2.528   7.774
 2972POPC   NC338783  12.534  30.596   9.448
 2972POPC   PO438784  13.189  30.659   9.627
 2972POPC   GL138785  13.023  30.522   9.232
 2972POPC   GL238786  12.866  30.852   9.174
 2972POPC   C1A38787  13.010  30.568   8.767
 2972POPC   D2A38788  13.111  30.721   8.329
 2972POPC   C3A38789  13.002  30.539   7.887
 2972POPC   C4A38790  13.156  30.414   7.419
 2972POPC   C1B38791  12.585  30.875   8.825
 2972POPC   C2B38792  12.554  30.594   8.476
 2972POPC   C3B38793  12.460  30.653   8.052
 2972POPC   C4B38794  12.526  30.917   7.699
 2973POPC   NC338795  16.584  11.996   9.489
 2973POPC   PO438796  17.123  12.315   9.298
 2973POPC   GL138797  16.850  12.109   9.013
 2973POPC   GL238798  16.495  12.158   9.032
 2973POPC   C1A38799  16.865  12.171   8.555
 2973POPC   D2A38800  16.930  12.197   8.088
 2973POPC   C3A38801  16.789  11.851   7.829
 2973POPC   C4A38802  16.853  11.837   7.396
 2973POPC   C1B38803  16.363  12.052   8.659
 2973POPC   C2B38804  16.482  11.997   8.250
 2973POPC   C3B38805  16.431  12.216   7.877
 2973POPC   C4B38806  16.460  12.316   7.424
 2974POPC   NC338807  20.928   1.987   9.765
 2974POPC   PO438808  20.280   1.957   9.508
 2974POPC   GL138809  20.539   2.016   9.087
 2974POPC   GL238810  20.742   2.349   8.956
 2974POPC   C1A38811  20.373   2.139   8.687
 2974POPC   D2A38812  20.571   2.287   8.316
 2974POPC   C3A38813  20.407   2.082   7.972
 2974POPC   C4A38814  20.458   1.697   7.767
 2974POPC   C1B38815  20.874   2.004   8.663
 2974POPC   C2B38816  21.096   1.980   8.252
 2974POPC   C3B38817  20.976   1.820   7.841
 2974POPC   C4B38818  20.896   1.421   7.633
 2975POPC   NC338819  28.524  22.912   9.793
 2975POPC   PO438820  28.098  23.167   9.377
 2975POPC   GL138821  28.254  22.846   9.143
 2975POPC   GL238822  28.596  22.798   9.221
 2975POPC   C1A38823  28.375  22.636   8.754
 2975POPC   D2A38824  28.570  22.778   8.368
 2975POPC   C3A38825  28.606  22.588   7.998
 2975POPC   C4A38826  28.309  22.654   7.733
 2975POPC   C1B38827  28.570  23.095   8.819
 2975POPC   C2B38828  28.420  23.256   8.402
 2975POPC   C3B38829  28.482  23.104   7.958
 2975POPC   C4B38830  28.478  23.212   7.504
 2976POPC   NC338831   9.153  30.032   9.620
 2976POPC   PO438832   8.427  29.990   9.600
 2976POPC   GL138833   8.774  30.068   9.274
 2976POPC   GL238834   9.095  29.925   9.138
 2976POPC   C1A38835   8.764  30.120   8.820
 2976POPC   D2A38836   8.886  29.766   8.561
 2976POPC   C3A38837   8.916  29.833   8.125
 2976POPC   C4A38838   9.115  30.138   7.898
 2976POPC   C1B38839   9.210  29.541   8.957
 2976POPC   C2B38840   9.408  29.412   8.573
 2976POPC   C3B38841   9.378  29.611   8.182
 2976POPC   C4B38842   9.311  29.630   7.779
 2977POPC   NC338843  38.473  34.414   9.507
 2977POPC   PO438844  38.520  35.141   9.504
 2977POPC   GL138845  38.559  34.797   9.171
 2977POPC   GL238846  38.691  34.481   9.053
 2977POPC   C1A38847  38.707  34.842   8.716
 2977POPC   D2A38848  38.490  34.769   8.357
 2977POPC   C3A38849  38.658  34.508   8.072
 2977POPC   C4A38850  38.570  34.354   7.637
 2977POPC   C1B38851  38.314  34.513   8.809
 2977POPC   C2B38852  38.231  34.335   8.411
 2977POPC   C3B38853  38.282  34.168   8.011
 2977POPC   C4B38854  38.083  34.204   7.608
 2978POPC   NC338855  24.106  10.345   9.492
 2978POPC   PO438856  24.745  10.556   9.524
 2978POPC   GL138857  24.507  10.564   9.133
 2978POPC   GL238858  24.178  10.478   9.012
 2978POPC   C1A38859  24.622  10.376   8.739
 2978POPC   D2A38860  24.529  10.272   8.323
 2978POPC   C3A38861  24.509  10.650   8.043
 2978POPC   C4A38862  24.731  10.736   7.639
 2978POPC   C1B38863  24.193  10.090   8.724
 2978POPC   C2B38864  24.044  10.041   8.334
 2978POPC   C3B38865  24.136  10.281   8.007
 2978POPC   C4B38866  24.423  10.303   7.664
 2979POPC   NC338867  29.496  12.236   9.489
 2979POPC   PO438868  30.136  12.290   9.536
 2979POPC   GL138869  30.068  12.136   9.119
 2979POPC   GL238870  29.794  11.966   9.160
 2979POPC   C1A38871  29.952  12.281   8.707
 2979POPC   D2A38872  30.141  12.372   8.329
 2979POPC   C3A38873  29.906  12.258   7.985
 2979POPC   C4A38874  30.069  12.171   7.600
 2979POPC   C1B38875  29.931  11.766   8.779
 2979POPC   C2B38876  29.830  11.862   8.352
 2979POPC   C3B38877  29.917  11.685   7.954
 2979POPC   C4B38878  29.798  11.730   7.530
 2980POPC   NC338879   2.048  10.721   9.546
 2980POPC   PO438880   2.399  10.208   9.404
 2980POPC   GL138881   2.036  10.337   9.169
 2980POPC   GL238882   1.894  10.681   9.090
 2980POPC   C1A38883   2.008  10.313   8.737
 2980POPC   D2A38884   1.834  10.303   8.354
 2980POPC   C3A38885   2.049  10.435   7.995
 2980POPC   C4A38886   1.857  10.400   7.589
 2980POPC   C1B38887   1.967  10.852   8.739
 2980POPC   C2B38888   1.789  10.818   8.354
 2980POPC   C3B38889   2.061  10.970   8.070
 2980POPC   C4B38890   2.118  10.850   7.670
 2981POPC   NC338891  28.150  20.121   9.409
 2981POPC   PO438892  28.379  19.640   9.772
 2981POPC   GL138893  28.532  19.727   9.241
 2981POPC   GL238894  28.358  19.960   8.986
 2981POPC   C1A38895  28.607  19.559   8.780
 2981POPC   D2A38896  28.599  19.327   8.366
 2981POPC   C3A38897  28.501  19.558   7.993
 2981POPC   C4A38898  28.551  19.949   7.805
 2981POPC   C1B38899  28.238  20.204   8.626
 2981POPC   C2B38900  28.257  19.972   8.254
 2981POPC   C3B38901  28.043  19.873   7.911
 2981POPC   C4B38902  28.036  20.075   7.560
 2982POPC   NC338903  44.262  24.708   9.766
 2982POPC   PO438904  43.672  24.520   9.540
 2982POPC   GL138905  43.758  24.567   9.131
 2982POPC   GL238906  43.929  24.276   9.106
 2982POPC   C1A38907  43.760  24.796   8.754
 2982POPC   D2A38908  43.567  24.701   8.407
 2982POPC   C3A38909  43.826  24.635   8.141
 2982POPC   C4A38910  43.815  24.613   7.744
 2982POPC   C1B38911  43.912  24.311   8.654
 2982POPC   C2B38912  44.199  24.322   8.292
 2982POPC   C3B38913  44.045  24.180   7.894
 2982POPC   C4B38914  44.098  24.306   7.450
 2983POPC   NC338915  31.551  36.243   9.549
 2983POPC   PO438916  31.055  35.866   9.472
 2983POPC   GL138917  31.402  35.945   9.143
 2983POPC   GL238918  31.516  36.303   9.067
 2983POPC   C1A38919  31.372  36.019   8.690
 2983POPC   D2A38920  31.616  36.222   8.394
 2983POPC   C3A38921  31.586  36.034   8.018
 2983POPC   C4A38922  31.334  35.789   7.739
 2983POPC   C1B38923  31.825  36.445   8.803
 2983POPC   C2B38924  32.068  36.514   8.409
 2983POPC   C3B38925  31.952  36.580   8.000
 2983POPC   C4B38926  31.745  36.373   7.689
 2984POPC   NC338927  32.721  28.587   9.825
 2984POPC   PO438928  33.297  28.515   9.462
 2984POPC   GL138929  33.331  28.468   9.018
 2984POPC   GL238930  33.432  28.109   8.989
 2984POPC   C1A38931  33.085  28.621   8.650
 2984POPC   D2A38932  32.898  28.498   8.289
 2984POPC   C3A38933  33.232  28.312   8.106
 2984POPC   C4A38934  33.286  28.238   7.712
 2984POPC   C1B38935  33.063  28.107   8.693
 2984POPC   C2B38936  32.904  27.955   8.285
 2984POPC   C3B38937  32.815  28.162   7.875
 2984POPC   C4B38938  32.880  28.104   7.418
 2985POPC   NC338939  37.939  33.701   9.555
 2985POPC   PO438940  37.552  33.822  10.005
 2985POPC   GL138941  37.518  33.957   9.436
 2985POPC   GL238942  37.850  34.101   9.260
 2985POPC   C1A38943  37.509  33.885   8.904
 2985POPC   D2A38944  37.580  33.656   8.448
 2985POPC   C3A38945  37.372  33.810   8.035
 2985POPC   C4A38946  37.366  33.782   7.583
 2985POPC   C1B38947  37.971  34.115   8.820
 2985POPC   C2B38948  37.760  34.140   8.403
 2985POPC   C3B38949  37.867  33.888   8.050
 2985POPC   C4B38950  38.022  33.673   7.704
 2986POPC   NC338951   5.298  19.790   9.418
 2986POPC   PO438952   4.636  19.980   9.619
 2986POPC   GL138953   4.851  19.981   9.196
 2986POPC   GL238954   5.123  20.243   9.210
 2986POPC   C1A38955   5.042  19.759   8.810
 2986POPC   D2A38956   4.987  19.579   8.397
 2986POPC   C3A38957   5.292  19.631   8.120
 2986POPC   C4A38958   5.266  19.755   7.729
 2986POPC   C1B38959   5.014  20.283   8.761
 2986POPC   C2B38960   5.146  20.091   8.331
 2986POPC   C3B38961   5.120  20.242   7.882
 2986POPC   C4B38962   5.243  20.127   7.402
 2987POPC   NC338963  28.793  21.470   9.373
 2987POPC   PO438964  29.516  21.193   9.444
 2987POPC   GL138965  29.224  21.251   9.143
 2987POPC   GL238966  29.235  21.630   9.164
 2987POPC   C1A38967  29.326  21.288   8.720
 2987POPC   D2A38968  29.634  21.515   8.456
 2987POPC   C3A38969  29.539  21.417   8.054
 2987POPC   C4A38970  29.315  21.450   7.685
 2987POPC   C1B38971  29.143  21.774   8.757
 2987POPC   C2B38972  29.116  21.568   8.346
 2987POPC   C3B38973  28.905  21.498   7.973
 2987POPC   C4B38974  28.947  21.816   7.653
 2988POPC   NC338975  43.163  19.242   9.494
 2988POPC   PO438976  42.749  18.649   9.582
 2988POPC   GL138977  42.893  18.878   9.257
 2988POPC   GL238978  43.258  18.818   9.180
 2988POPC   C1A38979  42.877  18.841   8.828
 2988POPC   D2A38980  42.799  19.199   8.587
 2988POPC   C3A38981  42.995  19.104   8.238
 2988POPC   C4A38982  43.107  19.054   7.838
 2988POPC   C1B38983  43.350  19.071   8.791
 2988POPC   C2B38984  43.490  19.216   8.368
 2988POPC   C3B38985  43.370  19.477   8.006
 2988POPC   C4B38986  43.394  19.365   7.540
 2989POPC   NC338987  40.776  10.487   9.865
 2989POPC   PO438988  40.957  10.453   9.248
 2989POPC   GL138989  40.695  10.360   8.930
 2989POPC   GL238990  40.405  10.130   8.951
 2989POPC   C1A38991  40.677  10.637   8.609
 2989POPC   D2A38992  40.615  10.827   8.222
 2989POPC   C3A38993  40.833  10.712   7.871
 2989POPC   C4A38994  40.683  10.903   7.533
 2989POPC   C1B38995  40.683   9.993   8.572
 2989POPC   C2B38996  40.729  10.291   8.234
 2989POPC   C3B38997  40.395  10.452   7.995
 2989POPC   C4B38998  40.551  10.264   7.677
 2990POPC   NC338999  11.369  41.101   9.524
 2990POPC   PO439000  11.508  40.393   9.481
 2990POPC   GL139001  11.405  40.695   9.175
 2990POPC   GL239002  11.722  40.881   9.203
 2990POPC   C1A39003  11.349  41.034   8.851
 2990POPC   D2A39004  11.221  41.133   8.433
 2990POPC   C3A39005  11.082  40.810   8.162
 2990POPC   C4A39006  11.142  40.618   7.803
 2990POPC   C1B39007  11.754  40.683   8.809
 2990POPC   C2B39008  11.497  40.674   8.499
 2990POPC   C3B39009  11.546  40.546   8.087
 2990POPC   C4B39010  11.768  40.637   7.749
 2991POPC   NC339011  37.989  26.414   9.536
 2991POPC   PO439012  37.564  26.025   9.798
 2991POPC   GL139013  37.413  26.132   9.368
 2991POPC   GL239014  37.742  26.112   9.218
 2991POPC   C1A39015  37.353  26.188   8.910
 2991POPC   D2A39016  37.344  25.901   8.565
 2991POPC   C3A39017  37.307  26.090   8.174
 2991POPC   C4A39018  37.429  25.849   7.840
 2991POPC   C1B39019  37.807  25.922   8.815
 2991POPC   C2B39020  37.801  26.089   8.361
 2991POPC   C3B39021  37.915  26.052   7.912
 2991POPC   C4B39022  37.723  26.072   7.502
 2992POPC   NC339023  40.562  30.920   9.593
 2992POPC   PO439024  40.974  30.363   9.370
 2992POPC   GL139025  40.766  30.701   9.140
 2992POPC   GL239026  41.049  30.798   8.953
 2992POPC   C1A39027  40.592  30.906   8.747
 2992POPC   D2A39028  40.684  31.084   8.337
 2992POPC   C3A39029  40.542  30.867   7.966
 2992POPC   C4A39030  40.675  30.800   7.548
 2992POPC   C1B39031  40.831  30.466   8.686
 2992POPC   C2B39032  40.864  30.576   8.254
 2992POPC   C3B39033  41.058  30.786   7.879
 2992POPC   C4B39034  41.168  30.695   7.411
 2993POPC   NC339035   3.806  25.084   9.516
 2993POPC   PO439036   4.438  25.425   9.493
 2993POPC   GL139037   4.221  25.221   9.192
 2993POPC   GL239038   4.113  25.539   9.055
 2993POPC   C1A39039   4.409  25.128   8.791
 2993POPC   D2A39040   4.725  25.334   8.520
 2993POPC   C3A39041   4.628  25.316   8.070
 2993POPC   C4A39042   4.374  25.071   7.762
 2993POPC   C1B39043   3.972  25.449   8.645
 2993POPC   C2B39044   3.742  25.417   8.218
 2993POPC   C3B39045   3.949  25.389   7.801
 2993POPC   C4B39046   4.339  25.596   7.698
 2994POPC   NC339047  27.119   5.903   9.465
 2994POPC   PO439048  26.500   5.738   9.522
 2994POPC   GL139049  26.694   5.874   9.144
 2994POPC   GL239050  26.940   5.595   9.091
 2994POPC   C1A39051  26.552   5.784   8.714
 2994POPC   D2A39052  26.774   5.582   8.379
 2994POPC   C3A39053  26.555   5.643   8.001
 2994POPC   C4A39054  26.791   5.752   7.621
 2994POPC   C1B39055  27.047   5.895   8.772
 2994POPC   C2B39056  27.220   5.853   8.395
 2994POPC   C3B39057  27.122   5.818   8.000
 2994POPC   C4B39058  27.267   6.075   7.688
 2995POPC   NC339059  21.758   8.484   9.507
 2995POPC   PO439060  22.255   7.988   9.567
 2995POPC   GL139061  22.285   8.262   9.207
 2995POPC   GL239062  22.012   8.100   9.123
 2995POPC   C1A39063  22.029   8.551   8.912
 2995POPC   D2A39064  21.893   8.571   8.474
 2995POPC   C3A39065  22.269   8.633   8.214
 2995POPC   C4A39066  22.315   8.547   7.769
 2995POPC   C1B39067  21.948   8.095   8.705
 2995POPC   C2B39068  22.188   8.136   8.357
 2995POPC   C3B39069  22.104   8.127   7.954
 2995POPC   C4B39070  22.444   8.050   7.732
 2996POPC   NC339071   2.997   9.866   9.570
 2996POPC   PO439072   2.771   9.284   9.499
 2996POPC   GL139073   2.888   9.590   9.155
 2996POPC   GL239074   2.743   9.936   9.117
 2996POPC   C1A39075   3.075   9.757   8.780
 2996POPC   D2A39076   2.995  10.036   8.472
 2996POPC   C3A39077   2.967   9.777   8.154
 2996POPC   C4A39078   3.013   9.687   7.738
 2996POPC   C1B39079   2.537  10.155   8.725
 2996POPC   C2B39080   2.479  10.189   8.261
 2996POPC   C3B39081   2.532   9.875   7.937
 2996POPC   C4B39082   2.619   9.886   7.475
 2997POPC   NC339083  39.094  27.669   9.594
 2997POPC   PO439084  39.577  27.225   9.488
 2997POPC   GL139085  39.239  27.365   9.173
 2997POPC   GL239086  39.223  27.728   9.109
 2997POPC   C1A39087  39.092  27.392   8.721
 2997POPC   D2A39088  39.029  27.592   8.302
 2997POPC   C3A39089  39.139  27.367   7.910
 2997POPC   C4A39090  39.382  27.298   7.522
 2997POPC   C1B39091  39.447  27.807   8.737
 2997POPC   C2B39092  39.411  27.952   8.325
 2997POPC   C3B39093  39.481  27.742   7.950
 2997POPC   C4B39094  39.231  27.761   7.577
 2998POPC   NC339095   3.150  44.588   9.378
 2998POPC   PO439096   2.514  44.382   9.411
 2998POPC   GL139097   2.642  44.695   9.064
 2998POPC   GL239098   2.987  44.831   8.963
 2998POPC   C1A39099   2.518  44.928   8.717
 2998POPC   D2A39100   2.412   0.063   8.335
 2998POPC   C3A39101   2.721  44.794   8.131
 2998POPC   C4A39102   2.739  44.788   7.708
 2998POPC   C1B39103   3.047  44.485   8.711
 2998POPC   C2B39104   3.208  44.475   8.315
 2998POPC   C3B39105   3.050  44.309   7.926
 2998POPC   C4B39106   3.081  44.480   7.518
 2999POPC   NC339107   6.470  26.267   9.463
 2999POPC   PO439108   6.973  25.859   9.479
 2999POPC   GL139109   6.603  25.846   9.156
 2999POPC   GL239110   6.729  26.119   9.046
 2999POPC   C1A39111   6.389  25.879   8.761
 2999POPC   D2A39112   6.474  26.020   8.362
 2999POPC   C3A39113   6.808  25.822   8.161
 2999POPC   C4A39114   6.885  25.901   7.780
 2999POPC   C1B39115   6.972  26.340   8.755
 2999POPC   C2B39116   6.996  26.241   8.347
 2999POPC   C3B39117   6.976  26.412   7.950
 2999POPC   C4B39118   6.871  26.355   7.503
 3000POPC   NC339119   7.757  10.450   9.530
 3000POPC   PO439120   7.011  10.333   9.481
 3000POPC   GL139121   7.329  10.491   9.192
 3000POPC   GL239122   7.575  10.245   9.081
 3000POPC   C1A39123   7.343  10.787   8.846
 3000POPC   D2A39124   7.522  10.803   8.440
 3000POPC   C3A39125   7.281  10.802   8.053
 3000POPC   C4A39126   7.438  10.730   7.639
 3000POPC   C1B39127   7.424  10.320   8.638
 3000POPC   C2B39128   7.373  10.321   8.183
 3000POPC   C3B39129   7.591  10.257   7.819
 3000POPC   C4B39130   7.559  10.313   7.365
 3001POPC   NC339131  43.723   5.584   9.281
 3001POPC   PO439132  44.088   5.149   9.644
 3001POPC   GL139133  43.994   4.955   9.210
 3001POPC   GL239134  43.730   5.135   9.038
 3001POPC   C1A39135  43.950   4.824   8.748
 3001POPC   D2A39136  43.783   4.970   8.359
 3001POPC   C3A39137  43.993   4.827   7.971
 3001POPC   C4A39138  44.067   4.911   7.528
 3001POPC   C1B39139  43.439   5.326   8.736
 3001POPC   C2B39140  43.467   5.577   8.425
 3001POPC   C3B39141  43.645   5.433   8.084
 3001POPC   C4B39142  43.534   5.597   7.689
 3002POPC   NC339143   5.307   9.188   9.445
 3002POPC   PO439144   4.978   8.628   9.751
 3002POPC   GL139145   5.115   8.683   9.295
 3002POPC   GL239146   5.478   8.723   9.240
 3002POPC   C1A39147   5.132   8.875   8.870
 3002POPC   D2A39148   4.770   8.896   8.578
 3002POPC   C3A39149   4.853   8.936   8.152
 3002POPC   C4A39150   5.085   9.077   7.786
 3002POPC   C1B39151   5.497   8.484   8.842
 3002POPC   C2B39152   5.338   8.562   8.448
 3002POPC   C3B39153   5.376   8.815   8.098
 3002POPC   C4B39154   5.436   8.742   7.620
 3003POPC   NC339155  35.517  39.720   9.453
 3003POPC   PO439156  35.224  40.298   9.371
 3003POPC   GL139157  35.249  39.970   9.048
 3003POPC   GL239158  35.351  39.619   8.974
 3003POPC   C1A39159  35.121  39.989   8.614
 3003POPC   D2A39160  35.234  40.300   8.316
 3003POPC   C3A39161  35.325  40.161   7.937
 3003POPC   C4A39162  35.524  40.228   7.600
 3003POPC   C1B39163  35.612  39.854   8.699
 3003POPC   C2B39164  35.573  39.904   8.292
 3003POPC   C3B39165  35.665  39.713   7.927
 3003POPC   C4B39166  35.424  39.710   7.559
 3004POPC   NC339167   0.812  27.563   9.509
 3004POPC   PO439168   1.481  27.496   9.513
 3004POPC   GL139169   1.198  27.618   9.170
 3004POPC   GL239170   1.096  27.962   9.249
 3004POPC   C1A39171   1.126  27.560   8.709
 3004POPC   D2A39172   1.257  27.331   8.334
 3004POPC   C3A39173   1.112  27.499   7.957
 3004POPC   C4A39174   1.206  27.543   7.514
 3004POPC   C1B39175   1.317  28.014   8.836
 3004POPC   C2B39176   1.385  27.889   8.367
 3004POPC   C3B39177   1.256  27.988   7.937
 3004POPC   C4B39178   0.846  27.893   7.722
 3005POPC   NC339179   6.547  43.513   9.408
 3005POPC   PO439180   6.458  42.875   9.407
 3005POPC   GL139181   6.710  43.041   9.068
 3005POPC   GL239182   6.852  43.402   9.031
 3005POPC   C1A39183   6.716  42.912   8.640
 3005POPC   D2A39184   6.983  42.951   8.325
 3005POPC   C3A39185   6.834  43.078   8.001
 3005POPC   C4A39186   6.718  42.864   7.662
 3005POPC   C1B39187   6.549  43.380   8.727
 3005POPC   C2B39188   6.680  43.430   8.332
 3005POPC   C3B39189   6.504  43.557   7.975
 3005POPC   C4B39190   6.352  43.372   7.633
 3006POPC   NC339191  13.818  16.314   9.490
 3006POPC   PO439192  13.609  15.662   9.579
 3006POPC   GL139193  13.687  15.870   9.217
 3006POPC   GL239194  13.334  15.914   9.169
 3006POPC   C1A39195  13.867  16.016   8.828
 3006POPC   D2A39196  13.652  16.208   8.497
 3006POPC   C3A39197  13.861  16.050   8.175
 3006POPC   C4A39198  13.823  16.011   7.765
 3006POPC   C1B39199  13.204  16.056   8.758
 3006POPC   C2B39200  13.222  15.965   8.335
 3006POPC   C3B39201  13.376  16.139   7.983
 3006POPC   C4B39202  13.274  15.908   7.632
 3007POPC   NC339203  14.814   7.936   9.373
 3007POPC   PO439204  15.450   8.136   9.321
 3007POPC   GL139205  15.210   8.303   8.990
 3007POPC   GL239206  14.834   8.382   9.080
 3007POPC   C1A39207  15.296   8.064   8.609
 3007POPC   D2A39208  15.612   7.946   8.286
 3007POPC   C3A39209  15.478   8.069   7.887
 3007POPC   C4A39210  15.483   7.997   7.457
 3007POPC   C1B39211  14.837   8.283   8.623
 3007POPC   C2B39212  14.913   8.207   8.203
 3007POPC   C3B39213  15.075   8.402   7.849
 3007POPC   C4B39214  14.984   8.358   7.379
 3008POPC   NC339215  11.989  10.625   9.496
 3008POPC   PO439216  12.168   9.961   9.434
 3008POPC   GL139217  12.025  10.284   9.094
 3008POPC   GL239218  12.184  10.648   9.044
 3008POPC   C1A39219  11.846  10.484   8.712
 3008POPC   D2A39220  11.628  10.365   8.351
 3008POPC   C3A39221  11.931  10.383   8.074
 3008POPC   C4A39222  11.953  10.611   7.729
 3008POPC   C1B39223  12.390  10.506   8.707
 3008POPC   C2B39224  12.390  10.444   8.304
 3008POPC   C3B39225  12.406  10.691   7.952
 3008POPC   C4B39226  12.430  10.788   7.530
 3009POPC   NC339227  32.051  13.044   9.415
 3009POPC   PO439228  32.451  12.560   9.607
 3009POPC   GL139229  32.409  12.710   9.157
 3009POPC   GL239230  32.372  13.055   9.036
 3009POPC   C1A39231  32.197  12.723   8.723
 3009POPC   D2A39232  32.070  12.907   8.360
 3009POPC   C3A39233  32.263  12.646   8.093
 3009POPC   C4A39234  32.123  12.628   7.715
 3009POPC   C1B39235  32.299  13.268   8.668
 3009POPC   C2B39236  32.419  13.450   8.277
 3009POPC   C3B39237  32.325  13.155   7.984
 3009POPC   C4B39238  32.404  13.036   7.581
 3010POPC   NC339239  17.148  33.225   9.400
 3010POPC   PO439240  16.716  33.732   9.592
 3010POPC   GL139241  16.886  33.744   9.166
 3010POPC   GL239242  17.068  33.508   8.984
 3010POPC   C1A39243  16.722  33.932   8.795
 3010POPC   D2A39244  16.862  33.923   8.383
 3010POPC   C3A39245  16.564  34.072   8.076
 3010POPC   C4A39246  16.777  33.919   7.740
 3010POPC   C1B39247  16.596  33.446   8.841
 3010POPC   C2B39248  16.435  33.652   8.448
 3010POPC   C3B39249  16.574  33.551   8.066
 3010POPC   C4B39250  16.503  33.249   7.767
 3011POPC   NC339251  28.862  23.415   9.412
 3011POPC   PO439252  29.384  23.776   9.686
 3011POPC   GL139253  29.179  23.773   9.225
 3011POPC   GL239254  28.858  23.788   9.043
 3011POPC   C1A39255  29.297  23.746   8.752
 3011POPC   D2A39256  29.254  23.527   8.328
 3011POPC   C3A39257  29.370  23.324   7.946
 3011POPC   C4A39258  29.329  23.513   7.528
 3011POPC   C1B39259  28.886  24.044   8.666
 3011POPC   C2B39260  29.153  24.027   8.310
 3011POPC   C3B39261  29.083  23.828   7.907
 3011POPC   C4B39262  28.929  24.128   7.623
 3012POPC   NC339263  34.957  21.773   9.385
 3012POPC   PO439264  35.358  21.214   9.452
 3012POPC   GL139265  35.492  21.351   9.089
 3012POPC   GL239266  35.284  21.605   9.031
 3012POPC   C1A39267  35.409  21.166   8.757
 3012POPC   D2A39268  35.119  21.297   8.488
 3012POPC   C3A39269  35.162  21.161   8.070
 3012POPC   C4A39270  35.248  21.070   7.622
 3012POPC   C1B39271  35.446  21.665   8.630
 3012POPC   C2B39272  35.559  21.447   8.264
 3012POPC   C3B39273  35.438  21.515   7.850
 3012POPC   C4B39274  34.994  21.503   7.728
 3013POPC   NC339275   4.418  34.302   9.817
 3013POPC   PO439276   4.138  34.775   9.408
 3013POPC   GL139277   4.284  34.928   9.063
 3013POPC   GL239278   3.943  35.086   9.059
 3013POPC   C1A39279   4.469  34.706   8.707
 3013POPC   D2A39280   4.541  34.386   8.394
 3013POPC   C3A39281   4.366  34.427   7.988
 3013POPC   C4A39282   4.382  34.203   7.619
 3013POPC   C1B39283   3.958  34.793   8.709
 3013POPC   C2B39284   4.118  34.747   8.305
 3013POPC   C3B39285   4.054  34.816   7.890
 3013POPC   C4B39286   3.790  34.901   7.536
 3014POPC   NC339287  21.271   5.158   9.798
 3014POPC   PO439288  21.615   4.578   9.572
 3014POPC   GL139289  21.564   4.974   9.302
 3014POPC   GL239290  21.236   5.083   9.168
 3014POPC   C1A39291  21.641   5.153   8.859
 3014POPC   D2A39292  21.432   5.075   8.443
 3014POPC   C3A39293  21.622   5.036   8.037
 3014POPC   C4A39294  21.426   4.978   7.609
 3014POPC   C1B39295  21.109   5.344   8.761
 3014POPC   C2B39296  21.073   5.448   8.300
 3014POPC   C3B39297  21.240   5.366   7.896
 3014POPC   C4B39298  21.662   5.436   7.741
 3015POPC   NC339299  34.816  40.075   9.337
 3015POPC   PO439300  34.386  39.674   9.485
 3015POPC   GL139301  34.388  39.949   9.105
 3015POPC   GL239302  34.213  40.256   9.084
 3015POPC   C1A39303  34.608  40.156   8.748
 3015POPC   D2A39304  34.741  40.321   8.406
 3015POPC   C3A39305  34.784  40.174   8.008
 3015POPC   C4A39306  34.965  39.894   7.729
 3015POPC   C1B39307  34.118  40.091   8.693
 3015POPC   C2B39308  34.221  39.993   8.312
 3015POPC   C3B39309  34.264  40.170   7.947
 3015POPC   C4B39310  34.450  40.311   7.605
 3016POPC   NC339311  29.310  19.132   9.544
 3016POPC   PO439312  28.688  18.895   9.552
 3016POPC   GL139313  28.991  19.046   9.148
 3016POPC   GL239314  29.408  19.124   9.056
 3016POPC   C1A39315  29.061  19.039   8.693
 3016POPC   D2A39316  29.110  19.365   8.423
 3016POPC   C3A39317  29.288  19.351   8.028
 3016POPC   C4A39318  28.909  19.256   7.772
 3016POPC   C1B39319  29.539  18.793   8.766
 3016POPC   C2B39320  29.284  18.619   8.455
 3016POPC   C3B39321  29.073  18.909   8.158
 3016POPC   C4B39322  29.294  18.938   7.734
 3017POPC   NC339323  22.074  12.826   9.577
 3017POPC   PO439324  22.298  13.411   9.619
 3017POPC   GL139325  22.339  13.087   9.241
 3017POPC   GL239326  22.087  12.835   9.065
 3017POPC   C1A39327  22.442  13.067   8.817
 3017POPC   D2A39328  22.178  12.995   8.478
 3017POPC   C3A39329  22.212  12.955   8.052
 3017POPC   C4A39330  21.829  12.976   7.783
 3017POPC   C1B39331  22.322  12.569   8.714
 3017POPC   C2B39332  22.319  12.501   8.241
 3017POPC   C3B39333  22.116  12.546   7.785
 3017POPC   C4B39334  22.338  12.528   7.358
 3018POPC   NC339335  12.729  39.693   9.758
 3018POPC   PO439336  13.239  39.842   9.354
 3018POPC   GL139337  12.882  39.917   9.139
 3018POPC   GL239338  12.583  39.744   9.201
 3018POPC   C1A39339  12.881  39.828   8.720
 3018POPC   D2A39340  12.920  40.018   8.334
 3018POPC   C3A39341  12.968  39.667   8.071
 3018POPC   C4A39342  13.218  39.589   7.700
 3018POPC   C1B39343  12.467  40.085   8.839
 3018POPC   C2B39344  12.275  40.123   8.410
 3018POPC   C3B39345  12.497  40.062   7.994
 3018POPC   C4B39346  12.769  39.887   7.670
 3019POPC   NC339347  12.330  11.282   9.461
 3019POPC   PO439348  12.966  11.604   9.561
 3019POPC   GL139349  12.953  11.347   9.174
 3019POPC   GL239350  12.907  10.981   9.207
 3019POPC   C1A39351  13.023  11.231   8.724
 3019POPC   D2A39352  12.944  11.288   8.264
 3019POPC   C3A39353  13.113  11.608   7.949
 3019POPC   C4A39354  13.159  11.528   7.471
 3019POPC   C1B39355  12.557  11.044   8.871
 3019POPC   C2B39356  12.413  11.267   8.497
 3019POPC   C3B39357  12.488  11.178   8.064
 3019POPC   C4B39358  12.810  11.231   7.727
 3020POPC   NC339359  31.165  22.317   9.496
 3020POPC   PO439360  31.806  22.034   9.502
 3020POPC   GL139361  31.551  22.211   9.202
 3020POPC   GL239362  31.336  21.925   9.147
 3020POPC   C1A39363  31.318  22.334   8.828
 3020POPC   D2A39364  31.490  22.231   8.434
 3020POPC   C3A39365  31.329  22.369   8.034
 3020POPC   C4A39366  31.446  22.542   7.624
 3020POPC   C1B39367  31.680  21.892   8.826
 3020POPC   C2B39368  31.947  22.021   8.504
 3020POPC   C3B39369  31.826  22.077   8.081
 3020POPC   C4B39370  31.852  21.781   7.753
 3021POPC   NC339371  39.758  23.724   9.539
 3021POPC   PO439372  39.299  23.262   9.235
 3021POPC   GL139373  39.725  23.505   9.057
 3021POPC   GL239374  40.058  23.743   9.127
 3021POPC   C1A39375  39.827  23.743   8.645
 3021POPC   D2A39376  39.762  23.741   8.173
 3021POPC   C3A39377  40.000  23.378   8.006
 3021POPC   C4A39378  40.332  23.284   7.735
 3021POPC   C1B39379  40.202  24.024   8.827
 3021POPC   C2B39380  40.304  23.977   8.384
 3021POPC   C3B39381  40.176  23.970   7.958
 3021POPC   C4B39382  40.422  23.930   7.616
 3022POPC   NC339383  27.210  30.548   9.211
 3022POPC   PO439384  26.577  30.610   9.586
 3022POPC   GL139385  26.624  30.544   9.099
 3022POPC   GL239386  26.776  30.844   8.961
 3022POPC   C1A39387  26.512  30.621   8.611
 3022POPC   D2A39388  26.680  30.922   8.304
 3022POPC   C3A39389  26.789  30.666   7.973
 3022POPC   C4A39390  26.512  30.445   7.733
 3022POPC   C1B39391  27.033  30.684   8.599
 3022POPC   C2B39392  27.227  30.342   8.345
 3022POPC   C3B39393  27.263  30.429   7.910
 3022POPC   C4B39394  27.069  30.593   7.543
 3023POPC   NC339395  38.576  36.207   9.501
 3023POPC   PO439396  38.122  35.791   9.759
 3023POPC   GL139397  38.104  36.065   9.296
 3023POPC   GL239398  38.430  36.130   9.042
 3023POPC   C1A39399  38.026  36.044   8.802
 3023POPC   D2A39400  38.294  36.292   8.527
 3023POPC   C3A39401  38.263  36.290   8.076
 3023POPC   C4A39402  38.396  36.001   7.733
 3023POPC   C1B39403  38.725  36.381   8.821
 3023POPC   C2B39404  38.781  36.485   8.394
 3023POPC   C3B39405  38.782  36.178   8.079
 3023POPC   C4B39406  38.866  36.127   7.664
 3024POPC   NC339407  26.073   7.115   9.539
 3024POPC   PO439408  26.314   7.721   9.428
 3024POPC   GL139409  26.032   7.605   9.104
 3024POPC   GL239410  25.845   7.304   9.110
 3024POPC   C1A39411  26.065   7.602   8.650
 3024POPC   D2A39412  26.292   7.782   8.279
 3024POPC   C3A39413  26.120   7.598   7.894
 3024POPC   C4A39414  26.196   7.198   7.714
 3024POPC   C1B39415  25.925   7.093   8.704
 3024POPC   C2B39416  26.082   7.088   8.263
 3024POPC   C3B39417  25.882   6.888   7.912
 3024POPC   C4B39418  25.914   6.799   7.447
 3025POPC   NC339419  23.057  44.283   9.304
 3025POPC   PO439420  22.661  43.905   9.746
 3025POPC   GL139421  22.930  43.784   9.351
 3025POPC   GL239422  22.753  43.954   9.052
 3025POPC   C1A39423  23.130  43.647   8.922
 3025POPC   D2A39424  23.231  43.603   8.448
 3025POPC   C3A39425  23.379  43.922   8.127
 3025POPC   C4A39426  23.178  44.242   7.828
 3025POPC   C1B39427  22.760  43.810   8.595
 3025POPC   C2B39428  22.871  43.977   8.181
 3025POPC   C3B39429  22.666  44.060   7.776
 3025POPC   C4B39430  22.476  44.162   7.365
 3026POPC   NC339431   1.874  24.761   9.495
 3026POPC   PO439432   2.504  24.532   9.610
 3026POPC   GL139433   2.289  24.601   9.209
 3026POPC   GL239434   2.410  24.305   9.074
 3026POPC   C1A39435   1.941  24.591   8.870
 3026POPC   D2A39436   1.664  24.861   8.573
 3026POPC   C3A39437   1.585  24.712   8.138
 3026POPC   C4A39438   1.789  24.630   7.726
 3026POPC   C1B39439   2.383  24.510   8.684
 3026POPC   C2B39440   2.074  24.560   8.347
 3026POPC   C3B39441   2.223  24.450   7.943
 3026POPC   C4B39442   2.111  24.154   7.645
 3027POPC   NC339443   6.347  32.791   9.502
 3027POPC   PO439444   5.712  33.003   9.669
 3027POPC   GL139445   5.879  33.072   9.275
 3027POPC   GL239446   5.595  33.251   9.140
 3027POPC   C1A39447   5.910  32.948   8.856
 3027POPC   D2A39448   5.953  32.961   8.423
 3027POPC   C3A39449   5.982  33.019   8.001
 3027POPC   C4A39450   6.076  32.747   7.695
 3027POPC   C1B39451   5.432  33.076   8.739
 3027POPC   C2B39452   5.470  33.038   8.279
 3027POPC   C3B39453   5.556  33.301   7.906
 3027POPC   C4B39454   5.803  33.165   7.527
 3028POPC   NC339455   5.792   8.346   9.669
 3028POPC   PO439456   6.182   7.834   9.816
 3028POPC   GL139457   5.865   8.011   9.316
 3028POPC   GL239458   5.579   7.886   9.189
 3028POPC   C1A39459   5.956   8.217   8.849
 3028POPC   D2A39460   6.222   8.248   8.441
 3028POPC   C3A39461   6.057   8.355   8.031
 3028POPC   C4A39462   5.876   8.113   7.717
 3028POPC   C1B39463   5.544   7.941   8.747
 3028POPC   C2B39464   5.730   8.081   8.354
 3028POPC   C3B39465   5.539   8.341   8.019
 3028POPC   C4B39466   5.378   8.239   7.623
 3029POPC   NC339467  19.056   5.527   9.515
 3029POPC   PO439468  18.982   4.867   9.558
 3029POPC   GL139469  18.940   5.080   9.153
 3029POPC   GL239470  19.098   4.795   8.993
 3029POPC   C1A39471  19.124   5.315   8.775
 3029POPC   D2A39472  19.103   5.225   8.326
 3029POPC   C3A39473  19.186   5.474   7.942
 3029POPC   C4A39474  18.991   5.365   7.543
 3029POPC   C1B39475  19.206   4.626   8.594
 3029POPC   C2B39476  19.195   4.707   8.143
 3029POPC   C3B39477  19.045   4.948   7.805
 3029POPC   C4B39478  19.157   4.916   7.327
 3030POPC   NC339479  43.865  34.842   9.425
 3030POPC   PO439480  43.632  34.177   9.507
 3030POPC   GL139481  43.766  34.246   9.070
 3030POPC   GL239482  44.002  34.480   9.114
 3030POPC   C1A39483  43.906  34.454   8.641
 3030POPC   D2A39484  43.724  34.684   8.337
 3030POPC   C3A39485  43.582  34.412   8.052
 3030POPC   C4A39486  43.689  34.328   7.644
 3030POPC   C1B39487  44.174  34.838   8.829
 3030POPC   C2B39488  44.218  34.825   8.375
 3030POPC   C3B39489  44.071  34.592   7.988
 3030POPC   C4B39490  44.034  34.743   7.550
 3031POPC   NC339491  19.399  27.328   9.302
 3031POPC   PO439492  19.970  27.749   9.494
 3031POPC   GL139493  20.164  27.723   9.129
 3031POPC   GL239494  19.833  27.586   9.014
 3031POPC   C1A39495  20.157  27.834   8.711
 3031POPC   D2A39496  19.894  27.652   8.409
 3031POPC   C3A39497  20.102  27.633   8.029
 3031POPC   C4A39498  20.090  27.851   7.656
 3031POPC   C1B39499  20.125  27.329   8.770
 3031POPC   C2B39500  20.097  27.170   8.371
 3031POPC   C3B39501  19.799  27.213   8.010
 3031POPC   C4B39502  19.873  27.358   7.604
 3032POPC   NC339503  40.952  24.965   9.428
 3032POPC   PO439504  40.915  25.661   9.358
 3032POPC   GL139505  40.682  25.475   9.058
 3032POPC   GL239506  40.648  25.108   9.055
 3032POPC   C1A39507  40.726  25.424   8.627
 3032POPC   D2A39508  41.097  25.425   8.410
 3032POPC   C3A39509  41.107  25.082   8.179
 3032POPC   C4A39510  40.905  25.161   7.803
 3032POPC   C1B39511  40.841  24.925   8.705
 3032POPC   C2B39512  40.638  24.945   8.323
 3032POPC   C3B39513  40.410  25.221   8.085
 3032POPC   C4B39514  40.358  25.279   7.679
 3033POPC   NC339515   3.241  13.031   9.489
 3033POPC   PO439516   3.622  12.525   9.745
 3033POPC   GL139517   3.514  12.533   9.230
 3033POPC   GL239518   3.444  12.868   9.055
 3033POPC   C1A39519   3.593  12.456   8.764
 3033POPC   D2A39520   3.691  12.386   8.306
 3033POPC   C3A39521   3.420  12.655   8.028
 3033POPC   C4A39522   3.459  12.756   7.587
 3033POPC   C1B39523   3.373  13.184   8.713
 3033POPC   C2B39524   3.223  13.191   8.287
 3033POPC   C3B39525   3.462  13.183   7.884
 3033POPC   C4B39526   3.766  13.148   7.498
 3034POPC   NC339527  37.146  36.628   9.448
 3034POPC   PO439528  36.676  37.125   9.597
 3034POPC   GL139529  36.947  37.084   9.216
 3034POPC   GL239530  37.026  36.789   8.999
 3034POPC   C1A39531  37.072  37.270   8.840
 3034POPC   D2A39532  36.788  37.255   8.501
 3034POPC   C3A39533  36.938  37.076   8.115
 3034POPC   C4A39534  36.754  37.121   7.733
 3034POPC   C1B39535  36.727  36.789   8.691
 3034POPC   C2B39536  36.705  36.642   8.273
 3034POPC   C3B39537  36.992  36.596   7.926
 3034POPC   C4B39538  37.038  36.647   7.500
 3035POPC   NC339539  44.715  13.009   9.532
 3035POPC   PO439540  44.617  12.364   9.440
 3035POPC   GL139541  44.865  12.681   9.136
 3035POPC   GL239542  44.919  13.069   9.070
 3035POPC   C1A39543  44.692  12.726   8.730
 3035POPC   D2A39544  44.698  12.804   8.303
 3035POPC   C3A39545  44.525  12.615   7.945
 3035POPC   C4A39546  44.845  12.638   7.658
 3035POPC   C1B39547  44.843  13.216   8.650
 3035POPC   C2B39548  44.814  13.279   8.223
 3035POPC   C3B39549  44.766  13.102   7.862
 3035POPC   C4B39550  44.988  13.121   7.483
 3036POPC   NC339551  35.592  23.187   9.546
 3036POPC   PO439552  34.922  22.933   9.535
 3036POPC   GL139553  35.182  23.205   9.228
 3036POPC   GL239554  35.471  22.972   9.091
 3036POPC   C1A39555  35.183  23.277   8.770
 3036POPC   D2A39556  35.237  22.920   8.470
 3036POPC   C3A39557  35.394  22.943   8.077
 3036POPC   C4A39558  35.457  22.728   7.740
 3036POPC   C1B39559  35.690  23.071   8.681
 3036POPC   C2B39560  35.887  23.030   8.263
 3036POPC   C3B39561  35.874  22.977   7.831
 3036POPC   C4B39562  35.732  23.050   7.424
 3037POPC   NC339563  38.877  29.285   9.254
 3037POPC   PO439564  39.340  29.670   9.431
 3037POPC   GL139565  39.367  29.376   9.059
 3037POPC   GL239566  39.286  29.012   9.068
 3037POPC   C1A39567  39.181  29.275   8.638
 3037POPC   D2A39568  39.362  29.298   8.232
 3037POPC   C3A39569  39.092  29.244   7.884
 3037POPC   C4A39570  39.082  29.190   7.446
 3037POPC   C1B39571  39.455  28.657   8.800
 3037POPC   C2B39572  39.544  28.501   8.374
 3037POPC   C3B39573  39.587  28.825   8.047
 3037POPC   C4B39574  39.536  29.001   7.644
 3038POPC   NC339575  44.453   4.051   9.422
 3038POPC   PO439576  44.855   4.567   9.627
 3038POPC   GL139577  44.805   4.358   9.218
 3038POPC   GL239578  44.879   3.977   9.150
 3038POPC   C1A39579  44.584   4.363   8.834
 3038POPC   D2A39580  44.753   4.557   8.483
 3038POPC   C3A39581  44.698   4.438   8.100
 3038POPC   C4A39582  44.436   4.526   7.740
 3038POPC   C1B39583  44.619   3.847   8.791
 3038POPC   C2B39584  44.501   4.066   8.414
 3038POPC   C3B39585  44.459   4.018   7.975
 3038POPC   C4B39586  44.378   4.014   7.530
 3039POPC   NC339587  30.946  37.010   9.448
 3039POPC   PO439588  30.501  36.586   9.600
 3039POPC   GL139589  30.560  36.837   9.205
 3039POPC   GL239590  30.857  36.689   9.084
 3039POPC   C1A39591  30.569  37.154   8.855
 3039POPC   D2A39592  30.428  37.074   8.422
 3039POPC   C3A39593  30.607  37.125   8.007
 3039POPC   C4A39594  30.523  36.721   7.834
 3039POPC   C1B39595  30.736  36.694   8.672
 3039POPC   C2B39596  30.883  36.826   8.316
 3039POPC   C3B39597  31.018  36.756   7.923
 3039POPC   C4B39598  30.892  36.882   7.494
 3040POPC   NC339599  27.730   5.113   9.511
 3040POPC   PO439600  27.145   4.693   9.512
 3040POPC   GL139601  27.277   4.700   9.094
 3040POPC   GL239602  27.549   4.942   9.074
 3040POPC   C1A39603  27.338   4.801   8.648
 3040POPC   D2A39604  27.677   4.690   8.345
 3040POPC   C3A39605  27.595   4.969   8.009
 3040POPC   C4A39606  27.251   5.006   7.738
 3040POPC   C1B39607  27.818   5.037   8.717
 3040POPC   C2B39608  28.110   4.980   8.372
 3040POPC   C3B39609  28.086   5.086   7.957
 3040POPC   C4B39610  27.906   5.014   7.564
 3041POPC   NC339611  32.325  13.997   9.287
 3041POPC   PO439612  32.452  13.347   9.432
 3041POPC   GL139613  32.172  13.533   9.104
 3041POPC   GL239614  32.415  13.703   8.886
 3041POPC   C1A39615  31.937  13.629   8.700
 3041POPC   D2A39616  31.905  13.417   8.312
 3041POPC   C3A39617  31.951  13.636   7.925
 3041POPC   C4A39618  32.288  13.543   7.659
 3041POPC   C1B39619  32.278  14.048   8.627
 3041POPC   C2B39620  32.227  13.975   8.199
 3041POPC   C3B39621  32.519  13.986   7.858
 3041POPC   C4B39622  32.484  13.901   7.384
 3042POPC   NC339623  40.257  12.252   9.324
 3042POPC   PO439624  39.667  12.510   9.593
 3042POPC   GL139625  39.755  12.334   9.173
 3042POPC   GL239626  39.849  11.969   9.143
 3042POPC   C1A39627  39.900  12.300   8.731
 3042POPC   D2A39628  39.790  12.019   8.402
 3042POPC   C3A39629  39.930  12.068   7.970
 3042POPC   C4A39630  39.919  11.909   7.565
 3042POPC   C1B39631  40.187  11.873   8.786
 3042POPC   C2B39632  40.299  11.982   8.326
 3042POPC   C3B39633  40.360  11.812   7.871
 3042POPC   C4B39634  40.376  11.718   7.388
 3043POPC   NC339635  34.978  27.448   9.383
 3043POPC   PO439636  34.391  27.771   9.429
 3043POPC   GL139637  34.568  27.664   9.066
 3043POPC   GL239638  34.694  27.342   9.003
 3043POPC   C1A39639  34.364  27.554   8.688
 3043POPC   D2A39640  34.393  27.376   8.295
 3043POPC   C3A39641  34.182  27.609   7.974
 3043POPC   C4A39642  34.280  27.436   7.576
 3043POPC   C1B39643  34.918  27.584   8.695
 3043POPC   C2B39644  34.872  27.601   8.273
 3043POPC   C3B39645  34.710  27.514   7.892
 3043POPC   C4B39646  34.995  27.308   7.641
 3044POPC   NC339647  13.121   8.079   9.462
 3044POPC   PO439648  12.566   8.453   9.459
 3044POPC   GL139649  12.817   8.362   9.155
 3044POPC   GL239650  12.677   8.029   9.105
 3044POPC   C1A39651  12.761   8.368   8.748
 3044POPC   D2A39652  12.970   8.248   8.426
 3044POPC   C3A39653  12.820   8.400   8.085
 3044POPC   C4A39654  12.683   8.103   7.839
 3044POPC   C1B39655  13.024   7.912   8.828
 3044POPC   C2B39656  13.244   7.807   8.442
 3044POPC   C3B39657  13.199   7.962   7.999
 3044POPC   C4B39658  13.143   8.312   7.705
 3045POPC   NC339659  21.605   2.035   9.495
 3045POPC   PO439660  20.926   2.324   9.447
 3045POPC   GL139661  21.159   2.075   9.109
 3045POPC   GL239662  21.397   1.792   9.093
 3045POPC   C1A39663  21.349   2.170   8.694
 3045POPC   D2A39664  21.605   2.115   8.347
 3045POPC   C3A39665  21.548   2.033   7.911
 3045POPC   C4A39666  21.796   2.207   7.571
 3045POPC   C1B39667  21.300   1.666   8.636
 3045POPC   C2B39668  21.538   1.624   8.238
 3045POPC   C3B39669  21.416   1.521   7.806
 3045POPC   C4B39670  21.337   1.410   7.359
 3046POPC   NC339671  15.629  12.294   9.501
 3046POPC   PO439672  16.248  12.295   9.480
 3046POPC   GL139673  16.088  11.916   9.246
 3046POPC   GL239674  15.957  12.182   9.067
 3046POPC   C1A39675  15.953  11.764   8.801
 3046POPC   D2A39676  15.926  11.997   8.414
 3046POPC   C3A39677  16.045  11.881   8.024
 3046POPC   C4A39678  15.810  11.745   7.704
 3046POPC   C1B39679  15.622  12.217   8.775
 3046POPC   C2B39680  15.521  12.284   8.376
 3046POPC   C3B39681  15.641  12.178   7.952
 3046POPC   C4B39682  15.980  12.239   7.619
 3047POPC   NC339683   1.872   2.208   9.480
 3047POPC   PO439684   2.411   1.806   9.632
 3047POPC   GL139685   2.283   2.101   9.236
 3047POPC   GL239686   1.972   1.945   9.068
 3047POPC   C1A39687   2.311   2.165   8.756
 3047POPC   D2A39688   2.291   2.384   8.354
 3047POPC   C3A39689   2.258   2.114   7.992
 3047POPC   C4A39690   1.967   2.050   7.660
 3047POPC   C1B39691   1.563   1.938   8.829
 3047POPC   C2B39692   1.511   1.806   8.423
 3047POPC   C3B39693   1.565   1.993   8.040
 3047POPC   C4B39694   1.546   1.739   7.689
 3048POPC   NC339695  36.492  39.943   9.463
 3048POPC   PO439696  37.158  40.171   9.463
 3048POPC   GL139697  37.199  39.899   9.112
 3048POPC   GL239698  36.862  39.767   9.141
 3048POPC   C1A39699  37.049  39.991   8.674
 3048POPC   D2A39700  37.224  39.953   8.256
 3048POPC   C3A39701  36.992  40.131   7.902
 3048POPC   C4A39702  36.794  39.920   7.538
 3048POPC   C1B39703  36.636  39.667   8.767
 3048POPC   C2B39704  36.597  39.905   8.392
 3048POPC   C3B39705  36.688  39.748   8.008
 3048POPC   C4B39706  36.662  39.440   7.736
 3049POPC   NC339707  42.431  17.690   9.535
 3049POPC   PO439708  42.112  17.072   9.741
 3049POPC   GL139709  42.261  17.257   9.307
 3049POPC   GL239710  42.659  17.279   9.308
 3049POPC   C1A39711  42.104  17.327   8.858
 3049POPC   D2A39712  41.930  17.150   8.453
 3049POPC   C3A39713  42.149  17.215   8.048
 3049POPC   C4A39714  42.246  17.416   7.650
 3049POPC   C1B39715  42.622  17.388   8.874
 3049POPC   C2B39716  42.450  17.347   8.448
 3049POPC   C3B39717  42.587  17.498   8.042
 3049POPC   C4B39718  42.733  17.258   7.704
 3050POPC   NC339719  43.902  16.335   9.302
 3050POPC   PO439720  44.075  15.706   9.465
 3050POPC   GL139721  44.093  15.891   9.099
 3050POPC   GL239722  43.743  15.911   9.090
 3050POPC   C1A39723  44.013  15.943   8.663
 3050POPC   D2A39724  43.944  15.727   8.283
 3050POPC   C3A39725  44.004  15.889   7.915
 3050POPC   C4A39726  44.064  16.304   7.830
 3050POPC   C1B39727  43.504  16.108   8.773
 3050POPC   C2B39728  43.617  16.325   8.393
 3050POPC   C3B39729  43.552  16.131   7.967
 3050POPC   C4B39730  43.381  16.011   7.560
 3051POPC   NC339731   0.791  18.026   9.541
 3051POPC   PO439732   0.479  18.676   9.579
 3051POPC   GL139733   0.409  18.413   9.225
 3051POPC   GL239734   0.106  18.542   9.126
 3051POPC   C1A39735   0.515  18.197   8.848
 3051POPC   D2A39736   0.353  17.909   8.495
 3051POPC   C3A39737   0.430  18.117   8.102
 3051POPC   C4A39738   0.654  18.418   7.857
 3051POPC   C1B39739   0.224  18.613   8.759
 3051POPC   C2B39740   0.080  18.701   8.400
 3051POPC   C3B39741   0.314  18.780   8.074
 3051POPC   C4B39742   0.230  18.631   7.702
 3052POPC   NC339743  43.567  37.019   9.453
 3052POPC   PO439744  44.214  36.776   9.555
 3052POPC   GL139745  44.184  36.900   9.125
 3052POPC   GL239746  43.857  37.015   9.037
 3052POPC   C1A39747  44.135  36.736   8.709
 3052POPC   D2A39748  43.889  36.890   8.370
 3052POPC   C3A39749  43.878  36.584   8.051
 3052POPC   C4A39750  44.310  36.498   7.871
 3052POPC   C1B39751  43.690  37.250   8.682
 3052POPC   C2B39752  43.538  37.268   8.261
 3052POPC   C3B39753  43.749  37.150   7.919
 3052POPC   C4B39754  43.965  36.851   7.622
 3053POPC   NC339755  42.930  18.193   9.592
 3053POPC   PO439756  43.596  18.121   9.628
 3053POPC   GL139757  43.289  18.286   9.209
 3053POPC   GL239758  42.902  18.387   9.138
 3053POPC   C1A39759  43.238  18.443   8.748
 3053POPC   D2A39760  43.451  18.710   8.399
 3053POPC   C3A39761  43.429  18.609   7.937
 3053POPC   C4A39762  43.262  18.160   7.883
 3053POPC   C1B39763  42.746  18.221   8.764
 3053POPC   C2B39764  42.932  18.233   8.377
 3053POPC   C3B39765  42.983  18.579   8.166
 3053POPC   C4B39766  42.950  18.567   7.754
 3054POPC   NC339767   0.068  39.832   9.527
 3054POPC   PO439768   0.613  40.017   9.708
 3054POPC   GL139769   0.560  40.048   9.251
 3054POPC   GL239770   0.421  39.724   9.156
 3054POPC   C1A39771   0.537  40.206   8.805
 3054POPC   D2A39772   0.568  40.032   8.363
 3054POPC   C3A39773   0.315  40.162   8.001
 3054POPC   C4A39774   0.357  40.391   7.601
 3054POPC   C1B39775   0.200  39.823   8.760
 3054POPC   C2B39776  44.946  39.632   8.439
 3054POPC   C3B39777   0.059  39.704   8.012
 3054POPC   C4B39778   0.392  39.757   7.686
 3055POPC   NC339779  13.373  11.397   9.510
 3055POPC   PO439780  13.983  11.096   9.474
 3055POPC   GL139781  13.732  11.270   9.170
 3055POPC   GL239782  13.417  11.078   9.117
 3055POPC   C1A39783  13.682  11.346   8.749
 3055POPC   D2A39784  13.923  11.159   8.455
 3055POPC   C3A39785  13.804  11.223   8.048
 3055POPC   C4A39786  13.996  11.547   7.840
 3055POPC   C1B39787  13.423  10.874   8.731
 3055POPC   C2B39788  13.391  10.974   8.303
 3055POPC   C3B39789  13.301  11.151   7.909
 3055POPC   C4B39790  13.554  11.196   7.593
 3056POPC   NC339791  14.313   2.279   9.527
 3056POPC   PO439792  14.701   1.742   9.415
 3056POPC   GL139793  14.347   1.886   9.177
 3056POPC   GL239794  14.400   2.236   9.023
 3056POPC   C1A39795  14.334   1.766   8.759
 3056POPC   D2A39796  14.470   2.006   8.410
 3056POPC   C3A39797  14.388   1.879   7.994
 3056POPC   C4A39798  14.746   2.011   7.800
 3056POPC   C1B39799  14.079   2.194   8.660
 3056POPC   C2B39800  14.037   2.189   8.212
 3056POPC   C3B39801  13.960   2.231   7.790
 3056POPC   C4B39802  14.020   2.370   7.409
 3057POPC   NC339803  23.815  30.397   9.623
 3057POPC   PO439804  23.774  31.060   9.490
 3057POPC   GL139805  23.591  30.811   9.156
 3057POPC   GL239806  23.556  30.454   9.166
 3057POPC   C1A39807  23.918  30.721   8.867
 3057POPC   D2A39808  24.082  30.765   8.460
 3057POPC   C3A39809  23.827  30.954   8.130
 3057POPC   C4A39810  23.708  30.752   7.745
 3057POPC   C1B39811  23.524  30.438   8.717
 3057POPC   C2B39812  23.743  30.396   8.322
 3057POPC   C3B39813  23.490  30.325   7.958
 3057POPC   C4B39814  23.404  30.326   7.536
 3058POPC   NC339815   8.667  34.854   9.391
 3058POPC   PO439816   8.934  34.138   9.493
 3058POPC   GL139817   9.001  34.395   9.148
 3058POPC   GL239818   8.679  34.515   9.016
 3058POPC   C1A39819   9.095  34.401   8.713
 3058POPC   D2A39820   9.192  34.769   8.432
 3058POPC   C3A39821   9.010  34.841   8.041
 3058POPC   C4A39822   9.285  34.706   7.730
 3058POPC   C1B39823   8.727  34.762   8.659
 3058POPC   C2B39824   8.763  34.465   8.316
 3058POPC   C3B39825   9.076  34.339   8.013
 3058POPC   C4B39826   8.823  34.525   7.676
 3059POPC   NC339827  24.607  40.420   9.762
 3059POPC   PO439828  24.341  40.959   9.718
 3059POPC   GL139829  24.375  40.790   9.313
 3059POPC   GL239830  24.656  40.937   9.135
 3059POPC   C1A39831  24.284  40.684   8.876
 3059POPC   D2A39832  24.245  40.850   8.478
 3059POPC   C3A39833  24.300  40.658   8.069
 3059POPC   C4A39834  24.198  40.731   7.628
 3059POPC   C1B39835  24.749  40.979   8.684
 3059POPC   C2B39836  24.678  40.981   8.249
 3059POPC   C3B39837  24.708  40.865   7.825
 3059POPC   C4B39838  24.976  40.557   7.584
 3060POPC   NC339839  17.858  38.552   9.291
 3060POPC   PO439840  18.442  38.420   9.537
 3060POPC   GL139841  18.359  38.336   9.141
 3060POPC   GL239842  18.089  38.090   9.117
 3060POPC   C1A39843  18.342  38.668   8.847
 3060POPC   D2A39844  18.511  38.734   8.467
 3060POPC   C3A39845  18.274  38.650   8.138
 3060POPC   C4A39846  18.272  38.605   7.714
 3060POPC   C1B39847  18.123  38.221   8.698
 3060POPC   C2B39848  18.433  38.187   8.393
 3060POPC   C3B39849  18.295  38.172   7.966
 3060POPC   C4B39850  18.015  38.185   7.626
 3061POPC   NC339851  10.100  25.798   9.418
 3061POPC   PO439852   9.451  25.936   9.455
 3061POPC   GL139853   9.715  25.987   9.148
 3061POPC   GL239854   9.811  26.305   9.187
 3061POPC   C1A39855   9.925  26.004   8.768
 3061POPC   D2A39856   9.698  25.980   8.386
 3061POPC   C3A39857   9.888  25.988   7.982
 3061POPC   C4A39858   9.772  25.960   7.562
 3061POPC   C1B39859   9.527  26.317   8.798
 3061POPC   C2B39860   9.231  26.170   8.485
 3061POPC   C3B39861   9.177  26.274   8.048
 3061POPC   C4B39862   9.528  26.334   7.806
 3062POPC   NC339863  15.175  27.718   9.654
 3062POPC   PO439864  15.572  27.216   9.749
 3062POPC   GL139865  15.348  27.370   9.339
 3062POPC   GL239866  15.122  27.154   9.153
 3062POPC   C1A39867  15.387  27.636   8.973
 3062POPC   D2A39868  15.252  27.745   8.569
 3062POPC   C3A39869  15.339  27.451   8.275
 3062POPC   C4A39870  15.299  27.645   7.901
 3062POPC   C1B39871  14.992  27.326   8.754
 3062POPC   C2B39872  14.827  27.422   8.337
 3062POPC   C3B39873  14.855  27.382   7.878
 3062POPC   C4B39874  14.729  27.283   7.443
 3063POPC   NC339875   2.647  14.613   9.536
 3063POPC   PO439876   3.156  14.182   9.350
 3063POPC   GL139877   2.808  14.361   9.116
 3063POPC   GL239878   2.764  14.746   9.068
 3063POPC   C1A39879   2.765  14.403   8.684
 3063POPC   D2A39880   2.957  14.455   8.302
 3063POPC   C3A39881   2.859  14.143   7.988
 3063POPC   C4A39882   2.866  14.137   7.523
 3063POPC   C1B39883   2.456  14.831   8.716
 3063POPC   C2B39884   2.444  14.577   8.309
 3063POPC   C3B39885   2.645  14.641   7.924
 3063POPC   C4B39886   2.573  14.543   7.522
 3064POPC   NC339887   9.607  21.893   9.435
 3064POPC   PO439888   9.915  21.367   9.604
 3064POPC   GL139889   9.809  21.453   9.164
 3064POPC   GL239890   9.456  21.474   9.165
 3064POPC   C1A39891   9.922  21.498   8.694
 3064POPC   D2A39892   9.923  21.204   8.372
 3064POPC   C3A39893   9.917  21.386   7.979
 3064POPC   C4A39894   9.865  21.306   7.556
 3064POPC   C1B39895   9.432  21.557   8.715
 3064POPC   C2B39896   9.596  21.610   8.302
 3064POPC   C3B39897   9.427  21.454   7.889
 3064POPC   C4B39898   9.457  21.624   7.486
 3065POPC   NC339899   5.365  37.364   9.384
 3065POPC   PO439900   5.118  37.928   9.483
 3065POPC   GL139901   4.993  37.637   9.138
 3065POPC   GL239902   4.933  37.884   8.873
 3065POPC   C1A39903   5.114  37.415   8.747
 3065POPC   D2A39904   5.059  37.605   8.330
 3065POPC   C3A39905   5.025  37.344   7.970
 3065POPC   C4A39906   5.320  37.059   7.795
 3065POPC   C1B39907   5.399  37.846   8.731
 3065POPC   C2B39908   5.589  37.791   8.309
 3065POPC   C3B39909   5.405  37.704   7.898
 3065POPC   C4B39910   5.001  37.797   7.706
 3066POPC   NC339911  22.665  14.871   9.710
 3066POPC   PO439912  22.634  15.404   9.302
 3066POPC   GL139913  22.160  15.288   9.221
 3066POPC   GL239914  21.806  15.451   9.362
 3066POPC   C1A39915  22.106  15.140   8.815
 3066POPC   D2A39916  22.418  15.201   8.480
 3066POPC   C3A39917  22.298  15.022   8.097
 3066POPC   C4A39918  22.203  15.172   7.723
 3066POPC   C1B39919  21.784  15.574   8.909
 3066POPC   C2B39920  21.911  15.474   8.471
 3066POPC   C3B39921  21.822  15.278   8.077
 3066POPC   C4B39922  21.710  15.127   7.667
 3067POPC   NC339923  31.753   4.184   9.561
 3067POPC   PO439924  31.378   4.796   9.477
 3067POPC   GL139925  31.440   4.459   9.196
 3067POPC   GL239926  31.797   4.409   9.108
 3067POPC   C1A39927  31.396   4.463   8.763
 3067POPC   D2A39928  31.397   4.252   8.369
 3067POPC   C3A39929  31.419   4.515   8.008
 3067POPC   C4A39930  31.468   4.343   7.548
 3067POPC   C1B39931  31.743   4.084   8.774
 3067POPC   C2B39932  31.914   4.310   8.412
 3067POPC   C3B39933  31.870   4.293   7.969
 3067POPC   C4B39934  32.001   4.218   7.549
 3068POPC   NC339935  19.413  20.574   9.479
 3068POPC   PO439936  20.097  20.611   9.590
 3068POPC   GL139937  19.845  20.547   9.190
 3068POPC   GL239938  19.540  20.415   9.005
 3068POPC   C1A39939  19.982  20.546   8.750
 3068POPC   D2A39940  20.026  20.939   8.529
 3068POPC   C3A39941  20.011  20.969   8.085
 3068POPC   C4A39942  20.055  20.553   7.914
 3068POPC   C1B39943  19.607  20.857   8.862
 3068POPC   C2B39944  19.513  20.930   8.431
 3068POPC   C3B39945  19.563  20.690   8.046
 3068POPC   C4B39946  19.564  20.929   7.673
 3069POPC   NC339947  37.684  28.023   9.540
 3069POPC   PO439948  37.891  27.345   9.405
 3069POPC   GL139949  37.627  27.508   9.070
 3069POPC   GL239950  37.607  27.867   9.069
 3069POPC   C1A39951  37.642  27.385   8.633
 3069POPC   D2A39952  37.959  27.249   8.302
 3069POPC   C3A39953  37.965  27.522   7.983
 3069POPC   C4A39954  37.784  27.532   7.629
 3069POPC   C1B39955  37.425  28.105   8.748
 3069POPC   C2B39956  37.239  28.047   8.333
 3069POPC   C3B39957  37.329  27.758   7.995
 3069POPC   C4B39958  37.393  27.840   7.552
 3070POPC   NC339959  35.639  13.944   9.570
 3070POPC   PO439960  35.107  13.534   9.613
 3070POPC   GL139961  35.265  13.693   9.231
 3070POPC   GL239962  35.585  13.604   9.169
 3070POPC   C1A39963  35.219  13.566   8.796
 3070POPC   D2A39964  35.130  13.402   8.384
 3070POPC   C3A39965  35.157  13.766   8.105
 3070POPC   C4A39966  35.149  13.888   7.679
 3070POPC   C1B39967  35.725  13.541   8.721
 3070POPC   C2B39968  35.614  13.558   8.274
 3070POPC   C3B39969  35.563  13.631   7.832
 3070POPC   C4B39970  35.820  13.707   7.493
 3071POPC   NC339971   8.781   2.764   9.358
 3071POPC   PO439972   9.381   3.047   9.409
 3071POPC   GL139973   9.201   2.776   9.059
 3071POPC   GL239974   9.009   2.428   9.067
 3071POPC   C1A39975   9.351   2.601   8.668
 3071POPC   D2A39976   9.227   2.446   8.259
 3071POPC   C3A39977   9.043   2.787   8.026
 3071POPC   C4A39978   9.080   2.964   7.604
 3071POPC   C1B39979   8.820   2.635   8.732
 3071POPC   C2B39980   8.664   2.531   8.378
 3071POPC   C3B39981   8.648   2.438   7.999
 3071POPC   C4B39982   8.282   2.487   7.796
 3072POPC   NC339983   4.229   2.622   9.674
 3072POPC   PO439984   4.569   3.107   9.280
 3072POPC   GL139985   4.447   2.739   9.099
 3072POPC   GL239986   4.160   2.624   9.154
 3072POPC   C1A39987   4.528   2.644   8.667
 3072POPC   D2A39988   4.610   2.495   8.241
 3072POPC   C3A39989   4.353   2.627   7.889
 3072POPC   C4A39990   4.421   3.039   7.730
 3072POPC   C1B39991   4.028   2.766   8.745
 3072POPC   C2B39992   4.099   2.582   8.346
 3072POPC   C3B39993   3.865   2.381   8.031
 3072POPC   C4B39994   3.752   2.345   7.599
 3073POPC   NC339995   3.852  22.190   9.733
 3073POPC   PO439996   4.461  22.127   9.513
 3073POPC   GL139997   4.146  22.162   9.183
 3073POPC   GL239998   4.417  22.328   9.027
 3073POPC   C1A39999   4.011  22.367   8.736
 3073POPC   D2A40000   4.063  22.123   8.370
 3073POPC   C3A40001   4.182  22.227   7.935
 3073POPC   C4A40002   4.198  22.071   7.499
 3073POPC   C1B40003   4.507  22.212   8.634
 3073POPC   C2B40004   4.411  22.486   8.301
 3073POPC   C3B40005   4.630  22.525   7.904
 3073POPC   C4B40006   4.697  22.458   7.454
 3074POPC   NC340007  28.658   4.985   9.232
 3074POPC   PO440008  28.210   5.093   9.663
 3074POPC   GL140009  28.157   5.168   9.190
 3074POPC   GL240010  28.211   4.878   9.003
 3074POPC   C1A40011  28.292   5.292   8.731
 3074POPC   D2A40012  28.601   5.161   8.387
 3074POPC   C3A40013  28.548   5.285   8.002
 3074POPC   C4A40014  28.445   5.220   7.610
 3074POPC   C1B40015  28.500   4.763   8.673
 3074POPC   C2B40016  28.718   4.647   8.336
 3074POPC   C3B40017  28.681   4.792   7.950
 3074POPC   C4B40018  28.355   4.739   7.676
 3075POPC   NC340019  15.672   4.134   9.513
 3075POPC   PO440020  16.177   4.583   9.389
 3075POPC   GL140021  15.925   4.321   9.102
 3075POPC   GL240022  15.586   4.446   9.124
 3075POPC   C1A40023  15.705   4.124   8.729
 3075POPC   D2A40024  15.687   4.011   8.299
 3075POPC   C3A40025  16.042   4.066   8.097
 3075POPC   C4A40026  16.085   4.166   7.708
 3075POPC   C1B40027  15.729   4.659   8.763
 3075POPC   C2B40028  15.833   4.512   8.388
 3075POPC   C3B40029  15.658   4.483   8.029
 3075POPC   C4B40030  15.799   4.576   7.631
 3076POPC   NC340031  38.926  42.816   9.727
 3076POPC   PO440032  38.866  42.169   9.552
 3076POPC   GL140033  39.141  42.427   9.292
 3076POPC   GL240034  39.000  42.741   9.235
 3076POPC   C1A40035  39.295  42.317   8.882
 3076POPC   D2A40036  39.119  42.108   8.545
 3076POPC   C3A40037  39.429  42.057   8.235
 3076POPC   C4A40038  39.474  42.251   7.807
 3076POPC   C1B40039  39.026  42.748   8.823
 3076POPC   C2B40040  39.050  42.603   8.467
 3076POPC   C3B40041  39.115  42.419   8.116
 3076POPC   C4B40042  39.001  42.531   7.744
 3077POPC   NC340043  10.087   4.080   9.372
 3077POPC   PO440044  10.540   3.617   9.735
 3077POPC   GL140045  10.429   3.676   9.294
 3077POPC   GL240046  10.344   3.363   9.080
 3077POPC   C1A40047  10.700   3.721   8.942
 3077POPC   D2A40048  10.681   3.804   8.473
 3077POPC   C3A40049  10.590   3.601   8.088
 3077POPC   C4A40050  10.578   3.317   7.745
 3077POPC   C1B40051  10.667   3.275   8.708
 3077POPC   C2B40052  10.598   3.124   8.298
 3077POPC   C3B40053  10.199   3.252   8.104
 3077POPC   C4B40054  10.051   3.195   7.691
 3078POPC   NC340055  42.910  40.059   9.501
 3078POPC   PO440056  43.531  39.726   9.393
 3078POPC   GL140057  43.249  40.012   9.129
 3078POPC   GL240058  42.848  39.937   9.042
 3078POPC   C1A40059  43.158  40.181   8.734
 3078POPC   D2A40060  43.002  40.402   8.390
 3078POPC   C3A40061  43.115  40.234   8.022
 3078POPC   C4A40062  43.012  40.419   7.641
 3078POPC   C1B40063  42.716  39.724   8.735
 3078POPC   C2B40064  42.919  39.866   8.382
 3078POPC   C3B40065  42.767  39.875   7.986
 3078POPC   C4B40066  42.730  39.963   7.567
 3079POPC   NC340067  16.202  28.538   9.437
 3079POPC   PO440068  15.576  28.159   9.421
 3079POPC   GL140069  15.788  28.401   9.125
 3079POPC   GL240070  16.024  28.160   9.134
 3079POPC   C1A40071  15.811  28.542   8.689
 3079POPC   D2A40072  15.709  28.403   8.259
 3079POPC   C3A40073  15.700  28.680   7.898
 3079POPC   C4A40074  15.723  28.601   7.448
 3079POPC   C1B40075  16.174  28.174   8.732
 3079POPC   C2B40076  16.258  28.031   8.323
 3079POPC   C3B40077  16.441  28.173   7.931
 3079POPC   C4B40078  16.115  28.431   7.812
 3080POPC   NC340079  28.238  25.832   9.429
 3080POPC   PO440080  28.110  26.506   9.414
 3080POPC   GL140081  28.329  26.225   9.123
 3080POPC   GL240082  28.657  26.007   9.202
 3080POPC   C1A40083  28.141  25.893   8.804
 3080POPC   D2A40084  28.002  25.819   8.387
 3080POPC   C3A40085  28.315  25.874   8.052
 3080POPC   C4A40086  28.258  25.737   7.620
 3080POPC   C1B40087  28.613  26.083   8.746
 3080POPC   C2B40088  28.307  26.250   8.431
 3080POPC   C3B40089  28.400  26.460   8.053
 3080POPC   C4B40090  28.402  26.236   7.687
 3081POPC   NC340091  18.780  33.775   9.719
 3081POPC   PO440092  18.366  34.060   9.190
 3081POPC   GL140093  18.194  33.693   9.011
 3081POPC   GL240094  18.492  33.563   8.799
 3081POPC   C1A40095  18.007  33.501   8.657
 3081POPC   D2A40096  17.760  33.556   8.287
 3081POPC   C3A40097  18.073  33.623   7.949
 3081POPC   C4A40098  18.321  33.972   7.832
 3081POPC   C1B40099  18.765  33.829   8.528
 3081POPC   C2B40100  18.793  33.985   8.079
 3081POPC   C3B40101  18.803  33.949   7.608
 3081POPC   C4B40102  18.767  33.840   7.133
 3082POPC   NC340103  42.561  43.443   9.638
 3082POPC   PO440104  42.270  43.970   9.927
 3082POPC   GL140105  42.325  43.831   9.368
 3082POPC   GL240106  42.500  43.540   9.154
 3082POPC   C1A40107  42.228  43.916   8.865
 3082POPC   D2A40108  41.926  43.987   8.479
 3082POPC   C3A40109  42.110  43.938   8.035
 3082POPC   C4A40110  42.474  44.114   7.788
 3082POPC   C1B40111  42.289  43.413   8.786
 3082POPC   C2B40112  42.224  43.585   8.407
 3082POPC   C3B40113  42.545  43.718   8.141
 3082POPC   C4B40114  42.417  43.613   7.742
 3083POPC   NC340115  27.188  38.323   9.518
 3083POPC   PO440116  27.818  38.171   9.435
 3083POPC   GL140117  27.739  38.468   9.087
 3083POPC   GL240118  27.408  38.369   9.067
 3083POPC   C1A40119  27.545  38.579   8.634
 3083POPC   D2A40120  27.273  38.433   8.262
 3083POPC   C3A40121  27.434  38.470   7.814
 3083POPC   C4A40122  27.587  38.726   7.473
 3083POPC   C1B40123  27.303  38.104   8.736
 3083POPC   C2B40124  27.461  37.930   8.405
 3083POPC   C3B40125  27.364  37.989   7.995
 3083POPC   C4B40126  27.577  37.993   7.616
 3084POPC   NC340127  25.754  19.659   9.617
 3084POPC   PO440128  26.288  20.043   9.471
 3084POPC   GL140129  26.258  19.770   9.124
 3084POPC   GL240130  25.930  19.619   9.138
 3084POPC   C1A40131  26.319  19.750   8.684
 3084POPC   D2A40132  26.375  19.613   8.264
 3084POPC   C3A40133  26.398  19.977   8.006
 3084POPC   C4A40134  26.022  20.138   7.801
 3084POPC   C1B40135  25.790  19.783   8.753
 3084POPC   C2B40136  25.916  19.840   8.331
 3084POPC   C3B40137  25.676  19.812   7.978
 3084POPC   C4B40138  25.485  19.953   7.644
 3085POPC   NC340139   0.710  33.314   9.385
 3085POPC   PO440140   0.802  34.093   9.393
 3085POPC   GL140141   0.977  34.064   8.980
 3085POPC   GL240142   1.116  33.719   8.952
 3085POPC   C1A40143   1.334  34.154   8.700
 3085POPC   D2A40144   1.448  33.994   8.302
 3085POPC   C3A40145   1.157  33.975   7.941
 3085POPC   C4A40146   1.277  33.946   7.487
 3085POPC   C1B40147   1.520  33.638   8.706
 3085POPC   C2B40148   1.694  33.548   8.257
 3085POPC   C3B40149   1.530  33.609   7.823
 3085POPC   C4B40150   1.729  33.699   7.416
 3086POPC   NC340151  21.875   7.583   9.718
 3086POPC   PO440152  22.442   7.062   9.576
 3086POPC   GL140153  22.310   7.354   9.229
 3086POPC   GL240154  22.411   7.679   9.213
 3086POPC   C1A40155  22.258   7.277   8.804
 3086POPC   D2A40156  22.527   7.225   8.454
 3086POPC   C3A40157  22.316   7.176   8.099
 3086POPC   C4A40158  22.150   7.199   7.688
 3086POPC   C1B40159  22.348   7.811   8.823
 3086POPC   C2B40160  22.147   7.636   8.468
 3086POPC   C3B40161  22.092   7.632   8.052
 3086POPC   C4B40162  22.067   7.703   7.654
 3087POPC   NC340163  42.419  16.769   9.924
 3087POPC   PO440164  42.782  16.387   9.469
 3087POPC   GL140165  42.788  16.557   9.057
 3087POPC   GL240166  42.551  16.823   9.110
 3087POPC   C1A40167  42.740  16.553   8.610
 3087POPC   D2A40168  42.661  16.838   8.281
 3087POPC   C3A40169  42.445  16.643   7.927
 3087POPC   C4A40170  42.327  16.929   7.636
 3087POPC   C1B40171  42.371  16.908   8.705
 3087POPC   C2B40172  42.154  16.718   8.331
 3087POPC   C3B40173  41.893  16.780   7.932
 3087POPC   C4B40174  41.590  16.612   7.597
 3088POPC   NC340175  26.780   7.678   9.388
 3088POPC   PO440176  27.002   7.044   9.507
 3088POPC   GL140177  26.819   7.190   9.153
 3088POPC   GL240178  26.480   7.243   9.261
 3088POPC   C1A40179  26.949   7.298   8.719
 3088POPC   D2A40180  26.815   7.557   8.357
 3088POPC   C3A40181  26.986   7.537   7.919
 3088POPC   C4A40182  26.885   7.670   7.450
 3088POPC   C1B40183  26.416   7.215   8.826
 3088POPC   C2B40184  26.570   7.061   8.443
 3088POPC   C3B40185  26.557   7.248   8.048
 3088POPC   C4B40186  26.705   7.235   7.628
 3089POPC   NC340187  30.992  28.139   9.625
 3089POPC   PO440188  30.599  28.647   9.475
 3089POPC   GL140189  30.575  28.380   9.122
 3089POPC   GL240190  30.412  28.040   9.154
 3089POPC   C1A40191  30.316  28.392   8.748
 3089POPC   D2A40192  30.369  28.580   8.348
 3089POPC   C3A40193  30.379  28.259   8.043
 3089POPC   C4A40194  30.515  28.285   7.639
 3089POPC   C1B40195  30.685  28.044   8.764
 3089POPC   C2B40196  30.747  28.234   8.381
 3089POPC   C3B40197  30.893  28.154   7.960
 3089POPC   C4B40198  31.089  28.413   7.676
 3090POPC   NC340199  37.867   1.646   9.826
 3090POPC   PO440200  37.547   1.029   9.828
 3090POPC   GL140201  37.652   1.202   9.391
 3090POPC   GL240202  37.867   1.504   9.335
 3090POPC   C1A40203  37.748   1.091   8.939
 3090POPC   D2A40204  37.725   0.915   8.498
 3090POPC   C3A40205  37.494   1.150   8.161
 3090POPC   C4A40206  37.507   1.260   7.695
 3090POPC   C1B40207  37.869   1.589   8.886
 3090POPC   C2B40208  37.812   1.421   8.458
 3090POPC   C3B40209  37.906   1.393   7.995
 3090POPC   C4B40210  37.998   1.208   7.560
 3091POPC   NC340211  26.125   8.142   9.377
 3091POPC   PO440212  26.269   8.781   9.493
 3091POPC   GL140213  26.251   8.569   9.066
 3091POPC   GL240214  26.535   8.322   9.090
 3091POPC   C1A40215  25.900   8.401   8.782
 3091POPC   D2A40216  25.784   8.042   8.494
 3091POPC   C3A40217  25.921   8.060   8.043
 3091POPC   C4A40218  25.944   8.370   7.732
 3091POPC   C1B40219  26.327   8.100   8.753
 3091POPC   C2B40220  26.229   8.297   8.391
 3091POPC   C3B40221  26.385   8.340   8.015
 3091POPC   C4B40222  26.412   8.073   7.674
 3092POPC   NC340223  20.058  14.980   9.524
 3092POPC   PO440224  19.539  15.371   9.320
 3092POPC   GL140225  19.861  15.098   9.057
 3092POPC   GL240226  20.007  14.705   9.112
 3092POPC   C1A40227  19.805  15.217   8.615
 3092POPC   D2A40228  19.541  15.225   8.238
 3092POPC   C3A40229  19.753  15.138   7.840
 3092POPC   C4A40230  19.627  15.209   7.428
 3092POPC   C1B40231  20.193  14.756   8.704
 3092POPC   C2B40232  20.317  15.003   8.331
 3092POPC   C3B40233  20.203  14.872   7.915
 3092POPC   C4B40234  20.176  14.976   7.491
 3093POPC   NC340235  43.520  11.861   9.604
 3093POPC   PO440236  43.045  12.235   9.480
 3093POPC   GL140237  43.069  11.969   9.146
 3093POPC   GL240238  43.209  11.666   9.236
 3093POPC   C1A40239  43.171  11.823   8.739
 3093POPC   D2A40240  43.059  12.018   8.369
 3093POPC   C3A40241  43.161  12.058   7.978
 3093POPC   C4A40242  42.776  12.032   7.754
 3093POPC   C1B40243  43.563  11.555   8.938
 3093POPC   C2B40244  43.623  11.687   8.525
 3093POPC   C3B40245  43.425  11.628   8.126
 3093POPC   C4B40246  43.568  11.776   7.723
 3094POPC   NC340247  35.065  17.143   9.205
 3094POPC   PO440248  35.400  17.702   9.450
 3094POPC   GL140249  35.384  17.527   9.058
 3094POPC   GL240250  35.578  17.213   9.000
 3094POPC   C1A40251  35.129  17.710   8.740
 3094POPC   D2A40252  35.262  17.869   8.379
 3094POPC   C3A40253  35.344  17.603   8.051
 3094POPC   C4A40254  35.179  17.780   7.716
 3094POPC   C1B40255  35.371  17.288   8.579
 3094POPC   C2B40256  35.059  17.213   8.234
 3094POPC   C3B40257  35.073  17.193   7.755
 3094POPC   C4B40258  35.269  16.969   7.363
 3095POPC   NC340259  34.509  38.269   9.419
 3095POPC   PO440260  34.888  38.823   9.638
 3095POPC   GL140261  34.731  38.851   9.145
 3095POPC   GL240262  34.473  38.642   9.094
 3095POPC   C1A40263  34.751  38.750   8.686
 3095POPC   D2A40264  34.797  38.328   8.506
 3095POPC   C3A40265  34.640  38.299   8.103
 3095POPC   C4A40266  34.702  38.141   7.703
 3095POPC   C1B40267  34.356  38.375   8.782
 3095POPC   C2B40268  34.150  38.482   8.416
 3095POPC   C3B40269  34.138  38.305   8.012
 3095POPC   C4B40270  34.156  38.109   7.630
 3096POPC   NC340271   6.108  37.206   9.508
 3096POPC   PO440272   5.989  37.907   9.491
 3096POPC   GL140273   5.775  37.819   9.134
 3096POPC   GL240274   5.844  37.476   9.186
 3096POPC   C1A40275   5.912  37.706   8.721
 3096POPC   D2A40276   6.080  37.443   8.383
 3096POPC   C3A40277   5.986  37.653   8.010
 3096POPC   C4A40278   5.828  37.936   7.702
 3096POPC   C1B40279   5.919  37.229   8.847
 3096POPC   C2B40280   5.594  37.319   8.536
 3096POPC   C3B40281   5.650  37.287   8.108
 3096POPC   C4B40282   6.050  37.133   7.892
 3097POPC   NC340283  19.669  26.020   9.518
 3097POPC   PO440284  20.229  26.265   9.631
 3097POPC   GL140285  19.906  26.295   9.156
 3097POPC   GL240286  19.702  26.009   9.018
 3097POPC   C1A40287  19.649  26.426   8.751
 3097POPC   D2A40288  19.548  26.228   8.336
 3097POPC   C3A40289  19.888  26.090   8.068
 3097POPC   C4A40290  20.114  26.365   7.798
 3097POPC   C1B40291  19.920  25.947   8.642
 3097POPC   C2B40292  19.668  25.724   8.376
 3097POPC   C3B40293  19.394  25.804   8.038
 3097POPC   C4B40294  19.609  25.872   7.662
 3098POPC   NC340295  18.688   4.642   9.275
 3098POPC   PO440296  19.270   4.261   9.424
 3098POPC   GL140297  19.133   4.260   9.016
 3098POPC   GL240298  18.794   4.169   9.045
 3098POPC   C1A40299  19.085   4.062   8.615
 3098POPC   D2A40300  19.316   4.208   8.295
 3098POPC   C3A40301  19.176   4.204   7.923
 3098POPC   C4A40302  19.268   4.521   7.659
 3098POPC   C1B40303  18.745   4.445   8.682
 3098POPC   C2B40304  18.821   4.390   8.275
 3098POPC   C3B40305  18.758   4.495   7.872
 3098POPC   C4B40306  18.833   4.284   7.498
 3099POPC   NC340307  21.972  21.329   9.654
 3099POPC   PO440308  22.420  21.785   9.676
 3099POPC   GL140309  22.119  21.567   9.253
 3099POPC   GL240310  22.144  21.171   9.207
 3099POPC   C1A40311  22.101  21.456   8.781
 3099POPC   D2A40312  22.199  21.663   8.390
 3099POPC   C3A40313  22.150  21.444   8.000
 3099POPC   C4A40314  22.383  21.368   7.656
 3099POPC   C1B40315  21.862  21.007   8.879
 3099POPC   C2B40316  21.797  20.912   8.458
 3099POPC   C3B40317  21.807  21.045   8.047
 3099POPC   C4B40318  21.905  20.913   7.660
 3100POPC   NC340319   1.810  34.799   9.480
 3100POPC   PO440320   2.346  34.444   9.634
 3100POPC   GL140321   2.087  34.384   9.268
 3100POPC   GL240322   2.082  34.038   9.179
 3100POPC   C1A40323   2.087  34.553   8.843
 3100POPC   D2A40324   2.111  34.879   8.494
 3100POPC   C3A40325   2.322  34.843   8.092
 3100POPC   C4A40326   2.178  34.828   7.657
 3100POPC   C1B40327   1.855  34.062   8.798
 3100POPC   C2B40328   1.811  34.329   8.461
 3100POPC   C3B40329   1.902  34.571   8.110
 3100POPC   C4B40330   1.882  34.420   7.666
 3101POPC   NC340331  44.745  29.651   9.460
 3101POPC   PO440332  44.356  30.065   9.146
 3101POPC   GL140333  44.746  29.900   9.038
 3101POPC   GL240334   0.073  30.039   9.069
 3101POPC   C1A40335  44.924  29.601   8.768
 3101POPC   D2A40336  44.772  29.554   8.352
 3101POPC   C3A40337  44.837  29.840   8.009
 3101POPC   C4A40338  44.626  30.196   7.854
 3101POPC   C1B40339  44.889  30.140   8.640
 3101POPC   C2B40340  44.905  30.530   8.476
 3101POPC   C3B40341  44.937  30.542   8.093
 3101POPC   C4B40342   0.127  30.233   7.800
 3102POPC   NC340343  33.892  37.829   9.496
 3102POPC   PO440344  34.298  37.244   9.643
 3102POPC   GL140345  34.055  37.389   9.209
 3102POPC   GL240346  33.968  37.732   8.999
 3102POPC   C1A40347  33.868  37.310   8.778
 3102POPC   D2A40348  33.887  37.553   8.353
 3102POPC   C3A40349  33.613  37.497   7.990
 3102POPC   C4A40350  33.689  37.396   7.579
 3102POPC   C1B40351  33.585  37.745   8.753
 3102POPC   C2B40352  33.499  37.892   8.331
 3102POPC   C3B40353  33.727  37.976   7.919
 3102POPC   C4B40354  33.672  38.048   7.456
 3103POPC   NC340355  21.786  11.931   9.525
 3103POPC   PO440356  22.220  12.420   9.748
 3103POPC   GL140357  22.066  12.361   9.297
 3103POPC   GL240358  22.122  12.048   9.134
 3103POPC   C1A40359  21.875  12.396   8.855
 3103POPC   D2A40360  21.870  12.212   8.451
 3103POPC   C3A40361  22.039  12.122   8.051
 3103POPC   C4A40362  22.218  12.083   7.637
 3103POPC   C1B40363  22.098  11.835   8.748
 3103POPC   C2B40364  21.964  11.702   8.329
 3103POPC   C3B40365  22.247  11.665   7.965
 3103POPC   C4B40366  22.366  11.619   7.517
 3104POPC   NC340367  13.081  23.268   9.184
 3104POPC   PO440368  13.114  23.943   9.419
 3104POPC   GL140369  13.024  23.772   9.033
 3104POPC   GL240370  13.376  23.666   9.034
 3104POPC   C1A40371  12.859  23.638   8.616
 3104POPC   D2A40372  13.032  23.536   8.203
 3104POPC   C3A40373  12.730  23.616   7.897
 3104POPC   C4A40374  12.466  23.395   7.614
 3104POPC   C1B40375  13.335  23.833   8.631
 3104POPC   C2B40376  13.307  23.947   8.240
 3104POPC   C3B40377  13.107  23.947   7.836
 3104POPC   C4B40378  13.026  23.770   7.458
 3105POPC   NC340379  42.193   6.052   9.561
 3105POPC   PO440380  42.500   5.546   9.222
 3105POPC   GL140381  42.195   5.852   9.065
 3105POPC   GL240382  42.423   6.124   9.117
 3105POPC   C1A40383  42.297   5.997   8.637
 3105POPC   D2A40384  42.586   5.713   8.439
 3105POPC   C3A40385  42.497   5.577   8.026
 3105POPC   C4A40386  42.162   5.726   7.740
 3105POPC   C1B40387  42.772   6.059   8.829
 3105POPC   C2B40388  42.722   6.242   8.423
 3105POPC   C3B40389  42.428   6.101   8.121
 3105POPC   C4B40390  42.597   6.039   7.735
 3106POPC   NC340391  10.752  13.014   9.390
 3106POPC   PO440392  10.123  13.024   9.622
 3106POPC   GL140393  10.269  12.972   9.185
 3106POPC   GL240394  10.507  12.673   9.108
 3106POPC   C1A40395  10.405  13.013   8.743
 3106POPC   D2A40396  10.670  12.773   8.432
 3106POPC   C3A40397  10.726  12.967   8.022
 3106POPC   C4A40398  10.602  12.839   7.606
 3106POPC   C1B40399  10.370  12.444   8.728
 3106POPC   C2B40400  10.388  12.346   8.315
 3106POPC   C3B40401  10.314  12.619   7.985
 3106POPC   C4B40402  10.056  12.576   7.646
 3107POPC   NC340403   8.892  43.543   9.966
 3107POPC   PO440404   9.110  44.030   9.515
 3107POPC   GL140405   9.109  44.082   9.120
 3107POPC   GL240406   9.181  44.424   9.145
 3107POPC   C1A40407   8.847  43.918   8.800
 3107POPC   D2A40408   8.708  44.036   8.404
 3107POPC   C3A40409   8.899  43.757   8.139
 3107POPC   C4A40410   8.815  43.665   7.750
 3107POPC   C1B40411   9.071  44.357   8.694
 3107POPC   C2B40412   9.167  44.180   8.295
 3107POPC   C3B40413   9.001  44.184   7.877
 3107POPC   C4B40414   9.219  44.010   7.542
 3108POPC   NC340415  11.777  14.565   9.486
 3108POPC   PO440416  12.459  14.310   9.579
 3108POPC   GL140417  12.236  14.508   9.218
 3108POPC   GL240418  12.341  14.224   9.070
 3108POPC   C1A40419  12.014  14.607   8.808
 3108POPC   D2A40420  11.817  14.418   8.413
 3108POPC   C3A40421  11.893  14.531   7.975
 3108POPC   C4A40422  12.154  14.668   7.622
 3108POPC   C1B40423  12.286  14.203   8.634
 3108POPC   C2B40424  12.318  14.435   8.295
 3108POPC   C3B40425  12.475  14.344   7.909
 3108POPC   C4B40426  12.494  14.221   7.498
 3109POPC   NC340427  29.416   2.214   9.412
 3109POPC   PO440428  29.114   1.603   9.585
 3109POPC   GL140429  29.132   1.825   9.180
 3109POPC   GL240430  28.923   2.100   9.186
 3109POPC   C1A40431  29.282   2.078   8.803
 3109POPC   D2A40432  29.132   2.117   8.393
 3109POPC   C3A40433  29.365   2.061   8.034
 3109POPC   C4A40434  29.199   1.780   7.757
 3109POPC   C1B40435  28.769   2.151   8.770
 3109POPC   C2B40436  28.639   2.294   8.347
 3109POPC   C3B40437  28.871   2.171   7.950
 3109POPC   C4B40438  29.129   2.254   7.561
 3110POPC   NC340439  42.544   9.289   9.289
 3110POPC   PO440440  42.207   9.941   9.500
 3110POPC   GL140441  42.394   9.820   9.105
 3110POPC   GL240442  42.223   9.510   8.978
 3110POPC   C1A40443  42.481  10.003   8.691
 3110POPC   D2A40444  42.321   9.726   8.330
 3110POPC   C3A40445  42.245   9.805   7.933
 3110POPC   C4A40446  42.525   9.867   7.592
 3110POPC   C1B40447  42.587   9.510   8.705
 3110POPC   C2B40448  42.652   9.347   8.327
 3110POPC   C3B40449  42.706   9.484   7.897
 3110POPC   C4B40450  42.777   9.258   7.493
 3111POPC   NC340451   7.307   1.562   9.415
 3111POPC   PO440452   7.124   2.222   9.446
 3111POPC   GL140453   7.446   2.024   9.179
 3111POPC   GL240454   7.737   1.808   9.261
 3111POPC   C1A40455   7.516   2.084   8.752
 3111POPC   D2A40456   7.210   2.137   8.433
 3111POPC   C3A40457   7.394   1.983   8.071
 3111POPC   C4A40458   7.246   2.047   7.668
 3111POPC   C1B40459   7.891   1.736   8.840
 3111POPC   C2B40460   7.857   1.891   8.401
 3111POPC   C3B40461   7.784   1.630   8.065
 3111POPC   C4B40462   7.627   1.713   7.686
 3112POPC   NC340463  20.930  27.069   9.326
 3112POPC   PO440464  21.427  26.732   9.571
 3112POPC   GL140465  21.558  26.622   9.170
 3112POPC   GL240466  21.710  26.929   9.049
 3112POPC   C1A40467  21.576  26.487   8.764
 3112POPC   D2A40468  21.384  26.579   8.386
 3112POPC   C3A40469  21.535  26.437   7.992
 3112POPC   C4A40470  21.587  26.764   7.729
 3112POPC   C1B40471  21.293  26.931   8.799
 3112POPC   C2B40472  20.954  27.033   8.473
 3112POPC   C3B40473  21.017  27.238   8.075
 3112POPC   C4B40474  21.264  27.163   7.697
 3113POPC   NC340475  31.325  13.730   9.453
 3113POPC   PO440476  31.609  13.157   9.535
 3113POPC   GL140477  31.655  13.425   9.133
 3113POPC   GL240478  31.665  13.809   9.082
 3113POPC   C1A40479  31.410  13.505   8.749
 3113POPC   D2A40480  31.472  13.723   8.365
 3113POPC   C3A40481  31.465  13.399   8.049
 3113POPC   C4A40482  31.828  13.138   7.878
 3113POPC   C1B40483  31.260  13.981   8.819
 3113POPC   C2B40484  31.020  13.955   8.412
 3113POPC   C3B40485  31.206  14.038   7.980
 3113POPC   C4B40486  31.139  13.961   7.504
 3114POPC   NC340487  44.778  33.577   9.480
 3114POPC   PO440488  44.496  32.994   9.584
 3114POPC   GL140489  44.494  32.956   9.171
 3114POPC   GL240490  44.792  33.170   9.145
 3114POPC   C1A40491  44.561  32.928   8.736
 3114POPC   D2A40492  44.847  32.823   8.396
 3114POPC   C3A40493  44.783  32.911   7.971
 3114POPC   C4A40494  44.387  32.857   7.756
 3114POPC   C1B40495  44.652  33.427   8.857
 3114POPC   C2B40496  44.597  33.335   8.444
 3114POPC   C3B40497  44.506  33.347   8.042
 3114POPC   C4B40498  44.677  33.272   7.624
 3115POPC   NC340499  37.058  38.183   9.502
 3115POPC   PO440500  36.665  38.755   9.504
 3115POPC   GL140501  36.944  38.590   9.202
 3115POPC   GL240502  36.693  38.315   9.142
 3115POPC   C1A40503  37.078  38.361   8.810
 3115POPC   D2A40504  37.056  38.577   8.413
 3115POPC   C3A40505  36.978  38.499   7.981
 3115POPC   C4A40506  37.223  38.566   7.601
 3115POPC   C1B40507  36.622  38.607   8.773
 3115POPC   C2B40508  36.524  38.481   8.334
 3115POPC   C3B40509  36.457  38.584   7.899
 3115POPC   C4B40510  36.669  38.421   7.561
 3116POPC   NC340511  41.329   4.737   9.370
 3116POPC   PO440512  41.632   4.175   9.415
 3116POPC   GL140513  41.610   4.272   9.022
 3116POPC   GL240514  41.231   4.311   9.075
 3116POPC   C1A40515  41.745   4.188   8.583
 3116POPC   D2A40516  41.650   4.426   8.224
 3116POPC   C3A40517  41.501   4.202   7.878
 3116POPC   C4A40518  41.555   4.263   7.421
 3116POPC   C1B40519  41.337   4.503   8.652
 3116POPC   C2B40520  41.290   4.813   8.305
 3116POPC   C3B40521  41.286   4.685   7.885
 3116POPC   C4B40522  41.096   4.393   7.627
 3117POPC   NC340523  34.139  33.023   9.401
 3117POPC   PO440524  33.626  33.291   9.730
 3117POPC   GL140525  33.656  33.079   9.244
 3117POPC   GL240526  33.679  33.344   8.982
 3117POPC   C1A40527  33.865  32.907   8.789
 3117POPC   D2A40528  33.744  33.185   8.404
 3117POPC   C3A40529  33.882  33.144   7.939
 3117POPC   C4A40530  33.955  32.711   7.747
 3117POPC   C1B40531  34.116  33.333   8.743
 3117POPC   C2B40532  34.216  33.385   8.285
 3117POPC   C3B40533  34.311  33.433   7.843
 3117POPC   C4B40534  34.235  33.118   7.500
 3118POPC   NC340535   0.316   5.347   9.356
 3118POPC   PO440536   0.685   4.776   9.476
 3118POPC   GL140537   0.413   4.872   9.154
 3118POPC   GL240538   0.064   4.845   9.246
 3118POPC   C1A40539   0.495   5.049   8.726
 3118POPC   D2A40540   0.444   5.303   8.346
 3118POPC   C3A40541   0.464   5.083   7.979
 3118POPC   C4A40542   0.208   5.194   7.662
 3118POPC   C1B40543   0.066   4.767   8.805
 3118POPC   C2B40544   0.120   4.887   8.344
 3118POPC   C3B40545   0.074   4.747   7.926
 3118POPC   C4B40546   0.422   4.683   7.605
 3119POPC   NC340547   0.838   8.526   9.331
 3119POPC   PO440548   1.480   8.622   9.491
 3119POPC   GL140549   1.363   8.283   9.162
 3119POPC   GL240550   1.050   8.077   9.138
 3119POPC   C1A40551   1.350   8.117   8.727
 3119POPC   D2A40552   1.374   8.001   8.272
 3119POPC   C3A40553   1.435   8.300   7.913
 3119POPC   C4A40554   1.350   8.157   7.495
 3119POPC   C1B40555   0.852   8.234   8.741
 3119POPC   C2B40556   0.872   8.170   8.309
 3119POPC   C3B40557   0.983   8.018   7.913
 3119POPC   C4B40558   0.840   8.274   7.603
 3120POPC   NC340559  23.495   2.567   9.448
 3120POPC   PO440560  23.921   3.043   9.598
 3120POPC   GL140561  23.883   2.935   9.169
 3120POPC   GL240562  23.548   3.049   9.158
 3120POPC   C1A40563  24.006   2.657   8.808
 3120POPC   D2A40564  23.773   2.518   8.427
 3120POPC   C3A40565  23.822   2.814   8.069
 3120POPC   C4A40566  23.981   2.802   7.647
 3120POPC   C1B40567  23.535   2.864   8.754
 3120POPC   C2B40568  23.371   2.889   8.334
 3120POPC   C3B40569  23.479   3.205   8.036
 3120POPC   C4B40570  23.544   3.119   7.582
 3121POPC   NC340571  20.435  33.644   9.459
 3121POPC   PO440572  20.775  34.226   9.590
 3121POPC   GL140573  20.505  34.079   9.144
 3121POPC   GL240574  20.455  33.723   8.969
 3121POPC   C1A40575  20.346  34.116   8.703
 3121POPC   D2A40576  20.465  33.752   8.428
 3121POPC   C3A40577  20.728  33.803   8.066
 3121POPC   C4A40578  20.729  34.171   7.790
 3121POPC   C1B40579  20.325  33.358   8.768
 3121POPC   C2B40580  20.174  33.345   8.322
 3121POPC   C3B40581  20.403  33.254   7.959
 3121POPC   C4B40582  20.486  33.588   7.669
 3122POPC   NC340583  23.136  35.457   9.644
 3122POPC   PO440584  22.575  35.221   9.444
 3122POPC   GL140585  22.851  35.330   9.105
 3122POPC   GL240586  23.219  35.279   9.183
 3122POPC   C1A40587  22.770  35.333   8.678
 3122POPC   D2A40588  22.554  35.107   8.388
 3122POPC   C3A40589  22.605  35.289   7.998
 3122POPC   C4A40590  22.807  35.531   7.708
 3122POPC   C1B40591  23.177  35.063   8.814
 3122POPC   C2B40592  23.227  35.285   8.445
 3122POPC   C3B40593  23.147  35.429   8.060
 3122POPC   C4B40594  23.273  35.205   7.718
 3123POPC   NC340595  23.484  23.532   9.458
 3123POPC   PO440596  22.815  23.480   9.540
 3123POPC   GL140597  22.829  23.754   9.183
 3123POPC   GL240598  23.173  23.852   9.121
 3123POPC   C1A40599  22.792  23.811   8.737
 3123POPC   D2A40600  22.923  23.898   8.311
 3123POPC   C3A40601  22.702  23.690   7.988
 3123POPC   C4A40602  22.825  23.752   7.586
 3123POPC   C1B40603  23.294  23.918   8.698
 3123POPC   C2B40604  23.348  23.652   8.311
 3123POPC   C3B40605  23.227  23.655   7.899
 3123POPC   C4B40606  23.526  23.882   7.661
 3124POPC   NC340607  20.585  18.328   9.581
 3124POPC   PO440608  20.523  17.606   9.474
 3124POPC   GL140609  20.512  17.966   9.190
 3124POPC   GL240610  20.370  18.285   9.118
 3124POPC   C1A40611  20.617  18.038   8.743
 3124POPC   D2A40612  20.708  18.282   8.372
 3124POPC   C3A40613  20.433  18.154   8.059
 3124POPC   C4A40614  20.524  18.227   7.691
 3124POPC   C1B40615  20.281  18.647   8.863
 3124POPC   C2B40616  20.364  18.731   8.428
 3124POPC   C3B40617  20.529  18.655   8.012
 3124POPC   C4B40618  20.357  18.680   7.594
 3125POPC   NC340619  38.850  40.342   9.553
 3125POPC   PO440620  38.306  40.778   9.309
 3125POPC   GL140621  38.307  40.599   8.966
 3125POPC   GL240622  38.098  40.798   8.773
 3125POPC   C1A40623  38.548  40.521   8.611
 3125POPC   D2A40624  38.871  40.318   8.338
 3125POPC   C3A40625  38.740  40.524   7.992
 3125POPC   C4A40626  38.449  40.513   7.712
 3125POPC   C1B40627  38.480  41.015   8.663
 3125POPC   C2B40628  38.497  40.905   8.245
 3125POPC   C3B40629  38.775  41.016   7.944
 3125POPC   C4B40630  38.651  40.965   7.515
 3126POPC   NC340631  24.266  23.466   9.462
 3126POPC   PO440632  24.439  24.089   9.525
 3126POPC   GL140633  24.520  23.797   9.172
 3126POPC   GL240634  24.193  23.805   9.032
 3126POPC   C1A40635  24.575  23.902   8.712
 3126POPC   D2A40636  24.254  23.920   8.373
 3126POPC   C3A40637  24.481  23.941   8.009
 3126POPC   C4A40638  24.667  23.650   7.754
 3126POPC   C1B40639  24.250  23.506   8.681
 3126POPC   C2B40640  24.252  23.393   8.230
 3126POPC   C3B40641  24.170  23.527   7.782
 3126POPC   C4B40642  23.930  23.585   7.387
 3127POPC   NC340643  44.522  20.075   9.556
 3127POPC   PO440644  44.278  19.483   9.434
 3127POPC   GL140645  44.543  19.717   9.133
 3127POPC   GL240646  44.466  20.083   9.058
 3127POPC   C1A40647  44.669  19.607   8.694
 3127POPC   D2A40648  44.556  19.472   8.292
 3127POPC   C3A40649  44.742  19.455   7.884
 3127POPC   C4A40650  44.618  19.557   7.435
 3127POPC   C1B40651  44.866  20.038   8.874
 3127POPC   C2B40652  44.845  20.080   8.440
 3127POPC   C3B40653  44.664  19.942   8.089
 3127POPC   C4B40654  44.862  19.912   7.725
 3128POPC   NC340655  41.494  35.663   9.416
 3128POPC   PO440656  41.671  34.982   9.446
 3128POPC   GL140657  41.595  35.254   9.134
 3128POPC   GL240658  41.885  35.166   8.957
 3128POPC   C1A40659  41.560  35.523   8.780
 3128POPC   D2A40660  41.748  35.337   8.420
 3128POPC   C3A40661  41.566  35.418   7.997
 3128POPC   C4A40662  41.322  35.118   7.728
 3128POPC   C1B40663  42.072  34.871   8.699
 3128POPC   C2B40664  42.035  34.872   8.303
 3128POPC   C3B40665  41.766  34.960   8.061
 3128POPC   C4B40666  41.841  35.066   7.690
 3129POPC   NC340667  43.901  10.349   9.561
 3129POPC   PO440668  44.327  10.009   9.313
 3129POPC   GL140669  43.920  10.036   9.106
 3129POPC   GL240670  43.780   9.701   9.148
 3129POPC   C1A40671  43.905   9.948   8.650
 3129POPC   D2A40672  44.075   9.684   8.327
 3129POPC   C3A40673  44.029   9.816   7.917
 3129POPC   C4A40674  44.068   9.578   7.545
 3129POPC   C1B40675  43.461   9.864   8.866
 3129POPC   C2B40676  43.457   9.793   8.424
 3129POPC   C3B40677  43.556   9.619   8.026
 3129POPC   C4B40678  43.567   9.870   7.665
 3130POPC   NC340679  30.558  23.346   9.543
 3130POPC   PO440680  31.116  23.705   9.533
 3130POPC   GL140681  30.840  23.737   9.200
 3130POPC   GL240682  30.886  23.403   9.145
 3130POPC   C1A40683  30.598  23.676   8.803
 3130POPC   D2A40684  30.550  23.915   8.411
 3130POPC   C3A40685  30.742  23.791   8.079
 3130POPC   C4A40686  30.616  23.813   7.687
 3130POPC   C1B40687  30.982  23.333   8.743
 3130POPC   C2B40688  30.734  23.391   8.381
 3130POPC   C3B40689  30.964  23.331   8.000
 3130POPC   C4B40690  30.714  23.310   7.660
 3131POPC   NC340691   3.123  35.460   9.978
 3131POPC   PO440692   3.604  35.346   9.506
 3131POPC   GL140693   3.446  35.197   9.140
 3131POPC   GL240694   3.159  34.973   9.254
 3131POPC   C1A40695   3.580  35.159   8.705
 3131POPC   D2A40696   3.817  35.368   8.372
 3131POPC   C3A40697   3.739  35.216   7.981
 3131POPC   C4A40698   3.729  35.468   7.640
 3131POPC   C1B40699   3.044  35.146   8.837
 3131POPC   C2B40700   3.155  35.079   8.419
 3131POPC   C3B40701   3.233  35.278   8.041
 3131POPC   C4B40702   3.349  35.123   7.628
 3132POPC   NC340703  14.596  31.663   9.462
 3132POPC   PO440704  14.629  31.042   9.680
 3132POPC   GL140705  14.328  31.245   9.268
 3132POPC   GL240706  14.265  31.604   9.108
 3132POPC   C1A40707  14.375  31.244   8.766
 3132POPC   D2A40708  14.736  31.471   8.539
 3132POPC   C3A40709  14.720  31.444   8.061
 3132POPC   C4A40710  14.769  31.566   7.613
 3132POPC   C1B40711  14.356  31.769   8.722
 3132POPC   C2B40712  14.272  31.619   8.311
 3132POPC   C3B40713  14.306  31.688   7.857
 3132POPC   C4B40714  14.190  31.481   7.443
 3133POPC   NC340715  41.493  34.544   9.450
 3133POPC   PO440716  42.122  34.471   9.277
 3133POPC   GL140717  41.722  34.677   9.022
 3133POPC   GL240718  41.339  34.817   9.062
 3133POPC   C1A40719  41.505  34.565   8.634
 3133POPC   D2A40720  41.732  34.451   8.283
 3133POPC   C3A40721  41.555  34.218   7.962
 3133POPC   C4A40722  41.671  34.576   7.749
 3133POPC   C1B40723  41.398  35.058   8.706
 3133POPC   C2B40724  41.299  35.094   8.293
 3133POPC   C3B40725  41.322  34.711   8.078
 3133POPC   C4B40726  41.131  34.448   7.778
 3134POPC   NC340727  33.677  13.177   9.501
 3134POPC   PO440728  33.440  12.476   9.489
 3134POPC   GL140729  33.641  12.773   9.201
 3134POPC   GL240730  33.957  12.751   9.097
 3134POPC   C1A40731  33.676  13.026   8.795
 3134POPC   D2A40732  33.642  12.788   8.431
 3134POPC   C3A40733  33.613  13.016   8.053
 3134POPC   C4A40734  33.719  12.844   7.636
 3134POPC   C1B40735  34.175  13.049   8.821
 3134POPC   C2B40736  34.133  12.946   8.376
 3134POPC   C3B40737  34.091  13.121   7.944
 3134POPC   C4B40738  34.169  13.062   7.478
 3135POPC   NC340739  14.696  28.133   9.814
 3135POPC   PO440740  14.239  28.586   9.742
 3135POPC   GL140741  14.336  28.554   9.264
 3135POPC   GL240742  14.047  28.536   9.072
 3135POPC   C1A40743  14.518  28.617   8.813
 3135POPC   D2A40744  14.787  28.636   8.392
 3135POPC   C3A40745  14.636  28.394   7.992
 3135POPC   C4A40746  14.369  28.108   7.708
 3135POPC   C1B40747  14.002  28.644   8.671
 3135POPC   C2B40748  14.148  28.478   8.267
 3135POPC   C3B40749  14.147  28.574   7.834
 3135POPC   C4B40750  14.018  28.528   7.391
 3136POPC   NC340751  39.718  33.987   9.395
 3136POPC   PO440752  39.069  33.830   9.579
 3136POPC   GL140753  39.274  33.811   9.194
 3136POPC   GL240754  39.293  34.129   9.060
 3136POPC   C1A40755  39.400  33.706   8.775
 3136POPC   D2A40756  39.228  33.854   8.393
 3136POPC   C3A40757  39.408  33.683   7.994
 3136POPC   C4A40758  39.501  33.907   7.621
 3136POPC   C1B40759  38.984  34.205   8.733
 3136POPC   C2B40760  38.781  34.099   8.330
 3136POPC   C3B40761  38.913  34.084   7.906
 3136POPC   C4B40762  38.953  34.041   7.479
 3137POPC   NC340763  37.124  26.029   9.857
 3137POPC   PO440764  36.680  26.424   9.551
 3137POPC   GL140765  36.891  26.164   9.234
 3137POPC   GL240766  36.947  26.460   9.035
 3137POPC   C1A40767  36.930  25.866   8.875
 3137POPC   D2A40768  36.887  25.671   8.467
 3137POPC   C3A40769  36.905  25.791   8.032
 3137POPC   C4A40770  36.480  25.887   7.836
 3137POPC   C1B40771  36.696  26.290   8.749
 3137POPC   C2B40772  36.784  26.169   8.344
 3137POPC   C3B40773  36.892  26.297   7.920
 3137POPC   C4B40774  37.231  26.286   7.606
 3138POPC   NC340775  43.060   0.948   9.556
 3138POPC   PO440776  43.436   1.573   9.489
 3138POPC   GL140777  43.115   1.352   9.240
 3138POPC   GL240778  42.957   1.639   9.082
 3138POPC   C1A40779  43.008   1.024   8.881
 3138POPC   D2A40780  42.877   0.862   8.451
 3138POPC   C3A40781  43.122   0.923   8.115
 3138POPC   C4A40782  42.993   1.066   7.774
 3138POPC   C1B40783  43.279   1.442   8.784
 3138POPC   C2B40784  43.015   1.350   8.452
 3138POPC   C3B40785  42.940   1.504   8.077
 3138POPC   C4B40786  43.279   1.478   7.817
 3139POPC   NC340787  14.993   2.097   9.414
 3139POPC   PO440788  15.480   1.648   9.428
 3139POPC   GL140789  15.285   1.786   9.091
 3139POPC   GL240790  15.414   2.147   9.146
 3139POPC   C1A40791  15.017   1.664   8.714
 3139POPC   D2A40792  14.889   1.756   8.278
 3139POPC   C3A40793  15.062   1.627   7.893
 3139POPC   C4A40794  15.003   1.736   7.436
 3139POPC   C1B40795  15.181   2.148   8.764
 3139POPC   C2B40796  15.361   2.042   8.409
 3139POPC   C3B40797  15.187   2.137   8.080
 3139POPC   C4B40798  15.258   2.100   7.710
 3140POPC   NC340799   3.300  39.198   9.431
 3140POPC   PO440800   3.648  38.699   9.496
 3140POPC   GL140801   3.608  38.955   9.124
 3140POPC   GL240802   3.263  38.776   9.114
 3140POPC   C1A40803   3.671  39.300   8.788
 3140POPC   D2A40804   3.637  39.573   8.414
 3140POPC   C3A40805   3.726  39.437   8.009
 3140POPC   C4A40806   3.558  39.309   7.592
 3140POPC   C1B40807   3.218  39.042   8.764
 3140POPC   C2B40808   3.438  39.091   8.374
 3140POPC   C3B40809   3.267  39.221   8.002
 3140POPC   C4B40810   2.991  39.010   7.762
 3141POPC   NC340811  39.643  13.713   9.562
 3141POPC   PO440812  38.971  13.896   9.376
 3141POPC   GL140813  39.114  13.587   9.103
 3141POPC   GL240814  39.446  13.547   9.134
 3141POPC   C1A40815  39.026  13.648   8.700
 3141POPC   D2A40816  39.241  13.597   8.341
 3141POPC   C3A40817  39.097  13.600   7.937
 3141POPC   C4A40818  39.391  13.603   7.618
 3141POPC   C1B40819  39.536  13.698   8.762
 3141POPC   C2B40820  39.645  13.903   8.433
 3141POPC   C3B40821  39.602  13.805   8.025
 3141POPC   C4B40822  39.881  13.551   7.738
 3142POPC   NC340823  41.372  27.623   9.525
 3142POPC   PO440824  41.926  27.150   9.423
 3142POPC   GL140825  41.811  27.328   9.017
 3142POPC   GL240826  41.499  27.579   9.022
 3142POPC   C1A40827  41.705  27.435   8.578
 3142POPC   D2A40828  41.618  27.887   8.439
 3142POPC   C3A40829  41.647  27.935   7.972
 3142POPC   C4A40830  41.739  27.567   7.759
 3142POPC   C1B40831  41.201  27.545   8.646
 3142POPC   C2B40832  41.137  27.234   8.289
 3142POPC   C3B40833  41.309  27.259   7.845
 3142POPC   C4B40834  41.273  27.638   7.582
 3143POPC   NC340835  17.342  32.530   9.566
 3143POPC   PO440836  17.848  32.120   9.632
 3143POPC   GL140837  17.689  32.119   9.227
 3143POPC   GL240838  17.323  32.179   9.182
 3143POPC   C1A40839  17.724  32.249   8.823
 3143POPC   D2A40840  17.461  32.251   8.479
 3143POPC   C3A40841  17.650  32.256   8.103
 3143POPC   C4A40842  17.495  32.235   7.698
 3143POPC   C1B40843  17.036  31.934   8.927
 3143POPC   C2B40844  17.082  31.916   8.495
 3143POPC   C3B40845  17.108  32.099   8.091
 3143POPC   C4B40846  16.830  31.967   7.752
 3144POPC   NC340847   7.218  18.650   9.453
 3144POPC   PO440848   7.598  19.225   9.425
 3144POPC   GL140849   7.669  18.885   9.152
 3144POPC   GL240850   7.349  18.911   9.011
 3144POPC   C1A40851   7.732  18.889   8.697
 3144POPC   D2A40852   7.508  18.771   8.348
 3144POPC   C3A40853   7.707  18.889   7.985
 3144POPC   C4A40854   7.452  18.973   7.639
 3144POPC   C1B40855   7.256  19.356   8.855
 3144POPC   C2B40856   7.075  19.516   8.462
 3144POPC   C3B40857   7.044  19.374   8.027
 3144POPC   C4B40858   7.045  19.274   7.589
 3145POPC   NC340859  33.880   9.219   9.531
 3145POPC   PO440860  33.427   8.694   9.590
 3145POPC   GL140861  33.675   8.868   9.216
 3145POPC   GL240862  33.585   9.254   9.134
 3145POPC   C1A40863  33.928   8.870   8.824
 3145POPC   D2A40864  34.003   8.942   8.377
 3145POPC   C3A40865  33.809   8.767   7.988
 3145POPC   C4A40866  33.745   8.991   7.580
 3145POPC   C1B40867  33.721   9.349   8.728
 3145POPC   C2B40868  33.889   9.448   8.345
 3145POPC   C3B40869  33.778   9.314   7.970
 3145POPC   C4B40870  33.361   9.183   7.827
 3146POPC   NC340871  30.393  12.555   9.832
 3146POPC   PO440872  30.932  12.878   9.394
 3146POPC   GL140873  30.932  12.564   9.180
 3146POPC   GL240874  30.577  12.735   9.071
 3146POPC   C1A40875  30.941  12.532   8.771
 3146POPC   D2A40876  30.835  12.858   8.493
 3146POPC   C3A40877  30.931  12.706   8.112
 3146POPC   C4A40878  30.754  12.638   7.739
 3146POPC   C1B40879  30.446  13.042   8.808
 3146POPC   C2B40880  30.301  13.068   8.409
 3146POPC   C3B40881  30.396  12.797   8.092
 3146POPC   C4B40882  30.434  13.022   7.732
 3147POPC   NC340883  13.170   5.062   9.844
 3147POPC   PO440884  12.793   4.824   9.284
 3147POPC   GL140885  12.908   5.190   9.062
 3147POPC   GL240886  13.249   5.346   9.110
 3147POPC   C1A40887  12.776   5.192   8.650
 3147POPC   D2A40888  12.607   4.859   8.363
 3147POPC   C3A40889  12.748   4.923   7.935
 3147POPC   C4A40890  12.676   5.234   7.653
 3147POPC   C1B40891  13.261   5.492   8.687
 3147POPC   C2B40892  12.973   5.567   8.344
 3147POPC   C3B40893  13.057   5.422   7.928
 3147POPC   C4B40894  13.467   5.361   7.731
 3148POPC   NC340895  19.214  17.109   9.467
 3148POPC   PO440896  19.390  16.522   9.522
 3148POPC   GL140897  19.158  16.677   9.163
 3148POPC   GL240898  18.840  16.829   9.252
 3148POPC   C1A40899  19.073  16.731   8.728
 3148POPC   D2A40900  18.908  16.637   8.344
 3148POPC   C3A40901  19.273  16.576   8.113
 3148POPC   C4A40902  19.216  16.811   7.773
 3148POPC   C1B40903  18.766  17.086   8.889
 3148POPC   C2B40904  18.530  17.061   8.546
 3148POPC   C3B40905  18.584  17.000   8.111
 3148POPC   C4B40906  18.705  16.994   7.688
 3149POPC   NC340907   1.034  42.510   9.492
 3149POPC   PO440908   1.635  42.161   9.484
 3149POPC   GL140909   1.331  42.269   9.149
 3149POPC   GL240910   1.101  42.046   9.161
 3149POPC   C1A40911   1.119  42.547   8.827
 3149POPC   D2A40912   1.044  42.461   8.360
 3149POPC   C3A40913   1.159  42.729   8.003
 3149POPC   C4A40914   1.250  42.702   7.521
 3149POPC   C1B40915   0.893  42.030   8.791
 3149POPC   C2B40916   0.702  42.000   8.410
 3149POPC   C3B40917   0.851  42.055   8.025
 3149POPC   C4B40918   0.990  42.330   7.726
 3150POPC   NC340919  39.248  21.270   9.551
 3150POPC   PO440920  38.791  21.817   9.697
 3150POPC   GL140921  39.068  21.702   9.261
 3150POPC   GL240922  39.152  21.358   9.075
 3150POPC   C1A40923  39.197  21.707   8.742
 3150POPC   D2A40924  39.441  21.523   8.365
 3150POPC   C3A40925  39.459  21.613   7.950
 3150POPC   C4A40926  39.186  21.713   7.631
 3150POPC   C1B40927  39.421  21.215   8.763
 3150POPC   C2B40928  39.436  20.970   8.369
 3150POPC   C3B40929  39.310  21.098   7.940
 3150POPC   C4B40930  39.048  21.212   7.532
 3151POPC   NC340931  36.171   5.829   9.689
 3151POPC   PO440932  35.716   6.117   9.244
 3151POPC   GL140933  36.096   5.975   9.154
 3151POPC   GL240934  36.041   5.643   9.237
 3151POPC   C1A40935  36.146   6.006   8.722
 3151POPC   D2A40936  36.018   6.156   8.358
 3151POPC   C3A40937  36.175   5.952   8.043
 3151POPC   C4A40938  35.984   6.093   7.704
 3151POPC   C1B40939  35.923   5.563   8.824
 3151POPC   C2B40940  36.142   5.550   8.428
 3151POPC   C3B40941  36.023   5.450   8.007
 3151POPC   C4B40942  36.216   5.620   7.653
 3152POPC   NC340943  13.567  19.110   9.644
 3152POPC   PO440944  13.990  18.649   9.490
 3152POPC   GL140945  13.800  18.931   9.226
 3152POPC   GL240946  13.467  18.846   9.207
 3152POPC   C1A40947  13.731  19.240   8.909
 3152POPC   D2A40948  13.511  19.258   8.515
 3152POPC   C3A40949  13.795  19.143   8.191
 3152POPC   C4A40950  13.860  19.147   7.770
 3152POPC   C1B40951  13.598  18.760   8.774
 3152POPC   C2B40952  13.476  18.754   8.344
 3152POPC   C3B40953  13.477  18.826   7.892
 3152POPC   C4B40954  13.425  18.663   7.485
 3153POPC   NC340955  19.616  24.661   9.526
 3153POPC   PO440956  20.187  24.443   9.438
 3153POPC   GL140957  19.902  24.559   9.098
 3153POPC   GL240958  19.719  24.889   9.056
 3153POPC   C1A40959  19.620  24.386   8.794
 3153POPC   D2A40960  19.715  24.380   8.345
 3153POPC   C3A40961  19.455  24.347   8.012
 3153POPC   C4A40962  19.408  23.974   7.825
 3153POPC   C1B40963  19.762  24.826   8.608
 3153POPC   C2B40964  20.139  24.661   8.367
 3153POPC   C3B40965  20.256  24.695   7.940
 3153POPC   C4B40966  19.995  24.528   7.612
 3154POPC   NC340967  11.802  39.504   9.955
 3154POPC   PO440968  12.405  39.355   9.577
 3154POPC   GL140969  12.161  39.239   9.145
 3154POPC   GL240970  12.253  38.927   9.038
 3154POPC   C1A40971  11.969  39.282   8.739
 3154POPC   D2A40972  12.186  39.316   8.344
 3154POPC   C3A40973  12.064  39.119   7.968
 3154POPC   C4A40974  11.810  39.045   7.637
 3154POPC   C1B40975  12.532  38.956   8.688
 3154POPC   C2B40976  12.420  38.859   8.279
 3154POPC   C3B40977  12.537  38.981   7.845
 3154POPC   C4B40978  12.316  39.145   7.475
 3155POPC   NC340979  41.281  24.298   9.279
 3155POPC   PO440980  40.861  23.744   9.554
 3155POPC   GL140981  40.633  23.768   9.181
 3155POPC   GL240982  40.820  23.442   9.130
 3155POPC   C1A40983  40.585  23.681   8.746
 3155POPC   D2A40984  40.782  23.779   8.386
 3155POPC   C3A40985  40.581  23.628   8.041
 3155POPC   C4A40986  40.801  23.603   7.687
 3155POPC   C1B40987  41.074  23.473   8.770
 3155POPC   C2B40988  41.208  23.493   8.361
 3155POPC   C3B40989  41.093  23.347   8.000
 3155POPC   C4B40990  41.251  23.356   7.612
 3156POPC   NC340991   0.112  44.960   9.480
 3156POPC   PO440992   0.101   0.688   9.535
 3156POPC   GL140993  44.770   0.506   9.207
 3156POPC   GL240994  44.754   0.165   9.186
 3156POPC   C1A40995  44.521   0.361   8.802
 3156POPC   D2A40996  44.667   0.426   8.411
 3156POPC   C3A40997  44.475   0.271   8.061
 3156POPC   C4A40998  44.327   0.415   7.651
 3156POPC   C1B40999   0.024   0.245   8.821
 3156POPC   C2B41000   0.123   0.144   8.407
 3156POPC   C3B41001  44.995   0.313   8.033
 3156POPC   C4B41002  44.826   0.324   7.649
 3157POPC   NC341003  34.757   2.517   9.712
 3157POPC   PO441004  34.535   3.119   9.633
 3157POPC   GL141005  34.631   2.852   9.244
 3157POPC   GL241006  34.360   2.948   8.961
 3157POPC   C1A41007  34.833   2.797   8.839
 3157POPC   D2A41008  34.602   2.843   8.451
 3157POPC   C3A41009  34.755   2.668   8.066
 3157POPC   C4A41010  34.931   2.839   7.693
 3157POPC   C1B41011  34.214   2.567   8.725
 3157POPC   C2B41012  34.399   2.377   8.395
 3157POPC   C3B41013  34.247   2.590   8.073
 3157POPC   C4B41014  34.412   2.645   7.687
 3158POPC   NC341015  40.316  38.353   9.487
 3158POPC   PO441016  39.650  38.378   9.566
 3158POPC   GL141017  39.804  38.517   9.150
 3158POPC   GL241018  40.159  38.512   9.036
 3158POPC   C1A41019  39.798  38.573   8.703
 3158POPC   D2A41020  40.156  38.585   8.421
 3158POPC   C3A41021  40.018  38.717   8.037
 3158POPC   C4A41022  39.737  38.539   7.744
 3158POPC   C1B41023  40.110  38.147   8.704
 3158POPC   C2B41024  40.232  38.118   8.216
 3158POPC   C3B41025  40.206  38.323   7.746
 3158POPC   C4B41026  40.350  38.298   7.273
 3159POPC   NC341027   0.838  38.307   9.512
 3159POPC   PO441028   1.342  38.736   9.428
 3159POPC   GL141029   1.298  38.326   9.200
 3159POPC   GL241030   1.162  38.273   8.902
 3159POPC   C1A41031   1.614  38.090   8.925
 3159POPC   D2A41032   1.488  38.224   8.511
 3159POPC   C3A41033   1.394  38.034   8.123
 3159POPC   C4A41034   1.515  38.195   7.713
 3159POPC   C1B41035   1.089  38.630   8.733
 3159POPC   C2B41036   0.969  38.823   8.409
 3159POPC   C3B41037   1.147  38.713   8.025
 3159POPC   C4B41038   1.105  38.477   7.662
 3160POPC   NC341039  44.401   6.504   9.548
 3160POPC   PO441040   0.009   6.722   9.669
 3160POPC   GL141041  44.838   6.534   9.275
 3160POPC   GL241042  44.732   6.890   9.263
 3160POPC   C1A41043  44.771   6.274   8.867
 3160POPC   D2A41044  44.750   6.099   8.451
 3160POPC   C3A41045  44.622   6.319   8.078
 3160POPC   C4A41046  44.710   6.513   7.690
 3160POPC   C1B41047  44.647   6.764   8.857
 3160POPC   C2B41048  44.465   6.547   8.508
 3160POPC   C3B41049  44.388   6.786   8.154
 3160POPC   C4B41050  44.576   6.976   7.819
 3161POPC   NC341051  41.411   1.919   9.258
 3161POPC   PO441052  41.540   2.419   9.729
 3161POPC   GL141053  41.756   2.316   9.212
 3161POPC   GL241054  41.898   1.974   9.094
 3161POPC   C1A41055  41.802   2.240   8.702
 3161POPC   D2A41056  41.727   2.034   8.309
 3161POPC   C3A41057  41.512   2.217   7.985
 3161POPC   C4A41058  41.428   2.029   7.630
 3161POPC   C1B41059  41.737   1.729   8.716
 3161POPC   C2B41060  41.671   1.505   8.313
 3161POPC   C3B41061  41.615   1.580   7.839
 3161POPC   C4B41062  41.432   1.585   7.390
 3162POPC   NC341063  37.150  11.629   9.407
 3162POPC   PO441064  36.854  11.070   9.603
 3162POPC   GL141065  37.094  11.154   9.220
 3162POPC   GL241066  36.828  11.310   9.110
 3162POPC   C1A41067  37.205  11.383   8.799
 3162POPC   D2A41068  37.228  11.229   8.389
 3162POPC   C3A41069  36.982  11.383   8.048
 3162POPC   C4A41070  37.177  11.320   7.630
 3162POPC   C1B41071  36.734  11.496   8.700
 3162POPC   C2B41072  36.561  11.649   8.334
 3162POPC   C3B41073  36.366  11.461   8.007
 3162POPC   C4B41074  36.637  11.487   7.664
 3163POPC   NC341075  25.913  31.852   9.476
 3163POPC   PO441076  26.198  32.463   9.391
 3163POPC   GL141077  26.041  32.194   9.106
 3163POPC   GL241078  26.193  31.866   9.062
 3163POPC   C1A41079  25.977  32.281   8.705
 3163POPC   D2A41080  26.158  32.342   8.351
 3163POPC   C3A41081  25.967  32.263   7.991
 3163POPC   C4A41082  26.073  32.005   7.639
 3163POPC   C1B41083  25.883  31.792   8.776
 3163POPC   C2B41084  25.695  31.928   8.377
 3163POPC   C3B41085  25.742  31.767   7.941
 3163POPC   C4B41086  25.527  31.806   7.531
 3164POPC   NC341087  42.749  33.401   9.473
 3164POPC   PO441088  42.025  33.532   9.465
 3164POPC   GL141089  42.348  33.568   9.163
 3164POPC   GL241090  42.462  33.233   9.090
 3164POPC   C1A41091  42.366  33.804   8.783
 3164POPC   D2A41092  42.147  33.937   8.446
 3164POPC   C3A41093  42.444  33.895   8.124
 3164POPC   C4A41094  42.513  33.895   7.678
 3164POPC   C1B41095  42.233  33.317   8.708
 3164POPC   C2B41096  42.241  33.465   8.289
 3164POPC   C3B41097  42.185  33.509   7.844
 3164POPC   C4B41098  42.378  33.421   7.446
 3165POPC   NC341099  17.487  15.524   9.479
 3165POPC   PO441100  17.632  14.932   9.241
 3165POPC   GL141101  17.539  15.313   9.032
 3165POPC   GL241102  17.904  15.419   9.181
 3165POPC   C1A41103  17.384  15.219   8.611
 3165POPC   D2A41104  17.432  14.824   8.374
 3165POPC   C3A41105  17.532  14.883   7.958
 3165POPC   C4A41106  17.529  15.134   7.603
 3165POPC   C1B41107  17.944  15.253   8.775
 3165POPC   C2B41108  17.829  15.342   8.388
 3165POPC   C3B41109  17.726  15.375   8.001
 3165POPC   C4B41110  18.006  15.317   7.673
 3166POPC   NC341111  38.591  29.927   9.495
 3166POPC   PO441112  37.937  30.013   9.584
 3166POPC   GL141113  38.177  29.930   9.167
 3166POPC   GL241114  38.469  30.095   9.052
 3166POPC   C1A41115  38.209  29.832   8.711
 3166POPC   D2A41116  38.401  29.889   8.305
 3166POPC   C3A41117  38.138  29.943   7.960
 3166POPC   C4A41118  37.995  30.164   7.586
 3166POPC   C1B41119  38.721  30.048   8.687
 3166POPC   C2B41120  38.862  30.095   8.261
 3166POPC   C3B41121  38.756  29.834   7.900
 3166POPC   C4B41122  38.905  30.076   7.566
 3167POPC   NC341123  20.824  31.931   9.702
 3167POPC   PO441124  20.290  32.385   9.612
 3167POPC   GL141125  20.373  32.244   9.153
 3167POPC   GL241126  20.286  31.870   9.127
 3167POPC   C1A41127  20.681  32.391   8.791
 3167POPC   D2A41128  20.895  32.642   8.499
 3167POPC   C3A41129  20.933  32.379   8.202
 3167POPC   C4A41130  20.892  32.379   7.771
 3167POPC   C1B41131  20.324  32.005   8.693
 3167POPC   C2B41132  20.652  31.947   8.393
 3167POPC   C3B41133  20.546  32.075   7.983
 3167POPC   C4B41134  20.204  32.350   7.886
 3168POPC   NC341135  31.906   6.150   9.385
 3168POPC   PO441136  31.659   6.678   9.449
 3168POPC   GL141137  31.459   6.738   9.062
 3168POPC   GL241138  31.122   6.866   9.079
 3168POPC   C1A41139  31.395   6.708   8.629
 3168POPC   D2A41140  31.571   6.929   8.310
 3168POPC   C3A41141  31.607   6.680   7.945
 3168POPC   C4A41142  31.504   6.441   7.592
 3168POPC   C1B41143  30.924   7.023   8.723
 3168POPC   C2B41144  31.085   7.058   8.346
 3168POPC   C3B41145  31.093   6.823   8.008
 3168POPC   C4B41146  31.240   6.852   7.631
 3169POPC   NC341147  44.325   3.160   9.857
 3169POPC   PO441148  44.639   3.622   9.439
 3169POPC   GL141149  44.605   3.375   9.114
 3169POPC   GL241150  44.937   3.383   8.968
 3169POPC   C1A41151  44.321   3.364   8.775
 3169POPC   D2A41152  44.599   3.415   8.463
 3169POPC   C3A41153  44.472   3.418   8.046
 3169POPC   C4A41154  44.666   3.242   7.680
 3169POPC   C1B41155   0.033   3.644   8.606
 3169POPC   C2B41156  44.846   3.738   8.168
 3169POPC   C3B41157  44.775   3.735   7.706
 3169POPC   C4B41158  44.860   3.896   7.277
 3170POPC   NC341159   2.214  25.592   9.560
 3170POPC   PO441160   1.897  26.174   9.553
 3170POPC   GL141161   2.045  25.954   9.184
 3170POPC   GL241162   2.347  26.108   9.246
 3170POPC   C1A41163   1.958  25.964   8.720
 3170POPC   D2A41164   1.939  26.115   8.281
 3170POPC   C3A41165   1.929  26.037   7.823
 3170POPC   C4A41166   1.677  25.872   7.501
 3170POPC   C1B41167   2.348  26.294   8.846
 3170POPC   C2B41168   2.444  26.279   8.417
 3170POPC   C3B41169   2.337  26.310   7.999
 3170POPC   C4B41170   2.340  26.215   7.562
 3171POPC   NC341171  27.386  41.779   9.359
 3171POPC   PO441172  27.733  41.279   9.559
 3171POPC   GL141173  27.529  41.307   9.153
 3171POPC   GL241174  27.797  41.556   9.095
 3171POPC   C1A41175  27.549  41.330   8.677
 3171POPC   D2A41176  27.872  41.432   8.377
 3171POPC   C3A41177  27.785  41.545   7.957
 3171POPC   C4A41178  27.455  41.408   7.779
 3171POPC   C1B41179  27.785  41.792   8.714
 3171POPC   C2B41180  27.459  41.767   8.406
 3171POPC   C3B41181  27.324  41.857   8.012
 3171POPC   C4B41182  27.357  41.853   7.569
 3172POPC   NC341183  14.360  24.150   9.514
 3172POPC   PO441184  14.782  23.615   9.546
 3172POPC   GL141185  14.596  23.777   9.216
 3172POPC   GL241186  14.878  23.684   9.039
 3172POPC   C1A41187  14.318  23.729   8.868
 3172POPC   D2A41188  14.207  23.512   8.494
 3172POPC   C3A41189  14.093  23.797   8.151
 3172POPC   C4A41190  14.292  23.864   7.763
 3172POPC   C1B41191  14.757  24.007   8.778
 3172POPC   C2B41192  14.511  23.918   8.424
 3172POPC   C3B41193  14.559  23.586   8.116
 3172POPC   C4B41194  14.782  23.609   7.752
 3173POPC   NC341195   2.148   9.139   9.458
 3173POPC   PO441196   1.642   9.533   9.158
 3173POPC   GL141197   1.794   9.133   9.066
 3173POPC   GL241198   1.928   8.777   9.148
 3173POPC   C1A41199   1.653   8.868   8.730
 3173POPC   D2A41200   1.760   8.740   8.329
 3173POPC   C3A41201   1.800   9.016   8.003
 3173POPC   C4A41202   1.572   9.126   7.630
 3173POPC   C1B41203   2.173   8.952   8.772
 3173POPC   C2B41204   2.226   8.965   8.356
 3173POPC   C3B41205   2.424   8.993   7.991
 3173POPC   C4B41206   2.440   8.826   7.634
 3174POPC   NC341207   5.602  22.474   9.539
 3174POPC   PO441208   6.101  21.944   9.617
 3174POPC   GL141209   5.972  22.189   9.204
 3174POPC   GL241210   5.695  21.979   8.955
 3174POPC   C1A41211   5.898  22.397   8.797
 3174POPC   D2A41212   5.771  22.172   8.400
 3174POPC   C3A41213   5.771  22.382   7.978
 3174POPC   C4A41214   6.075  22.388   7.620
 3174POPC   C1B41215   6.119  21.909   8.757
 3174POPC   C2B41216   6.346  21.829   8.374
 3174POPC   C3B41217   6.129  22.018   8.042
 3174POPC   C4B41218   5.848  21.951   7.704
 3175POPC   NC341219  28.506  32.238   9.323
 3175POPC   PO441220  27.988  32.488   9.657
 3175POPC   GL141221  27.999  32.366   9.199
 3175POPC   GL241222  28.254  32.581   9.018
 3175POPC   C1A41223  28.021  32.218   8.746
 3175POPC   D2A41224  28.132  32.455   8.379
 3175POPC   C3A41225  28.152  32.296   7.970
 3175POPC   C4A41226  28.309  32.572   7.692
 3175POPC   C1B41227  28.533  32.323   8.698
 3175POPC   C2B41228  28.727  32.275   8.305
 3175POPC   C3B41229  28.747  32.368   7.873
 3175POPC   C4B41230  28.858  32.090   7.551
 3176POPC   NC341231  39.097   9.555   9.717
 3176POPC   PO441232  39.069  10.166   9.467
 3176POPC   GL141233  39.156   9.802   9.200
 3176POPC   GL241234  39.299   9.465   9.270
 3176POPC   C1A41235  38.999   9.616   8.805
 3176POPC   D2A41236  38.948   9.823   8.389
 3176POPC   C3A41237  39.146   9.561   8.035
 3176POPC   C4A41238  39.147   9.670   7.582
 3176POPC   C1B41239  39.512   9.591   8.894
 3176POPC   C2B41240  39.404   9.517   8.491
 3176POPC   C3B41241  39.595   9.358   8.157
 3176POPC   C4B41242  39.544   9.395   7.716
 3177POPC   NC341243   6.954  36.934   9.674
 3177POPC   PO441244   6.574  36.684   9.189
 3177POPC   GL141245   6.488  37.041   9.065
 3177POPC   GL241246   6.833  37.171   9.149
 3177POPC   C1A41247   6.370  36.966   8.620
 3177POPC   D2A41248   6.658  36.685   8.358
 3177POPC   C3A41249   6.631  36.644   7.914
 3177POPC   C4A41250   6.771  36.624   7.499
 3177POPC   C1B41251   6.956  36.969   8.729
 3177POPC   C2B41252   7.140  36.955   8.318
 3177POPC   C3B41253   6.884  37.079   7.980
 3177POPC   C4B41254   6.520  37.062   7.650
 3178POPC   NC341255  34.082  39.339   9.481
 3178POPC   PO441256  33.429  39.238   9.508
 3178POPC   GL141257  33.434  39.189   9.101
 3178POPC   GL241258  33.772  39.244   9.070
 3178POPC   C1A41259  33.412  39.421   8.723
 3178POPC   D2A41260  33.458  39.470   8.281
 3178POPC   C3A41261  33.653  39.146   8.066
 3178POPC   C4A41262  33.758  39.318   7.684
 3178POPC   C1B41263  33.930  39.156   8.666
 3178POPC   C2B41264  34.312  39.223   8.434
 3178POPC   C3B41265  34.222  39.259   7.999
 3178POPC   C4B41266  34.039  38.882   7.802
 3179POPC   NC341267  16.505  15.362   9.571
 3179POPC   PO441268  17.025  14.913   9.522
 3179POPC   GL141269  16.858  15.214   9.220
 3179POPC   GL241270  16.529  15.094   9.137
 3179POPC   C1A41271  16.885  15.222   8.780
 3179POPC   D2A41272  16.938  14.971   8.425
 3179POPC   C3A41273  17.133  15.180   8.097
 3179POPC   C4A41274  16.997  15.125   7.700
 3179POPC   C1B41275  16.379  14.971   8.756
 3179POPC   C2B41276  16.389  15.085   8.355
 3179POPC   C3B41277  16.619  14.986   8.025
 3179POPC   C4B41278  16.482  15.133   7.662
 3180POPC   NC341279   5.214  14.629   9.462
 3180POPC   PO441280   4.953  14.052   9.407
 3180POPC   GL141281   5.011  14.317   9.097
 3180POPC   GL241282   5.362  14.276   9.106
 3180POPC   C1A41283   5.069  14.228   8.684
 3180POPC   D2A41284   4.920  14.404   8.350
 3180POPC   C3A41285   5.156  14.256   8.041
 3180POPC   C4A41286   5.008  14.550   7.796
 3180POPC   C1B41287   5.362  14.626   8.806
 3180POPC   C2B41288   5.409  14.560   8.399
 3180POPC   C3B41289   5.504  14.632   8.006
 3180POPC   C4B41290   5.494  14.450   7.611
 3181POPC   NC341291   3.440   0.882   9.383
 3181POPC   PO441292   3.886   1.333   9.582
 3181POPC   GL141293   3.706   1.226   9.164
 3181POPC   GL241294   3.347   1.374   9.206
 3181POPC   C1A41295   3.604   1.041   8.744
 3181POPC   D2A41296   3.623   1.252   8.344
 3181POPC   C3A41297   3.609   1.005   7.945
 3181POPC   C4A41298   3.269   0.782   7.727
 3181POPC   C1B41299   3.481   1.544   8.825
 3181POPC   C2B41300   3.331   1.659   8.453
 3181POPC   C3B41301   3.427   1.620   8.048
 3181POPC   C4B41302   3.613   1.463   7.699
 3182POPC   NC341303  22.690   8.122   9.510
 3182POPC   PO441304  23.264   8.428   9.442
 3182POPC   GL141305  23.006   8.260   9.135
 3182POPC   GL241306  22.856   7.906   9.073
 3182POPC   C1A41307  23.019   8.462   8.773
 3182POPC   D2A41308  23.128   8.324   8.387
 3182POPC   C3A41309  22.758   8.248   8.133
 3182POPC   C4A41310  22.856   8.346   7.730
 3182POPC   C1B41311  23.151   7.939   8.741
 3182POPC   C2B41312  23.142   7.803   8.309
 3182POPC   C3B41313  22.996   7.849   7.888
 3182POPC   C4B41314  23.236   7.743   7.555
 3183POPC   NC341315  28.107  41.004   9.511
 3183POPC   PO441316  28.649  40.671   9.557
 3183POPC   GL141317  28.390  40.713   9.199
 3183POPC   GL241318  28.378  41.081   9.077
 3183POPC   C1A41319  28.250  40.673   8.779
 3183POPC   D2A41320  28.490  40.844   8.432
 3183POPC   C3A41321  28.317  40.638   8.100
 3183POPC   C4A41322  28.279  40.426   7.723
 3183POPC   C1B41323  28.003  41.117   8.809
 3183POPC   C2B41324  27.968  40.930   8.385
 3183POPC   C3B41325  28.130  41.138   8.016
 3183POPC   C4B41326  28.133  41.291   7.586
 3184POPC   NC341327  43.659  40.220   9.525
 3184POPC   PO441328  44.309  39.992   9.542
 3184POPC   GL141329  44.103  40.208   9.177
 3184POPC   GL241330  43.771  40.056   9.079
 3184POPC   C1A41331  44.080  40.068   8.711
 3184POPC   D2A41332  43.978  39.821   8.355
 3184POPC   C3A41333  44.126  40.010   7.991
 3184POPC   C4A41334  44.012  39.822   7.630
 3184POPC   C1B41335  43.605  39.847   8.740
 3184POPC   C2B41336  43.449  39.978   8.372
 3184POPC   C3B41337  43.615  40.038   7.997
 3184POPC   C4B41338  43.496  40.317   7.692
 3185POPC   NC341339  26.406   3.449   9.748
 3185POPC   PO441340  25.992   3.826   9.378
 3185POPC   GL141341  26.100   3.604   9.082
 3185POPC   GL241342  25.859   3.442   9.014
 3185POPC   C1A41343  26.009   3.741   8.638
 3185POPC   D2A41344  25.739   3.662   8.265
 3185POPC   C3A41345  25.965   3.610   7.870
 3185POPC   C4A41346  25.985   3.390   7.460
 3185POPC   C1B41347  25.885   3.237   8.608
 3185POPC   C2B41348  25.834   3.152   8.153
 3185POPC   C3B41349  26.184   3.133   7.875
 3185POPC   C4B41350  26.439   3.455   7.676
 3186POPC   NC341351   0.394   9.401   9.525
 3186POPC   PO441352   0.189   8.760   9.752
 3186POPC   GL141353   0.242   8.934   9.278
 3186POPC   GL241354   0.535   9.110   9.097
 3186POPC   C1A41355   0.202   8.873   8.804
 3186POPC   D2A41356   0.387   9.099   8.480
 3186POPC   C3A41357   0.193   9.050   8.105
 3186POPC   C4A41358   0.420   9.067   7.726
 3186POPC   C1B41359   0.699   8.800   8.774
 3186POPC   C2B41360   0.835   8.709   8.363
 3186POPC   C3B41361   0.743   8.660   7.919
 3186POPC   C4B41362   0.705   8.751   7.448
 3187POPC   NC341363  34.132  17.350   9.499
 3187POPC   PO441364  34.814  17.437   9.464
 3187POPC   GL141365  34.527  17.351   9.124
 3187POPC   GL241366  34.215  17.122   9.073
 3187POPC   C1A41367  34.668  17.461   8.728
 3187POPC   D2A41368  34.561  17.708   8.408
 3187POPC   C3A41369  34.827  17.714   8.087
 3187POPC   C4A41370  34.728  17.573   7.691
 3187POPC   C1B41371  34.406  17.022   8.704
 3187POPC   C2B41372  34.363  17.243   8.367
 3187POPC   C3B41373  34.394  17.409   8.016
 3187POPC   C4B41374  34.330  17.228   7.651
 3188POPC   NC341375  15.263  20.860   9.570
 3188POPC   PO441376  14.953  20.266   9.562
 3188POPC   GL141377  15.091  20.566   9.210
 3188POPC   GL241378  15.440  20.793   9.102
 3188POPC   C1A41379  15.097  20.548   8.804
 3188POPC   D2A41380  15.245  20.479   8.421
 3188POPC   C3A41381  15.017  20.553   8.064
 3188POPC   C4A41382  15.115  20.504   7.670
 3188POPC   C1B41383  15.304  20.999   8.703
 3188POPC   C2B41384  15.424  20.928   8.285
 3188POPC   C3B41385  15.289  20.989   7.880
 3188POPC   C4B41386  15.216  20.938   7.452
 3189POPC   NC341387  42.390  18.642   9.285
 3189POPC   PO441388  42.516  19.241   9.552
 3189POPC   GL141389  42.456  19.131   9.124
 3189POPC   GL241390  42.121  19.079   9.100
 3189POPC   C1A41391  42.389  18.910   8.700
 3189POPC   D2A41392  42.528  18.622   8.410
 3189POPC   C3A41393  42.548  18.824   8.019
 3189POPC   C4A41394  42.650  18.940   7.620
 3189POPC   C1B41395  41.899  18.818   8.745
 3189POPC   C2B41396  41.864  18.527   8.390
 3189POPC   C3B41397  42.085  18.559   7.984
 3189POPC   C4B41398  42.139  18.903   7.680
 3190POPC   NC341399   4.941   5.495   9.403
 3190POPC   PO441400   5.023   6.152   9.389
 3190POPC   GL141401   5.211   5.842   9.135
 3190POPC   GL241402   4.959   5.994   8.906
 3190POPC   C1A41403   5.131   5.556   8.768
 3190POPC   D2A41404   5.023   5.837   8.415
 3190POPC   C3A41405   5.122   5.735   8.016
 3190POPC   C4A41406   4.966   5.863   7.635
 3190POPC   C1B41407   5.394   6.045   8.709
 3190POPC   C2B41408   5.353   6.275   8.317
 3190POPC   C3B41409   5.119   6.259   7.933
 3190POPC   C4B41410   5.274   6.222   7.503
 3191POPC   NC341411  33.501  24.095   5.619
 3191POPC   PO441412  34.007  23.559   5.405
 3191POPC   GL141413  33.963  23.667   5.818
 3191POPC   GL241414  34.196  23.853   5.953
 3191POPC   C1A41415  33.729  23.630   6.195
 3191POPC   D2A41416  33.459  23.346   6.444
 3191POPC   C3A41417  33.612  23.294   6.827
 3191POPC   C4A41418  33.484  23.346   7.215
 3191POPC   C1B41419  34.117  23.931   6.403
 3191POPC   C2B41420  33.744  23.843   6.666
 3191POPC   C3B41421  33.788  23.732   7.084
 3191POPC   C4B41422  34.168  23.714   7.300
 3192POPC   NC341423   7.460  42.439   5.293
 3192POPC   PO441424   8.127  42.545   5.524
 3192POPC   GL141425   7.688  42.507   5.783
 3192POPC   GL241426   7.295  42.616   5.742
 3192POPC   C1A41427   7.555  42.262   6.200
 3192POPC   D2A41428   7.504  42.055   6.645
 3192POPC   C3A41429   7.393  42.181   7.105
 3192POPC   C4A41430   7.606  41.995   7.482
 3192POPC   C1B41431   7.412  42.753   6.145
 3192POPC   C2B41432   7.392  42.600   6.555
 3192POPC   C3B41433   7.246  42.676   6.961
 3192POPC   C4B41434   7.514  42.769   7.323
 3193POPC   NC341435  41.120  41.038   5.589
 3193POPC   PO441436  41.508  40.583   5.397
 3193POPC   GL141437  41.433  40.714   5.847
 3193POPC   GL241438  41.637  40.972   5.795
 3193POPC   C1A41439  41.387  41.084   6.206
 3193POPC   D2A41440  41.406  41.218   6.649
 3193POPC   C3A41441  41.391  40.853   6.921
 3193POPC   C4A41442  41.485  40.857   7.374
 3193POPC   C1B41443  41.828  40.818   6.165
 3193POPC   C2B41444  41.811  40.929   6.587
 3193POPC   C3B41445  41.832  41.045   7.028
 3193POPC   C4B41446  42.140  41.048   7.280
 3194POPC   NC341447  22.949  38.325   5.507
 3194POPC   PO441448  22.657  38.833   5.465
 3194POPC   GL141449  22.683  38.596   5.884
 3194POPC   GL241450  23.008  38.434   6.019
 3194POPC   C1A41451  22.640  38.443   6.355
 3194POPC   D2A41452  22.629  38.296   6.772
 3194POPC   C3A41453  22.723  38.602   7.082
 3194POPC   C4A41454  23.171  38.748   7.094
 3194POPC   C1B41455  23.030  38.116   6.411
 3194POPC   C2B41456  23.118  37.825   6.773
 3194POPC   C3B41457  23.368  37.846   7.176
 3194POPC   C4B41458  23.225  38.009   7.586
 3195POPC   NC341459  14.430  20.875   5.397
 3195POPC   PO441460  14.784  20.332   5.480
 3195POPC   GL141461  14.471  20.545   5.815
 3195POPC   GL241462  14.319  20.903   5.871
 3195POPC   C1A41463  14.316  20.602   6.267
 3195POPC   D2A41464  14.580  20.530   6.591
 3195POPC   C3A41465  14.345  20.506   6.945
 3195POPC   C4A41466  14.323  20.349   7.324
 3195POPC   C1B41467  14.678  20.939   6.127
 3195POPC   C2B41468  14.699  21.026   6.561
 3195POPC   C3B41469  14.601  20.949   7.001
 3195POPC   C4B41470  14.783  20.674   7.301
 3196POPC   NC341471   0.039  29.626   5.429
 3196POPC   PO441472   0.082  30.386   5.468
 3196POPC   GL141473  44.855  29.999   5.726
 3196POPC   GL241474  44.527  29.940   5.929
 3196POPC   C1A41475  44.944  29.986   6.191
 3196POPC   D2A41476  44.822  30.110   6.575
 3196POPC   C3A41477  44.905  29.934   6.986
 3196POPC   C4A41478  44.728  30.086   7.368
 3196POPC   C1B41479  44.543  29.713   6.324
 3196POPC   C2B41480  44.477  29.776   6.744
 3196POPC   C3B41481  44.557  29.595   7.147
 3196POPC   C4B41482  44.739  29.606   7.545
 3197POPC   NC341483  30.253  12.242   5.535
 3197POPC   PO441484  29.594  12.311   5.513
 3197POPC   GL141485  29.850  12.220   5.890
 3197POPC   GL241486  30.060  11.888   5.865
 3197POPC   C1A41487  29.834  12.185   6.346
 3197POPC   D2A41488  29.863  11.959   6.713
 3197POPC   C3A41489  29.894  12.051   7.132
 3197POPC   C4A41490  29.585  12.199   7.450
 3197POPC   C1B41491  30.317  12.129   6.182
 3197POPC   C2B41492  30.443  12.002   6.596
 3197POPC   C3B41493  30.289  11.760   6.921
 3197POPC   C4B41494  30.298  11.793   7.350
 3198POPC   NC341495  10.773  34.845   5.487
 3198POPC   PO441496  10.192  34.464   5.378
 3198POPC   GL141497  10.368  34.412   5.757
 3198POPC   GL241498  10.359  34.776   5.786
 3198POPC   C1A41499  10.239  34.456   6.189
 3198POPC   D2A41500  10.426  34.595   6.590
 3198POPC   C3A41501  10.403  34.418   6.995
 3198POPC   C4A41502  10.129  34.651   7.248
 3198POPC   C1B41503  10.629  34.786   6.152
 3198POPC   C2B41504  10.833  34.955   6.534
 3198POPC   C3B41505  10.961  34.823   6.943
 3198POPC   C4B41506  10.765  34.725   7.335
 3199POPC   NC341507  30.539  19.948   5.095
 3199POPC   PO441508  29.870  19.880   5.368
 3199POPC   GL141509  29.984  19.906   5.782
 3199POPC   GL241510  29.839  19.597   5.920
 3199POPC   C1A41511  29.817  20.086   6.152
 3199POPC   D2A41512  29.801  19.890   6.558
 3199POPC   C3A41513  29.749  20.110   6.940
 3199POPC   C4A41514  29.848  19.871   7.309
 3199POPC   C1B41515  30.071  19.454   6.300
 3199POPC   C2B41516  30.214  19.576   6.733
 3199POPC   C3B41517  30.236  19.534   7.206
 3199POPC   C4B41518  30.147  19.486   7.677
 3200POPC   NC341519  37.812  36.812   5.390
 3200POPC   PO441520  37.728  36.153   5.433
 3200POPC   GL141521  37.703  36.185   5.866
 3200POPC   GL241522  37.751  36.546   5.821
 3200POPC   C1A41523  37.714  36.007   6.306
 3200POPC   D2A41524  37.858  35.781   6.685
 3200POPC   C3A41525  37.760  36.078   7.000
 3200POPC   C4A41526  37.627  36.034   7.386
 3200POPC   C1B41527  38.026  36.467   6.208
 3200POPC   C2B41528  37.894  36.402   6.628
 3200POPC   C3B41529  38.012  36.543   7.041
 3200POPC   C4B41530  37.990  36.434   7.471
 3201POPC   NC341531   3.403  27.324   5.490
 3201POPC   PO441532   3.901  27.738   5.612
 3201POPC   GL141533   3.508  27.678   5.833
 3201POPC   GL241534   3.211  27.843   5.682
 3201POPC   C1A41535   3.459  27.478   6.227
 3201POPC   D2A41536   3.704  27.576   6.557
 3201POPC   C3A41537   3.637  27.393   6.914
 3201POPC   C4A41538   3.680  27.573   7.287
 3201POPC   C1B41539   3.224  27.966   6.132
 3201POPC   C2B41540   3.162  27.786   6.557
 3201POPC   C3B41541   3.325  27.794   6.972
 3201POPC   C4B41542   3.117  27.727   7.371
 3202POPC   NC341543  12.067  19.646   5.456
 3202POPC   PO441544  11.592  20.091   5.448
 3202POPC   GL141545  11.857  20.059   5.858
 3202POPC   GL241546  12.226  19.948   5.861
 3202POPC   C1A41547  11.876  19.847   6.289
 3202POPC   D2A41548  11.968  19.547   6.646
 3202POPC   C3A41549  11.987  19.747   7.044
 3202POPC   C4A41550  11.888  20.178   7.153
 3202POPC   C1B41551  12.270  20.162   6.271
 3202POPC   C2B41552  12.139  20.104   6.688
 3202POPC   C3B41553  12.389  20.076   7.045
 3202POPC   C4B41554  12.361  19.839   7.405
 3203POPC   NC341555  26.246  17.581   5.311
 3203POPC   PO441556  25.639  17.456   5.629
 3203POPC   GL141557  26.049  17.378   5.758
 3203POPC   GL241558  26.204  17.744   5.782
 3203POPC   C1A41559  26.254  17.161   6.110
 3203POPC   D2A41560  26.246  17.025   6.559
 3203POPC   C3A41561  25.965  17.277   6.832
 3203POPC   C4A41562  25.799  17.255   7.264
 3203POPC   C1B41563  26.000  17.646   6.186
 3203POPC   C2B41564  25.707  17.771   6.504
 3203POPC   C3B41565  25.811  17.974   6.868
 3203POPC   C4B41566  26.007  17.706   7.128
 3204POPC   NC341567   6.355   4.465   5.369
 3204POPC   PO441568   6.160   3.936   5.623
 3204POPC   GL141569   6.546   4.161   5.742
 3204POPC   GL241570   6.539   3.926   5.974
 3204POPC   C1A41571   6.855   4.313   6.066
 3204POPC   D2A41572   6.707   4.399   6.480
 3204POPC   C3A41573   6.891   4.253   6.865
 3204POPC   C4A41574   6.799   4.570   7.199
 3204POPC   C1B41575   6.285   4.233   6.190
 3204POPC   C2B41576   6.130   4.358   6.573
 3204POPC   C3B41577   6.407   4.386   6.906
 3204POPC   C4B41578   6.511   4.129   7.261
 3205POPC   NC341579  14.216  44.315   5.420
 3205POPC   PO441580  14.411   0.016   5.373
 3205POPC   GL141581  14.391  44.737   5.744
 3205POPC   GL241582  14.115  44.539   5.865
 3205POPC   C1A41583  14.392  44.822   6.206
 3205POPC   D2A41584  14.376  44.634   6.640
 3205POPC   C3A41585  14.280  44.872   7.016
 3205POPC   C4A41586  14.383   0.166   7.356
 3205POPC   C1B41587  14.088  44.394   6.302
 3205POPC   C2B41588  13.872  44.514   6.713
 3205POPC   C3B41589  13.868  44.574   7.191
 3205POPC   C4B41590  13.782  44.517   7.670
 3206POPC   NC341591  44.059  21.548   5.382
 3206POPC   PO441592  44.184  20.904   5.575
 3206POPC   GL141593  44.000  21.207   5.856
 3206POPC   GL241594  44.189  21.527   5.879
 3206POPC   C1A41595  43.788  21.479   6.178
 3206POPC   D2A41596  43.925  21.583   6.609
 3206POPC   C3A41597  43.747  21.327   6.903
 3206POPC   C4A41598  43.604  21.472   7.275
 3206POPC   C1B41599  44.269  21.357   6.316
 3206POPC   C2B41600  44.243  21.188   6.733
 3206POPC   C3B41601  44.196  21.352   7.142
 3206POPC   C4B41602  44.122  21.711   7.390
 3207POPC   NC341603  15.680   7.701   5.546
 3207POPC   PO441604  16.121   8.293   5.560
 3207POPC   GL141605  16.217   8.068   5.932
 3207POPC   GL241606  16.406   7.726   5.888
 3207POPC   C1A41607  16.098   8.265   6.343
 3207POPC   D2A41608  15.731   8.278   6.615
 3207POPC   C3A41609  15.692   8.023   6.982
 3207POPC   C4A41610  15.856   8.315   7.313
 3207POPC   C1B41611  16.326   7.809   6.348
 3207POPC   C2B41612  16.153   7.907   6.740
 3207POPC   C3B41613  16.162   7.939   7.188
 3207POPC   C4B41614  15.958   7.889   7.620
 3208POPC   NC341615   1.725  27.428   5.501
 3208POPC   PO441616   2.317  27.769   5.381
 3208POPC   GL141617   2.204  27.572   5.767
 3208POPC   GL241618   1.895  27.701   5.896
 3208POPC   C1A41619   2.313  27.609   6.194
 3208POPC   D2A41620   2.202  27.379   6.591
 3208POPC   C3A41621   1.978  27.623   6.888
 3208POPC   C4A41622   2.023  27.854   7.288
 3208POPC   C1B41623   1.923  27.304   6.156
 3208POPC   C2B41624   1.694  27.204   6.498
 3208POPC   C3B41625   1.678  27.196   6.912
 3208POPC   C4B41626   1.679  27.456   7.274
 3209POPC   NC341627  35.762  19.155   5.330
 3209POPC   PO441628  36.317  18.837   5.467
 3209POPC   GL141629  36.174  18.953   5.882
 3209POPC   GL241630  35.973  19.258   5.801
 3209POPC   C1A41631  36.303  18.759   6.300
 3209POPC   D2A41632  36.558  18.694   6.703
 3209POPC   C3A41633  36.329  18.982   7.005
 3209POPC   C4A41634  35.918  18.842   7.184
 3209POPC   C1B41635  35.876  19.242   6.238
 3209POPC   C2B41636  35.905  19.056   6.647
 3209POPC   C3B41637  35.858  19.296   6.998
 3209POPC   C4B41638  35.650  19.286   7.339
 3210POPC   NC341639   4.190  38.000   5.320
 3210POPC   PO441640   4.215  38.623   5.248
 3210POPC   GL141641   4.268  38.460   5.659
 3210POPC   GL241642   4.387  38.759   5.806
 3210POPC   C1A41643   4.441  38.244   6.027
 3210POPC   D2A41644   4.524  38.217   6.471
 3210POPC   C3A41645   4.213  38.170   6.807
 3210POPC   C4A41646   4.423  38.145   7.195
 3210POPC   C1B41647   4.101  38.625   6.136
 3210POPC   C2B41648   4.176  38.650   6.572
 3210POPC   C3B41649   4.262  38.660   6.998
 3210POPC   C4B41650   3.986  38.447   7.222
 3211POPC   NC341651  39.639  31.827   5.381
 3211POPC   PO441652  39.064  32.277   5.341
 3211POPC   GL141653  39.129  32.121   5.745
 3211POPC   GL241654  39.190  32.440   5.896
 3211POPC   C1A41655  39.320  31.927   6.132
 3211POPC   D2A41656  39.323  32.136   6.543
 3211POPC   C3A41657  39.247  31.844   6.865
 3211POPC   C4A41658  39.019  31.826   7.249
 3211POPC   C1B41659  39.305  32.703   6.262
 3211POPC   C2B41660  39.419  32.639   6.658
 3211POPC   C3B41661  39.239  32.435   7.002
 3211POPC   C4B41662  39.123  32.676   7.330
 3212POPC   NC341663   5.276  10.315   5.249
 3212POPC   PO441664   5.007  10.947   5.226
 3212POPC   GL141665   5.042  10.670   5.629
 3212POPC   GL241666   5.412  10.602   5.700
 3212POPC   C1A41667   4.776  10.564   6.031
 3212POPC   D2A41668   4.669  10.588   6.510
 3212POPC   C3A41669   4.914  10.837   6.839
 3212POPC   C4A41670   5.166  10.720   7.212
 3212POPC   C1B41671   5.271  10.432   6.103
 3212POPC   C2B41672   5.227  10.532   6.543
 3212POPC   C3B41673   5.095  10.311   6.910
 3212POPC   C4B41674   5.361  10.252   7.260
 3213POPC   NC341675   4.526  39.770   5.534
 3213POPC   PO441676   4.089  40.374   5.457
 3213POPC   GL141677   4.092  40.191   5.903
 3213POPC   GL241678   4.414  40.123   5.873
 3213POPC   C1A41679   4.138  40.040   6.323
 3213POPC   D2A41680   4.188  40.257   6.706
 3213POPC   C3A41681   4.052  40.039   7.075
 3213POPC   C4A41682   3.926  40.161   7.514
 3213POPC   C1B41683   4.671  40.013   6.199
 3213POPC   C2B41684   4.613  39.976   6.628
 3213POPC   C3B41685   4.546  40.110   7.050
 3213POPC   C4B41686   4.395  39.965   7.475
 3214POPC   NC341687  18.892   1.602   5.406
 3214POPC   PO441688  19.165   1.011   5.495
 3214POPC   GL141689  19.042   1.316   5.815
 3214POPC   GL241690  19.345   1.509   5.760
 3214POPC   C1A41691  19.003   1.263   6.274
 3214POPC   D2A41692  19.158   1.011   6.634
 3214POPC   C3A41693  18.955   1.138   6.992
 3214POPC   C4A41694  19.092   1.107   7.442
 3214POPC   C1B41695  19.295   1.672   6.199
 3214POPC   C2B41696  19.245   1.535   6.661
 3214POPC   C3B41697  19.333   1.440   7.107
 3214POPC   C4B41698  19.450   1.555   7.537
 3215POPC   NC341699   0.726  22.573   5.654
 3215POPC   PO441700   0.748  23.232   5.428
 3215POPC   GL141701   0.635  23.080   5.804
 3215POPC   GL241702   0.308  22.946   5.709
 3215POPC   C1A41703   0.690  22.913   6.208
 3215POPC   D2A41704   0.816  22.978   6.595
 3215POPC   C3A41705   0.584  22.849   6.949
 3215POPC   C4A41706   0.472  23.104   7.275
 3215POPC   C1B41707   0.195  22.835   6.132
 3215POPC   C2B41708   0.286  22.987   6.560
 3215POPC   C3B41709   0.074  22.962   6.993
 3215POPC   C4B41710   0.063  22.895   7.489
 3216POPC   NC341711   0.940  16.574   5.117
 3216POPC   PO441712   0.414  16.554   5.520
 3216POPC   GL141713   0.426  16.621   5.913
 3216POPC   GL241714   0.291  16.964   5.864
 3216POPC   C1A41715   0.659  16.546   6.266
 3216POPC   D2A41716   0.395  16.652   6.622
 3216POPC   C3A41717   0.613  16.754   6.980
 3216POPC   C4A41718   0.732  16.555   7.336
 3216POPC   C1B41719   0.503  17.019   6.242
 3216POPC   C2B41720   0.450  17.167   6.614
 3216POPC   C3B41721   0.217  17.050   6.954
 3216POPC   C4B41722   0.436  17.118   7.312
 3217POPC   NC341723  41.490   9.028   5.140
 3217POPC   PO441724  41.756   8.554   5.565
 3217POPC   GL141725  41.600   8.949   5.734
 3217POPC   GL241726  41.413   9.246   5.596
 3217POPC   C1A41727  41.491   9.046   6.150
 3217POPC   D2A41728  41.370   9.000   6.581
 3217POPC   C3A41729  41.601   8.992   6.953
 3217POPC   C4A41730  41.771   8.607   7.177
 3217POPC   C1B41731  41.243   9.451   5.965
 3217POPC   C2B41732  41.307   9.477   6.432
 3217POPC   C3B41733  41.136   9.350   6.880
 3217POPC   C4B41734  41.296   9.242   7.319
 3218POPC   NC341735  33.177  15.553   5.401
 3218POPC   PO441736  33.091  14.876   5.390
 3218POPC   GL141737  32.995  15.192   5.736
 3218POPC   GL241738  33.300  15.385   5.847
 3218POPC   C1A41739  32.775  15.220   6.148
 3218POPC   D2A41740  32.691  14.954   6.537
 3218POPC   C3A41741  32.749  15.164   6.915
 3218POPC   C4A41742  32.843  14.970   7.277
 3218POPC   C1B41743  33.286  15.514   6.254
 3218POPC   C2B41744  33.161  15.226   6.584
 3218POPC   C3B41745  33.277  15.126   7.005
 3218POPC   C4B41746  33.073  15.425   7.260
 3219POPC   NC341747  25.970   1.515   5.584
 3219POPC   PO441748  26.136   0.942   5.354
 3219POPC   GL141749  26.191   1.062   5.789
 3219POPC   GL241750  25.844   1.111   5.887
 3219POPC   C1A41751  26.180   1.186   6.252
 3219POPC   D2A41752  26.245   1.016   6.674
 3219POPC   C3A41753  26.240   1.226   7.063
 3219POPC   C4A41754  26.378   1.192   7.494
 3219POPC   C1B41755  25.749   1.459   6.205
 3219POPC   C2B41756  25.615   1.564   6.634
 3219POPC   C3B41757  25.785   1.508   7.040
 3219POPC   C4B41758  25.848   1.254   7.405
 3220POPC   NC341759  43.832   3.841   5.237
 3220POPC   PO441760  43.591   3.177   5.399
 3220POPC   GL141761  43.725   3.384   5.755
 3220POPC   GL241762  43.634   3.723   5.688
 3220POPC   C1A41763  43.789   3.340   6.201
 3220POPC   D2A41764  43.949   3.580   6.549
 3220POPC   C3A41765  43.824   3.415   6.922
 3220POPC   C4A41766  44.105   3.278   7.189
 3220POPC   C1B41767  43.756   3.849   6.105
 3220POPC   C2B41768  43.595   3.954   6.518
 3220POPC   C3B41769  43.775   3.956   6.929
 3220POPC   C4B41770  44.125   3.790   7.147
 3221POPC   NC341771  33.820  24.798   5.459
 3221POPC   PO441772  33.955  24.156   5.627
 3221POPC   GL141773  33.888  24.508   5.883
 3221POPC   GL241774  34.102  24.346   6.091
 3221POPC   C1A41775  33.693  24.712   6.227
 3221POPC   D2A41776  33.757  24.910   6.628
 3221POPC   C3A41777  33.678  24.684   6.999
 3221POPC   C4A41778  33.886  24.576   7.331
 3221POPC   C1B41779  33.702  24.192   6.248
 3221POPC   C2B41780  33.767  24.367   6.614
 3221POPC   C3B41781  33.928  24.222   6.974
 3221POPC   C4B41782  33.516  24.164   7.156
 3222POPC   NC341783  21.712  39.252   5.569
 3222POPC   PO441784  21.099  39.513   5.483
 3222POPC   GL141785  21.207  39.404   5.904
 3222POPC   GL241786  21.366  39.064   5.910
 3222POPC   C1A41787  21.123  39.222   6.324
 3222POPC   D2A41788  21.369  38.953   6.598
 3222POPC   C3A41789  21.425  39.166   6.988
 3222POPC   C4A41790  21.232  39.178   7.396
 3222POPC   C1B41791  21.620  39.301   6.228
 3222POPC   C2B41792  21.612  39.519   6.604
 3222POPC   C3B41793  21.765  39.600   7.001
 3222POPC   C4B41794  21.727  39.336   7.366
 3223POPC   NC341795  14.388   5.612   5.466
 3223POPC   PO441796  14.010   6.143   5.367
 3223POPC   GL141797  14.216   5.989   5.760
 3223POPC   GL241798  14.554   6.049   5.776
 3223POPC   C1A41799  14.306   5.687   6.130
 3223POPC   D2A41800  14.460   5.612   6.555
 3223POPC   C3A41801  14.226   5.611   6.925
 3223POPC   C4A41802  14.321   5.881   7.289
 3223POPC   C1B41803  14.431   6.179   6.215
 3223POPC   C2B41804  14.630   6.088   6.661
 3223POPC   C3B41805  14.579   6.298   7.074
 3223POPC   C4B41806  14.539   6.296   7.544
 3224POPC   NC341807  38.657  16.427   5.417
 3224POPC   PO441808  38.733  17.057   5.681
 3224POPC   GL141809  38.661  16.658   5.888
 3224POPC   GL241810  38.424  16.365   5.866
 3224POPC   C1A41811  38.638  16.710   6.309
 3224POPC   D2A41812  38.376  16.904   6.591
 3224POPC   C3A41813  38.594  16.784   6.936
 3224POPC   C4A41814  38.570  16.955   7.330
 3224POPC   C1B41815  38.162  16.586   6.176
 3224POPC   C2B41816  37.967  16.592   6.600
 3224POPC   C3B41817  38.088  16.728   7.032
 3224POPC   C4B41818  38.373  16.473   7.287
 3225POPC   NC341819  10.758  31.772   5.286
 3225POPC   PO441820  10.148  31.444   5.305
 3225POPC   GL141821  10.393  31.362   5.731
 3225POPC   GL241822  10.733  31.530   5.759
 3225POPC   C1A41823  10.462  31.308   6.205
 3225POPC   D2A41824  10.303  31.542   6.597
 3225POPC   C3A41825  10.344  31.353   7.011
 3225POPC   C4A41826  10.514  31.502   7.420
 3225POPC   C1B41827  10.883  31.597   6.201
 3225POPC   C2B41828  10.803  31.430   6.618
 3225POPC   C3B41829  10.980  31.477   7.024
 3225POPC   C4B41830  10.903  31.805   7.289
 3226POPC   NC341831  34.916   2.696   5.124
 3226POPC   PO441832  34.259   2.820   5.274
 3226POPC   GL141833  34.552   2.810   5.653
 3226POPC   GL241834  34.624   3.139   5.758
 3226POPC   C1A41835  34.593   2.775   6.146
 3226POPC   D2A41836  34.371   2.846   6.554
 3226POPC   C3A41837  34.482   2.562   6.908
 3226POPC   C4A41838  34.708   2.662   7.279
 3226POPC   C1B41839  34.870   3.206   6.149
 3226POPC   C2B41840  35.013   3.034   6.537
 3226POPC   C3B41841  34.828   2.986   6.901
 3226POPC   C4B41842  34.865   3.177   7.286
 3227POPC   NC341843   5.283  11.271   4.958
 3227POPC   PO441844   4.977  11.451   5.587
 3227POPC   GL141845   5.157  11.139   5.807
 3227POPC   GL241846   5.298  11.365   6.052
 3227POPC   C1A41847   4.952  11.017   6.182
 3227POPC   D2A41848   4.923  11.403   6.425
 3227POPC   C3A41849   4.973  11.381   6.854
 3227POPC   C4A41850   4.834  11.286   7.253
 3227POPC   C1B41851   5.604  11.403   6.381
 3227POPC   C2B41852   5.429  11.586   6.753
 3227POPC   C3B41853   5.343  11.489   7.214
 3227POPC   C4B41854   5.425  11.621   7.649
 3228POPC   NC341855  24.536  31.097   5.355
 3228POPC   PO441856  24.918  30.645   5.148
 3228POPC   GL141857  24.533  30.634   5.556
 3228POPC   GL241858  24.192  30.734   5.599
 3228POPC   C1A41859  24.606  30.625   6.065
 3228POPC   D2A41860  24.406  30.703   6.480
 3228POPC   C3A41861  24.555  30.533   6.879
 3228POPC   C4A41862  24.649  30.637   7.303
 3228POPC   C1B41863  24.115  30.741   6.042
 3228POPC   C2B41864  23.920  30.861   6.425
 3228POPC   C3B41865  24.057  30.850   6.853
 3228POPC   C4B41866  24.164  30.570   7.202
 3229POPC   NC341867  27.894   1.069   5.484
 3229POPC   PO441868  27.318   1.423   5.625
 3229POPC   GL141869  27.635   1.300   5.886
 3229POPC   GL241870  27.950   1.496   5.817
 3229POPC   C1A41871  27.582   1.002   6.233
 3229POPC   D2A41872  27.378   1.076   6.618
 3229POPC   C3A41873  27.485   0.868   6.964
 3229POPC   C4A41874  27.220   0.880   7.303
 3229POPC   C1B41875  27.993   1.303   6.245
 3229POPC   C2B41876  27.888   1.118   6.660
 3229POPC   C3B41877  27.790   1.283   7.088
 3229POPC   C4B41878  27.935   1.336   7.534
 3230POPC   NC341879  34.799   0.925   5.179
 3230POPC   PO441880  34.596   1.513   5.273
 3230POPC   GL141881  34.421   1.263   5.641
 3230POPC   GL241882  34.664   1.338   5.891
 3230POPC   C1A41883  34.235   1.139   6.091
 3230POPC   D2A41884  34.076   1.259   6.536
 3230POPC   C3A41885  34.237   1.035   6.905
 3230POPC   C4A41886  34.584   1.185   7.149
 3230POPC   C1B41887  34.683   1.335   6.343
 3230POPC   C2B41888  34.500   1.487   6.738
 3230POPC   C3B41889  34.731   1.671   7.085
 3230POPC   C4B41890  35.100   1.454   7.220
 3231POPC   NC341891   8.854   7.655   5.312
 3231POPC   PO441892   9.352   7.204   5.338
 3231POPC   GL141893   9.211   7.355   5.758
 3231POPC   GL241894   8.899   7.552   5.802
 3231POPC   C1A41895   9.220   7.452   6.227
 3231POPC   D2A41896   9.158   7.314   6.664
 3231POPC   C3A41897   9.239   7.560   7.088
 3231POPC   C4A41898   8.909   7.693   7.414
 3231POPC   C1B41899   8.685   7.504   6.179
 3231POPC   C2B41900   8.718   7.580   6.596
 3231POPC   C3B41901   8.731   7.411   7.007
 3231POPC   C4B41902   8.741   7.189   7.410
 3232POPC   NC341903  34.055   6.338   5.177
 3232POPC   PO441904  33.756   5.771   5.292
 3232POPC   GL141905  33.874   5.758   5.723
 3232POPC   GL241906  33.750   6.103   5.718
 3232POPC   C1A41907  33.966   5.791   6.176
 3232POPC   D2A41908  33.649   5.974   6.471
 3232POPC   C3A41909  33.562   5.801   6.894
 3232POPC   C4A41910  33.784   5.631   7.265
 3232POPC   C1B41911  33.909   6.294   6.077
 3232POPC   C2B41912  33.965   6.389   6.481
 3232POPC   C3B41913  33.932   6.187   6.849
 3232POPC   C4B41914  33.736   6.172   7.211
 3233POPC   NC341915  16.126   5.880   5.452
 3233POPC   PO441916  15.544   5.523   5.380
 3233POPC   GL141917  15.772   5.630   5.795
 3233POPC   GL241918  15.859   5.288   5.883
 3233POPC   C1A41919  15.950   5.905   6.180
 3233POPC   D2A41920  15.816   6.145   6.584
 3233POPC   C3A41921  15.952   5.988   7.008
 3233POPC   C4A41922  15.771   5.743   7.371
 3233POPC   C1B41923  15.769   5.430   6.296
 3233POPC   C2B41924  16.009   5.624   6.623
 3233POPC   C3B41925  16.103   5.500   7.027
 3233POPC   C4B41926  16.016   5.287   7.401
 3234POPC   NC341927   4.150  27.383   5.433
 3234POPC   PO441928   4.349  27.947   5.151
 3234POPC   GL141929   4.364  27.932   5.675
 3234POPC   GL241930   4.423  27.561   5.819
 3234POPC   C1A41931   4.517  27.936   6.136
 3234POPC   D2A41932   4.394  27.603   6.460
 3234POPC   C3A41933   4.378  27.736   6.902
 3234POPC   C4A41934   4.182  27.732   7.308
 3234POPC   C1B41935   4.093  27.324   6.111
 3234POPC   C2B41936   3.980  27.133   6.527
 3234POPC   C3B41937   4.104  27.232   6.964
 3234POPC   C4B41938   4.061  27.260   7.420
 3235POPC   NC341939  17.376  22.398   5.655
 3235POPC   PO441940  16.965  21.850   5.399
 3235POPC   GL141941  17.017  21.941   5.835
 3235POPC   GL241942  17.382  21.879   5.832
 3235POPC   C1A41943  16.813  22.226   6.198
 3235POPC   D2A41944  16.729  22.358   6.653
 3235POPC   C3A41945  16.604  22.018   6.936
 3235POPC   C4A41946  16.740  21.949   7.351
 3235POPC   C1B41947  17.281  22.063   6.249
 3235POPC   C2B41948  17.017  21.897   6.571
 3235POPC   C3B41949  17.112  21.945   6.974
 3235POPC   C4B41950  17.378  22.073   7.260
 3236POPC   NC341951   3.190   9.293   5.299
 3236POPC   PO441952   3.771   8.966   5.328
 3236POPC   GL141953   3.546   8.927   5.707
 3236POPC   GL241954   3.749   8.727   5.965
 3236POPC   C1A41955   3.506   9.176   6.079
 3236POPC   D2A41956   3.650   9.030   6.482
 3236POPC   C3A41957   3.577   9.234   6.882
 3236POPC   C4A41958   3.664   9.162   7.323
 3236POPC   C1B41959   3.334   8.692   6.194
 3236POPC   C2B41960   3.246   8.771   6.653
 3236POPC   C3B41961   3.590   8.730   6.983
 3236POPC   C4B41962   3.556   8.666   7.449
 3237POPC   NC341963  24.673  33.094   5.455
 3237POPC   PO441964  24.039  33.182   5.610
 3237POPC   GL141965  24.404  33.076   5.881
 3237POPC   GL241966  24.734  33.288   5.931
 3237POPC   C1A41967  24.550  32.899   6.263
 3237POPC   D2A41968  24.471  33.115   6.644
 3237POPC   C3A41969  24.225  33.000   7.001
 3237POPC   C4A41970  24.067  33.283   7.270
 3237POPC   C1B41971  24.927  33.312   6.362
 3237POPC   C2B41972  24.919  33.298   6.826
 3237POPC   C3B41973  24.775  32.894   7.012
 3237POPC   C4B41974  24.767  32.697   7.419
 3238POPC   NC341975  18.623  20.822   5.462
 3238POPC   PO441976  18.037  20.432   5.358
 3238POPC   GL141977  18.258  20.527   5.727
 3238POPC   GL241978  18.065  20.796   5.811
 3238POPC   C1A41979  18.508  20.394   6.086
 3238POPC   D2A41980  18.377  20.248   6.491
 3238POPC   C3A41981  18.351  20.503   6.898
 3238POPC   C4A41982  18.468  20.600   7.345
 3238POPC   C1B41983  17.993  20.539   6.213
 3238POPC   C2B41984  17.833  20.464   6.646
 3238POPC   C3B41985  17.877  20.633   7.074
 3238POPC   C4B41986  17.940  20.545   7.524
 3239POPC   NC341987   3.071  13.919   5.353
 3239POPC   PO441988   2.856  14.627   5.386
 3239POPC   GL141989   2.793  14.447   5.779
 3239POPC   GL241990   2.939  14.147   5.786
 3239POPC   C1A41991   2.698  14.598   6.171
 3239POPC   D2A41992   2.459  14.811   6.483
 3239POPC   C3A41993   2.739  14.844   6.789
 3239POPC   C4A41994   2.821  14.573   7.100
 3239POPC   C1B41995   2.723  14.081   6.170
 3239POPC   C2B41996   2.618  14.272   6.572
 3239POPC   C3B41997   2.698  14.093   6.994
 3239POPC   C4B41998   2.463  13.901   7.305
 3240POPC   NC341999  13.990  23.075   5.470
 3240POPC   PO442000  13.556  22.591   5.212
 3240POPC   GL142001  13.653  22.761   5.695
 3240POPC   GL242002  13.460  22.531   5.837
 3240POPC   C1A42003  13.740  23.054   6.095
 3240POPC   D2A42004  13.610  23.199   6.528
 3240POPC   C3A42005  13.763  23.105   6.951
 3240POPC   C4A42006  13.602  23.039   7.389
 3240POPC   C1B42007  13.761  22.561   6.200
 3240POPC   C2B42008  13.730  22.699   6.624
 3240POPC   C3B42009  13.592  22.646   7.046
 3240POPC   C4B42010  13.862  22.589   7.375
 3241POPC   NC342011  17.938  19.202   5.091
 3241POPC   PO442012  17.429  18.779   5.341
 3241POPC   GL142013  17.713  18.728   5.707
 3241POPC   GL242014  17.584  18.968   5.941
 3241POPC   C1A42015  17.796  18.590   6.167
 3241POPC   D2A42016  17.755  18.866   6.551
 3241POPC   C3A42017  17.648  18.779   6.969
 3241POPC   C4A42018  17.251  18.844   7.138
 3241POPC   C1B42019  17.420  19.272   6.219
 3241POPC   C2B42020  17.320  19.158   6.631
 3241POPC   C3B42021  17.517  19.279   6.973
 3241POPC   C4B42022  17.797  19.267   7.294
 3242POPC   NC342023  23.059  41.187   5.381
 3242POPC   PO442024  22.924  40.615   5.407
 3242POPC   GL142025  22.781  40.833   5.793
 3242POPC   GL242026  22.751  41.167   5.829
 3242POPC   C1A42027  23.057  40.852   6.151
 3242POPC   D2A42028  23.346  40.672   6.455
 3242POPC   C3A42029  23.135  40.653   6.841
 3242POPC   C4A42030  23.233  40.759   7.274
 3242POPC   C1B42031  22.640  41.134   6.275
 3242POPC   C2B42032  22.697  40.859   6.633
 3242POPC   C3B42033  22.796  40.960   7.085
 3242POPC   C4B42034  22.808  41.015   7.559
 3243POPC   NC342035  40.440  40.534   5.315
 3243POPC   PO442036  40.695  41.164   5.446
 3243POPC   GL142037  40.655  40.856   5.748
 3243POPC   GL242038  40.914  40.579   5.736
 3243POPC   C1A42039  40.864  40.911   6.162
 3243POPC   D2A42040  41.108  40.762   6.486
 3243POPC   C3A42041  40.921  40.979   6.797
 3243POPC   C4A42042  40.984  40.923   7.214
 3243POPC   C1B42043  40.595  40.484   6.077
 3243POPC   C2B42044  40.620  40.595   6.504
 3243POPC   C3B42045  40.593  40.610   6.942
 3243POPC   C4B42046  40.256  40.541   7.211
 3244POPC   NC342047  36.714  10.219   5.299
 3244POPC   PO442048  36.860  10.850   5.361
 3244POPC   GL142049  36.647  10.580   5.710
 3244POPC   GL242050  36.901  10.352   5.764
 3244POPC   C1A42051  36.581  10.311   6.145
 3244POPC   D2A42052  36.760  10.345   6.570
 3244POPC   C3A42053  36.574  10.476   6.942
 3244POPC   C4A42054  36.730  10.569   7.355
 3244POPC   C1B42055  37.094  10.274   6.184
 3244POPC   C2B42056  37.304  10.231   6.602
 3244POPC   C3B42057  37.128  10.372   7.010
 3244POPC   C4B42058  37.127  10.280   7.471
 3245POPC   NC342059  30.356  16.488   5.208
 3245POPC   PO442060  30.618  17.105   5.346
 3245POPC   GL142061  30.533  16.756   5.637
 3245POPC   GL242062  30.877  16.734   5.736
 3245POPC   C1A42063  30.449  16.732   6.099
 3245POPC   D2A42064  30.638  16.779   6.529
 3245POPC   C3A42065  30.450  16.638   6.906
 3245POPC   C4A42066  30.505  16.739   7.304
 3245POPC   C1B42067  31.012  16.641   6.164
 3245POPC   C2B42068  31.094  16.534   6.603
 3245POPC   C3B42069  30.971  16.728   6.982
 3245POPC   C4B42070  30.967  16.586   7.412
 3246POPC   NC342071  25.184  19.510   5.609
 3246POPC   PO442072  25.514  18.924   5.357
 3246POPC   GL142073  25.454  18.999   5.785
 3246POPC   GL242074  25.636  19.324   5.785
 3246POPC   C1A42075  25.168  18.910   6.168
 3246POPC   D2A42076  25.021  18.857   6.622
 3246POPC   C3A42077  25.051  19.210   6.912
 3246POPC   C4A42078  25.240  19.220   7.306
 3246POPC   C1B42079  25.492  19.303   6.210
 3246POPC   C2B42080  25.628  19.325   6.612
 3246POPC   C3B42081  25.390  19.572   6.848
 3246POPC   C4B42082  25.449  19.674   7.235
 3247POPC   NC342083  13.943  38.865   5.428
 3247POPC   PO442084  13.492  38.451   5.246
 3247POPC   GL142085  13.523  38.220   5.710
 3247POPC   GL242086  13.831  38.136   5.920
 3247POPC   C1A42087  13.407  38.134   6.182
 3247POPC   D2A42088  13.536  38.429   6.523
 3247POPC   C3A42089  13.457  38.452   6.959
 3247POPC   C4A42090  13.443  38.827   7.216
 3247POPC   C1B42091  13.781  38.549   6.086
 3247POPC   C2B42092  13.973  38.724   6.448
 3247POPC   C3B42093  13.975  38.604   6.903
 3247POPC   C4B42094  14.162  38.576   7.322
 3248POPC   NC342095  14.157  34.588   5.424
 3248POPC   PO442096  14.620  34.258   5.235
 3248POPC   GL142097  14.533  34.362   5.704
 3248POPC   GL242098  14.509  34.740   5.766
 3248POPC   C1A42099  14.346  34.386   6.149
 3248POPC   D2A42100  14.466  34.429   6.615
 3248POPC   C3A42101  14.181  34.464   7.001
 3248POPC   C4A42102  14.173  34.420   7.485
 3248POPC   C1B42103  14.468  34.879   6.189
 3248POPC   C2B42104  14.330  34.927   6.602
 3248POPC   C3B42105  14.527  34.935   6.993
 3248POPC   C4B42106  14.195  34.916   7.230
 3249POPC   NC342107  10.293  27.054   5.386
 3249POPC   PO442108  10.030  26.490   5.486
 3249POPC   GL142109  10.333  26.685   5.850
 3249POPC   GL242110  10.495  27.020   5.848
 3249POPC   C1A42111  10.504  26.765   6.306
 3249POPC   D2A42112  10.714  26.912   6.727
 3249POPC   C3A42113  10.546  26.667   7.023
 3249POPC   C4A42114  10.094  26.654   7.071
 3249POPC   C1B42115  10.296  27.248   6.161
 3249POPC   C2B42116  10.340  27.276   6.612
 3249POPC   C3B42117  10.317  27.160   7.053
 3249POPC   C4B42118  10.698  27.061   7.268
 3250POPC   NC342119  15.856  16.096   5.386
 3250POPC   PO442120  15.825  15.416   5.540
 3250POPC   GL142121  15.748  15.768   5.876
 3250POPC   GL242122  15.699  16.189   5.857
 3250POPC   C1A42123  15.857  15.723   6.341
 3250POPC   D2A42124  16.120  15.992   6.646
 3250POPC   C3A42125  16.115  15.948   7.092
 3250POPC   C4A42126  15.896  15.626   7.276
 3250POPC   C1B42127  15.799  16.231   6.293
 3250POPC   C2B42128  15.612  16.055   6.665
 3250POPC   C3B42129  15.659  16.202   7.045
 3250POPC   C4B42130  15.900  16.316   7.416
 3251POPC   NC342131  44.135  11.861   5.387
 3251POPC   PO442132  43.508  11.754   5.346
 3251POPC   GL142133  43.764  12.000   5.693
 3251POPC   GL242134  43.820  12.314   5.933
 3251POPC   C1A42135  43.916  11.851   6.114
 3251POPC   D2A42136  43.814  11.988   6.534
 3251POPC   C3A42137  43.961  11.885   6.953
 3251POPC   C4A42138  43.628  11.896   7.206
 3251POPC   C1B42139  44.121  12.335   6.291
 3251POPC   C2B42140  44.226  12.248   6.732
 3251POPC   C3B42141  44.076  12.349   7.152
 3251POPC   C4B42142  44.122  12.461   7.617
 3252POPC   NC342143  42.259  13.381   5.451
 3252POPC   PO442144  42.229  12.648   5.400
 3252POPC   GL142145  42.387  12.844   5.784
 3252POPC   GL242146  42.680  13.069   5.772
 3252POPC   C1A42147  42.254  13.063   6.164
 3252POPC   D2A42148  42.052  12.932   6.545
 3252POPC   C3A42149  42.176  13.004   6.936
 3252POPC   C4A42150  41.950  13.225   7.296
 3252POPC   C1B42151  42.721  12.867   6.196
 3252POPC   C2B42152  42.596  12.796   6.627
 3252POPC   C3B42153  42.662  13.038   7.011
 3252POPC   C4B42154  42.423  13.005   7.376
 3253POPC   NC342155  29.505  39.251   5.337
 3253POPC   PO442156  28.846  39.385   5.406
 3253POPC   GL142157  29.153  39.208   5.727
 3253POPC   GL242158  29.465  39.404   5.823
 3253POPC   C1A42159  29.137  39.157   6.177
 3253POPC   D2A42160  29.165  38.893   6.539
 3253POPC   C3A42161  29.001  39.033   6.933
 3253POPC   C4A42162  29.287  39.007   7.270
 3253POPC   C1B42163  29.363  39.619   6.210
 3253POPC   C2B42164  29.222  39.469   6.598
 3253POPC   C3B42165  29.472  39.331   6.911
 3253POPC   C4B42166  29.562  39.443   7.336
 3254POPC   NC342167  27.254  36.997   5.420
 3254POPC   PO442168  27.916  36.804   5.397
 3254POPC   GL142169  27.670  36.820   5.775
 3254POPC   GL242170  27.366  36.582   5.781
 3254POPC   C1A42171  27.705  37.067   6.191
 3254POPC   D2A42172  27.939  37.211   6.583
 3254POPC   C3A42173  27.825  36.982   6.992
 3254POPC   C4A42174  27.415  37.074   7.153
 3254POPC   C1B42175  27.537  36.570   6.209
 3254POPC   C2B42176  27.649  36.678   6.625
 3254POPC   C3B42177  27.574  36.536   7.054
 3254POPC   C4B42178  27.392  36.676   7.444
 3255POPC   NC342179  10.741  36.447   5.344
 3255POPC   PO442180  10.777  35.754   5.604
 3255POPC   GL142181  10.618  35.766   6.026
 3255POPC   GL242182  10.295  35.954   6.075
 3255POPC   C1A42183  10.671  35.989   6.414
 3255POPC   D2A42184  10.651  36.397   6.602
 3255POPC   C3A42185  10.549  36.269   6.991
 3255POPC   C4A42186  10.556  35.823   6.972
 3255POPC   C1B42187  10.214  36.349   6.289
 3255POPC   C2B42188   9.926  36.403   6.631
 3255POPC   C3B42189  10.035  36.391   7.083
 3255POPC   C4B42190  10.219  36.043   7.321
 3256POPC   NC342191   4.519   7.877   5.284
 3256POPC   PO442192   4.207   8.438   5.443
 3256POPC   GL142193   4.365   8.319   5.828
 3256POPC   GL242194   4.636   8.086   5.755
 3256POPC   C1A42195   4.186   8.292   6.261
 3256POPC   D2A42196   4.348   8.388   6.651
 3256POPC   C3A42197   4.344   8.215   7.062
 3256POPC   C4A42198   4.081   8.244   7.421
 3256POPC   C1B42199   4.487   7.894   6.141
 3256POPC   C2B42200   4.511   7.897   6.592
 3256POPC   C3B42201   4.717   7.869   6.986
 3256POPC   C4B42202   4.403   7.725   7.239
 3257POPC   NC342203  25.531   8.289   5.574
 3257POPC   PO442204  26.081   8.688   5.383
 3257POPC   GL142205  26.044   8.338   5.756
 3257POPC   GL242206  25.771   8.154   5.972
 3257POPC   C1A42207  26.236   8.150   6.150
 3257POPC   D2A42208  26.043   8.254   6.554
 3257POPC   C3A42209  26.112   8.090   6.973
 3257POPC   C4A42210  26.211   8.367   7.301
 3257POPC   C1B42211  25.580   8.094   6.359
 3257POPC   C2B42212  25.724   7.878   6.720
 3257POPC   C3B42213  25.666   7.856   7.168
 3257POPC   C4B42214  25.980   7.933   7.466
 3258POPC   NC342215  26.947  30.354   5.506
 3258POPC   PO442216  26.974  30.990   5.405
 3258POPC   GL142217  26.919  30.777   5.796
 3258POPC   GL242218  26.612  30.597   5.908
 3258POPC   C1A42219  27.032  30.652   6.206
 3258POPC   D2A42220  26.722  30.462   6.474
 3258POPC   C3A42221  26.736  30.583   6.901
 3258POPC   C4A42222  26.730  30.313   7.268
 3258POPC   C1B42223  26.596  30.935   6.211
 3258POPC   C2B42224  26.508  31.048   6.620
 3258POPC   C3B42225  26.361  30.900   7.024
 3258POPC   C4B42226  26.604  30.788   7.369
 3259POPC   NC342227  13.444  44.182   5.417
 3259POPC   PO442228  14.069  43.811   5.490
 3259POPC   GL142229  13.822  44.105   5.744
 3259POPC   GL242230  13.585  43.850   5.777
 3259POPC   C1A42231  13.638  44.195   6.163
 3259POPC   D2A42232  13.746  44.028   6.591
 3259POPC   C3A42233  13.593  44.141   7.016
 3259POPC   C4A42234  13.630  44.060   7.493
 3259POPC   C1B42235  13.773  43.673   6.164
 3259POPC   C2B42236  13.573  43.563   6.554
 3259POPC   C3B42237  13.706  43.623   6.983
 3259POPC   C4B42238  13.483  43.584   7.369
 3260POPC   NC342239   3.347  36.102   5.378
 3260POPC   PO442240   4.019  36.087   5.669
 3260POPC   GL142241   3.655  36.086   5.905
 3260POPC   GL242242   3.300  36.104   5.878
 3260POPC   C1A42243   3.528  35.942   6.312
 3260POPC   D2A42244   3.226  36.010   6.583
 3260POPC   C3A42245   3.251  35.777   6.947
 3260POPC   C4A42246   3.579  35.786   7.253
 3260POPC   C1B42247   3.346  36.423   6.219
 3260POPC   C2B42248   3.377  36.512   6.650
 3260POPC   C3B42249   3.452  36.250   6.989
 3260POPC   C4B42250   3.394  36.344   7.408
 3261POPC   NC342251  40.828  33.411   5.563
 3261POPC   PO442252  40.527  34.048   5.472
 3261POPC   GL142253  40.692  33.930   5.877
 3261POPC   GL242254  40.406  33.792   6.033
 3261POPC   C1A42255  40.954  33.652   6.172
 3261POPC   D2A42256  41.190  33.458   6.516
 3261POPC   C3A42257  41.139  33.602   6.936
 3261POPC   C4A42258  40.901  33.462   7.292
 3261POPC   C1B42259  40.500  33.675   6.454
 3261POPC   C2B42260  40.503  33.668   6.925
 3261POPC   C3B42261  40.792  33.937   7.142
 3261POPC   C4B42262  41.185  34.158   7.029
 3262POPC   NC342263  27.816  30.009   5.314
 3262POPC   PO442264  27.161  30.028   5.283
 3262POPC   GL142265  27.432  30.018   5.670
 3262POPC   GL242266  27.755  30.110   5.821
 3262POPC   C1A42267  27.432  29.849   6.116
 3262POPC   D2A42268  27.548  30.019   6.528
 3262POPC   C3A42269  27.450  29.858   6.927
 3262POPC   C4A42270  27.680  29.874   7.294
 3262POPC   C1B42271  27.967  30.322   6.169
 3262POPC   C2B42272  27.893  30.412   6.573
 3262POPC   C3B42273  27.952  30.059   6.858
 3262POPC   C4B42274  28.141  30.077   7.227
 3263POPC   NC342275  31.756  18.802   5.583
 3263POPC   PO442276  32.275  19.019   5.238
 3263POPC   GL142277  32.178  19.135   5.720
 3263POPC   GL242278  32.148  19.497   5.830
 3263POPC   C1A42279  32.370  19.071   6.183
 3263POPC   D2A42280  32.592  19.007   6.613
 3263POPC   C3A42281  32.421  18.882   7.005
 3263POPC   C4A42282  32.584  18.588   7.314
 3263POPC   C1B42283  32.130  19.530   6.286
 3263POPC   C2B42284  32.447  19.553   6.606
 3263POPC   C3B42285  32.499  19.402   7.032
 3263POPC   C4B42286  32.399  19.313   7.469
 3264POPC   NC342287  41.829  40.912   5.340
 3264POPC   PO442288  42.469  40.979   5.388
 3264POPC   GL142289  42.169  40.879   5.762
 3264POPC   GL242290  41.938  40.546   5.700
 3264POPC   C1A42291  42.326  40.910   6.212
 3264POPC   D2A42292  42.733  40.879   6.377
 3264POPC   C3A42293  42.775  40.779   6.785
 3264POPC   C4A42294  42.593  40.827   7.176
 3264POPC   C1B42295  42.189  40.428   6.056
 3264POPC   C2B42296  42.090  40.488   6.487
 3264POPC   C3B42297  42.223  40.755   6.825
 3264POPC   C4B42298  42.120  40.560   7.218
 3265POPC   NC342299  42.887  25.783   5.410
 3265POPC   PO442300  43.279  26.359   5.294
 3265POPC   GL142301  43.224  26.062   5.655
 3265POPC   GL242302  42.895  26.158   5.736
 3265POPC   C1A42303  43.312  25.991   6.123
 3265POPC   D2A42304  43.147  25.895   6.587
 3265POPC   C3A42305  43.270  26.079   7.035
 3265POPC   C4A42306  43.306  26.144   7.517
 3265POPC   C1B42307  42.791  25.925   6.114
 3265POPC   C2B42308  42.639  26.047   6.512
 3265POPC   C3B42309  42.757  25.986   6.949
 3265POPC   C4B42310  42.616  25.655   7.226
 3266POPC   NC342311   1.336  42.032   5.418
 3266POPC   PO442312   1.002  42.689   5.343
 3266POPC   GL142313   0.970  42.479   5.756
 3266POPC   GL242314   1.274  42.292   5.845
 3266POPC   C1A42315   1.073  42.593   6.208
 3266POPC   D2A42316   1.335  42.629   6.603
 3266POPC   C3A42317   1.204  42.493   7.024
 3266POPC   C4A42318   1.017  42.117   7.148
 3266POPC   C1B42319   1.423  42.169   6.251
 3266POPC   C2B42320   1.318  42.064   6.682
 3266POPC   C3B42321   1.561  42.108   7.048
 3266POPC   C4B42322   1.419  42.221   7.446
 3267POPC   NC342323  21.908  15.071   5.209
 3267POPC   PO442324  22.401  15.049   5.735
 3267POPC   GL142325  22.003  15.254   5.827
 3267POPC   GL242326  21.917  15.027   6.093
 3267POPC   C1A42327  21.771  15.500   6.159
 3267POPC   D2A42328  21.899  15.641   6.556
 3267POPC   C3A42329  21.758  15.584   6.960
 3267POPC   C4A42330  21.959  15.387   7.298
 3267POPC   C1B42331  22.189  15.174   6.443
 3267POPC   C2B42332  22.177  14.997   6.881
 3267POPC   C3B42333  21.990  14.878   7.301
 3267POPC   C4B42334  21.991  14.700   7.725
 3268POPC   NC342335  28.243  30.189   5.614
 3268POPC   PO442336  28.633  29.694   5.589
 3268POPC   GL142337  28.537  29.897   5.887
 3268POPC   GL242338  28.176  29.797   5.927
 3268POPC   C1A42339  28.622  30.167   6.212
 3268POPC   D2A42340  28.356  30.182   6.561
 3268POPC   C3A42341  28.569  30.174   6.954
 3268POPC   C4A42342  28.580  29.830   7.247
 3268POPC   C1B42343  28.410  29.647   6.303
 3268POPC   C2B42344  28.460  29.694   6.740
 3268POPC   C3B42345  28.171  29.598   7.017
 3268POPC   C4B42346  28.071  29.581   7.432
 3269POPC   NC342347  28.442  42.663   5.552
 3269POPC   PO442348  28.409  43.355   5.490
 3269POPC   GL142349  28.408  43.205   5.897
 3269POPC   GL242350  28.179  42.909   5.924
 3269POPC   C1A42351  28.246  43.291   6.307
 3269POPC   D2A42352  28.230  43.599   6.662
 3269POPC   C3A42353  28.476  43.434   6.990
 3269POPC   C4A42354  28.459  43.349   7.459
 3269POPC   C1B42355  28.485  42.830   6.266
 3269POPC   C2B42356  28.429  42.959   6.707
 3269POPC   C3B42357  28.383  42.949   7.143
 3269POPC   C4B42358  28.652  42.874   7.525
 3270POPC   NC342359  40.915  41.590   5.322
 3270POPC   PO442360  40.286  41.758   5.248
 3270POPC   GL142361  40.582  41.659   5.688
 3270POPC   GL242362  40.560  41.346   5.899
 3270POPC   C1A42363  41.001  41.598   5.985
 3270POPC   D2A42364  40.985  41.364   6.401
 3270POPC   C3A42365  41.017  41.480   6.857
 3270POPC   C4A42366  40.698  41.331   7.126
 3270POPC   C1B42367  40.566  41.657   6.230
 3270POPC   C2B42368  40.576  41.606   6.657
 3270POPC   C3B42369  40.453  41.772   7.055
 3270POPC   C4B42370  40.480  41.608   7.488
 3271POPC   NC342371  31.774   8.428   5.449
 3271POPC   PO442372  32.168   7.941   5.299
 3271POPC   GL142373  32.250   8.276   5.628
 3271POPC   GL242374  32.593   8.211   5.730
 3271POPC   C1A42375  32.152   8.354   6.081
 3271POPC   D2A42376  32.200   8.157   6.481
 3271POPC   C3A42377  32.042   8.334   6.873
 3271POPC   C4A42378  31.995   8.076   7.211
 3271POPC   C1B42379  32.676   8.290   6.160
 3271POPC   C2B42380  32.722   8.117   6.556
 3271POPC   C3B42381  32.492   8.095   6.911
 3271POPC   C4B42382  32.557   8.286   7.274
 3272POPC   NC342383  19.465  27.622   5.485
 3272POPC   PO442384  18.760  27.328   5.470
 3272POPC   GL142385  19.099  27.408   5.799
 3272POPC   GL242386  19.195  27.790   5.872
 3272POPC   C1A42387  19.133  27.390   6.251
 3272POPC   D2A42388  19.125  27.537   6.666
 3272POPC   C3A42389  18.816  27.482   6.952
 3272POPC   C4A42390  18.710  27.189   7.193
 3272POPC   C1B42391  19.110  27.896   6.282
 3272POPC   C2B42392  18.824  28.029   6.574
 3272POPC   C3B42393  18.931  27.970   6.982
 3272POPC   C4B42394  19.274  27.752   7.098
 3273POPC   NC342395   2.093  13.808   5.378
 3273POPC   PO442396   2.167  13.206   5.721
 3273POPC   GL142397   1.933  13.532   5.909
 3273POPC   GL242398   1.769  13.844   5.772
 3273POPC   C1A42399   1.844  13.432   6.336
 3273POPC   D2A42400   1.674  13.532   6.747
 3273POPC   C3A42401   1.985  13.556   7.105
 3273POPC   C4A42402   2.260  13.473   7.492
 3273POPC   C1B42403   1.852  13.991   6.196
 3273POPC   C2B42404   1.722  14.069   6.648
 3273POPC   C3B42405   1.741  14.008   7.110
 3273POPC   C4B42406   1.978  13.921   7.481
 3274POPC   NC342407  38.685  27.864   5.493
 3274POPC   PO442408  38.268  27.335   5.372
 3274POPC   GL142409  38.509  27.382   5.793
 3274POPC   GL242410  38.548  27.711   5.966
 3274POPC   C1A42411  38.354  27.355   6.252
 3274POPC   D2A42412  38.450  27.659   6.578
 3274POPC   C3A42413  38.505  27.463   6.988
 3274POPC   C4A42414  38.507  27.099   7.225
 3274POPC   C1B42415  38.691  28.116   6.142
 3274POPC   C2B42416  38.629  28.201   6.588
 3274POPC   C3B42417  38.774  27.888   6.903
 3274POPC   C4B42418  38.746  27.888   7.404
 3275POPC   NC342419  23.817  15.120   5.520
 3275POPC   PO442420  24.506  15.213   5.365
 3275POPC   GL142421  24.559  15.189   5.790
 3275POPC   GL242422  24.599  14.843   5.736
 3275POPC   C1A42423  24.399  15.302   6.230
 3275POPC   D2A42424  24.196  15.185   6.641
 3275POPC   C3A42425  24.384  15.366   7.050
 3275POPC   C4A42426  24.260  15.461   7.467
 3275POPC   C1B42427  24.525  14.793   6.145
 3275POPC   C2B42428  24.685  14.907   6.525
 3275POPC   C3B42429  24.506  14.897   6.917
 3275POPC   C4B42430  24.671  15.017   7.326
 3276POPC   NC342431  32.104  19.530   5.330
 3276POPC   PO442432  32.547  20.169   5.345
 3276POPC   GL142433  32.467  19.946   5.710
 3276POPC   GL242434  32.137  20.020   5.801
 3276POPC   C1A42435  32.483  19.934   6.182
 3276POPC   D2A42436  32.436  20.161   6.585
 3276POPC   C3A42437  32.383  19.918   6.970
 3276POPC   C4A42438  32.553  19.819   7.381
 3276POPC   C1B42439  32.022  20.146   6.227
 3276POPC   C2B42440  31.977  19.925   6.610
 3276POPC   C3B42441  31.993  19.579   6.890
 3276POPC   C4B42442  32.083  19.670   7.309
 3277POPC   NC342443   7.827  31.678   5.105
 3277POPC   PO442444   7.610  31.185   5.539
 3277POPC   GL142445   7.424  31.276   5.901
 3277POPC   GL242446   7.492  31.606   5.911
 3277POPC   C1A42447   7.579  31.329   6.318
 3277POPC   D2A42448   7.527  31.163   6.686
 3277POPC   C3A42449   7.657  31.452   6.985
 3277POPC   C4A42450   7.339  31.572   7.276
 3277POPC   C1B42451   7.702  31.816   6.240
 3277POPC   C2B42452   7.862  31.853   6.688
 3277POPC   C3B42453   7.630  31.962   7.070
 3277POPC   C4B42454   7.621  31.933   7.528
 3278POPC   NC342455   4.654  36.652   5.348
 3278POPC   PO442456   4.081  36.989   5.536
 3278POPC   GL142457   4.251  37.040   5.902
 3278POPC   GL242458   4.588  36.993   5.813
 3278POPC   C1A42459   4.174  36.883   6.311
 3278POPC   D2A42460   4.383  36.869   6.706
 3278POPC   C3A42461   4.106  36.932   7.069
 3278POPC   C4A42462   4.069  36.666   7.445
 3278POPC   C1B42463   4.671  37.080   6.266
 3278POPC   C2B42464   4.807  37.270   6.676
 3278POPC   C3B42465   4.555  37.223   7.058
 3278POPC   C4B42466   4.535  36.824   7.282
 3279POPC   NC342467  12.230  38.721   5.485
 3279POPC   PO442468  11.770  38.226   5.639
 3279POPC   GL142469  12.159  38.336   5.823
 3279POPC   GL242470  12.044  38.679   5.956
 3279POPC   C1A42471  12.285  38.310   6.237
 3279POPC   D2A42472  12.089  38.576   6.535
 3279POPC   C3A42473  12.182  38.456   6.922
 3279POPC   C4A42474  11.944  38.314   7.264
 3279POPC   C1B42475  12.429  38.802   6.187
 3279POPC   C2B42476  12.577  38.802   6.621
 3279POPC   C3B42477  12.315  38.978   6.933
 3279POPC   C4B42478  12.008  38.818   7.216
 3280POPC   NC342479  38.148  13.896   5.504
 3280POPC   PO442480  37.927  13.375   5.259
 3280POPC   GL142481  37.932  13.488   5.747
 3280POPC   GL242482  37.814  13.839   5.884
 3280POPC   C1A42483  37.789  13.452   6.207
 3280POPC   D2A42484  37.848  13.643   6.640
 3280POPC   C3A42485  37.643  13.461   7.021
 3280POPC   C4A42486  37.545  13.516   7.461
 3280POPC   C1B42487  37.540  13.902   6.263
 3280POPC   C2B42488  37.518  14.069   6.667
 3280POPC   C3B42489  37.776  13.999   7.009
 3280POPC   C4B42490  37.723  13.986   7.432
 3281POPC   NC342491  30.573  20.870   5.480
 3281POPC   PO442492  30.809  20.224   5.382
 3281POPC   GL142493  30.756  20.452   5.810
 3281POPC   GL242494  30.959  20.771   5.852
 3281POPC   C1A42495  30.643  20.306   6.253
 3281POPC   D2A42496  30.742  20.428   6.673
 3281POPC   C3A42497  30.471  20.493   6.992
 3281POPC   C4A42498  30.535  20.383   7.379
 3281POPC   C1B42499  30.876  20.765   6.303
 3281POPC   C2B42500  30.951  20.900   6.710
 3281POPC   C3B42501  30.814  20.863   7.123
 3281POPC   C4B42502  31.015  21.055   7.478
 3282POPC   NC342503   1.586  20.722   5.051
 3282POPC   PO442504   1.576  20.324   5.602
 3282POPC   GL142505   1.799  20.473   5.933
 3282POPC   GL242506   2.017  20.742   5.927
 3282POPC   C1A42507   1.846  20.541   6.352
 3282POPC   D2A42508   2.125  20.554   6.681
 3282POPC   C3A42509   1.886  20.523   7.006
 3282POPC   C4A42510   1.789  20.345   7.339
 3282POPC   C1B42511   2.348  20.664   6.240
 3282POPC   C2B42512   2.474  20.933   6.620
 3282POPC   C3B42513   2.252  20.900   7.049
 3282POPC   C4B42514   2.296  20.532   7.366
 3283POPC   NC342515  39.466  32.515   5.428
 3283POPC   PO442516  38.981  32.981   5.502
 3283POPC   GL142517  39.085  32.965   5.865
 3283POPC   GL242518  39.430  32.928   5.833
 3283POPC   C1A42519  39.017  33.158   6.237
 3283POPC   D2A42520  39.197  33.135   6.650
 3283POPC   C3A42521  38.986  33.124   7.038
 3283POPC   C4A42522  39.038  33.162   7.451
 3283POPC   C1B42523  39.512  33.234   6.241
 3283POPC   C2B42524  39.706  33.166   6.677
 3283POPC   C3B42525  39.500  33.197   7.108
 3283POPC   C4B42526  39.529  33.377   7.562
 3284POPC   NC342527  44.810  22.922   5.473
 3284POPC   PO442528  44.145  23.002   5.477
 3284POPC   GL142529  44.407  22.833   5.790
 3284POPC   GL242530  44.557  23.161   5.869
 3284POPC   C1A42531  44.684  22.693   6.116
 3284POPC   D2A42532  44.822  22.822   6.520
 3284POPC   C3A42533  44.609  22.753   6.898
 3284POPC   C4A42534  44.605  22.983   7.286
 3284POPC   C1B42535  44.874  23.235   6.175
 3284POPC   C2B42536  44.941  23.380   6.572
 3284POPC   C3B42537  44.724  23.355   6.937
 3284POPC   C4B42538  44.974  23.389   7.284
 3285POPC   NC342539   8.506  32.581   5.451
 3285POPC   PO442540   8.130  31.941   5.379
 3285POPC   GL142541   7.974  32.082   5.830
 3285POPC   GL242542   8.130  32.437   5.860
 3285POPC   C1A42543   8.005  32.199   6.308
 3285POPC   D2A42544   8.304  32.365   6.577
 3285POPC   C3A42545   8.369  32.138   6.956
 3285POPC   C4A42546   8.471  32.326   7.320
 3285POPC   C1B42547   7.928  32.678   6.195
 3285POPC   C2B42548   7.771  32.600   6.611
 3285POPC   C3B42549   7.919  32.387   6.985
 3285POPC   C4B42550   7.996  32.563   7.412
 3286POPC   NC342551  17.603  40.221   5.450
 3286POPC   PO442552  17.130  39.835   5.350
 3286POPC   GL142553  17.330  39.984   5.794
 3286POPC   GL242554  17.704  39.921   5.864
 3286POPC   C1A42555  17.455  40.077   6.262
 3286POPC   D2A42556  17.576  40.054   6.688
 3286POPC   C3A42557  17.253  40.105   7.008
 3286POPC   C4A42558  17.294  40.045   7.438
 3286POPC   C1B42559  17.763  39.637   6.277
 3286POPC   C2B42560  17.814  39.599   6.761
 3286POPC   C3B42561  17.679  39.845   7.145
 3286POPC   C4B42562  17.684  39.794   7.635
 3287POPC   NC342563  14.131   6.513   5.116
 3287POPC   PO442564  14.525   7.000   5.374
 3287POPC   GL142565  14.345   6.852   5.785
 3287POPC   GL242566  14.238   6.501   5.801
 3287POPC   C1A42567  14.487   6.751   6.204
 3287POPC   D2A42568  14.456   6.554   6.595
 3287POPC   C3A42569  14.296   6.752   6.959
 3287POPC   C4A42570  14.412   6.731   7.373
 3287POPC   C1B42571  14.015   6.541   6.219
 3287POPC   C2B42572  13.954   6.476   6.679
 3287POPC   C3B42573  13.710   6.567   7.035
 3287POPC   C4B42574  13.922   6.799   7.335
 3288POPC   NC342575  38.886  34.597   5.452
 3288POPC   PO442576  39.608  34.435   5.404
 3288POPC   GL142577  39.298  34.584   5.758
 3288POPC   GL242578  39.061  34.324   5.894
 3288POPC   C1A42579  39.050  34.755   6.141
 3288POPC   D2A42580  38.969  34.634   6.580
 3288POPC   C3A42581  39.068  34.876   6.933
 3288POPC   C4A42582  39.222  34.862   7.361
 3288POPC   C1B42583  38.764  34.169   6.214
 3288POPC   C2B42584  38.630  34.272   6.656
 3288POPC   C3B42585  38.899  34.141   6.952
 3288POPC   C4B42586  38.943  34.470   7.236
 3289POPC   NC342587  13.518   8.797   5.008
 3289POPC   PO442588  13.892   9.029   5.573
 3289POPC   GL142589  13.769   8.843   5.917
 3289POPC   GL242590  13.835   8.490   5.836
 3289POPC   C1A42591  13.411   8.960   6.158
 3289POPC   D2A42592  13.288   9.153   6.533
 3289POPC   C3A42593  13.261   8.939   6.924
 3289POPC   C4A42594  13.519   9.065   7.258
 3289POPC   C1B42595  13.615   8.478   6.231
 3289POPC   C2B42596  13.654   8.777   6.573
 3289POPC   C3B42597  13.702   8.688   6.985
 3289POPC   C4B42598  14.023   8.543   7.196
 3290POPC   NC342599  34.635  30.855   5.402
 3290POPC   PO442600  34.593  30.231   5.349
 3290POPC   GL142601  34.620  30.463   5.796
 3290POPC   GL242602  34.745  30.814   5.911
 3290POPC   C1A42603  34.468  30.541   6.239
 3290POPC   D2A42604  34.185  30.469   6.612
 3290POPC   C3A42605  34.245  30.638   7.008
 3290POPC   C4A42606  34.597  30.515   7.244
 3290POPC   C1B42607  34.729  30.966   6.350
 3290POPC   C2B42608  34.643  30.793   6.749
 3290POPC   C3B42609  34.566  31.018   7.179
 3290POPC   C4B42610  34.577  31.097   7.650
 3291POPC   NC342611   4.258  25.166   5.159
 3291POPC   PO442612   3.913  25.677   5.438
 3291POPC   GL142613   4.105  25.448   5.748
 3291POPC   GL242614   4.155  25.090   5.674
 3291POPC   C1A42615   4.279  25.582   6.140
 3291POPC   D2A42616   4.499  25.540   6.527
 3291POPC   C3A42617   4.237  25.463   6.897
 3291POPC   C4A42618   4.260  25.290   7.309
 3291POPC   C1B42619   4.371  25.079   6.084
 3291POPC   C2B42620   4.238  25.085   6.516
 3291POPC   C3B42621   4.402  24.990   6.923
 3291POPC   C4B42622   4.707  25.026   7.236
 3292POPC   NC342623  39.160   3.629   5.394
 3292POPC   PO442624  39.534   3.051   5.395
 3292POPC   GL142625  39.381   3.307   5.722
 3292POPC   GL242626  39.577   3.584   5.818
 3292POPC   C1A42627  39.194   3.439   6.134
 3292POPC   D2A42628  39.240   3.394   6.588
 3292POPC   C3A42629  39.174   3.619   6.983
 3292POPC   C4A42630  39.415   3.561   7.372
 3292POPC   C1B42631  39.656   3.649   6.293
 3292POPC   C2B42632  39.645   3.702   6.800
 3292POPC   C3B42633  39.560   4.002   7.167
 3292POPC   C4B42634  39.632   3.909   7.680
 3293POPC   NC342635   9.654  10.710   5.626
 3293POPC   PO442636   9.717  10.010   5.538
 3293POPC   GL142637   9.819  10.270   5.825
 3293POPC   GL242638   9.468  10.322   5.886
 3293POPC   C1A42639   9.888  10.527   6.189
 3293POPC   D2A42640   9.689  10.608   6.565
 3293POPC   C3A42641   9.936  10.416   6.866
 3293POPC   C4A42642   9.917  10.594   7.245
 3293POPC   C1B42643   9.550  10.095   6.275
 3293POPC   C2B42644   9.547  10.121   6.732
 3293POPC   C3B42645   9.463  10.467   7.053
 3293POPC   C4B42646   9.487  10.584   7.543
 3294POPC   NC342647  27.206  13.528   5.249
 3294POPC   PO442648  27.844  13.748   5.213
 3294POPC   GL142649  27.723  13.692   5.705
 3294POPC   GL242650  27.469  13.445   5.732
 3294POPC   C1A42651  27.471  13.726   6.165
 3294POPC   D2A42652  27.241  13.645   6.562
 3294POPC   C3A42653  27.439  13.790   6.926
 3294POPC   C4A42654  27.774  13.951   7.155
 3294POPC   C1B42655  27.776  13.324   6.083
 3294POPC   C2B42656  27.767  13.338   6.531
 3294POPC   C3B42657  27.808  13.437   6.978
 3294POPC   C4B42658  27.893  13.231   7.399
 3295POPC   NC342659  36.709  16.401   5.477
 3295POPC   PO442660  37.278  16.893   5.440
 3295POPC   GL142661  37.219  16.702   5.809
 3295POPC   GL242662  36.935  16.875   5.980
 3295POPC   C1A42663  37.339  16.645   6.221
 3295POPC   D2A42664  37.139  16.534   6.579
 3295POPC   C3A42665  37.019  16.798   6.900
 3295POPC   C4A42666  37.190  16.743   7.282
 3295POPC   C1B42667  36.837  16.462   6.120
 3295POPC   C2B42668  36.676  16.324   6.499
 3295POPC   C3B42669  36.581  16.524   6.863
 3295POPC   C4B42670  36.772  16.448   7.221
 3296POPC   NC342671  17.048  42.138   5.526
 3296POPC   PO442672  17.514  42.593   5.568
 3296POPC   GL142673  17.509  42.354   5.913
 3296POPC   GL242674  17.304  42.057   5.947
 3296POPC   C1A42675  17.481  42.593   6.266
 3296POPC   D2A42676  17.366  42.556   6.674
 3296POPC   C3A42677  17.683  42.367   6.894
 3296POPC   C4A42678  17.607  42.599   7.271
 3296POPC   C1B42679  17.498  42.075   6.354
 3296POPC   C2B42680  17.285  42.047   6.741
 3296POPC   C3B42681  17.246  42.243   7.143
 3296POPC   C4B42682  17.298  42.079   7.573
 3297POPC   NC342683  44.883  31.806   5.566
 3297POPC   PO442684  44.411  31.361   5.535
 3297POPC   GL142685  44.634  31.459   5.859
 3297POPC   GL242686  44.905  31.245   5.766
 3297POPC   C1A42687  44.559  31.349   6.256
 3297POPC   D2A42688  44.755  31.170   6.584
 3297POPC   C3A42689  44.573  31.274   6.948
 3297POPC   C4A42690  44.388  31.579   7.178
 3297POPC   C1B42691   0.060  31.346   6.162
 3297POPC   C2B42692   0.265  31.280   6.537
 3297POPC   C3B42693   0.085  31.390   6.927
 3297POPC   C4B42694   0.027  31.430   7.371
 3298POPC   NC342695   7.541  14.759   5.487
 3298POPC   PO442696   7.378  14.111   5.421
 3298POPC   GL142697   7.264  14.164   5.828
 3298POPC   GL242698   7.180  14.478   5.718
 3298POPC   C1A42699   7.493  14.102   6.241
 3298POPC   D2A42700   7.671  14.406   6.542
 3298POPC   C3A42701   7.554  14.414   6.974
 3298POPC   C4A42702   7.708  14.599   7.336
 3298POPC   C1B42703   7.270  14.562   6.179
 3298POPC   C2B42704   7.163  14.315   6.564
 3298POPC   C3B42705   7.047  14.315   6.987
 3298POPC   C4B42706   7.190  14.602   7.294
 3299POPC   NC342707  28.241   1.991   5.346
 3299POPC   PO442708  28.899   1.853   5.391
 3299POPC   GL142709  28.570   1.857   5.730
 3299POPC   GL242710  28.599   2.223   5.795
 3299POPC   C1A42711  28.319   1.867   6.134
 3299POPC   D2A42712  28.208   2.180   6.478
 3299POPC   C3A42713  28.013   2.069   6.895
 3299POPC   C4A42714  28.130   1.690   7.137
 3299POPC   C1B42715  28.710   2.218   6.253
 3299POPC   C2B42716  28.668   2.217   6.710
 3299POPC   C3B42717  28.517   2.076   7.103
 3299POPC   C4B42718  28.619   2.245   7.515
 3300POPC   NC342719   4.029  43.113   5.390
 3300POPC   PO442720   3.372  43.296   5.480
 3300POPC   GL142721   3.394  43.121   5.927
 3300POPC   GL242722   3.431  42.744   5.963
 3300POPC   C1A42723   3.169  42.979   6.307
 3300POPC   D2A42724   3.144  42.961   6.724
 3300POPC   C3A42725   3.476  43.117   6.893
 3300POPC   C4A42726   3.404  43.247   7.260
 3300POPC   C1B42727   3.860  42.805   6.022
 3300POPC   C2B42728   4.032  42.849   6.433
 3300POPC   C3B42729   3.909  42.797   6.870
 3300POPC   C4B42730   3.672  42.814   7.240
 3301POPC   NC342731  18.749  12.515   5.505
 3301POPC   PO442732  18.190  12.067   5.385
 3301POPC   GL142733  18.187  12.044   5.827
 3301POPC   GL242734  18.539  11.987   5.861
 3301POPC   C1A42735  18.166  12.191   6.263
 3301POPC   D2A42736  18.436  12.120   6.613
 3301POPC   C3A42737  18.216  12.089   6.984
 3301POPC   C4A42738  17.895  12.376   7.109
 3301POPC   C1B42739  18.692  12.281   6.175
 3301POPC   C2B42740  18.790  12.469   6.590
 3301POPC   C3B42741  18.683  12.332   7.040
 3301POPC   C4B42742  18.354  12.454   7.304
 3302POPC   NC342743  28.259  20.995   5.569
 3302POPC   PO442744  27.997  21.487   5.189
 3302POPC   GL142745  28.034  21.487   5.691
 3302POPC   GL242746  27.956  21.217   5.910
 3302POPC   C1A42747  28.336  21.453   6.108
 3302POPC   D2A42748  28.316  21.293   6.555
 3302POPC   C3A42749  28.062  21.449   6.908
 3302POPC   C4A42750  28.213  21.439   7.312
 3302POPC   C1B42751  28.099  20.938   6.196
 3302POPC   C2B42752  28.110  20.811   6.582
 3302POPC   C3B42753  28.000  20.923   6.967
 3302POPC   C4B42754  28.160  20.910   7.377
 3303POPC   NC342755   5.851   9.047   5.341
 3303POPC   PO442756   5.980   8.389   5.257
 3303POPC   GL142757   5.819   8.662   5.684
 3303POPC   GL242758   5.963   9.006   5.835
 3303POPC   C1A42759   5.835   8.639   6.190
 3303POPC   D2A42760   5.738   8.684   6.672
 3303POPC   C3A42761   6.043   8.723   7.053
 3303POPC   C4A42762   5.922   8.888   7.495
 3303POPC   C1B42763   5.754   9.162   6.216
 3303POPC   C2B42764   5.684   9.309   6.642
 3303POPC   C3B42765   5.782   9.181   7.072
 3303POPC   C4B42766   5.875   9.395   7.456
 3304POPC   NC342767  38.061  39.827   5.451
 3304POPC   PO442768  38.498  40.328   5.463
 3304POPC   GL142769  38.495  40.107   5.824
 3304POPC   GL242770  38.355  39.771   5.859
 3304POPC   C1A42771  38.438  40.254   6.216
 3304POPC   D2A42772  38.636  40.347   6.578
 3304POPC   C3A42773  38.351  40.480   6.851
 3304POPC   C4A42774  38.461  40.320   7.243
 3304POPC   C1B42775  38.152  39.832   6.267
 3304POPC   C2B42776  38.281  39.991   6.675
 3304POPC   C3B42777  38.211  39.922   7.092
 3304POPC   C4B42778  38.029  39.580   7.236
 3305POPC   NC342779  11.741  29.300   5.448
 3305POPC   PO442780  11.173  29.033   5.238
 3305POPC   GL142781  11.255  29.165   5.694
 3305POPC   GL242782  10.984  29.016   5.893
 3305POPC   C1A42783  11.484  29.359   6.090
 3305POPC   D2A42784  11.350  29.529   6.537
 3305POPC   C3A42785  11.580  29.463   6.934
 3305POPC   C4A42786  11.452  29.323   7.303
 3305POPC   C1B42787  11.139  29.079   6.334
 3305POPC   C2B42788  11.381  29.025   6.737
 3305POPC   C3B42789  11.235  28.877   7.159
 3305POPC   C4B42790  10.885  28.811   7.456
 3306POPC   NC342791  40.240  36.802   5.525
 3306POPC   PO442792  39.988  37.433   5.324
 3306POPC   GL142793  40.033  37.172   5.796
 3306POPC   GL242794  39.716  37.079   6.048
 3306POPC   C1A42795  40.148  36.896   6.188
 3306POPC   D2A42796  39.896  37.042   6.541
 3306POPC   C3A42797  40.021  37.011   6.957
 3306POPC   C4A42798  39.915  37.282   7.273
 3306POPC   C1B42799  39.681  36.651   6.247
 3306POPC   C2B42800  39.886  36.538   6.609
 3306POPC   C3B42801  39.739  36.484   6.991
 3306POPC   C4B42802  40.017  36.618   7.292
 3307POPC   NC342803   7.532  27.382   5.533
 3307POPC   PO442804   7.477  28.072   5.492
 3307POPC   GL142805   7.483  27.811   5.850
 3307POPC   GL242806   7.148  27.787   5.805
 3307POPC   C1A42807   7.369  27.477   6.171
 3307POPC   D2A42808   7.139  27.162   6.397
 3307POPC   C3A42809   7.166  27.287   6.860
 3307POPC   C4A42810   7.548  27.254   7.118
 3307POPC   C1B42811   7.146  27.939   6.231
 3307POPC   C2B42812   7.273  28.012   6.629
 3307POPC   C3B42813   7.390  28.100   7.028
 3307POPC   C4B42814   7.326  27.703   7.149
 3308POPC   NC342815   1.138  20.170   5.469
 3308POPC   PO442816   1.373  19.524   5.343
 3308POPC   GL142817   1.258  19.726   5.710
 3308POPC   GL242818   1.566  19.854   5.809
 3308POPC   C1A42819   1.151  19.916   6.125
 3308POPC   D2A42820   1.331  19.841   6.540
 3308POPC   C3A42821   1.163  19.845   6.951
 3308POPC   C4A42822   1.006  19.560   7.233
 3308POPC   C1B42823   1.634  20.090   6.205
 3308POPC   C2B42824   1.692  20.174   6.657
 3308POPC   C3B42825   1.651  19.960   7.047
 3308POPC   C4B42826   1.341  20.093   7.371
 3309POPC   NC342827  43.629  11.207   5.341
 3309POPC   PO442828  44.271  11.427   5.517
 3309POPC   GL142829  44.071  11.259   5.862
 3309POPC   GL242830  43.691  11.267   5.909
 3309POPC   C1A42831  44.023  11.364   6.299
 3309POPC   D2A42832  43.774  11.487   6.648
 3309POPC   C3A42833  43.982  11.390   7.016
 3309POPC   C4A42834  43.919  11.516   7.424
 3309POPC   C1B42835  43.582  11.100   6.366
 3309POPC   C2B42836  43.674  11.011   6.834
 3309POPC   C3B42837  43.665  11.115   7.295
 3309POPC   C4B42838  43.628  11.269   7.764
 3310POPC   NC342839  29.631  30.499   5.541
 3310POPC   PO442840  30.172  30.911   5.407
 3310POPC   GL142841  30.085  31.073   5.844
 3310POPC   GL242842  29.838  30.811   5.941
 3310POPC   C1A42843  30.018  31.063   6.331
 3310POPC   D2A42844  30.010  30.638   6.540
 3310POPC   C3A42845  30.270  30.585   6.906
 3310POPC   C4A42846  30.059  30.772   7.227
 3310POPC   C1B42847  29.653  30.468   6.198
 3310POPC   C2B42848  29.546  30.323   6.602
 3310POPC   C3B42849  29.784  30.398   6.957
 3310POPC   C4B42850  30.053  30.238   7.246
 3311POPC   NC342851  22.789  36.669   5.205
 3311POPC   PO442852  23.114  37.215   5.358
 3311POPC   GL142853  23.084  36.903   5.726
 3311POPC   GL242854  23.114  36.521   5.658
 3311POPC   C1A42855  22.859  36.805   6.153
 3311POPC   D2A42856  22.658  36.786   6.592
 3311POPC   C3A42857  22.784  36.763   7.038
 3311POPC   C4A42858  22.762  37.157   7.275
 3311POPC   C1B42859  23.283  36.515   6.108
 3311POPC   C2B42860  23.292  36.831   6.439
 3311POPC   C3B42861  23.247  36.831   6.852
 3311POPC   C4B42862  23.213  36.451   7.127
 3312POPC   NC342863   2.194  21.491   5.378
 3312POPC   PO442864   1.941  20.925   5.268
 3312POPC   GL142865   1.946  21.188   5.700
 3312POPC   GL242866   1.871  21.559   5.760
 3312POPC   C1A42867   1.887  21.264   6.169
 3312POPC   D2A42868   2.102  21.280   6.568
 3312POPC   C3A42869   1.850  21.363   6.922
 3312POPC   C4A42870   2.000  21.288   7.309
 3312POPC   C1B42871   1.744  21.781   6.133
 3312POPC   C2B42872   1.870  21.744   6.558
 3312POPC   C3B42873   1.717  21.868   6.977
 3312POPC   C4B42874   1.636  21.642   7.338
 3313POPC   NC342875  12.755  26.155   5.559
 3313POPC   PO442876  13.318  26.489   5.490
 3313POPC   GL142877  13.160  26.156   5.853
 3313POPC   GL242878  12.816  26.235   6.054
 3313POPC   C1A42879  13.109  25.865   6.227
 3313POPC   D2A42880  12.897  26.053   6.592
 3313POPC   C3A42881  12.975  25.916   7.008
 3313POPC   C4A42882  12.916  26.071   7.423
 3313POPC   C1B42883  12.609  25.843   6.215
 3313POPC   C2B42884  12.634  25.595   6.636
 3313POPC   C3B42885  12.574  25.582   7.073
 3313POPC   C4B42886  12.557  25.718   7.491
 3314POPC   NC342887  21.653   9.669   5.433
 3314POPC   PO442888  21.014   9.775   5.488
 3314POPC   GL142889  21.304   9.828   5.775
 3314POPC   GL242890  21.328   9.448   5.768
 3314POPC   C1A42891  21.614   9.955   6.099
 3314POPC   D2A42892  21.546   9.883   6.537
 3314POPC   C3A42893  21.574  10.054   6.949
 3314POPC   C4A42894  21.455   9.956   7.397
 3314POPC   C1B42895  21.361   9.519   6.183
 3314POPC   C2B42896  21.514   9.369   6.561
 3314POPC   C3B42897  21.493   9.534   6.986
 3314POPC   C4B42898  21.276   9.406   7.355
 3315POPC   NC342899  16.212  18.519   5.248
 3315POPC   PO442900  15.605  18.218   5.423
 3315POPC   GL142901  15.970  18.135   5.693
 3315POPC   GL242902  16.050  18.479   5.744
 3315POPC   C1A42903  15.979  18.070   6.155
 3315POPC   D2A42904  15.674  17.910   6.508
 3315POPC   C3A42905  15.711  18.107   6.932
 3315POPC   C4A42906  16.035  17.998   7.216
 3315POPC   C1B42907  15.958  18.600   6.176
 3315POPC   C2B42908  16.143  18.898   6.476
 3315POPC   C3B42909  16.270  18.785   6.888
 3315POPC   C4B42910  16.051  18.527   7.175
 3316POPC   NC342911  11.660  37.787   5.512
 3316POPC   PO442912  12.319  37.643   5.538
 3316POPC   GL142913  12.031  37.716   5.877
 3316POPC   GL242914  11.752  37.439   5.863
 3316POPC   C1A42915  12.184  37.783   6.299
 3316POPC   D2A42916  12.159  38.026   6.665
 3316POPC   C3A42917  12.328  37.936   7.078
 3316POPC   C4A42918  12.045  37.837   7.448
 3316POPC   C1B42919  11.825  37.413   6.292
 3316POPC   C2B42920  11.881  37.565   6.712
 3316POPC   C3B42921  12.083  37.485   7.085
 3316POPC   C4B42922  12.102  37.337   7.500
 3317POPC   NC342923  26.078  13.932   5.144
 3317POPC   PO442924  25.983  13.287   5.399
 3317POPC   GL142925  25.900  13.521   5.789
 3317POPC   GL242926  26.120  13.822   5.793
 3317POPC   C1A42927  26.032  13.449   6.230
 3317POPC   D2A42928  26.176  13.712   6.564
 3317POPC   C3A42929  26.044  13.659   6.962
 3317POPC   C4A42930  26.212  13.470   7.345
 3317POPC   C1B42931  26.396  13.903   6.138
 3317POPC   C2B42932  26.530  14.103   6.533
 3317POPC   C3B42933  26.410  14.028   6.975
 3317POPC   C4B42934  26.549  13.845   7.377
 3318POPC   NC342935  29.539   8.292   5.418
 3318POPC   PO442936  29.015   7.914   5.537
 3318POPC   GL142937  29.367   8.034   5.832
 3318POPC   GL242938  29.450   8.402   5.899
 3318POPC   C1A42939  29.468   8.015   6.283
 3318POPC   D2A42940  29.199   7.727   6.587
 3318POPC   C3A42941  28.838   7.945   6.864
 3318POPC   C4A42942  28.771   8.312   7.174
 3318POPC   C1B42943  29.272   8.517   6.288
 3318POPC   C2B42944  29.185   8.271   6.630
 3318POPC   C3B42945  29.246   8.359   7.011
 3318POPC   C4B42946  29.069   8.713   7.202
 3319POPC   NC342947   8.255  14.265   5.250
 3319POPC   PO442948   7.963  14.850   5.306
 3319POPC   GL142949   8.022  14.627   5.682
 3319POPC   GL242950   7.754  14.347   5.712
 3319POPC   C1A42951   8.157  14.788   6.095
 3319POPC   D2A42952   8.157  14.619   6.515
 3319POPC   C3A42953   8.202  14.790   6.940
 3319POPC   C4A42954   8.241  14.514   7.287
 3319POPC   C1B42955   7.966  14.301   6.118
 3319POPC   C2B42956   8.097  14.123   6.499
 3319POPC   C3B42957   7.998  14.166   6.916
 3319POPC   C4B42958   7.879  14.123   7.349
 3320POPC   NC342959   2.093  15.536   5.380
 3320POPC   PO442960   2.224  14.850   5.313
 3320POPC   GL142961   2.000  15.093   5.699
 3320POPC   GL242962   1.866  15.445   5.817
 3320POPC   C1A42963   1.815  15.053   6.146
 3320POPC   D2A42964   1.699  15.184   6.575
 3320POPC   C3A42965   1.917  14.971   6.927
 3320POPC   C4A42966   1.950  14.801   7.351
 3320POPC   C1B42967   1.988  15.636   6.205
 3320POPC   C2B42968   1.830  15.722   6.637
 3320POPC   C3B42969   1.806  15.568   7.075
 3320POPC   C4B42970   2.066  15.295   7.328
 3321POPC   NC342971  12.742  35.594   5.174
 3321POPC   PO442972  12.961  36.173   5.458
 3321POPC   GL142973  12.808  36.112   5.849
 3321POPC   GL242974  12.687  35.802   5.794
 3321POPC   C1A42975  12.957  36.148   6.269
 3321POPC   D2A42976  13.193  36.242   6.641
 3321POPC   C3A42977  12.974  36.124   6.989
 3321POPC   C4A42978  12.920  36.322   7.386
 3321POPC   C1B42979  12.641  35.734   6.249
 3321POPC   C2B42980  12.575  35.891   6.679
 3321POPC   C3B42981  12.522  35.703   7.096
 3321POPC   C4B42982  12.779  35.810   7.433
 3322POPC   NC342983  31.216  37.343   5.494
 3322POPC   PO442984  31.136  38.052   5.587
 3322POPC   GL142985  31.140  37.715   5.838
 3322POPC   GL242986  31.503  37.640   5.828
 3322POPC   C1A42987  31.167  37.517   6.220
 3322POPC   D2A42988  31.436  37.584   6.574
 3322POPC   C3A42989  31.443  37.345   6.942
 3322POPC   C4A42990  31.334  37.598   7.313
 3322POPC   C1B42991  31.565  37.956   6.177
 3322POPC   C2B42992  31.737  38.011   6.613
 3322POPC   C3B42993  31.662  37.818   7.008
 3322POPC   C4B42994  31.846  37.417   7.258
 3323POPC   NC342995  19.016  16.651   5.343
 3323POPC   PO442996  19.634  16.865   5.436
 3323POPC   GL142997  19.308  16.728   5.753
 3323POPC   GL242998  18.953  16.928   5.780
 3323POPC   C1A42999  19.239  16.732   6.197
 3323POPC   D2A43000  19.281  17.052   6.535
 3323POPC   C3A43001  19.359  16.827   6.913
 3323POPC   C4A43002  19.449  16.805   7.329
 3323POPC   C1B43003  18.745  16.902   6.191
 3323POPC   C2B43004  18.873  16.749   6.587
 3323POPC   C3B43005  18.870  16.903   7.000
 3323POPC   C4B43006  18.962  16.720   7.349
 3324POPC   NC343007  17.240  26.962   5.420
 3324POPC   PO443008  17.721  26.442   5.339
 3324POPC   GL143009  17.624  26.748   5.696
 3324POPC   GL243010  17.296  26.722   5.861
 3324POPC   C1A43011  17.667  26.978   6.117
 3324POPC   D2A43012  17.650  26.792   6.551
 3324POPC   C3A43013  17.895  27.000   6.882
 3324POPC   C4A43014  17.801  27.200   7.293
 3324POPC   C1B43015  17.180  26.847   6.266
 3324POPC   C2B43016  17.156  26.975   6.701
 3324POPC   C3B43017  17.409  26.883   7.055
 3324POPC   C4B43018  17.388  26.963   7.482
 3325POPC   NC343019  44.481  39.024   5.522
 3325POPC   PO443020   0.014  39.472   5.448
 3325POPC   GL143021  44.748  39.341   5.801
 3325POPC   GL243022  44.861  39.026   5.902
 3325POPC   C1A43023  44.441  39.246   6.140
 3325POPC   D2A43024  44.440  38.999   6.549
 3325POPC   C3A43025  44.466  39.244   6.942
 3325POPC   C4A43026  44.340  39.503   7.342
 3325POPC   C1B43027  44.926  39.275   6.309
 3325POPC   C2B43028  44.937  39.381   6.749
 3325POPC   C3B43029  44.914  39.153   7.148
 3325POPC   C4B43030  44.538  39.058   7.414
 3326POPC   NC343031   4.745   8.617   5.490
 3326POPC   PO443032   5.372   8.933   5.318
 3326POPC   GL143033   5.266   8.938   5.760
 3326POPC   GL243034   4.911   9.010   5.797
 3326POPC   C1A43035   5.334   8.802   6.200
 3326POPC   D2A43036   5.200   8.658   6.618
 3326POPC   C3A43037   5.351   8.945   6.966
 3326POPC   C4A43038   5.354   9.200   7.365
 3326POPC   C1B43039   4.813   8.753   6.156
 3326POPC   C2B43040   4.680   8.761   6.568
 3326POPC   C3B43041   4.852   8.887   6.949
 3326POPC   C4B43042   4.960   8.826   7.375
 3327POPC   NC343043  11.220  35.824   5.678
 3327POPC   PO443044  11.438  36.359   5.400
 3327POPC   GL143045  11.543  36.239   5.842
 3327POPC   GL243046  11.197  36.172   6.036
 3327POPC   C1A43047  11.549  36.423   6.278
 3327POPC   D2A43048  11.168  36.290   6.537
 3327POPC   C3A43049  11.237  36.221   6.944
 3327POPC   C4A43050  11.641  36.335   7.105
 3327POPC   C1B43051  11.495  35.895   6.289
 3327POPC   C2B43052  11.553  35.720   6.700
 3327POPC   C3B43053  11.525  35.825   7.110
 3327POPC   C4B43054  11.370  35.743   7.491
 3328POPC   NC343055   0.125  20.369   5.443
 3328POPC   PO443056   0.653  20.022   5.364
 3328POPC   GL143057   0.764  19.921   5.785
 3328POPC   GL243058   0.807  19.558   5.894
 3328POPC   C1A43059   0.515  19.930   6.159
 3328POPC   D2A43060   0.317  19.706   6.497
 3328POPC   C3A43061   0.239  20.009   6.828
 3328POPC   C4A43062   0.174  19.968   7.284
 3328POPC   C1B43063   0.837  19.585   6.367
 3328POPC   C2B43064   0.749  19.926   6.671
 3328POPC   C3B43065   0.666  19.926   7.129
 3328POPC   C4B43066   0.590  19.683   7.527
 3329POPC   NC343067   0.539  44.745   5.459
 3329POPC   PO443068   0.940  44.259   5.751
 3329POPC   GL143069   0.568  44.505   5.914
 3329POPC   GL243070   0.219  44.383   5.767
 3329POPC   C1A43071   0.496  44.938   6.102
 3329POPC   D2A43072   0.336   0.028   6.493
 3329POPC   C3A43073   0.535  44.816   6.831
 3329POPC   C4A43074   0.531  44.968   7.248
 3329POPC   C1B43075   0.240  44.194   6.168
 3329POPC   C2B43076   0.296  44.394   6.556
 3329POPC   C3B43077   0.133  44.405   6.958
 3329POPC   C4B43078   0.491  44.448   7.223
 3330POPC   NC343079  23.131  13.527   5.332
 3330POPC   PO443080  22.618  13.892   5.412
 3330POPC   GL143081  22.836  13.670   5.780
 3330POPC   GL243082  23.184  13.544   5.857
 3330POPC   C1A43083  22.941  13.831   6.221
 3330POPC   D2A43084  23.169  13.781   6.595
 3330POPC   C3A43085  23.013  13.698   7.009
 3330POPC   C4A43086  23.087  13.718   7.450
 3330POPC   C1B43087  23.090  13.340   6.273
 3330POPC   C2B43088  23.156  13.267   6.728
 3330POPC   C3B43089  23.122  13.219   7.179
 3330POPC   C4B43090  23.069  13.243   7.638
 3331POPC   NC343091  25.256  43.413   5.345
 3331POPC   PO443092  25.685  42.934   5.436
 3331POPC   GL143093  25.343  42.884   5.855
 3331POPC   GL243094  25.232  43.204   5.839
 3331POPC   C1A43095  25.141  42.907   6.264
 3331POPC   D2A43096  25.135  43.188   6.618
 3331POPC   C3A43097  25.402  43.082   6.961
 3331POPC   C4A43098  25.420  42.933   7.419
 3331POPC   C1B43099  24.911  43.369   6.163
 3331POPC   C2B43100  24.757  43.592   6.558
 3331POPC   C3B43101  24.721  43.497   7.021
 3331POPC   C4B43102  25.035  43.272   7.253
 3332POPC   NC343103  23.860  21.950   5.029
 3332POPC   PO443104  23.456  22.377   5.345
 3332POPC   GL143105  23.806  22.204   5.637
 3332POPC   GL243106  23.591  22.087   5.860
 3332POPC   C1A43107  24.038  21.998   6.040
 3332POPC   D2A43108  24.026  22.093   6.475
 3332POPC   C3A43109  23.801  22.058   6.842
 3332POPC   C4A43110  23.894  22.243   7.218
 3332POPC   C1B43111  23.563  21.963   6.284
 3332POPC   C2B43112  23.293  21.989   6.629
 3332POPC   C3B43113  23.347  21.886   7.023
 3332POPC   C4B43114  23.585  21.613   7.231
 3333POPC   NC343115  28.405  24.113   5.468
 3333POPC   PO443116  28.067  24.755   5.437
 3333POPC   GL143117  28.391  24.620   5.771
 3333POPC   GL243118  28.364  24.318   5.928
 3333POPC   C1A43119  28.542  24.731   6.196
 3333POPC   D2A43120  28.368  24.650   6.619
 3333POPC   C3A43121  28.592  24.586   6.998
 3333POPC   C4A43122  28.659  24.558   7.433
 3333POPC   C1B43123  28.062  24.126   6.167
 3333POPC   C2B43124  27.961  24.323   6.547
 3333POPC   C3B43125  28.188  24.271   6.927
 3333POPC   C4B43126  28.177  24.392   7.344
 3334POPC   NC343127  33.609  14.778   5.466
 3334POPC   PO443128  33.694  15.455   5.338
 3334POPC   GL143129  33.782  15.205   5.716
 3334POPC   GL243130  33.814  15.494   5.908
 3334POPC   C1A43131  34.096  15.106   6.064
 3334POPC   D2A43132  34.201  15.195   6.506
 3334POPC   C3A43133  33.845  15.042   6.761
 3334POPC   C4A43134  33.753  14.986   7.191
 3334POPC   C1B43135  34.043  15.641   6.271
 3334POPC   C2B43136  33.970  15.638   6.720
 3334POPC   C3B43137  33.733  15.541   7.103
 3334POPC   C4B43138  33.535  15.380   7.465
 3335POPC   NC343139  27.833   7.601   5.437
 3335POPC   PO443140  27.309   7.176   5.290
 3335POPC   GL143141  27.483   7.293   5.713
 3335POPC   GL243142  27.758   7.093   5.809
 3335POPC   C1A43143  27.650   7.508   6.103
 3335POPC   D2A43144  27.464   7.525   6.501
 3335POPC   C3A43145  27.755   7.633   6.790
 3335POPC   C4A43146  27.657   7.643   7.184
 3335POPC   C1B43147  27.410   7.064   6.189
 3335POPC   C2B43148  27.236   7.083   6.622
 3335POPC   C3B43149  27.518   7.148   6.989
 3335POPC   C4B43150  27.713   7.199   7.437
 3336POPC   NC343151  44.459  27.225   5.481
 3336POPC   PO443152  44.860  27.722   5.410
 3336POPC   GL143153  44.733  27.562   5.819
 3336POPC   GL243154  44.406  27.719   5.836
 3336POPC   C1A43155  44.839  27.502   6.268
 3336POPC   D2A43156  44.910  27.284   6.642
 3336POPC   C3A43157  44.827  27.579   6.985
 3336POPC   C4A43158  44.971  27.578   7.409
 3336POPC   C1B43159  44.342  27.583   6.271
 3336POPC   C2B43160  44.422  27.415   6.696
 3336POPC   C3B43161  44.313  27.595   7.120
 3336POPC   C4B43162  44.519  27.774   7.492
 3337POPC   NC343163  38.496  43.987   5.356
 3337POPC   PO443164  38.513  43.338   5.217
 3337POPC   GL143165  38.376  43.517   5.731
 3337POPC   GL243166  38.503  43.853   5.859
 3337POPC   C1A43167  38.418  43.501   6.222
 3337POPC   D2A43168  38.382  43.342   6.677
 3337POPC   C3A43169  38.431  43.469   7.163
 3337POPC   C4A43170  38.566  43.842   7.438
 3337POPC   C1B43171  38.154  43.979   6.164
 3337POPC   C2B43172  38.099  44.210   6.564
 3337POPC   C3B43173  37.918  44.120   6.947
 3337POPC   C4B43174  38.141  44.041   7.286
 3338POPC   NC343175  32.569  10.626   5.563
 3338POPC   PO443176  31.911  10.567   5.366
 3338POPC   GL143177  32.097  10.516   5.745
 3338POPC   GL243178  32.135  10.857   5.786
 3338POPC   C1A43179  32.273  10.520   6.178
 3338POPC   D2A43180  32.165  10.825   6.509
 3338POPC   C3A43181  32.334  10.762   6.928
 3338POPC   C4A43182  32.189  10.444   7.230
 3338POPC   C1B43183  31.830  10.770   6.098
 3338POPC   C2B43184  31.808  10.477   6.411
 3338POPC   C3B43185  31.832  10.539   6.851
 3338POPC   C4B43186  31.864  10.834   7.189
 3339POPC   NC343187   6.034  26.408   5.288
 3339POPC   PO443188   5.793  25.760   5.450
 3339POPC   GL143189   5.822  25.888   5.926
 3339POPC   GL243190   5.568  26.141   6.054
 3339POPC   C1A43191   5.859  25.834   6.374
 3339POPC   D2A43192   5.806  26.012   6.794
 3339POPC   C3A43193   5.934  25.746   7.170
 3339POPC   C4A43194   6.068  25.708   7.667
 3339POPC   C1B43195   5.777  26.416   6.378
 3339POPC   C2B43196   6.042  26.475   6.737
 3339POPC   C3B43197   6.160  26.242   7.093
 3339POPC   C4B43198   5.918  26.143   7.478
 3340POPC   NC343199   6.897  15.118   5.340
 3340POPC   PO443200   6.473  15.530   5.596
 3340POPC   GL143201   6.697  15.302   5.826
 3340POPC   GL243202   6.556  14.975   5.758
 3340POPC   C1A43203   6.839  15.423   6.224
 3340POPC   D2A43204   6.853  15.258   6.636
 3340POPC   C3A43205   7.115  15.465   6.927
 3340POPC   C4A43206   7.089  15.448   7.391
 3340POPC   C1B43207   6.371  14.713   6.084
 3340POPC   C2B43208   6.292  14.809   6.518
 3340POPC   C3B43209   6.386  14.991   6.929
 3340POPC   C4B43210   6.229  14.837   7.338
 3341POPC   NC343211  14.655  36.578   5.486
 3341POPC   PO443212  14.330  35.985   5.295
 3341POPC   GL143213  14.341  36.075   5.763
 3341POPC   GL243214  14.565  36.324   5.905
 3341POPC   C1A43215  14.208  36.084   6.230
 3341POPC   D2A43216  14.161  35.765   6.596
 3341POPC   C3A43217  14.117  35.855   7.056
 3341POPC   C4A43218  14.400  35.839   7.437
 3341POPC   C1B43219  14.577  36.454   6.289
 3341POPC   C2B43220  14.541  36.186   6.635
 3341POPC   C3B43221  14.585  36.093   7.052
 3341POPC   C4B43222  14.528  36.330   7.441
 3342POPC   NC343223   5.726  13.031   5.282
 3342POPC   PO443224   6.108  12.393   5.223
 3342POPC   GL143225   6.014  12.715   5.586
 3342POPC   GL243226   5.675  12.793   5.730
 3342POPC   C1A43227   6.128  12.837   6.031
 3342POPC   D2A43228   6.084  12.817   6.497
 3342POPC   C3A43229   6.292  12.987   6.877
 3342POPC   C4A43230   6.080  12.791   7.225
 3342POPC   C1B43231   5.563  12.763   6.173
 3342POPC   C2B43232   5.585  12.949   6.576
 3342POPC   C3B43233   5.627  12.831   6.984
 3342POPC   C4B43234   5.658  13.109   7.317
 3343POPC   NC343235  14.872  12.861   5.353
 3343POPC   PO443236  15.456  12.645   5.533
 3343POPC   GL143237  15.186  12.855   5.812
 3343POPC   GL243238  14.881  12.713   5.838
 3343POPC   C1A43239  15.163  12.986   6.244
 3343POPC   D2A43240  15.335  13.180   6.643
 3343POPC   C3A43241  15.311  12.968   7.025
 3343POPC   C4A43242  15.083  12.955   7.393
 3343POPC   C1B43243  14.887  12.534   6.219
 3343POPC   C2B43244  14.764  12.694   6.579
 3343POPC   C3B43245  14.811  12.810   6.977
 3343POPC   C4B43246  14.680  12.644   7.391
 3344POPC   NC343247  44.077   7.177   5.423
 3344POPC   PO443248  43.636   7.564   5.236
 3344POPC   GL143249  43.701   7.492   5.702
 3344POPC   GL243250  43.859   7.197   5.896
 3344POPC   C1A43251  43.907   7.656   6.103
 3344POPC   D2A43252  43.937   7.882   6.512
 3344POPC   C3A43253  44.107   7.744   6.904
 3344POPC   C4A43254  43.949   7.463   7.199
 3344POPC   C1B43255  43.493   7.324   6.153
 3344POPC   C2B43256  43.448   7.339   6.596
 3344POPC   C3B43257  43.732   7.120   6.875
 3344POPC   C4B43258  43.721   7.005   7.327
 3345POPC   NC343259  13.941   1.061   5.651
 3345POPC   PO443260  13.346   1.402   5.451
 3345POPC   GL143261  13.465   1.166   5.785
 3345POPC   GL243262  13.450   0.824   5.676
 3345POPC   C1A43263  13.672   1.219   6.215
 3345POPC   D2A43264  13.908   1.235   6.645
 3345POPC   C3A43265  13.813   1.339   7.101
 3345POPC   C4A43266  14.081   1.435   7.473
 3345POPC   C1B43267  13.378   0.773   6.128
 3345POPC   C2B43268  13.489   0.893   6.565
 3345POPC   C3B43269  13.701   0.850   6.954
 3345POPC   C4B43270  13.480   0.792   7.328
 3346POPC   NC343271  32.370  44.706   5.324
 3346POPC   PO443272  32.747  44.106   5.331
 3346POPC   GL143273  32.533  44.390   5.685
 3346POPC   GL243274  32.150  44.535   5.737
 3346POPC   C1A43275  32.431  44.447   6.137
 3346POPC   D2A43276  32.124  44.495   6.468
 3346POPC   C3A43277  32.395  44.600   6.775
 3346POPC   C4A43278  32.354  44.625   7.186
 3346POPC   C1B43279  32.045  44.812   6.072
 3346POPC   C2B43280  32.148   0.015   6.484
 3346POPC   C3B43281  32.031  44.969   6.920
 3346POPC   C4B43282  31.882  44.812   7.331
 3347POPC   NC343283  16.102  20.847   5.503
 3347POPC   PO443284  15.769  20.187   5.382
 3347POPC   GL143285  15.833  20.466   5.801
 3347POPC   GL243286  16.191  20.460   5.865
 3347POPC   C1A43287  15.708  20.720   6.255
 3347POPC   D2A43288  15.904  20.851   6.719
 3347POPC   C3A43289  15.784  20.581   7.135
 3347POPC   C4A43290  15.534  20.309   7.481
 3347POPC   C1B43291  16.202  20.637   6.278
 3347POPC   C2B43292  16.368  20.508   6.669
 3347POPC   C3B43293  16.321  20.636   7.117
 3347POPC   C4B43294  16.133  20.877   7.454
 3348POPC   NC343295  43.519  29.977   5.459
 3348POPC   PO443296  42.842  29.829   5.485
 3348POPC   GL143297  42.958  29.714   5.865
 3348POPC   GL243298  43.293  29.847   5.911
 3348POPC   C1A43299  42.837  29.875   6.258
 3348POPC   D2A43300  42.924  29.937   6.688
 3348POPC   C3A43301  42.784  29.679   7.029
 3348POPC   C4A43302  43.141  29.603   7.331
 3348POPC   C1B43303  43.286  30.133   6.273
 3348POPC   C2B43304  42.958  30.386   6.441
 3348POPC   C3B43305  42.967  30.408   6.899
 3348POPC   C4B43306  43.079  30.082   7.167
 3349POPC   NC343307  25.452  23.075   5.471
 3349POPC   PO443308  24.868  22.747   5.293
 3349POPC   GL143309  25.071  22.919   5.751
 3349POPC   GL243310  25.335  22.714   5.859
 3349POPC   C1A43311  25.256  23.082   6.198
 3349POPC   D2A43312  25.095  22.896   6.603
 3349POPC   C3A43313  24.994  22.776   7.019
 3349POPC   C4A43314  24.944  23.127   7.236
 3349POPC   C1B43315  25.387  22.589   6.306
 3349POPC   C2B43316  25.589  22.868   6.616
 3349POPC   C3B43317  25.417  23.091   6.991
 3349POPC   C4B43318  25.395  23.134   7.470
 3350POPC   NC343319   8.134   0.903   5.444
 3350POPC   PO443320   8.396   1.593   5.489
 3350POPC   GL143321   8.302   1.264   5.763
 3350POPC   GL243322   7.935   1.344   5.693
 3350POPC   C1A43323   8.350   1.011   6.155
 3350POPC   D2A43324   8.245   1.177   6.579
 3350POPC   C3A43325   8.402   1.035   6.992
 3350POPC   C4A43326   8.315   1.239   7.395
 3350POPC   C1B43327   7.886   1.243   6.131
 3350POPC   C2B43328   7.759   1.333   6.556
 3350POPC   C3B43329   7.921   1.261   6.983
 3350POPC   C4B43330   7.942   1.582   7.283
 3351POPC   NC343331   9.963  22.995   5.404
 3351POPC   PO443332   9.414  23.352   5.276
 3351POPC   GL143333   9.579  23.217   5.729
 3351POPC   GL243334   9.926  23.120   5.903
 3351POPC   C1A43335   9.521  23.039   6.179
 3351POPC   D2A43336   9.771  23.143   6.551
 3351POPC   C3A43337   9.551  23.153   6.928
 3351POPC   C4A43338   9.661  22.957   7.293
 3351POPC   C1B43339   9.975  22.787   6.254
 3351POPC   C2B43340  10.162  22.778   6.659
 3351POPC   C3B43341   9.999  22.638   7.050
 3351POPC   C4B43342  10.021  22.355   7.391
 3352POPC   NC343343  28.075  33.119   5.245
 3352POPC   PO443344  28.334  33.733   5.408
 3352POPC   GL143345  28.324  33.824   5.824
 3352POPC   GL243346  28.620  33.667   5.926
 3352POPC   C1A43347  28.292  33.838   6.269
 3352POPC   D2A43348  28.422  33.581   6.620
 3352POPC   C3A43349  28.059  33.632   6.846
 3352POPC   C4A43350  27.815  33.874   7.137
 3352POPC   C1B43351  28.803  33.842   6.334
 3352POPC   C2B43352  28.721  34.017   6.769
 3352POPC   C3B43353  28.419  33.909   7.118
 3352POPC   C4B43354  28.496  33.757   7.553
 3353POPC   NC343355  25.896  19.296   5.328
 3353POPC   PO443356  26.258  18.655   5.422
 3353POPC   GL143357  25.970  18.929   5.672
 3353POPC   GL243358  26.161  19.198   5.763
 3353POPC   C1A43359  25.853  18.957   6.106
 3353POPC   D2A43360  26.074  19.088   6.463
 3353POPC   C3A43361  25.960  18.984   6.872
 3353POPC   C4A43362  25.737  19.261   7.155
 3353POPC   C1B43363  26.450  19.276   6.098
 3353POPC   C2B43364  26.522  19.339   6.538
 3353POPC   C3B43365  26.301  19.355   6.921
 3353POPC   C4B43366  26.160  19.481   7.317
 3354POPC   NC343367  42.105  34.607   5.060
 3354POPC   PO443368  42.527  34.366   5.515
 3354POPC   GL143369  42.581  34.604   5.859
 3354POPC   GL243370  42.885  34.401   5.935
 3354POPC   C1A43371  42.426  34.747   6.233
 3354POPC   D2A43372  42.583  34.683   6.612
 3354POPC   C3A43373  42.353  34.622   6.973
 3354POPC   C4A43374  42.485  34.766   7.369
 3354POPC   C1B43375  42.647  34.278   6.280
 3354POPC   C2B43376  42.657  34.177   6.706
 3354POPC   C3B43377  42.781  34.382   7.064
 3354POPC   C4B43378  42.433  34.259   7.317
 3355POPC   NC343379  28.787  18.923   5.479
 3355POPC   PO443380  29.343  19.206   5.377
 3355POPC   GL143381  29.162  19.165   5.764
 3355POPC   GL243382  29.322  19.475   5.814
 3355POPC   C1A43383  29.140  18.874   6.157
 3355POPC   D2A43384  28.913  18.756   6.556
 3355POPC   C3A43385  29.167  18.822   6.945
 3355POPC   C4A43386  29.007  18.973   7.320
 3355POPC   C1B43387  29.094  19.390   6.210
 3355POPC   C2B43388  29.183  19.206   6.597
 3355POPC   C3B43389  29.052  19.365   6.997
 3355POPC   C4B43390  29.271  19.395   7.425
 3356POPC   NC343391   3.446   6.556   5.407
 3356POPC   PO443392   4.122   6.595   5.307
 3356POPC   GL143393   3.914   6.604   5.719
 3356POPC   GL243394   3.739   6.284   5.773
 3356POPC   C1A43395   3.862   6.902   6.091
 3356POPC   D2A43396   3.556   6.937   6.436
 3356POPC   C3A43397   3.684   6.789   6.850
 3356POPC   C4A43398   3.603   6.955   7.266
 3356POPC   C1B43399   3.545   6.487   6.152
 3356POPC   C2B43400   3.283   6.481   6.541
 3356POPC   C3B43401   3.300   6.410   6.994
 3356POPC   C4B43402   3.653   6.424   7.223
 3357POPC   NC343403   9.885  38.514   5.190
 3357POPC   PO443404   9.631  38.006   5.468
 3357POPC   GL143405   9.725  38.369   5.704
 3357POPC   GL243406  10.060  38.325   5.805
 3357POPC   C1A43407   9.708  38.361   6.159
 3357POPC   D2A43408   9.718  38.096   6.479
 3357POPC   C3A43409   9.389  38.151   6.785
 3357POPC   C4A43410   9.355  38.427   7.149
 3357POPC   C1B43411  10.205  38.509   6.195
 3357POPC   C2B43412  10.031  38.592   6.568
 3357POPC   C3B43413   9.805  38.436   6.874
 3357POPC   C4B43414   9.755  38.081   7.116
 3358POPC   NC343415  37.056  14.820   5.492
 3358POPC   PO443416  36.871  14.142   5.327
 3358POPC   GL143417  36.742  14.420   5.652
 3358POPC   GL243418  36.486  14.255   5.830
 3358POPC   C1A43419  36.896  14.448   6.076
 3358POPC   D2A43420  36.799  14.435   6.519
 3358POPC   C3A43421  36.986  14.213   6.851
 3358POPC   C4A43422  36.982  14.348   7.281
 3358POPC   C1B43423  36.521  14.099   6.247
 3358POPC   C2B43424  36.492  14.027   6.700
 3358POPC   C3B43425  36.504  14.231   7.100
 3358POPC   C4B43426  36.573  14.138   7.530
 3359POPC   NC343427  17.456  38.654   5.335
 3359POPC   PO443428  17.165  38.027   5.460
 3359POPC   GL143429  17.351  38.330   5.765
 3359POPC   GL243430  17.392  38.718   5.822
 3359POPC   C1A43431  17.568  38.375   6.152
 3359POPC   D2A43432  17.562  38.660   6.501
 3359POPC   C3A43433  17.616  38.396   6.846
 3359POPC   C4A43434  17.769  38.298   7.224
 3359POPC   C1B43435  17.139  38.701   6.184
 3359POPC   C2B43436  16.961  38.763   6.592
 3359POPC   C3B43437  17.216  38.722   6.924
 3359POPC   C4B43438  17.279  38.416   7.258
 3360POPC   NC343439  26.971   0.130   5.563
 3360POPC   PO443440  26.735   0.780   5.385
 3360POPC   GL143441  26.546   0.635   5.800
 3360POPC   GL243442  26.546   0.255   5.868
 3360POPC   C1A43443  26.702   0.563   6.236
 3360POPC   D2A43444  26.664   0.741   6.625
 3360POPC   C3A43445  27.003   0.731   6.861
 3360POPC   C4A43446  27.157   0.402   7.102
 3360POPC   C1B43447  26.810   0.068   6.217
 3360POPC   C2B43448  26.956   0.233   6.627
 3360POPC   C3B43449  26.687   0.182   6.991
 3360POPC   C4B43450  26.385  44.821   7.103
 3361POPC   NC343451  11.606  11.942   5.396
 3361POPC   PO443452  11.007  12.247   5.444
 3361POPC   GL143453  11.241  12.115   5.770
 3361POPC   GL243454  11.132  11.810   5.829
 3361POPC   C1A43455  11.289  12.108   6.207
 3361POPC   D2A43456  11.044  12.133   6.547
 3361POPC   C3A43457  11.210  11.942   6.894
 3361POPC   C4A43458  11.389  12.086   7.257
 3361POPC   C1B43459  11.017  11.666   6.271
 3361POPC   C2B43460  10.818  11.654   6.706
 3361POPC   C3B43461  10.930  11.633   7.185
 3361POPC   C4B43462  11.035  11.885   7.580
 3362POPC   NC343463  31.369  40.642   5.414
 3362POPC   PO443464  31.647  41.027   5.815
 3362POPC   GL143465  31.866  40.635   5.887
 3362POPC   GL243466  31.613  40.375   5.794
 3362POPC   C1A43467  31.914  40.659   6.319
 3362POPC   D2A43468  31.612  40.983   6.475
 3362POPC   C3A43469  31.431  40.924   6.890
 3362POPC   C4A43470  31.701  40.806   7.231
 3362POPC   C1B43471  31.410  40.531   6.172
 3362POPC   C2B43472  31.484  40.456   6.586
 3362POPC   C3B43473  31.216  40.452   6.923
 3362POPC   C4B43474  31.333  40.442   7.324
 3363POPC   NC343475  32.807   4.603   5.407
 3363POPC   PO443476  33.189   4.063   5.322
 3363POPC   GL143477  33.140   4.289   5.720
 3363POPC   GL243478  32.777   4.205   5.779
 3363POPC   C1A43479  33.069   4.262   6.199
 3363POPC   D2A43480  32.689   4.230   6.510
 3363POPC   C3A43481  32.815   4.118   6.945
 3363POPC   C4A43482  33.182   4.275   7.150
 3363POPC   C1B43483  32.667   4.583   6.071
 3363POPC   C2B43484  32.620   4.748   6.505
 3363POPC   C3B43485  32.880   4.629   6.863
 3363POPC   C4B43486  32.761   4.517   7.293
 3364POPC   NC343487  41.802  36.092   5.562
 3364POPC   PO443488  41.162  36.338   5.439
 3364POPC   GL143489  41.410  36.347   5.789
 3364POPC   GL243490  41.359  36.007   5.888
 3364POPC   C1A43491  41.615  36.381   6.204
 3364POPC   D2A43492  41.489  36.507   6.610
 3364POPC   C3A43493  41.674  36.346   6.966
 3364POPC   C4A43494  41.427  36.110   7.208
 3364POPC   C1B43495  41.521  35.887   6.325
 3364POPC   C2B43496  41.505  35.789   6.776
 3364POPC   C3B43497  41.291  35.607   7.127
 3364POPC   C4B43498  41.403  35.672   7.583
 3365POPC   NC343499  25.993   2.149   5.367
 3365POPC   PO443500  26.466   2.616   5.546
 3365POPC   GL143501  26.259   2.301   5.820
 3365POPC   GL243502  26.095   1.959   5.820
 3365POPC   C1A43503  26.025   2.232   6.221
 3365POPC   D2A43504  25.936   2.361   6.615
 3365POPC   C3A43505  25.940   2.037   6.870
 3365POPC   C4A43506  26.130   2.160   7.207
 3365POPC   C1B43507  26.210   1.718   6.193
 3365POPC   C2B43508  26.138   1.558   6.618
 3365POPC   C3B43509  26.303   1.707   6.996
 3365POPC   C4B43510  26.155   1.676   7.393
 3366POPC   NC343511  16.365  31.696   5.603
 3366POPC   PO443512  16.831  31.549   5.155
 3366POPC   GL143513  16.828  31.438   5.624
 3366POPC   GL243514  16.917  31.735   5.812
 3366POPC   C1A43515  16.744  31.280   6.072
 3366POPC   D2A43516  16.543  31.147   6.489
 3366POPC   C3A43517  16.435  31.355   6.895
 3366POPC   C4A43518  16.778  31.439   7.153
 3366POPC   C1B43519  16.695  31.772   6.210
 3366POPC   C2B43520  16.765  31.645   6.630
 3366POPC   C3B43521  16.934  31.888   6.956
 3366POPC   C4B43522  17.090  31.793   7.353
 3367POPC   NC343523  35.956  39.445   5.231
 3367POPC   PO443524  36.281  38.890   5.529
 3367POPC   GL143525  36.136  39.109   5.837
 3367POPC   GL243526  36.301  39.437   5.742
 3367POPC   C1A43527  36.087  38.997   6.284
 3367POPC   D2A43528  36.220  39.274   6.657
 3367POPC   C3A43529  36.212  39.272   7.110
 3367POPC   C4A43530  35.871  39.023   7.299
 3367POPC   C1B43531  36.193  39.486   6.186
 3367POPC   C2B43532  35.782  39.394   6.423
 3367POPC   C3B43533  35.760  39.376   6.886
 3367POPC   C4B43534  35.835  39.551   7.300
 3368POPC   NC343535   3.248  42.650   4.972
 3368POPC   PO443536   3.453  42.496   5.536
 3368POPC   GL143537   3.558  42.222   5.841
 3368POPC   GL243538   3.235  42.104   5.887
 3368POPC   C1A43539   3.490  42.317   6.260
 3368POPC   D2A43540   3.363  42.531   6.600
 3368POPC   C3A43541   3.541  42.393   6.984
 3368POPC   C4A43542   3.485  42.386   7.433
 3368POPC   C1B43543   3.310  41.841   6.237
 3368POPC   C2B43544   3.427  41.982   6.671
 3368POPC   C3B43545   3.312  41.951   7.121
 3368POPC   C4B43546   3.290  41.935   7.602
 3369POPC   NC343547  40.049  33.331   5.446
 3369POPC   PO443548  39.908  32.670   5.291
 3369POPC   GL143549  39.992  32.896   5.728
 3369POPC   GL243550  39.858  33.193   5.887
 3369POPC   C1A43551  40.260  32.991   6.129
 3369POPC   D2A43552  40.415  32.826   6.536
 3369POPC   C3A43553  40.182  32.913   6.942
 3369POPC   C4A43554  40.264  32.708   7.301
 3369POPC   C1B43555  39.791  32.824   6.187
 3369POPC   C2B43556  39.909  32.686   6.584
 3369POPC   C3B43557  39.749  32.683   7.034
 3369POPC   C4B43558  39.819  32.953   7.395
 3370POPC   NC343559  16.353  33.886   5.244
 3370POPC   PO443560  15.661  33.698   5.358
 3370POPC   GL143561  15.936  33.650   5.750
 3370POPC   GL243562  16.241  33.863   5.758
 3370POPC   C1A43563  15.811  33.598   6.202
 3370POPC   D2A43564  15.642  33.406   6.590
 3370POPC   C3A43565  15.745  33.531   7.012
 3370POPC   C4A43566  15.881  33.770   7.402
 3370POPC   C1B43567  16.064  34.064   6.136
 3370POPC   C2B43568  16.070  33.897   6.548
 3370POPC   C3B43569  16.096  33.976   6.978
 3370POPC   C4B43570  15.849  34.253   7.229
 3371POPC   NC343571  32.334  37.890   5.397
 3371POPC   PO443572  32.598  37.310   5.474
 3371POPC   GL143573  32.391  37.499   5.833
 3371POPC   GL243574  32.056  37.673   5.784
 3371POPC   C1A43575  32.257  37.521   6.276
 3371POPC   D2A43576  32.103  37.355   6.660
 3371POPC   C3A43577  32.411  37.345   7.002
 3371POPC   C4A43578  32.381  37.501   7.403
 3371POPC   C1B43579  32.079  37.986   6.150
 3371POPC   C2B43580  32.264  37.973   6.561
 3371POPC   C3B43581  32.170  37.787   6.947
 3371POPC   C4B43582  32.034  37.877   7.333
 3372POPC   NC343583  32.467  39.688   5.493
 3372POPC   PO443584  32.303  39.107   5.413
 3372POPC   GL143585  32.333  39.308   5.813
 3372POPC   GL243586  32.555  39.068   5.907
 3372POPC   C1A43587  32.364  39.648   6.145
 3372POPC   D2A43588  32.224  39.757   6.572
 3372POPC   C3A43589  32.232  39.497   6.987
 3372POPC   C4A43590  31.883  39.361   7.262
 3372POPC   C1B43591  32.496  39.198   6.333
 3372POPC   C2B43592  32.105  39.188   6.582
 3372POPC   C3B43593  32.032  38.972   6.973
 3372POPC   C4B43594  32.319  39.079   7.352
 3373POPC   NC343595   6.390  38.118   5.571
 3373POPC   PO443596   6.463  37.474   5.585
 3373POPC   GL143597   6.642  37.773   5.844
 3373POPC   GL243598   6.348  37.843   6.018
 3373POPC   C1A43599   6.836  37.900   6.198
 3373POPC   D2A43600   6.592  37.921   6.563
 3373POPC   C3A43601   6.822  37.988   6.928
 3373POPC   C4A43602   6.817  37.764   7.291
 3373POPC   C1B43603   6.062  37.737   6.336
 3373POPC   C2B43604   6.117  37.729   6.753
 3373POPC   C3B43605   6.389  37.712   7.035
 3373POPC   C4B43606   6.354  37.480   7.399
 3374POPC   NC343607   3.625  14.749   5.296
 3374POPC   PO443608   3.480  14.121   5.404
 3374POPC   GL143609   3.626  14.387   5.669
 3374POPC   GL243610   3.309  14.515   5.756
 3374POPC   C1A43611   3.688  14.411   6.111
 3374POPC   D2A43612   3.591  14.250   6.531
 3374POPC   C3A43613   3.643  14.507   6.906
 3374POPC   C4A43614   3.679  14.414   7.351
 3374POPC   C1B43615   3.173  14.336   6.217
 3374POPC   C2B43616   3.107  14.274   6.716
 3374POPC   C3B43617   3.222  14.288   7.164
 3374POPC   C4B43618   3.160  14.557   7.546
 3375POPC   NC343619  43.212  41.933   5.331
 3375POPC   PO443620  43.113  41.270   5.443
 3375POPC   GL143621  43.139  41.509   5.794
 3375POPC   GL243622  42.849  41.669   5.851
 3375POPC   C1A43623  43.112  41.454   6.262
 3375POPC   D2A43624  43.052  41.180   6.615
 3375POPC   C3A43625  42.988  41.213   7.036
 3375POPC   C4A43626  43.344  41.227   7.286
 3375POPC   C1B43627  42.984  41.932   6.186
 3375POPC   C2B43628  43.164  41.929   6.597
 3375POPC   C3B43629  43.024  41.723   6.964
 3375POPC   C4B43630  43.017  41.596   7.380
 3376POPC   NC343631  26.253   8.279   5.287
 3376POPC   PO443632  26.867   8.076   5.304
 3376POPC   GL143633  27.018   8.076   5.762
 3376POPC   GL243634  27.012   8.444   5.869
 3376POPC   C1A43635  26.782   8.079   6.173
 3376POPC   D2A43636  26.572   8.415   6.428
 3376POPC   C3A43637  26.529   8.360   6.862
 3376POPC   C4A43638  26.591   8.041   7.187
 3376POPC   C1B43639  27.094   8.458   6.314
 3376POPC   C2B43640  27.007   8.184   6.657
 3376POPC   C3B43641  27.040   8.296   7.070
 3376POPC   C4B43642  26.759   8.546   7.278
 3377POPC   NC343643  22.822  21.049   5.437
 3377POPC   PO443644  23.286  21.445   5.378
 3377POPC   GL143645  22.986  21.511   5.762
 3377POPC   GL243646  23.171  21.778   5.937
 3377POPC   C1A43647  22.805  21.307   6.194
 3377POPC   D2A43648  22.940  21.040   6.575
 3377POPC   C3A43649  22.799  21.163   6.985
 3377POPC   C4A43650  22.483  21.447   7.160
 3377POPC   C1B43651  23.210  21.578   6.342
 3377POPC   C2B43652  22.914  21.597   6.679
 3377POPC   C3B43653  22.924  21.653   7.113
 3377POPC   C4B43654  23.142  21.658   7.486
 3378POPC   NC343655   8.770  44.222   5.483
 3378POPC   PO443656   9.106  43.602   5.429
 3378POPC   GL143657   8.880  43.826   5.788
 3378POPC   GL243658   8.546  43.681   5.856
 3378POPC   C1A43659   9.063  43.979   6.207
 3378POPC   D2A43660   9.155  43.739   6.597
 3378POPC   C3A43661   9.073  43.894   7.027
 3378POPC   C4A43662   9.099  43.576   7.339
 3378POPC   C1B43663   8.576  43.886   6.260
 3378POPC   C2B43664   8.716  43.988   6.652
 3378POPC   C3B43665   8.536  43.992   7.033
 3378POPC   C4B43666   8.724  44.055   7.436
 3379POPC   NC343667  42.270  25.338   5.258
 3379POPC   PO443668  42.781  24.904   5.308
 3379POPC   GL143669  42.552  25.154   5.657
 3379POPC   GL243670  42.534  25.533   5.676
 3379POPC   C1A43671  42.218  25.250   6.016
 3379POPC   D2A43672  42.262  25.426   6.479
 3379POPC   C3A43673  42.199  25.277   6.935
 3379POPC   C4A43674  42.135  24.906   7.212
 3379POPC   C1B43675  42.690  25.422   6.084
 3379POPC   C2B43676  42.783  25.534   6.493
 3379POPC   C3B43677  42.711  25.330   6.854
 3379POPC   C4B43678  42.592  25.136   7.244
 3380POPC   NC343679  24.948   6.034   5.379
 3380POPC   PO443680  25.432   5.575   5.487
 3380POPC   GL143681  25.290   5.867   5.773
 3380POPC   GL243682  24.989   5.684   5.903
 3380POPC   C1A43683  25.526   6.064   6.131
 3380POPC   D2A43684  25.549   5.859   6.514
 3380POPC   C3A43685  25.719   5.930   6.869
 3380POPC   C4A43686  25.481   5.865   7.241
 3380POPC   C1B43687  25.026   6.041   6.189
 3380POPC   C2B43688  25.220   6.303   6.509
 3380POPC   C3B43689  25.340   6.260   6.910
 3380POPC   C4B43690  25.148   6.233   7.283
 3381POPC   NC343691  33.686  33.366   5.238
 3381POPC   PO443692  33.523  32.690   5.336
 3381POPC   GL143693  33.674  33.020   5.619
 3381POPC   GL243694  33.428  33.272   5.676
 3381POPC   C1A43695  33.882  33.121   6.021
 3381POPC   D2A43696  33.846  32.898   6.433
 3381POPC   C3A43697  33.895  33.018   6.878
 3381POPC   C4A43698  33.958  32.763   7.232
 3381POPC   C1B43699  33.408  33.239   6.139
 3381POPC   C2B43700  33.539  33.289   6.599
 3381POPC   C3B43701  33.429  33.156   7.034
 3381POPC   C4B43702  33.688  33.173   7.417
 3382POPC   NC343703  38.266  22.940   5.231
 3382POPC   PO443704  37.767  22.585   5.480
 3382POPC   GL143705  37.679  22.763   5.905
 3382POPC   GL243706  37.695  23.091   5.836
 3382POPC   C1A43707  37.680  22.807   6.360
 3382POPC   D2A43708  37.992  22.647   6.683
 3382POPC   C3A43709  37.855  22.799   7.066
 3382POPC   C4A43710  37.446  22.691   6.954
 3382POPC   C1B43711  37.391  23.219   6.170
 3382POPC   C2B43712  37.268  23.133   6.631
 3382POPC   C3B43713  37.541  23.200   6.990
 3382POPC   C4B43714  37.710  23.518   7.250
 3383POPC   NC343715  22.268  31.015   5.635
 3383POPC   PO443716  21.871  30.549   5.307
 3383POPC   GL143717  21.984  30.621   5.789
 3383POPC   GL243718  22.336  30.673   5.993
 3383POPC   C1A43719  21.904  30.827   6.206
 3383POPC   D2A43720  22.117  30.597   6.513
 3383POPC   C3A43721  22.198  30.726   6.882
 3383POPC   C4A43722  22.027  30.974   7.183
 3383POPC   C1B43723  22.416  30.993   6.288
 3383POPC   C2B43724  22.579  31.066   6.684
 3383POPC   C3B43725  22.516  31.086   7.109
 3383POPC   C4B43726  22.489  30.660   7.281
 3384POPC   NC343727  37.200  36.272   5.426
 3384POPC   PO443728  36.562  36.541   5.268
 3384POPC   GL143729  36.676  36.229   5.659
 3384POPC   GL243730  36.995  36.067   5.844
 3384POPC   C1A43731  36.558  35.998   6.096
 3384POPC   D2A43732  36.721  35.809   6.534
 3384POPC   C3A43733  36.769  36.025   6.947
 3384POPC   C4A43734  36.705  36.444   7.124
 3384POPC   C1B43735  37.196  35.738   6.145
 3384POPC   C2B43736  37.341  35.748   6.586
 3384POPC   C3B43737  37.299  35.879   6.993
 3384POPC   C4B43738  37.193  36.248   7.234
 3385POPC   NC343739  11.804  44.424   5.777
 3385POPC   PO443740  11.307  44.729   5.418
 3385POPC   GL143741  11.287  44.764   5.842
 3385POPC   GL243742  11.584  44.892   5.899
 3385POPC   C1A43743  11.107  44.523   6.179
 3385POPC   D2A43744  11.055  44.334   6.588
 3385POPC   C3A43745  11.154  44.595   6.933
 3385POPC   C4A43746  11.057  44.548   7.392
 3385POPC   C1B43747  11.556  44.809   6.332
 3385POPC   C2B43748  11.751   0.045   6.680
 3385POPC   C3B43749  11.799  44.976   7.100
 3385POPC   C4B43750  11.550  44.628   7.246
 3386POPC   NC343751   1.672  24.279   5.443
 3386POPC   PO443752   1.978  24.850   5.437
 3386POPC   GL143753   1.944  24.566   5.779
 3386POPC   GL243754   2.265  24.425   5.785
 3386POPC   C1A43755   1.873  24.409   6.190
 3386POPC   D2A43756   2.111  24.553   6.544
 3386POPC   C3A43757   1.946  24.661   6.968
 3386POPC   C4A43758   1.811  24.386   7.287
 3386POPC   C1B43759   2.404  24.701   6.128
 3386POPC   C2B43760   2.610  24.600   6.558
 3386POPC   C3B43761   2.425  24.522   6.968
 3386POPC   C4B43762   2.281  24.586   7.402
 3387POPC   NC343763   5.632   4.039   5.136
 3387POPC   PO443764   5.741   3.377   5.440
 3387POPC   GL143765   5.962   3.439   5.810
 3387POPC   GL243766   6.301   3.480   5.803
 3387POPC   C1A43767   6.067   3.225   6.198
 3387POPC   D2A43768   5.879   3.298   6.613
 3387POPC   C3A43769   6.035   3.495   6.969
 3387POPC   C4A43770   6.150   3.200   7.240
 3387POPC   C1B43771   6.130   3.722   6.213
 3387POPC   C2B43772   5.911   3.857   6.563
 3387POPC   C3B43773   6.013   4.009   6.958
 3387POPC   C4B43774   5.958   3.967   7.398
 3388POPC   NC343775  14.684  19.909   5.359
 3388POPC   PO443776  14.307  19.374   5.457
 3388POPC   GL143777  14.415  19.646   5.835
 3388POPC   GL243778  14.573  20.005   5.852
 3388POPC   C1A43779  14.390  19.695   6.298
 3388POPC   D2A43780  14.628  19.954   6.604
 3388POPC   C3A43781  14.453  19.948   7.019
 3388POPC   C4A43782  14.346  19.609   7.269
 3388POPC   C1B43783  14.197  20.124   6.127
 3388POPC   C2B43784  14.076  20.018   6.587
 3388POPC   C3B43785  13.959  19.759   6.979
 3388POPC   C4B43786  14.011  19.953   7.451
 3389POPC   NC343787  16.738  25.461   5.204
 3389POPC   PO443788  16.493  24.898   5.405
 3389POPC   GL143789  16.481  25.278   5.704
 3389POPC   GL243790  16.750  25.550   5.728
 3389POPC   C1A43791  16.553  25.254   6.180
 3389POPC   D2A43792  16.807  25.127   6.573
 3389POPC   C3A43793  16.615  25.209   7.010
 3389POPC   C4A43794  16.544  25.003   7.431
 3389POPC   C1B43795  16.929  25.591   6.184
 3389POPC   C2B43796  16.839  25.635   6.631
 3389POPC   C3B43797  16.936  25.632   7.055
 3389POPC   C4B43798  16.867  25.384   7.463
 3390POPC   NC343799  33.850   0.706   5.405
 3390POPC   PO443800  34.082   0.033   5.474
 3390POPC   GL143801  33.904   0.158   5.855
 3390POPC   GL243802  33.661   0.421   5.866
 3390POPC   C1A43803  33.903   0.275   6.284
 3390POPC   D2A43804  33.671   0.339   6.645
 3390POPC   C3A43805  34.028   0.406   6.894
 3390POPC   C4A43806  34.145   0.280   7.263
 3390POPC   C1B43807  33.706   0.780   6.162
 3390POPC   C2B43808  33.739   0.874   6.616
 3390POPC   C3B43809  33.652   0.711   7.019
 3390POPC   C4B43810  33.493   0.865   7.382
 3391POPC   NC343811  39.583  15.539   5.532
 3391POPC   PO443812  39.100  15.007   5.294
 3391POPC   GL143813  38.989  15.029   5.780
 3391POPC   GL243814  38.852  15.328   5.990
 3391POPC   C1A43815  39.191  15.000   6.215
 3391POPC   D2A43816  39.336  15.237   6.591
 3391POPC   C3A43817  39.127  15.092   6.945
 3391POPC   C4A43818  39.066  15.091   7.372
 3391POPC   C1B43819  38.933  15.604   6.333
 3391POPC   C2B43820  39.049  15.664   6.771
 3391POPC   C3B43821  38.961  15.567   7.206
 3391POPC   C4B43822  39.209  15.514   7.590
 3392POPC   NC343823  28.604   8.644   5.471
 3392POPC   PO443824  28.206   9.195   5.428
 3392POPC   GL143825  28.277   8.942   5.797
 3392POPC   GL243826  28.580   9.108   5.840
 3392POPC   C1A43827  28.402   8.833   6.236
 3392POPC   D2A43828  28.581   8.827   6.635
 3392POPC   C3A43829  28.412   8.854   7.036
 3392POPC   C4A43830  28.624   8.835   7.445
 3392POPC   C1B43831  28.322   9.328   6.169
 3392POPC   C2B43832  28.196   9.190   6.589
 3392POPC   C3B43833  28.062   9.232   7.012
 3392POPC   C4B43834  27.857   9.354   7.401
 3393POPC   NC343835   6.197  23.876   5.585
 3393POPC   PO443836   6.814  24.063   5.388
 3393POPC   GL143837   6.687  23.812   5.759
 3393POPC   GL243838   6.739  23.448   5.757
 3393POPC   C1A43839   6.539  23.688   6.176
 3393POPC   D2A43840   6.729  23.900   6.497
 3393POPC   C3A43841   6.720  23.683   6.853
 3393POPC   C4A43842   6.556  23.773   7.220
 3393POPC   C1B43843   6.828  23.225   6.146
 3393POPC   C2B43844   6.764  23.250   6.578
 3393POPC   C3B43845   6.960  23.251   6.977
 3393POPC   C4B43846   6.539  23.269   7.139
 3394POPC   NC343847  15.219  18.528   5.367
 3394POPC   PO443848  15.026  17.840   5.380
 3394POPC   GL143849  14.943  18.198   5.701
 3394POPC   GL243850  14.878  18.597   5.780
 3394POPC   C1A43851  15.003  18.247   6.167
 3394POPC   D2A43852  15.172  18.074   6.575
 3394POPC   C3A43853  15.100  18.274   6.994
 3394POPC   C4A43854  15.316  18.008   7.281
 3394POPC   C1B43855  14.757  18.767   6.181
 3394POPC   C2B43856  14.890  18.575   6.566
 3394POPC   C3B43857  14.697  18.631   6.940
 3394POPC   C4B43858  14.833  18.618   7.360
 3395POPC   NC343859  37.049  28.947   5.545
 3395POPC   PO443860  36.489  29.439   5.434
 3395POPC   GL143861  36.776  29.321   5.754
 3395POPC   GL243862  37.078  29.390   5.820
 3395POPC   C1A43863  36.851  29.047   6.136
 3395POPC   D2A43864  36.836  29.120   6.539
 3395POPC   C3A43865  36.672  28.823   6.799
 3395POPC   C4A43866  36.766  28.924   7.203
 3395POPC   C1B43867  36.928  29.558   6.192
 3395POPC   C2B43868  36.918  29.615   6.598
 3395POPC   C3B43869  37.037  29.381   6.963
 3395POPC   C4B43870  36.940  29.368   7.377
 3396POPC   NC343871   1.062  23.515   5.642
 3396POPC   PO443872   1.365  23.996   5.250
 3396POPC   GL143873   1.486  23.840   5.710
 3396POPC   GL243874   1.454  23.537   5.958
 3396POPC   C1A43875   1.562  23.974   6.169
 3396POPC   D2A43876   1.606  23.727   6.557
 3396POPC   C3A43877   1.363  23.839   6.933
 3396POPC   C4A43878   0.921  23.826   7.068
 3396POPC   C1B43879   1.153  23.686   6.276
 3396POPC   C2B43880   1.004  23.525   6.644
 3396POPC   C3B43881   0.831  23.320   6.978
 3396POPC   C4B43882   1.200  23.294   7.118
 3397POPC   NC343883   3.782  15.904   5.011
 3397POPC   PO443884   3.381  15.590   5.460
 3397POPC   GL143885   3.626  15.744   5.805
 3397POPC   GL243886   3.627  16.108   5.796
 3397POPC   C1A43887   3.490  15.774   6.231
 3397POPC   D2A43888   3.590  15.948   6.627
 3397POPC   C3A43889   3.777  15.627   6.869
 3397POPC   C4A43890   3.858  15.681   7.294
 3397POPC   C1B43891   3.479  16.281   6.192
 3397POPC   C2B43892   3.349  16.406   6.629
 3397POPC   C3B43893   3.426  16.275   7.060
 3397POPC   C4B43894   3.402  15.860   7.186
 3398POPC   NC343895   3.908  29.084   5.378
 3398POPC   PO443896   3.270  29.138   5.199
 3398POPC   GL143897   3.370  29.230   5.670
 3398POPC   GL243898   3.717  29.125   5.828
 3398POPC   C1A43899   3.322  29.246   6.135
 3398POPC   D2A43900   3.151  29.050   6.515
 3398POPC   C3A43901   3.327  29.047   6.911
 3398POPC   C4A43902   3.438  29.393   7.169
 3398POPC   C1B43903   3.861  29.339   6.184
 3398POPC   C2B43904   3.659  29.294   6.565
 3398POPC   C3B43905   3.850  29.294   6.918
 3398POPC   C4B43906   3.762  28.992   7.167
 3399POPC   NC343907  15.386  29.335   5.461
 3399POPC   PO443908  14.839  28.955   5.272
 3399POPC   GL143909  15.051  28.991   5.694
 3399POPC   GL243910  15.353  28.765   5.750
 3399POPC   C1A43911  15.234  29.208   6.077
 3399POPC   D2A43912  15.444  29.168   6.456
 3399POPC   C3A43913  15.209  29.281   6.808
 3399POPC   C4A43914  15.272  29.268   7.258
 3399POPC   C1B43915  15.077  28.720   6.144
 3399POPC   C2B43916  15.119  28.795   6.608
 3399POPC   C3B43917  15.380  28.828   6.993
 3399POPC   C4B43918  15.067  28.776   7.318
 3400POPC   NC343919  43.114  13.505   5.393
 3400POPC   PO443920  43.447  14.113   5.411
 3400POPC   GL143921  43.318  13.764   5.785
 3400POPC   GL243922  42.988  13.494   5.866
 3400POPC   C1A43923  43.161  13.764   6.231
 3400POPC   D2A43924  43.332  13.480   6.480
 3400POPC   C3A43925  43.269  13.524   6.890
 3400POPC   C4A43926  43.382  13.600   7.273
 3400POPC   C1B43927  42.832  13.368   6.257
 3400POPC   C2B43928  42.829  13.597   6.661
 3400POPC   C3B43929  42.600  13.551   7.049
 3400POPC   C4B43930  42.789  13.373   7.412
 3401POPC   NC343931  18.487  18.481   5.514
 3401POPC   PO443932  18.013  17.969   5.375
 3401POPC   GL143933  18.246  18.040   5.747
 3401POPC   GL243934  18.073  18.352   5.807
 3401POPC   C1A43935  18.358  17.989   6.186
 3401POPC   D2A43936  18.138  18.079   6.579
 3401POPC   C3A43937  18.388  18.128   6.962
 3401POPC   C4A43938  18.276  18.314   7.361
 3401POPC   C1B43939  18.319  18.513   6.170
 3401POPC   C2B43940  18.213  18.600   6.596
 3401POPC   C3B43941  18.350  18.673   7.008
 3401POPC   C4B43942  18.044  18.755   7.325
 3402POPC   NC343943   0.526  30.445   5.622
 3402POPC   PO443944   0.434  29.858   5.196
 3402POPC   GL143945   0.582  29.934   5.690
 3402POPC   GL243946   0.329  30.080   5.891
 3402POPC   C1A43947   0.740  30.177   6.147
 3402POPC   D2A43948   0.815  30.116   6.598
 3402POPC   C3A43949   0.591  30.245   6.965
 3402POPC   C4A43950   0.618  30.124   7.399
 3402POPC   C1B43951   0.417  29.818   6.275
 3402POPC   C2B43952   0.314  29.740   6.684
 3402POPC   C3B43953   0.385  29.783   7.109
 3402POPC   C4B43954   0.166  29.875   7.464
 3403POPC   NC343955   6.230  32.092   5.445
 3403POPC   PO443956   5.644  32.381   5.303
 3403POPC   GL143957   5.840  32.318   5.713
 3403POPC   GL243958   6.059  32.567   5.857
 3403POPC   C1A43959   5.806  32.010   6.042
 3403POPC   D2A43960   5.618  32.019   6.454
 3403POPC   C3A43961   5.807  32.279   6.771
 3403POPC   C4A43962   5.671  32.194   7.187
 3403POPC   C1B43963   6.164  32.327   6.236
 3403POPC   C2B43964   6.373  32.143   6.603
 3403POPC   C3B43965   6.398  32.342   6.997
 3403POPC   C4B43966   6.132  32.373   7.317
 3404POPC   NC343967   7.060  22.287   5.524
 3404POPC   PO443968   7.616  21.904   5.436
 3404POPC   GL143969   7.718  22.124   5.819
 3404POPC   GL243970   7.502  22.393   5.771
 3404POPC   C1A43971   7.715  22.342   6.237
 3404POPC   D2A43972   7.503  22.085   6.542
 3404POPC   C3A43973   7.718  22.031   6.901
 3404POPC   C4A43974   7.498  22.064   7.263
 3404POPC   C1B43975   7.221  22.301   6.143
 3404POPC   C2B43976   7.190  22.498   6.525
 3404POPC   C3B43977   7.227  22.337   6.919
 3404POPC   C4B43978   6.987  22.011   7.119
 3405POPC   NC343979  16.986  37.572   5.474
 3405POPC   PO443980  16.389  37.817   5.539
 3405POPC   GL143981  16.664  37.833   5.872
 3405POPC   GL243982  16.759  37.500   5.921
 3405POPC   C1A43983  16.751  37.796   6.320
 3405POPC   D2A43984  17.016  37.841   6.683
 3405POPC   C3A43985  16.750  37.803   7.029
 3405POPC   C4A43986  16.706  37.824   7.462
 3405POPC   C1B43987  16.670  37.273   6.278
 3405POPC   C2B43988  16.799  37.347   6.712
 3405POPC   C3B43989  16.632  37.306   7.151
 3405POPC   C4B43990  16.588  37.357   7.628
 3406POPC   NC343991  35.807  19.866   5.710
 3406POPC   PO443992  36.427  20.010   5.439
 3406POPC   GL143993  36.349  19.990   5.848
 3406POPC   GL243994  36.351  19.631   5.861
 3406POPC   C1A43995  36.576  20.037   6.224
 3406POPC   D2A43996  36.443  20.139   6.611
 3406POPC   C3A43997  36.128  19.951   6.859
 3406POPC   C4A43998  36.218  20.077   7.281
 3406POPC   C1B43999  36.202  19.682   6.291
 3406POPC   C2B44000  36.262  19.431   6.648
 3406POPC   C3B44001  36.304  19.515   7.056
 3406POPC   C4B44002  36.099  19.595   7.428
 3407POPC   NC344003  34.984  26.041   5.483
 3407POPC   PO444004  34.361  26.427   5.347
 3407POPC   GL144005  34.577  26.278   5.720
 3407POPC   GL244006  34.595  25.913   5.791
 3407POPC   C1A44007  34.442  26.237   6.146
 3407POPC   D2A44008  34.476  26.510   6.450
 3407POPC   C3A44009  34.524  26.353   6.834
 3407POPC   C4A44010  34.460  26.031   7.090
 3407POPC   C1B44011  34.629  25.727   6.223
 3407POPC   C2B44012  34.599  25.514   6.625
 3407POPC   C3B44013  34.625  25.562   7.070
 3407POPC   C4B44014  34.844  25.841   7.372
 3408POPC   NC344015  10.008  19.800   5.461
 3408POPC   PO444016  10.622  20.054   5.326
 3408POPC   GL144017  10.668  19.883   5.759
 3408POPC   GL244018  10.332  19.763   5.867
 3408POPC   C1A44019  10.684  19.804   6.249
 3408POPC   D2A44020  10.569  19.910   6.703
 3408POPC   C3A44021  10.580  19.576   7.016
 3408POPC   C4A44022  10.811  19.619   7.415
 3408POPC   C1B44023   9.989  19.944   6.111
 3408POPC   C2B44024   9.792  19.896   6.503
 3408POPC   C3B44025  10.037  19.909   6.876
 3408POPC   C4B44026  10.272  19.900   7.242
 3409POPC   NC344027   4.696  38.522   5.386
 3409POPC   PO444028   5.331  38.260   5.366
 3409POPC   GL144029   5.093  38.356   5.790
 3409POPC   GL244030   4.890  38.666   5.840
 3409POPC   C1A44031   5.131  38.491   6.267
 3409POPC   D2A44032   5.200  38.719   6.693
 3409POPC   C3A44033   5.234  38.435   7.088
 3409POPC   C4A44034   4.926  38.184   7.372
 3409POPC   C1B44035   4.654  38.686   6.230
 3409POPC   C2B44036   4.679  38.678   6.672
 3409POPC   C3B44037   4.760  38.631   7.112
 3409POPC   C4B44038   4.567  38.541   7.501
 3410POPC   NC344039   5.392  18.790   5.202
 3410POPC   PO444040   5.994  19.062   5.165
 3410POPC   GL144041   6.049  18.940   5.653
 3410POPC   GL244042   5.736  18.834   5.874
 3410POPC   C1A44043   6.170  19.098   6.113
 3410POPC   D2A44044   6.083  19.246   6.578
 3410POPC   C3A44045   5.936  19.094   6.985
 3410POPC   C4A44046   5.708  19.397   7.221
 3410POPC   C1B44047   5.697  19.019   6.328
 3410POPC   C2B44048   5.516  19.284   6.700
 3410POPC   C3B44049   5.352  19.072   7.071
 3410POPC   C4B44050   5.469  18.619   7.108
 3411POPC   NC344051   5.251  37.032   5.263
 3411POPC   PO444052   5.803  36.825   5.208
 3411POPC   GL144053   5.500  36.902   5.670
 3411POPC   GL244054   5.104  36.861   5.715
 3411POPC   C1A44055   5.356  36.933   6.127
 3411POPC   D2A44056   5.364  37.076   6.552
 3411POPC   C3A44057   5.227  36.837   6.899
 3411POPC   C4A44058   4.999  37.006   7.227
 3411POPC   C1B44059   4.903  36.671   6.048
 3411POPC   C2B44060   4.897  36.626   6.484
 3411POPC   C3B44061   4.777  36.586   6.892
 3411POPC   C4B44062   4.909  36.485   7.270
 3412POPC   NC344063  16.326  15.362   5.446
 3412POPC   PO444064  15.937  14.839   5.135
 3412POPC   GL144065  15.846  14.906   5.610
 3412POPC   GL244066  16.113  15.052   5.786
 3412POPC   C1A44067  15.683  14.993   6.061
 3412POPC   D2A44068  15.737  15.205   6.475
 3412POPC   C3A44069  15.918  15.044   6.872
 3412POPC   C4A44070  15.793  15.114   7.309
 3412POPC   C1B44071  16.182  14.970   6.227
 3412POPC   C2B44072  16.236  15.347   6.485
 3412POPC   C3B44073  16.243  15.494   6.878
 3412POPC   C4B44074  16.269  15.263   7.229
 3413POPC   NC344075   1.245  44.413   5.447
 3413POPC   PO444076   0.914   0.018   5.387
 3413POPC   GL144077   1.153  44.997   5.747
 3413POPC   GL244078   1.419  44.728   5.809
 3413POPC   C1A44079   0.995  44.853   6.117
 3413POPC   D2A44080   0.796  44.612   6.417
 3413POPC   C3A44081   1.038  44.739   6.759
 3413POPC   C4A44082   0.983  44.730   7.206
 3413POPC   C1B44083   1.352  44.495   6.203
 3413POPC   C2B44084   1.238  44.297   6.599
 3413POPC   C3B44085   1.397  44.466   6.987
 3413POPC   C4B44086   1.356  44.358   7.409
 3414POPC   NC344087  24.387   3.925   5.600
 3414POPC   PO444088  24.521   3.436   5.223
 3414POPC   GL144089  24.484   3.376   5.700
 3414POPC   GL244090  24.157   3.414   5.858
 3414POPC   C1A44091  24.645   3.487   6.146
 3414POPC   D2A44092  24.692   3.613   6.597
 3414POPC   C3A44093  24.396   3.473   6.920
 3414POPC   C4A44094  24.508   3.306   7.292
 3414POPC   C1B44095  24.150   3.713   6.217
 3414POPC   C2B44096  24.269   3.882   6.613
 3414POPC   C3B44097  24.524   3.964   6.974
 3414POPC   C4B44098  24.391   3.819   7.356
 3415POPC   NC344099  42.900  33.094   5.221
 3415POPC   PO444100  43.511  33.027   5.107
 3415POPC   GL144101  43.304  33.196   5.597
 3415POPC   GL244102  42.946  33.214   5.766
 3415POPC   C1A44103  43.302  33.177   6.121
 3415POPC   D2A44104  43.273  32.824   6.443
 3415POPC   C3A44105  43.348  32.937   6.872
 3415POPC   C4A44106  43.486  33.024   7.283
 3415POPC   C1B44107  42.850  33.358   6.235
 3415POPC   C2B44108  42.848  33.096   6.641
 3415POPC   C3B44109  42.896  33.038   7.102
 3415POPC   C4B44110  42.880  33.377   7.416
 3416POPC   NC344111   0.713  16.905   5.603
 3416POPC   PO444112   0.427  17.480   5.257
 3416POPC   GL144113   0.337  17.474   5.720
 3416POPC   GL244114   0.117  17.757   5.808
 3416POPC   C1A44115   0.513  17.534   6.146
 3416POPC   D2A44116   0.571  17.671   6.580
 3416POPC   C3A44117   0.420  17.537   6.988
 3416POPC   C4A44118   0.414  17.611   7.456
 3416POPC   C1B44119   0.111  17.844   6.268
 3416POPC   C2B44120   0.199  17.976   6.711
 3416POPC   C3B44121   0.215  17.975   7.165
 3416POPC   C4B44122   0.208  18.053   7.641
 3417POPC   NC344123  12.055  26.429   5.422
 3417POPC   PO444124  12.430  25.870   5.385
 3417POPC   GL144125  12.299  26.077   5.775
 3417POPC   GL244126  11.977  26.009   5.808
 3417POPC   C1A44127  12.222  26.159   6.225
 3417POPC   D2A44128  12.193  25.875   6.586
 3417POPC   C3A44129  12.455  26.038   6.891
 3417POPC   C4A44130  12.407  26.157   7.297
 3417POPC   C1B44131  11.884  25.771   6.177
 3417POPC   C2B44132  11.649  25.801   6.545
 3417POPC   C3B44133  11.802  25.700   6.937
 3417POPC   C4B44134  12.119  25.741   7.220
 3418POPC   NC344135  33.022  31.028   5.457
 3418POPC   PO444136  32.685  30.407   5.376
 3418POPC   GL144137  32.806  30.664   5.747
 3418POPC   GL244138  32.623  31.011   5.803
 3418POPC   C1A44139  33.046  30.677   6.154
 3418POPC   D2A44140  33.184  30.459   6.565
 3418POPC   C3A44141  33.128  30.646   6.991
 3418POPC   C4A44142  33.004  30.674   7.444
 3418POPC   C1B44143  32.755  31.119   6.250
 3418POPC   C2B44144  32.787  31.136   6.714
 3418POPC   C3B44145  32.883  31.090   7.160
 3418POPC   C4B44146  32.739  31.118   7.602
 3419POPC   NC344147  41.769  12.600   5.534
 3419POPC   PO444148  41.789  13.297   5.469
 3419POPC   GL144149  41.885  13.004   5.808
 3419POPC   GL244150  41.518  12.941   5.844
 3419POPC   C1A44151  41.790  12.696   6.183
 3419POPC   D2A44152  41.509  12.812   6.536
 3419POPC   C3A44153  41.688  12.904   6.944
 3419POPC   C4A44154  41.961  12.710   7.282
 3419POPC   C1B44155  41.271  12.614   6.103
 3419POPC   C2B44156  41.061  12.513   6.523
 3419POPC   C3B44157  41.010  12.720   6.955
 3419POPC   C4B44158  40.943  12.777   7.424
 3420POPC   NC344159   7.644  35.620   5.402
 3420POPC   PO444160   7.240  35.049   5.480
 3420POPC   GL144161   7.365  35.333   5.811
 3420POPC   GL244162   7.713  35.349   5.862
 3420POPC   C1A44163   7.246  35.475   6.243
 3420POPC   D2A44164   7.019  35.316   6.626
 3420POPC   C3A44165   7.272  35.244   6.983
 3420POPC   C4A44166   7.520  35.549   7.185
 3420POPC   C1B44167   7.763  35.629   6.229
 3420POPC   C2B44168   7.652  35.486   6.647
 3420POPC   C3B44169   7.748  35.086   6.869
 3420POPC   C4B44170   7.653  35.064   7.288
 3421POPC   NC344171  21.077  11.541   5.085
 3421POPC   PO444172  21.478  11.072   5.457
 3421POPC   GL144173  21.320  11.206   5.844
 3421POPC   GL244174  21.445  11.544   5.956
 3421POPC   C1A44175  21.474  11.115   6.247
 3421POPC   D2A44176  21.382  11.301   6.635
 3421POPC   C3A44177  21.523  11.088   6.955
 3421POPC   C4A44178  21.650  11.283   7.338
 3421POPC   C1B44179  21.088  11.466   6.262
 3421POPC   C2B44180  20.882  11.459   6.680
 3421POPC   C3B44181  21.089  11.348   7.080
 3421POPC   C4B44182  21.200  11.406   7.521
 3422POPC   NC344183  44.901   7.798   5.659
 3422POPC   PO444184  44.593   7.279   5.289
 3422POPC   GL144185  44.534   7.144   5.759
 3422POPC   GL244186  44.883   7.234   5.853
 3422POPC   C1A44187  44.545   7.149   6.245
 3422POPC   D2A44188  44.399   7.448   6.586
 3422POPC   C3A44189  44.492   7.376   7.039
 3422POPC   C4A44190  44.562   7.673   7.372
 3422POPC   C1B44191   0.014   7.394   6.267
 3422POPC   C2B44192  44.908   7.424   6.718
 3422POPC   C3B44193   0.007   7.483   7.159
 3422POPC   C4B44194  44.866   7.308   7.551
 3423POPC   NC344195  30.926   8.459   5.342
 3423POPC   PO444196  31.487   8.031   5.389
 3423POPC   GL144197  31.405   8.211   5.775
 3423POPC   GL244198  31.096   8.378   5.805
 3423POPC   C1A44199  31.604   8.351   6.157
 3423POPC   D2A44200  31.692   8.162   6.546
 3423POPC   C3A44201  31.546   8.213   6.969
 3423POPC   C4A44202  31.458   7.903   7.278
 3423POPC   C1B44203  31.176   8.625   6.174
 3423POPC   C2B44204  31.383   8.604   6.586
 3423POPC   C3B44205  31.144   8.528   6.983
 3423POPC   C4B44206  31.268   8.374   7.385
 3424POPC   NC344207  39.823  29.733   5.494
 3424POPC   PO444208  40.285  30.163   5.593
 3424POPC   GL144209  40.039  29.986   5.879
 3424POPC   GL244210  40.254  29.699   5.848
 3424POPC   C1A44211  39.925  29.789   6.244
 3424POPC   D2A44212  40.216  29.873   6.587
 3424POPC   C3A44213  40.029  30.013   6.954
 3424POPC   C4A44214  39.874  30.227   7.312
 3424POPC   C1B44215  40.342  29.512   6.224
 3424POPC   C2B44216  40.047  29.393   6.583
 3424POPC   C3B44217  40.022  29.520   7.026
 3424POPC   C4B44218  40.254  29.643   7.409
 3425POPC   NC344219   0.308   1.190   5.375
 3425POPC   PO444220   0.647   1.767   5.316
 3425POPC   GL144221   0.624   1.550   5.738
 3425POPC   GL244222   0.617   1.157   5.771
 3425POPC   C1A44223   0.438   1.448   6.144
 3425POPC   D2A44224   0.765   1.176   6.333
 3425POPC   C3A44225   0.758   1.226   6.772
 3425POPC   C4A44226   0.499   1.246   7.164
 3425POPC   C1B44227   0.332   0.956   6.084
 3425POPC   C2B44228   0.287   1.128   6.516
 3425POPC   C3B44229   0.085   1.175   6.889
 3425POPC   C4B44230   0.144   0.875   7.196
 3426POPC   NC344231  32.436  28.713   5.387
 3426POPC   PO444232  32.766  28.134   5.441
 3426POPC   GL144233  32.428  28.318   5.699
 3426POPC   GL244234  32.090  28.336   5.606
 3426POPC   C1A44235  32.314  28.454   6.095
 3426POPC   D2A44236  32.454  28.402   6.502
 3426POPC   C3A44237  32.295  28.655   6.834
 3426POPC   C4A44238  32.249  28.387   7.172
 3426POPC   C1B44239  31.901  28.163   5.989
 3426POPC   C2B44240  31.950  28.215   6.447
 3426POPC   C3B44241  31.944  28.067   6.877
 3426POPC   C4B44242  31.774  28.255   7.277
 3427POPC   NC344243  36.080  44.849   5.245
 3427POPC   PO444244  36.199  44.166   5.143
 3427POPC   GL144245  36.391  44.392   5.566
 3427POPC   GL244246  36.175  44.653   5.708
 3427POPC   C1A44247  36.466  44.378   6.032
 3427POPC   D2A44248  36.223  44.462   6.407
 3427POPC   C3A44249  36.268  44.243   6.792
 3427POPC   C4A44250  36.268  44.390   7.193
 3427POPC   C1B44251  35.886  44.767   6.064
 3427POPC   C2B44252  35.755  44.722   6.513
 3427POPC   C3B44253  35.921  44.668   6.920
 3427POPC   C4B44254  35.813  44.872   7.300
 3428POPC   NC344255   8.737  20.746   5.390
 3428POPC   PO444256   9.348  20.656   5.708
 3428POPC   GL144257   8.985  20.725   5.846
 3428POPC   GL244258   8.825  20.429   5.815
 3428POPC   C1A44259   8.820  20.920   6.204
 3428POPC   D2A44260   8.936  20.880   6.610
 3428POPC   C3A44261   8.617  20.807   6.878
 3428POPC   C4A44262   8.536  20.719   7.296
 3428POPC   C1B44263   9.040  20.440   6.260
 3428POPC   C2B44264   8.857  20.368   6.672
 3428POPC   C3B44265   8.946  20.489   7.108
 3428POPC   C4B44266   8.884  20.372   7.569
 3429POPC   NC344267  16.562   8.067   5.533
 3429POPC   PO444268  16.908   8.662   5.503
 3429POPC   GL144269  17.018   8.355   5.837
 3429POPC   GL244270  16.737   8.139   6.001
 3429POPC   C1A44271  17.170   8.197   6.240
 3429POPC   D2A44272  17.027   8.115   6.656
 3429POPC   C3A44273  16.611   8.269   6.768
 3429POPC   C4A44274  16.694   8.467   7.134
 3429POPC   C1B44275  16.819   7.779   6.289
 3429POPC   C2B44276  16.669   7.764   6.729
 3429POPC   C3B44277  16.667   7.930   7.157
 3429POPC   C4B44278  16.477   7.807   7.578
 3430POPC   NC344279  18.636  42.323   5.391
 3430POPC   PO444280  18.998  42.879   5.288
 3430POPC   GL144281  18.881  42.693   5.710
 3430POPC   GL244282  19.051  42.361   5.723
 3430POPC   C1A44283  19.010  42.602   6.176
 3430POPC   D2A44284  19.145  42.369   6.560
 3430POPC   C3A44285  19.165  42.555   6.987
 3430POPC   C4A44286  18.844  42.610   7.289
 3430POPC   C1B44287  18.863  42.128   6.081
 3430POPC   C2B44288  18.666  42.192   6.461
 3430POPC   C3B44289  18.757  42.256   6.881
 3430POPC   C4B44290  18.589  42.173   7.255
 3431POPC   NC344291   9.997  14.683   5.426
 3431POPC   PO444292   9.501  14.148   5.446
 3431POPC   GL144293   9.732  14.363   5.767
 3431POPC   GL244294   9.885  14.070   5.834
 3431POPC   C1A44295   9.592  14.421   6.207
 3431POPC   D2A44296   9.759  14.576   6.613
 3431POPC   C3A44297   9.717  14.295   6.936
 3431POPC   C4A44298   9.563  14.423   7.260
 3431POPC   C1B44299   9.968  13.998   6.251
 3431POPC   C2B44300  10.093  14.156   6.636
 3431POPC   C3B44301  10.202  14.090   7.054
 3431POPC   C4B44302  10.006  14.207   7.453
 3432POPC   NC344303  19.733  29.695   5.417
 3432POPC   PO444304  19.755  30.355   5.508
 3432POPC   GL144305  19.825  30.078   5.818
 3432POPC   GL244306  20.095  29.827   5.830
 3432POPC   C1A44307  19.713  30.021   6.230
 3432POPC   D2A44308  19.981  29.875   6.545
 3432POPC   C3A44309  19.953  29.618   6.878
 3432POPC   C4A44310  19.827  29.778   7.254
 3432POPC   C1B44311  20.214  30.142   6.163
 3432POPC   C2B44312  20.339  30.233   6.591
 3432POPC   C3B44313  20.149  30.112   6.980
 3432POPC   C4B44314  20.111  30.144   7.433
 3433POPC   NC344315   4.148   7.069   5.259
 3433POPC   PO444316   4.707   6.619   5.399
 3433POPC   GL144317   4.466   6.631   5.744
 3433POPC   GL244318   4.293   6.949   5.747
 3433POPC   C1A44319   4.253   6.553   6.119
 3433POPC   D2A44320   4.039   6.663   6.491
 3433POPC   C3A44321   4.169   6.550   6.894
 3433POPC   C4A44322   4.064   6.737   7.269
 3433POPC   C1B44323   4.575   6.968   6.129
 3433POPC   C2B44324   4.471   6.945   6.582
 3433POPC   C3B44325   4.576   6.916   7.030
 3433POPC   C4B44326   4.552   6.526   7.270
 3434POPC   NC344327   1.193  40.278   5.150
 3434POPC   PO444328   1.085  39.794   5.631
 3434POPC   GL144329   1.397  39.966   5.843
 3434POPC   GL244330   1.478  40.284   5.652
 3434POPC   C1A44331   1.394  39.865   6.274
 3434POPC   D2A44332   1.073  40.092   6.477
 3434POPC   C3A44333   1.083  40.011   6.880
 3434POPC   C4A44334   1.211  40.121   7.230
 3434POPC   C1B44335   1.567  40.327   6.117
 3434POPC   C2B44336   1.736  40.247   6.498
 3434POPC   C3B44337   1.585  40.228   6.882
 3434POPC   C4B44338   1.709  40.266   7.284
 3435POPC   NC344339  30.485  13.878   5.549
 3435POPC   PO444340  30.347  14.525   5.415
 3435POPC   GL144341  30.517  14.452   5.813
 3435POPC   GL244342  30.749  14.145   5.889
 3435POPC   C1A44343  30.700  14.539   6.205
 3435POPC   D2A44344  30.874  14.231   6.471
 3435POPC   C3A44345  30.696  14.298   6.884
 3435POPC   C4A44346  30.879  14.333   7.273
 3435POPC   C1B44347  30.366  14.142   6.190
 3435POPC   C2B44348  30.208  14.318   6.569
 3435POPC   C3B44349  30.167  14.230   6.986
 3435POPC   C4B44350  30.393  14.212   7.358
 3436POPC   NC344351   7.185  24.381   5.400
 3436POPC   PO444352   7.829  24.542   5.268
 3436POPC   GL144353   7.658  24.643   5.726
 3436POPC   GL244354   7.336  24.496   5.881
 3436POPC   C1A44355   7.745  24.573   6.194
 3436POPC   D2A44356   7.944  24.384   6.608
 3436POPC   C3A44357   7.695  24.565   6.960
 3436POPC   C4A44358   7.326  24.818   7.089
 3436POPC   C1B44359   7.138  24.205   6.190
 3436POPC   C2B44360   7.205  24.044   6.599
 3436POPC   C3B44361   6.934  24.142   6.951
 3436POPC   C4B44362   7.085  24.378   7.284
 3437POPC   NC344363  18.048   8.088   5.546
 3437POPC   PO444364  18.345   8.648   5.315
 3437POPC   GL144365  18.312   8.473   5.785
 3437POPC   GL244366  18.027   8.351   5.984
 3437POPC   C1A44367  18.559   8.252   6.160
 3437POPC   D2A44368  18.562   7.886   6.512
 3437POPC   C3A44369  18.632   8.004   6.943
 3437POPC   C4A44370  18.486   8.270   7.280
 3437POPC   C1B44371  18.143   7.982   6.223
 3437POPC   C2B44372  18.072   8.047   6.657
 3437POPC   C3B44373  18.135   7.939   7.075
 3437POPC   C4B44374  18.029   8.128   7.490
 3438POPC   NC344375  28.795  33.506   5.461
 3438POPC   PO444376  29.101  34.084   5.417
 3438POPC   GL144377  29.077  33.846   5.804
 3438POPC   GL244378  28.854  34.126   5.882
 3438POPC   C1A44379  29.214  33.594   6.189
 3438POPC   D2A44380  29.358  33.658   6.629
 3438POPC   C3A44381  29.219  33.457   7.026
 3438POPC   C4A44382  28.872  33.696   7.190
 3438POPC   C1B44383  29.173  34.212   6.166
 3438POPC   C2B44384  29.213  34.141   6.567
 3438POPC   C3B44385  29.312  34.089   6.966
 3438POPC   C4B44386  29.024  34.166   7.265
 3439POPC   NC344387  19.178  35.041   5.447
 3439POPC   PO444388  19.152  35.756   5.355
 3439POPC   GL144389  19.029  35.491   5.689
 3439POPC   GL244390  18.675  35.425   5.734
 3439POPC   C1A44391  19.117  35.332   6.075
 3439POPC   D2A44392  19.148  35.463   6.471
 3439POPC   C3A44393  19.268  35.148   6.737
 3439POPC   C4A44394  19.312  35.445   7.047
 3439POPC   C1B44395  18.566  35.221   6.122
 3439POPC   C2B44396  18.761  35.138   6.531
 3439POPC   C3B44397  18.814  35.301   6.946
 3439POPC   C4B44398  18.539  35.199   7.274
 3440POPC   NC344399  10.834  27.295   5.552
 3440POPC   PO444400  11.352  27.655   5.285
 3440POPC   GL144401  11.218  27.740   5.732
 3440POPC   GL244402  11.399  27.427   5.803
 3440POPC   C1A44403  11.353  27.788   6.186
 3440POPC   D2A44404  11.462  27.466   6.535
 3440POPC   C3A44405  11.584  27.684   6.918
 3440POPC   C4A44406  11.248  27.799   7.179
 3440POPC   C1B44407  11.100  27.356   6.151
 3440POPC   C2B44408  10.944  27.362   6.599
 3440POPC   C3B44409  11.132  27.304   7.019
 3440POPC   C4B44410  11.475  27.340   7.295
 3441POPC   NC344411  37.144   7.125   5.393
 3441POPC   PO444412  36.625   6.716   5.338
 3441POPC   GL144413  36.777   6.930   5.760
 3441POPC   GL244414  37.126   7.036   5.905
 3441POPC   C1A44415  36.695   7.013   6.209
 3441POPC   D2A44416  36.493   6.960   6.617
 3441POPC   C3A44417  36.683   6.614   6.824
 3441POPC   C4A44418  36.724   6.403   7.229
 3441POPC   C1B44419  37.159   6.831   6.311
 3441POPC   C2B44420  36.914   6.453   6.417
 3441POPC   C3B44421  37.012   6.210   6.817
 3441POPC   C4B44422  37.233   6.312   7.221
 3442POPC   NC344423  41.245   1.944   5.204
 3442POPC   PO444424  40.739   2.139   5.486
 3442POPC   GL144425  40.694   2.060   5.902
 3442POPC   GL244426  40.831   2.340   5.974
 3442POPC   C1A44427  40.543   2.086   6.330
 3442POPC   D2A44428  40.795   2.108   6.700
 3442POPC   C3A44429  40.614   2.027   7.096
 3442POPC   C4A44430  40.594   2.219   7.516
 3442POPC   C1B44431  41.091   2.036   6.256
 3442POPC   C2B44432  41.291   1.919   6.672
 3442POPC   C3B44433  41.169   2.074   7.059
 3442POPC   C4B44434  40.987   1.899   7.421
 3443POPC   NC344435   3.314  37.908   5.292
 3443POPC   PO444436   3.938  37.618   5.323
 3443POPC   GL144437   3.837  37.528   5.752
 3443POPC   GL244438   3.462  37.480   5.701
 3443POPC   C1A44439   3.632  37.736   6.154
 3443POPC   D2A44440   3.432  37.907   6.553
 3443POPC   C3A44441   3.599  37.818   6.984
 3443POPC   C4A44442   3.368  37.811   7.362
 3443POPC   C1B44443   3.349  37.289   6.104
 3443POPC   C2B44444   3.442  37.368   6.551
 3443POPC   C3B44445   3.202  37.488   6.933
 3443POPC   C4B44446   3.341  37.314   7.313
 3444POPC   NC344447  28.500  22.763   5.484
 3444POPC   PO444448  28.109  23.281   5.377
 3444POPC   GL144449  28.227  23.156   5.794
 3444POPC   GL244450  28.557  23.093   5.892
 3444POPC   C1A44451  28.184  23.085   6.260
 3444POPC   D2A44452  28.362  23.265   6.657
 3444POPC   C3A44453  28.459  22.981   7.018
 3444POPC   C4A44454  28.133  22.881   7.323
 3444POPC   C1B44455  28.665  22.770   6.236
 3444POPC   C2B44456  28.928  22.605   6.616
 3444POPC   C3B44457  28.814  22.508   7.069
 3444POPC   C4B44458  28.740  22.777   7.458
 3445POPC   NC344459  37.299   1.956   5.327
 3445POPC   PO444460  38.063   2.052   5.329
 3445POPC   GL144461  37.902   2.217   5.738
 3445POPC   GL244462  37.570   2.162   5.844
 3445POPC   C1A44463  37.945   2.088   6.193
 3445POPC   D2A44464  37.711   2.181   6.563
 3445POPC   C3A44465  37.839   2.292   6.948
 3445POPC   C4A44466  37.706   2.064   7.313
 3445POPC   C1B44467  37.474   1.897   6.181
 3445POPC   C2B44468  37.295   1.858   6.572
 3445POPC   C3B44469  37.395   1.822   6.990
 3445POPC   C4B44470  37.284   1.753   7.399
 3446POPC   NC344471  22.492  12.009   5.381
 3446POPC   PO444472  21.980  12.472   5.274
 3446POPC   GL144473  22.147  12.293   5.715
 3446POPC   GL244474  22.182  11.916   5.781
 3446POPC   C1A44475  22.209  12.298   6.201
 3446POPC   D2A44476  22.442  12.545   6.542
 3446POPC   C3A44477  22.350  12.316   6.907
 3446POPC   C4A44478  21.979  12.206   7.186
 3446POPC   C1B44479  22.120  11.771   6.215
 3446POPC   C2B44480  22.153  11.925   6.638
 3446POPC   C3B44481  22.174  11.750   7.049
 3446POPC   C4B44482  21.892  11.739   7.399
 3447POPC   NC344483  33.299  38.349   5.329
 3447POPC   PO444484  32.671  38.182   5.314
 3447POPC   GL144485  32.892  38.330   5.694
 3447POPC   GL244486  32.785  38.620   5.853
 3447POPC   C1A44487  32.936  38.236   6.151
 3447POPC   D2A44488  32.831  38.410   6.559
 3447POPC   C3A44489  33.016  38.224   6.939
 3447POPC   C4A44490  32.850  38.461   7.288
 3447POPC   C1B44491  33.211  38.667   6.059
 3447POPC   C2B44492  33.395  38.819   6.467
 3447POPC   C3B44493  33.222  38.691   6.879
 3447POPC   C4B44494  33.187  38.828   7.310
 3448POPC   NC344495  25.327  16.103   5.446
 3448POPC   PO444496  25.237  15.454   5.330
 3448POPC   GL144497  25.221  15.693   5.725
 3448POPC   GL244498  25.562  15.779   5.835
 3448POPC   C1A44499  25.119  15.940   6.111
 3448POPC   D2A44500  25.018  15.855   6.554
 3448POPC   C3A44501  25.247  15.969   6.918
 3448POPC   C4A44502  25.310  16.078   7.333
 3448POPC   C1B44503  25.608  15.953   6.287
 3448POPC   C2B44504  25.661  15.771   6.714
 3448POPC   C3B44505  25.526  15.617   7.149
 3448POPC   C4B44506  25.510  15.350   7.526
 3449POPC   NC344507  31.540  38.286   5.555
 3449POPC   PO444508  31.455  38.982   5.407
 3449POPC   GL144509  31.536  38.751   5.790
 3449POPC   GL244510  31.196  38.578   5.845
 3449POPC   C1A44511  31.596  38.547   6.200
 3449POPC   D2A44512  31.407  38.397   6.570
 3449POPC   C3A44513  31.641  38.514   6.925
 3449POPC   C4A44514  31.681  38.289   7.294
 3449POPC   C1B44515  31.021  38.770   6.236
 3449POPC   C2B44516  30.977  38.655   6.675
 3449POPC   C3B44517  31.147  38.433   7.041
 3449POPC   C4B44518  31.198  38.599   7.492
 3450POPC   NC344519   6.914  26.551   5.521
 3450POPC   PO444520   6.499  27.018   5.296
 3450POPC   GL144521   6.515  26.790   5.738
 3450POPC   GL244522   6.850  26.896   5.885
 3450POPC   C1A44523   6.624  26.567   6.167
 3450POPC   D2A44524   6.561  26.534   6.599
 3450POPC   C3A44525   6.830  26.650   6.914
 3450POPC   C4A44526   6.539  26.631   7.250
 3450POPC   C1B44527   6.628  27.068   6.249
 3450POPC   C2B44528   6.715  27.093   6.662
 3450POPC   C3B44529   6.651  27.091   7.081
 3450POPC   C4B44530   6.756  27.114   7.510
 3451POPC   NC344531  44.852   6.886   5.469
 3451POPC   PO444532  44.425   6.482   5.074
 3451POPC   GL144533  44.382   6.642   5.585
 3451POPC   GL244534  44.660   6.593   5.845
 3451POPC   C1A44535  44.270   6.727   6.088
 3451POPC   D2A44536  44.565   6.601   6.446
 3451POPC   C3A44537  44.558   6.787   6.882
 3451POPC   C4A44538  44.688   6.902   7.312
 3451POPC   C1B44539  44.952   6.371   6.130
 3451POPC   C2B44540   0.147   6.365   6.531
 3451POPC   C3B44541   0.014   6.437   6.940
 3451POPC   C4B44542   0.083   6.574   7.342
 3452POPC   NC344543  10.560   1.474   5.405
 3452POPC   PO444544  10.203   0.915   5.496
 3452POPC   GL144545  10.215   1.254   5.761
 3452POPC   GL244546  10.592   1.224   5.849
 3452POPC   C1A44547  10.246   1.231   6.205
 3452POPC   D2A44548  10.568   1.329   6.445
 3452POPC   C3A44549  10.351   1.279   6.770
 3452POPC   C4A44550  10.440   1.317   7.145
 3452POPC   C1B44551  10.828   0.977   6.146
 3452POPC   C2B44552  10.976   0.936   6.536
 3452POPC   C3B44553  10.786   1.014   6.890
 3452POPC   C4B44554  10.887   1.103   7.275
 3453POPC   NC344555   9.248  16.099   5.567
 3453POPC   PO444556   8.927  15.566   5.402
 3453POPC   GL144557   8.738  15.767   5.783
 3453POPC   GL244558   8.703  16.125   5.779
 3453POPC   C1A44559   8.819  15.821   6.239
 3453POPC   D2A44560   8.926  16.078   6.599
 3453POPC   C3A44561   9.065  15.868   6.949
 3453POPC   C4A44562   9.350  15.666   7.211
 3453POPC   C1B44563   8.710  16.340   6.194
 3453POPC   C2B44564   8.662  16.517   6.624
 3453POPC   C3B44565   8.704  16.308   7.040
 3453POPC   C4B44566   8.724  16.208   7.509
 3454POPC   NC344567   6.677  44.028   5.494
 3454POPC   PO444568   6.792  43.361   5.412
 3454POPC   GL144569   6.670  43.592   5.804
 3454POPC   GL244570   6.337  43.655   5.808
 3454POPC   C1A44571   6.592  43.826   6.230
 3454POPC   D2A44572   6.922  43.894   6.546
 3454POPC   C3A44573   6.901  44.124   6.902
 3454POPC   C4A44574   6.713  43.959   7.228
 3454POPC   C1B44575   6.281  43.406   6.122
 3454POPC   C2B44576   6.348  43.450   6.530
 3454POPC   C3B44577   6.475  43.756   6.815
 3454POPC   C4B44578   6.354  43.583   7.178
 3455POPC   NC344579  27.354   0.366   5.094
 3455POPC   PO444580  27.701   0.673   5.621
 3455POPC   GL144581  27.587   0.302   5.772
 3455POPC   GL244582  27.957   0.235   5.852
 3455POPC   C1A44583  27.278   0.337   6.131
 3455POPC   D2A44584  27.350   0.574   6.507
 3455POPC   C3A44585  27.573   0.376   6.822
 3455POPC   C4A44586  27.629   0.364   7.301
 3455POPC   C1B44587  27.727   0.117   6.245
 3455POPC   C2B44588  27.854  44.943   6.627
 3455POPC   C3B44589  27.982   0.134   7.003
 3455POPC   C4B44590  28.149   0.322   7.361
 3456POPC   NC344591  34.799   6.574   5.287
 3456POPC   PO444592  34.411   7.016   5.453
 3456POPC   GL144593  34.673   6.823   5.755
 3456POPC   GL244594  34.646   6.459   5.768
 3456POPC   C1A44595  34.712   6.729   6.196
 3456POPC   D2A44596  34.885   6.513   6.554
 3456POPC   C3A44597  34.674   6.622   6.939
 3456POPC   C4A44598  34.498   6.827   7.317
 3456POPC   C1B44599  34.921   6.254   6.095
 3456POPC   C2B44600  34.853   6.001   6.495
 3456POPC   C3B44601  34.866   6.152   6.929
 3456POPC   C4B44602  34.753   6.352   7.376
 3457POPC   NC344603  20.938  12.430   5.522
 3457POPC   PO444604  20.600  11.763   5.575
 3457POPC   GL144605  20.482  12.021   5.942
 3457POPC   GL244606  20.777  12.151   5.892
 3457POPC   C1A44607  20.573  12.335   6.309
 3457POPC   D2A44608  20.748  12.291   6.728
 3457POPC   C3A44609  20.518  12.311   7.119
 3457POPC   C4A44610  20.400  11.950   7.385
 3457POPC   C1B44611  20.976  11.987   6.222
 3457POPC   C2B44612  21.162  11.871   6.586
 3457POPC   C3B44613  21.044  11.861   6.983
 3457POPC   C4B44614  21.008  12.219   7.186
 3458POPC   NC344615  14.348  32.851   5.432
 3458POPC   PO444616  14.717  33.392   5.478
 3458POPC   GL144617  14.550  33.118   5.832
 3458POPC   GL244618  14.188  33.144   5.826
 3458POPC   C1A44619  14.626  33.239   6.292
 3458POPC   D2A44620  14.603  33.044   6.712
 3458POPC   C3A44621  14.606  33.210   7.145
 3458POPC   C4A44622  14.640  33.219   7.625
 3458POPC   C1B44623  14.246  32.918   6.212
 3458POPC   C2B44624  14.151  32.775   6.622
 3458POPC   C3B44625  14.200  32.913   7.046
 3458POPC   C4B44626  14.305  32.838   7.472
 3459POPC   NC344627   3.312  16.743   5.502
 3459POPC   PO444628   3.872  16.460   5.480
 3459POPC   GL144629   3.696  16.652   5.850
 3459POPC   GL244630   3.934  16.909   5.806
 3459POPC   C1A44631   3.418  16.778   6.206
 3459POPC   D2A44632   3.588  16.858   6.603
 3459POPC   C3A44633   3.467  16.777   7.008
 3459POPC   C4A44634   3.531  16.913   7.447
 3459POPC   C1B44635   3.855  17.086   6.212
 3459POPC   C2B44636   3.769  17.321   6.597
 3459POPC   C3B44637   3.809  17.132   7.013
 3459POPC   C4B44638   4.053  16.915   7.330
 3460POPC   NC344639  40.004  11.971   5.348
 3460POPC   PO444640  40.569  12.375   5.471
 3460POPC   GL144641  40.203  12.182   5.780
 3460POPC   GL244642  39.798  12.097   5.812
 3460POPC   C1A44643  40.026  12.281   6.224
 3460POPC   D2A44644  39.891  12.382   6.652
 3460POPC   C3A44645  39.857  12.044   6.922
 3460POPC   C4A44646  40.310  12.074   7.035
 3460POPC   C1B44647  39.890  11.789   6.140
 3460POPC   C2B44648  40.123  11.862   6.525
 3460POPC   C3B44649  40.146  11.622   6.907
 3460POPC   C4B44650  39.890  11.568   7.212
 3461POPC   NC344651   9.689  39.444   5.054
 3461POPC   PO444652   9.625  38.890   5.280
 3461POPC   GL144653   9.831  39.070   5.687
 3461POPC   GL244654  10.096  38.829   5.778
 3461POPC   C1A44655   9.903  39.344   6.119
 3461POPC   D2A44656   9.732  39.570   6.517
 3461POPC   C3A44657   9.815  39.439   6.977
 3461POPC   C4A44658   9.624  39.166   7.308
 3461POPC   C1B44659   9.816  38.856   6.169
 3461POPC   C2B44660   9.903  39.079   6.571
 3461POPC   C3B44661   9.953  38.930   6.974
 3461POPC   C4B44662   9.842  38.656   7.336
 3462POPC   NC344663  28.200  40.273   5.412
 3462POPC   PO444664  28.725  40.007   5.158
 3462POPC   GL144665  28.632  39.951   5.662
 3462POPC   GL244666  28.283  39.922   5.763
 3462POPC   C1A44667  28.575  40.115   6.146
 3462POPC   D2A44668  28.359  40.054   6.574
 3462POPC   C3A44669  28.487  40.170   7.013
 3462POPC   C4A44670  28.657  40.224   7.449
 3462POPC   C1B44671  28.212  39.662   6.132
 3462POPC   C2B44672  28.344  39.539   6.534
 3462POPC   C3B44673  28.276  39.685   6.956
 3462POPC   C4B44674  28.577  39.739   7.279
 3463POPC   NC344675  27.983  32.502   5.659
 3463POPC   PO444676  28.461  32.852   5.320
 3463POPC   GL144677  28.333  32.939   5.708
 3463POPC   GL244678  28.343  33.292   5.686
 3463POPC   C1A44679  28.502  32.840   6.141
 3463POPC   D2A44680  28.581  33.001   6.563
 3463POPC   C3A44681  28.549  32.769   6.941
 3463POPC   C4A44682  28.367  32.911   7.331
 3463POPC   C1B44683  28.303  33.325   6.133
 3463POPC   C2B44684  28.094  33.199   6.502
 3463POPC   C3B44685  28.160  33.132   6.922
 3463POPC   C4B44686  28.242  33.417   7.266
 3464POPC   NC344687  39.454  27.816   5.486
 3464POPC   PO444688  38.897  27.446   5.452
 3464POPC   GL144689  39.034  27.704   5.845
 3464POPC   GL244690  39.350  27.749   5.961
 3464POPC   C1A44691  39.019  27.789   6.329
 3464POPC   D2A44692  39.322  27.716   6.629
 3464POPC   C3A44693  39.231  27.822   7.059
 3464POPC   C4A44694  38.966  27.482   7.222
 3464POPC   C1B44695  39.397  27.327   6.134
 3464POPC   C2B44696  39.469  27.211   6.559
 3464POPC   C3B44697  39.377  27.343   6.977
 3464POPC   C4B44698  39.654  27.588   7.232
 3465POPC   NC344699  21.315   8.608   5.268
 3465POPC   PO444700  21.438   9.241   5.305
 3465POPC   GL144701  21.475   8.964   5.658
 3465POPC   GL244702  21.382   8.626   5.776
 3465POPC   C1A44703  21.460   9.021   6.105
 3465POPC   D2A44704  21.258   8.902   6.509
 3465POPC   C3A44705  21.455   9.003   6.910
 3465POPC   C4A44706  21.219   8.911   7.267
 3465POPC   C1B44707  21.535   8.514   6.203
 3465POPC   C2B44708  21.619   8.568   6.650
 3465POPC   C3B44709  21.530   8.531   7.081
 3465POPC   C4B44710  21.677   8.701   7.459
 3466POPC   NC344711   5.237   2.182   5.556
 3466POPC   PO444712   4.887   2.880   5.433
 3466POPC   GL144713   5.180   2.845   5.810
 3466POPC   GL244714   5.299   2.540   5.921
 3466POPC   C1A44715   5.226   2.964   6.251
 3466POPC   D2A44716   4.941   3.087   6.579
 3466POPC   C3A44717   5.121   3.013   6.999
 3466POPC   C4A44718   4.961   2.881   7.394
 3466POPC   C1B44719   5.143   2.423   6.309
 3466POPC   C2B44720   5.146   2.594   6.689
 3466POPC   C3B44721   4.924   2.503   7.039
 3466POPC   C4B44722   5.123   2.390   7.384
 3467POPC   NC344723  32.656  35.412   5.551
 3467POPC   PO444724  32.084  35.101   5.490
 3467POPC   GL144725  32.163  35.338   5.837
 3467POPC   GL244726  32.224  35.020   5.986
 3467POPC   C1A44727  32.189  35.468   6.288
 3467POPC   D2A44728  32.127  35.684   6.691
 3467POPC   C3A44729  32.494  35.572   6.946
 3467POPC   C4A44730  32.393  35.264   7.231
 3467POPC   C1B44731  31.952  34.847   6.287
 3467POPC   C2B44732  32.033  35.030   6.684
 3467POPC   C3B44733  32.049  34.900   7.091
 3467POPC   C4B44734  31.785  34.994   7.390
 3468POPC   NC344735  19.770  19.775   5.266
 3468POPC   PO444736  20.349  20.045   5.328
 3468POPC   GL144737  20.068  19.889   5.693
 3468POPC   GL244738  19.657  19.890   5.766
 3468POPC   C1A44739  19.990  19.875   6.155
 3468POPC   D2A44740  19.698  19.912   6.515
 3468POPC   C3A44741  19.874  19.885   6.926
 3468POPC   C4A44742  20.047  19.503   7.070
 3468POPC   C1B44743  19.451  19.632   6.116
 3468POPC   C2B44744  19.236  19.670   6.546
 3468POPC   C3B44745  19.375  19.653   6.976
 3468POPC   C4B44746  19.326  19.354   7.299
 3469POPC   NC344747  39.589  37.781   5.382
 3469POPC   PO444748  39.004  37.388   5.497
 3469POPC   GL144749  39.143  37.602   5.861
 3469POPC   GL244750  39.239  37.282   5.979
 3469POPC   C1A44751  39.298  37.810   6.274
 3469POPC   D2A44752  39.577  38.006   6.619
 3469POPC   C3A44753  39.490  37.955   7.068
 3469POPC   C4A44754  39.267  37.811   7.433
 3469POPC   C1B44755  38.989  37.417   6.342
 3469POPC   C2B44756  39.136  37.633   6.745
 3469POPC   C3B44757  39.444  37.459   7.069
 3469POPC   C4B44758  39.465  37.325   7.494
 3470POPC   NC344759   6.887  10.262   5.476
 3470POPC   PO444760   6.571  10.872   5.435
 3470POPC   GL144761   6.548  10.675   5.807
 3470POPC   GL244762   6.420  10.330   5.817
 3470POPC   C1A44763   6.797  10.558   6.147
 3470POPC   D2A44764   6.779  10.204   6.424
 3470POPC   C3A44765   6.754  10.368   6.854
 3470POPC   C4A44766   6.824  10.484   7.298
 3470POPC   C1B44767   6.295  10.498   6.248
 3470POPC   C2B44768   6.359  10.660   6.675
 3470POPC   C3B44769   6.348  10.526   7.149
 3470POPC   C4B44770   6.441  10.519   7.652
 3471POPC   NC344771   2.218   5.978   5.215
 3471POPC   PO444772   1.648   5.683   5.249
 3471POPC   GL144773   1.909   5.736   5.670
 3471POPC   GL244774   2.099   6.079   5.718
 3471POPC   C1A44775   2.017   5.807   6.132
 3471POPC   D2A44776   1.997   5.971   6.552
 3471POPC   C3A44777   2.192   5.692   6.867
 3471POPC   C4A44778   2.069   5.706   7.294
 3471POPC   C1B44779   2.328   6.229   6.129
 3471POPC   C2B44780   2.475   6.113   6.591
 3471POPC   C3B44781   2.278   6.193   7.010
 3471POPC   C4B44782   2.300   6.116   7.467
 3472POPC   NC344783  30.576   6.422   5.386
 3472POPC   PO444784  30.415   7.108   5.407
 3472POPC   GL144785  30.669   6.879   5.745
 3472POPC   GL244786  31.057   6.953   5.781
 3472POPC   C1A44787  30.803   6.572   6.073
 3472POPC   D2A44788  30.583   6.427   6.431
 3472POPC   C3A44789  30.708   6.557   6.844
 3472POPC   C4A44790  30.564   6.511   7.264
 3472POPC   C1B44791  30.904   7.086   6.154
 3472POPC   C2B44792  30.938   6.888   6.516
 3472POPC   C3B44793  30.995   7.082   6.895
 3472POPC   C4B44794  30.972   6.809   7.211
 3473POPC   NC344795  10.981  38.313   5.387
 3473POPC   PO444796  10.300  38.427   5.364
 3473POPC   GL144797  10.568  38.294   5.715
 3473POPC   GL244798  10.575  38.576   5.868
 3473POPC   C1A44799  10.683  38.170   6.187
 3473POPC   D2A44800  10.863  38.118   6.630
 3473POPC   C3A44801  10.593  38.119   7.043
 3473POPC   C4A44802  10.661  38.060   7.553
 3473POPC   C1B44803  10.678  38.687   6.288
 3473POPC   C2B44804  10.519  38.498   6.665
 3473POPC   C3B44805  10.280  38.522   7.066
 3473POPC   C4B44806  10.344  38.553   7.527
 3474POPC   NC344807  19.844  21.984   5.385
 3474POPC   PO444808  19.507  22.518   5.174
 3474POPC   GL144809  19.724  22.436   5.658
 3474POPC   GL244810  19.723  22.077   5.855
 3474POPC   C1A44811  19.952  22.420   6.139
 3474POPC   D2A44812  19.982  22.165   6.587
 3474POPC   C3A44813  20.012  22.389   7.025
 3474POPC   C4A44814  19.662  22.560   7.293
 3474POPC   C1B44815  19.455  21.872   6.170
 3474POPC   C2B44816  19.363  21.995   6.596
 3474POPC   C3B44817  19.550  22.148   6.971
 3474POPC   C4B44818  19.522  22.082   7.422
 3475POPC   NC344819   5.477  22.004   5.346
 3475POPC   PO444820   4.873  22.290   5.377
 3475POPC   GL144821   5.117  22.095   5.728
 3475POPC   GL244822   5.419  22.248   5.796
 3475POPC   C1A44823   5.029  21.979   6.162
 3475POPC   D2A44824   5.155  22.108   6.573
 3475POPC   C3A44825   5.108  21.846   6.939
 3475POPC   C4A44826   5.103  22.108   7.300
 3475POPC   C1B44827   5.571  22.436   6.160
 3475POPC   C2B44828   5.505  22.492   6.586
 3475POPC   C3B44829   5.502  22.253   6.968
 3475POPC   C4B44830   5.625  22.379   7.372
 3476POPC   NC344831  29.901  22.051   5.393
 3476POPC   PO444832  30.314  22.608   5.220
 3476POPC   GL144833  30.127  22.439   5.652
 3476POPC   GL244834  30.023  22.104   5.876
 3476POPC   C1A44835  30.074  22.550   6.102
 3476POPC   D2A44836  29.934  22.283   6.455
 3476POPC   C3A44837  30.184  22.168   6.817
 3476POPC   C4A44838  30.063  22.412   7.181
 3476POPC   C1B44839  29.626  22.035   6.119
 3476POPC   C2B44840  29.483  21.848   6.522
 3476POPC   C3B44841  29.554  21.804   6.967
 3476POPC   C4B44842  29.919  21.911   7.253
 3477POPC   NC344843  28.416  14.701   5.332
 3477POPC   PO444844  28.072  14.172   5.540
 3477POPC   GL144845  28.347  14.441   5.778
 3477POPC   GL244846  28.674  14.320   5.678
 3477POPC   C1A44847  28.348  14.587   6.218
 3477POPC   D2A44848  28.342  14.436   6.658
 3477POPC   C3A44849  28.547  14.584   7.040
 3477POPC   C4A44850  28.368  14.523   7.441
 3477POPC   C1B44851  28.687  14.190   6.130
 3477POPC   C2B44852  28.640  13.995   6.546
 3477POPC   C3B44853  28.742  14.110   6.959
 3477POPC   C4B44854  28.769  14.177   7.404
 3478POPC   NC344855  28.553   7.813   5.520
 3478POPC   PO444856  28.196   8.401   5.417
 3478POPC   GL144857  28.240   8.157   5.780
 3478POPC   GL244858  28.444   8.430   5.903
 3478POPC   C1A44859  28.270   8.078   6.241
 3478POPC   D2A44860  28.052   8.042   6.642
 3478POPC   C3A44861  28.352   8.172   6.938
 3478POPC   C4A44862  28.487   7.942   7.328
 3478POPC   C1B44863  28.036   8.525   6.063
 3478POPC   C2B44864  28.052   8.537   6.510
 3478POPC   C3B44865  27.965   8.527   6.955
 3478POPC   C4B44866  28.241   8.484   7.348
 3479POPC   NC344867  20.336   8.571   5.468
 3479POPC   PO444868  19.774   8.979   5.274
 3479POPC   GL144869  19.806   9.140   5.744
 3479POPC   GL244870  20.181   9.112   5.801
 3479POPC   C1A44871  19.607   9.181   6.175
 3479POPC   D2A44872  19.773   9.175   6.627
 3479POPC   C3A44873  19.596   8.826   6.868
 3479POPC   C4A44874  19.697   8.614   7.252
 3479POPC   C1B44875  20.054   8.945   6.228
 3479POPC   C2B44876  20.150   8.771   6.642
 3479POPC   C3B44877  20.083   8.912   7.062
 3479POPC   C4B44878  20.031   8.889   7.513
 3480POPC   NC344879  24.099  40.289   5.516
 3480POPC   PO444880  24.204  40.880   5.423
 3480POPC   GL144881  24.351  40.872   5.823
 3480POPC   GL244882  24.291  40.564   5.947
 3480POPC   C1A44883  24.216  41.011   6.238
 3480POPC   D2A44884  24.301  40.789   6.627
 3480POPC   C3A44885  24.351  40.959   7.010
 3480POPC   C4A44886  24.629  40.830   7.337
 3480POPC   C1B44887  24.233  40.370   6.347
 3480POPC   C2B44888  24.318  40.277   6.782
 3480POPC   C3B44889  24.361  40.400   7.228
 3480POPC   C4B44890  24.519  40.343   7.664
 3481POPC   NC344891  37.237  34.712   5.545
 3481POPC   PO444892  36.799  35.108   5.390
 3481POPC   GL144893  36.794  34.739   5.803
 3481POPC   GL244894  37.109  34.554   5.995
 3481POPC   C1A44895  36.686  34.549   6.277
 3481POPC   D2A44896  36.996  34.552   6.642
 3481POPC   C3A44897  36.869  34.424   7.091
 3481POPC   C4A44898  36.502  34.547   7.353
 3481POPC   C1B44899  37.380  34.826   6.251
 3481POPC   C2B44900  37.375  34.914   6.690
 3481POPC   C3B44901  37.328  34.642   7.031
 3481POPC   C4B44902  37.345  34.678   7.485
 3482POPC   NC344903   6.180  13.856   4.945
 3482POPC   PO444904   5.920  13.446   5.355
 3482POPC   GL144905   5.926  13.249   5.748
 3482POPC   GL244906   6.182  13.431   5.938
 3482POPC   C1A44907   5.818  13.204   6.189
 3482POPC   D2A44908   6.057  13.338   6.530
 3482POPC   C3A44909   5.875  13.325   6.917
 3482POPC   C4A44910   6.129  13.291   7.318
 3482POPC   C1B44911   6.032  13.761   6.239
 3482POPC   C2B44912   5.982  13.852   6.666
 3482POPC   C3B44913   6.045  13.997   7.054
 3482POPC   C4B44914   5.858  13.714   7.265
 3483POPC   NC344915  22.844  41.962   5.161
 3483POPC   PO444916  23.262  42.304   5.598
 3483POPC   GL144917  23.049  42.093   5.858
 3483POPC   GL244918  22.681  42.134   5.926
 3483POPC   C1A44919  23.103  42.051   6.257
 3483POPC   D2A44920  22.853  42.157   6.596
 3483POPC   C3A44921  23.048  42.099   6.990
 3483POPC   C4A44922  22.959  42.325   7.370
 3483POPC   C1B44923  22.643  42.485   6.224
 3483POPC   C2B44924  22.790  42.680   6.595
 3483POPC   C3B44925  22.691  42.497   6.971
 3483POPC   C4B44926  22.466  42.517   7.350
 3484POPC   NC344927  34.157  15.350   5.396
 3484POPC   PO444928  34.752  15.107   5.244
 3484POPC   GL144929  34.626  15.072   5.694
 3484POPC   GL244930  34.890  14.841   5.796
 3484POPC   C1A44931  34.636  15.265   6.126
 3484POPC   D2A44932  34.869  15.159   6.517
 3484POPC   C3A44933  34.610  15.209   6.889
 3484POPC   C4A44934  34.202  15.304   7.032
 3484POPC   C1B44935  34.923  14.532   6.137
 3484POPC   C2B44936  35.088  14.619   6.555
 3484POPC   C3B44937  34.968  14.785   6.924
 3484POPC   C4B44938  34.675  14.817   7.216
 3485POPC   NC344939  26.419  26.484   5.502
 3485POPC   PO444940  26.933  27.002   5.437
 3485POPC   GL144941  26.751  27.077   5.805
 3485POPC   GL244942  26.879  26.787   5.926
 3485POPC   C1A44943  26.674  27.158   6.203
 3485POPC   D2A44944  26.802  26.837   6.463
 3485POPC   C3A44945  26.787  27.042   6.843
 3485POPC   C4A44946  26.763  26.951   7.236
 3485POPC   C1B44947  27.149  26.544   6.190
 3485POPC   C2B44948  27.084  26.369   6.548
 3485POPC   C3B44949  26.910  26.555   6.897
 3485POPC   C4B44950  27.079  26.499   7.275
 3486POPC   NC344951  15.394  39.918   5.476
 3486POPC   PO444952  14.714  39.672   5.459
 3486POPC   GL144953  15.016  39.703   5.795
 3486POPC   GL244954  15.028  40.068   5.829
 3486POPC   C1A44955  15.076  39.768   6.247
 3486POPC   D2A44956  14.824  39.936   6.551
 3486POPC   C3A44957  14.903  39.853   6.972
 3486POPC   C4A44958  15.082  39.563   7.258
 3486POPC   C1B44959  15.259  40.233   6.218
 3486POPC   C2B44960  15.181  40.298   6.664
 3486POPC   C3B44961  15.237  40.197   7.126
 3486POPC   C4B44962  15.308  40.427   7.521
 3487POPC   NC344963  44.297  24.795   5.492
 3487POPC   PO444964  43.586  24.595   5.337
 3487POPC   GL144965  43.771  24.423   5.756
 3487POPC   GL244966  44.133  24.314   5.810
 3487POPC   C1A44967  43.753  24.329   6.211
 3487POPC   D2A44968  43.734  24.541   6.555
 3487POPC   C3A44969  43.749  24.376   6.935
 3487POPC   C4A44970  43.783  24.645   7.253
 3487POPC   C1B44971  44.110  24.679   6.147
 3487POPC   C2B44972  44.129  24.853   6.585
 3487POPC   C3B44973  44.093  24.968   7.026
 3487POPC   C4B44974  44.245  24.803   7.444
 3488POPC   NC344975  31.183  18.868   5.423
 3488POPC   PO444976  31.740  19.239   5.451
 3488POPC   GL144977  31.529  19.184   5.813
 3488POPC   GL244978  31.730  19.272   6.021
 3488POPC   C1A44979  31.325  18.949   6.139
 3488POPC   D2A44980  31.090  19.147   6.456
 3488POPC   C3A44981  31.127  19.102   6.897
 3488POPC   C4A44982  31.421  19.066   7.235
 3488POPC   C1B44983  31.879  18.994   6.287
 3488POPC   C2B44984  32.084  19.118   6.657
 3488POPC   C3B44985  31.915  18.947   7.026
 3488POPC   C4B44986  31.919  19.204   7.352
 3489POPC   NC344987   4.462  40.684   5.386
 3489POPC   PO444988   4.076  41.191   5.363
 3489POPC   GL144989   4.162  40.952   5.778
 3489POPC   GL244990   4.323  40.637   5.862
 3489POPC   C1A44991   4.328  40.970   6.236
 3489POPC   D2A44992   4.247  40.777   6.667
 3489POPC   C3A44993   4.178  41.044   7.065
 3489POPC   C4A44994   4.093  41.110   7.526
 3489POPC   C1B44995   4.438  40.455   6.272
 3489POPC   C2B44996   4.705  40.481   6.631
 3489POPC   C3B44997   4.606  40.632   7.003
 3489POPC   C4B44998   4.201  40.523   7.154
 3490POPC   NC344999  39.867  41.875   5.423
 3490POPC   PO445000  39.900  42.569   5.397
 3490POPC   GL145001  39.814  42.332   5.796
 3490POPC   GL245002  39.637  41.977   5.854
 3490POPC   C1A45003  40.025  42.414   6.209
 3490POPC   D2A45004  40.099  42.168   6.603
 3490POPC   C3A45005  40.171  42.287   7.023
 3490POPC   C4A45006  40.388  42.130   7.394
 3490POPC   C1B45007  39.729  42.003   6.279
 3490POPC   C2B45008  39.655  41.905   6.677
 3490POPC   C3B45009  39.805  41.936   7.082
 3490POPC   C4B45010  39.575  41.934   7.419
 3491POPC   NC345011  12.035   4.672   5.385
 3491POPC   PO445012  11.652   4.047   5.215
 3491POPC   GL145013  12.014   4.211   5.564
 3491POPC   GL245014  11.783   4.426   5.732
 3491POPC   C1A45015  12.191   4.274   6.045
 3491POPC   D2A45016  12.458   4.264   6.444
 3491POPC   C3A45017  12.319   4.383   6.883
 3491POPC   C4A45018  12.049   4.242   7.199
 3491POPC   C1B45019  11.768   4.546   6.133
 3491POPC   C2B45020  11.946   4.443   6.519
 3491POPC   C3B45021  11.683   4.355   6.871
 3491POPC   C4B45022  11.725   4.621   7.224
 3492POPC   NC345023  13.496  13.730   5.387
 3492POPC   PO445024  13.529  14.460   5.437
 3492POPC   GL145025  13.746  14.345   5.809
 3492POPC   GL245026  13.642  14.023   5.790
 3492POPC   C1A45027  13.915  14.407   6.247
 3492POPC   D2A45028  14.076  14.688   6.577
 3492POPC   C3A45029  13.885  14.661   6.962
 3492POPC   C4A45030  13.683  14.358   7.180
 3492POPC   C1B45031  13.449  14.193   6.205
 3492POPC   C2B45032  13.542  14.350   6.643
 3492POPC   C3B45033  13.274  14.170   6.971
 3492POPC   C4B45034  13.308  14.095   7.383
 3493POPC   NC345035  33.318   8.555   5.130
 3493POPC   PO445036  32.930   9.096   5.470
 3493POPC   GL145037  33.015   8.990   5.875
 3493POPC   GL245038  33.305   9.210   5.833
 3493POPC   C1A45039  32.947   9.006   6.316
 3493POPC   D2A45040  32.715   9.014   6.676
 3493POPC   C3A45041  32.845   8.917   7.055
 3493POPC   C4A45042  32.775   9.210   7.364
 3493POPC   C1B45043  33.444   9.063   6.232
 3493POPC   C2B45044  33.315   9.003   6.677
 3493POPC   C3B45045  33.521   9.081   7.059
 3493POPC   C4B45046  33.251   8.984   7.379
 3494POPC   NC345047  15.924   6.734   5.238
 3494POPC   PO445048  15.903   7.405   5.227
 3494POPC   GL145049  16.060   7.366   5.679
 3494POPC   GL245050  15.765   7.233   5.812
 3494POPC   C1A45051  16.010   7.468   6.163
 3494POPC   D2A45052  15.765   7.495   6.555
 3494POPC   C3A45053  15.916   7.509   6.968
 3494POPC   C4A45054  16.084   7.471   7.348
 3494POPC   C1B45055  15.664   7.081   6.243
 3494POPC   C2B45056  15.360   7.145   6.539
 3494POPC   C3B45057  15.533   7.178   6.907
 3494POPC   C4B45058  15.621   7.069   7.294
 3495POPC   NC345059  18.457  31.738   5.400
 3495POPC   PO445060  18.082  31.171   5.456
 3495POPC   GL145061  18.303  31.432   5.795
 3495POPC   GL245062  18.227  31.800   5.832
 3495POPC   C1A45063  18.459  31.500   6.223
 3495POPC   D2A45064  18.216  31.518   6.650
 3495POPC   C3A45065  18.404  31.512   7.096
 3495POPC   C4A45066  18.216  31.380   7.504
 3495POPC   C1B45067  18.031  31.816   6.201
 3495POPC   C2B45068  18.009  31.989   6.605
 3495POPC   C3B45069  17.988  31.842   7.030
 3495POPC   C4B45070  18.130  31.900   7.442
 3496POPC   NC345071  12.514   1.387   5.283
 3496POPC   PO445072  13.105   1.298   4.985
 3496POPC   GL145073  12.893   1.271   5.569
 3496POPC   GL245074  12.958   0.953   5.794
 3496POPC   C1A45075  12.645   1.338   5.968
 3496POPC   D2A45076  12.501   1.150   6.371
 3496POPC   C3A45077  12.647   1.229   6.784
 3496POPC   C4A45078  12.704   1.318   7.201
 3496POPC   C1B45079  13.134   1.244   6.139
 3496POPC   C2B45080  13.325   1.413   6.525
 3496POPC   C3B45081  13.170   1.178   6.872
 3496POPC   C4B45082  13.219   1.228   7.281
 3497POPC   NC345083  12.403   2.338   5.452
 3497POPC   PO445084  12.099   2.918   5.256
 3497POPC   GL145085  12.160   2.684   5.712
 3497POPC   GL245086  12.536   2.685   5.823
 3497POPC   C1A45087  11.974   2.668   6.158
 3497POPC   D2A45088  11.986   2.936   6.560
 3497POPC   C3A45089  11.790   2.769   6.941
 3497POPC   C4A45090  11.804   2.697   7.375
 3497POPC   C1B45091  12.485   2.738   6.299
 3497POPC   C2B45092  12.369   2.657   6.744
 3497POPC   C3B45093  12.260   2.752   7.181
 3497POPC   C4B45094  12.311   2.566   7.583
 3498POPC   NC345095  10.114   9.862   5.362
 3498POPC   PO445096  10.770   9.968   5.454
 3498POPC   GL145097  10.608  10.020   5.883
 3498POPC   GL245098  10.250   9.981   5.845
 3498POPC   C1A45099  10.701   9.760   6.288
 3498POPC   D2A45100  10.714   9.489   6.680
 3498POPC   C3A45101  10.683   9.781   7.007
 3498POPC   C4A45102  10.733  10.219   7.112
 3498POPC   C1B45103  10.342   9.547   5.980
 3498POPC   C2B45104  10.262   9.452   6.426
 3498POPC   C3B45105  10.175   9.408   6.867
 3498POPC   C4B45106  10.302   9.522   7.292
 3499POPC   NC345107  17.379   5.787   5.438
 3499POPC   PO445108  17.126   6.444   5.495
 3499POPC   GL145109  17.466   6.247   5.787
 3499POPC   GL245110  17.464   5.872   5.924
 3499POPC   C1A45111  17.782   6.185   6.129
 3499POPC   D2A45112  17.576   5.892   6.430
 3499POPC   C3A45113  17.592   5.913   6.869
 3499POPC   C4A45114  17.451   6.166   7.169
 3499POPC   C1B45115  17.173   5.585   6.120
 3499POPC   C2B45116  17.150   5.412   6.548
 3499POPC   C3B45117  17.200   5.562   6.944
 3499POPC   C4B45118  17.518   5.490   7.178
 3500POPC   NC345119  17.384  24.077   5.580
 3500POPC   PO445120  17.583  23.475   5.255
 3500POPC   GL145121  17.485  23.526   5.771
 3500POPC   GL245122  17.496  23.866   5.999
 3500POPC   C1A45123  17.527  23.472   6.268
 3500POPC   D2A45124  17.665  23.797   6.563
 3500POPC   C3A45125  17.552  23.828   6.990
 3500POPC   C4A45126  17.688  23.765   7.412
 3500POPC   C1B45127  17.160  24.036   6.223
 3500POPC   C2B45128  17.182  24.008   6.643
 3500POPC   C3B45129  17.181  24.221   6.997
 3500POPC   C4B45130  17.332  24.101   7.372
 3501POPC   NC345131   7.894  10.551   5.392
 3501POPC   PO445132   7.315  10.416   5.543
 3501POPC   GL145133   7.413  10.594   5.905
 3501POPC   GL245134   7.765  10.712   5.860
 3501POPC   C1A45135   7.267  10.341   6.261
 3501POPC   D2A45136   7.221  10.234   6.690
 3501POPC   C3A45137   7.276  10.580   7.022
 3501POPC   C4A45138   7.104  10.928   7.303
 3501POPC   C1B45139   7.764  10.332   6.142
 3501POPC   C2B45140   7.661  10.488   6.564
 3501POPC   C3B45141   7.844  10.463   6.963
 3501POPC   C4B45142   7.778  10.799   7.238
 3502POPC   NC345143   0.644   3.663   5.465
 3502POPC   PO445144   0.198   3.232   5.474
 3502POPC   GL145145   0.383   3.399   5.837
 3502POPC   GL245146   0.694   3.232   5.766
 3502POPC   C1A45147   0.440   3.392   6.303
 3502POPC   D2A45148   0.512   3.734   6.608
 3502POPC   C3A45149   0.383   3.783   7.047
 3502POPC   C4A45150   0.705   3.966   7.308
 3502POPC   C1B45151   0.901   3.207   6.142
 3502POPC   C2B45152   0.936   3.408   6.521
 3502POPC   C3B45153   0.792   3.254   6.928
 3502POPC   C4B45154   0.355   3.164   6.986
 3503POPC   NC345155   7.275  38.232   5.272
 3503POPC   PO445156   7.371  38.840   5.439
 3503POPC   GL145157   7.422  38.566   5.828
 3503POPC   GL245158   7.242  38.233   5.837
 3503POPC   C1A45159   7.405  38.663   6.302
 3503POPC   D2A45160   7.337  38.839   6.740
 3503POPC   C3A45161   7.231  38.605   7.113
 3503POPC   C4A45162   7.150  38.783   7.528
 3503POPC   C1B45163   7.558  38.191   6.182
 3503POPC   C2B45164   7.707  38.259   6.628
 3503POPC   C3B45165   7.611  38.207   7.069
 3503POPC   C4B45166   7.261  37.990   7.210
 3504POPC   NC345167  27.288  32.721   5.716
 3504POPC   PO445168  26.871  32.834   5.242
 3504POPC   GL145169  26.756  32.946   5.688
 3504POPC   GL245170  26.416  32.844   5.785
 3504POPC   C1A45171  26.653  33.203   6.078
 3504POPC   D2A45172  26.461  33.280   6.486
 3504POPC   C3A45173  26.695  33.084   6.807
 3504POPC   C4A45174  27.053  33.291   7.035
 3504POPC   C1B45175  26.420  32.717   6.230
 3504POPC   C2B45176  26.242  32.805   6.645
 3504POPC   C3B45177  26.326  32.793   7.096
 3504POPC   C4B45178  26.606  33.100   7.303
 3505POPC   NC345179  17.660  37.004   5.415
 3505POPC   PO445180  17.193  36.502   5.449
 3505POPC   GL145181  17.377  36.577   5.844
 3505POPC   GL245182  17.434  36.957   5.880
 3505POPC   C1A45183  17.363  36.666   6.291
 3505POPC   D2A45184  17.369  36.969   6.610
 3505POPC   C3A45185  17.536  36.804   6.976
 3505POPC   C4A45186  17.551  36.527   7.335
 3505POPC   C1B45187  17.698  37.118   6.230
 3505POPC   C2B45188  17.834  37.174   6.671
 3505POPC   C3B45189  17.678  37.300   7.077
 3505POPC   C4B45190  17.371  37.092   7.345
 3506POPC   NC345191  12.131  28.561   5.528
 3506POPC   PO445192  12.150  27.890   5.761
 3506POPC   GL145193  12.198  28.275   5.958
 3506POPC   GL245194  11.897  28.480   5.974
 3506POPC   C1A45195  12.088  28.325   6.405
 3506POPC   D2A45196  11.800  28.300   6.718
 3506POPC   C3A45197  12.034  28.282   7.020
 3506POPC   C4A45198  12.096  28.034   7.309
 3506POPC   C1B45199  12.242  28.745   6.162
 3506POPC   C2B45200  12.403  28.781   6.566
 3506POPC   C3B45201  12.364  28.660   6.966
 3506POPC   C4B45202  12.154  28.626   7.353
 3507POPC   NC345203   3.300  26.610   5.407
 3507POPC   PO445204   3.827  27.035   5.427
 3507POPC   GL145205   3.540  26.890   5.767
 3507POPC   GL245206   3.586  26.525   5.838
 3507POPC   C1A45207   3.590  26.939   6.199
 3507POPC   D2A45208   3.459  27.059   6.583
 3507POPC   C3A45209   3.345  26.856   6.952
 3507POPC   C4A45210   3.637  27.033   7.265
 3507POPC   C1B45211   3.263  26.498   6.185
 3507POPC   C2B45212   3.156  26.282   6.611
 3507POPC   C3B45213   3.256  26.348   7.063
 3507POPC   C4B45214   3.604  26.532   7.284
 3508POPC   NC345215  10.564  41.506   5.381
 3508POPC   PO445216  10.642  42.150   5.151
 3508POPC   GL145217  10.709  42.045   5.633
 3508POPC   GL245218  10.443  41.871   5.832
 3508POPC   C1A45219  10.898  41.813   6.053
 3508POPC   D2A45220  10.918  41.549   6.477
 3508POPC   C3A45221  10.740  41.723   6.892
 3508POPC   C4A45222  10.451  41.505   7.200
 3508POPC   C1B45223  10.446  41.640   6.257
 3508POPC   C2B45224  10.321  41.455   6.675
 3508POPC   C3B45225   9.987  41.571   6.973
 3508POPC   C4B45226  10.071  41.874   7.251
 3509POPC   NC345227  32.296  12.425   5.495
 3509POPC   PO445228  32.306  12.925   5.088
 3509POPC   GL145229  32.116  12.851   5.646
 3509POPC   GL245230  32.359  12.690   5.915
 3509POPC   C1A45231  32.029  13.025   6.109
 3509POPC   D2A45232  32.010  13.190   6.566
 3509POPC   C3A45233  32.026  12.910   6.957
 3509POPC   C4A45234  31.929  12.981   7.398
 3509POPC   C1B45235  32.227  12.463   6.282
 3509POPC   C2B45236  32.046  12.469   6.687
 3509POPC   C3B45237  32.291  12.360   7.023
 3509POPC   C4B45238  32.434  12.623   7.303
 3510POPC   NC345239  27.837  20.433   5.529
 3510POPC   PO445240  27.293  20.709   5.255
 3510POPC   GL145241  27.350  20.840   5.761
 3510POPC   GL245242  27.694  20.717   5.948
 3510POPC   C1A45243  27.262  20.753   6.196
 3510POPC   D2A45244  27.576  20.771   6.525
 3510POPC   C3A45245  27.414  20.646   6.898
 3510POPC   C4A45246  27.284  20.896   7.215
 3510POPC   C1B45247  27.911  20.454   6.266
 3510POPC   C2B45248  27.878  20.364   6.736
 3510POPC   C3B45249  27.684  20.248   7.119
 3510POPC   C4B45250  27.707  20.665   7.328
 3511POPC   NC345251  10.084  15.560   5.467
 3511POPC   PO445252   9.603  14.937   5.495
 3511POPC   GL145253   9.854  14.913   5.846
 3511POPC   GL245254   9.874  15.262   5.815
 3511POPC   C1A45255   9.755  14.955   6.258
 3511POPC   D2A45256   9.663  15.133   6.644
 3511POPC   C3A45257   9.706  14.917   7.024
 3511POPC   C4A45258   9.684  15.297   7.229
 3511POPC   C1B45259  10.186  15.322   6.112
 3511POPC   C2B45260  10.173  15.130   6.519
 3511POPC   C3B45261  10.119  15.265   6.920
 3511POPC   C4B45262  10.167  15.067   7.295
 3512POPC   NC345263  20.155  37.114   5.431
 3512POPC   PO445264  19.641  36.618   5.486
 3512POPC   GL145265  19.777  36.934   5.790
 3512POPC   GL245266  20.153  36.934   5.901
 3512POPC   C1A45267  19.645  36.755   6.204
 3512POPC   D2A45268  19.679  36.847   6.657
 3512POPC   C3A45269  19.560  36.721   7.094
 3512POPC   C4A45270  19.426  36.826   7.520
 3512POPC   C1B45271  20.137  36.812   6.315
 3512POPC   C2B45272  20.126  37.077   6.664
 3512POPC   C3B45273  20.086  36.803   7.005
 3512POPC   C4B45274  19.961  36.888   7.393
 3513POPC   NC345275   0.177  25.249   5.630
 3513POPC   PO445276   0.743  24.928   5.535
 3513POPC   GL145277   0.636  25.208   5.873
 3513POPC   GL245278   0.655  25.571   5.801
 3513POPC   C1A45279   0.471  25.344   6.283
 3513POPC   D2A45280   0.142  25.571   6.535
 3513POPC   C3A45281   0.011  25.331   6.879
 3513POPC   C4A45282   0.246  25.163   7.218
 3513POPC   C1B45283   0.969  25.492   6.138
 3513POPC   C2B45284   0.909  25.319   6.549
 3513POPC   C3B45285   0.592  25.290   6.843
 3513POPC   C4B45286   0.618  25.487   7.231
 3514POPC   NC345287   0.979  41.270   5.623
 3514POPC   PO445288   1.618  41.425   5.451
 3514POPC   GL145289   1.384  41.618   5.780
 3514POPC   GL245290   1.612  41.881   5.832
 3514POPC   C1A45291   1.119  41.712   6.164
 3514POPC   D2A45292   1.220  41.552   6.607
 3514POPC   C3A45293   1.082  41.636   7.066
 3514POPC   C4A45294   0.985  41.403   7.478
 3514POPC   C1B45295   1.620  41.688   6.228
 3514POPC   C2B45296   1.732  41.757   6.607
 3514POPC   C3B45297   1.579  41.594   6.957
 3514POPC   C4B45298   1.512  41.711   7.357
 3515POPC   NC345299  10.988  42.409   5.290
 3515POPC   PO445300  11.583  42.086   5.484
 3515POPC   GL145301  11.485  42.380   5.861
 3515POPC   GL245302  11.180  42.542   5.763
 3515POPC   C1A45303  11.439  42.488   6.333
 3515POPC   D2A45304  11.444  42.365   6.788
 3515POPC   C3A45305  11.126  42.170   7.076
 3515POPC   C4A45306  11.144  41.881   7.453
 3515POPC   C1B45307  10.998  42.318   6.139
 3515POPC   C2B45308  10.916  42.353   6.604
 3515POPC   C3B45309  11.045  42.655   6.898
 3515POPC   C4B45310  11.348  42.664   7.232
 3516POPC   NC345311  40.411  28.346   5.169
 3516POPC   PO445312  40.764  27.859   5.409
 3516POPC   GL145313  40.702  28.243   5.705
 3516POPC   GL245314  40.402  28.488   5.676
 3516POPC   C1A45315  40.817  28.285   6.164
 3516POPC   D2A45316  41.019  28.040   6.517
 3516POPC   C3A45317  40.820  28.122   6.928
 3516POPC   C4A45318  40.878  28.455   7.253
 3516POPC   C1B45319  40.356  28.533   6.141
 3516POPC   C2B45320  40.464  28.657   6.603
 3516POPC   C3B45321  40.412  28.617   7.083
 3516POPC   C4B45322  40.436  28.652   7.545
 3517POPC   NC345323  17.299  26.254   5.278
 3517POPC   PO445324  17.206  25.586   5.381
 3517POPC   GL145325  17.383  25.898   5.697
 3517POPC   GL245326  17.475  26.250   5.753
 3517POPC   C1A45327  17.522  25.925   6.145
 3517POPC   D2A45328  17.263  25.914   6.519
 3517POPC   C3A45329  17.427  25.741   6.898
 3517POPC   C4A45330  17.420  25.944   7.315
 3517POPC   C1B45331  17.635  26.439   6.136
 3517POPC   C2B45332  17.666  26.259   6.541
 3517POPC   C3B45333  17.596  26.428   6.945
 3517POPC   C4B45334  17.426  26.463   7.370
 3518POPC   NC345335  35.463  27.239   5.494
 3518POPC   PO445336  35.219  26.491   5.479
 3518POPC   GL145337  35.409  26.792   5.769
 3518POPC   GL245338  35.113  27.015   5.839
 3518POPC   C1A45339  35.588  26.818   6.216
 3518POPC   D2A45340  35.392  26.879   6.667
 3518POPC   C3A45341  35.634  26.772   7.074
 3518POPC   C4A45342  35.753  26.908   7.531
 3518POPC   C1B45343  35.105  26.647   6.179
 3518POPC   C2B45344  34.984  26.528   6.619
 3518POPC   C3B45345  35.094  26.661   7.052
 3518POPC   C4B45346  35.262  27.025   7.288
 3519POPC   NC345347  35.188  20.065   5.323
 3519POPC   PO445348  35.576  19.501   5.558
 3519POPC   GL145349  35.354  19.631   5.891
 3519POPC   GL245350  35.162  19.951   5.829
 3519POPC   C1A45351  35.496  19.610   6.306
 3519POPC   D2A45352  35.770  19.616   6.625
 3519POPC   C3A45353  35.558  19.725   7.009
 3519POPC   C4A45354  35.708  20.119   7.167
 3519POPC   C1B45355  35.291  20.067   6.236
 3519POPC   C2B45356  35.203  19.943   6.678
 3519POPC   C3B45357  35.146  20.133   7.117
 3519POPC   C4B45358  34.894  20.155   7.532
 3520POPC   NC345359  33.571  41.536   5.552
 3520POPC   PO445360  34.092  41.902   5.420
 3520POPC   GL145361  34.006  41.635   5.816
 3520POPC   GL245362  33.661  41.762   5.994
 3520POPC   C1A45363  33.900  41.363   6.180
 3520POPC   D2A45364  33.802  41.653   6.499
 3520POPC   C3A45365  33.790  41.476   6.871
 3520POPC   C4A45366  33.744  41.196   7.173
 3520POPC   C1B45367  33.372  41.898   6.340
 3520POPC   C2B45368  33.406  41.839   6.822
 3520POPC   C3B45369  33.685  41.846   7.210
 3520POPC   C4B45370  33.895  41.833   7.622
 3521POPC   NC345371  31.854  39.231   5.486
 3521POPC   PO445372  31.146  39.463   5.439
 3521POPC   GL145373  31.405  39.344   5.751
 3521POPC   GL245374  31.175  39.101   5.841
 3521POPC   C1A45375  31.567  39.542   6.098
 3521POPC   D2A45376  31.288  39.610   6.448
 3521POPC   C3A45377  31.429  39.422   6.868
 3521POPC   C4A45378  31.368  39.358   7.332
 3521POPC   C1B45379  31.427  39.069   6.208
 3521POPC   C2B45380  31.467  38.903   6.611
 3521POPC   C3B45381  31.328  38.911   7.030
 3521POPC   C4B45382  31.640  38.893   7.321
 3522POPC   NC345383   3.632   3.420   4.931
 3522POPC   PO445384   3.086   3.489   5.314
 3522POPC   GL145385   3.390   3.528   5.676
 3522POPC   GL245386   3.735   3.396   5.673
 3522POPC   C1A45387   3.432   3.552   6.145
 3522POPC   D2A45388   3.407   3.383   6.588
 3522POPC   C3A45389   3.580   3.588   6.983
 3522POPC   C4A45390   3.291   3.729   7.296
 3522POPC   C1B45391   3.841   3.238   6.106
 3522POPC   C2B45392   3.920   3.347   6.516
 3522POPC   C3B45393   3.799   3.130   6.874
 3522POPC   C4B45394   3.810   3.212   7.309
 3523POPC   NC345395  15.774  34.104   5.548
 3523POPC   PO445396  15.118  33.873   5.495
 3523POPC   GL145397  15.002  33.792   5.873
 3523POPC   GL245398  14.837  34.034   5.982
 3523POPC   C1A45399  14.953  33.639   6.302
 3523POPC   D2A45400  15.210  33.699   6.673
 3523POPC   C3A45401  14.985  33.742   7.060
 3523POPC   C4A45402  14.693  33.680   7.399
 3523POPC   C1B45403  15.295  34.018   6.226
 3523POPC   C2B45404  15.581  34.047   6.625
 3523POPC   C3B45405  15.472  33.945   7.078
 3523POPC   C4B45406  15.385  33.671   7.440
 3524POPC   NC345407  11.296  35.092   5.464
 3524POPC   PO445408  11.654  35.676   5.593
 3524POPC   GL145409  11.433  35.405   5.921
 3524POPC   GL245410  11.057  35.372   5.876
 3524POPC   C1A45411  11.374  35.271   6.375
 3524POPC   D2A45412  11.180  35.276   6.783
 3524POPC   C3A45413  11.417  35.322   7.171
 3524POPC   C4A45414  11.421  35.255   7.613
 3524POPC   C1B45415  11.049  35.647   6.268
 3524POPC   C2B45416  11.055  35.805   6.703
 3524POPC   C3B45417  11.013  35.639   7.108
 3524POPC   C4B45418  10.949  35.197   7.279
 3525POPC   NC345419   7.051   5.106   5.460
 3525POPC   PO445420   6.412   4.904   5.492
 3525POPC   GL145421   6.692   5.080   5.827
 3525POPC   GL245422   6.718   5.453   5.697
 3525POPC   C1A45423   6.983   4.915   6.209
 3525POPC   D2A45424   6.966   4.826   6.697
 3525POPC   C3A45425   6.618   4.994   6.904
 3525POPC   C4A45426   6.320   4.842   7.171
 3525POPC   C1B45427   6.792   5.468   6.125
 3525POPC   C2B45428   6.941   5.321   6.523
 3525POPC   C3B45429   6.960   5.378   6.962
 3525POPC   C4B45430   6.660   5.373   7.265
 3526POPC   NC345431  21.290  30.735   5.479
 3526POPC   PO445432  21.407  30.151   5.451
 3526POPC   GL145433  21.511  30.428   5.866
 3526POPC   GL245434  21.305  30.697   5.978
 3526POPC   C1A45435  21.674  30.396   6.326
 3526POPC   D2A45436  21.662  30.688   6.719
 3526POPC   C3A45437  21.733  30.574   7.148
 3526POPC   C4A45438  21.723  30.230   7.429
 3526POPC   C1B45439  21.232  30.777   6.398
 3526POPC   C2B45440  21.061  31.169   6.542
 3526POPC   C3B45441  21.066  31.214   6.964
 3526POPC   C4B45442  21.258  30.872   7.178
 3527POPC   NC345443  12.429  10.474   5.429
 3527POPC   PO445444  11.797  10.694   5.293
 3527POPC   GL145445  11.866  10.613   5.748
 3527POPC   GL245446  12.209  10.593   5.874
 3527POPC   C1A45447  11.830  10.661   6.209
 3527POPC   D2A45448  11.782  10.443   6.589
 3527POPC   C3A45449  11.941  10.618   6.955
 3527POPC   C4A45450  11.903  10.361   7.299
 3527POPC   C1B45451  12.389  10.534   6.277
 3527POPC   C2B45452  12.322  10.376   6.688
 3527POPC   C3B45453  12.375  10.423   7.140
 3527POPC   C4B45454  12.340  10.290   7.597
 3528POPC   NC345455  38.573  12.371   5.464
 3528POPC   PO445456  38.197  11.836   5.514
 3528POPC   GL145457  38.383  12.044   5.822
 3528POPC   GL245458  38.707  11.946   5.719
 3528POPC   C1A45459  38.490  12.278   6.183
 3528POPC   D2A45460  38.558  12.033   6.522
 3528POPC   C3A45461  38.490  12.179   6.917
 3528POPC   C4A45462  38.368  11.991   7.250
 3528POPC   C1B45463  38.869  11.932   6.107
 3528POPC   C2B45464  39.017  11.806   6.499
 3528POPC   C3B45465  38.841  11.815   6.894
 3528POPC   C4B45466  38.958  12.090   7.247
 3529POPC   NC345467  22.640  30.121   5.388
 3529POPC   PO445468  23.104  29.693   5.401
 3529POPC   GL145469  22.849  29.734   5.760
 3529POPC   GL245470  22.898  30.096   5.847
 3529POPC   C1A45471  22.678  29.776   6.193
 3529POPC   D2A45472  22.760  29.976   6.605
 3529POPC   C3A45473  22.869  29.811   7.000
 3529POPC   C4A45474  23.116  29.894   7.371
 3529POPC   C1B45475  22.683  30.306   6.186
 3529POPC   C2B45476  22.605  30.514   6.581
 3529POPC   C3B45477  22.687  30.327   6.968
 3529POPC   C4B45478  22.620  30.077   7.358
 3530POPC   NC345479   8.288   2.180   5.052
 3530POPC   PO445480   7.872   2.066   5.557
 3530POPC   GL145481   7.900   1.903   5.954
 3530POPC   GL245482   8.163   1.677   6.014
 3530POPC   C1A45483   8.114   2.072   6.308
 3530POPC   D2A45484   8.325   1.841   6.583
 3530POPC   C3A45485   8.357   2.062   6.970
 3530POPC   C4A45486   8.242   2.208   7.379
 3530POPC   C1B45487   8.504   1.492   6.226
 3530POPC   C2B45488   8.688   1.447   6.648
 3530POPC   C3B45489   8.391   1.538   6.976
 3530POPC   C4B45490   8.460   1.738   7.338
 3531POPC   NC345491   7.549  20.412   5.505
 3531POPC   PO445492   7.464  21.011   5.248
 3531POPC   GL145493   7.407  20.849   5.725
 3531POPC   GL245494   7.132  20.590   5.794
 3531POPC   C1A45495   7.593  20.731   6.133
 3531POPC   D2A45496   7.677  20.685   6.580
 3531POPC   C3A45497   7.353  20.720   6.897
 3531POPC   C4A45498   7.607  20.700   7.236
 3531POPC   C1B45499   7.291  20.293   6.131
 3531POPC   C2B45500   7.326  20.245   6.584
 3531POPC   C3B45501   7.593  20.272   6.945
 3531POPC   C4B45502   7.501  20.255   7.407
 3532POPC   NC345503  16.952  33.821   5.373
 3532POPC   PO445504  16.296  33.453   5.374
 3532POPC   GL145505  16.637  33.539   5.727
 3532POPC   GL245506  16.830  33.844   5.856
 3532POPC   C1A45507  16.771  33.463   6.180
 3532POPC   D2A45508  16.906  33.522   6.594
 3532POPC   C3A45509  16.683  33.415   6.946
 3532POPC   C4A45510  16.683  33.548   7.371
 3532POPC   C1B45511  16.556  33.922   6.198
 3532POPC   C2B45512  16.574  33.897   6.621
 3532POPC   C3B45513  16.596  34.149   6.940
 3532POPC   C4B45514  16.506  34.075   7.333
 3533POPC   NC345515  34.027  42.907   5.681
 3533POPC   PO445516  34.494  42.579   5.376
 3533POPC   GL145517  34.268  42.431   5.772
 3533POPC   GL245518  34.306  42.058   5.878
 3533POPC   C1A45519  34.381  42.403   6.227
 3533POPC   D2A45520  34.264  42.339   6.641
 3533POPC   C3A45521  34.567  42.390   6.966
 3533POPC   C4A45522  34.500  42.522   7.360
 3533POPC   C1B45523  34.255  41.897   6.324
 3533POPC   C2B45524  34.213  41.818   6.785
 3533POPC   C3B45525  34.165  42.085   7.157
 3533POPC   C4B45526  34.353  42.082   7.589
 3534POPC   NC345527  15.284   4.183   5.115
 3534POPC   PO445528  15.290   4.739   5.553
 3534POPC   GL145529  15.203   5.013   5.860
 3534POPC   GL245530  15.328   5.344   5.826
 3534POPC   C1A45531  15.145   5.140   6.267
 3534POPC   D2A45532  15.329   5.240   6.624
 3534POPC   C3A45533  15.104   5.079   6.958
 3534POPC   C4A45534  14.727   4.821   7.028
 3534POPC   C1B45535  15.316   5.634   6.204
 3534POPC   C2B45536  15.507   5.718   6.642
 3534POPC   C3B45537  15.578   5.433   7.019
 3534POPC   C4B45538  15.267   5.356   7.340
 3535POPC   NC345539  18.699  32.390   5.245
 3535POPC   PO445540  18.129  32.169   5.402
 3535POPC   GL145541  18.201  32.309   5.808
 3535POPC   GL245542  18.542  32.264   5.742
 3535POPC   C1A45543  18.133  32.333   6.248
 3535POPC   D2A45544  18.434  32.406   6.570
 3535POPC   C3A45545  18.303  32.246   6.936
 3535POPC   C4A45546  18.312  32.417   7.319
 3535POPC   C1B45547  18.537  32.072   6.147
 3535POPC   C2B45548  18.545  31.900   6.540
 3535POPC   C3B45549  18.780  31.877   6.897
 3535POPC   C4B45550  18.586  31.972   7.256
 3536POPC   NC345551   0.860  43.590   5.231
 3536POPC   PO445552   0.423  44.108   5.406
 3536POPC   GL145553   0.265  43.851   5.792
 3536POPC   GL245554   0.035  43.601   5.733
 3536POPC   C1A45555   0.499  43.776   6.233
 3536POPC   D2A45556   0.705  44.075   6.533
 3536POPC   C3A45557   0.617  44.007   6.984
 3536POPC   C4A45558   0.594  43.704   7.337
 3536POPC   C1B45559  44.979  43.704   6.191
 3536POPC   C2B45560   0.135  43.596   6.580
 3536POPC   C3B45561  44.997  43.819   6.916
 3536POPC   C4B45562   0.171  43.974   7.253
 3537POPC   NC345563  28.502  12.606   5.317
 3537POPC   PO445564  28.445  13.277   5.294
 3537POPC   GL145565  28.647  13.194   5.755
 3537POPC   GL245566  28.686  12.817   5.754
 3537POPC   C1A45567  28.523  13.135   6.245
 3537POPC   D2A45568  28.135  12.982   6.474
 3537POPC   C3A45569  28.045  12.984   6.936
 3537POPC   C4A45570  28.390  12.902   7.211
 3537POPC   C1B45571  28.615  12.640   6.183
 3537POPC   C2B45572  28.574  12.741   6.649
 3537POPC   C3B45573  28.521  12.444   7.002
 3537POPC   C4B45574  28.183  12.383   7.282
 3538POPC   NC345575  21.912  35.263   5.475
 3538POPC   PO445576  21.237  35.042   5.455
 3538POPC   GL145577  21.246  35.370   5.808
 3538POPC   GL245578  21.587  35.450   5.839
 3538POPC   C1A45579  21.134  35.619   6.177
 3538POPC   D2A45580  21.075  35.294   6.540
 3538POPC   C3A45581  21.084  35.305   7.002
 3538POPC   C4A45582  21.255  35.272   7.453
 3538POPC   C1B45583  21.527  35.346   6.270
 3538POPC   C2B45584  21.494  35.493   6.716
 3538POPC   C3B45585  21.589  35.247   7.081
 3538POPC   C4B45586  21.741  35.455   7.472
 3539POPC   NC345587   6.276  21.112   5.608
 3539POPC   PO445588   6.850  21.416   5.358
 3539POPC   GL145589   6.708  21.305   5.789
 3539POPC   GL245590   6.736  20.950   5.857
 3539POPC   C1A45591   6.504  21.338   6.217
 3539POPC   D2A45592   6.644  21.536   6.610
 3539POPC   C3A45593   6.601  21.267   6.943
 3539POPC   C4A45594   6.459  21.356   7.374
 3539POPC   C1B45595   6.955  21.072   6.230
 3539POPC   C2B45596   7.012  21.060   6.676
 3539POPC   C3B45597   7.138  21.176   7.086
 3539POPC   C4B45598   6.918  21.522   7.229
 3540POPC   NC345599  12.091  35.391   5.447
 3540POPC   PO445600  11.681  34.849   5.398
 3540POPC   GL145601  11.844  35.050   5.732
 3540POPC   GL245602  12.226  35.058   5.780
 3540POPC   C1A45603  11.820  35.127   6.141
 3540POPC   D2A45604  11.860  35.436   6.417
 3540POPC   C3A45605  11.795  35.290   6.839
 3540POPC   C4A45606  11.888  35.484   7.267
 3540POPC   C1B45607  12.294  35.319   6.150
 3540POPC   C2B45608  12.271  35.161   6.556
 3540POPC   C3B45609  12.270  35.266   6.982
 3540POPC   C4B45610  12.283  34.997   7.289
 3541POPC   NC345611   6.122   2.927   5.494
 3541POPC   PO445612   5.499   2.561   5.449
 3541POPC   GL145613   5.783   2.689   5.807
 3541POPC   GL245614   5.694   3.002   5.871
 3541POPC   C1A45615   6.131   2.584   6.126
 3541POPC   D2A45616   6.354   2.619   6.547
 3541POPC   C3A45617   6.087   2.857   6.819
 3541POPC   C4A45618   5.939   2.736   7.216
 3541POPC   C1B45619   5.726   2.862   6.319
 3541POPC   C2B45620   5.572   2.886   6.744
 3541POPC   C3B45621   5.654   3.153   7.095
 3541POPC   C4B45622   5.753   3.099   7.570
 3542POPC   NC345623  37.486  25.827   5.588
 3542POPC   PO445624  36.887  26.231   5.440
 3542POPC   GL145625  36.859  26.268   5.882
 3542POPC   GL245626  36.506  26.331   5.956
 3542POPC   C1A45627  37.012  26.029   6.254
 3542POPC   D2A45628  37.130  25.985   6.706
 3542POPC   C3A45629  37.005  25.749   7.070
 3542POPC   C4A45630  37.059  25.813   7.510
 3542POPC   C1B45631  36.601  26.339   6.371
 3542POPC   C2B45632  36.710  26.534   6.737
 3542POPC   C3B45633  36.921  26.338   7.093
 3542POPC   C4B45634  36.712  26.166   7.462
 3543POPC   NC345635  24.476  28.881   5.403
 3543POPC   PO445636  24.022  29.462   5.450
 3543POPC   GL145637  24.211  29.117   5.768
 3543POPC   GL245638  24.604  29.105   5.849
 3543POPC   C1A45639  24.294  28.943   6.208
 3543POPC   D2A45640  24.425  29.143   6.586
 3543POPC   C3A45641  24.397  28.950   6.978
 3543POPC   C4A45642  24.153  29.194   7.261
 3543POPC   C1B45643  24.818  29.048   6.253
 3543POPC   C2B45644  24.928  29.055   6.713
 3543POPC   C3B45645  24.737  29.310   7.038
 3543POPC   C4B45646  24.734  29.324   7.453
 3544POPC   NC345647  28.061  31.576   5.289
 3544POPC   PO445648  28.591  31.230   5.433
 3544POPC   GL145649  28.583  31.488   5.841
 3544POPC   GL245650  28.263  31.658   5.783
 3544POPC   C1A45651  28.501  31.363   6.294
 3544POPC   D2A45652  28.553  31.171   6.710
 3544POPC   C3A45653  28.549  31.441   7.055
 3544POPC   C4A45654  28.721  31.883   7.091
 3544POPC   C1B45655  28.410  31.863   6.179
 3544POPC   C2B45656  28.469  31.778   6.636
 3544POPC   C3B45657  28.194  31.781   7.013
 3544POPC   C4B45658  28.128  31.506   7.365
 3545POPC   NC345659  16.981  14.560   5.593
 3545POPC   PO445660  16.463  14.053   5.461
 3545POPC   GL145661  16.661  14.260   5.839
 3545POPC   GL245662  16.974  14.141   5.925
 3545POPC   C1A45663  16.629  14.585   6.196
 3545POPC   D2A45664  16.343  14.593   6.569
 3545POPC   C3A45665  16.401  14.486   7.022
 3545POPC   C4A45666  16.505  14.182   7.406
 3545POPC   C1B45667  16.768  14.105   6.334
 3545POPC   C2B45668  16.826  14.402   6.657
 3545POPC   C3B45669  16.899  14.392   7.084
 3545POPC   C4B45670  16.995  13.977   7.202
 3546POPC   NC345671  14.850  43.090   5.729
 3546POPC   PO445672  14.306  43.190   5.359
 3546POPC   GL145673  14.327  43.187   5.807
 3546POPC   GL245674  14.387  42.836   5.825
 3546POPC   C1A45675  14.296  43.162   6.285
 3546POPC   D2A45676  14.055  43.401   6.624
 3546POPC   C3A45677  14.207  43.464   7.083
 3546POPC   C4A45678  14.280  43.245   7.499
 3546POPC   C1B45679  14.071  42.717   6.125
 3546POPC   C2B45680  14.025  42.806   6.581
 3546POPC   C3B45681  14.315  42.998   6.894
 3546POPC   C4B45682  14.505  42.835   7.284
 3547POPC   NC345683  35.952  30.036   5.322
 3547POPC   PO445684  36.518  30.035   5.384
 3547POPC   GL145685  36.196  29.767   5.693
 3547POPC   GL245686  35.908  29.978   5.830
 3547POPC   C1A45687  36.008  29.572   6.108
 3547POPC   D2A45688  35.981  29.792   6.530
 3547POPC   C3A45689  36.114  29.690   6.952
 3547POPC   C4A45690  35.829  29.524   7.248
 3547POPC   C1B45691  35.768  30.139   6.232
 3547POPC   C2B45692  35.815  30.291   6.642
 3547POPC   C3B45693  36.070  30.221   6.986
 3547POPC   C4B45694  35.918  30.045   7.341
 3548POPC   NC345695  29.320  25.076   5.382
 3548POPC   PO445696  29.047  25.631   5.548
 3548POPC   GL145697  29.317  25.381   5.796
 3548POPC   GL245698  29.083  25.124   5.866
 3548POPC   C1A45699  29.339  25.430   6.213
 3548POPC   D2A45700  29.082  25.393   6.545
 3548POPC   C3A45701  29.285  25.372   6.918
 3548POPC   C4A45702  29.066  25.184   7.261
 3548POPC   C1B45703  29.152  24.928   6.291
 3548POPC   C2B45704  29.457  24.940   6.661
 3548POPC   C3B45705  29.497  24.936   7.133
 3548POPC   C4B45706  29.398  25.027   7.613
 3549POPC   NC345707  31.414  15.420   5.557
 3549POPC   PO445708  31.208  14.825   5.552
 3549POPC   GL145709  31.517  15.019   5.911
 3549POPC   GL245710  31.722  15.372   5.958
 3549POPC   C1A45711  31.384  15.094   6.351
 3549POPC   D2A45712  31.079  15.191   6.678
 3549POPC   C3A45713  31.291  15.163   7.090
 3549POPC   C4A45714  31.695  14.969   7.225
 3549POPC   C1B45715  31.885  15.154   6.303
 3549POPC   C2B45716  31.846  15.121   6.738
 3549POPC   C3B45717  31.853  15.418   7.068
 3549POPC   C4B45718  31.689  15.431   7.489
 3550POPC   NC345719  35.877   8.545   5.124
 3550POPC   PO445720  36.256   7.986   5.244
 3550POPC   GL145721  36.153   8.256   5.579
 3550POPC   GL245722  36.152   7.994   5.796
 3550POPC   C1A45723  36.187   8.430   6.033
 3550POPC   D2A45724  36.138   8.395   6.492
 3550POPC   C3A45725  36.330   8.565   6.882
 3550POPC   C4A45726  36.192   8.434   7.276
 3550POPC   C1B45727  36.432   7.987   6.176
 3550POPC   C2B45728  36.264   7.915   6.554
 3550POPC   C3B45729  36.288   8.043   6.966
 3550POPC   C4B45730  36.221   7.820   7.352
 3551POPC   NC345731  15.630   1.321   5.299
 3551POPC   PO445732  16.250   1.446   5.563
 3551POPC   GL145733  15.927   1.275   5.835
 3551POPC   GL245734  15.616   1.083   5.755
 3551POPC   C1A45735  16.079   1.253   6.253
 3551POPC   D2A45736  16.210   1.551   6.526
 3551POPC   C3A45737  16.011   1.442   6.884
 3551POPC   C4A45738  16.124   1.238   7.275
 3551POPC   C1B45739  15.735   0.902   6.155
 3551POPC   C2B45740  15.877   0.820   6.599
 3551POPC   C3B45741  15.746   1.003   6.990
 3551POPC   C4B45742  15.640   1.372   7.207
 3552POPC   NC345743  33.501  25.467   5.573
 3552POPC   PO445744  34.079  25.148   5.625
 3552POPC   GL145745  33.830  25.136   5.951
 3552POPC   GL245746  33.505  25.025   5.834
 3552POPC   C1A45747  33.722  25.458   6.253
 3552POPC   D2A45748  33.756  25.416   6.685
 3552POPC   C3A45749  34.045  25.606   6.932
 3552POPC   C4A45750  33.745  25.519   7.263
 3552POPC   C1B45751  33.354  25.096   6.255
 3552POPC   C2B45752  33.304  25.183   6.681
 3552POPC   C3B45753  33.466  25.143   7.070
 3552POPC   C4B45754  33.598  25.038   7.462
 3553POPC   NC345755  35.730  15.760   5.608
 3553POPC   PO445756  36.395  16.064   5.596
 3553POPC   GL145757  36.146  15.958   5.899
 3553POPC   GL245758  35.859  16.186   5.873
 3553POPC   C1A45759  36.239  16.102   6.334
 3553POPC   D2A45760  36.180  16.238   6.754
 3553POPC   C3A45761  36.346  16.029   7.136
 3553POPC   C4A45762  36.033  16.052   7.476
 3553POPC   C1B45763  35.775  15.913   6.248
 3553POPC   C2B45764  35.721  16.048   6.627
 3553POPC   C3B45765  35.845  15.920   7.040
 3553POPC   C4B45766  35.727  15.637   7.400
 3554POPC   NC345767  27.224  20.407   5.598
 3554POPC   PO445768  26.587  20.551   5.347
 3554POPC   GL145769  26.738  20.450   5.765
 3554POPC   GL245770  26.839  20.777   5.896
 3554POPC   C1A45771  26.915  20.367   6.210
 3554POPC   D2A45772  26.950  20.648   6.602
 3554POPC   C3A45773  26.854  20.576   7.045
 3554POPC   C4A45774  27.170  20.411   7.314
 3554POPC   C1B45775  26.696  20.970   6.290
 3554POPC   C2B45776  26.630  21.019   6.773
 3554POPC   C3B45777  26.821  21.068   7.182
 3554POPC   C4B45778  26.925  20.801   7.561
 3555POPC   NC345779   1.710  43.970   5.364
 3555POPC   PO445780   2.321  43.738   5.111
 3555POPC   GL145781   2.130  43.729   5.547
 3555POPC   GL245782   2.110  44.096   5.674
 3555POPC   C1A45783   2.011  43.666   6.009
 3555POPC   D2A45784   2.056  43.800   6.470
 3555POPC   C3A45785   1.936  43.671   6.913
 3555POPC   C4A45786   1.879  43.502   7.327
 3555POPC   C1B45787   1.812  44.170   6.066
 3555POPC   C2B45788   1.751  44.361   6.495
 3555POPC   C3B45789   1.851  44.210   6.908
 3555POPC   C4B45790   1.786  44.022   7.304
 3556POPC   NC345791   4.433  31.876   5.558
 3556POPC   PO445792   4.171  32.574   5.568
 3556POPC   GL145793   4.458  32.459   5.871
 3556POPC   GL245794   4.249  32.174   5.944
 3556POPC   C1A45795   4.455  32.546   6.328
 3556POPC   D2A45796   4.125  32.616   6.669
 3556POPC   C3A45797   4.262  32.451   7.074
 3556POPC   C4A45798   4.089  32.131   7.372
 3556POPC   C1B45799   4.563  32.030   6.217
 3556POPC   C2B45800   4.641  32.122   6.635
 3556POPC   C3B45801   4.676  31.845   6.984
 3556POPC   C4B45802   4.525  31.871   7.365
 3557POPC   NC345803   9.683   3.780   5.575
 3557POPC   PO445804  10.098   3.383   5.375
 3557POPC   GL145805   9.883   3.328   5.781
 3557POPC   GL245806   9.503   3.375   5.861
 3557POPC   C1A45807   9.871   3.555   6.174
 3557POPC   D2A45808  10.073   3.798   6.485
 3557POPC   C3A45809   9.946   3.607   6.867
 3557POPC   C4A45810   9.901   3.405   7.232
 3557POPC   C1B45811   9.375   3.707   6.180
 3557POPC   C2B45812   9.531   3.769   6.618
 3557POPC   C3B45813   9.458   3.560   7.046
 3557POPC   C4B45814   9.236   3.515   7.469
 3558POPC   NC345815  17.850  19.244   5.622
 3558POPC   PO445816  17.325  19.732   5.420
 3558POPC   GL145817  17.404  19.920   5.787
 3558POPC   GL245818  17.760  19.833   5.769
 3558POPC   C1A45819  17.240  19.798   6.210
 3558POPC   D2A45820  17.460  19.670   6.570
 3558POPC   C3A45821  17.270  19.736   6.946
 3558POPC   C4A45822  17.443  19.744   7.351
 3558POPC   C1B45823  17.834  19.608   6.160
 3558POPC   C2B45824  17.859  19.365   6.511
 3558POPC   C3B45825  17.909  19.575   6.873
 3558POPC   C4B45826  17.915  19.762   7.240
 3559POPC   NC345827  20.157  42.390   4.986
 3559POPC   PO445828  20.664  42.015   5.114
 3559POPC   GL145829  20.652  42.055   5.624
 3559POPC   GL245830  20.996  42.014   5.790
 3559POPC   C1A45831  20.513  42.176   6.097
 3559POPC   D2A45832  20.528  42.106   6.589
 3559POPC   C3A45833  20.380  42.331   6.985
 3559POPC   C4A45834  20.516  42.704   7.275
 3559POPC   C1B45835  21.070  42.207   6.219
 3559POPC   C2B45836  20.993  42.272   6.676
 3559POPC   C3B45837  20.901  42.409   7.097
 3559POPC   C4B45838  21.061  42.195   7.413
 3560POPC   NC345839  35.625  24.506   5.399
 3560POPC   PO445840  35.048  24.903   5.584
 3560POPC   GL145841  35.247  24.545   5.824
 3560POPC   GL245842  35.350  24.188   5.775
 3560POPC   C1A45843  35.401  24.483   6.255
 3560POPC   D2A45844  35.284  24.676   6.653
 3560POPC   C3A45845  35.504  24.481   6.987
 3560POPC   C4A45846  35.334  24.566   7.371
 3560POPC   C1B45847  35.115  24.063   6.181
 3560POPC   C2B45848  35.135  24.157   6.646
 3560POPC   C3B45849  35.072  24.223   7.100
 3560POPC   C4B45850  35.105  24.178   7.619
 3561POPC   NC345851  35.763  10.989   5.398
 3561POPC   PO445852  35.132  11.359   5.308
 3561POPC   GL145853  35.087  11.510   5.751
 3561POPC   GL245854  35.415  11.662   5.794
 3561POPC   C1A45855  35.039  11.334   6.199
 3561POPC   D2A45856  35.258  11.190   6.607
 3561POPC   C3A45857  35.098  11.373   7.014
 3561POPC   C4A45858  35.021  11.397   7.484
 3561POPC   C1B45859  35.577  11.407   6.140
 3561POPC   C2B45860  35.769  11.293   6.530
 3561POPC   C3B45861  35.631  11.371   6.917
 3561POPC   C4B45862  35.520  11.560   7.270
 3562POPC   NC345863   8.760  18.539   5.373
 3562POPC   PO445864   8.745  17.930   5.296
 3562POPC   GL145865   8.786  18.127   5.733
 3562POPC   GL245866   8.631  18.458   5.847
 3562POPC   C1A45867   8.909  18.196   6.190
 3562POPC   D2A45868   8.786  18.334   6.614
 3562POPC   C3A45869   9.170  18.374   6.869
 3562POPC   C4A45870   9.400  18.106   7.184
 3562POPC   C1B45871   8.666  18.711   6.218
 3562POPC   C2B45872   8.577  18.809   6.655
 3562POPC   C3B45873   8.737  18.621   7.048
 3562POPC   C4B45874   9.038  18.444   7.343
 3563POPC   NC345875  43.638  15.484   5.691
 3563POPC   PO445876  43.808  14.967   5.280
 3563POPC   GL145877  43.981  15.118   5.703
 3563POPC   GL245878  44.228  15.399   5.690
 3563POPC   C1A45879  43.940  15.067   6.186
 3563POPC   D2A45880  43.897  14.926   6.641
 3563POPC   C3A45881  43.662  15.174   6.964
 3563POPC   C4A45882  43.375  15.065   7.312
 3563POPC   C1B45883  44.376  15.314   6.128
 3563POPC   C2B45884  44.169  15.385   6.574
 3563POPC   C3B45885  44.171  15.273   7.039
 3563POPC   C4B45886  43.864  15.291   7.426
 3564POPC   NC345887  18.048  10.892   5.062
 3564POPC   PO445888  18.277  10.399   5.402
 3564POPC   GL145889  18.321  10.660   5.737
 3564POPC   GL245890  18.574  10.430   5.832
 3564POPC   C1A45891  18.158  10.873   6.085
 3564POPC   D2A45892  18.324  10.888   6.499
 3564POPC   C3A45893  18.027  10.875   6.841
 3564POPC   C4A45894  18.143  10.820   7.274
 3564POPC   C1B45895  18.394  10.435   6.225
 3564POPC   C2B45896  18.607  10.466   6.597
 3564POPC   C3B45897  18.438  10.528   6.962
 3564POPC   C4B45898  18.313  10.294   7.265
 3565POPC   NC345899  44.030  16.336   5.343
 3565POPC   PO445900  43.910  15.691   5.388
 3565POPC   GL145901  43.943  15.900   5.768
 3565POPC   GL245902  43.708  16.191   5.724
 3565POPC   C1A45903  44.012  15.717   6.192
 3565POPC   D2A45904  43.851  15.871   6.579
 3565POPC   C3A45905  43.846  15.682   6.990
 3565POPC   C4A45906  43.884  15.800   7.426
 3565POPC   C1B45907  43.689  16.159   6.166
 3565POPC   C2B45908  43.569  16.325   6.576
 3565POPC   C3B45909  43.646  16.182   6.990
 3565POPC   C4B45910  43.764  16.289   7.404
 3566POPC   NC345911   4.769  17.567   5.229
 3566POPC   PO445912   5.344  17.430   5.354
 3566POPC   GL145913   5.097  17.655   5.659
 3566POPC   GL245914   5.000  17.383   5.773
 3566POPC   C1A45915   4.962  17.797   6.094
 3566POPC   D2A45916   4.941  17.913   6.525
 3566POPC   C3A45917   5.110  17.641   6.865
 3566POPC   C4A45918   4.938  17.564   7.314
 3566POPC   C1B45919   4.828  17.304   6.110
 3566POPC   C2B45920   4.784  17.422   6.504
 3566POPC   C3B45921   4.783  17.242   6.882
 3566POPC   C4B45922   4.987  17.070   7.233
 3567POPC   NC345923   3.262   7.536   5.485
 3567POPC   PO445924   3.761   7.101   5.501
 3567POPC   GL145925   3.572   7.297   5.852
 3567POPC   GL245926   3.244   7.116   5.861
 3567POPC   C1A45927   3.746   7.390   6.261
 3567POPC   D2A45928   3.998   7.203   6.572
 3567POPC   C3A45929   3.730   7.330   6.904
 3567POPC   C4A45930   3.711   7.453   7.322
 3567POPC   C1B45931   3.242   7.360   6.262
 3567POPC   C2B45932   3.180   7.447   6.709
 3567POPC   C3B45933   3.246   7.349   7.167
 3567POPC   C4B45934   3.269   7.160   7.600
 3568POPC   NC345935  20.610  28.479   4.976
 3568POPC   PO445936  20.905  27.989   5.388
 3568POPC   GL145937  20.883  28.244   5.769
 3568POPC   GL245938  20.585  28.397   5.743
 3568POPC   C1A45939  20.932  28.474   6.169
 3568POPC   D2A45940  20.712  28.603   6.582
 3568POPC   C3A45941  20.912  28.530   7.017
 3568POPC   C4A45942  20.916  28.533   7.491
 3568POPC   C1B45943  20.428  28.446   6.148
 3568POPC   C2B45944  20.344  28.217   6.513
 3568POPC   C3B45945  20.456  28.263   6.906
 3568POPC   C4B45946  20.464  28.383   7.312
 3569POPC   NC345947   1.212   5.769   5.232
 3569POPC   PO445948   0.814   6.198   5.447
 3569POPC   GL145949   1.042   5.873   5.732
 3569POPC   GL245950   1.314   5.597   5.695
 3569POPC   C1A45951   1.010   5.695   6.144
 3569POPC   D2A45952   0.928   5.862   6.537
 3569POPC   C3A45953   1.102   5.745   6.910
 3569POPC   C4A45954   0.828   5.806   7.260
 3569POPC   C1B45955   1.520   5.733   6.095
 3569POPC   C2B45956   1.495   5.885   6.550
 3569POPC   C3B45957   1.653   5.738   6.977
 3569POPC   C4B45958   1.580   5.560   7.412
 3570POPC   NC345959  12.310  31.935   5.398
 3570POPC   PO445960  11.880  31.406   5.335
 3570POPC   GL145961  11.971  31.254   5.758
 3570POPC   GL245962  11.695  31.479   5.845
 3570POPC   C1A45963  12.291  31.290   6.111
 3570POPC   D2A45964  12.357  31.425   6.569
 3570POPC   C3A45965  12.043  31.251   6.866
 3570POPC   C4A45966  11.973  31.281   7.287
 3570POPC   C1B45967  11.773  31.352   6.287
 3570POPC   C2B45968  11.803  31.647   6.627
 3570POPC   C3B45969  11.841  31.712   7.080
 3570POPC   C4B45970  11.910  31.747   7.541
 3571POPC   NC345971  27.945  42.923   5.441
 3571POPC   PO445972  27.447  43.247   5.238
 3571POPC   GL145973  27.610  43.221   5.684
 3571POPC   GL245974  27.941  43.371   5.769
 3571POPC   C1A45975  27.694  43.001   6.121
 3571POPC   D2A45976  27.491  42.890   6.556
 3571POPC   C3A45977  27.449  43.172   6.940
 3571POPC   C4A45978  27.499  43.437   7.289
 3571POPC   C1B45979  27.781  43.489   6.191
 3571POPC   C2B45980  27.847  43.255   6.620
 3571POPC   C3B45981  27.980  43.311   7.088
 3571POPC   C4B45982  27.959  43.433   7.538
 3572POPC   NC345983  37.582  22.132   5.527
 3572POPC   PO445984  38.146  22.364   5.831
 3572POPC   GL145985  37.759  22.275   6.015
 3572POPC   GL245986  37.826  21.957   5.944
 3572POPC   C1A45987  37.547  22.316   6.435
 3572POPC   D2A45988  37.521  22.117   6.842
 3572POPC   C3A45989  37.702  22.343   7.221
 3572POPC   C4A45990  37.790  22.228   7.641
 3572POPC   C1B45991  37.508  21.852   6.221
 3572POPC   C2B45992  37.391  21.672   6.620
 3572POPC   C3B45993  37.294  21.638   7.048
 3572POPC   C4B45994  37.516  21.901   7.331
 3573POPC   NC345995  23.750  13.199   5.401
 3573POPC   PO445996  23.582  12.531   5.576
 3573POPC   GL145997  23.765  12.881   5.826
 3573POPC   GL245998  23.491  13.124   5.831
 3573POPC   C1A45999  23.902  12.849   6.264
 3573POPC   D2A46000  23.731  12.633   6.645
 3573POPC   C3A46001  23.946  12.639   7.072
 3573POPC   C4A46002  23.898  12.705   7.529
 3573POPC   C1B46003  23.616  13.300   6.205
 3573POPC   C2B46004  23.636  13.156   6.609
 3573POPC   C3B46005  23.586  13.027   7.013
 3573POPC   C4B46006  23.903  13.149   7.228
 3574POPC   NC346007  38.002  41.390   5.680
 3574POPC   PO446008  37.656  41.913   5.472
 3574POPC   GL146009  37.415  41.919   5.839
 3574POPC   GL246010  37.421  41.562   5.825
 3574POPC   C1A46011  37.369  41.853   6.253
 3574POPC   D2A46012  37.698  41.761   6.523
 3574POPC   C3A46013  37.582  41.671   6.938
 3574POPC   C4A46014  37.783  41.387   7.207
 3574POPC   C1B46015  37.580  41.350   6.208
 3574POPC   C2B46016  37.689  41.231   6.640
 3574POPC   C3B46017  37.369  41.188   6.980
 3574POPC   C4B46018  37.342  41.213   7.418
 3575POPC   NC346019  31.448  32.084   5.425
 3575POPC   PO446020  31.918  32.604   5.681
 3575POPC   GL146021  31.619  32.490   5.954
 3575POPC   GL246022  31.325  32.380   5.867
 3575POPC   C1A46023  31.525  32.378   6.378
 3575POPC   D2A46024  31.699  32.084   6.673
 3575POPC   C3A46025  31.567  32.255   7.042
 3575POPC   C4A46026  31.307  32.604   7.104
 3575POPC   C1B46027  31.336  31.995   6.109
 3575POPC   C2B46028  31.201  31.954   6.547
 3575POPC   C3B46029  31.238  31.811   6.958
 3575POPC   C4B46030  31.085  32.126   7.231
 3576POPC   NC346031  37.555  21.102   5.441
 3576POPC   PO446032  37.617  21.697   5.321
 3576POPC   GL146033  37.691  21.510   5.760
 3576POPC   GL246034  37.630  21.206   5.914
 3576POPC   C1A46035  37.902  21.514   6.193
 3576POPC   D2A46036  37.821  21.365   6.609
 3576POPC   C3A46037  37.796  21.627   6.975
 3576POPC   C4A46038  37.710  21.459   7.426
 3576POPC   C1B46039  37.386  21.353   6.228
 3576POPC   C2B46040  37.337  21.155   6.629
 3576POPC   C3B46041  37.509  21.173   7.025
 3576POPC   C4B46042  37.426  21.007   7.421
 3577POPC   NC346043  13.946  18.617   5.371
 3577POPC   PO446044  14.655  18.498   5.350
 3577POPC   GL146045  14.443  18.314   5.705
 3577POPC   GL246046  14.280  18.556   5.747
 3577POPC   C1A46047  14.502  18.335   6.140
 3577POPC   D2A46048  14.384  18.500   6.529
 3577POPC   C3A46049  14.274  18.229   6.879
 3577POPC   C4A46050  14.572  18.208   7.200
 3577POPC   C1B46051  14.154  18.741   6.135
 3577POPC   C2B46052  13.918  18.694   6.530
 3577POPC   C3B46053  14.136  18.730   6.920
 3577POPC   C4B46054  14.321  18.665   7.297
 3578POPC   NC346055   2.530   5.169   5.372
 3578POPC   PO446056   3.173   5.141   5.616
 3578POPC   GL146057   2.848   5.264   5.877
 3578POPC   GL246058   2.501   5.207   5.875
 3578POPC   C1A46059   2.856   5.264   6.291
 3578POPC   D2A46060   3.127   5.130   6.583
 3578POPC   C3A46061   2.958   5.013   6.982
 3578POPC   C4A46062   3.083   4.865   7.371
 3578POPC   C1B46063   2.346   5.028   6.255
 3578POPC   C2B46064   2.546   5.068   6.654
 3578POPC   C3B46065   2.443   5.019   7.069
 3578POPC   C4B46066   2.375   5.313   7.354
 3579POPC   NC346067  44.398  26.506   5.246
 3579POPC   PO446068  44.833  26.946   5.499
 3579POPC   GL146069  44.568  26.904   5.863
 3579POPC   GL246070  44.680  26.595   5.992
 3579POPC   C1A46071  44.567  27.069   6.270
 3579POPC   D2A46072  44.657  26.839   6.613
 3579POPC   C3A46073  44.486  26.978   6.968
 3579POPC   C4A46074  44.439  26.700   7.287
 3579POPC   C1B46075   0.016  26.814   6.223
 3579POPC   C2B46076   0.178  26.639   6.619
 3579POPC   C3B46077  44.957  26.682   7.018
 3579POPC   C4B46078  44.964  27.106   7.133
 3580POPC   NC346079  44.780   3.451   5.458
 3580POPC   PO446080  44.134   3.641   5.508
 3580POPC   GL146081  44.508   3.755   5.817
 3580POPC   GL246082  44.867   3.657   5.905
 3580POPC   C1A46083  44.547   3.852   6.249
 3580POPC   D2A46084  44.594   3.457   6.477
 3580POPC   C3A46085  44.403   3.496   6.849
 3580POPC   C4A46086  44.542   3.514   7.280
 3580POPC   C1B46087  44.954   3.274   6.124
 3580POPC   C2B46088   0.016   3.122   6.550
 3580POPC   C3B46089  44.875   3.312   6.951
 3580POPC   C4B46090   0.057   3.420   7.366
 3581POPC   NC346091  14.406  29.093   5.394
 3581POPC   PO446092  14.366  29.818   5.447
 3581POPC   GL146093  14.300  29.462   5.756
 3581POPC   GL246094  14.647  29.338   5.793
 3581POPC   C1A46095  14.222  29.125   6.089
 3581POPC   D2A46096  14.066  28.985   6.511
 3581POPC   C3A46097  14.186  29.222   6.855
 3581POPC   C4A46098  14.203  28.944   7.162
 3581POPC   C1B46099  14.735  29.200   6.221
 3581POPC   C2B46100  14.758  29.445   6.606
 3581POPC   C3B46101  14.813  29.482   7.066
 3581POPC   C4B46102  14.693  29.102   7.270
 3582POPC   NC346103  34.873  35.758   5.415
 3582POPC   PO446104  34.302  35.415   5.411
 3582POPC   GL146105  34.543  35.517   5.759
 3582POPC   GL246106  34.320  35.354   5.966
 3582POPC   C1A46107  34.596  35.679   6.206
 3582POPC   D2A46108  34.435  35.418   6.537
 3582POPC   C3A46109  34.469  35.630   6.911
 3582POPC   C4A46110  34.722  35.596   7.310
 3582POPC   C1B46111  34.758  35.216   6.171
 3582POPC   C2B46112  34.749  34.955   6.563
 3582POPC   C3B46113  34.696  35.134   6.957
 3582POPC   C4B46114  34.338  35.219   7.148
 3583POPC   NC346115   3.245   4.118   4.988
 3583POPC   PO446116   3.751   4.358   5.421
 3583POPC   GL146117   3.645   4.446   5.831
 3583POPC   GL246118   3.328   4.269   5.794
 3583POPC   C1A46119   3.651   4.333   6.248
 3583POPC   D2A46120   3.446   4.262   6.632
 3583POPC   C3A46121   3.678   4.429   6.969
 3583POPC   C4A46122   3.744   4.105   7.235
 3583POPC   C1B46123   3.152   4.469   6.154
 3583POPC   C2B46124   3.123   4.636   6.569
 3583POPC   C3B46125   3.141   4.513   6.988
 3583POPC   C4B46126   3.353   4.434   7.363
 3584POPC   NC346127  33.185  27.921   5.453
 3584POPC   PO446128  32.856  27.306   5.349
 3584POPC   GL146129  33.045  27.508   5.733
 3584POPC   GL246130  33.420  27.459   5.721
 3584POPC   C1A46131  32.939  27.468   6.187
 3584POPC   D2A46132  32.850  27.183   6.556
 3584POPC   C3A46133  32.735  27.436   6.926
 3584POPC   C4A46134  32.996  27.704   7.155
 3584POPC   C1B46135  33.448  27.402   6.181
 3584POPC   C2B46136  33.275  27.525   6.593
 3584POPC   C3B46137  33.452  27.602   6.989
 3584POPC   C4B46138  33.388  27.374   7.394
 3585POPC   NC346139  11.871  39.497   5.419
 3585POPC   PO446140  12.251  39.070   5.178
 3585POPC   GL146141  12.278  39.216   5.634
 3585POPC   GL246142  12.258  39.550   5.776
 3585POPC   C1A46143  12.076  39.180   6.058
 3585POPC   D2A46144  12.092  39.077   6.476
 3585POPC   C3A46145  11.820  39.028   6.801
 3585POPC   C4A46146  11.957  39.317   7.132
 3585POPC   C1B46147  12.176  39.638   6.245
 3585POPC   C2B46148  12.041  39.569   6.676
 3585POPC   C3B46149  12.133  39.793   7.079
 3585POPC   C4B46150  12.415  39.664   7.381
 3586POPC   NC346151  16.983  30.345   5.367
 3586POPC   PO446152  16.497  29.830   5.402
 3586POPC   GL146153  16.540  30.050   5.787
 3586POPC   GL246154  16.915  30.004   5.788
 3586POPC   C1A46155  16.610  29.900   6.209
 3586POPC   D2A46156  16.809  29.661   6.517
 3586POPC   C3A46157  16.813  29.838   6.933
 3586POPC   C4A46158  16.422  29.916   7.166
 3586POPC   C1B46159  17.060  30.151   6.173
 3586POPC   C2B46160  16.886  30.202   6.574
 3586POPC   C3B46161  17.100  30.353   6.928
 3586POPC   C4B46162  17.316  30.377   7.334
 3587POPC   NC346163  40.417  25.319   5.453
 3587POPC   PO446164  39.732  25.501   5.501
 3587POPC   GL146165  39.956  25.250   5.844
 3587POPC   GL246166  40.268  25.409   5.928
 3587POPC   C1A46167  39.983  25.116   6.313
 3587POPC   D2A46168  40.178  25.308   6.671
 3587POPC   C3A46169  39.938  25.279   7.001
 3587POPC   C4A46170  40.217  25.064   7.234
 3587POPC   C1B46171  40.079  25.601   6.272
 3587POPC   C2B46172  40.160  25.829   6.629
 3587POPC   C3B46173  40.094  25.755   7.019
 3587POPC   C4B46174  40.351  25.542   7.235
 3588POPC   NC346175   5.539  29.342   5.524
 3588POPC   PO446176   6.229  29.186   5.487
 3588POPC   GL146177   6.090  29.088   5.866
 3588POPC   GL246178   5.819  28.918   5.704
 3588POPC   C1A46179   6.181  29.293   6.251
 3588POPC   D2A46180   6.116  29.508   6.613
 3588POPC   C3A46181   6.107  29.132   6.855
 3588POPC   C4A46182   5.901  29.041   7.245
 3588POPC   C1B46183   5.657  28.983   6.131
 3588POPC   C2B46184   5.691  29.169   6.532
 3588POPC   C3B46185   5.559  28.973   6.907
 3588POPC   C4B46186   5.616  28.589   7.175
 3589POPC   NC346187  19.334  36.973   5.399
 3589POPC   PO446188  18.765  37.293   5.462
 3589POPC   GL146189  19.009  37.109   5.807
 3589POPC   GL246190  19.350  37.222   5.867
 3589POPC   C1A46191  19.010  36.746   6.110
 3589POPC   D2A46192  18.769  36.647   6.490
 3589POPC   C3A46193  18.957  36.504   6.865
 3589POPC   C4A46194  19.015  36.648   7.255
 3589POPC   C1B46195  19.306  37.111   6.319
 3589POPC   C2B46196  19.191  36.932   6.714
 3589POPC   C3B46197  19.208  37.108   7.121
 3589POPC   C4B46198  19.106  37.241   7.538
 3590POPC   NC346199  15.495  43.458   5.411
 3590POPC   PO446200  15.211  42.816   5.580
 3590POPC   GL146201  15.304  43.042   5.978
 3590POPC   GL246202  15.434  43.381   5.919
 3590POPC   C1A46203  15.151  42.930   6.370
 3590POPC   D2A46204  14.792  43.049   6.631
 3590POPC   C3A46205  14.931  42.977   7.045
 3590POPC   C4A46206  15.353  42.842   7.133
 3590POPC   C1B46207  15.331  43.435   6.371
 3590POPC   C2B46208  15.315  43.225   6.787
 3590POPC   C3B46209  15.504  43.314   7.209
 3590POPC   C4B46210  15.362  43.517   7.626
 3591POPC   NC346211  40.585  22.313   5.484
 3591POPC   PO446212  39.912  22.194   5.407
 3591POPC   GL146213  39.903  22.193   5.823
 3591POPC   GL246214  39.738  21.878   5.819
 3591POPC   C1A46215  40.200  22.328   6.164
 3591POPC   D2A46216  40.240  22.466   6.608
 3591POPC   C3A46217  39.889  22.500   6.920
 3591POPC   C4A46218  39.905  22.479   7.370
 3591POPC   C1B46219  40.018  21.793   6.137
 3591POPC   C2B46220  40.240  21.913   6.483
 3591POPC   C3B46221  40.034  22.023   6.817
 3591POPC   C4B46222  40.033  21.997   7.224
 3592POPC   NC346223  29.809  31.221   5.418
 3592POPC   PO446224  30.129  31.846   5.227
 3592POPC   GL146225  30.042  31.591   5.673
 3592POPC   GL246226  29.699  31.412   5.875
 3592POPC   C1A46227  30.116  31.533   6.119
 3592POPC   D2A46228  29.852  31.587   6.484
 3592POPC   C3A46229  29.953  31.296   6.818
 3592POPC   C4A46230  29.957  31.298   7.287
 3592POPC   C1B46231  29.507  31.125   6.219
 3592POPC   C2B46232  29.545  30.868   6.627
 3592POPC   C3B46233  29.605  30.946   7.085
 3592POPC   C4B46234  29.730  30.931   7.578
 3593POPC   NC346235  43.522  25.941   5.209
 3593POPC   PO446236  44.063  26.228   5.427
 3593POPC   GL146237  43.747  26.184   5.713
 3593POPC   GL246238  43.676  25.846   5.692
 3593POPC   C1A46239  43.693  26.319   6.126
 3593POPC   D2A46240  43.453  26.294   6.512
 3593POPC   C3A46241  43.732  26.291   6.847
 3593POPC   C4A46242  43.597  26.466   7.221
 3593POPC   C1B46243  43.814  25.816   6.110
 3593POPC   C2B46244  43.735  25.820   6.531
 3593POPC   C3B46245  43.607  25.718   6.912
 3593POPC   C4B46246  43.743  25.961   7.236
 3594POPC   NC346247  17.340  22.100   5.159
 3594POPC   PO446248  17.875  22.137   5.607
 3594POPC   GL146249  17.767  22.182   6.003
 3594POPC   GL246250  17.685  22.521   6.044
 3594POPC   C1A46251  17.733  21.880   6.324
 3594POPC   D2A46252  17.549  21.980   6.701
 3594POPC   C3A46253  17.843  21.986   7.010
 3594POPC   C4A46254  17.831  21.825   7.389
 3594POPC   C1B46255  17.300  22.590   6.305
 3594POPC   C2B46256  17.247  22.420   6.711
 3594POPC   C3B46257  17.591  22.446   6.990
 3594POPC   C4B46258  17.572  22.490   7.460
 3595POPC   NC346259  44.481  25.515   5.135
 3595POPC   PO446260  44.830  24.958   5.451
 3595POPC   GL146261  44.553  25.117   5.794
 3595POPC   GL246262  44.486  25.462   5.805
 3595POPC   C1A46263  44.436  25.098   6.245
 3595POPC   D2A46264  44.398  25.284   6.685
 3595POPC   C3A46265  44.610  25.056   7.054
 3595POPC   C4A46266  44.789  25.267   7.427
 3595POPC   C1B46267  44.423  25.630   6.237
 3595POPC   C2B46268  44.630  25.800   6.625
 3595POPC   C3B46269  44.723  25.743   7.064
 3595POPC   C4B46270   0.147  25.701   7.198
 3596POPC   NC346271  10.622   0.706   5.583
 3596POPC   PO446272  10.263   0.126   5.454
 3596POPC   GL146273  10.306   0.391   5.815
 3596POPC   GL246274  10.623   0.345   5.982
 3596POPC   C1A46275  10.199   0.506   6.253
 3596POPC   D2A46276  10.418   0.818   6.539
 3596POPC   C3A46277  10.323   0.811   7.001
 3596POPC   C4A46278  10.616   0.669   7.306
 3596POPC   C1B46279  10.897   0.477   6.323
 3596POPC   C2B46280  10.808   0.501   6.748
 3596POPC   C3B46281  10.493   0.324   6.935
 3596POPC   C4B46282  10.433   0.136   7.316
 3597POPC   NC346283  42.821   9.325   5.488
 3597POPC   PO446284  43.393   8.927   5.394
 3597POPC   GL146285  43.251   9.046   5.811
 3597POPC   GL246286  42.920   8.930   5.827
 3597POPC   C1A46287  43.178   9.236   6.235
 3597POPC   D2A46288  43.425   9.259   6.598
 3597POPC   C3A46289  43.312   9.010   6.936
 3597POPC   C4A46290  43.229   9.094   7.350
 3597POPC   C1B46291  43.015   8.753   6.211
 3597POPC   C2B46292  42.904   8.979   6.621
 3597POPC   C3B46293  42.870   8.820   7.055
 3597POPC   C4B46294  43.214   8.586   7.253
 3598POPC   NC346295   8.395  33.291   5.444
 3598POPC   PO446296   8.026  32.768   5.458
 3598POPC   GL146297   8.183  32.965   5.818
 3598POPC   GL246298   8.532  32.940   5.811
 3598POPC   C1A46299   8.293  33.268   6.159
 3598POPC   D2A46300   8.209  33.428   6.566
 3598POPC   C3A46301   8.307  33.232   6.968
 3598POPC   C4A46302   8.057  33.055   7.296
 3598POPC   C1B46303   8.420  32.783   6.232
 3598POPC   C2B46304   8.204  32.871   6.617
 3598POPC   C3B46305   8.325  32.717   7.034
 3598POPC   C4B46306   8.436  32.771   7.524
 3599POPC   NC346307  29.676  20.377   5.362
 3599POPC   PO446308  30.117  20.830   5.549
 3599POPC   GL146309  29.943  20.540   5.829
 3599POPC   GL246310  30.243  20.347   5.902
 3599POPC   C1A46311  29.940  20.548   6.277
 3599POPC   D2A46312  29.736  20.748   6.560
 3599POPC   C3A46313  29.972  20.588   6.920
 3599POPC   C4A46314  30.007  20.363   7.316
 3599POPC   C1B46315  30.392  20.733   6.130
 3599POPC   C2B46316  30.335  20.752   6.566
 3599POPC   C3B46317  30.328  20.985   6.954
 3599POPC   C4B46318  30.197  20.839   7.356
 3600POPC   NC346319  35.543   5.305   5.495
 3600POPC   PO446320  35.524   4.663   5.557
 3600POPC   GL146321  35.277   4.796   5.959
 3600POPC   GL246322  35.248   5.160   5.893
 3600POPC   C1A46323  35.275   5.058   6.384
 3600POPC   D2A46324  35.125   5.257   6.752
 3600POPC   C3A46325  35.168   4.924   6.959
 3600POPC   C4A46326  35.439   4.798   7.215
 3600POPC   C1B46327  35.607   5.349   6.127
 3600POPC   C2B46328  35.767   5.290   6.512
 3600POPC   C3B46329  35.633   5.186   6.907
 3600POPC   C4B46330  35.463   5.304   7.269
 3601POPC   NC346331  26.159   4.660   5.597
 3601POPC   PO446332  26.055   5.321   5.472
 3601POPC   GL146333  25.857   5.195   5.816
 3601POPC   GL246334  25.743   4.875   5.792
 3601POPC   C1A46335  25.764   5.182   6.234
 3601POPC   D2A46336  26.083   5.053   6.533
 3601POPC   C3A46337  26.001   5.034   6.982
 3601POPC   C4A46338  26.037   5.235   7.398
 3601POPC   C1B46339  25.957   4.701   6.184
 3601POPC   C2B46340  25.822   4.634   6.601
 3601POPC   C3B46341  25.647   4.596   6.979
 3601POPC   C4B46342  25.757   4.757   7.398
 3602POPC   NC346343  18.471   2.528   5.384
 3602POPC   PO446344  18.193   3.127   5.365
 3602POPC   GL146345  18.298   2.966   5.720
 3602POPC   GL246346  18.145   2.643   5.783
 3602POPC   C1A46347  18.497   2.911   6.096
 3602POPC   D2A46348  18.327   2.659   6.407
 3602POPC   C3A46349  18.393   2.932   6.764
 3602POPC   C4A46350  18.398   2.834   7.175
 3602POPC   C1B46351  17.889   2.809   6.110
 3602POPC   C2B46352  17.958   2.989   6.506
 3602POPC   C3B46353  17.940   2.757   6.908
 3602POPC   C4B46354  17.906   2.856   7.344
 3603POPC   NC346355   2.960  40.315   5.353
 3603POPC   PO446356   2.456  39.945   5.592
 3603POPC   GL146357   2.626  40.161   5.918
 3603POPC   GL246358   2.951  40.110   5.847
 3603POPC   C1A46359   2.677  40.183   6.354
 3603POPC   D2A46360   2.700  40.389   6.737
 3603POPC   C3A46361   2.547  40.057   6.979
 3603POPC   C4A46362   2.573  39.849   7.406
 3603POPC   C1B46363   3.134  39.959   6.257
 3603POPC   C2B46364   3.022  39.966   6.715
 3603POPC   C3B46365   3.013  39.992   7.167
 3603POPC   C4B46366   3.013  40.051   7.627
 3604POPC   NC346367  40.655   8.652   5.541
 3604POPC   PO446368  40.986   9.184   5.304
 3604POPC   GL146369  40.948   9.073   5.756
 3604POPC   GL246370  40.613   9.102   5.831
 3604POPC   C1A46371  40.969   9.101   6.244
 3604POPC   D2A46372  40.920   8.784   6.609
 3604POPC   C3A46373  41.105   8.857   7.030
 3604POPC   C4A46374  40.898   8.949   7.450
 3604POPC   C1B46375  40.563   8.795   6.185
 3604POPC   C2B46376  40.409   8.844   6.611
 3604POPC   C3B46377  40.591   8.903   7.014
 3604POPC   C4B46378  40.758   8.514   7.185
 3605POPC   NC346379  25.293  17.683   5.429
 3605POPC   PO446380  25.162  17.017   5.441
 3605POPC   GL146381  25.249  17.220   5.873
 3605POPC   GL246382  25.195  17.578   5.924
 3605POPC   C1A46383  25.498  17.346   6.266
 3605POPC   D2A46384  25.451  17.252   6.711
 3605POPC   C3A46385  25.524  17.575   6.989
 3605POPC   C4A46386  25.582  17.857   7.355
 3605POPC   C1B46387  24.965  17.407   6.317
 3605POPC   C2B46388  24.649  17.573   6.648
 3605POPC   C3B46389  24.782  17.806   7.020
 3605POPC   C4B46390  25.104  17.603   7.261
 3606POPC   NC346391  16.902  15.993   5.394
 3606POPC   PO446392  16.218  15.785   5.294
 3606POPC   GL146393  16.501  15.825   5.710
 3606POPC   GL246394  16.733  16.133   5.852
 3606POPC   C1A46395  16.674  15.717   6.142
 3606POPC   D2A46396  16.612  15.971   6.542
 3606POPC   C3A46397  16.646  15.803   6.976
 3606POPC   C4A46398  17.058  15.733   7.104
 3606POPC   C1B46399  17.019  16.120   6.222
 3606POPC   C2B46400  17.110  15.942   6.622
 3606POPC   C3B46401  16.982  16.209   6.968
 3606POPC   C4B46402  17.257  16.287   7.304
 3607POPC   NC346403   4.195   8.817   5.181
 3607POPC   PO446404   4.695   9.182   5.375
 3607POPC   GL146405   4.402   8.951   5.681
 3607POPC   GL246406   4.073   9.067   5.727
 3607POPC   C1A46407   4.292   8.765   6.100
 3607POPC   D2A46408   4.134   8.856   6.529
 3607POPC   C3A46409   4.255   8.766   6.972
 3607POPC   C4A46410   4.489   9.009   7.256
 3607POPC   C1B46411   4.018   9.209   6.156
 3607POPC   C2B46412   4.020   9.368   6.607
 3607POPC   C3B46413   4.096   9.276   7.063
 3607POPC   C4B46414   4.275   9.392   7.507
 3608POPC   NC346415  42.002   2.060   5.450
 3608POPC   PO446416  41.532   1.585   5.232
 3608POPC   GL146417  41.495   1.792   5.662
 3608POPC   GL246418  41.197   2.038   5.718
 3608POPC   C1A46419  41.598   1.705   6.143
 3608POPC   D2A46420  41.849   1.667   6.540
 3608POPC   C3A46421  41.713   1.787   6.981
 3608POPC   C4A46422  41.878   1.849   7.433
 3608POPC   C1B46423  41.525   2.186   5.999
 3608POPC   C2B46424  41.639   2.165   6.410
 3608POPC   C3B46425  41.689   2.295   6.805
 3608POPC   C4B46426  41.616   2.239   7.224
 3609POPC   NC346427  28.272  13.775   5.402
 3609POPC   PO446428  28.925  13.941   5.420
 3609POPC   GL146429  28.642  13.749   5.747
 3609POPC   GL246430  28.339  13.935   5.877
 3609POPC   C1A46431  28.561  13.639   6.181
 3609POPC   D2A46432  28.253  13.509   6.467
 3609POPC   C3A46433  28.431  13.282   6.798
 3609POPC   C4A46434  28.290  13.446   7.172
 3609POPC   C1B46435  27.976  13.827   6.136
 3609POPC   C2B46436  27.835  13.829   6.563
 3609POPC   C3B46437  28.183  13.848   6.860
 3609POPC   C4B46438  28.287  14.058   7.236
 3610POPC   NC346439  39.663  34.984   5.149
 3610POPC   PO446440  40.294  34.712   5.406
 3610POPC   GL146441  40.073  34.680   5.825
 3610POPC   GL246442  39.891  34.987   5.851
 3610POPC   C1A46443  39.967  34.509   6.251
 3610POPC   D2A46444  40.179  34.495   6.649
 3610POPC   C3A46445  40.041  34.518   7.067
 3610POPC   C4A46446  39.818  34.224   7.312
 3610POPC   C1B46447  39.566  34.802   6.145
 3610POPC   C2B46448  39.493  34.669   6.578
 3610POPC   C3B46449  39.517  34.600   7.032
 3610POPC   C4B46450  39.702  34.710   7.437
 3611POPC   NC346451   0.500  40.670   5.247
 3611POPC   PO446452   0.231  41.181   5.553
 3611POPC   GL146453   0.569  41.006   5.796
 3611POPC   GL246454   0.667  40.667   5.743
 3611POPC   C1A46455   0.671  40.884   6.215
 3611POPC   D2A46456   0.410  40.704   6.523
 3611POPC   C3A46457   0.557  40.830   6.877
 3611POPC   C4A46458   0.455  40.797   7.280
 3611POPC   C1B46459   0.446  40.430   6.082
 3611POPC   C2B46460   0.547  40.207   6.481
 3611POPC   C3B46461   0.506  40.324   6.905
 3611POPC   C4B46462   0.745  40.347   7.278
 3612POPC   NC346463  42.938  30.273   5.672
 3612POPC   PO446464  42.866  30.843   5.318
 3612POPC   GL146465  42.950  30.967   5.786
 3612POPC   GL246466  43.328  30.907   5.841
 3612POPC   C1A46467  43.013  31.054   6.228
 3612POPC   D2A46468  43.006  30.872   6.639
 3612POPC   C3A46469  43.230  30.848   7.048
 3612POPC   C4A46470  43.007  30.955   7.428
 3612POPC   C1B46471  43.391  30.718   6.260
 3612POPC   C2B46472  43.398  30.537   6.649
 3612POPC   C3B46473  43.501  30.318   7.015
 3612POPC   C4B46474  43.560  30.445   7.421
 3613POPC   NC346475  33.543  13.467   5.102
 3613POPC   PO446476  34.069  13.496   5.560
 3613POPC   GL146477  33.827  13.660   5.876
 3613POPC   GL246478  33.588  13.878   5.810
 3613POPC   C1A46479  33.849  13.689   6.299
 3613POPC   D2A46480  33.849  13.395   6.618
 3613POPC   C3A46481  33.633  13.602   6.938
 3613POPC   C4A46482  33.806  13.666   7.323
 3613POPC   C1B46483  33.309  13.832   6.123
 3613POPC   C2B46484  33.355  13.807   6.532
 3613POPC   C3B46485  33.249  14.063   6.867
 3613POPC   C4B46486  33.232  13.787   7.211
 3614POPC   NC346487  24.816  43.989   5.393
 3614POPC   PO446488  24.220  43.860   5.274
 3614POPC   GL146489  24.429  44.015   5.713
 3614POPC   GL246490  24.519  43.680   5.843
 3614POPC   C1A46491  24.651  44.109   6.138
 3614POPC   D2A46492  24.595  44.240   6.585
 3614POPC   C3A46493  24.765  43.995   6.906
 3614POPC   C4A46494  24.718  43.955   7.333
 3614POPC   C1B46495  24.311  43.727   6.247
 3614POPC   C2B46496  24.303  43.822   6.680
 3614POPC   C3B46497  24.280  43.928   7.075
 3614POPC   C4B46498  24.305  43.655   7.365
 3615POPC   NC346499   3.820  20.009   5.460
 3615POPC   PO446500   3.119  19.694   5.359
 3615POPC   GL146501   3.345  19.810   5.707
 3615POPC   GL246502   3.595  19.535   5.726
 3615POPC   C1A46503   3.389  19.770   6.155
 3615POPC   D2A46504   3.621  19.883   6.520
 3615POPC   C3A46505   3.431  19.813   6.893
 3615POPC   C4A46506   3.340  19.498   7.192
 3615POPC   C1B46507   3.859  19.555   6.097
 3615POPC   C2B46508   4.023  19.297   6.425
 3615POPC   C3B46509   3.945  19.547   6.774
 3615POPC   C4B46510   3.849  19.690   7.178
 3616POPC   NC346511  33.959   7.058   5.536
 3616POPC   PO446512  33.606   6.478   5.288
 3616POPC   GL146513  33.749   6.619   5.712
 3616POPC   GL246514  34.127   6.573   5.694
 3616POPC   C1A46515  33.678   6.741   6.172
 3616POPC   D2A46516  33.816   6.852   6.602
 3616POPC   C3A46517  33.662   6.640   6.939
 3616POPC   C4A46518  33.472   6.661   7.299
 3616POPC   C1B46519  34.198   6.741   6.121
 3616POPC   C2B46520  34.335   6.744   6.557
 3616POPC   C3B46521  34.166   6.647   6.963
 3616POPC   C4B46522  33.965   6.851   7.319
 3617POPC   NC346523  43.520  37.796   5.616
 3617POPC   PO446524  44.158  37.647   5.403
 3617POPC   GL146525  44.064  37.423   5.827
 3617POPC   GL246526  43.846  37.652   5.993
 3617POPC   C1A46527  44.176  37.376   6.298
 3617POPC   D2A46528  43.927  37.625   6.561
 3617POPC   C3A46529  43.885  37.549   6.996
 3617POPC   C4A46530  44.092  37.804   7.274
 3617POPC   C1B46531  43.529  37.829   6.275
 3617POPC   C2B46532  43.503  38.047   6.660
 3617POPC   C3B46533  43.620  38.030   7.080
 3617POPC   C4B46534  43.602  37.819   7.443
 3618POPC   NC346535  44.314  17.099   5.511
 3618POPC   PO446536  43.685  16.664   5.441
 3618POPC   GL146537  43.998  16.641   5.797
 3618POPC   GL246538  44.195  16.344   5.853
 3618POPC   C1A46539  43.934  16.609   6.258
 3618POPC   D2A46540  43.734  16.814   6.624
 3618POPC   C3A46541  43.863  16.673   7.042
 3618POPC   C4A46542  43.767  16.786   7.497
 3618POPC   C1B46543  44.215  16.178   6.279
 3618POPC   C2B46544  44.071  16.317   6.677
 3618POPC   C3B46545  44.160  16.211   7.089
 3618POPC   C4B46546  44.207  16.528   7.395
 3619POPC   NC346547  15.244   3.274   5.515
 3619POPC   PO446548  15.006   3.906   5.421
 3619POPC   GL146549  15.041   3.666   5.806
 3619POPC   GL246550  14.898   3.319   5.874
 3619POPC   C1A46551  15.381   3.601   6.122
 3619POPC   D2A46552  15.313   3.734   6.557
 3619POPC   C3A46553  15.264   3.581   6.964
 3619POPC   C4A46554  15.499   3.781   7.258
 3619POPC   C1B46555  14.928   3.490   6.281
 3619POPC   C2B46556  14.931   3.330   6.678
 3619POPC   C3B46557  14.882   3.250   7.098
 3619POPC   C4B46558  15.035   3.516   7.437
 3620POPC   NC346559  32.223  14.031   5.464
 3620POPC   PO446560  32.584  14.512   5.448
 3620POPC   GL146561  32.377  14.379   5.812
 3620POPC   GL246562  32.015  14.441   5.794
 3620POPC   C1A46563  32.332  14.421   6.244
 3620POPC   D2A46564  32.432  14.302   6.639
 3620POPC   C3A46565  32.510  14.514   7.009
 3620POPC   C4A46566  32.198  14.218   7.143
 3620POPC   C1B46567  31.839  14.634   6.191
 3620POPC   C2B46568  31.642  14.631   6.617
 3620POPC   C3B46569  31.775  14.499   7.052
 3620POPC   C4B46570  32.093  14.642   7.388
 3621POPC   NC346571  30.847   3.680   5.395
 3621POPC   PO446572  30.263   3.370   5.497
 3621POPC   GL146573  30.577   3.534   5.814
 3621POPC   GL246574  30.901   3.377   5.783
 3621POPC   C1A46575  30.749   3.731   6.186
 3621POPC   D2A46576  31.039   3.806   6.565
 3621POPC   C3A46577  30.861   3.851   6.970
 3621POPC   C4A46578  30.475   3.699   7.149
 3621POPC   C1B46579  30.881   3.209   6.165
 3621POPC   C2B46580  30.734   3.366   6.566
 3621POPC   C3B46581  30.793   3.316   6.990
 3621POPC   C4B46582  30.869   3.524   7.411
 3622POPC   NC346583  41.147  17.380   5.421
 3622POPC   PO446584  41.775  17.432   5.463
 3622POPC   GL146585  41.697  17.641   5.842
 3622POPC   GL246586  41.340  17.783   5.787
 3622POPC   C1A46587  41.874  17.529   6.263
 3622POPC   D2A46588  41.682  17.331   6.609
 3622POPC   C3A46589  41.682  17.507   7.019
 3622POPC   C4A46590  41.287  17.460   7.201
 3622POPC   C1B46591  41.368  17.680   6.227
 3622POPC   C2B46592  41.264  17.662   6.652
 3622POPC   C3B46593  41.380  17.919   6.971
 3622POPC   C4B46594  41.540  17.865   7.388
 3623POPC   NC346595  38.189  36.192   5.302
 3623POPC   PO446596  38.647  35.765   5.505
 3623POPC   GL146597  38.513  36.148   5.735
 3623POPC   GL246598  38.206  36.315   5.773
 3623POPC   C1A46599  38.584  36.291   6.158
 3623POPC   D2A46600  38.752  36.083   6.525
 3623POPC   C3A46601  38.764  36.259   6.938
 3623POPC   C4A46602  38.486  36.341   7.308
 3623POPC   C1B46603  38.157  35.979   6.051
 3623POPC   C2B46604  38.236  36.042   6.468
 3623POPC   C3B46605  38.268  36.089   6.910
 3623POPC   C4B46606  38.129  35.958   7.320
 3624POPC   NC346607  18.145  21.798   5.436
 3624POPC   PO446608  18.545  21.281   5.486
 3624POPC   GL146609  18.419  21.565   5.820
 3624POPC   GL246610  18.500  21.287   6.049
 3624POPC   C1A46611  18.103  21.560   6.183
 3624POPC   D2A46612  18.251  21.403   6.590
 3624POPC   C3A46613  18.034  21.502   6.961
 3624POPC   C4A46614  18.269  21.477   7.329
 3624POPC   C1B46615  18.130  21.052   6.231
 3624POPC   C2B46616  18.051  20.916   6.631
 3624POPC   C3B46617  18.268  21.029   6.986
 3624POPC   C4B46618  18.136  20.985   7.366
 3625POPC   NC346619  36.256  11.859   5.373
 3625POPC   PO446620  36.227  12.427   5.656
 3625POPC   GL146621  36.174  12.081   5.852
 3625POPC   GL246622  35.866  11.941   5.755
 3625POPC   C1A46623  36.090  12.152   6.253
 3625POPC   D2A46624  36.123  11.974   6.606
 3625POPC   C3A46625  36.260  12.263   6.879
 3625POPC   C4A46626  36.208  12.271   7.288
 3625POPC   C1B46627  35.642  11.921   6.165
 3625POPC   C2B46628  35.664  11.780   6.602
 3625POPC   C3B46629  35.894  11.818   7.029
 3625POPC   C4B46630  35.817  11.966   7.448
 3626POPC   NC346631   7.966  21.595   5.532
 3626POPC   PO446632   8.444  21.128   5.404
 3626POPC   GL146633   8.306  21.326   5.804
 3626POPC   GL246634   8.353  21.675   5.885
 3626POPC   C1A46635   8.382  21.332   6.257
 3626POPC   D2A46636   8.475  21.252   6.666
 3626POPC   C3A46637   8.446  21.568   6.989
 3626POPC   C4A46638   8.206  21.358   7.325
 3626POPC   C1B46639   7.942  21.576   6.169
 3626POPC   C2B46640   7.736  21.610   6.553
 3626POPC   C3B46641   7.929  21.558   6.932
 3626POPC   C4B46642   8.070  21.836   7.258
 3627POPC   NC346643  35.580   7.124   5.439
 3627POPC   PO446644  35.144   7.693   5.522
 3627POPC   GL146645  35.264   7.337   5.766
 3627POPC   GL246646  35.595   7.518   5.770
 3627POPC   C1A46647  35.488   7.145   6.128
 3627POPC   D2A46648  35.356   7.337   6.510
 3627POPC   C3A46649  35.223   7.279   6.909
 3627POPC   C4A46650  35.381   7.183   7.285
 3627POPC   C1B46651  35.437   7.678   6.127
 3627POPC   C2B46652  35.314   7.837   6.495
 3627POPC   C3B46653  35.435   7.744   6.877
 3627POPC   C4B46654  35.315   7.730   7.262
 3628POPC   NC346655  12.011  43.017   5.181
 3628POPC   PO446656  12.457  43.510   5.365
 3628POPC   GL146657  12.169  43.252   5.729
 3628POPC   GL246658  12.187  42.921   5.958
 3628POPC   C1A46659  11.882  43.271   6.118
 3628POPC   D2A46660  12.000  42.998   6.482
 3628POPC   C3A46661  12.013  43.094   6.926
 3628POPC   C4A46662  11.818  42.856   7.266
 3628POPC   C1B46663  12.445  42.817   6.305
 3628POPC   C2B46664  12.425  42.725   6.762
 3628POPC   C3B46665  12.483  43.007   7.127
 3628POPC   C4B46666  12.434  43.445   7.343
 3629POPC   NC346667  27.899  33.912   5.440
 3629POPC   PO446668  27.348  33.712   5.240
 3629POPC   GL146669  27.516  33.625   5.685
 3629POPC   GL246670  27.889  33.535   5.757
 3629POPC   C1A46671  27.363  33.751   6.113
 3629POPC   D2A46672  27.125  33.742   6.512
 3629POPC   C3A46673  27.346  33.800   6.886
 3629POPC   C4A46674  27.355  33.680   7.282
 3629POPC   C1B46675  27.831  33.530   6.206
 3629POPC   C2B46676  27.630  33.448   6.619
 3629POPC   C3B46677  27.687  33.348   7.057
 3629POPC   C4B46678  27.779  33.484   7.478
 3630POPC   NC346679   3.416  13.092   5.387
 3630POPC   PO446680   3.775  12.496   5.407
 3630POPC   GL146681   3.625  12.799   5.779
 3630POPC   GL246682   3.232  12.834   5.810
 3630POPC   C1A46683   3.756  12.987   6.223
 3630POPC   D2A46684   3.750  12.799   6.663
 3630POPC   C3A46685   3.938  12.857   7.099
 3630POPC   C4A46686   3.969  12.638   7.516
 3630POPC   C1B46687   3.124  13.100   6.174
 3630POPC   C2B46688   3.374  13.158   6.581
 3630POPC   C3B46689   3.434  12.993   7.008
 3630POPC   C4B46690   3.272  13.166   7.355
 3631POPC   NC346691   2.526   6.922   5.330
 3631POPC   PO446692   3.023   6.502   5.189
 3631POPC   GL146693   2.973   6.706   5.605
 3631POPC   GL246694   2.649   6.602   5.723
 3631POPC   C1A46695   3.007   6.662   6.080
 3631POPC   D2A46696   2.683   6.560   6.410
 3631POPC   C3A46697   2.822   6.467   6.819
 3631POPC   C4A46698   2.943   6.760   7.159
 3631POPC   C1B46699   2.447   6.824   6.041
 3631POPC   C2B46700   2.330   6.982   6.462
 3631POPC   C3B46701   2.451   6.797   6.869
 3631POPC   C4B46702   2.468   6.955   7.285
 3632POPC   NC346703  23.050  34.034   5.312
 3632POPC   PO446704  23.393  33.502   5.532
 3632POPC   GL146705  23.206  33.859   5.801
 3632POPC   GL246706  23.180  34.253   5.786
 3632POPC   C1A46707  23.032  33.836   6.238
 3632POPC   D2A46708  22.673  33.817   6.560
 3632POPC   C3A46709  22.802  33.708   6.994
 3632POPC   C4A46710  22.663  33.942   7.403
 3632POPC   C1B46711  23.071  34.348   6.250
 3632POPC   C2B46712  23.082  34.131   6.692
 3632POPC   C3B46713  23.098  34.073   7.176
 3632POPC   C4B46714  23.110  34.173   7.653
 3633POPC   NC346715  13.873  11.144   5.317
 3633POPC   PO446716  13.344  11.490   5.325
 3633POPC   GL146717  13.609  11.359   5.709
 3633POPC   GL246718  13.681  10.988   5.794
 3633POPC   C1A46719  13.638  11.403   6.160
 3633POPC   D2A46720  13.794  11.327   6.566
 3633POPC   C3A46721  13.502  11.269   6.897
 3633POPC   C4A46722  13.607  11.521   7.214
 3633POPC   C1B46723  13.715  10.890   6.244
 3633POPC   C2B46724  13.729  10.838   6.700
 3633POPC   C3B46725  14.013  11.077   6.997
 3633POPC   C4B46726  14.015  11.267   7.417
 3634POPC   NC346727   0.847   6.628   5.591
 3634POPC   PO446728   1.360   7.005   5.330
 3634POPC   GL146729   1.299   6.757   5.783
 3634POPC   GL246730   1.253   6.367   5.766
 3634POPC   C1A46731   1.021   6.635   6.210
 3634POPC   D2A46732   0.963   6.752   6.663
 3634POPC   C3A46733   1.378   6.700   6.857
 3634POPC   C4A46734   1.523   6.565   7.242
 3634POPC   C1B46735   1.242   6.166   6.175
 3634POPC   C2B46736   1.185   6.292   6.597
 3634POPC   C3B46737   1.171   6.245   7.014
 3634POPC   C4B46738   1.336   5.999   7.312
 3635POPC   NC346739  40.452  39.689   5.188
 3635POPC   PO446740  39.847  39.247   5.111
 3635POPC   GL146741  40.063  39.188   5.612
 3635POPC   GL246742  39.765  39.060   5.805
 3635POPC   C1A46743  40.155  39.357   6.070
 3635POPC   D2A46744  40.268  39.184   6.508
 3635POPC   C3A46745  40.219  39.388   6.922
 3635POPC   C4A46746  40.311  39.166   7.304
 3635POPC   C1B46747  39.693  39.172   6.253
 3635POPC   C2B46748  39.758  39.284   6.702
 3635POPC   C3B46749  39.800  39.224   7.176
 3635POPC   C4B46750  39.744  39.516   7.533
 3636POPC   NC346751  29.124  24.204   5.538
 3636POPC   PO446752  28.927  24.817   5.390
 3636POPC   GL146753  28.982  24.632   5.778
 3636POPC   GL246754  29.351  24.694   5.754
 3636POPC   C1A46755  28.908  24.389   6.140
 3636POPC   D2A46756  28.870  24.549   6.557
 3636POPC   C3A46757  29.091  24.677   6.914
 3636POPC   C4A46758  29.088  24.359   7.204
 3636POPC   C1B46759  29.401  24.497   6.147
 3636POPC   C2B46760  29.396  24.419   6.581
 3636POPC   C3B46761  29.561  24.398   7.006
 3636POPC   C4B46762  29.565  24.529   7.432
 3637POPC   NC346763  43.944  30.805   5.569
 3637POPC   PO446764  43.397  30.363   5.668
 3637POPC   GL146765  43.735  30.546   5.932
 3637POPC   GL246766  43.818  30.928   6.034
 3637POPC   C1A46767  43.991  30.495   6.268
 3637POPC   D2A46768  43.884  30.421   6.662
 3637POPC   C3A46769  43.787  30.734   6.951
 3637POPC   C4A46770  44.009  30.461   7.191
 3637POPC   C1B46771  44.215  30.950   6.280
 3637POPC   C2B46772  44.309  30.839   6.715
 3637POPC   C3B46773  44.276  30.891   7.165
 3637POPC   C4B46774  44.304  30.958   7.609
 3638POPC   NC346775  31.652  28.403   5.343
 3638POPC   PO446776  31.069  28.532   5.643
 3638POPC   GL146777  31.424  28.363   5.830
 3638POPC   GL246778  31.679  28.604   5.789
 3638POPC   C1A46779  31.462  28.212   6.251
 3638POPC   D2A46780  31.491  27.933   6.618
 3638POPC   C3A46781  31.387  28.182   6.963
 3638POPC   C4A46782  31.324  28.548   7.228
 3638POPC   C1B46783  31.814  28.652   6.162
 3638POPC   C2B46784  31.595  28.663   6.517
 3638POPC   C3B46785  31.766  28.554   6.872
 3638POPC   C4B46786  31.841  28.742   7.238
 3639POPC   NC346787  34.387   4.826   5.514
 3639POPC   PO446788  34.707   5.469   5.355
 3639POPC   GL146789  34.587   5.263   5.771
 3639POPC   GL246790  34.794   4.916   5.785
 3639POPC   C1A46791  34.335   5.321   6.204
 3639POPC   D2A46792  34.234   5.578   6.616
 3639POPC   C3A46793  34.209   5.329   7.034
 3639POPC   C4A46794  34.387   5.073   7.350
 3639POPC   C1B46795  34.814   5.085   6.178
 3639POPC   C2B46796  34.728   4.963   6.571
 3639POPC   C3B46797  34.687   5.084   6.963
 3639POPC   C4B46798  34.852   4.857   7.347
 3640POPC   NC346799   4.546  15.424   5.315
 3640POPC   PO446800   4.064  14.928   5.488
 3640POPC   GL146801   4.147  15.241   5.823
 3640POPC   GL246802   4.290  15.055   6.037
 3640POPC   C1A46803   4.010  15.427   6.247
 3640POPC   D2A46804   4.110  15.159   6.617
 3640POPC   C3A46805   4.139  15.289   7.059
 3640POPC   C4A46806   3.947  15.236   7.486
 3640POPC   C1B46807   4.591  14.960   6.318
 3640POPC   C2B46808   4.589  14.953   6.722
 3640POPC   C3B46809   4.519  14.936   7.128
 3640POPC   C4B46810   4.822  14.857   7.430
 3641POPC   NC346811  19.104  41.271   5.581
 3641POPC   PO446812  18.909  41.921   5.455
 3641POPC   GL146813  19.078  41.727   5.836
 3641POPC   GL246814  18.744  41.553   5.846
 3641POPC   C1A46815  19.258  41.485   6.216
 3641POPC   D2A46816  19.091  41.328   6.627
 3641POPC   C3A46817  19.337  41.443   7.003
 3641POPC   C4A46818  19.167  41.589   7.433
 3641POPC   C1B46819  18.779  41.654   6.282
 3641POPC   C2B46820  19.051  41.854   6.571
 3641POPC   C3B46821  19.108  41.905   7.004
 3641POPC   C4B46822  19.129  42.175   7.341
 3642POPC   NC346823  28.707  37.967   5.524
 3642POPC   PO446824  28.007  38.036   5.513
 3642POPC   GL146825  28.263  37.830   5.857
 3642POPC   GL246826  28.631  37.798   5.995
 3642POPC   C1A46827  28.221  37.844   6.308
 3642POPC   D2A46828  28.021  37.764   6.692
 3642POPC   C3A46829  28.338  37.830   6.983
 3642POPC   C4A46830  28.455  37.756   7.398
 3642POPC   C1B46831  28.514  37.420   6.257
 3642POPC   C2B46832  28.416  37.381   6.692
 3642POPC   C3B46833  28.624  37.371   7.087
 3642POPC   C4B46834  28.475  37.258   7.483
 3643POPC   NC346835  15.425  19.498   5.097
 3643POPC   PO446836  15.085  18.987   5.399
 3643POPC   GL146837  15.306  18.891   5.788
 3643POPC   GL246838  15.058  19.092   5.896
 3643POPC   C1A46839  15.258  18.825   6.271
 3643POPC   D2A46840  15.089  19.063   6.658
 3643POPC   C3A46841  15.175  18.849   7.047
 3643POPC   C4A46842  15.575  18.670   7.109
 3643POPC   C1B46843  15.223  19.349   6.215
 3643POPC   C2B46844  15.568  19.474   6.474
 3643POPC   C3B46845  15.471  19.547   6.905
 3643POPC   C4B46846  15.153  19.352   7.155
 3644POPC   NC346847   8.544   8.559   5.374
 3644POPC   PO446848   7.836   8.427   5.478
 3644POPC   GL146849   8.111   8.182   5.761
 3644POPC   GL246850   8.390   7.889   5.665
 3644POPC   C1A46851   8.053   8.238   6.179
 3644POPC   D2A46852   8.308   8.423   6.442
 3644POPC   C3A46853   8.240   8.291   6.863
 3644POPC   C4A46854   8.017   8.258   7.235
 3644POPC   C1B46855   8.489   7.980   6.102
 3644POPC   C2B46856   8.312   7.881   6.498
 3644POPC   C3B46857   8.384   7.803   6.915
 3644POPC   C4B46858   8.511   7.977   7.269
 3645POPC   NC346859  20.364  22.707   5.555
 3645POPC   PO446860  21.001  22.872   5.312
 3645POPC   GL146861  20.762  23.035   5.768
 3645POPC   GL246862  20.435  23.055   5.910
 3645POPC   C1A46863  20.837  23.026   6.243
 3645POPC   D2A46864  20.886  23.213   6.672
 3645POPC   C3A46865  20.830  23.042   7.102
 3645POPC   C4A46866  20.791  23.332   7.467
 3645POPC   C1B46867  20.431  22.717   6.231
 3645POPC   C2B46868  20.627  22.739   6.645
 3645POPC   C3B46869  20.437  22.706   7.038
 3645POPC   C4B46870  20.370  22.597   7.453
 3646POPC   NC346871   2.552  24.146   5.388
 3646POPC   PO446872   2.754  23.519   5.388
 3646POPC   GL146873   2.770  23.702   5.783
 3646POPC   GL246874   2.439  23.814   5.805
 3646POPC   C1A46875   3.001  23.831   6.173
 3646POPC   D2A46876   2.860  23.761   6.614
 3646POPC   C3A46877   3.076  23.747   7.011
 3646POPC   C4A46878   2.852  23.685   7.394
 3646POPC   C1B46879   2.505  23.706   6.247
 3646POPC   C2B46880   2.323  23.612   6.654
 3646POPC   C3B46881   2.494  23.654   7.059
 3646POPC   C4B46882   2.300  23.706   7.488
 3647POPC   NC346883  12.510  37.244   5.453
 3647POPC   PO446884  12.155  36.658   5.487
 3647POPC   GL146885  12.042  36.934   5.835
 3647POPC   GL246886  12.231  37.245   5.897
 3647POPC   C1A46887  11.848  36.897   6.226
 3647POPC   D2A46888  11.991  37.069   6.623
 3647POPC   C3A46889  11.806  37.089   6.972
 3647POPC   C4A46890  11.884  36.771   7.177
 3647POPC   C1B46891  12.352  37.005   6.271
 3647POPC   C2B46892  12.467  36.900   6.688
 3647POPC   C3B46893  12.372  37.026   7.138
 3647POPC   C4B46894  12.564  37.132   7.587
 3648POPC   NC346895  30.338  26.282   5.667
 3648POPC   PO446896  29.762  26.101   5.325
 3648POPC   GL146897  29.869  26.004   5.776
 3648POPC   GL246898  30.088  25.697   5.829
 3648POPC   C1A46899  29.693  25.883   6.200
 3648POPC   D2A46900  29.902  26.033   6.607
 3648POPC   C3A46901  29.662  26.280   6.886
 3648POPC   C4A46902  29.544  25.998   7.220
 3648POPC   C1B46903  30.183  25.990   6.186
 3648POPC   C2B46904  30.426  26.041   6.518
 3648POPC   C3B46905  30.368  25.911   6.921
 3648POPC   C4B46906  30.051  26.087   7.184
 3649POPC   NC346907   5.937  37.254   5.354
 3649POPC   PO446908   5.976  36.672   5.676
 3649POPC   GL146909   5.944  36.986   5.896
 3649POPC   GL246910   6.265  37.099   5.851
 3649POPC   C1A46911   5.821  36.879   6.295
 3649POPC   D2A46912   5.727  36.708   6.655
 3649POPC   C3A46913   5.707  37.008   6.952
 3649POPC   C4A46914   5.502  37.042   7.311
 3649POPC   C1B46915   6.169  37.249   6.256
 3649POPC   C2B46916   6.145  37.052   6.638
 3649POPC   C3B46917   6.172  37.229   6.990
 3649POPC   C4B46918   6.045  37.075   7.371
 3650POPC   NC346919  32.407   6.137   5.449
 3650POPC   PO446920  32.359   5.495   5.639
 3650POPC   GL146921  32.117   5.779   5.844
 3650POPC   GL246922  31.779   5.612   5.858
 3650POPC   C1A46923  32.252   5.923   6.244
 3650POPC   D2A46924  32.141   5.765   6.640
 3650POPC   C3A46925  32.351   5.974   6.971
 3650POPC   C4A46926  32.300   6.215   7.356
 3650POPC   C1B46927  31.720   5.821   6.261
 3650POPC   C2B46928  31.623   5.783   6.696
 3650POPC   C3B46929  31.850   5.904   7.052
 3650POPC   C4B46930  32.141   5.721   7.360
 3651POPC   NC346931  37.906  23.720   5.389
 3651POPC   PO446932  37.320  24.046   5.370
 3651POPC   GL146933  37.579  23.974   5.795
 3651POPC   GL246934  37.676  23.607   5.830
 3651POPC   C1A46935  37.698  23.837   6.270
 3651POPC   D2A46936  37.739  23.600   6.682
 3651POPC   C3A46937  37.719  23.938   7.011
 3651POPC   C4A46938  37.580  24.084   7.429
 3651POPC   C1B46939  37.959  23.406   6.156
 3651POPC   C2B46940  38.004  23.164   6.538
 3651POPC   C3B46941  38.069  23.269   6.947
 3651POPC   C4B46942  38.229  23.601   7.206
 3652POPC   NC346943  22.257  23.933   5.396
 3652POPC   PO446944  21.785  23.486   5.396
 3652POPC   GL146945  21.939  23.749   5.768
 3652POPC   GL246946  22.004  24.132   5.816
 3652POPC   C1A46947  21.968  23.812   6.219
 3652POPC   D2A46948  22.125  23.585   6.550
 3652POPC   C3A46949  22.211  23.669   6.956
 3652POPC   C4A46950  21.999  23.555   7.292
 3652POPC   C1B46951  22.268  24.208   6.219
 3652POPC   C2B46952  22.203  24.098   6.649
 3652POPC   C3B46953  22.254  24.160   7.089
 3652POPC   C4B46954  22.347  23.879   7.431
 3653POPC   NC346955  36.222  36.243   5.223
 3653POPC   PO446956  36.026  35.693   5.151
 3653POPC   GL146957  35.950  36.174   5.613
 3653POPC   GL246958  36.212  36.479   5.667
 3653POPC   C1A46959  35.990  36.162   6.109
 3653POPC   D2A46960  36.194  35.901   6.469
 3653POPC   C3A46961  36.125  35.870   6.941
 3653POPC   C4A46962  35.991  35.850   7.390
 3653POPC   C1B46963  36.333  36.574   6.083
 3653POPC   C2B46964  36.215  36.440   6.496
 3653POPC   C3B46965  36.224  36.360   6.927
 3653POPC   C4B46966  36.268  36.289   7.374
 3654POPC   NC346967  19.745   3.615   5.499
 3654POPC   PO446968  20.263   3.234   5.473
 3654POPC   GL146969  20.027   3.391   5.843
 3654POPC   GL246970  20.052   3.776   5.872
 3654POPC   C1A46971  19.855   3.333   6.263
 3654POPC   D2A46972  19.981   3.600   6.612
 3654POPC   C3A46973  19.676   3.579   6.935
 3654POPC   C4A46974  19.612   3.641   7.357
 3654POPC   C1B46975  19.745   3.840   6.182
 3654POPC   C2B46976  19.729   4.059   6.593
 3654POPC   C3B46977  19.889   4.105   7.016
 3654POPC   C4B46978  19.827   4.095   7.480
 3655POPC   NC346979  31.713  29.402   5.330
 3655POPC   PO446980  31.025  29.250   5.327
 3655POPC   GL146981  31.336  28.997   5.629
 3655POPC   GL246982  31.698  29.106   5.743
 3655POPC   C1A46983  31.371  28.923   6.103
 3655POPC   D2A46984  31.379  29.172   6.508
 3655POPC   C3A46985  31.627  29.070   6.887
 3655POPC   C4A46986  31.433  29.046   7.315
 3655POPC   C1B46987  31.805  29.234   6.193
 3655POPC   C2B46988  31.760  29.524   6.580
 3655POPC   C3B46989  31.786  29.605   7.023
 3655POPC   C4B46990  31.575  29.535   7.446
 3656POPC   NC346991  30.696  24.098   5.426
 3656POPC   PO446992  30.691  23.461   5.382
 3656POPC   GL146993  30.877  23.689   5.710
 3656POPC   GL246994  30.574  23.845   5.859
 3656POPC   C1A46995  30.987  23.741   6.151
 3656POPC   D2A46996  30.727  23.642   6.503
 3656POPC   C3A46997  30.927  23.742   6.876
 3656POPC   C4A46998  30.825  23.589   7.264
 3656POPC   C1B46999  30.291  24.071   6.155
 3656POPC   C2B47000  30.324  24.013   6.575
 3656POPC   C3B47001  30.421  23.821   6.956
 3656POPC   C4B47002  30.350  24.036   7.339
 3657POPC   NC347003  33.252  26.289   5.505
 3657POPC   PO447004  33.175  25.660   5.275
 3657POPC   GL147005  32.966  25.873   5.631
 3657POPC   GL247006  32.617  25.817   5.650
 3657POPC   C1A47007  32.911  26.060   6.056
 3657POPC   D2A47008  33.101  26.180   6.464
 3657POPC   C3A47009  32.928  26.068   6.850
 3657POPC   C4A47010  33.086  26.073   7.243
 3657POPC   C1B47011  32.663  25.615   6.036
 3657POPC   C2B47012  32.762  25.751   6.452
 3657POPC   C3B47013  32.729  25.576   6.851
 3657POPC   C4B47014  32.785  25.643   7.273
 3658POPC   NC347015  42.292   5.877   5.294
 3658POPC   PO447016  42.846   5.557   5.162
 3658POPC   GL147017  42.702   5.557   5.657
 3658POPC   GL247018  42.347   5.456   5.747
 3658POPC   C1A47019  42.586   5.807   6.065
 3658POPC   D2A47020  42.335   5.848   6.483
 3658POPC   C3A47021  42.413   6.001   6.932
 3658POPC   C4A47022  42.488   5.735   7.335
 3658POPC   C1B47023  42.071   5.571   6.097
 3658POPC   C2B47024  41.909   5.538   6.517
 3658POPC   C3B47025  42.102   5.612   6.904
 3658POPC   C4B47026  42.009   5.872   7.252
 3659POPC   NC347027   4.711  20.471   5.257
 3659POPC   PO447028   5.239  20.788   5.379
 3659POPC   GL147029   5.122  20.756   5.800
 3659POPC   GL247030   4.952  20.474   5.711
 3659POPC   C1A47031   5.056  20.914   6.221
 3659POPC   D2A47032   5.152  20.687   6.566
 3659POPC   C3A47033   5.161  20.852   6.920
 3659POPC   C4A47034   5.370  20.894   7.243
 3659POPC   C1B47035   4.939  20.396   6.158
 3659POPC   C2B47036   4.837  20.315   6.591
 3659POPC   C3B47037   4.998  20.352   6.990
 3659POPC   C4B47038   5.014  20.564   7.389
 3660POPC   NC347039   3.851  39.953   5.545
 3660POPC   PO447040   3.209  39.898   5.439
 3660POPC   GL147041   3.414  39.857   5.816
 3660POPC   GL247042   3.456  40.203   5.808
 3660POPC   C1A47043   3.551  39.661   6.207
 3660POPC   D2A47044   3.299  39.550   6.585
 3660POPC   C3A47045   3.447  39.730   7.000
 3660POPC   C4A47046   3.802  39.666   7.294
 3660POPC   C1B47047   3.626  40.201   6.207
 3660POPC   C2B47048   3.688  40.031   6.612
 3660POPC   C3B47049   3.604  40.243   6.981
 3660POPC   C4B47050   3.451  40.142   7.348
 3661POPC   NC347051  34.441  12.377   5.417
 3661POPC   PO447052  34.817  11.843   5.456
 3661POPC   GL147053  34.645  12.078   5.811
 3661POPC   GL247054  34.674  12.462   5.865
 3661POPC   C1A47055  34.386  12.049   6.169
 3661POPC   D2A47056  34.517  12.134   6.569
 3661POPC   C3A47057  34.273  12.155   6.952
 3661POPC   C4A47058  34.158  11.859   7.247
 3661POPC   C1B47059  34.882  12.336   6.251
 3661POPC   C2B47060  34.934  12.390   6.708
 3661POPC   C3B47061  34.798  12.109   6.996
 3661POPC   C4B47062  34.620  12.169   7.373
 3662POPC   NC347063  38.978  36.195   5.556
 3662POPC   PO447064  39.521  35.895   5.297
 3662POPC   GL147065  39.408  35.875   5.735
 3662POPC   GL247066  39.121  35.650   5.702
 3662POPC   C1A47067  39.496  36.013   6.183
 3662POPC   D2A47068  39.250  36.013   6.539
 3662POPC   C3A47069  39.408  36.063   6.914
 3662POPC   C4A47070  39.140  36.105   7.243
 3662POPC   C1B47071  38.971  35.830   6.109
 3662POPC   C2B47072  38.966  35.600   6.498
 3662POPC   C3B47073  38.957  35.750   6.923
 3662POPC   C4B47074  38.661  35.860   7.252
 3663POPC   NC347075  24.212  20.564   4.984
 3663POPC   PO447076  23.682  20.683   5.386
 3663POPC   GL147077  23.614  20.619   5.817
 3663POPC   GL247078  23.410  20.317   5.818
 3663POPC   C1A47079  23.706  20.618   6.280
 3663POPC   D2A47080  24.051  20.620   6.593
 3663POPC   C3A47081  23.904  20.646   7.021
 3663POPC   C4A47082  23.492  20.725   7.187
 3663POPC   C1B47083  23.572  20.101   6.200
 3663POPC   C2B47084  23.601  20.225   6.651
 3663POPC   C3B47085  23.682  20.177   7.096
 3663POPC   C4B47086  23.534  20.045   7.497
 3664POPC   NC347087   9.146  44.891   5.308
 3664POPC   PO447088   8.666  44.641   5.663
 3664POPC   GL147089   9.013  44.704   5.934
 3664POPC   GL247090   9.356  44.796   5.797
 3664POPC   C1A47091   9.009  44.776   6.393
 3664POPC   D2A47092   8.999  44.468   6.752
 3664POPC   C3A47093   8.859  44.700   7.107
 3664POPC   C4A47094   8.823  44.975   7.470
 3664POPC   C1B47095   9.466  44.627   6.227
 3664POPC   C2B47096   9.438  44.762   6.686
 3664POPC   C3B47097   9.406  44.536   7.101
 3664POPC   C4B47098   9.138  44.505   7.483
 3665POPC   NC347099  11.340   3.689   5.434
 3665POPC   PO447100  11.484   3.062   5.239
 3665POPC   GL147101  11.497   3.282   5.730
 3665POPC   GL247102  11.182   3.241   5.891
 3665POPC   C1A47103  11.456   3.542   6.210
 3665POPC   D2A47104  11.527   3.772   6.636
 3665POPC   C3A47105  11.410   3.584   7.036
 3665POPC   C4A47106  11.395   3.516   7.476
 3665POPC   C1B47107  10.950   3.487   6.171
 3665POPC   C2B47108  11.080   3.471   6.600
 3665POPC   C3B47109  10.921   3.671   6.952
 3665POPC   C4B47110  10.870   3.474   7.339
 3666POPC   NC347111  42.568  32.780   5.583
 3666POPC   PO447112  42.244  33.365   5.493
 3666POPC   GL147113  42.272  33.103   5.850
 3666POPC   GL247114  42.057  32.806   5.709
 3666POPC   C1A47115  42.523  32.917   6.236
 3666POPC   D2A47116  42.493  32.706   6.663
 3666POPC   C3A47117  42.408  33.073   6.947
 3666POPC   C4A47118  42.161  33.455   6.972
 3666POPC   C1B47119  42.019  32.801   6.151
 3666POPC   C2B47120  41.974  32.821   6.590
 3666POPC   C3B47121  42.043  32.531   6.899
 3666POPC   C4B47122  42.339  32.635   7.191
 3667POPC   NC347123  41.627  24.530   5.218
 3667POPC   PO447124  41.339  23.986   5.516
 3667POPC   GL147125  41.486  24.192   5.853
 3667POPC   GL247126  41.387  24.502   5.732
 3667POPC   C1A47127  41.711  24.242   6.229
 3667POPC   D2A47128  41.493  24.315   6.627
 3667POPC   C3A47129  41.764  24.295   6.971
 3667POPC   C4A47130  41.938  24.441   7.364
 3667POPC   C1B47131  41.291  24.587   6.201
 3667POPC   C2B47132  41.405  24.822   6.618
 3667POPC   C3B47133  41.340  24.740   7.080
 3667POPC   C4B47134  41.084  24.742   7.515
 3668POPC   NC347135  16.724  39.934   5.159
 3668POPC   PO447136  16.396  40.270   5.633
 3668POPC   GL147137  16.795  39.995   5.718
 3668POPC   GL247138  16.912  39.679   5.791
 3668POPC   C1A47139  16.963  40.058   6.137
 3668POPC   D2A47140  16.808  40.268   6.501
 3668POPC   C3A47141  16.758  40.053   6.876
 3668POPC   C4A47142  16.484  40.146   7.216
 3668POPC   C1B47143  16.740  39.600   6.221
 3668POPC   C2B47144  16.511  39.613   6.634
 3668POPC   C3B47145  16.495  39.662   7.085
 3668POPC   C4B47146  16.883  39.758   7.299
 3669POPC   NC347147  21.138   2.407   5.654
 3669POPC   PO447148  20.788   2.877   5.229
 3669POPC   GL147149  20.751   2.816   5.723
 3669POPC   GL247150  20.801   3.139   5.907
 3669POPC   C1A47151  20.806   2.596   6.191
 3669POPC   D2A47152  20.556   2.547   6.620
 3669POPC   C3A47153  20.743   2.605   7.058
 3669POPC   C4A47154  21.036   2.734   7.397
 3669POPC   C1B47155  20.677   3.064   6.320
 3669POPC   C2B47156  20.798   3.007   6.744
 3669POPC   C3B47157  20.572   3.108   7.085
 3669POPC   C4B47158  20.267   2.797   7.144
 3670POPC   NC347159  18.548  41.675   5.336
 3670POPC   PO447160  18.024  41.260   5.310
 3670POPC   GL147161  18.051  41.444   5.736
 3670POPC   GL247162  18.255  41.734   5.741
 3670POPC   C1A47163  18.324  41.399   6.125
 3670POPC   D2A47164  18.561  41.226   6.482
 3670POPC   C3A47165  18.370  41.368   6.857
 3670POPC   C4A47166  18.646  41.662   7.090
 3670POPC   C1B47167  18.374  41.933   6.128
 3670POPC   C2B47168  18.394  41.793   6.600
 3670POPC   C3B47169  18.198  41.925   7.032
 3670POPC   C4B47170  18.190  42.021   7.522
 3671POPC   NC347171  24.607   8.356   5.371
 3671POPC   PO447172  24.343   7.806   5.472
 3671POPC   GL147173  24.536   8.103   5.816
 3671POPC   GL247174  24.722   8.472   5.848
 3671POPC   C1A47175  24.359   8.184   6.225
 3671POPC   D2A47176  24.097   8.131   6.594
 3671POPC   C3A47177  24.228   8.031   7.023
 3671POPC   C4A47178  24.671   7.955   7.107
 3671POPC   C1B47179  24.810   8.431   6.267
 3671POPC   C2B47180  24.640   8.218   6.658
 3671POPC   C3B47181  24.534   8.444   7.033
 3671POPC   C4B47182  24.734   8.685   7.369
 3672POPC   NC347183  41.119  10.376   5.421
 3672POPC   PO447184  40.482  10.739   5.403
 3672POPC   GL147185  40.749  10.687   5.792
 3672POPC   GL247186  41.112  10.630   5.846
 3672POPC   C1A47187  40.839  10.531   6.252
 3672POPC   D2A47188  40.635  10.563   6.651
 3672POPC   C3A47189  40.734  10.736   7.047
 3672POPC   C4A47190  40.880  10.479   7.383
 3672POPC   C1B47191  41.285  10.806   6.184
 3672POPC   C2B47192  41.146  10.810   6.578
 3672POPC   C3B47193  41.346  10.803   6.965
 3672POPC   C4B47194  41.190  10.863   7.357
 3673POPC   NC347195  29.050  40.446   5.408
 3673POPC   PO447196  29.131  41.106   5.148
 3673POPC   GL147197  29.298  40.879   5.545
 3673POPC   GL247198  28.989  40.790   5.788
 3673POPC   C1A47199  29.436  41.007   5.962
 3673POPC   D2A47200  29.363  41.050   6.409
 3673POPC   C3A47201  29.499  40.887   6.813
 3673POPC   C4A47202  29.238  40.904   7.192
 3673POPC   C1B47203  28.826  40.640   6.211
 3673POPC   C2B47204  28.710  40.448   6.612
 3673POPC   C3B47205  28.854  40.530   7.053
 3673POPC   C4B47206  28.885  40.675   7.493
 3674POPC   NC347207  15.327   5.944   5.379
 3674POPC   PO447208  14.829   5.518   5.414
 3674POPC   GL147209  14.944   5.708   5.815
 3674POPC   GL247210  15.083   6.055   5.817
 3674POPC   C1A47211  14.851   5.864   6.242
 3674POPC   D2A47212  14.976   5.602   6.599
 3674POPC   C3A47213  15.119   5.712   6.993
 3674POPC   C4A47214  14.835   5.886   7.272
 3674POPC   C1B47215  15.319   6.156   6.201
 3674POPC   C2B47216  15.153   6.098   6.617
 3674POPC   C3B47217  15.140   6.235   7.042
 3674POPC   C4B47218  15.536   6.183   7.218
 3675POPC   NC347219  18.924  26.893   5.432
 3675POPC   PO447220  18.575  26.390   5.767
 3675POPC   GL147221  18.925  26.694   5.910
 3675POPC   GL247222  19.278  26.874   5.824
 3675POPC   C1A47223  19.054  26.893   6.289
 3675POPC   D2A47224  18.938  27.032   6.706
 3675POPC   C3A47225  18.905  26.728   7.061
 3675POPC   C4A47226  19.132  26.576   7.427
 3675POPC   C1B47227  19.535  27.085   6.183
 3675POPC   C2B47228  19.471  27.141   6.642
 3675POPC   C3B47229  19.265  27.188   7.068
 3675POPC   C4B47230  19.403  27.390   7.440
 3676POPC   NC347231  25.705  15.425   5.389
 3676POPC   PO447232  26.353  15.117   5.501
 3676POPC   GL147233  26.276  15.391   5.819
 3676POPC   GL247234  25.932  15.299   5.826
 3676POPC   C1A47235  26.325  15.253   6.233
 3676POPC   D2A47236  26.109  15.019   6.543
 3676POPC   C3A47237  26.248  14.960   6.954
 3676POPC   C4A47238  25.919  14.994   7.252
 3676POPC   C1B47239  25.920  15.571   6.161
 3676POPC   C2B47240  26.090  15.564   6.568
 3676POPC   C3B47241  25.964  15.405   6.957
 3676POPC   C4B47242  26.007  15.510   7.392
 3677POPC   NC347243  17.692  18.318   5.379
 3677POPC   PO447244  17.153  17.986   5.478
 3677POPC   GL147245  17.440  18.169   5.816
 3677POPC   GL247246  17.287  18.504   5.846
 3677POPC   C1A47247  17.737  18.082   6.209
 3677POPC   D2A47248  17.686  18.354   6.610
 3677POPC   C3A47249  17.914  18.339   6.983
 3677POPC   C4A47250  17.917  17.981   7.231
 3677POPC   C1B47251  17.046  18.573   6.239
 3677POPC   C2B47252  17.210  18.573   6.688
 3677POPC   C3B47253  17.387  18.344   7.074
 3677POPC   C4B47254  17.265  18.441   7.512
 3678POPC   NC347255  27.391  22.543   5.343
 3678POPC   PO447256  27.331  23.170   5.386
 3678POPC   GL147257  27.374  22.941   5.829
 3678POPC   GL247258  27.161  22.614   5.793
 3678POPC   C1A47259  27.603  22.972   6.292
 3678POPC   D2A47260  27.896  23.004   6.693
 3678POPC   C3A47261  27.816  23.204   7.096
 3678POPC   C4A47262  27.539  23.217   7.465
 3678POPC   C1B47263  27.234  22.616   6.214
 3678POPC   C2B47264  27.200  22.715   6.618
 3678POPC   C3B47265  27.265  22.561   7.021
 3678POPC   C4B47266  27.536  22.731   7.334
 3679POPC   NC347267  27.141  41.573   5.377
 3679POPC   PO447268  26.762  42.027   5.662
 3679POPC   GL147269  26.987  41.684   5.888
 3679POPC   GL247270  27.051  41.318   5.798
 3679POPC   C1A47271  26.931  41.706   6.339
 3679POPC   D2A47272  26.990  41.817   6.751
 3679POPC   C3A47273  26.776  41.547   7.014
 3679POPC   C4A47274  26.612  41.608   7.393
 3679POPC   C1B47275  27.058  41.189   6.215
 3679POPC   C2B47276  27.044  41.293   6.648
 3679POPC   C3B47277  27.013  41.060   7.010
 3679POPC   C4B47278  26.810  41.139   7.363
 3680POPC   NC347279  25.700  32.141   5.414
 3680POPC   PO447280  26.172  32.629   5.394
 3680POPC   GL147281  25.985  32.388   5.762
 3680POPC   GL247282  26.269  32.321   5.912
 3680POPC   C1A47283  25.842  32.190   6.158
 3680POPC   D2A47284  26.169  32.294   6.474
 3680POPC   C3A47285  25.998  32.387   6.858
 3680POPC   C4A47286  25.848  32.101   7.201
 3680POPC   C1B47287  26.341  31.935   6.137
 3680POPC   C2B47288  26.552  31.931   6.512
 3680POPC   C3B47289  26.303  31.925   6.876
 3680POPC   C4B47290  26.371  31.779   7.281
 3681POPC   NC347291  40.120   4.899   5.489
 3681POPC   PO447292  40.094   5.569   5.618
 3681POPC   GL147293  39.902   5.221   5.826
 3681POPC   GL247294  39.658   5.439   5.978
 3681POPC   C1A47295  39.996   4.847   6.135
 3681POPC   D2A47296  40.028   4.592   6.534
 3681POPC   C3A47297  40.212   4.811   6.876
 3681POPC   C4A47298  40.011   5.040   7.201
 3681POPC   C1B47299  40.002   5.353   6.309
 3681POPC   C2B47300  40.031   5.333   6.779
 3681POPC   C3B47301  39.782   5.516   7.161
 3681POPC   C4B47302  39.708   5.679   7.615
 3682POPC   NC347303  18.121  33.431   5.632
 3682POPC   PO447304  18.594  34.012   5.550
 3682POPC   GL147305  18.387  33.809   5.849
 3682POPC   GL247306  18.589  33.525   5.807
 3682POPC   C1A47307  18.209  33.777   6.271
 3682POPC   D2A47308  18.396  33.835   6.693
 3682POPC   C3A47309  18.133  33.743   7.024
 3682POPC   C4A47310  17.956  33.798   7.424
 3682POPC   C1B47311  18.681  33.557   6.238
 3682POPC   C2B47312  18.594  33.339   6.633
 3682POPC   C3B47313  18.488  33.374   7.095
 3682POPC   C4B47314  18.418  33.608   7.491
 3683POPC   NC347315  28.910  30.786   5.369
 3683POPC   PO447316  29.494  30.947   5.604
 3683POPC   GL147317  29.289  30.736   5.918
 3683POPC   GL247318  28.946  30.841   5.900
 3683POPC   C1A47319  29.178  30.604   6.348
 3683POPC   D2A47320  29.026  30.345   6.707
 3683POPC   C3A47321  29.299  30.473   7.054
 3683POPC   C4A47322  29.572  30.380   7.432
 3683POPC   C1B47323  28.792  30.918   6.340
 3683POPC   C2B47324  28.980  30.862   6.787
 3683POPC   C3B47325  28.831  30.624   7.174
 3683POPC   C4B47326  28.752  30.747   7.637
 3684POPC   NC347327  11.169  32.495   5.184
 3684POPC   PO447328  11.520  32.843   5.670
 3684POPC   GL147329  11.315  32.505   5.904
 3684POPC   GL247330  11.136  32.286   5.676
 3684POPC   C1A47331  11.358  32.329   6.320
 3684POPC   D2A47332  11.558  32.104   6.662
 3684POPC   C3A47333  11.771  32.339   6.967
 3684POPC   C4A47334  11.606  32.638   7.262
 3684POPC   C1B47335  10.940  32.083   6.013
 3684POPC   C2B47336  10.944  32.059   6.455
 3684POPC   C3B47337  11.080  32.185   6.866
 3684POPC   C4B47338  11.187  32.288   7.302
 3685POPC   NC347339  31.041   7.927   5.411
 3685POPC   PO447340  30.563   8.311   5.127
 3685POPC   GL147341  30.614   8.166   5.658
 3685POPC   GL247342  30.850   7.915   5.870
 3685POPC   C1A47343  30.519   8.166   6.147
 3685POPC   D2A47344  30.670   8.017   6.586
 3685POPC   C3A47345  30.618   8.336   6.935
 3685POPC   C4A47346  30.224   8.590   7.068
 3685POPC   C1B47347  31.121   8.065   6.199
 3685POPC   C2B47348  31.175   8.145   6.612
 3685POPC   C3B47349  31.033   8.029   6.999
 3685POPC   C4B47350  30.819   8.079   7.348
 3686POPC   NC347351   9.207  33.290   5.378
 3686POPC   PO447352   9.844  32.932   5.288
 3686POPC   GL147353   9.841  32.921   5.869
 3686POPC   GL247354   9.524  32.837   6.031
 3686POPC   C1A47355   9.653  33.275   6.234
 3686POPC   D2A47356   9.236  33.163   6.432
 3686POPC   C3A47357   9.279  32.877   6.773
 3686POPC   C4A47358   9.477  33.105   7.118
 3686POPC   C1B47359   9.875  32.863   6.381
 3686POPC   C2B47360  10.079  33.197   6.630
 3686POPC   C3B47361   9.986  33.172   7.048
 3686POPC   C4B47362   9.809  32.739   7.185
 3687POPC   NC347363  37.816  28.356   5.438
 3687POPC   PO447364  37.205  28.494   5.560
 3687POPC   GL147365  37.544  28.556   5.899
 3687POPC   GL247366  37.885  28.421   5.921
 3687POPC   C1A47367  37.586  28.364   6.331
 3687POPC   D2A47368  37.412  28.200   6.704
 3687POPC   C3A47369  37.660  28.295   7.062
 3687POPC   C4A47370  37.546  28.307   7.507
 3687POPC   C1B47371  37.794  27.967   6.096
 3687POPC   C2B47372  37.970  27.871   6.521
 3687POPC   C3B47373  37.823  27.833   6.937
 3687POPC   C4B47374  37.878  27.950   7.365
 3688POPC   NC347375  29.470  25.803   5.534
 3688POPC   PO447376  28.914  26.196   5.341
 3688POPC   GL147377  29.081  26.108   5.745
 3688POPC   GL247378  29.392  26.259   5.745
 3688POPC   C1A47379  29.156  25.909   6.154
 3688POPC   D2A47380  29.332  25.864   6.571
 3688POPC   C3A47381  29.015  25.829   6.870
 3688POPC   C4A47382  29.100  25.720   7.267
 3688POPC   C1B47383  29.301  26.393   6.180
 3688POPC   C2B47384  29.176  26.373   6.620
 3688POPC   C3B47385  29.160  26.294   7.062
 3688POPC   C4B47386  29.244  26.331   7.521
 3689POPC   NC347387  10.098  37.924   5.501
 3689POPC   PO447388  10.801  37.805   5.457
 3689POPC   GL147389  10.456  37.816   5.831
 3689POPC   GL247390  10.372  37.507   6.024
 3689POPC   C1A47391  10.205  38.004   6.164
 3689POPC   D2A47392  10.211  38.089   6.610
 3689POPC   C3A47393  10.336  37.725   6.837
 3689POPC   C4A47394  10.477  37.674   7.251
 3689POPC   C1B47395  10.794  37.646   6.159
 3689POPC   C2B47396  10.999  37.634   6.522
 3689POPC   C3B47397  10.857  37.672   6.897
 3689POPC   C4B47398  10.958  37.526   7.248
 3690POPC   NC347399  28.632  25.839   5.511
 3690POPC   PO447400  28.282  26.420   5.421
 3690POPC   GL147401  28.269  26.205   5.789
 3690POPC   GL247402  27.927  26.295   5.853
 3690POPC   C1A47403  28.478  26.061   6.152
 3690POPC   D2A47404  28.783  26.093   6.478
 3690POPC   C3A47405  28.644  26.238   6.881
 3690POPC   C4A47406  28.437  26.002   7.218
 3690POPC   C1B47407  27.963  25.965   6.166
 3690POPC   C2B47408  27.923  25.942   6.615
 3690POPC   C3B47409  27.922  25.884   7.066
 3690POPC   C4B47410  27.970  26.137   7.442
 3691POPC   NC347411  14.768  29.998   5.580
 3691POPC   PO447412  14.030  30.214   5.460
 3691POPC   GL147413  14.299  30.161   5.850
 3691POPC   GL247414  14.523  29.864   5.977
 3691POPC   C1A47415  14.121  29.986   6.245
 3691POPC   D2A47416  13.856  29.943   6.601
 3691POPC   C3A47417  14.026  30.053   7.020
 3691POPC   C4A47418  14.282  29.961   7.381
 3691POPC   C1B47419  14.747  29.931   6.352
 3691POPC   C2B47420  14.589  29.907   6.791
 3691POPC   C3B47421  14.761  29.981   7.172
 3691POPC   C4B47422  14.729  29.813   7.582
 3692POPC   NC347423  33.610   0.009   5.439
 3692POPC   PO447424  33.712  44.302   5.405
 3692POPC   GL147425  33.581  44.373   5.798
 3692POPC   GL247426  33.803  44.652   5.793
 3692POPC   C1A47427  33.435  44.449   6.207
 3692POPC   D2A47428  33.596  44.348   6.611
 3692POPC   C3A47429  33.527  44.539   7.038
 3692POPC   C4A47430  33.683  44.376   7.448
 3692POPC   C1B47431  33.917  44.762   6.187
 3692POPC   C2B47432  34.004  44.659   6.585
 3692POPC   C3B47433  34.068  44.879   6.936
 3692POPC   C4B47434  33.959  44.768   7.322
 3693POPC   NC347435  39.054  33.426   5.427
 3693POPC   PO447436  38.500  33.089   5.189
 3693POPC   GL147437  38.525  33.105   5.668
 3693POPC   GL247438  38.579  32.798   5.823
 3693POPC   C1A47439  38.514  33.177   6.157
 3693POPC   D2A47440  38.680  33.066   6.602
 3693POPC   C3A47441  38.492  33.269   6.979
 3693POPC   C4A47442  38.124  33.169   7.245
 3693POPC   C1B47443  38.809  32.680   6.183
 3693POPC   C2B47444  38.936  32.537   6.580
 3693POPC   C3B47445  38.764  32.680   6.952
 3693POPC   C4B47446  38.536  32.858   7.288
 3694POPC   NC347447   3.219  24.728   5.341
 3694POPC   PO447448   3.520  24.147   5.520
 3694POPC   GL147449   3.548  24.566   5.713
 3694POPC   GL247450   3.897  24.666   5.740
 3694POPC   C1A47451   3.426  24.799   6.087
 3694POPC   D2A47452   3.398  24.586   6.475
 3694POPC   C3A47453   3.402  24.835   6.857
 3694POPC   C4A47454   3.388  24.592   7.207
 3694POPC   C1B47455   3.837  24.506   6.139
 3694POPC   C2B47456   3.905  24.684   6.516
 3694POPC   C3B47457   3.771  24.474   6.846
 3694POPC   C4B47458   3.848  24.409   7.247
 3695POPC   NC347459  42.988  28.445   5.420
 3695POPC   PO447460  43.490  28.056   5.420
 3695POPC   GL147461  43.249  28.234   5.805
 3695POPC   GL247462  42.856  28.259   5.873
 3695POPC   C1A47463  43.180  28.173   6.239
 3695POPC   D2A47464  43.164  28.284   6.624
 3695POPC   C3A47465  43.319  27.926   6.833
 3695POPC   C4A47466  43.413  28.209   7.118
 3695POPC   C1B47467  42.833  28.552   6.248
 3695POPC   C2B47468  42.783  28.631   6.689
 3695POPC   C3B47469  42.862  28.378   7.051
 3695POPC   C4B47470  42.559  28.171   7.312
 3696POPC   NC347471   4.845  13.473   5.113
 3696POPC   PO447472   5.271  12.931   5.315
 3696POPC   GL147473   5.178  12.908   5.775
 3696POPC   GL247474   4.968  13.180   5.835
 3696POPC   C1A47475   5.049  12.728   6.193
 3696POPC   D2A47476   5.188  12.596   6.601
 3696POPC   C3A47477   4.973  12.760   6.970
 3696POPC   C4A47478   5.236  12.825   7.303
 3696POPC   C1B47479   5.299  13.206   6.156
 3696POPC   C2B47480   5.197  13.290   6.558
 3696POPC   C3B47481   5.275  13.209   6.960
 3696POPC   C4B47482   4.966  13.243   7.286
 3697POPC   NC347483  21.314  28.211   5.495
 3697POPC   PO447484  21.691  28.800   5.386
 3697POPC   GL147485  21.723  28.505   5.787
 3697POPC   GL247486  21.637  28.135   5.895
 3697POPC   C1A47487  21.486  28.511   6.207
 3697POPC   D2A47488  21.219  28.518   6.578
 3697POPC   C3A47489  21.426  28.444   6.912
 3697POPC   C4A47490  21.377  28.372   7.322
 3697POPC   C1B47491  21.250  28.036   6.153
 3697POPC   C2B47492  21.350  28.015   6.597
 3697POPC   C3B47493  21.416  27.942   7.005
 3697POPC   C4B47494  21.245  27.881   7.363
 3698POPC   NC347495  27.947  41.801   5.596
 3698POPC   PO447496  27.461  41.232   5.453
 3698POPC   GL147497  27.550  41.464   5.781
 3698POPC   GL247498  27.850  41.319   5.793
 3698POPC   C1A47499  27.415  41.646   6.187
 3698POPC   D2A47500  27.511  41.880   6.600
 3698POPC   C3A47501  27.409  41.709   7.019
 3698POPC   C4A47502  27.221  41.439   7.297
 3698POPC   C1B47503  27.920  41.518   6.202
 3698POPC   C2B47504  27.992  41.615   6.620
 3698POPC   C3B47505  27.873  41.514   7.029
 3698POPC   C4B47506  27.801  41.673   7.442
 3699POPC   NC347507  10.502  38.838   5.445
 3699POPC   PO447508  10.678  39.514   5.562
 3699POPC   GL147509  10.811  39.383   5.940
 3699POPC   GL247510  10.657  39.073   5.902
 3699POPC   C1A47511  10.642  39.432   6.354
 3699POPC   D2A47512  10.254  39.476   6.613
 3699POPC   C3A47513  10.400  39.409   7.035
 3699POPC   C4A47514  10.850  39.360   7.176
 3699POPC   C1B47515  10.317  39.039   6.216
 3699POPC   C2B47516  10.421  38.993   6.647
 3699POPC   C3B47517  10.582  38.923   7.045
 3699POPC   C4B47518  10.257  39.017   7.364
 3700POPC   NC347519  24.379   4.673   5.437
 3700POPC   PO447520  24.850   4.105   5.414
 3700POPC   GL147521  24.658   4.323   5.785
 3700POPC   GL247522  24.778   4.648   5.783
 3700POPC   C1A47523  24.554   4.186   6.223
 3700POPC   D2A47524  24.464   4.356   6.642
 3700POPC   C3A47525  24.107   4.272   6.906
 3700POPC   C4A47526  24.257   4.323   7.319
 3700POPC   C1B47527  24.910   4.648   6.223
 3700POPC   C2B47528  24.781   4.751   6.665
 3700POPC   C3B47529  24.627   4.607   7.090
 3700POPC   C4B47530  24.760   4.660   7.533
 3701POPC   NC347531  34.905  16.009   5.327
 3701POPC   PO447532  34.262  15.829   5.399
 3701POPC   GL147533  34.464  16.025   5.774
 3701POPC   GL247534  34.848  15.993   5.842
 3701POPC   C1A47535  34.521  15.835   6.197
 3701POPC   D2A47536  34.507  15.593   6.564
 3701POPC   C3A47537  34.447  15.811   6.942
 3701POPC   C4A47538  34.454  16.236   7.166
 3701POPC   C1B47539  34.848  16.221   6.268
 3701POPC   C2B47540  34.694  16.237   6.714
 3701POPC   C3B47541  34.914  16.108   7.119
 3701POPC   C4B47542  35.011  16.090   7.604
 3702POPC   NC347543  16.858  44.174   5.436
 3702POPC   PO447544  16.657  43.530   5.238
 3702POPC   GL147545  16.741  43.761   5.701
 3702POPC   GL247546  16.489  43.826   5.884
 3702POPC   C1A47547  16.872  43.794   6.207
 3702POPC   D2A47548  17.096  43.987   6.595
 3702POPC   C3A47549  16.860  44.151   6.960
 3702POPC   C4A47550  16.456  44.342   7.083
 3702POPC   C1B47551  16.395  44.041   6.239
 3702POPC   C2B47552  16.537  43.945   6.637
 3702POPC   C3B47553  16.428  43.814   7.066
 3702POPC   C4B47554  16.281  43.661   7.477
 3703POPC   NC347555  38.229  21.183   5.231
 3703POPC   PO447556  38.625  21.652   5.463
 3703POPC   GL147557  38.449  21.417   5.846
 3703POPC   GL247558  38.133  21.194   5.806
 3703POPC   C1A47559  38.457  21.430   6.323
 3703POPC   D2A47560  38.408  21.791   6.660
 3703POPC   C3A47561  38.321  21.589   7.024
 3703POPC   C4A47562  38.545  21.201   7.208
 3703POPC   C1B47563  38.105  21.045   6.263
 3703POPC   C2B47564  38.267  21.131   6.715
 3703POPC   C3B47565  38.019  21.185   7.107
 3703POPC   C4B47566  37.959  21.010   7.528
 3704POPC   NC347567   6.902  22.655   5.072
 3704POPC   PO447568   6.822  23.333   5.095
 3704POPC   GL147569   6.702  23.017   5.463
 3704POPC   GL247570   6.909  22.767   5.605
 3704POPC   C1A47571   6.484  22.900   5.897
 3704POPC   D2A47572   6.339  23.082   6.317
 3704POPC   C3A47573   6.366  22.949   6.767
 3704POPC   C4A47574   6.475  22.765   7.162
 3704POPC   C1B47575   6.926  22.722   6.066
 3704POPC   C2B47576   6.730  22.726   6.481
 3704POPC   C3B47577   6.908  22.755   6.905
 3704POPC   C4B47578   6.946  22.508   7.308
 3705POPC   NC347579  11.457   6.874   5.501
 3705POPC   PO447580  11.235   7.512   5.338
 3705POPC   GL147581  11.229   7.300   5.711
 3705POPC   GL247582  11.552   7.329   5.806
 3705POPC   C1A47583  11.081   7.329   6.105
 3705POPC   D2A47584  11.273   7.279   6.491
 3705POPC   C3A47585  11.048   7.216   6.872
 3705POPC   C4A47586  11.374   7.203   7.136
 3705POPC   C1B47587  11.548   7.606   6.176
 3705POPC   C2B47588  11.762   7.776   6.528
 3705POPC   C3B47589  11.699   7.760   6.957
 3705POPC   C4B47590  11.748   7.524   7.335
 3706POPC   NC347591  43.913  39.531   5.484
 3706POPC   PO447592  44.027  38.909   5.519
 3706POPC   GL147593  43.919  39.151   5.861
 3706POPC   GL247594  43.572  39.222   5.750
 3706POPC   C1A47595  43.950  39.257   6.310
 3706POPC   D2A47596  43.942  39.013   6.706
 3706POPC   C3A47597  43.990  39.201   7.107
 3706POPC   C4A47598  43.816  39.595   7.229
 3706POPC   C1B47599  43.489  39.018   6.144
 3706POPC   C2B47600  43.495  39.193   6.543
 3706POPC   C3B47601  43.527  39.222   6.945
 3706POPC   C4B47602  43.421  38.890   7.156
 3707POPC   NC347603  24.013  26.058   5.484
 3707POPC   PO447604  23.382  26.258   5.405
 3707POPC   GL147605  23.674  26.339   5.739
 3707POPC   GL247606  23.640  25.951   5.804
 3707POPC   C1A47607  23.751  26.262   6.177
 3707POPC   D2A47608  23.605  25.923   6.400
 3707POPC   C3A47609  23.496  26.069   6.768
 3707POPC   C4A47610  23.728  26.183   7.122
 3707POPC   C1B47611  23.947  25.752   6.064
 3707POPC   C2B47612  23.985  25.558   6.461
 3707POPC   C3B47613  23.840  25.691   6.859
 3707POPC   C4B47614  23.926  25.710   7.288
 3708POPC   NC347615  31.040   2.987   5.382
 3708POPC   PO447616  30.424   2.919   5.177
 3708POPC   GL147617  30.663   2.765   5.608
 3708POPC   GL247618  30.540   3.022   5.810
 3708POPC   C1A47619  30.847   2.706   6.059
 3708POPC   D2A47620  30.676   2.869   6.461
 3708POPC   C3A47621  30.706   2.745   6.878
 3708POPC   C4A47622  30.980   2.882   7.200
 3708POPC   C1B47623  30.360   3.223   6.216
 3708POPC   C2B47624  30.199   2.994   6.609
 3708POPC   C3B47625  30.256   2.920   7.038
 3708POPC   C4B47626  30.504   3.142   7.358
 3709POPC   NC347627  38.362   4.911   5.426
 3709POPC   PO447628  38.659   5.444   5.335
 3709POPC   GL147629  38.429   5.307   5.767
 3709POPC   GL247630  38.101   5.090   5.888
 3709POPC   C1A47631  38.521   5.143   6.206
 3709POPC   D2A47632  38.563   4.763   6.498
 3709POPC   C3A47633  38.624   4.813   6.962
 3709POPC   C4A47634  38.888   5.049   7.284
 3709POPC   C1B47635  38.069   4.945   6.356
 3709POPC   C2B47636  38.325   5.185   6.686
 3709POPC   C3B47637  38.347   5.233   7.123
 3709POPC   C4B47638  38.047   5.090   7.407
 3710POPC   NC347639  39.308  10.436   5.480
 3710POPC   PO447640  38.846  11.076   5.519
 3710POPC   GL147641  38.923  10.690   5.754
 3710POPC   GL247642  39.261  10.642   5.933
 3710POPC   C1A47643  38.863  10.360   6.070
 3710POPC   D2A47644  39.104  10.460   6.434
 3710POPC   C3A47645  39.000  10.476   6.845
 3710POPC   C4A47646  38.829  10.551   7.254
 3710POPC   C1B47647  39.510  10.758   6.262
 3710POPC   C2B47648  39.713  10.755   6.671
 3710POPC   C3B47649  39.702  10.679   7.093
 3710POPC   C4B47650  39.406  10.499   7.345
 3711POPC   NC347651  30.280  33.950   5.372
 3711POPC   PO447652  30.625  34.623   5.366
 3711POPC   GL147653  30.565  34.755   5.780
 3711POPC   GL247654  30.912  34.751   5.808
 3711POPC   C1A47655  30.494  34.569   6.188
 3711POPC   D2A47656  30.693  34.434   6.571
 3711POPC   C3A47657  30.478  34.560   6.948
 3711POPC   C4A47658  30.435  34.405   7.376
 3711POPC   C1B47659  30.902  34.903   6.226
 3711POPC   C2B47660  31.030  34.820   6.647
 3711POPC   C3B47661  30.996  34.599   7.043
 3711POPC   C4B47662  31.013  34.764   7.472
 3712POPC   NC347663  16.657  38.195   5.481
 3712POPC   PO447664  16.984  38.849   5.433
 3712POPC   GL147665  16.880  38.574   5.765
 3712POPC   GL247666  16.539  38.530   5.876
 3712POPC   C1A47667  16.921  38.246   6.103
 3712POPC   D2A47668  16.741  38.266   6.524
 3712POPC   C3A47669  16.867  38.329   6.950
 3712POPC   C4A47670  16.737  38.725   7.127
 3712POPC   C1B47671  16.356  38.176   6.144
 3712POPC   C2B47672  16.336  37.970   6.561
 3712POPC   C3B47673  16.360  38.242   6.897
 3712POPC   C4B47674  16.354  38.095   7.233
 3713POPC   NC347675   0.134  35.420   5.549
 3713POPC   PO447676   0.664  35.756   5.468
 3713POPC   GL147677   0.511  35.559   5.891
 3713POPC   GL247678   0.303  35.220   6.014
 3713POPC   C1A47679   0.470  35.536   6.352
 3713POPC   D2A47680   0.448  35.146   6.585
 3713POPC   C3A47681   0.235  35.136   6.939
 3713POPC   C4A47682   0.160  35.405   7.263
 3713POPC   C1B47683   0.758  35.126   6.176
 3713POPC   C2B47684   0.947  34.941   6.554
 3713POPC   C3B47685   0.766  34.943   6.968
 3713POPC   C4B47686   0.635  35.232   7.249
 3714POPC   NC347687  15.179  10.896   5.405
 3714POPC   PO447688  14.970  11.475   5.232
 3714POPC   GL147689  15.061  11.391   5.685
 3714POPC   GL247690  14.890  11.095   5.825
 3714POPC   C1A47691  15.256  11.550   6.075
 3714POPC   D2A47692  15.106  11.642   6.502
 3714POPC   C3A47693  15.260  11.502   6.883
 3714POPC   C4A47694  14.964  11.449   7.173
 3714POPC   C1B47695  15.148  11.074   6.216
 3714POPC   C2B47696  15.350  10.941   6.592
 3714POPC   C3B47697  15.214  11.002   7.016
 3714POPC   C4B47698  14.995  10.730   7.284
 3715POPC   NC347699  17.704  14.001   5.510
 3715POPC   PO447700  17.746  13.328   5.537
 3715POPC   GL147701  17.525  13.593   5.833
 3715POPC   GL247702  17.488  13.958   5.957
 3715POPC   C1A47703  17.590  13.504   6.241
 3715POPC   D2A47704  17.400  13.527   6.612
 3715POPC   C3A47705  17.676  13.402   6.909
 3715POPC   C4A47706  17.974  13.670   7.085
 3715POPC   C1B47707  17.210  13.860   6.272
 3715POPC   C2B47708  17.121  13.945   6.715
 3715POPC   C3B47709  17.468  13.873   7.073
 3715POPC   C4B47710  17.367  13.931   7.600
 3716POPC   NC347711   5.711   2.192   5.240
 3716POPC   PO447712   5.911   1.650   5.482
 3716POPC   GL147713   5.720   1.870   5.808
 3716POPC   GL247714   5.685   2.194   5.800
 3716POPC   C1A47715   5.678   1.843   6.231
 3716POPC   D2A47716   5.622   1.713   6.659
 3716POPC   C3A47717   5.781   1.988   6.993
 3716POPC   C4A47718   5.684   2.288   7.302
 3716POPC   C1B47719   5.667   2.353   6.236
 3716POPC   C2B47720   5.909   2.369   6.642
 3716POPC   C3B47721   6.214   2.336   7.010
 3716POPC   C4B47722   6.285   2.435   7.486
 3717POPC   NC347723  33.811  14.060   5.399
 3717POPC   PO447724  34.080  14.813   5.415
 3717POPC   GL147725  33.973  14.623   5.838
 3717POPC   GL247726  34.015  14.232   5.875
 3717POPC   C1A47727  33.731  14.700   6.236
 3717POPC   D2A47728  33.548  14.532   6.647
 3717POPC   C3A47729  33.870  14.522   6.954
 3717POPC   C4A47730  33.899  14.512   7.417
 3717POPC   C1B47731  33.726  14.179   6.264
 3717POPC   C2B47732  33.780  14.054   6.717
 3717POPC   C3B47733  33.668  14.110   7.172
 3717POPC   C4B47734  33.752  14.076   7.648
 3718POPC   NC347735   2.430  36.075   5.405
 3718POPC   PO447736   1.826  35.866   5.171
 3718POPC   GL147737   1.767  35.851   5.628
 3718POPC   GL247738   1.989  36.109   5.699
 3718POPC   C1A47739   1.714  35.847   6.082
 3718POPC   D2A47740   1.861  35.796   6.526
 3718POPC   C3A47741   1.619  35.852   6.912
 3718POPC   C4A47742   1.850  36.027   7.255
 3718POPC   C1B47743   1.813  36.361   6.009
 3718POPC   C2B47744   1.996  36.472   6.414
 3718POPC   C3B47745   1.965  36.335   6.841
 3718POPC   C4B47746   1.905  36.592   7.211
 3719POPC   NC347747   9.825   9.211   5.268
 3719POPC   PO447748   9.226   9.142   5.464
 3719POPC   GL147749   9.568   9.064   5.794
 3719POPC   GL247750   9.927   9.025   5.737
 3719POPC   C1A47751   9.536   8.865   6.216
 3719POPC   D2A47752   9.402   9.061   6.638
 3719POPC   C3A47753   9.706   9.137   6.964
 3719POPC   C4A47754   9.662   9.060   7.393
 3719POPC   C1B47755   9.965   9.178   6.129
 3719POPC   C2B47756   9.942   8.973   6.535
 3719POPC   C3B47757  10.106   8.813   6.915
 3719POPC   C4B47758  10.128   9.062   7.247
 3720POPC   NC347759  18.724  17.663   5.389
 3720POPC   PO447760  19.419  17.828   5.275
 3720POPC   GL147761  19.254  17.597   5.686
 3720POPC   GL247762  18.990  17.760   5.834
 3720POPC   C1A47763  19.169  17.419   6.153
 3720POPC   D2A47764  19.169  17.601   6.598
 3720POPC   C3A47765  19.145  17.328   6.976
 3720POPC   C4A47766  19.122  17.183   7.428
 3720POPC   C1B47767  19.020  17.949   6.238
 3720POPC   C2B47768  18.860  18.060   6.661
 3720POPC   C3B47769  18.930  17.812   7.038
 3720POPC   C4B47770  19.182  17.673   7.388
 3721POPC   NC347771   9.611  23.824   5.390
 3721POPC   PO447772  10.131  23.421   5.546
 3721POPC   GL147773   9.974  23.774   5.811
 3721POPC   GL247774   9.617  23.851   5.878
 3721POPC   C1A47775   9.955  23.957   6.230
 3721POPC   D2A47776   9.863  23.737   6.610
 3721POPC   C3A47777   9.861  23.856   7.037
 3721POPC   C4A47778   9.837  23.468   7.217
 3721POPC   C1B47779   9.658  23.523   6.177
 3721POPC   C2B47780   9.393  23.486   6.568
 3721POPC   C3B47781   9.351  23.610   7.023
 3721POPC   C4B47782   9.374  23.355   7.396
 3722POPC   NC347783  29.215  28.096   5.378
 3722POPC   PO447784  29.048  28.760   5.204
 3722POPC   GL147785  29.042  28.548   5.664
 3722POPC   GL247786  29.284  28.289   5.839
 3722POPC   C1A47787  29.023  28.588   6.146
 3722POPC   D2A47788  29.250  28.423   6.517
 3722POPC   C3A47789  29.101  28.613   6.905
 3722POPC   C4A47790  29.085  28.526   7.330
 3722POPC   C1B47791  29.082  28.028   6.179
 3722POPC   C2B47792  28.884  28.045   6.575
 3722POPC   C3B47793  29.096  28.064   6.948
 3722POPC   C4B47794  29.294  28.008   7.323
 3723POPC   NC347795  18.963  33.249   5.393
 3723POPC   PO447796  19.013  32.632   5.460
 3723POPC   GL147797  18.998  32.911   5.782
 3723POPC   GL247798  19.352  32.908   5.780
 3723POPC   C1A47799  18.850  33.064   6.178
 3723POPC   D2A47800  18.825  32.751   6.505
 3723POPC   C3A47801  18.625  32.869   6.859
 3723POPC   C4A47802  18.814  32.976   7.239
 3723POPC   C1B47803  19.298  32.806   6.202
 3723POPC   C2B47804  19.227  33.063   6.565
 3723POPC   C3B47805  19.223  32.913   6.944
 3723POPC   C4B47806  19.321  33.160   7.274
 3724POPC   NC347807  35.897  10.239   5.512
 3724POPC   PO447808  36.203  10.747   5.391
 3724POPC   GL147809  35.951  10.689   5.782
 3724POPC   GL247810  36.174  10.463   5.892
 3724POPC   C1A47811  35.848  10.564   6.236
 3724POPC   D2A47812  36.203  10.408   6.538
 3724POPC   C3A47813  36.050  10.389   6.960
 3724POPC   C4A47814  35.771  10.579   7.232
 3724POPC   C1B47815  36.401  10.777   6.150
 3724POPC   C2B47816  36.589  10.919   6.569
 3724POPC   C3B47817  36.434  10.973   7.001
 3724POPC   C4B47818  36.249  10.720   7.312
 3725POPC   NC347819  36.818   4.579   5.467
 3725POPC   PO447820  37.301   4.114   5.392
 3725POPC   GL147821  37.082   4.253   5.766
 3725POPC   GL247822  36.770   4.074   5.817
 3725POPC   C1A47823  36.917   4.474   6.123
 3725POPC   D2A47824  36.764   4.360   6.536
 3725POPC   C3A47825  36.845   4.543   6.939
 3725POPC   C4A47826  36.952   4.374   7.341
 3725POPC   C1B47827  36.886   3.964   6.243
 3725POPC   C2B47828  36.958   3.916   6.695
 3725POPC   C3B47829  36.737   4.009   7.072
 3725POPC   C4B47830  36.755   3.827   7.540
 3726POPC   NC347831   4.692  11.069   5.550
 3726POPC   PO447832   4.148  11.484   5.460
 3726POPC   GL147833   4.308  11.329   5.845
 3726POPC   GL247834   4.649  11.390   5.962
 3726POPC   C1A47835   4.161  11.181   6.244
 3726POPC   D2A47836   4.020  11.434   6.599
 3726POPC   C3A47837   4.201  11.303   6.981
 3726POPC   C4A47838   4.077  11.173   7.403
 3726POPC   C1B47839   4.422  11.613   6.273
 3726POPC   C2B47840   4.513  11.597   6.670
 3726POPC   C3B47841   4.639  11.738   7.013
 3726POPC   C4B47842   4.423  11.601   7.331
 3727POPC   NC347843  20.666  39.488   5.382
 3727POPC   PO447844  20.200  39.051   5.361
 3727POPC   GL147845  20.487  39.113   5.718
 3727POPC   GL247846  20.853  39.065   5.672
 3727POPC   C1A47847  20.665  39.377   6.064
 3727POPC   D2A47848  20.637  39.235   6.499
 3727POPC   C3A47849  20.662  39.483   6.854
 3727POPC   C4A47850  20.766  39.405   7.270
 3727POPC   C1B47851  20.782  38.883   6.100
 3727POPC   C2B47852  20.890  38.797   6.528
 3727POPC   C3B47853  20.915  39.022   6.927
 3727POPC   C4B47854  20.797  38.912   7.361
 3728POPC   NC347855  21.759  13.843   5.526
 3728POPC   PO447856  20.982  13.769   5.488
 3728POPC   GL147857  21.329  13.699   5.765
 3728POPC   GL247858  21.383  13.427   5.969
 3728POPC   C1A47859  21.544  13.879   6.154
 3728POPC   D2A47860  21.696  13.625   6.508
 3728POPC   C3A47861  21.431  13.621   6.886
 3728POPC   C4A47862  21.578  13.758   7.289
 3728POPC   C1B47863  21.021  13.340   6.232
 3728POPC   C2B47864  20.977  13.046   6.581
 3728POPC   C3B47865  21.045  13.274   6.953
 3728POPC   C4B47866  21.214  13.386   7.347
 3729POPC   NC347867   0.893  37.875   5.326
 3729POPC   PO447868   1.330  37.411   5.438
 3729POPC   GL147869   1.065  37.423   5.742
 3729POPC   GL247870   1.084  37.776   5.772
 3729POPC   C1A47871   1.108  37.305   6.153
 3729POPC   D2A47872   1.381  37.273   6.501
 3729POPC   C3A47873   1.177  37.321   6.892
 3729POPC   C4A47874   1.307  37.472   7.276
 3729POPC   C1B47875   1.276  37.774   6.150
 3729POPC   C2B47876   1.074  37.718   6.547
 3729POPC   C3B47877   1.246  37.830   6.927
 3729POPC   C4B47878   1.510  37.953   7.264
 3730POPC   NC347879  36.087  29.200   5.444
 3730POPC   PO447880  36.091  28.540   5.250
 3730POPC   GL147881  36.156  28.771   5.728
 3730POPC   GL247882  36.375  29.038   5.825
 3730POPC   C1A47883  36.009  29.057   6.151
 3730POPC   D2A47884  35.853  29.289   6.531
 3730POPC   C3A47885  36.035  29.179   6.934
 3730POPC   C4A47886  35.990  29.038   7.347
 3730POPC   C1B47887  36.452  29.347   6.144
 3730POPC   C2B47888  36.370  29.378   6.567
 3730POPC   C3B47889  36.530  29.338   6.976
 3730POPC   C4B47890  36.430  29.286   7.410
 3731POPC   NC347891  41.306  20.707   5.478
 3731POPC   PO447892  41.768  20.252   5.257
 3731POPC   GL147893  41.732  20.512   5.685
 3731POPC   GL247894  41.830  20.889   5.703
 3731POPC   C1A47895  41.451  20.490   6.089
 3731POPC   D2A47896  41.574  20.524   6.539
 3731POPC   C3A47897  41.459  20.814   6.868
 3731POPC   C4A47898  41.472  20.597   7.261
 3731POPC   C1B47899  41.843  20.822   6.171
 3731POPC   C2B47900  41.941  20.897   6.637
 3731POPC   C3B47901  41.941  20.698   7.056
 3731POPC   C4B47902  41.895  20.665   7.519
 3732POPC   NC347903   6.074  26.963   5.471
 3732POPC   PO447904   5.894  26.341   5.716
 3732POPC   GL147905   5.853  26.759   5.940
 3732POPC   GL247906   6.102  27.040   5.970
 3732POPC   C1A47907   5.723  26.996   6.320
 3732POPC   D2A47908   5.738  27.160   6.731
 3732POPC   C3A47909   5.614  26.796   6.940
 3732POPC   C4A47910   5.800  26.562   7.221
 3732POPC   C1B47911   6.193  26.801   6.343
 3732POPC   C2B47912   6.242  26.938   6.771
 3732POPC   C3B47913   6.143  26.952   7.213
 3732POPC   C4B47914   6.253  27.085   7.648
 3733POPC   NC347915   7.389  11.744   5.430
 3733POPC   PO447916   7.556  12.392   5.467
 3733POPC   GL147917   7.573  12.069   5.806
 3733POPC   GL247918   7.715  11.708   5.851
 3733POPC   C1A47919   7.371  11.957   6.211
 3733POPC   D2A47920   7.530  11.822   6.629
 3733POPC   C3A47921   7.356  12.049   6.976
 3733POPC   C4A47922   7.133  11.948   7.370
 3733POPC   C1B47923   7.886  11.961   6.210
 3733POPC   C2B47924   8.043  11.956   6.625
 3733POPC   C3B47925   7.861  11.989   7.030
 3733POPC   C4B47926   7.618  11.644   7.159
 3734POPC   NC347927  19.976   6.942   5.389
 3734POPC   PO447928  19.779   7.628   5.491
 3734POPC   GL147929  19.753   7.255   5.782
 3734POPC   GL247930  20.090   7.155   5.822
 3734POPC   C1A47931  19.682   7.303   6.253
 3734POPC   D2A47932  19.853   7.677   6.538
 3734POPC   C3A47933  19.620   7.729   6.922
 3734POPC   C4A47934  19.525   7.316   7.057
 3734POPC   C1B47935  20.174   7.372   6.176
 3734POPC   C2B47936  20.178   7.262   6.597
 3734POPC   C3B47937  20.037   7.407   6.984
 3734POPC   C4B47938  20.044   7.189   7.346
 3735POPC   NC347939  34.258  29.918   5.261
 3735POPC   PO447940  33.623  30.070   5.458
 3735POPC   GL147941  34.010  30.083   5.735
 3735POPC   GL247942  33.850  29.816   5.917
 3735POPC   C1A47943  34.105  30.152   6.206
 3735POPC   D2A47944  33.881  29.927   6.560
 3735POPC   C3A47945  33.908  30.007   7.017
 3735POPC   C4A47946  33.998  30.329   7.338
 3735POPC   C1B47947  33.540  29.694   6.190
 3735POPC   C2B47948  33.547  29.475   6.543
 3735POPC   C3B47949  33.427  29.652   6.928
 3735POPC   C4B47950  33.494  29.445   7.306
 3736POPC   NC347951  35.931  13.448   5.462
 3736POPC   PO447952  36.487  13.741   5.672
 3736POPC   GL147953  36.185  13.851   5.937
 3736POPC   GL247954  35.861  13.777   5.856
 3736POPC   C1A47955  36.079  13.857   6.372
 3736POPC   D2A47956  35.713  13.904   6.613
 3736POPC   C3A47957  35.900  13.711   6.992
 3736POPC   C4A47958  36.323  13.741   7.201
 3736POPC   C1B47959  35.929  13.408   6.133
 3736POPC   C2B47960  36.000  13.386   6.577
 3736POPC   C3B47961  36.255  13.314   6.929
 3736POPC   C4B47962  36.565  13.173   7.209
 3737POPC   NC347963  14.899  26.975   5.605
 3737POPC   PO447964  14.238  26.716   5.551
 3737POPC   GL147965  14.218  26.683   5.951
 3737POPC   GL247966  13.992  26.955   5.950
 3737POPC   C1A47967  14.544  26.786   6.249
 3737POPC   D2A47968  14.544  26.959   6.650
 3737POPC   C3A47969  14.479  26.644   6.983
 3737POPC   C4A47970  14.628  26.780   7.351
 3737POPC   C1B47971  14.080  26.978   6.361
 3737POPC   C2B47972  14.095  26.739   6.649
 3737POPC   C3B47973  14.048  26.926   7.006
 3737POPC   C4B47974  14.136  26.749   7.389
 3738POPC   NC347975  24.784   0.579   5.486
 3738POPC   PO447976  24.181   0.458   5.505
 3738POPC   GL147977  24.322   0.571   5.887
 3738POPC   GL247978  24.591   0.360   5.907
 3738POPC   C1A47979  24.211   0.613   6.332
 3738POPC   D2A47980  23.990   0.536   6.691
 3738POPC   C3A47981  24.247   0.429   7.001
 3738POPC   C4A47982  24.313   0.681   7.314
 3738POPC   C1B47983  24.725   0.592   6.289
 3738POPC   C2B47984  24.675   0.670   6.751
 3738POPC   C3B47985  24.764   0.461   7.154
 3738POPC   C4B47986  25.000   0.252   7.493
 3739POPC   NC347987  19.351  15.657   5.078
 3739POPC   PO447988  19.269  16.260   5.425
 3739POPC   GL147989  19.161  16.245   5.887
 3739POPC   GL247990  19.067  15.876   5.957
 3739POPC   C1A47991  18.876  16.340   6.250
 3739POPC   D2A47992  18.601  16.106   6.507
 3739POPC   C3A47993  18.872  16.026   6.840
 3739POPC   C4A47994  18.814  16.289   7.169
 3739POPC   C1B47995  19.229  15.980   6.372
 3739POPC   C2B47996  19.413  16.325   6.627
 3739POPC   C3B47997  19.389  16.329   7.082
 3739POPC   C4B47998  19.203  15.969   7.240
 3740POPC   NC347999  40.186  38.911   5.174
 3740POPC   PO448000  40.210  38.273   5.395
 3740POPC   GL148001  40.164  38.450   5.787
 3740POPC   GL248002  40.322  38.756   5.695
 3740POPC   C1A48003  40.212  38.337   6.234
 3740POPC   D2A48004  40.258  38.211   6.675
 3740POPC   C3A48005  39.917  38.296   6.959
 3740POPC   C4A48006  39.872  38.193   7.380
 3740POPC   C1B48007  40.123  38.850   6.103
 3740POPC   C2B48008  40.023  38.734   6.526
 3740POPC   C3B48009  40.172  38.815   6.929
 3740POPC   C4B48010  40.035  38.685   7.332
 3741POPC   NC348011   1.526   3.165   5.611
 3741POPC   PO448012   0.986   3.399   5.347
 3741POPC   GL148013   1.036   3.611   5.773
 3741POPC   GL248014   1.272   3.458   5.947
 3741POPC   C1A48015   0.837   3.775   6.150
 3741POPC   D2A48016   0.944   4.006   6.543
 3741POPC   C3A48017   1.020   3.732   6.899
 3741POPC   C4A48018   1.058   3.542   7.317
 3741POPC   C1B48019   1.480   3.370   6.303
 3741POPC   C2B48020   1.400   3.306   6.709
 3741POPC   C3B48021   1.499   3.475   7.073
 3741POPC   C4B48022   1.477   3.331   7.522
 3742POPC   NC348023  27.020   7.642   5.369
 3742POPC   PO448024  26.623   7.129   5.516
 3742POPC   GL148025  26.785   7.429   5.808
 3742POPC   GL248026  26.616   7.756   5.753
 3742POPC   C1A48027  27.016   7.429   6.208
 3742POPC   D2A48028  26.853   7.430   6.638
 3742POPC   C3A48029  27.111   7.447   7.031
 3742POPC   C4A48030  27.197   7.143   7.387
 3742POPC   C1B48031  26.483   7.668   6.205
 3742POPC   C2B48032  26.549   7.860   6.646
 3742POPC   C3B48033  26.551   7.566   7.029
 3742POPC   C4B48034  26.375   7.599   7.444
 3743POPC   NC348035   3.816  15.381   5.484
 3743POPC   PO448036   3.325  15.087   5.199
 3743POPC   GL148037   3.435  15.070   5.666
 3743POPC   GL248038   3.712  14.870   5.838
 3743POPC   C1A48039   3.536  15.288   6.072
 3743POPC   D2A48040   3.386  15.227   6.501
 3743POPC   C3A48041   3.649  15.114   6.861
 3743POPC   C4A48042   3.464  15.352   7.187
 3743POPC   C1B48043   3.357  14.821   6.146
 3743POPC   C2B48044   3.210  14.741   6.560
 3743POPC   C3B48045   3.228  14.840   6.988
 3743POPC   C4B48046   3.491  14.875   7.310
 3744POPC   NC348047  22.095  40.157   5.386
 3744POPC   PO448048  22.050  39.558   5.790
 3744POPC   GL148049  21.957  40.020   5.874
 3744POPC   GL248050  22.138  40.350   5.893
 3744POPC   C1A48051  21.854  40.207   6.270
 3744POPC   D2A48052  21.983  39.993   6.617
 3744POPC   C3A48053  21.922  40.195   6.975
 3744POPC   C4A48054  21.603  40.051   7.214
 3744POPC   C1B48055  22.376  40.111   6.172
 3744POPC   C2B48056  22.475  39.901   6.565
 3744POPC   C3B48057  22.347  39.877   6.987
 3744POPC   C4B48058  22.504  40.132   7.282
 3745POPC   NC348059  22.388  41.109   5.476
 3745POPC   PO448060  21.953  40.605   5.507
 3745POPC   GL148061  21.941  40.842   5.881
 3745POPC   GL248062  22.250  41.003   5.961
 3745POPC   C1A48063  21.994  40.724   6.326
 3745POPC   D2A48064  22.165  40.861   6.722
 3745POPC   C3A48065  22.019  40.690   7.107
 3745POPC   C4A48066  22.063  40.794   7.533
 3745POPC   C1B48067  22.462  40.646   6.184
 3745POPC   C2B48068  22.335  40.408   6.577
 3745POPC   C3B48069  22.484  40.531   6.969
 3745POPC   C4B48070  22.514  40.636   7.382
 3746POPC   NC348071  33.175  26.944   5.238
 3746POPC   PO448072  32.715  26.526   5.473
 3746POPC   GL148073  32.997  26.660   5.776
 3746POPC   GL248074  33.145  26.993   5.751
 3746POPC   C1A48075  32.874  26.559   6.178
 3746POPC   D2A48076  32.721  26.621   6.567
 3746POPC   C3A48077  33.085  26.590   6.805
 3746POPC   C4A48078  33.094  26.591   7.235
 3746POPC   C1B48079  33.214  26.946   6.198
 3746POPC   C2B48080  33.386  27.010   6.602
 3746POPC   C3B48081  33.175  27.124   6.971
 3746POPC   C4B48082  32.768  26.926   7.014
 3747POPC   NC348083  15.479  19.353   5.599
 3747POPC   PO448084  15.142  19.865   5.221
 3747POPC   GL148085  15.119  19.884   5.688
 3747POPC   GL248086  14.933  19.579   5.749
 3747POPC   C1A48087  15.385  19.864   6.108
 3747POPC   D2A48088  15.554  19.972   6.551
 3747POPC   C3A48089  15.473  20.090   6.976
 3747POPC   C4A48090  15.366  19.845   7.351
 3747POPC   C1B48091  14.890  19.757   6.160
 3747POPC   C2B48092  15.110  19.741   6.547
 3747POPC   C3B48093  15.031  19.828   6.946
 3747POPC   C4B48094  14.845  19.719   7.307
 3748POPC   NC348095   0.187  27.366   5.453
 3748POPC   PO448096   0.851  27.654   5.518
 3748POPC   GL148097   0.543  27.483   5.779
 3748POPC   GL248098   0.557  27.769   5.975
 3748POPC   C1A48099   0.310  27.366   6.145
 3748POPC   D2A48100   0.313  27.577   6.521
 3748POPC   C3A48101   0.375  27.374   6.855
 3748POPC   C4A48102   0.398  27.377   7.250
 3748POPC   C1B48103   0.164  27.889   6.151
 3748POPC   C2B48104   0.002  27.953   6.622
 3748POPC   C3B48105   0.255  27.860   7.021
 3748POPC   C4B48106   0.395  27.846   7.466
 3749POPC   NC348107  26.828  35.882   5.459
 3749POPC   PO448108  27.006  36.594   5.384
 3749POPC   GL148109  26.781  36.352   5.734
 3749POPC   GL248110  26.998  36.100   5.881
 3749POPC   C1A48111  26.492  36.270   6.125
 3749POPC   D2A48112  26.457  36.098   6.593
 3749POPC   C3A48113  26.759  36.311   6.918
 3749POPC   C4A48114  27.131  36.295   7.198
 3749POPC   C1B48115  26.908  36.055   6.325
 3749POPC   C2B48116  27.134  35.816   6.597
 3749POPC   C3B48117  26.999  35.859   6.989
 3749POPC   C4B48118  27.226  35.790   7.335
 3750POPC   NC348119   9.134  19.570   5.356
 3750POPC   PO448120   8.769  18.988   5.316
 3750POPC   GL148121   8.782  19.055   5.758
 3750POPC   GL248122   8.790  19.414   5.774
 3750POPC   C1A48123   9.027  19.118   6.157
 3750POPC   D2A48124   9.349  19.071   6.498
 3750POPC   C3A48125   9.177  18.950   6.916
 3750POPC   C4A48126   9.245  19.082   7.341
 3750POPC   C1B48127   8.704  19.507   6.228
 3750POPC   C2B48128   8.841  19.273   6.621
 3750POPC   C3B48129   8.702  19.125   7.045
 3750POPC   C4B48130   8.402  19.224   7.372
 3751POPC   NC348131  12.003   3.702   5.486
 3751POPC   PO448132  12.286   3.150   5.831
 3751POPC   GL148133  12.260   3.578   5.928
 3751POPC   GL248134  11.920   3.615   6.011
 3751POPC   C1A48135  12.301   3.712   6.346
 3751POPC   D2A48136  11.966   3.505   6.543
 3751POPC   C3A48137  12.102   3.322   6.897
 3751POPC   C4A48138  11.921   3.182   7.247
 3751POPC   C1B48139  11.869   3.976   6.313
 3751POPC   C2B48140  12.048   3.975   6.728
 3751POPC   C3B48141  11.895   3.754   7.085
 3751POPC   C4B48142  11.620   3.969   7.333
 3752POPC   NC348143  15.688  31.681   5.667
 3752POPC   PO448144  15.246  31.257   5.279
 3752POPC   GL148145  15.231  31.339   5.705
 3752POPC   GL248146  15.146  31.670   5.629
 3752POPC   C1A48147  15.048  31.197   6.108
 3752POPC   D2A48148  14.940  31.232   6.549
 3752POPC   C3A48149  15.289  31.188   6.825
 3752POPC   C4A48150  15.139  31.354   7.149
 3752POPC   C1B48151  15.154  31.726   6.081
 3752POPC   C2B48152  15.058  31.744   6.509
 3752POPC   C3B48153  15.051  31.807   6.935
 3752POPC   C4B48154  15.375  31.956   7.152
 3753POPC   NC348155  10.980   7.101   5.314
 3753POPC   PO448156  11.232   6.472   5.323
 3753POPC   GL148157  11.413   6.490   5.819
 3753POPC   GL248158  11.392   6.871   6.004
 3753POPC   C1A48159  11.683   6.543   6.230
 3753POPC   D2A48160  11.528   6.833   6.533
 3753POPC   C3A48161  11.541   6.744   6.931
 3753POPC   C4A48162  11.551   6.778   7.368
 3753POPC   C1B48163  11.042   6.851   6.309
 3753POPC   C2B48164  11.005   6.724   6.719
 3753POPC   C3B48165  11.090   6.717   7.143
 3753POPC   C4B48166  11.087   6.849   7.531
 3754POPC   NC348167   8.318   2.015   5.667
 3754POPC   PO448168   8.968   2.033   5.472
 3754POPC   GL148169   8.773   1.815   5.869
 3754POPC   GL248170   8.589   1.988   6.110
 3754POPC   C1A48171   8.973   1.685   6.279
 3754POPC   D2A48172   9.102   1.950   6.630
 3754POPC   C3A48173   8.846   1.883   6.999
 3754POPC   C4A48174   8.739   2.182   7.316
 3754POPC   C1B48175   9.032   2.196   6.138
 3754POPC   C2B48176   9.407   2.367   6.362
 3754POPC   C3B48177   9.461   2.394   6.800
 3754POPC   C4B48178   9.194   2.281   7.134
 3755POPC   NC348179  17.815  20.858   5.348
 3755POPC   PO448180  17.624  21.464   5.204
 3755POPC   GL148181  17.523  21.185   5.648
 3755POPC   GL248182  17.230  21.347   5.867
 3755POPC   C1A48183  17.615  21.106   6.113
 3755POPC   D2A48184  17.749  21.323   6.512
 3755POPC   C3A48185  17.678  21.122   6.933
 3755POPC   C4A48186  17.697  21.212   7.344
 3755POPC   C1B48187  17.318  21.526   6.300
 3755POPC   C2B48188  17.338  21.500   6.766
 3755POPC   C3B48189  17.354  21.561   7.223
 3755POPC   C4B48190  17.142  21.755   7.595
 3756POPC   NC348191  16.833   2.453   5.560
 3756POPC   PO448192  16.506   3.029   5.526
 3756POPC   GL148193  16.543   2.741   5.870
 3756POPC   GL248194  16.899   2.861   5.874
 3756POPC   C1A48195  16.487   2.410   6.207
 3756POPC   D2A48196  16.662   2.367   6.634
 3756POPC   C3A48197  16.501   2.613   6.976
 3756POPC   C4A48198  16.543   2.554   7.428
 3756POPC   C1B48199  16.980   2.565   6.208
 3756POPC   C2B48200  17.115   2.689   6.601
 3756POPC   C3B48201  17.022   2.764   6.997
 3756POPC   C4B48202  16.723   2.995   7.240
 3757POPC   NC348203   2.757  41.802   5.068
 3757POPC   PO448204   2.758  42.517   5.241
 3757POPC   GL148205   2.818  42.548   5.699
 3757POPC   GL248206   2.655  42.253   5.830
 3757POPC   C1A48207   3.013  42.505   6.114
 3757POPC   D2A48208   2.997  42.201   6.408
 3757POPC   C3A48209   2.998  42.255   6.851
 3757POPC   C4A48210   3.012  42.323   7.295
 3757POPC   C1B48211   2.499  42.338   6.232
 3757POPC   C2B48212   2.525  42.190   6.646
 3757POPC   C3B48213   2.533  42.229   7.089
 3757POPC   C4B48214   2.404  42.103   7.519
 3758POPC   NC348215  40.810  25.092   5.086
 3758POPC   PO448216  40.801  25.444   5.673
 3758POPC   GL148217  40.857  25.170   5.939
 3758POPC   GL248218  40.557  25.002   5.827
 3758POPC   C1A48219  40.865  25.385   6.354
 3758POPC   D2A48220  40.642  25.613   6.669
 3758POPC   C3A48221  40.831  25.587   7.100
 3758POPC   C4A48222  40.741  25.204   7.335
 3758POPC   C1B48223  40.477  25.084   6.253
 3758POPC   C2B48224  40.391  24.841   6.580
 3758POPC   C3B48225  40.629  24.884   6.940
 3758POPC   C4B48226  40.567  24.710   7.330
 3759POPC   NC348227  43.570  44.609   5.421
 3759POPC   PO448228  42.948  44.773   5.322
 3759POPC   GL148229  43.124  44.530   5.668
 3759POPC   GL248230  43.250  44.871   5.762
 3759POPC   C1A48231  43.161  44.467   6.135
 3759POPC   D2A48232  42.839  44.568   6.465
 3759POPC   C3A48233  42.930  44.585   6.917
 3759POPC   C4A48234  43.262  44.434   7.173
 3759POPC   C1B48235  43.393  44.918   6.178
 3759POPC   C2B48236  43.338  44.726   6.574
 3759POPC   C3B48237  43.344  44.901   6.959
 3759POPC   C4B48238  43.595  44.845   7.308
 3760POPC   NC348239  11.304  29.897   4.960
 3760POPC   PO448240  10.975  29.677   5.524
 3760POPC   GL148241  11.383  29.799   5.749
 3760POPC   GL248242  11.487  30.187   5.792
 3760POPC   C1A48243  11.497  29.880   6.189
 3760POPC   D2A48244  11.330  30.103   6.554
 3760POPC   C3A48245  11.296  29.893   6.951
 3760POPC   C4A48246  11.056  29.511   7.030
 3760POPC   C1B48247  11.641  30.383   6.201
 3760POPC   C2B48248  11.715  30.398   6.668
 3760POPC   C3B48249  11.445  30.402   7.027
 3760POPC   C4B48250  11.338  30.140   7.406
 3761POPC   NC348251  38.152  22.802   5.702
 3761POPC   PO448252  38.617  23.202   5.386
 3761POPC   GL148253  38.498  23.149   5.792
 3761POPC   GL248254  38.656  22.860   5.897
 3761POPC   C1A48255  38.454  23.144   6.262
 3761POPC   D2A48256  38.515  22.777   6.563
 3761POPC   C3A48257  38.360  22.803   7.009
 3761POPC   C4A48258  38.486  23.157   7.239
 3761POPC   C1B48259  38.901  22.630   6.202
 3761POPC   C2B48260  38.987  22.505   6.611
 3761POPC   C3B48261  38.843  22.685   6.980
 3761POPC   C4B48262  38.689  22.572   7.388
 3762POPC   NC348263  19.636   2.043   5.108
 3762POPC   PO448264  20.141   2.242   5.453
 3762POPC   GL148265  19.950   2.019   5.781
 3762POPC   GL248266  19.607   1.956   5.672
 3762POPC   C1A48267  20.013   1.965   6.227
 3762POPC   D2A48268  19.683   1.807   6.501
 3762POPC   C3A48269  19.706   1.711   6.904
 3762POPC   C4A48270  19.707   1.895   7.295
 3762POPC   C1B48271  19.527   2.122   6.092
 3762POPC   C2B48272  19.719   2.307   6.470
 3762POPC   C3B48273  19.661   2.217   6.881
 3762POPC   C4B48274  19.473   2.336   7.252
 3763POPC   NC348275  18.246  16.842   5.365
 3763POPC   PO448276  18.736  16.474   5.650
 3763POPC   GL148277  18.389  16.686   5.861
 3763POPC   GL248278  18.403  17.047   5.804
 3763POPC   C1A48279  18.047  16.683   6.184
 3763POPC   D2A48280  17.978  16.499   6.616
 3763POPC   C3A48281  18.030  16.722   7.027
 3763POPC   C4A48282  18.020  16.629   7.524
 3763POPC   C1B48283  18.281  17.150   6.215
 3763POPC   C2B48284  18.327  16.877   6.570
 3763POPC   C3B48285  18.488  16.589   6.871
 3763POPC   C4B48286  18.461  16.753   7.308
 3764POPC   NC348287  15.420  30.131   5.334
 3764POPC   PO448288  15.046  29.638   5.598
 3764POPC   GL148289  15.121  29.847   5.943
 3764POPC   GL248290  15.448  29.905   5.821
 3764POPC   C1A48291  15.222  29.691   6.341
 3764POPC   D2A48292  15.094  29.813   6.725
 3764POPC   C3A48293  15.394  29.732   6.970
 3764POPC   C4A48294  15.212  29.773   7.364
 3764POPC   C1B48295  15.520  30.111   6.199
 3764POPC   C2B48296  15.340  30.242   6.597
 3764POPC   C3B48297  15.260  30.198   7.066
 3764POPC   C4B48298  15.466  30.279   7.443
 3765POPC   NC348299   7.662   2.470   5.431
 3765POPC   PO448300   7.554   3.147   5.405
 3765POPC   GL148301   7.420   2.955   5.820
 3765POPC   GL248302   7.330   2.630   5.822
 3765POPC   C1A48303   7.596   2.763   6.219
 3765POPC   D2A48304   7.614   2.611   6.643
 3765POPC   C3A48305   7.240   2.722   6.895
 3765POPC   C4A48306   7.202   2.988   7.245
 3765POPC   C1B48307   7.157   2.362   6.180
 3765POPC   C2B48308   7.220   2.268   6.606
 3765POPC   C3B48309   7.433   2.267   7.002
 3765POPC   C4B48310   7.371   2.460   7.390
 3766POPC   NC348311  16.901   3.167   5.311
 3766POPC   PO448312  16.748   3.955   5.237
 3766POPC   GL148313  16.857   3.903   5.717
 3766POPC   GL248314  16.974   3.582   5.609
 3766POPC   C1A48315  16.691   3.853   6.180
 3766POPC   D2A48316  16.733   3.617   6.577
 3766POPC   C3A48317  16.462   3.603   6.949
 3766POPC   C4A48318  16.411   3.386   7.375
 3766POPC   C1B48319  16.958   3.420   6.009
 3766POPC   C2B48320  17.117   3.315   6.399
 3766POPC   C3B48321  17.072   3.264   6.849
 3766POPC   C4B48322  16.889   3.466   7.211
 3767POPC   NC348323   2.167  40.380   5.352
 3767POPC   PO448324   1.524  39.912   5.276
 3767POPC   GL148325   1.856  39.880   5.658
 3767POPC   GL248326   1.970  40.199   5.772
 3767POPC   C1A48327   1.910  39.904   6.158
 3767POPC   D2A48328   2.182  40.010   6.545
 3767POPC   C3A48329   2.002  39.899   6.976
 3767POPC   C4A48330   1.575  39.772   7.123
 3767POPC   C1B48331   2.115  40.381   6.146
 3767POPC   C2B48332   2.228  40.538   6.522
 3767POPC   C3B48333   2.126  40.381   6.907
 3767POPC   C4B48334   2.243  40.261   7.309
 3768POPC   NC348335  30.723  14.848   5.505
 3768POPC   PO448336  30.955  15.564   5.511
 3768POPC   GL148337  30.693  15.433   5.826
 3768POPC   GL248338  30.386  15.237   5.729
 3768POPC   C1A48339  30.840  15.360   6.252
 3768POPC   D2A48340  30.567  15.406   6.596
 3768POPC   C3A48341  30.713  15.294   7.004
 3768POPC   C4A48342  30.504  15.208   7.339
 3768POPC   C1B48343  30.488  15.021   6.121
 3768POPC   C2B48344  30.637  14.910   6.546
 3768POPC   C3B48345  30.400  14.722   6.859
 3768POPC   C4B48346  30.509  14.700   7.242
 3769POPC   NC348347  13.091   3.509   5.081
 3769POPC   PO448348  12.552   3.640   5.370
 3769POPC   GL148349  12.921   3.538   5.643
 3769POPC   GL248350  12.735   3.420   5.883
 3769POPC   C1A48351  13.130   3.658   6.085
 3769POPC   D2A48352  13.304   3.843   6.497
 3769POPC   C3A48353  13.104   3.740   6.880
 3769POPC   C4A48354  12.817   3.577   7.192
 3769POPC   C1B48355  12.738   3.330   6.311
 3769POPC   C2B48356  12.612   3.429   6.742
 3769POPC   C3B48357  12.544   3.146   7.082
 3769POPC   C4B48358  12.617   3.042   7.535
 3770POPC   NC348359  36.409  28.317   5.499
 3770POPC   PO448360  35.850  28.057   5.649
 3770POPC   GL148361  36.061  28.271   5.963
 3770POPC   GL248362  35.862  28.543   6.065
 3770POPC   C1A48363  36.067  28.273   6.432
 3770POPC   D2A48364  36.372  28.384   6.720
 3770POPC   C3A48365  36.248  28.186   7.075
 3770POPC   C4A48366  35.862  28.182   7.264
 3770POPC   C1B48367  36.308  28.655   6.212
 3770POPC   C2B48368  36.182  28.843   6.586
 3770POPC   C3B48369  35.979  28.662   6.956
 3770POPC   C4B48370  36.331  28.672   7.196
 3771POPC   NC348371   4.850  34.175   5.459
 3771POPC   PO448372   4.835  34.785   5.687
 3771POPC   GL148373   4.941  34.452   5.902
 3771POPC   GL248374   5.287  34.448   5.983
 3771POPC   C1A48375   4.955  34.502   6.334
 3771POPC   D2A48376   5.091  34.243   6.584
 3771POPC   C3A48377   5.077  34.447   6.978
 3771POPC   C4A48378   5.323  34.412   7.333
 3771POPC   C1B48379   5.295  34.873   6.202
 3771POPC   C2B48380   5.153  34.932   6.631
 3771POPC   C3B48381   5.354  34.921   7.029
 3771POPC   C4B48382   5.110  34.886   7.374
 3772POPC   NC348383   0.912  35.331   5.502
 3772POPC   PO448384   1.308  35.731   5.395
 3772POPC   GL148385   1.365  35.509   5.803
 3772POPC   GL248386   1.316  35.162   5.863
 3772POPC   C1A48387   1.162  35.414   6.260
 3772POPC   D2A48388   0.898  35.455   6.630
 3772POPC   C3A48389   1.158  35.564   6.967
 3772POPC   C4A48390   1.122  35.345   7.314
 3772POPC   C1B48391   1.380  34.927   6.254
 3772POPC   C2B48392   1.465  34.904   6.684
 3772POPC   C3B48393   1.283  34.928   7.081
 3772POPC   C4B48394   1.152  34.862   7.508
 3773POPC   NC348395  44.501  34.061   5.417
 3773POPC   PO448396  44.776  33.444   5.381
 3773POPC   GL148397  44.709  33.620   5.782
 3773POPC   GL248398  44.790  33.965   5.821
 3773POPC   C1A48399  44.760  33.630   6.240
 3773POPC   D2A48400  44.546  33.785   6.611
 3773POPC   C3A48401  44.645  33.565   6.960
 3773POPC   C4A48402  44.406  33.512   7.283
 3773POPC   C1B48403  44.610  34.119   6.204
 3773POPC   C2B48404  44.692  34.283   6.585
 3773POPC   C3B48405  44.436  34.195   6.929
 3773POPC   C4B48406  44.489  34.012   7.284
 3774POPC   NC348407   1.480  21.789   5.504
 3774POPC   PO448408   1.149  22.470   5.441
 3774POPC   GL148409   1.313  22.259   5.791
 3774POPC   GL248410   0.983  22.204   5.913
 3774POPC   C1A48411   1.377  22.159   6.228
 3774POPC   D2A48412   1.136  22.072   6.584
 3774POPC   C3A48413   1.308  22.178   6.960
 3774POPC   C4A48414   1.245  22.016   7.341
 3774POPC   C1B48415   0.927  22.444   6.281
 3774POPC   C2B48416   0.798  22.450   6.710
 3774POPC   C3B48417   0.882  22.402   7.146
 3774POPC   C4B48418   0.882  22.320   7.572
 3775POPC   NC348419  36.465  26.636   5.559
 3775POPC   PO448420  35.922  27.060   5.619
 3775POPC   GL148421  36.104  26.768   5.892
 3775POPC   GL248422  36.411  26.969   5.964
 3775POPC   C1A48423  36.012  26.465   6.226
 3775POPC   D2A48424  35.850  26.608   6.619
 3775POPC   C3A48425  35.969  26.392   7.001
 3775POPC   C4A48426  35.861  26.434   7.420
 3775POPC   C1B48427  36.230  26.931   6.371
 3775POPC   C2B48428  36.268  26.815   6.803
 3775POPC   C3B48429  36.125  26.879   7.197
 3775POPC   C4B48430  36.439  26.965   7.484
 3776POPC   NC348431  25.299  34.878   5.415
 3776POPC   PO448432  25.413  34.186   5.362
 3776POPC   GL148433  25.459  34.499   5.762
 3776POPC   GL248434  25.134  34.632   5.876
 3776POPC   C1A48435  25.500  34.621   6.237
 3776POPC   D2A48436  25.447  34.491   6.670
 3776POPC   C3A48437  25.634  34.630   7.071
 3776POPC   C4A48438  25.482  34.781   7.476
 3776POPC   C1B48439  24.879  34.642   6.252
 3776POPC   C2B48440  24.919  34.811   6.661
 3776POPC   C3B48441  25.132  34.738   7.026
 3776POPC   C4B48442  25.083  34.504   7.379
 3777POPC   NC348443  15.580   0.044   5.540
 3777POPC   PO448444  15.737   0.742   5.372
 3777POPC   GL148445  15.914   0.515   5.781
 3777POPC   GL248446  16.187   0.272   5.761
 3777POPC   C1A48447  15.750   0.407   6.249
 3777POPC   D2A48448  15.591   0.386   6.726
 3777POPC   C3A48449  15.786   0.507   7.100
 3777POPC   C4A48450  16.180   0.760   7.077
 3777POPC   C1B48451  16.262   0.106   6.157
 3777POPC   C2B48452  16.069   0.147   6.555
 3777POPC   C3B48453  16.211   0.272   6.934
 3777POPC   C4B48454  16.097   0.176   7.357
 3778POPC   NC348455   4.783  35.937   5.408
 3778POPC   PO448456   5.128  36.545   5.339
 3778POPC   GL148457   4.987  36.328   5.689
 3778POPC   GL248458   5.315  36.238   5.820
 3778POPC   C1A48459   4.889  36.161   6.131
 3778POPC   D2A48460   5.142  35.955   6.477
 3778POPC   C3A48461   4.945  36.068   6.898
 3778POPC   C4A48462   4.804  35.969   7.338
 3778POPC   C1B48463   5.323  36.424   6.236
 3778POPC   C2B48464   5.331  36.386   6.670
 3778POPC   C3B48465   5.490  36.081   6.941
 3778POPC   C4B48466   5.285  36.158   7.314
 3779POPC   NC348467  15.410  26.859   5.062
 3779POPC   PO448468  14.960  26.517   5.449
 3779POPC   GL148469  15.270  26.646   5.772
 3779POPC   GL248470  15.605  26.575   5.674
 3779POPC   C1A48471  15.322  26.865   6.184
 3779POPC   D2A48472  15.055  27.043   6.537
 3779POPC   C3A48473  14.952  26.864   6.947
 3779POPC   C4A48474  15.116  26.988   7.323
 3779POPC   C1B48475  15.568  26.378   6.106
 3779POPC   C2B48476  15.579  26.585   6.526
 3779POPC   C3B48477  15.442  26.862   6.841
 3779POPC   C4B48478  15.375  26.591   7.172
 3780POPC   NC348479  20.023  36.494   5.706
 3780POPC   PO448480  20.079  35.930   5.436
 3780POPC   GL148481  19.901  35.981   5.830
 3780POPC   GL248482  19.543  35.902   5.743
 3780POPC   C1A48483  20.037  36.125   6.266
 3780POPC   D2A48484  19.887  36.393   6.630
 3780POPC   C3A48485  19.884  36.276   7.089
 3780POPC   C4A48486  19.768  36.439   7.521
 3780POPC   C1B48487  19.410  35.784   6.145
 3780POPC   C2B48488  19.610  35.964   6.512
 3780POPC   C3B48489  19.579  35.864   6.948
 3780POPC   C4B48490  19.709  35.732   7.319
 3781POPC   NC348491  26.153  20.765   5.243
 3781POPC   PO448492  25.779  20.438   5.594
 3781POPC   GL148493  25.978  20.751   5.792
 3781POPC   GL248494  26.302  20.665   5.912
 3781POPC   C1A48495  25.931  20.882   6.206
 3781POPC   D2A48496  26.270  20.764   6.488
 3781POPC   C3A48497  26.211  20.736   6.912
 3781POPC   C4A48498  25.974  20.849   7.240
 3781POPC   C1B48499  26.415  20.342   6.247
 3781POPC   C2B48500  26.499  20.346   6.734
 3781POPC   C3B48501  26.349  20.340   7.203
 3781POPC   C4B48502  26.554  20.382   7.657
 3782POPC   NC348503  13.054   0.293   5.675
 3782POPC   PO448504  12.574   0.748   5.429
 3782POPC   GL148505  12.609   0.484   5.811
 3782POPC   GL248506  12.591   0.103   5.839
 3782POPC   C1A48507  12.819   0.532   6.215
 3782POPC   D2A48508  12.979   0.863   6.474
 3782POPC   C3A48509  12.960   0.652   6.862
 3782POPC   C4A48510  12.902   0.822   7.242
 3782POPC   C1B48511  12.430   0.145   6.201
 3782POPC   C2B48512  12.631   0.172   6.572
 3782POPC   C3B48513  12.514   0.314   6.936
 3782POPC   C4B48514  12.718   0.303   7.276
 3783POPC   NC348515  22.220  30.860   5.134
 3783POPC   PO448516  21.954  31.465   5.366
 3783POPC   GL148517  22.099  31.500   5.790
 3783POPC   GL248518  22.335  31.768   5.834
 3783POPC   C1A48519  21.977  31.345   6.214
 3783POPC   D2A48520  22.067  31.154   6.626
 3783POPC   C3A48521  22.055  31.443   6.949
 3783POPC   C4A48522  22.197  31.403   7.368
 3783POPC   C1B48523  22.427  31.577   6.224
 3783POPC   C2B48524  22.532  31.571   6.658
 3783POPC   C3B48525  22.488  31.689   7.087
 3783POPC   C4B48526  22.380  31.872   7.517
 3784POPC   NC348527  39.055  17.963   5.262
 3784POPC   PO448528  39.471  17.424   5.115
 3784POPC   GL148529  39.301  17.519   5.574
 3784POPC   GL248530  39.334  17.804   5.730
 3784POPC   C1A48531  39.296  17.351   6.045
 3784POPC   D2A48532  39.104  17.218   6.469
 3784POPC   C3A48533  39.312  17.323   6.863
 3784POPC   C4A48534  39.402  17.447   7.246
 3784POPC   C1B48535  39.556  17.784   6.128
 3784POPC   C2B48536  39.584  17.568   6.506
 3784POPC   C3B48537  39.591  17.779   6.917
 3784POPC   C4B48538  39.836  17.687   7.300
 3785POPC   NC348539  41.393  40.140   5.284
 3785POPC   PO448540  41.107  39.541   5.548
 3785POPC   GL148541  41.473  39.808   5.705
 3785POPC   GL248542  41.488  40.189   5.774
 3785POPC   C1A48543  41.589  39.811   6.149
 3785POPC   D2A48544  41.407  39.956   6.533
 3785POPC   C3A48545  41.541  39.874   6.941
 3785POPC   C4A48546  41.410  39.961   7.351
 3785POPC   C1B48547  41.689  40.320   6.150
 3785POPC   C2B48548  41.562  40.475   6.561
 3785POPC   C3B48549  41.670  40.442   7.001
 3785POPC   C4B48550  41.663  40.397   7.458
 3786POPC   NC348551  29.996  23.748   5.362
 3786POPC   PO448552  29.576  24.263   5.554
 3786POPC   GL148553  29.717  23.893   5.813
 3786POPC   GL248554  30.066  23.761   5.852
 3786POPC   C1A48555  29.746  23.728   6.249
 3786POPC   D2A48556  29.542  23.592   6.661
 3786POPC   C3A48557  29.657  23.787   7.072
 3786POPC   C4A48558  29.817  23.633   7.459
 3786POPC   C1B48559  30.262  23.567   6.227
 3786POPC   C2B48560  30.070  23.553   6.629
 3786POPC   C3B48561  30.057  23.438   7.046
 3786POPC   C4B48562  30.327  23.535   7.377
 3787POPC   NC348563  14.169  14.287   5.508
 3787POPC   PO448564  14.819  14.014   5.506
 3787POPC   GL148565  14.556  14.225   5.877
 3787POPC   GL248566  14.194  14.062   5.951
 3787POPC   C1A48567  14.452  14.487   6.260
 3787POPC   D2A48568  14.489  14.418   6.715
 3787POPC   C3A48569  14.398  14.653   7.082
 3787POPC   C4A48570  14.334  14.536   7.512
 3787POPC   C1B48571  14.244  14.020   6.380
 3787POPC   C2B48572  14.008  14.148   6.724
 3787POPC   C3B48573  14.152  14.201   7.114
 3787POPC   C4B48574  14.382  14.010   7.390
 3788POPC   NC348575  18.336  27.358   5.280
 3788POPC   PO448576  17.832  27.839   5.272
 3788POPC   GL148577  18.045  27.644   5.642
 3788POPC   GL248578  18.255  27.873   5.858
 3788POPC   C1A48579  18.203  27.369   6.014
 3788POPC   D2A48580  18.159  27.128   6.423
 3788POPC   C3A48581  18.341  27.296   6.795
 3788POPC   C4A48582  18.253  27.384   7.211
 3788POPC   C1B48583  18.459  27.786   6.297
 3788POPC   C2B48584  18.427  27.803   6.803
 3788POPC   C3B48585  18.521  27.797   7.257
 3788POPC   C4B48586  18.294  27.951   7.637
 3789POPC   NC348587  40.603  29.326   5.303
 3789POPC   PO448588  40.751  28.630   5.316
 3789POPC   GL148589  40.759  28.948   5.689
 3789POPC   GL248590  40.690  29.326   5.809
 3789POPC   C1A48591  40.723  28.924   6.145
 3789POPC   D2A48592  40.951  28.890   6.537
 3789POPC   C3A48593  40.828  29.069   6.938
 3789POPC   C4A48594  40.831  28.956   7.345
 3789POPC   C1B48595  40.862  29.523   6.199
 3789POPC   C2B48596  40.719  29.679   6.606
 3789POPC   C3B48597  40.564  29.529   7.009
 3789POPC   C4B48598  40.739  29.460   7.446
 3790POPC   NC348599  38.744  26.135   5.440
 3790POPC   PO448600  38.087  26.280   5.241
 3790POPC   GL148601  38.315  26.237   5.713
 3790POPC   GL248602  38.566  26.022   5.899
 3790POPC   C1A48603  38.222  26.299   6.177
 3790POPC   D2A48604  38.439  26.144   6.568
 3790POPC   C3A48605  38.235  26.137   6.991
 3790POPC   C4A48606  38.184  26.219   7.423
 3790POPC   C1B48607  38.579  25.706   6.220
 3790POPC   C2B48608  38.675  25.543   6.611
 3790POPC   C3B48609  38.660  25.828   6.910
 3790POPC   C4B48610  38.646  25.908   7.299
 3791POPC   NC348611  20.249   7.516   5.513
 3791POPC   PO448612  20.903   7.507   5.547
 3791POPC   GL148613  20.609   7.340   5.846
 3791POPC   GL248614  20.503   7.685   5.926
 3791POPC   C1A48615  20.609   7.136   6.260
 3791POPC   D2A48616  20.680   7.314   6.672
 3791POPC   C3A48617  20.553   7.100   7.038
 3791POPC   C4A48618  20.876   7.269   7.254
 3791POPC   C1B48619  20.303   7.845   6.296
 3791POPC   C2B48620  20.376   7.761   6.716
 3791POPC   C3B48621  20.490   7.601   7.105
 3791POPC   C4B48622  20.258   7.648   7.472
 3792POPC   NC348623  19.731  26.466   5.532
 3792POPC   PO448624  19.654  27.138   5.537
 3792POPC   GL148625  19.858  26.872   5.850
 3792POPC   GL248626  19.655  26.576   6.021
 3792POPC   C1A48627  20.150  27.087   6.152
 3792POPC   D2A48628  20.217  27.299   6.561
 3792POPC   C3A48629  20.034  27.055   6.892
 3792POPC   C4A48630  19.748  27.031   7.208
 3792POPC   C1B48631  19.497  26.651   6.443
 3792POPC   C2B48632  19.420  26.690   6.894
 3792POPC   C3B48633  19.601  26.522   7.243
 3792POPC   C4B48634  19.633  26.387   7.644
 3793POPC   NC348635  19.502  25.520   5.558
 3793POPC   PO448636  19.898  25.015   5.399
 3793POPC   GL148637  19.940  25.289   5.796
 3793POPC   GL248638  20.116  25.643   5.769
 3793POPC   C1A48639  19.760  25.192   6.263
 3793POPC   D2A48640  19.701  25.284   6.725
 3793POPC   C3A48641  19.740  25.019   7.106
 3793POPC   C4A48642  19.588  24.807   7.500
 3793POPC   C1B48643  19.953  25.685   6.198
 3793POPC   C2B48644  19.851  25.763   6.636
 3793POPC   C3B48645  19.988  25.568   7.038
 3793POPC   C4B48646  19.976  25.578   7.478
 3794POPC   NC348647  22.206  26.973   5.208
 3794POPC   PO448648  21.981  26.515   5.500
 3794POPC   GL148649  21.998  26.837   5.785
 3794POPC   GL248650  21.765  27.123   5.759
 3794POPC   C1A48651  22.079  26.754   6.198
 3794POPC   D2A48652  22.286  26.606   6.557
 3794POPC   C3A48653  22.097  26.780   6.893
 3794POPC   C4A48654  22.174  26.968   7.284
 3794POPC   C1B48655  21.662  27.204   6.211
 3794POPC   C2B48656  21.770  27.067   6.616
 3794POPC   C3B48657  21.755  27.134   7.067
 3794POPC   C4B48658  21.765  27.189   7.519
 3795POPC   NC348659  14.577  27.770   5.271
 3795POPC   PO448660  14.480  28.397   5.434
 3795POPC   GL148661  14.198  28.613   5.731
 3795POPC   GL248662  14.342  28.334   5.939
 3795POPC   C1A48663  14.018  28.637   6.149
 3795POPC   D2A48664  14.255  28.437   6.473
 3795POPC   C3A48665  14.188  28.488   6.892
 3795POPC   C4A48666  14.402  28.245   7.217
 3795POPC   C1B48667  14.541  28.711   6.143
 3795POPC   C2B48668  14.585  28.836   6.596
 3795POPC   C3B48669  14.653  28.661   7.028
 3795POPC   C4B48670  14.497  28.677   7.478
 3796POPC   NC348671  40.259  37.799   5.451
 3796POPC   PO448672  39.660  37.517   5.749
 3796POPC   GL148673  40.017  37.720   5.907
 3796POPC   GL248674  40.348  37.575   5.905
 3796POPC   C1A48675  40.110  37.796   6.337
 3796POPC   D2A48676  40.039  37.526   6.713
 3796POPC   C3A48677  39.970  37.765   7.066
 3796POPC   C4A48678  39.767  37.718   7.464
 3796POPC   C1B48679  40.378  37.334   6.309
 3796POPC   C2B48680  40.454  37.213   6.776
 3796POPC   C3B48681  40.395  37.414   7.208
 3796POPC   C4B48682  40.471  37.437   7.710
 3797POPC   NC348683  13.424  14.937   5.361
 3797POPC   PO448684  13.950  15.326   5.168
 3797POPC   GL148685  13.782  15.398   5.639
 3797POPC   GL248686  13.501  15.150   5.815
 3797POPC   C1A48687  13.755  15.439   6.131
 3797POPC   D2A48688  13.722  15.066   6.435
 3797POPC   C3A48689  13.646  15.148   6.869
 3797POPC   C4A48690  13.804  15.437   7.194
 3797POPC   C1B48691  13.469  14.745   6.114
 3797POPC   C2B48692  13.260  14.762   6.566
 3797POPC   C3B48693  13.368  14.723   7.017
 3797POPC   C4B48694  13.504  15.034   7.347
 3798POPC   NC348695   3.196  42.872   5.528
 3798POPC   PO448696   2.846  43.498   5.415
 3798POPC   GL148697   2.963  43.456   5.820
 3798POPC   GL248698   2.882  43.103   5.835
 3798POPC   C1A48699   2.849  43.375   6.256
 3798POPC   D2A48700   2.688  43.155   6.639
 3798POPC   C3A48701   2.924  43.332   6.999
 3798POPC   C4A48702   2.737  43.584   7.300
 3798POPC   C1B48703   2.687  42.886   6.170
 3798POPC   C2B48704   2.759  42.647   6.553
 3798POPC   C3B48705   2.762  42.705   6.985
 3798POPC   C4B48706   3.120  42.822   7.240
 3799POPC   NC348707  23.327  21.912   5.463
 3799POPC   PO448708  22.612  21.874   5.531
 3799POPC   GL148709  22.767  22.126   5.839
 3799POPC   GL248710  23.112  22.283   5.788
 3799POPC   C1A48711  22.903  22.081   6.250
 3799POPC   D2A48712  22.968  22.367   6.545
 3799POPC   C3A48713  22.864  22.135   6.889
 3799POPC   C4A48714  22.976  22.150   7.291
 3799POPC   C1B48715  23.329  22.408   6.183
 3799POPC   C2B48716  23.533  22.437   6.615
 3799POPC   C3B48717  23.403  22.389   7.072
 3799POPC   C4B48718  23.289  22.489   7.532
 3800POPC   NC348719   7.278  43.374   5.295
 3800POPC   PO448720   7.441  44.024   5.242
 3800POPC   GL148721   7.477  43.862   5.678
 3800POPC   GL248722   7.203  43.599   5.745
 3800POPC   C1A48723   7.642  44.022   6.072
 3800POPC   D2A48724   7.822  43.917   6.474
 3800POPC   C3A48725   7.568  44.035   6.794
 3800POPC   C4A48726   7.571  44.002   7.225
 3800POPC   C1B48727   7.206  43.732   6.156
 3800POPC   C2B48728   7.333  43.572   6.561
 3800POPC   C3B48729   7.223  43.709   6.971
 3800POPC   C4B48730   7.234  43.647   7.417
 3801POPC   NC348731   9.995  28.600   5.347
 3801POPC   PO448732  10.722  28.460   5.323
 3801POPC   GL148733  10.755  28.531   5.753
 3801POPC   GL248734  10.910  28.201   5.767
 3801POPC   C1A48735  10.598  28.474   6.180
 3801POPC   D2A48736  10.289  28.234   6.430
 3801POPC   C3A48737  10.348  28.257   6.878
 3801POPC   C4A48738  10.524  28.354   7.285
 3801POPC   C1B48739  10.918  28.067   6.173
 3801POPC   C2B48740  10.803  28.195   6.578
 3801POPC   C3B48741  10.806  28.030   6.981
 3801POPC   C4B48742  10.840  27.971   7.408
 3802POPC   NC348743  43.541  27.618   5.523
 3802POPC   PO448744  42.862  27.833   5.563
 3802POPC   GL148745  43.060  27.760   5.959
 3802POPC   GL248746  43.413  27.776   5.990
 3802POPC   C1A48747  43.122  27.614   6.396
 3802POPC   D2A48748  42.842  27.408   6.689
 3802POPC   C3A48749  42.951  27.549   7.054
 3802POPC   C4A48750  42.988  27.914   7.233
 3802POPC   C1B48751  43.495  27.314   6.100
 3802POPC   C2B48752  43.652  27.191   6.468
 3802POPC   C3B48753  43.483  27.388   6.834
 3802POPC   C4B48754  43.378  27.440   7.275
 3803POPC   NC348755   4.773   2.428   5.383
 3803POPC   PO448756   4.142   2.627   5.371
 3803POPC   GL148757   4.230   2.553   5.782
 3803POPC   GL248758   4.542   2.697   5.776
 3803POPC   C1A48759   4.182   2.758   6.187
 3803POPC   D2A48760   4.236   2.950   6.592
 3803POPC   C3A48761   4.128   2.776   7.003
 3803POPC   C4A48762   4.060   2.772   7.478
 3803POPC   C1B48763   4.762   2.723   6.147
 3803POPC   C2B48764   4.661   2.644   6.567
 3803POPC   C3B48765   4.619   2.889   6.945
 3803POPC   C4B48766   4.518   2.683   7.339
 3804POPC   NC348767  43.204  31.150   5.392
 3804POPC   PO448768  42.915  31.784   5.344
 3804POPC   GL148769  42.898  31.530   5.720
 3804POPC   GL248770  43.236  31.439   5.858
 3804POPC   C1A48771  42.794  31.503   6.152
 3804POPC   D2A48772  43.116  31.455   6.519
 3804POPC   C3A48773  42.941  31.309   6.910
 3804POPC   C4A48774  43.035  31.447   7.292
 3804POPC   C1B48775  43.482  31.257   6.213
 3804POPC   C2B48776  43.500  31.085   6.630
 3804POPC   C3B48777  43.461  31.316   7.007
 3804POPC   C4B48778  43.472  31.234   7.433
 3805POPC   NC348779  19.368  18.975   5.615
 3805POPC   PO448780  19.832  19.299   5.254
 3805POPC   GL148781  19.853  19.165   5.723
 3805POPC   GL248782  19.962  18.830   5.869
 3805POPC   C1A48783  19.678  19.140   6.167
 3805POPC   D2A48784  19.660  18.890   6.543
 3805POPC   C3A48785  19.658  19.185   6.886
 3805POPC   C4A48786  19.700  19.030   7.269
 3805POPC   C1B48787  20.171  18.913   6.255
 3805POPC   C2B48788  20.375  18.977   6.631
 3805POPC   C3B48789  20.146  19.005   7.004
 3805POPC   C4B48790  20.140  19.141   7.445
 3806POPC   NC348791   6.282  29.672   5.419
 3806POPC   PO448792   5.667  29.784   5.511
 3806POPC   GL148793   5.989  29.959   5.801
 3806POPC   GL248794   6.139  29.652   5.905
 3806POPC   C1A48795   5.990  30.011   6.274
 3806POPC   D2A48796   5.881  30.232   6.658
 3806POPC   C3A48797   5.879  29.966   7.017
 3806POPC   C4A48798   5.514  29.809   7.260
 3806POPC   C1B48799   5.758  29.565   6.168
 3806POPC   C2B48800   5.623  29.678   6.599
 3806POPC   C3B48801   5.733  29.464   6.971
 3806POPC   C4B48802   6.120  29.514   7.179
 3807POPC   NC348803  13.228  38.773   5.447
 3807POPC   PO448804  12.633  38.448   5.563
 3807POPC   GL148805  12.761  38.508   5.920
 3807POPC   GL248806  13.025  38.257   5.865
 3807POPC   C1A48807  12.791  38.384   6.331
 3807POPC   D2A48808  13.015  38.275   6.680
 3807POPC   C3A48809  12.683  38.316   6.990
 3807POPC   C4A48810  12.512  38.643   7.254
 3807POPC   C1B48811  13.215  38.601   6.123
 3807POPC   C2B48812  13.104  38.778   6.525
 3807POPC   C3B48813  13.002  38.717   6.962
 3807POPC   C4B48814  13.084  38.462   7.327
 3808POPC   NC348815  35.560  27.832   5.369
 3808POPC   PO448816  35.045  27.473   5.546
 3808POPC   GL148817  35.259  27.611   5.867
 3808POPC   GL248818  35.466  27.888   5.908
 3808POPC   C1A48819  35.094  27.878   6.228
 3808POPC   D2A48820  35.302  27.975   6.603
 3808POPC   C3A48821  35.032  27.839   6.931
 3808POPC   C4A48822  35.127  27.485   7.164
 3808POPC   C1B48823  35.522  27.595   6.302
 3808POPC   C2B48824  35.593  27.405   6.729
 3808POPC   C3B48825  35.754  27.285   7.142
 3808POPC   C4B48826  36.068  27.325   7.472
 3809POPC   NC348827  34.090  28.644   5.582
 3809POPC   PO448828  33.530  28.239   5.374
 3809POPC   GL148829  33.728  28.381   5.811
 3809POPC   GL248830  33.444  28.476   5.924
 3809POPC   C1A48831  33.981  28.318   6.225
 3809POPC   D2A48832  34.037  28.549   6.643
 3809POPC   C3A48833  34.129  28.365   7.075
 3809POPC   C4A48834  34.189  28.487   7.546
 3809POPC   C1B48835  33.474  28.325   6.351
 3809POPC   C2B48836  33.381  28.502   6.729
 3809POPC   C3B48837  33.638  28.509   7.074
 3809POPC   C4B48838  33.710  28.351   7.489
 3810POPC   NC348839  28.206  19.203   5.284
 3810POPC   PO448840  28.530  18.534   5.390
 3810POPC   GL148841  28.385  18.801   5.778
 3810POPC   GL248842  28.350  19.173   5.778
 3810POPC   C1A48843  28.619  18.973   6.173
 3810POPC   D2A48844  28.694  19.257   6.550
 3810POPC   C3A48845  28.648  19.021   6.947
 3810POPC   C4A48846  28.268  18.793   7.081
 3810POPC   C1B48847  28.226  19.299   6.223
 3810POPC   C2B48848  28.223  19.177   6.706
 3810POPC   C3B48849  28.135  19.255   7.173
 3810POPC   C4B48850  27.940  18.988   7.495
 3811POPC   NC348851  19.692   5.483   5.410
 3811POPC   PO448852  19.690   4.844   5.578
 3811POPC   GL148853  19.951   5.121   5.816
 3811POPC   GL248854  20.078   5.433   5.767
 3811POPC   C1A48855  20.181   5.108   6.194
 3811POPC   D2A48856  20.119   4.926   6.588
 3811POPC   C3A48857  20.118   5.109   6.981
 3811POPC   C4A48858  19.703   5.072   7.136
 3811POPC   C1B48859  19.831   5.500   6.156
 3811POPC   C2B48860  19.942   5.440   6.600
 3811POPC   C3B48861  19.842   5.575   7.035
 3811POPC   C4B48862  20.006   5.402   7.421
 3812POPC   NC348863  12.854  19.198   5.533
 3812POPC   PO448864  13.443  18.873   5.498
 3812POPC   GL148865  13.568  19.097   5.802
 3812POPC   GL248866  13.288  19.313   5.811
 3812POPC   C1A48867  13.730  19.046   6.209
 3812POPC   D2A48868  13.874  19.330   6.540
 3812POPC   C3A48869  13.772  19.085   6.860
 3812POPC   C4A48870  13.807  18.979   7.273
 3812POPC   C1B48871  13.233  19.002   6.191
 3812POPC   C2B48872  13.402  18.817   6.607
 3812POPC   C3B48873  13.333  18.956   7.066
 3812POPC   C4B48874  13.399  19.168   7.499
 3813POPC   NC348875  12.851  30.300   5.330
 3813POPC   PO448876  12.715  30.926   5.322
 3813POPC   GL148877  12.905  30.753   5.730
 3813POPC   GL248878  12.716  30.467   5.803
 3813POPC   C1A48879  13.050  30.603   6.173
 3813POPC   D2A48880  13.158  30.672   6.619
 3813POPC   C3A48881  12.930  30.691   6.971
 3813POPC   C4A48882  12.818  31.006   7.254
 3813POPC   C1B48883  12.624  30.307   6.215
 3813POPC   C2B48884  12.564  30.519   6.614
 3813POPC   C3B48885  12.476  30.466   7.046
 3813POPC   C4B48886  12.681  30.550   7.404
 3814POPC   NC348887  21.075  27.484   5.370
 3814POPC   PO448888  21.661  27.914   5.446
 3814POPC   GL148889  21.501  27.635   5.763
 3814POPC   GL248890  21.837  27.620   5.900
 3814POPC   C1A48891  21.221  27.471   6.098
 3814POPC   D2A48892  21.007  27.648   6.451
 3814POPC   C3A48893  21.103  27.560   6.876
 3814POPC   C4A48894  21.344  27.407   7.245
 3814POPC   C1B48895  21.632  27.716   6.292
 3814POPC   C2B48896  21.609  27.542   6.737
 3814POPC   C3B48897  21.820  27.640   7.144
 3814POPC   C4B48898  21.747  28.010   7.398
 3815POPC   NC348899  31.119  23.261   5.431
 3815POPC   PO448900  31.663  23.747   5.407
 3815POPC   GL148901  31.408  23.747   5.767
 3815POPC   GL248902  31.304  23.437   5.873
 3815POPC   C1A48903  31.473  23.958   6.152
 3815POPC   D2A48904  31.683  23.949   6.536
 3815POPC   C3A48905  31.451  23.730   6.820
 3815POPC   C4A48906  31.302  23.797   7.227
 3815POPC   C1B48907  31.405  23.454   6.301
 3815POPC   C2B48908  31.189  23.322   6.630
 3815POPC   C3B48909  31.218  23.330   7.064
 3815POPC   C4B48910  31.220  23.321   7.517
 3816POPC   NC348911  44.273  29.936   5.506
 3816POPC   PO448912  43.707  29.554   5.405
 3816POPC   GL148913  43.811  29.777   5.841
 3816POPC   GL248914  43.999  30.091   5.918
 3816POPC   C1A48915  43.662  29.763   6.284
 3816POPC   D2A48916  43.619  29.550   6.688
 3816POPC   C3A48917  43.528  29.802   7.032
 3816POPC   C4A48918  43.813  30.006   7.321
 3816POPC   C1B48919  44.115  29.995   6.353
 3816POPC   C2B48920  43.995  29.936   6.790
 3816POPC   C3B48921  44.278  30.034   7.134
 3816POPC   C4B48922  44.275  29.951   7.579
 3817POPC   NC348923  43.597  43.413   5.492
 3817POPC   PO448924  42.996  43.128   5.476
 3817POPC   GL148925  43.182  43.016   5.852
 3817POPC   GL248926  43.517  43.176   5.949
 3817POPC   C1A48927  43.022  42.834   6.228
 3817POPC   D2A48928  43.294  42.833   6.609
 3817POPC   C3A48929  43.034  42.875   6.946
 3817POPC   C4A48930  42.900  42.615   7.245
 3817POPC   C1B48931  43.277  43.259   6.347
 3817POPC   C2B48932  43.269  43.333   6.801
 3817POPC   C3B48933  43.266  43.236   7.252
 3817POPC   C4B48934  43.280  43.450   7.656
 3818POPC   NC348935  41.110  31.857   5.361
 3818POPC   PO448936  40.678  31.365   5.467
 3818POPC   GL148937  40.868  31.591   5.761
 3818POPC   GL248938  41.065  31.288   5.823
 3818POPC   C1A48939  40.953  31.641   6.195
 3818POPC   D2A48940  41.103  31.562   6.607
 3818POPC   C3A48941  40.942  31.661   7.013
 3818POPC   C4A48942  40.515  31.627   7.141
 3818POPC   C1B48943  40.860  31.136   6.219
 3818POPC   C2B48944  40.661  31.289   6.618
 3818POPC   C3B48945  40.743  31.170   7.054
 3818POPC   C4B48946  41.005  31.171   7.423
 3819POPC   NC348947  27.157   4.607   5.588
 3819POPC   PO448948  27.124   3.925   5.546
 3819POPC   GL148949  26.880   4.187   5.832
 3819POPC   GL248950  27.098   4.104   6.032
 3819POPC   C1A48951  26.657   4.102   6.282
 3819POPC   D2A48952  26.485   3.943   6.700
 3819POPC   C3A48953  26.514   4.223   7.035
 3819POPC   C4A48954  26.632   4.681   7.112
 3819POPC   C1B48955  27.048   4.460   6.255
 3819POPC   C2B48956  26.903   4.598   6.656
 3819POPC   C3B48957  27.019   4.351   7.010
 3819POPC   C4B48958  26.896   4.096   7.350
 3820POPC   NC348959   3.491  31.675   5.474
 3820POPC   PO448960   3.917  31.229   5.185
 3820POPC   GL148961   3.699  31.214   5.672
 3820POPC   GL248962   3.345  31.170   5.761
 3820POPC   C1A48963   3.711  31.289   6.130
 3820POPC   D2A48964   3.467  31.289   6.526
 3820POPC   C3A48965   3.697  31.550   6.811
 3820POPC   C4A48966   3.735  31.535   7.243
 3820POPC   C1B48967   3.197  31.471   6.109
 3820POPC   C2B48968   3.101  31.662   6.517
 3820POPC   C3B48969   3.202  31.486   6.935
 3820POPC   C4B48970   3.276  31.736   7.298
 3821POPC   NC348971  34.766   9.642   5.429
 3821POPC   PO448972  34.220   9.239   5.308
 3821POPC   GL148973  34.380   9.427   5.726
 3821POPC   GL248974  34.460   9.819   5.796
 3821POPC   C1A48975  34.254   9.520   6.173
 3821POPC   D2A48976  34.335   9.346   6.586
 3821POPC   C3A48977  34.716   9.445   6.808
 3821POPC   C4A48978  34.589   9.689   7.142
 3821POPC   C1B48979  34.524  10.016   6.202
 3821POPC   C2B48980  34.737   9.940   6.601
 3821POPC   C3B48981  34.668  10.161   6.973
 3821POPC   C4B48982  34.605  10.131   7.400
 3822POPC   NC348983  35.840  37.900   5.381
 3822POPC   PO448984  35.866  37.225   5.485
 3822POPC   GL148985  36.227  37.485   5.662
 3822POPC   GL248986  36.065  37.752   5.817
 3822POPC   C1A48987  36.480  37.577   6.059
 3822POPC   D2A48988  36.318  37.762   6.446
 3822POPC   C3A48989  36.435  37.667   6.893
 3822POPC   C4A48990  36.299  37.651   7.357
 3822POPC   C1B48991  35.813  37.858   6.159
 3822POPC   C2B48992  35.855  37.933   6.612
 3822POPC   C3B48993  35.892  37.789   7.066
 3822POPC   C4B48994  35.895  37.903   7.545
 3823POPC   NC348995   2.145   3.556   5.453
 3823POPC   PO448996   1.509   3.642   5.553
 3823POPC   GL148997   1.818   3.514   5.868
 3823POPC   GL248998   2.091   3.763   5.913
 3823POPC   C1A48999   1.986   3.455   6.285
 3823POPC   D2A49000   1.790   3.686   6.613
 3823POPC   C3A49001   1.971   3.716   6.993
 3823POPC   C4A49002   1.952   3.360   7.264
 3823POPC   C1B49003   2.100   4.007   6.310
 3823POPC   C2B49004   2.372   4.176   6.642
 3823POPC   C3B49005   2.356   4.071   7.100
 3823POPC   C4B49006   2.208   3.780   7.443
 3824POPC   NC349007  28.924  16.161   5.460
 3824POPC   PO449008  29.402  15.689   5.437
 3824POPC   GL149009  29.205  15.798   5.823
 3824POPC   GL249010  28.861  15.848   5.838
 3824POPC   C1A49011  29.299  15.865   6.257
 3824POPC   D2A49012  29.473  15.673   6.618
 3824POPC   C3A49013  29.326  15.767   7.013
 3824POPC   C4A49014  29.424  15.852   7.434
 3824POPC   C1B49015  28.961  16.220   6.107
 3824POPC   C2B49016  28.984  16.369   6.523
 3824POPC   C3B49017  28.760  16.269   6.894
 3824POPC   C4B49018  28.926  15.999   7.225
 3825POPC   NC349019  13.828  19.382   5.405
 3825POPC   PO449020  13.447  19.873   5.370
 3825POPC   GL149021  13.649  19.888   5.765
 3825POPC   GL249022  13.763  19.564   5.890
 3825POPC   C1A49023  13.698  19.961   6.215
 3825POPC   D2A49024  13.584  19.817   6.613
 3825POPC   C3A49025  13.445  20.125   6.879
 3825POPC   C4A49026  13.540  19.922   7.231
 3825POPC   C1B49027  13.471  19.484   6.239
 3825POPC   C2B49028  13.359  19.339   6.651
 3825POPC   C3B49029  13.487  19.455   7.067
 3825POPC   C4B49030  13.796  19.496   7.407
 3826POPC   NC349031  24.785  41.936   5.433
 3826POPC   PO449032  24.227  42.364   5.345
 3826POPC   GL149033  24.386  42.260   5.723
 3826POPC   GL249034  24.435  42.580   5.919
 3826POPC   C1A49035  24.337  42.165   6.157
 3826POPC   D2A49036  24.492  42.350   6.529
 3826POPC   C3A49037  24.408  42.021   6.815
 3826POPC   C4A49038  24.533  42.031   7.222
 3826POPC   C1B49039  24.144  42.678   6.264
 3826POPC   C2B49040  24.210  42.794   6.710
 3826POPC   C3B49041  24.316  42.480   7.056
 3826POPC   C4B49042  24.267  42.348   7.524
 3827POPC   NC349043   6.899   1.160   5.135
 3827POPC   PO449044   7.456   1.258   5.511
 3827POPC   GL149045   7.381   1.353   5.911
 3827POPC   GL249046   7.078   1.521   5.772
 3827POPC   C1A49047   7.425   1.026   6.249
 3827POPC   D2A49048   7.719   0.815   6.532
 3827POPC   C3A49049   7.536   0.867   6.941
 3827POPC   C4A49050   7.724   0.923   7.321
 3827POPC   C1B49051   6.951   1.388   6.193
 3827POPC   C2B49052   7.228   1.401   6.543
 3827POPC   C3B49053   7.415   1.365   6.936
 3827POPC   C4B49054   7.463   1.329   7.349
 3828POPC   NC349055  42.645  41.443   5.447
 3828POPC   PO449056  42.048  41.746   5.446
 3828POPC   GL149057  42.348  41.729   5.749
 3828POPC   GL249058  42.400  41.370   5.883
 3828POPC   C1A49059  42.469  41.842   6.146
 3828POPC   D2A49060  42.291  41.707   6.532
 3828POPC   C3A49061  42.484  41.779   6.930
 3828POPC   C4A49062  42.501  41.731   7.394
 3828POPC   C1B49063  42.603  41.362   6.275
 3828POPC   C2B49064  42.480  41.222   6.693
 3828POPC   C3B49065  42.510  41.320   7.119
 3828POPC   C4B49066  42.700  41.228   7.527
 3829POPC   NC349067   3.035   1.312   5.391
 3829POPC   PO449068   2.599   0.849   5.397
 3829POPC   GL149069   2.658   1.043   5.781
 3829POPC   GL249070   2.565   1.365   5.609
 3829POPC   C1A49071   2.757   0.954   6.248
 3829POPC   D2A49072   2.558   0.868   6.682
 3829POPC   C3A49073   2.633   1.006   7.113
 3829POPC   C4A49074   2.885   1.088   7.462
 3829POPC   C1B49075   2.473   1.438   6.071
 3829POPC   C2B49076   2.648   1.390   6.503
 3829POPC   C3B49077   2.477   1.446   6.904
 3829POPC   C4B49078   2.623   1.522   7.322
 3830POPC   NC349079   7.533  44.490   5.262
 3830POPC   PO449080   7.156  44.972   5.103
 3830POPC   GL149081   7.482  44.931   5.534
 3830POPC   GL249082   7.230  44.759   5.730
 3830POPC   C1A49083   7.632  44.808   6.051
 3830POPC   D2A49084   7.398  44.644   6.498
 3830POPC   C3A49085   7.487  44.527   6.989
 3830POPC   C4A49086   7.366  44.637   7.455
 3830POPC   C1B49087   7.160  44.959   6.142
 3830POPC   C2B49088   7.152   0.104   6.561
 3830POPC   C3B49089   7.280  44.999   6.978
 3830POPC   C4B49090   7.156   0.129   7.393
 3831POPC   NC349091  10.192  32.615   5.359
 3831POPC   PO449092  10.791  32.243   5.264
 3831POPC   GL149093  10.628  32.361   5.657
 3831POPC   GL249094  10.515  32.021   5.678
 3831POPC   C1A49095  10.716  32.537   6.098
 3831POPC   D2A49096  10.921  32.587   6.503
 3831POPC   C3A49097  10.636  32.414   6.797
 3831POPC   C4A49098  10.679  32.244   7.227
 3831POPC   C1B49099  10.456  31.859   6.084
 3831POPC   C2B49100  10.446  32.040   6.481
 3831POPC   C3B49101  10.641  31.883   6.841
 3831POPC   C4B49102  10.319  31.867   7.101
 3832POPC   NC349103  20.429   3.998   5.451
 3832POPC   PO449104  20.668   4.639   5.543
 3832POPC   GL149105  20.761   4.252   5.817
 3832POPC   GL249106  20.463   4.088   5.958
 3832POPC   C1A49107  20.892   4.070   6.226
 3832POPC   D2A49108  20.719   3.888   6.627
 3832POPC   C3A49109  20.472   4.167   6.935
 3832POPC   C4A49110  20.677   4.326   7.300
 3832POPC   C1B49111  20.493   4.512   6.190
 3832POPC   C2B49112  20.572   4.729   6.595
 3832POPC   C3B49113  20.488   4.716   7.048
 3832POPC   C4B49114  20.525   4.753   7.528
 3833POPC   NC349115  21.273  17.820   5.295
 3833POPC   PO449116  21.280  17.256   5.569
 3833POPC   GL149117  21.317  17.571   5.825
 3833POPC   GL249118  21.648  17.439   5.917
 3833POPC   C1A49119  21.266  17.497   6.246
 3833POPC   D2A49120  21.106  17.617   6.581
 3833POPC   C3A49121  21.357  17.499   6.905
 3833POPC   C4A49122  21.566  17.772   7.235
 3833POPC   C1B49123  21.545  17.069   6.206
 3833POPC   C2B49124  21.648  16.933   6.652
 3833POPC   C3B49125  21.824  16.951   7.053
 3833POPC   C4B49126  21.815  16.911   7.487
 3834POPC   NC349127  20.199  18.886   5.425
 3834POPC   PO449128  20.806  19.248   5.477
 3834POPC   GL149129  20.506  19.258   5.782
 3834POPC   GL249130  20.499  18.925   5.857
 3834POPC   C1A49131  20.558  19.286   6.236
 3834POPC   D2A49132  20.858  19.200   6.583
 3834POPC   C3A49133  20.749  19.341   6.999
 3834POPC   C4A49134  20.890  19.307   7.466
 3834POPC   C1B49135  20.763  18.792   6.194
 3834POPC   C2B49136  20.926  18.682   6.579
 3834POPC   C3B49137  20.707  18.727   6.917
 3834POPC   C4B49138  20.573  18.956   7.255
 3835POPC   NC349139  40.668  34.451   5.313
 3835POPC   PO449140  40.828  35.114   5.315
 3835POPC   GL149141  40.799  34.831   5.709
 3835POPC   GL249142  40.571  34.509   5.811
 3835POPC   C1A49143  40.661  34.893   6.164
 3835POPC   D2A49144  40.614  34.768   6.622
 3835POPC   C3A49145  40.972  34.723   6.894
 3835POPC   C4A49146  41.027  34.581   7.302
 3835POPC   C1B49147  40.455  34.295   6.222
 3835POPC   C2B49148  40.542  34.149   6.680
 3835POPC   C3B49149  40.567  34.434   7.044
 3835POPC   C4B49150  40.571  34.871   7.182
 3836POPC   NC349151  37.663  42.335   5.250
 3836POPC   PO449152  37.246  42.825   5.507
 3836POPC   GL149153  37.465  42.645   5.863
 3836POPC   GL249154  37.674  42.367   5.758
 3836POPC   C1A49155  37.388  42.381   6.263
 3836POPC   D2A49156  37.402  42.145   6.690
 3836POPC   C3A49157  37.625  42.418   6.974
 3836POPC   C4A49158  37.419  42.700   7.245
 3836POPC   C1B49159  37.813  42.111   6.118
 3836POPC   C2B49160  37.864  42.278   6.525
 3836POPC   C3B49161  37.961  42.028   6.876
 3836POPC   C4B49162  37.802  42.016   7.278
 3837POPC   NC349163  37.048  24.176   5.018
 3837POPC   PO449164  37.028  24.702   5.448
 3837POPC   GL149165  36.911  24.604   5.874
 3837POPC   GL249166  37.073  24.286   5.920
 3837POPC   C1A49167  36.709  24.706   6.299
 3837POPC   D2A49168  36.708  24.927   6.731
 3837POPC   C3A49169  36.686  24.639   7.118
 3837POPC   C4A49170  36.775  24.669   7.588
 3837POPC   C1B49171  37.392  24.232   6.232
 3837POPC   C2B49172  37.342  24.079   6.640
 3837POPC   C3B49173  37.293  24.211   7.036
 3837POPC   C4B49174  37.022  24.302   7.346
 3838POPC   NC349175  28.870  43.411   5.515
 3838POPC   PO449176  29.239  42.884   5.344
 3838POPC   GL149177  29.183  43.072   5.751
 3838POPC   GL249178  28.837  42.941   5.791
 3838POPC   C1A49179  29.322  43.211   6.173
 3838POPC   D2A49180  29.245  43.029   6.587
 3838POPC   C3A49181  29.449  43.167   6.961
 3838POPC   C4A49182  29.340  43.170   7.393
 3838POPC   C1B49183  29.012  42.734   6.163
 3838POPC   C2B49184  28.923  42.612   6.604
 3838POPC   C3B49185  28.873  42.788   7.032
 3838POPC   C4B49186  28.878  43.201   7.185
 3839POPC   NC349187  36.726  19.610   5.408
 3839POPC   PO449188  37.328  19.904   5.469
 3839POPC   GL149189  37.150  19.637   5.772
 3839POPC   GL249190  36.845  19.813   5.846
 3839POPC   C1A49191  37.219  19.797   6.187
 3839POPC   D2A49192  37.069  20.038   6.511
 3839POPC   C3A49193  37.163  19.839   6.888
 3839POPC   C4A49194  37.067  19.880   7.304
 3839POPC   C1B49195  36.768  19.543   6.200
 3839POPC   C2B49196  36.709  19.686   6.618
 3839POPC   C3B49197  36.641  19.894   7.003
 3839POPC   C4B49198  36.597  19.759   7.417
 3840POPC   NC349199  14.986  28.535   5.354
 3840POPC   PO449200  15.349  28.032   5.256
 3840POPC   GL149201  15.400  28.235   5.653
 3840POPC   GL249202  15.063  28.298   5.815
 3840POPC   C1A49203  15.495  28.298   6.099
 3840POPC   D2A49204  15.227  28.327   6.442
 3840POPC   C3A49205  15.374  28.326   6.826
 3840POPC   C4A49206  15.327  28.371   7.231
 3840POPC   C1B49207  14.783  28.255   6.190
 3840POPC   C2B49208  14.738  28.317   6.643
 3840POPC   C3B49209  14.892  28.196   7.049
 3840POPC   C4B49210  14.839  28.308   7.495
 3841POPC   NC349211  41.239  36.832   5.553
 3841POPC   PO449212  41.898  36.558   5.628
 3841POPC   GL149213  41.638  36.808   5.892
 3841POPC   GL249214  41.657  37.157   5.877
 3841POPC   C1A49215  41.513  36.909   6.306
 3841POPC   D2A49216  41.720  37.006   6.698
 3841POPC   C3A49217  41.472  36.820   7.024
 3841POPC   C4A49218  41.513  36.596   7.410
 3841POPC   C1B49219  41.647  37.397   6.268
 3841POPC   C2B49220  41.345  37.360   6.617
 3841POPC   C3B49221  41.341  37.313   7.042
 3841POPC   C4B49222  41.749  37.201   7.196
 3842POPC   NC349223  10.352  24.845   5.443
 3842POPC   PO449224  10.741  24.200   5.399
 3842POPC   GL149225  10.410  24.381   5.704
 3842POPC   GL249226  10.691  24.616   5.748
 3842POPC   C1A49227  10.240  24.385   6.174
 3842POPC   D2A49228  10.256  24.646   6.586
 3842POPC   C3A49229  10.284  24.436   7.006
 3842POPC   C4A49230  10.623  24.301   7.314
 3842POPC   C1B49231  10.949  24.810   6.054
 3842POPC   C2B49232  10.855  24.848   6.477
 3842POPC   C3B49233  10.808  24.652   6.882
 3842POPC   C4B49234  10.689  24.822   7.254
 3843POPC   NC349235  13.067   1.999   5.385
 3843POPC   PO449236  12.452   1.848   5.413
 3843POPC   GL149237  12.661   1.952   5.794
 3843POPC   GL249238  12.949   2.177   5.869
 3843POPC   C1A49239  12.964   1.732   6.079
 3843POPC   D2A49240  12.838   1.536   6.439
 3843POPC   C3A49241  12.974   1.666   6.839
 3843POPC   C4A49242  12.758   1.852   7.160
 3843POPC   C1B49243  13.298   2.167   6.161
 3843POPC   C2B49244  13.340   2.001   6.588
 3843POPC   C3B49245  13.120   2.210   6.950
 3843POPC   C4B49246  13.076   2.173   7.399
 3844POPC   NC349247  44.244  19.093   5.334
 3844POPC   PO449248  43.763  18.590   5.302
 3844POPC   GL149249  43.762  18.882   5.688
 3844POPC   GL249250  43.907  19.234   5.724
 3844POPC   C1A49251  43.829  18.901   6.148
 3844POPC   D2A49252  44.105  18.830   6.524
 3844POPC   C3A49253  43.960  19.075   6.891
 3844POPC   C4A49254  43.732  19.054   7.307
 3844POPC   C1B49255  44.207  19.319   6.079
 3844POPC   C2B49256  44.274  19.477   6.523
 3844POPC   C3B49257  44.437  19.346   6.926
 3844POPC   C4B49258  44.188  19.315   7.271
 3845POPC   NC349259  37.524  17.915   5.663
 3845POPC   PO449260  37.191  18.487   5.426
 3845POPC   GL149261  37.537  18.527   5.761
 3845POPC   GL249262  37.833  18.288   5.797
 3845POPC   C1A49263  37.627  18.496   6.225
 3845POPC   D2A49264  37.466  18.360   6.622
 3845POPC   C3A49265  37.533  18.449   7.052
 3845POPC   C4A49266  37.237  18.679   7.316
 3845POPC   C1B49267  37.810  18.005   6.235
 3845POPC   C2B49268  37.793  17.962   6.704
 3845POPC   C3B49269  37.853  18.023   7.161
 3845POPC   C4B49270  37.929  18.156   7.605
 3846POPC   NC349271  32.250  42.067   5.524
 3846POPC   PO449272  31.930  42.630   5.359
 3846POPC   GL149273  32.044  42.424   5.819
 3846POPC   GL249274  32.379  42.179   6.009
 3846POPC   C1A49275  31.921  42.217   6.184
 3846POPC   D2A49276  31.891  42.450   6.512
 3846POPC   C3A49277  32.174  42.457   6.840
 3846POPC   C4A49278  32.201  42.330   7.260
 3846POPC   C1B49279  32.344  42.519   6.281
 3846POPC   C2B49280  32.635  42.624   6.592
 3846POPC   C3B49281  32.734  42.779   6.964
 3846POPC   C4B49282  32.407  42.777   7.181
 3847POPC   NC349283  34.095   3.285   5.111
 3847POPC   PO449284  33.724   2.863   5.545
 3847POPC   GL149285  33.846   2.680   5.954
 3847POPC   GL249286  34.138   2.835   5.956
 3847POPC   C1A49287  34.079   2.503   6.311
 3847POPC   D2A49288  33.839   2.692   6.617
 3847POPC   C3A49289  34.046   2.820   6.959
 3847POPC   C4A49290  34.023   2.710   7.351
 3847POPC   C1B49291  33.880   3.082   6.242
 3847POPC   C2B49292  34.004   3.223   6.598
 3847POPC   C3B49293  33.809   3.288   6.938
 3847POPC   C4B49294  33.921   3.203   7.305
 3848POPC   NC349295  10.138   2.213   5.382
 3848POPC   PO449296  10.726   1.856   5.217
 3848POPC   GL149297  10.515   1.916   5.645
 3848POPC   GL249298  10.748   2.094   5.867
 3848POPC   C1A49299  10.433   1.694   6.061
 3848POPC   D2A49300  10.570   1.876   6.466
 3848POPC   C3A49301  10.477   1.775   6.897
 3848POPC   C4A49302  10.707   1.998   7.240
 3848POPC   C1B49303  10.345   2.195   6.068
 3848POPC   C2B49304  10.265   2.312   6.499
 3848POPC   C3B49305  10.413   2.294   6.918
 3848POPC   C4B49306  10.272   2.428   7.359
 3849POPC   NC349307  33.029  31.900   5.348
 3849POPC   PO449308  32.652  31.303   5.374
 3849POPC   GL149309  32.862  31.487   5.723
 3849POPC   GL249310  32.567  31.672   5.744
 3849POPC   C1A49311  33.120  31.453   6.131
 3849POPC   D2A49312  33.305  31.352   6.585
 3849POPC   C3A49313  33.148  31.510   7.012
 3849POPC   C4A49314  33.122  31.413   7.478
 3849POPC   C1B49315  32.669  31.693   6.164
 3849POPC   C2B49316  32.869  31.639   6.555
 3849POPC   C3B49317  32.637  31.590   6.913
 3849POPC   C4B49318  32.688  31.574   7.318
 3850POPC   NC349319  35.326   3.513   4.989
 3850POPC   PO449320  35.517   3.084   5.501
 3850POPC   GL149321  35.289   3.224   5.869
 3850POPC   GL249322  35.142   3.588   5.906
 3850POPC   C1A49323  35.355   3.320   6.290
 3850POPC   D2A49324  35.467   3.535   6.660
 3850POPC   C3A49325  35.289   3.332   7.014
 3850POPC   C4A49326  35.170   3.588   7.351
 3850POPC   C1B49327  35.311   3.825   6.240
 3850POPC   C2B49328  35.463   4.050   6.562
 3850POPC   C3B49329  35.639   3.947   6.925
 3850POPC   C4B49330  35.641   3.815   7.325
 3851POPC   NC349331  14.523  23.937   5.275
 3851POPC   PO449332  14.241  23.439   5.671
 3851POPC   GL149333  14.391  23.739   5.941
 3851POPC   GL249334  14.673  23.929   5.833
 3851POPC   C1A49335  14.612  23.677   6.313
 3851POPC   D2A49336  14.565  23.537   6.717
 3851POPC   C3A49337  14.261  23.772   6.965
 3851POPC   C4A49338  14.425  23.649   7.339
 3851POPC   C1B49339  14.664  24.201   6.209
 3851POPC   C2B49340  14.609  24.083   6.635
 3851POPC   C3B49341  14.734  23.921   7.028
 3851POPC   C4B49342  14.726  24.038   7.475
 3852POPC   NC349343  24.351  24.615   5.344
 3852POPC   PO449344  24.950  24.422   5.594
 3852POPC   GL149345  24.518  24.463   5.813
 3852POPC   GL249346  24.329  24.170   5.737
 3852POPC   C1A49347  24.304  24.578   6.220
 3852POPC   D2A49348  24.424  24.812   6.596
 3852POPC   C3A49349  24.688  24.674   6.954
 3852POPC   C4A49350  24.650  24.670   7.417
 3852POPC   C1B49351  24.322  24.061   6.197
 3852POPC   C2B49352  24.364  24.213   6.652
 3852POPC   C3B49353  24.544  24.213   7.099
 3852POPC   C4B49354  24.508  24.224   7.588
 3853POPC   NC349355   1.812   8.279   5.557
 3853POPC   PO449356   2.430   8.514   5.410
 3853POPC   GL149357   2.240   8.378   5.838
 3853POPC   GL249358   2.105   8.024   5.920
 3853POPC   C1A49359   2.033   8.355   6.276
 3853POPC   D2A49360   2.044   8.194   6.712
 3853POPC   C3A49361   1.905   8.490   7.047
 3853POPC   C4A49362   1.657   8.562   7.444
 3853POPC   C1B49363   1.829   7.872   6.294
 3853POPC   C2B49364   1.602   7.930   6.712
 3853POPC   C3B49365   1.702   8.041   7.115
 3853POPC   C4B49366   2.136   7.979   7.176
 3854POPC   NC349367  33.130  17.548   5.120
 3854POPC   PO449368  33.189  16.955   5.468
 3854POPC   GL149369  33.250  17.279   5.781
 3854POPC   GL249370  33.036  17.564   5.730
 3854POPC   C1A49371  33.086  17.349   6.208
 3854POPC   D2A49372  33.110  17.590   6.607
 3854POPC   C3A49373  33.137  17.330   6.964
 3854POPC   C4A49374  32.828  17.145   7.230
 3854POPC   C1B49375  32.769  17.733   6.062
 3854POPC   C2B49376  32.655  17.753   6.486
 3854POPC   C3B49377  32.633  17.443   6.825
 3854POPC   C4B49378  32.629  17.606   7.225
 3855POPC   NC349379   0.343  36.971   5.258
 3855POPC   PO449380   0.130  36.416   5.186
 3855POPC   GL149381   0.356  36.586   5.611
 3855POPC   GL249382   0.427  36.967   5.743
 3855POPC   C1A49383   0.340  36.591   6.072
 3855POPC   D2A49384   0.425  36.889   6.430
 3855POPC   C3A49385   0.271  36.888   6.841
 3855POPC   C4A49386   0.516  36.729   7.192
 3855POPC   C1B49387   0.622  37.195   6.078
 3855POPC   C2B49388   0.768  37.283   6.532
 3855POPC   C3B49389   0.701  37.151   6.966
 3855POPC   C4B49390   0.990  36.960   7.275
 3856POPC   NC349391  19.342  14.789   5.101
 3856POPC   PO449392  18.976  15.379   5.184
 3856POPC   GL149393  19.015  15.273   5.691
 3856POPC   GL249394  19.259  14.985   5.695
 3856POPC   C1A49395  19.287  15.362   6.138
 3856POPC   D2A49396  19.546  15.235   6.555
 3856POPC   C3A49397  19.367  15.285   6.983
 3856POPC   C4A49398  18.984  15.529   7.098
 3856POPC   C1B49399  19.049  14.922   6.098
 3856POPC   C2B49400  19.074  14.997   6.542
 3856POPC   C3B49401  18.958  14.957   6.977
 3856POPC   C4B49402  19.234  14.905   7.343
 3857POPC   NC349403  25.807  36.241   5.519
 3857POPC   PO449404  26.364  35.880   5.559
 3857POPC   GL149405  26.071  35.961   5.895
 3857POPC   GL249406  25.752  35.819   5.823
 3857POPC   C1A49407  25.960  36.095   6.334
 3857POPC   D2A49408  25.938  36.443   6.663
 3857POPC   C3A49409  26.259  36.399   6.968
 3857POPC   C4A49410  26.398  36.007   7.176
 3857POPC   C1B49411  25.494  35.848   6.180
 3857POPC   C2B49412  25.562  35.860   6.617
 3857POPC   C3B49413  25.906  35.932   6.899
 3857POPC   C4B49414  25.832  36.253   7.157
 3858POPC   NC349415  24.169  28.134   5.481
 3858POPC   PO449416  24.704  28.474   5.339
 3858POPC   GL149417  24.637  28.366   5.758
 3858POPC   GL249418  24.383  28.607   5.839
 3858POPC   C1A49419  24.779  28.516   6.161
 3858POPC   D2A49420  24.608  28.669   6.536
 3858POPC   C3A49421  24.616  28.465   6.904
 3858POPC   C4A49422  24.434  28.415   7.275
 3858POPC   C1B49423  24.269  28.372   6.213
 3858POPC   C2B49424  24.154  28.081   6.551
 3858POPC   C3B49425  24.114  28.131   6.975
 3858POPC   C4B49426  23.969  28.204   7.392
 3859POPC   NC349427  30.347  37.080   5.432
 3859POPC   PO449428  30.902  36.681   5.202
 3859POPC   GL149429  30.897  36.522   5.633
 3859POPC   GL249430  30.668  36.800   5.779
 3859POPC   C1A49431  30.920  36.455   6.114
 3859POPC   D2A49432  30.816  36.738   6.495
 3859POPC   C3A49433  30.589  36.599   6.879
 3859POPC   C4A49434  30.480  36.655   7.323
 3859POPC   C1B49435  30.394  36.968   6.157
 3859POPC   C2B49436  30.359  37.096   6.622
 3859POPC   C3B49437  30.563  37.109   7.051
 3859POPC   C4B49438  30.429  37.118   7.506
 3860POPC   NC349439   1.989  17.322   5.119
 3860POPC   PO449440   1.742  17.617   5.689
 3860POPC   GL149441   1.801  17.357   6.004
 3860POPC   GL249442   2.124  17.280   5.864
 3860POPC   C1A49443   1.711  17.525   6.437
 3860POPC   D2A49444   1.716  17.910   6.714
 3860POPC   C3A49445   1.852  17.720   7.091
 3860POPC   C4A49446   1.790  17.282   7.087
 3860POPC   C1B49447   2.240  17.404   6.296
 3860POPC   C2B49448   2.179  17.455   6.756
 3860POPC   C3B49449   2.279  17.348   7.192
 3860POPC   C4B49450   2.370  17.266   7.646
 3861POPC   NC349451  14.089  27.212   5.507
 3861POPC   PO449452  14.727  27.432   5.534
 3861POPC   GL149453  14.414  27.556   5.776
 3861POPC   GL249454  14.427  27.201   5.901
 3861POPC   C1A49455  14.418  27.855   6.130
 3861POPC   D2A49456  14.689  27.828   6.484
 3861POPC   C3A49457  14.528  27.859   6.900
 3861POPC   C4A49458  14.275  27.755   7.253
 3861POPC   C1B49459  14.156  27.426   6.183
 3861POPC   C2B49460  14.300  27.485   6.602
 3861POPC   C3B49461  14.433  27.328   6.995
 3861POPC   C4B49462  14.241  27.237   7.359
 3862POPC   NC349463  18.344  40.881   5.329
 3862POPC   PO449464  18.055  40.266   5.411
 3862POPC   GL149465  18.217  40.547   5.756
 3862POPC   GL249466  18.120  40.909   5.809
 3862POPC   C1A49467  18.159  40.491   6.208
 3862POPC   D2A49468  17.808  40.498   6.515
 3862POPC   C3A49469  17.948  40.744   6.879
 3862POPC   C4A49470  18.288  40.730   7.175
 3862POPC   C1B49471  18.502  40.861   6.094
 3862POPC   C2B49472  18.538  40.716   6.545
 3862POPC   C3B49473  18.699  40.915   6.930
 3862POPC   C4B49474  18.533  41.171   7.269
 3863POPC   NC349475  17.993  15.927   5.321
 3863POPC   PO449476  17.348  16.171   5.312
 3863POPC   GL149477  17.268  16.044   5.755
 3863POPC   GL249478  17.221  16.374   5.835
 3863POPC   C1A49479  17.396  15.769   6.138
 3863POPC   D2A49480  17.705  15.549   6.429
 3863POPC   C3A49481  17.763  15.738   6.840
 3863POPC   C4A49482  17.527  15.829   7.221
 3863POPC   C1B49483  17.538  16.261   6.167
 3863POPC   C2B49484  17.566  16.182   6.615
 3863POPC   C3B49485  17.754  16.250   7.014
 3863POPC   C4B49486  17.762  16.215   7.451
 3864POPC   NC349487  17.726   4.879   5.203
 3864POPC   PO449488  17.334   4.383   5.446
 3864POPC   GL149489  17.659   4.307   5.777
 3864POPC   GL249490  17.873   4.605   5.865
 3864POPC   C1A49491  17.584   4.145   6.199
 3864POPC   D2A49492  17.360   4.280   6.564
 3864POPC   C3A49493  17.507   4.103   6.947
 3864POPC   C4A49494  17.382   4.153   7.359
 3864POPC   C1B49495  17.769   4.668   6.306
 3864POPC   C2B49496  17.787   4.755   6.764
 3864POPC   C3B49497  17.507   4.600   7.109
 3864POPC   C4B49498  17.718   4.563   7.524
 3865POPC   NC349499  32.410   1.350   5.357
 3865POPC   PO449500  32.697   0.718   5.572
 3865POPC   GL149501  32.298   1.024   5.743
 3865POPC   GL249502  32.305   1.439   5.834
 3865POPC   C1A49503  32.075   1.151   6.158
 3865POPC   D2A49504  32.264   1.226   6.557
 3865POPC   C3A49505  32.283   0.951   6.884
 3865POPC   C4A49506  32.010   1.072   7.231
 3865POPC   C1B49507  32.572   1.440   6.213
 3865POPC   C2B49508  32.582   1.606   6.666
 3865POPC   C3B49509  32.373   1.468   7.043
 3865POPC   C4B49510  32.611   1.544   7.441
 3866POPC   NC349511  33.239  39.293   5.188
 3866POPC   PO449512  33.010  38.721   5.353
 3866POPC   GL149513  33.043  39.058   5.693
 3866POPC   GL249514  32.896  39.414   5.698
 3866POPC   C1A49515  32.993  39.119   6.150
 3866POPC   D2A49516  32.907  38.933   6.531
 3866POPC   C3A49517  33.115  39.183   6.845
 3866POPC   C4A49518  32.903  39.246   7.218
 3866POPC   C1B49519  33.265  39.514   5.996
 3866POPC   C2B49520  33.330  39.519   6.490
 3866POPC   C3B49521  33.304  39.672   6.956
 3866POPC   C4B49522  33.143  39.648   7.408
 3867POPC   NC349523  41.705  19.070   5.351
 3867POPC   PO449524  41.211  19.424   5.176
 3867POPC   GL149525  41.379  19.104   5.714
 3867POPC   GL249526  41.756  18.946   5.824
 3867POPC   C1A49527  41.359  18.867   6.124
 3867POPC   D2A49528  41.598  18.776   6.515
 3867POPC   C3A49529  41.490  18.888   6.960
 3867POPC   C4A49530  41.524  19.243   7.231
 3867POPC   C1B49531  41.793  19.190   6.192
 3867POPC   C2B49532  41.765  19.259   6.645
 3867POPC   C3B49533  41.974  19.139   7.018
 3867POPC   C4B49534  42.003  19.346   7.424
 3868POPC   NC349535  39.219  38.710   5.330
 3868POPC   PO449536  39.242  38.095   5.257
 3868POPC   GL149537  39.138  38.323   5.688
 3868POPC   GL249538  39.356  38.634   5.808
 3868POPC   C1A49539  39.157  38.287   6.173
 3868POPC   D2A49540  39.063  38.222   6.636
 3868POPC   C3A49541  39.379  38.420   6.930
 3868POPC   C4A49542  39.403  38.341   7.394
 3868POPC   C1B49543  38.967  38.731   6.027
 3868POPC   C2B49544  38.946  38.703   6.443
 3868POPC   C3B49545  38.992  38.759   6.842
 3868POPC   C4B49546  39.065  38.679   7.231
 3869POPC   NC349547  23.488  14.926   5.177
 3869POPC   PO449548  23.858  15.579   5.486
 3869POPC   GL149549  23.621  15.395   5.886
 3869POPC   GL249550  23.431  15.029   5.837
 3869POPC   C1A49551  23.734  15.312   6.325
 3869POPC   D2A49552  23.574  15.362   6.745
 3869POPC   C3A49553  23.874  15.331   7.095
 3869POPC   C4A49554  23.780  15.571   7.505
 3869POPC   C1B49555  23.450  14.848   6.236
 3869POPC   C2B49556  23.351  14.879   6.662
 3869POPC   C3B49557  23.551  14.923   7.065
 3869POPC   C4B49558  23.355  14.993   7.456
 3870POPC   NC349559  40.991  16.396   5.295
 3870POPC   PO449560  40.878  17.009   5.441
 3870POPC   GL149561  40.703  16.828   5.850
 3870POPC   GL249562  40.769  16.461   5.854
 3870POPC   C1A49563  40.782  16.782   6.336
 3870POPC   D2A49564  40.554  16.862   6.745
 3870POPC   C3A49565  40.737  16.855   7.174
 3870POPC   C4A49566  41.102  16.687   7.418
 3870POPC   C1B49567  40.569  16.320   6.261
 3870POPC   C2B49568  40.347  16.418   6.636
 3870POPC   C3B49569  40.421  16.441   7.059
 3870POPC   C4B49570  40.442  16.033   7.223
 3871POPC   NC349571  35.482   1.623   5.391
 3871POPC   PO449572  35.103   2.265   5.217
 3871POPC   GL149573  35.223   2.230   5.681
 3871POPC   GL249574  35.384   1.915   5.803
 3871POPC   C1A49575  35.156   2.239   6.160
 3871POPC   D2A49576  35.274   2.117   6.606
 3871POPC   C3A49577  35.208   1.949   7.028
 3871POPC   C4A49578  35.222   2.296   7.359
 3871POPC   C1B49579  35.350   1.775   6.242
 3871POPC   C2B49580  35.594   1.693   6.629
 3871POPC   C3B49581  35.623   1.533   7.043
 3871POPC   C4B49582  35.487   1.725   7.428
 3872POPC   NC349583  18.684   8.360   5.482
 3872POPC   PO449584  19.312   8.098   5.376
 3872POPC   GL149585  19.054   8.053   5.778
 3872POPC   GL249586  18.995   8.393   5.906
 3872POPC   C1A49587  18.998   7.976   6.262
 3872POPC   D2A49588  18.996   8.280   6.651
 3872POPC   C3A49589  18.977   8.340   7.134
 3872POPC   C4A49590  18.900   8.130   7.565
 3872POPC   C1B49591  19.377   8.302   6.149
 3872POPC   C2B49592  19.435   8.039   6.538
 3872POPC   C3B49593  19.447   8.236   6.943
 3872POPC   C4B49594  19.656   8.120   7.330
 3873POPC   NC349595  20.233  30.425   5.533
 3873POPC   PO449596  20.871  30.549   5.325
 3873POPC   GL149597  20.816  30.651   5.776
 3873POPC   GL249598  20.451  30.684   5.918
 3873POPC   C1A49599  20.819  30.925   6.141
 3873POPC   D2A49600  20.670  30.740   6.498
 3873POPC   C3A49601  20.929  30.698   6.822
 3873POPC   C4A49602  20.797  30.635   7.223
 3873POPC   C1B49603  20.197  30.653   6.302
 3873POPC   C2B49604  20.223  30.717   6.765
 3873POPC   C3B49605  20.266  30.604   7.199
 3873POPC   C4B49606  20.429  30.872   7.509
 3874POPC   NC349607  18.088   1.623   5.567
 3874POPC   PO449608  18.050   2.273   5.424
 3874POPC   GL149609  18.326   2.152   5.823
 3874POPC   GL249610  18.283   1.802   5.987
 3874POPC   C1A49611  18.454   2.142   6.299
 3874POPC   D2A49612  18.246   1.820   6.585
 3874POPC   C3A49613  18.345   1.923   6.998
 3874POPC   C4A49614  18.408   2.327   7.150
 3874POPC   C1B49615  17.888   1.760   6.215
 3874POPC   C2B49616  17.729   1.542   6.575
 3874POPC   C3B49617  17.850   1.704   6.958
 3874POPC   C4B49618  18.039   1.675   7.334
 3875POPC   NC349619  21.114  19.114   5.161
 3875POPC   PO449620  21.574  18.989   5.653
 3875POPC   GL149621  21.275  19.298   5.720
 3875POPC   GL249622  20.993  19.185   5.967
 3875POPC   C1A49623  21.376  19.499   6.095
 3875POPC   D2A49624  21.380  19.474   6.550
 3875POPC   C3A49625  21.250  19.337   6.909
 3875POPC   C4A49626  21.344  19.410   7.291
 3875POPC   C1B49627  21.260  19.028   6.307
 3875POPC   C2B49628  21.545  18.985   6.676
 3875POPC   C3B49629  21.478  18.898   7.112
 3875POPC   C4B49630  21.073  18.937   7.184
 3876POPC   NC349631  36.930  30.233   5.384
 3876POPC   PO449632  37.178  30.754   5.142
 3876POPC   GL149633  37.047  30.754   5.631
 3876POPC   GL249634  37.277  30.629   5.880
 3876POPC   C1A49635  36.867  30.804   6.125
 3876POPC   D2A49636  36.747  30.671   6.607
 3876POPC   C3A49637  36.955  30.759   7.046
 3876POPC   C4A49638  36.941  31.040   7.405
 3876POPC   C1B49639  37.198  30.474   6.321
 3876POPC   C2B49640  37.384  30.451   6.725
 3876POPC   C3B49641  37.288  30.354   7.131
 3876POPC   C4B49642  36.873  30.290   7.218
 3877POPC   NC349643  34.080  35.816   5.654
 3877POPC   PO449644  33.678  35.361   5.227
 3877POPC   GL149645  33.855  35.331   5.696
 3877POPC   GL249646  34.017  34.988   5.766
 3877POPC   C1A49647  33.724  35.518   6.124
 3877POPC   D2A49648  33.482  35.641   6.496
 3877POPC   C3A49649  33.654  35.584   6.917
 3877POPC   C4A49650  33.959  35.572   7.269
 3877POPC   C1B49651  33.894  35.064   6.214
 3877POPC   C2B49652  33.743  35.180   6.626
 3877POPC   C3B49653  33.859  35.111   7.071
 3877POPC   C4B49654  34.111  34.981   7.517
 3878POPC   NC349655  13.229  24.472   5.484
 3878POPC   PO449656  12.734  24.891   5.188
 3878POPC   GL149657  12.771  24.712   5.654
 3878POPC   GL249658  12.746  24.334   5.746
 3878POPC   C1A49659  12.941  24.626   6.111
 3878POPC   D2A49660  13.051  24.400   6.518
 3878POPC   C3A49661  12.780  24.399   6.864
 3878POPC   C4A49662  12.830  24.718   7.165
 3878POPC   C1B49663  12.797  24.104   6.180
 3878POPC   C2B49664  12.904  23.913   6.612
 3878POPC   C3B49665  13.162  24.032   6.985
 3878POPC   C4B49666  12.952  24.249   7.344
 3879POPC   NC349667  38.082   8.818   5.610
 3879POPC   PO449668  38.366   9.419   5.403
 3879POPC   GL149669  38.480   9.129   5.761
 3879POPC   GL249670  38.843   9.003   5.792
 3879POPC   C1A49671  38.563   9.015   6.220
 3879POPC   D2A49672  38.629   8.768   6.618
 3879POPC   C3A49673  38.407   8.845   6.989
 3879POPC   C4A49674  38.165   8.842   7.336
 3879POPC   C1B49675  38.973   8.721   6.197
 3879POPC   C2B49676  39.077   8.539   6.636
 3879POPC   C3B49677  39.297   8.675   7.034
 3879POPC   C4B49678  39.168   8.852   7.468
 3880POPC   NC349679   9.995  34.893   5.393
 3880POPC   PO449680   9.871  35.599   5.487
 3880POPC   GL149681   9.752  35.495   5.865
 3880POPC   GL249682   9.739  35.126   5.816
 3880POPC   C1A49683   9.632  35.392   6.261
 3880POPC   D2A49684   9.825  35.313   6.639
 3880POPC   C3A49685   9.586  35.491   6.950
 3880POPC   C4A49686   9.409  35.440   7.325
 3880POPC   C1B49687  10.059  34.972   6.141
 3880POPC   C2B49688  10.302  35.089   6.506
 3880POPC   C3B49689  10.177  35.018   6.901
 3880POPC   C4B49690   9.813  35.045   7.118
 3881POPC   NC349691  41.485  34.124   5.318
 3881POPC   PO449692  41.300  33.482   5.503
 3881POPC   GL149693  41.566  33.744   5.817
 3881POPC   GL249694  41.600  34.151   5.810
 3881POPC   C1A49695  41.566  33.721   6.288
 3881POPC   D2A49696  41.843  33.706   6.657
 3881POPC   C3A49697  41.651  33.820   7.091
 3881POPC   C4A49698  41.303  33.808   7.407
 3881POPC   C1B49699  41.744  34.206   6.229
 3881POPC   C2B49700  41.698  34.198   6.679
 3881POPC   C3B49701  41.861  34.299   7.075
 3881POPC   C4B49702  41.527  34.267   7.395
 3882POPC   NC349703  36.907  44.235   5.507
 3882POPC   PO449704  36.552  44.850   5.383
 3882POPC   GL149705  36.721  44.766   5.783
 3882POPC   GL249706  36.950  44.514   5.917
 3882POPC   C1A49707  36.887  44.970   6.167
 3882POPC   D2A49708  36.911  44.973   6.629
 3882POPC   C3A49709  36.677  44.653   6.885
 3882POPC   C4A49710  36.686  44.635   7.337
 3882POPC   C1B49711  36.882  44.485   6.371
 3882POPC   C2B49712  37.153  44.510   6.724
 3882POPC   C3B49713  37.119  44.457   7.145
 3882POPC   C4B49714  37.071  44.389   7.552
 3883POPC   NC349715  34.753  22.399   5.494
 3883POPC   PO449716  34.382  21.934   5.453
 3883POPC   GL149717  34.414  22.111   5.865
 3883POPC   GL249718  34.206  22.368   5.946
 3883POPC   C1A49719  34.717  22.279   6.181
 3883POPC   D2A49720  34.704  22.405   6.635
 3883POPC   C3A49721  34.567  22.081   6.912
 3883POPC   C4A49722  34.766  21.946   7.301
 3883POPC   C1B49723  34.226  22.253   6.390
 3883POPC   C2B49724  34.220  22.484   6.782
 3883POPC   C3B49725  34.324  22.396   7.233
 3883POPC   C4B49726  34.192  22.399   7.708
 3884POPC   NC349727  32.393  32.531   5.606
 3884POPC   PO449728  31.745  32.421   5.245
 3884POPC   GL149729  31.893  32.108   5.661
 3884POPC   GL249730  32.232  32.074   5.775
 3884POPC   C1A49731  31.927  32.136   6.164
 3884POPC   D2A49732  32.141  32.421   6.490
 3884POPC   C3A49733  32.015  32.480   6.906
 3884POPC   C4A49734  32.065  32.186   7.234
 3884POPC   C1B49735  32.464  32.159   6.180
 3884POPC   C2B49736  32.570  32.049   6.634
 3884POPC   C3B49737  32.546  32.054   7.120
 3884POPC   C4B49738  32.426  31.941   7.588
 3885POPC   NC349739  35.258  11.808   5.323
 3885POPC   PO449740  35.597  12.352   5.198
 3885POPC   GL149741  35.497  12.279   5.659
 3885POPC   GL249742  35.166  12.117   5.761
 3885POPC   C1A49743  35.467  12.406   6.114
 3885POPC   D2A49744  35.347  12.180   6.495
 3885POPC   C3A49745  35.588  12.210   6.880
 3885POPC   C4A49746  35.421  12.242   7.287
 3885POPC   C1B49747  35.064  11.863   6.135
 3885POPC   C2B49748  35.153  11.699   6.545
 3885POPC   C3B49749  35.256  11.847   6.928
 3885POPC   C4B49750  35.093  11.858   7.313
 3886POPC   NC349751  11.603  38.553   5.372
 3886POPC   PO449752  10.966  38.791   5.454
 3886POPC   GL149753  11.251  38.573   5.744
 3886POPC   GL249754  11.045  38.392   5.904
 3886POPC   C1A49755  11.549  38.617   6.106
 3886POPC   D2A49756  11.624  38.340   6.465
 3886POPC   C3A49757  11.555  38.571   6.845
 3886POPC   C4A49758  11.351  38.454   7.206
 3886POPC   C1B49759  11.126  38.445   6.311
 3886POPC   C2B49760  11.059  38.658   6.643
 3886POPC   C3B49761  10.911  38.497   6.973
 3886POPC   C4B49762  10.802  38.519   7.341
 3887POPC   NC349763  26.033  28.582   5.441
 3887POPC   PO449764  26.102  27.983   5.193
 3887POPC   GL149765  26.164  28.127   5.702
 3887POPC   GL249766  26.128  28.464   5.919
 3887POPC   C1A49767  26.014  28.034   6.149
 3887POPC   D2A49768  25.988  28.407   6.426
 3887POPC   C3A49769  25.671  28.464   6.753
 3887POPC   C4A49770  25.861  28.400   7.155
 3887POPC   C1B49771  26.449  28.625   6.222
 3887POPC   C2B49772  26.633  28.553   6.624
 3887POPC   C3B49773  26.412  28.460   6.997
 3887POPC   C4B49774  26.291  28.692   7.353
 3888POPC   NC349775  42.925  34.633   5.483
 3888POPC   PO449776  43.495  34.311   5.457
 3888POPC   GL149777  43.380  34.526   5.832
 3888POPC   GL249778  43.235  34.839   5.836
 3888POPC   C1A49779  43.385  34.566   6.265
 3888POPC   D2A49780  43.086  34.397   6.540
 3888POPC   C3A49781  43.283  34.513   6.913
 3888POPC   C4A49782  43.247  34.341   7.305
 3888POPC   C1B49783  42.951  34.822   6.195
 3888POPC   C2B49784  43.057  34.896   6.599
 3888POPC   C3B49785  42.833  34.957   6.953
 3888POPC   C4B49786  43.032  34.812   7.277
 3889POPC   NC349787  43.206  32.144   5.288
 3889POPC   PO449788  43.033  32.750   5.513
 3889POPC   GL149789  43.071  32.369   5.789
 3889POPC   GL249790  43.172  31.996   5.763
 3889POPC   C1A49791  42.959  32.372   6.217
 3889POPC   D2A49792  42.883  32.306   6.656
 3889POPC   C3A49793  43.266  32.404   6.842
 3889POPC   C4A49794  43.271  32.567   7.234
 3889POPC   C1B49795  43.134  31.873   6.164
 3889POPC   C2B49796  43.289  31.947   6.563
 3889POPC   C3B49797  43.284  31.802   6.965
 3889POPC   C4B49798  43.083  32.075   7.225
 3890POPC   NC349799   7.365  12.831   5.392
 3890POPC   PO449800   7.862  13.299   5.584
 3890POPC   GL149801   7.483  13.087   5.820
 3890POPC   GL249802   7.418  12.670   5.862
 3890POPC   C1A49803   7.425  12.958   6.242
 3890POPC   D2A49804   7.339  12.718   6.583
 3890POPC   C3A49805   7.562  12.956   6.868
 3890POPC   C4A49806   7.269  12.951   7.163
 3890POPC   C1B49807   7.599  12.417   6.195
 3890POPC   C2B49808   7.682  12.314   6.634
 3890POPC   C3B49809   7.594  12.483   7.034
 3890POPC   C4B49810   7.190  12.459   7.233
 3891POPC   NC349811  11.154  25.576   5.386
 3891POPC   PO449812  11.663  26.141   5.447
 3891POPC   GL149813  11.372  26.148   5.831
 3891POPC   GL249814  11.075  25.918   5.827
 3891POPC   C1A49815  11.259  26.044   6.281
 3891POPC   D2A49816  11.139  25.952   6.676
 3891POPC   C3A49817  11.465  26.097   6.942
 3891POPC   C4A49818  11.444  26.311   7.327
 3891POPC   C1B49819  10.819  26.237   6.123
 3891POPC   C2B49820  10.852  26.429   6.559
 3891POPC   C3B49821  10.942  26.307   7.010
 3891POPC   C4B49822  10.818  26.053   7.369
 3892POPC   NC349823  32.047  20.304   5.401
 3892POPC   PO449824  32.541  20.764   5.390
 3892POPC   GL149825  32.383  20.512   5.793
 3892POPC   GL249826  32.022  20.543   5.864
 3892POPC   C1A49827  32.280  20.568   6.299
 3892POPC   D2A49828  32.073  20.892   6.557
 3892POPC   C3A49829  32.043  20.884   7.018
 3892POPC   C4A49830  32.293  20.691   7.328
 3892POPC   C1B49831  31.757  20.583   6.265
 3892POPC   C2B49832  31.790  20.434   6.694
 3892POPC   C3B49833  32.138  20.362   6.970
 3892POPC   C4B49834  32.179  20.178   7.408
 3893POPC   NC349835  23.150   5.989   5.441
 3893POPC   PO449836  22.749   5.548   5.381
 3893POPC   GL149837  22.999   5.619   5.767
 3893POPC   GL249838  23.269   5.860   5.917
 3893POPC   C1A49839  22.781   5.761   6.135
 3893POPC   D2A49840  22.793   5.645   6.589
 3893POPC   C3A49841  22.826   5.838   7.007
 3893POPC   C4A49842  23.074   5.655   7.341
 3893POPC   C1B49843  23.246   5.724   6.349
 3893POPC   C2B49844  23.269   5.726   6.802
 3893POPC   C3B49845  23.323   6.032   7.121
 3893POPC   C4B49846  23.624   6.082   7.431
 3894POPC   NC349847  29.271  23.400   5.500
 3894POPC   PO449848  28.803  23.867   5.454
 3894POPC   GL149849  29.036  23.757   5.794
 3894POPC   GL249850  28.928  23.429   5.858
 3894POPC   C1A49851  29.265  23.942   6.133
 3894POPC   D2A49852  29.045  24.045   6.483
 3894POPC   C3A49853  29.238  24.003   6.861
 3894POPC   C4A49854  29.037  23.845   7.216
 3894POPC   C1B49855  28.924  23.556   6.274
 3894POPC   C2B49856  28.642  23.691   6.585
 3894POPC   C3B49857  28.626  23.588   7.013
 3894POPC   C4B49858  28.901  23.369   7.273
 3895POPC   NC349859  31.058  17.152   5.465
 3895POPC   PO449860  31.552  17.459   5.305
 3895POPC   GL149861  31.591  17.466   5.739
 3895POPC   GL249862  31.796  17.188   5.833
 3895POPC   C1A49863  31.651  17.609   6.166
 3895POPC   D2A49864  31.761  17.726   6.592
 3895POPC   C3A49865  31.444  17.705   6.887
 3895POPC   C4A49866  31.140  17.845   7.152
 3895POPC   C1B49867  31.896  17.163   6.289
 3895POPC   C2B49868  31.634  17.213   6.683
 3895POPC   C3B49869  31.537  17.253   7.118
 3895POPC   C4B49870  31.610  17.184   7.545
 3896POPC   NC349871  39.013  24.434   5.292
 3896POPC   PO449872  39.545  24.774   5.189
 3896POPC   GL149873  39.374  24.635   5.608
 3896POPC   GL249874  39.358  24.273   5.685
 3896POPC   C1A49875  39.317  24.674   6.071
 3896POPC   D2A49876  39.168  24.562   6.495
 3896POPC   C3A49877  39.424  24.653   6.865
 3896POPC   C4A49878  39.289  24.654   7.285
 3896POPC   C1B49879  39.158  24.187   6.119
 3896POPC   C2B49880  39.089  24.042   6.541
 3896POPC   C3B49881  39.130  24.211   6.959
 3896POPC   C4B49882  39.461  24.187   7.271
 3897POPC   NC349883   3.579  22.769   5.281
 3897POPC   PO449884   2.969  22.627   5.509
 3897POPC   GL149885   3.316  22.838   5.725
 3897POPC   GL249886   3.668  22.696   5.768
 3897POPC   C1A49887   3.469  23.036   6.099
 3897POPC   D2A49888   3.381  22.966   6.529
 3897POPC   C3A49889   3.581  23.118   6.888
 3897POPC   C4A49890   3.336  23.338   7.174
 3897POPC   C1B49891   3.571  22.525   6.153
 3897POPC   C2B49892   3.682  22.525   6.566
 3897POPC   C3B49893   3.478  22.603   6.946
 3897POPC   C4B49894   3.700  22.800   7.272
 3898POPC   NC349895   5.487  26.198   5.530
 3898POPC   PO449896   4.900  25.837   5.415
 3898POPC   GL149897   5.089  25.901   5.819
 3898POPC   GL249898   5.375  25.695   5.827
 3898POPC   C1A49899   5.084  26.193   6.189
 3898POPC   D2A49900   5.334  26.186   6.581
 3898POPC   C3A49901   5.036  26.016   6.864
 3898POPC   C4A49902   4.747  26.172   7.121
 3898POPC   C1B49903   5.309  25.738   6.268
 3898POPC   C2B49904   5.271  25.576   6.668
 3898POPC   C3B49905   5.431  25.757   7.030
 3898POPC   C4B49906   5.471  26.174   7.181
 3899POPC   NC349907   6.808  32.801   5.577
 3899POPC   PO449908   6.853  33.436   5.428
 3899POPC   GL149909   6.581  33.326   5.743
 3899POPC   GL249910   6.365  33.006   5.763
 3899POPC   C1A49911   6.713  33.180   6.127
 3899POPC   D2A49912   6.826  33.035   6.537
 3899POPC   C3A49913   6.812  33.293   6.902
 3899POPC   C4A49914   6.850  33.100   7.311
 3899POPC   C1B49915   6.389  32.787   6.179
 3899POPC   C2B49916   6.464  32.662   6.596
 3899POPC   C3B49917   6.553  32.850   6.963
 3899POPC   C4B49918   6.424  32.784   7.341
 3900POPC   NC349919  37.123   2.798   5.455
 3900POPC   PO449920  36.452   2.628   5.643
 3900POPC   GL149921  36.840   2.665   5.858
 3900POPC   GL249922  36.837   3.007   5.863
 3900POPC   C1A49923  37.233   2.788   6.104
 3900POPC   D2A49924  37.252   2.940   6.538
 3900POPC   C3A49925  36.970   2.703   6.792
 3900POPC   C4A49926  36.996   2.643   7.213
 3900POPC   C1B49927  36.785   2.955   6.306
 3900POPC   C2B49928  36.755   3.154   6.691
 3900POPC   C3B49929  36.641   3.016   7.108
 3900POPC   C4B49930  36.481   2.627   7.259
 3901POPC   NC349931  19.355  40.326   5.376
 3901POPC   PO449932  18.805  40.927   5.434
 3901POPC   GL149933  19.011  40.823   5.816
 3901POPC   GL249934  19.132  40.501   5.831
 3901POPC   C1A49935  19.196  40.954   6.196
 3901POPC   D2A49936  19.065  40.816   6.575
 3901POPC   C3A49937  19.232  40.906   6.972
 3901POPC   C4A49938  19.029  41.124   7.279
 3901POPC   C1B49939  18.855  40.462   6.211
 3901POPC   C2B49940  18.894  40.356   6.670
 3901POPC   C3B49941  18.944  40.460   7.123
 3901POPC   C4B49942  19.153  40.208   7.447
 3902POPC   NC349943   7.525   3.598   5.304
 3902POPC   PO449944   6.985   3.992   5.413
 3902POPC   GL149945   7.292   3.806   5.723
 3902POPC   GL249946   7.314   3.449   5.742
 3902POPC   C1A49947   7.490   3.662   6.155
 3902POPC   D2A49948   7.600   3.619   6.608
 3902POPC   C3A49949   7.422   3.864   6.972
 3902POPC   C4A49950   7.521   3.830   7.412
 3902POPC   C1B49951   7.136   3.298   6.143
 3902POPC   C2B49952   7.278   3.071   6.505
 3902POPC   C3B49953   7.551   3.153   6.840
 3902POPC   C4B49954   7.525   3.375   7.222
 3903POPC   NC349955  42.050  43.949   5.394
 3903POPC   PO449956  42.699  44.064   5.286
 3903POPC   GL149957  42.559  43.927   5.713
 3903POPC   GL249958  42.236  43.813   5.863
 3903POPC   C1A49959  42.637  43.816   6.160
 3903POPC   D2A49960  42.685  44.008   6.559
 3903POPC   C3A49961  42.532  43.800   6.912
 3903POPC   C4A49962  42.558  43.908   7.333
 3903POPC   C1B49963  42.035  43.920   6.282
 3903POPC   C2B49964  42.069  43.947   6.724
 3903POPC   C3B49965  41.953  43.814   7.133
 3903POPC   C4B49966  42.082  43.931   7.512
 3904POPC   NC349967  34.985  42.717   5.439
 3904POPC   PO449968  35.085  42.003   5.356
 3904POPC   GL149969  35.093  42.265   5.724
 3904POPC   GL249970  34.765  42.359   5.766
 3904POPC   C1A49971  35.355  42.432   6.061
 3904POPC   D2A49972  35.527  42.323   6.467
 3904POPC   C3A49973  35.474  42.554   6.858
 3904POPC   C4A49974  35.454  42.337   7.218
 3904POPC   C1B49975  34.870  42.569   6.148
 3904POPC   C2B49976  35.004  42.372   6.538
 3904POPC   C3B49977  35.102  42.151   6.894
 3904POPC   C4B49978  34.949  42.252   7.286
 3905POPC   NC349979  11.419  14.749   5.180
 3905POPC   PO449980  11.091  15.215   5.405
 3905POPC   GL149981  11.417  15.309   5.709
 3905POPC   GL249982  11.682  15.052   5.775
 3905POPC   C1A49983  11.367  15.326   6.168
 3905POPC   D2A49984  11.072  15.385   6.526
 3905POPC   C3A49985  11.190  15.514   6.959
 3905POPC   C4A49986  10.993  15.388   7.330
 3905POPC   C1B49987  11.722  14.937   6.205
 3905POPC   C2B49988  11.375  14.942   6.537
 3905POPC   C3B49989  11.218  14.998   6.964
 3905POPC   C4B49990  11.544  15.169   7.229
 3906POPC   NC349991   6.066  22.312   5.499
 3906POPC   PO449992   5.875  21.773   5.234
 3906POPC   GL149993   5.823  21.924   5.722
 3906POPC   GL249994   5.548  21.720   5.782
 3906POPC   C1A49995   5.996  22.165   6.141
 3906POPC   D2A49996   6.271  22.404   6.480
 3906POPC   C3A49997   6.095  22.424   6.903
 3906POPC   C4A49998   5.990  22.079   7.183
 3906POPC   C1B49999   5.541  21.926   6.174
 3906POPC   C2B50000   5.738  21.998   6.579
 3906POPC   C3B50001   5.673  21.744   6.944
 3906POPC   C4B50002   5.536  21.855   7.319
 3907POPC   NC350003   5.469  17.931   5.416
 3907POPC   PO450004   4.978  18.367   5.240
 3907POPC   GL150005   4.985  18.183   5.708
 3907POPC   GL250006   5.282  18.112   5.833
 3907POPC   C1A50007   5.014  18.321   6.171
 3907POPC   D2A50008   5.284  18.315   6.507
 3907POPC   C3A50009   5.063  18.288   6.842
 3907POPC   C4A50010   4.886  18.031   7.119
 3907POPC   C1B50011   5.480  17.892   6.125
 3907POPC   C2B50012   5.492  17.850   6.557
 3907POPC   C3B50013   5.503  18.053   6.937
 3907POPC   C4B50014   5.357  17.843   7.279
 3908POPC   NC350015  32.708  11.725   5.072
 3908POPC   PO450016  33.120  12.133   5.341
 3908POPC   GL150017  32.910  12.103   5.727
 3908POPC   GL250018  32.764  12.420   5.688
 3908POPC   C1A50019  33.013  12.015   6.166
 3908POPC   D2A50020  33.005  11.902   6.592
 3908POPC   C3A50021  33.275  11.892   6.960
 3908POPC   C4A50022  33.179  12.044   7.354
 3908POPC   C1B50023  32.772  12.461   6.137
 3908POPC   C2B50024  32.972  12.446   6.547
 3908POPC   C3B50025  32.808  12.520   6.966
 3908POPC   C4B50026  32.976  12.532   7.353
 3909POPC   NC350027  14.998  15.630   5.437
 3909POPC   PO450028  15.370  16.209   5.399
 3909POPC   GL150029  15.274  15.933   5.753
 3909POPC   GL250030  14.925  15.923   5.856
 3909POPC   C1A50031  15.328  15.982   6.218
 3909POPC   D2A50032  15.028  15.940   6.596
 3909POPC   C3A50033  15.172  15.973   7.047
 3909POPC   C4A50034  14.953  16.238   7.374
 3909POPC   C1B50035  14.838  15.523   6.087
 3909POPC   C2B50036  14.789  15.405   6.512
 3909POPC   C3B50037  14.984  15.493   6.886
 3909POPC   C4B50038  14.953  15.348   7.290
 3910POPC   NC350039   5.122   6.373   5.360
 3910POPC   PO450040   5.202   7.062   5.436
 3910POPC   GL150041   5.013   6.833   5.795
 3910POPC   GL250042   4.984   6.489   5.835
 3910POPC   C1A50043   5.071   6.804   6.238
 3910POPC   D2A50044   4.979   6.942   6.661
 3910POPC   C3A50045   4.996   6.595   6.956
 3910POPC   C4A50046   5.080   6.651   7.380
 3910POPC   C1B50047   4.733   6.387   6.204
 3910POPC   C2B50048   4.418   6.270   6.537
 3910POPC   C3B50049   4.480   6.071   6.955
 3910POPC   C4B50050   4.861   6.129   7.204
 3911POPC   NC350051  26.917  31.455   5.288
 3911POPC   PO450052  26.363  31.275   5.359
 3911POPC   GL150053  26.587  31.554   5.677
 3911POPC   GL250054  26.727  31.255   5.793
 3911POPC   C1A50055  26.824  31.706   6.078
 3911POPC   D2A50056  26.833  31.474   6.490
 3911POPC   C3A50057  26.729  31.624   6.909
 3911POPC   C4A50058  26.809  31.525   7.349
 3911POPC   C1B50059  27.042  31.161   6.122
 3911POPC   C2B50060  27.078  31.023   6.584
 3911POPC   C3B50061  26.857  31.115   6.994
 3911POPC   C4B50062  27.000  31.072   7.418
 3912POPC   NC350063   2.462  43.322   5.248
 3912POPC   PO450064   1.932  43.050   5.422
 3912POPC   GL150065   2.091  43.200   5.814
 3912POPC   GL250066   2.431  43.359   5.797
 3912POPC   C1A50067   1.876  43.095   6.227
 3912POPC   D2A50068   1.787  42.872   6.635
 3912POPC   C3A50069   1.839  43.073   7.046
 3912POPC   C4A50070   1.967  43.035   7.514
 3912POPC   C1B50071   2.346  43.276   6.252
 3912POPC   C2B50072   2.163  43.263   6.667
 3912POPC   C3B50073   2.317  43.327   7.097
 3912POPC   C4B50074   2.330  43.414   7.562
 3913POPC   NC350075  28.157  30.933   5.488
 3913POPC   PO450076  28.601  30.418   5.427
 3913POPC   GL150077  28.450  30.626   5.820
 3913POPC   GL250078  28.452  30.996   5.902
 3913POPC   C1A50079  28.373  30.624   6.273
 3913POPC   D2A50080  28.518  30.640   6.699
 3913POPC   C3A50081  28.194  30.538   6.986
 3913POPC   C4A50082  28.356  30.710   7.329
 3913POPC   C1B50083  28.077  31.031   6.182
 3913POPC   C2B50084  28.081  30.907   6.620
 3913POPC   C3B50085  28.171  31.065   7.031
 3913POPC   C4B50086  27.955  31.012   7.412
 3914POPC   NC350087  19.356  44.691   5.351
 3914POPC   PO450088  18.738  44.637   5.302
 3914POPC   GL150089  18.936  44.821   5.683
 3914POPC   GL250090  18.670   0.090   5.780
 3914POPC   C1A50091  19.241  44.675   6.058
 3914POPC   D2A50092  19.364  44.721   6.524
 3914POPC   C3A50093  19.176  44.477   6.864
 3914POPC   C4A50094  19.191  44.610   7.273
 3914POPC   C1B50095  18.891   0.017   6.172
 3914POPC   C2B50096  18.822  44.776   6.529
 3914POPC   C3B50097  18.890  44.912   6.921
 3914POPC   C4B50098  18.949   0.040   7.322
 3915POPC   NC350099  19.069   6.813   5.396
 3915POPC   PO450100  19.200   6.237   5.138
 3915POPC   GL150101  19.318   6.430   5.663
 3915POPC   GL250102  18.991   6.595   5.862
 3915POPC   C1A50103  19.347   6.447   6.150
 3915POPC   D2A50104  19.040   6.511   6.518
 3915POPC   C3A50105  19.213   6.624   6.910
 3915POPC   C4A50106  19.335   6.475   7.307
 3915POPC   C1B50107  18.739   6.805   6.187
 3915POPC   C2B50108  18.508   6.728   6.567
 3915POPC   C3B50109  18.694   6.598   6.969
 3915POPC   C4B50110  18.844   6.634   7.410
 3916POPC   NC350111  39.272   4.498   5.444
 3916POPC   PO450112  39.591   3.837   5.363
 3916POPC   GL150113  39.280   4.020   5.701
 3916POPC   GL250114  39.348   4.318   5.914
 3916POPC   C1A50115  39.076   3.935   6.116
 3916POPC   D2A50116  39.289   3.907   6.507
 3916POPC   C3A50117  39.130   4.107   6.839
 3916POPC   C4A50118  39.256   4.424   7.094
 3916POPC   C1B50119  39.250   4.389   6.363
 3916POPC   C2B50120  39.021   4.604   6.679
 3916POPC   C3B50121  39.230   4.903   6.949
 3916POPC   C4B50122  39.391   4.861   7.385
 3917POPC   NC350123  15.401  42.444   5.357
 3917POPC   PO450124  15.251  41.836   5.349
 3917POPC   GL150125  15.175  42.163   5.738
 3917POPC   GL250126  15.418  42.433   5.860
 3917POPC   C1A50127  15.050  42.317   6.192
 3917POPC   D2A50128  14.925  42.197   6.615
 3917POPC   C3A50129  15.066  42.486   6.905
 3917POPC   C4A50130  15.005  42.541   7.346
 3917POPC   C1B50131  15.604  42.596   6.251
 3917POPC   C2B50132  15.536  42.738   6.659
 3917POPC   C3B50133  15.676  42.481   6.985
 3917POPC   C4B50134  15.520  42.420   7.375
 3918POPC   NC350135  23.431  15.744   5.531
 3918POPC   PO450136  22.804  15.748   5.497
 3918POPC   GL150137  22.817  15.855   5.912
 3918POPC   GL250138  23.143  15.958   5.903
 3918POPC   C1A50139  22.641  16.045   6.290
 3918POPC   D2A50140  22.576  16.358   6.655
 3918POPC   C3A50141  22.498  16.100   7.024
 3918POPC   C4A50142  22.744  15.662   7.155
 3918POPC   C1B50143  23.143  15.798   6.319
 3918POPC   C2B50144  23.361  15.871   6.721
 3918POPC   C3B50145  23.205  15.925   7.160
 3918POPC   C4B50146  23.390  15.941   7.576
 3919POPC   NC350147  28.614  17.394   5.051
 3919POPC   PO450148  28.787  17.580   5.656
 3919POPC   GL150149  28.356  17.551   5.923
 3919POPC   GL250150  27.984  17.382   5.851
 3919POPC   C1A50151  28.190  17.538   6.333
 3919POPC   D2A50152  28.472  17.590   6.670
 3919POPC   C3A50153  28.286  17.587   7.060
 3919POPC   C4A50154  28.580  17.385   7.340
 3919POPC   C1B50155  27.957  17.099   6.227
 3919POPC   C2B50156  28.035  17.152   6.683
 3919POPC   C3B50157  28.126  17.108   7.130
 3919POPC   C4B50158  28.110  17.335   7.531
 3920POPC   NC350159   8.355  17.708   5.398
 3920POPC   PO450160   8.300  18.439   5.426
 3920POPC   GL150161   8.136  18.338   5.834
 3920POPC   GL250162   8.296  18.044   5.822
 3920POPC   C1A50163   7.919  18.246   6.267
 3920POPC   D2A50164   7.725  18.320   6.646
 3920POPC   C3A50165   7.840  18.137   7.007
 3920POPC   C4A50166   8.077  18.246   7.340
 3920POPC   C1B50167   8.413  18.216   6.242
 3920POPC   C2B50168   8.273  18.213   6.653
 3920POPC   C3B50169   8.488  18.181   7.043
 3920POPC   C4B50170   8.552  18.338   7.485
 3921POPC   NC350171  18.004   8.964   5.302
 3921POPC   PO450172  17.402   9.078   5.366
 3921POPC   GL150173  17.467   9.022   5.811
 3921POPC   GL250174  17.147   8.873   5.909
 3921POPC   C1A50175  17.551   9.157   6.251
 3921POPC   D2A50176  17.799   9.156   6.688
 3921POPC   C3A50177  17.838   9.494   6.967
 3921POPC   C4A50178  17.595   9.543   7.332
 3921POPC   C1B50179  17.039   9.021   6.322
 3921POPC   C2B50180  17.279   9.124   6.688
 3921POPC   C3B50181  17.465   9.103   7.062
 3921POPC   C4B50182  17.498   8.722   7.255
 3922POPC   NC350183  31.548  30.883   5.542
 3922POPC   PO450184  31.031  30.441   5.606
 3922POPC   GL150185  31.395  30.484   5.857
 3922POPC   GL250186  31.319  30.805   5.981
 3922POPC   C1A50187  31.570  30.448   6.254
 3922POPC   D2A50188  31.707  30.593   6.665
 3922POPC   C3A50189  31.386  30.747   6.954
 3922POPC   C4A50190  31.448  30.877   7.400
 3922POPC   C1B50191  31.530  30.948   6.328
 3922POPC   C2B50192  31.796  31.117   6.597
 3922POPC   C3B50193  31.733  31.114   7.028
 3922POPC   C4B50194  31.917  31.325   7.347
 3923POPC   NC350195   1.729   1.550   5.290
 3923POPC   PO450196   2.063   2.151   5.346
 3923POPC   GL150197   1.951   1.954   5.684
 3923POPC   GL250198   2.232   1.747   5.686
 3923POPC   C1A50199   1.799   2.085   6.092
 3923POPC   D2A50200   1.956   2.123   6.534
 3923POPC   C3A50201   1.685   2.324   6.868
 3923POPC   C4A50202   1.661   2.160   7.270
 3923POPC   C1B50203   2.317   1.965   6.062
 3923POPC   C2B50204   2.377   1.823   6.484
 3923POPC   C3B50205   2.222   1.903   6.899
 3923POPC   C4B50206   2.329   1.944   7.295
 3924POPC   NC350207  19.250  23.936   5.423
 3924POPC   PO450208  18.530  23.765   5.395
 3924POPC   GL150209  18.744  23.684   5.802
 3924POPC   GL250210  19.111  23.658   5.839
 3924POPC   C1A50211  18.782  23.829   6.247
 3924POPC   D2A50212  18.746  24.043   6.657
 3924POPC   C3A50213  18.630  23.765   7.010
 3924POPC   C4A50214  18.915  23.609   7.334
 3924POPC   C1B50215  19.304  23.901   6.178
 3924POPC   C2B50216  19.386  23.913   6.612
 3924POPC   C3B50217  19.353  24.027   7.050
 3924POPC   C4B50218  19.403  23.729   7.397
 3925POPC   NC350219  41.528  22.423   5.356
 3925POPC   PO450220  41.925  21.906   5.492
 3925POPC   GL150221  41.754  22.180   5.795
 3925POPC   GL250222  41.904  22.496   5.711
 3925POPC   C1A50223  41.576  22.046   6.205
 3925POPC   D2A50224  41.250  22.060   6.562
 3925POPC   C3A50225  41.422  22.168   6.968
 3925POPC   C4A50226  41.484  21.952   7.373
 3925POPC   C1B50227  41.867  22.649   6.097
 3925POPC   C2B50228  41.759  22.431   6.466
 3925POPC   C3B50229  41.882  22.432   6.859
 3925POPC   C4B50230  41.844  22.301   7.252
 3926POPC   NC350231  34.576  19.944   5.671
 3926POPC   PO450232  35.073  19.629   5.416
 3926POPC   GL150233  34.856  19.540   5.838
 3926POPC   GL250234  34.542  19.622   6.056
 3926POPC   C1A50235  34.984  19.627   6.273
 3926POPC   D2A50236  34.697  19.767   6.579
 3926POPC   C3A50237  34.830  19.739   6.989
 3926POPC   C4A50238  34.604  19.757   7.349
 3926POPC   C1B50239  34.317  19.976   6.242
 3926POPC   C2B50240  34.331  20.281   6.495
 3926POPC   C3B50241  34.221  20.044   6.819
 3926POPC   C4B50242  34.138  19.962   7.249
 3927POPC   NC350243  24.141  10.391   5.367
 3927POPC   PO450244  24.815  10.515   5.398
 3927POPC   GL150245  24.460  10.541   5.736
 3927POPC   GL250246  24.266  10.216   5.823
 3927POPC   C1A50247  24.369  10.527   6.201
 3927POPC   D2A50248  24.534  10.572   6.621
 3927POPC   C3A50249  24.328  10.397   6.972
 3927POPC   C4A50250  24.304  10.670   7.331
 3927POPC   C1B50251  24.672  10.163   6.049
 3927POPC   C2B50252  24.668  10.070   6.526
 3927POPC   C3B50253  24.771  10.114   6.981
 3927POPC   C4B50254  24.865  10.225   7.420
 3928POPC   NC350255  44.386   5.091   5.311
 3928POPC   PO450256  43.731   5.120   5.343
 3928POPC   GL150257  43.968   5.123   5.722
 3928POPC   GL250258  44.142   4.783   5.662
 3928POPC   C1A50259  43.837   5.204   6.170
 3928POPC   D2A50260  43.765   4.971   6.576
 3928POPC   C3A50261  43.583   5.222   6.903
 3928POPC   C4A50262  43.801   5.370   7.294
 3928POPC   C1B50263  44.146   4.800   6.119
 3928POPC   C2B50264  44.197   4.647   6.547
 3928POPC   C3B50265  44.131   4.803   6.967
 3928POPC   C4B50266  44.482   4.853   7.261
 3929POPC   NC350267  28.030  13.344   5.075
 3929POPC   PO450268  27.408  13.110   5.139
 3929POPC   GL150269  27.427  12.944   5.610
 3929POPC   GL250270  27.158  13.058   5.843
 3929POPC   C1A50271  27.558  12.842   6.077
 3929POPC   D2A50272  27.647  12.840   6.538
 3929POPC   C3A50273  27.423  12.615   6.861
 3929POPC   C4A50274  27.684  12.422   7.171
 3929POPC   C1B50275  27.290  13.232   6.272
 3929POPC   C2B50276  27.350  13.181   6.755
 3929POPC   C3B50277  27.419  13.047   7.182
 3929POPC   C4B50278  27.061  12.967   7.461
 3930POPC   NC350279  23.630  24.316   5.131
 3930POPC   PO450280  23.977  24.650   5.611
 3930POPC   GL150281  23.835  24.279   5.808
 3930POPC   GL250282  23.488  24.301   5.927
 3930POPC   C1A50283  23.862  24.287   6.265
 3930POPC   D2A50284  23.703  24.537   6.560
 3930POPC   C3A50285  24.030  24.606   6.821
 3930POPC   C4A50286  24.218  24.758   7.160
 3930POPC   C1B50287  23.555  24.760   6.116
 3930POPC   C2B50288  23.509  25.002   6.531
 3930POPC   C3B50289  23.616  24.864   6.963
 3930POPC   C4B50290  23.553  24.431   7.045
 3931POPC   NC350291  16.958   9.170   5.442
 3931POPC   PO450292  16.309   9.432   5.391
 3931POPC   GL150293  16.328   9.185   5.806
 3931POPC   GL250294  16.632   9.003   5.798
 3931POPC   C1A50295  16.529   9.215   6.248
 3931POPC   D2A50296  16.436   8.876   6.556
 3931POPC   C3A50297  16.580   8.941   6.961
 3931POPC   C4A50298  16.616   9.214   7.321
 3931POPC   C1B50299  16.665   8.685   6.116
 3931POPC   C2B50300  16.894   8.569   6.473
 3931POPC   C3B50301  17.116   8.652   6.853
 3931POPC   C4B50302  17.017   8.894   7.219
 3932POPC   NC350303  15.454   7.526   5.071
 3932POPC   PO450304  15.402   7.040   5.526
 3932POPC   GL150305  15.274   7.125   5.925
 3932POPC   GL250306  15.071   7.362   5.835
 3932POPC   C1A50307  15.421   7.523   6.166
 3932POPC   D2A50308  15.285   7.785   6.530
 3932POPC   C3A50309  15.141   7.511   6.869
 3932POPC   C4A50310  15.403   7.529   7.269
 3932POPC   C1B50311  14.912   7.568   6.212
 3932POPC   C2B50312  14.764   7.764   6.582
 3932POPC   C3B50313  14.628   7.654   6.987
 3932POPC   C4B50314  14.895   7.536   7.349
 3933POPC   NC350315  34.374  13.756   5.788
 3933POPC   PO450316  34.813  13.455   5.456
 3933POPC   GL150317  34.767  13.415   5.871
 3933POPC   GL250318  34.907  13.722   5.913
 3933POPC   C1A50319  34.657  13.484   6.338
 3933POPC   D2A50320  34.287  13.674   6.574
 3933POPC   C3A50321  34.197  13.517   6.987
 3933POPC   C4A50322  34.494  13.442   7.291
 3933POPC   C1B50323  34.921  14.018   6.205
 3933POPC   C2B50324  34.706  13.963   6.558
 3933POPC   C3B50325  34.671  13.810   6.961
 3933POPC   C4B50326  35.042  13.916   7.181
 3934POPC   NC350327  40.796  26.047   5.383
 3934POPC   PO450328  40.618  25.505   5.081
 3934POPC   GL150329  40.447  25.794   5.625
 3934POPC   GL250330  40.601  26.148   5.831
 3934POPC   C1A50331  40.520  25.803   6.158
 3934POPC   D2A50332  40.532  26.154   6.485
 3934POPC   C3A50333  40.651  26.046   6.924
 3934POPC   C4A50334  40.512  26.061   7.347
 3934POPC   C1B50335  40.955  26.128   6.125
 3934POPC   C2B50336  41.041  26.106   6.558
 3934POPC   C3B50337  41.083  26.315   6.943
 3934POPC   C4B50338  41.061  26.091   7.330
 3935POPC   NC350339  25.644   5.211   5.300
 3935POPC   PO450340  25.049   4.896   5.419
 3935POPC   GL150341  25.037   5.090   5.875
 3935POPC   GL250342  25.348   5.214   5.851
 3935POPC   C1A50343  25.161   5.119   6.361
 3935POPC   D2A50344  25.538   5.112   6.681
 3935POPC   C3A50345  25.387   5.008   7.090
 3935POPC   C4A50346  24.953   5.002   7.144
 3935POPC   C1B50347  25.381   5.533   6.163
 3935POPC   C2B50348  25.084   5.634   6.497
 3935POPC   C3B50349  25.276   5.560   6.879
 3935POPC   C4B50350  25.686   5.435   7.084
 3936POPC   NC350351   7.037  20.983   5.412
 3936POPC   PO450352   6.463  20.615   5.569
 3936POPC   GL150353   6.635  20.433   5.925
 3936POPC   GL250354   6.338  20.479   6.063
 3936POPC   C1A50355   6.815  20.338   6.302
 3936POPC   D2A50356   6.906  20.557   6.667
 3936POPC   C3A50357   6.587  20.613   6.969
 3936POPC   C4A50358   6.685  20.443   7.366
 3936POPC   C1B50359   6.494  20.778   6.366
 3936POPC   C2B50360   6.244  20.975   6.700
 3936POPC   C3B50361   6.229  20.976   7.136
 3936POPC   C4B50362   6.302  20.724   7.508
 3937POPC   NC350363  16.385   7.231   5.257
 3937POPC   PO450364  16.818   7.666   5.523
 3937POPC   GL150365  16.871   7.352   5.832
 3937POPC   GL250366  16.552   7.195   5.763
 3937POPC   C1A50367  16.999   7.239   6.278
 3937POPC   D2A50368  16.908   7.329   6.713
 3937POPC   C3A50369  16.982   7.202   7.140
 3937POPC   C4A50370  16.875   7.543   7.395
 3937POPC   C1B50371  16.507   7.342   6.203
 3937POPC   C2B50372  16.339   7.361   6.627
 3937POPC   C3B50373  16.488   7.411   7.045
 3937POPC   C4B50374  16.499   7.173   7.406
 3938POPC   NC350375  13.936  41.812   5.435
 3938POPC   PO450376  14.431  41.399   5.219
 3938POPC   GL150377  14.421  41.692   5.628
 3938POPC   GL250378  14.175  41.534   5.816
 3938POPC   C1A50379  14.479  41.786   6.146
 3938POPC   D2A50380  14.703  41.736   6.588
 3938POPC   C3A50381  14.495  41.809   6.955
 3938POPC   C4A50382  14.417  41.932   7.336
 3938POPC   C1B50383  14.573  41.315   5.941
 3938POPC   C2B50384  14.590  41.288   6.377
 3938POPC   C3B50385  14.495  41.310   6.823
 3938POPC   C4B50386  14.353  41.303   7.244
 3939POPC   NC350387  11.870   7.979   5.380
 3939POPC   PO450388  12.416   8.379   5.503
 3939POPC   GL150389  12.247   8.015   5.790
 3939POPC   GL250390  11.880   7.899   5.877
 3939POPC   C1A50391  12.238   8.040   6.238
 3939POPC   D2A50392  12.211   8.321   6.591
 3939POPC   C3A50393  12.158   8.073   6.957
 3939POPC   C4A50394  12.392   8.209   7.283
 3939POPC   C1B50395  11.855   8.310   6.016
 3939POPC   C2B50396  11.752   8.275   6.430
 3939POPC   C3B50397  11.724   8.342   6.849
 3939POPC   C4B50398  11.922   8.453   7.234
 3940POPC   NC350399   9.503  28.523   5.643
 3940POPC   PO450400   9.980  28.134   5.464
 3940POPC   GL150401   9.955  28.366   5.878
 3940POPC   GL250402  10.237  28.543   5.827
 3940POPC   C1A50403   9.695  28.522   6.279
 3940POPC   D2A50404   9.363  28.331   6.572
 3940POPC   C3A50405   9.351  28.450   7.020
 3940POPC   C4A50406   9.574  28.320   7.393
 3940POPC   C1B50407  10.157  28.744   6.230
 3940POPC   C2B50408  10.031  28.637   6.653
 3940POPC   C3B50409   9.920  28.483   7.051
 3940POPC   C4B50410  10.035  28.519   7.484
 3941POPC   NC350411  14.166  37.136   5.319
 3941POPC   PO450412  14.207  36.570   5.634
 3941POPC   GL150413  14.440  36.919   5.828
 3941POPC   GL250414  14.693  37.235   5.832
 3941POPC   C1A50415  14.265  36.838   6.245
 3941POPC   D2A50416  14.157  36.538   6.571
 3941POPC   C3A50417  14.276  36.753   6.939
 3941POPC   C4A50418  14.478  36.808   7.324
 3941POPC   C1B50419  14.761  36.971   6.205
 3941POPC   C2B50420  14.637  36.863   6.598
 3941POPC   C3B50421  14.732  37.049   6.961
 3941POPC   C4B50422  14.684  37.266   7.316
 3942POPC   NC350423  21.877  36.831   5.548
 3942POPC   PO450424  22.431  37.171   5.323
 3942POPC   GL150425  22.272  37.070   5.771
 3942POPC   GL250426  21.925  37.234   5.895
 3942POPC   C1A50427  22.386  37.047   6.212
 3942POPC   D2A50428  22.174  37.019   6.608
 3942POPC   C3A50429  22.333  36.996   7.002
 3942POPC   C4A50430  22.254  36.592   7.196
 3942POPC   C1B50431  21.900  36.872   6.191
 3942POPC   C2B50432  21.846  36.629   6.577
 3942POPC   C3B50433  21.854  36.804   6.963
 3942POPC   C4B50434  21.863  37.241   7.056
 3943POPC   NC350435  44.764  12.484   5.305
 3943POPC   PO450436  44.553  11.832   5.214
 3943POPC   GL150437  44.572  12.008   5.663
 3943POPC   GL250438  44.789  12.299   5.773
 3943POPC   C1A50439  44.547  12.061   6.139
 3943POPC   D2A50440  44.802  12.015   6.514
 3943POPC   C3A50441  44.553  11.819   6.827
 3943POPC   C4A50442  44.494  11.457   7.092
 3943POPC   C1B50443  44.777  12.563   6.134
 3943POPC   C2B50444  44.614  12.496   6.524
 3943POPC   C3B50445  44.700  12.323   6.942
 3943POPC   C4B50446  44.529  12.426   7.335
 3944POPC   NC350447  17.458   4.809   5.633
 3944POPC   PO450448  17.473   5.381   5.233
 3944POPC   GL150449  17.450   5.315   5.751
 3944POPC   GL250450  17.719   5.104   5.949
 3944POPC   C1A50451  17.245   5.079   6.168
 3944POPC   D2A50452  17.292   4.829   6.564
 3944POPC   C3A50453  17.413   5.069   6.925
 3944POPC   C4A50454  17.555   5.028   7.375
 3944POPC   C1B50455  17.639   5.410   6.249
 3944POPC   C2B50456  17.692   5.437   6.681
 3944POPC   C3B50457  17.900   5.217   7.004
 3944POPC   C4B50458  17.980   5.346   7.417
 3945POPC   NC350459  30.329   4.476   5.263
 3945POPC   PO450460  30.875   4.160   5.467
 3945POPC   GL150461  30.501   4.194   5.715
 3945POPC   GL250462  30.468   4.534   5.752
 3945POPC   C1A50463  30.404   4.160   6.155
 3945POPC   D2A50464  30.559   4.029   6.553
 3945POPC   C3A50465  30.493   4.229   6.925
 3945POPC   C4A50466  30.595   4.142   7.347
 3945POPC   C1B50467  30.666   4.612   6.144
 3945POPC   C2B50468  30.475   4.605   6.533
 3945POPC   C3B50469  30.594   4.738   6.914
 3945POPC   C4B50470  30.503   4.623   7.293
 3946POPC   NC350471  29.490  38.559   5.716
 3946POPC   PO450472  28.880  38.412   5.633
 3946POPC   GL150473  29.019  38.176   5.910
 3946POPC   GL250474  29.343  38.076   5.747
 3946POPC   C1A50475  29.119  38.422   6.277
 3946POPC   D2A50476  29.397  38.367   6.603
 3946POPC   C3A50477  29.128  38.259   6.949
 3946POPC   C4A50478  28.949  38.576   7.205
 3946POPC   C1B50479  29.376  37.971   6.206
 3946POPC   C2B50480  29.361  37.866   6.657
 3946POPC   C3B50481  29.594  38.066   6.989
 3946POPC   C4B50482  29.398  38.202   7.396
 3947POPC   NC350483   6.336   7.212   5.572
 3947POPC   PO450484   6.989   7.246   5.907
 3947POPC   GL150485   6.694   7.538   6.068
 3947POPC   GL250486   6.348   7.544   5.948
 3947POPC   C1A50487   6.727   7.893   6.372
 3947POPC   D2A50488   6.889   7.968   6.788
 3947POPC   C3A50489   6.737   7.556   6.955
 3947POPC   C4A50490   6.722   7.237   7.277
 3947POPC   C1B50491   6.363   7.200   6.228
 3947POPC   C2B50492   6.462   7.077   6.623
 3947POPC   C3B50493   6.291   7.146   7.016
 3947POPC   C4B50494   6.285   7.554   7.210
 3948POPC   NC350495   9.760  44.107   5.403
 3948POPC   PO450496   9.986  43.432   5.442
 3948POPC   GL150497   9.784  43.559   5.786
 3948POPC   GL250498   9.961  43.873   5.822
 3948POPC   C1A50499   9.564  43.723   6.137
 3948POPC   D2A50500   9.665  43.689   6.550
 3948POPC   C3A50501   9.729  44.065   6.771
 3948POPC   C4A50502   9.553  44.039   7.160
 3948POPC   C1B50503  10.131  43.789   6.235
 3948POPC   C2B50504  10.130  43.743   6.698
 3948POPC   C3B50505   9.915  43.657   7.057
 3948POPC   C4B50506  10.066  43.876   7.370
 3949POPC   NC350507   7.889  42.938   5.550
 3949POPC   PO450508   8.175  43.537   5.415
 3949POPC   GL150509   8.210  43.277   5.784
 3949POPC   GL250510   8.419  42.964   5.737
 3949POPC   C1A50511   7.986  43.097   6.175
 3949POPC   D2A50512   7.802  42.910   6.580
 3949POPC   C3A50513   7.937  43.011   7.025
 3949POPC   C4A50514   8.229  42.887   7.373
 3949POPC   C1B50515   8.513  43.139   6.159
 3949POPC   C2B50516   8.312  43.146   6.571
 3949POPC   C3B50517   8.484  43.017   6.947
 3949POPC   C4B50518   8.800  43.096   7.224
 3950POPC   NC350519  24.530   6.202   5.060
 3950POPC   PO450520  24.642   5.723   5.550
 3950POPC   GL150521  24.433   5.720   5.915
 3950POPC   GL250522  24.224   6.003   5.841
 3950POPC   C1A50523  24.485   5.877   6.354
 3950POPC   D2A50524  24.272   6.018   6.753
 3950POPC   C3A50525  24.328   5.684   7.067
 3950POPC   C4A50526  24.784   5.572   7.106
 3950POPC   C1B50527  24.604   6.230   5.981
 3950POPC   C2B50528  24.695   6.335   6.439
 3950POPC   C3B50529  24.832   6.070   6.781
 3950POPC   C4B50530  24.649   6.085   7.178
 3951POPC   NC350531  37.872  11.506   5.349
 3951POPC   PO450532  37.218  11.291   5.436
 3951POPC   GL150533  37.488  11.260   5.802
 3951POPC   GL250534  37.847  11.182   5.750
 3951POPC   C1A50535  37.553  11.457   6.222
 3951POPC   D2A50536  37.765  11.695   6.586
 3951POPC   C3A50537  37.549  11.519   6.940
 3951POPC   C4A50538  37.290  11.214   7.147
 3951POPC   C1B50539  38.014  11.262   6.191
 3951POPC   C2B50540  37.832  11.186   6.633
 3951POPC   C3B50541  38.033  11.287   7.055
 3951POPC   C4B50542  38.088  11.097   7.483
 3952POPC   NC350543  17.961  42.629   5.461
 3952POPC   PO450544  18.231  42.004   5.292
 3952POPC   GL150545  18.188  42.242   5.701
 3952POPC   GL250546  18.464  42.406   5.864
 3952POPC   C1A50547  17.982  42.306   6.106
 3952POPC   D2A50548  18.100  42.178   6.514
 3952POPC   C3A50549  18.282  42.424   6.835
 3952POPC   C4A50550  18.074  42.407   7.226
 3952POPC   C1B50551  18.387  42.580   6.265
 3952POPC   C2B50552  18.663  42.688   6.570
 3952POPC   C3B50553  18.631  42.882   6.925
 3952POPC   C4B50554  18.367  42.829   7.277
 3953POPC   NC350555  20.601  19.659   5.438
 3953POPC   PO450556  21.011  20.213   5.274
 3953POPC   GL150557  20.861  20.009   5.707
 3953POPC   GL250558  20.932  19.667   5.838
 3953POPC   C1A50559  20.543  19.874   6.067
 3953POPC   D2A50560  20.606  19.984   6.481
 3953POPC   C3A50561  20.439  19.816   6.865
 3953POPC   C4A50562  20.552  20.010   7.235
 3953POPC   C1B50563  20.943  19.637   6.301
 3953POPC   C2B50564  20.961  19.736   6.744
 3953POPC   C3B50565  20.980  19.760   7.202
 3953POPC   C4B50566  21.092  19.731   7.653
 3954POPC   NC350567  21.093   4.412   5.453
 3954POPC   PO450568  21.706   4.073   5.601
 3954POPC   GL150569  21.310   4.153   5.845
 3954POPC   GL250570  21.191   4.535   5.930
 3954POPC   C1A50571  21.388   4.234   6.273
 3954POPC   D2A50572  21.407   4.489   6.639
 3954POPC   C3A50573  21.426   4.174   6.948
 3954POPC   C4A50574  21.165   4.206   7.246
 3954POPC   C1B50575  20.986   4.559   6.355
 3954POPC   C2B50576  20.936   4.469   6.834
 3954POPC   C3B50577  21.012   4.700   7.229
 3954POPC   C4B50578  21.063   4.517   7.653
 3955POPC   NC350579  29.665  17.857   5.006
 3955POPC   PO450580  29.729  17.317   5.449
 3955POPC   GL150581  29.924  17.487   5.797
 3955POPC   GL250582  30.187  17.727   5.784
 3955POPC   C1A50583  29.753  17.523   6.207
 3955POPC   D2A50584  29.742  17.311   6.591
 3955POPC   C3A50585  29.772  17.556   6.943
 3955POPC   C4A50586  29.951  17.456   7.314
 3955POPC   C1B50587  30.259  17.496   6.193
 3955POPC   C2B50588  30.189  17.606   6.611
 3955POPC   C3B50589  30.333  17.618   7.025
 3955POPC   C4B50590  30.293  17.797   7.459
 3956POPC   NC350591  36.842  15.627   5.198
 3956POPC   PO450592  36.607  15.088   5.553
 3956POPC   GL150593  36.788  14.942   5.914
 3956POPC   GL250594  36.954  15.249   5.893
 3956POPC   C1A50595  37.073  14.917   6.264
 3956POPC   D2A50596  37.266  15.024   6.642
 3956POPC   C3A50597  36.992  14.782   6.908
 3956POPC   C4A50598  36.888  15.042   7.237
 3956POPC   C1B50599  36.670  15.333   6.238
 3956POPC   C2B50600  36.465  15.339   6.637
 3956POPC   C3B50601  36.667  15.441   6.985
 3956POPC   C4B50602  36.729  15.529   7.373
 3957POPC   NC350603  17.612  37.916   5.575
 3957POPC   PO450604  18.123  37.617   5.238
 3957POPC   GL150605  18.248  37.702   5.690
 3957POPC   GL250606  18.540  37.524   5.847
 3957POPC   C1A50607  18.125  37.543   6.128
 3957POPC   D2A50608  18.288  37.320   6.499
 3957POPC   C3A50609  18.197  37.514   6.904
 3957POPC   C4A50610  18.099  37.903   7.162
 3957POPC   C1B50611  18.597  37.840   6.169
 3957POPC   C2B50612  18.649  37.688   6.600
 3957POPC   C3B50613  18.723  37.493   6.972
 3957POPC   C4B50614  18.504  37.626   7.315
 3958POPC   NC350615  37.845  14.847   5.434
 3958POPC   PO450616  37.193  15.349   5.417
 3958POPC   GL150617  37.452  15.322   5.812
 3958POPC   GL250618  37.392  14.966   5.854
 3958POPC   C1A50619  37.653  15.313   6.257
 3958POPC   D2A50620  37.949  15.358   6.629
 3958POPC   C3A50621  37.704  15.403   7.009
 3958POPC   C4A50622  37.486  15.313   7.349
 3958POPC   C1B50623  37.751  14.840   6.069
 3958POPC   C2B50624  37.763  14.787   6.475
 3958POPC   C3B50625  37.723  14.907   6.884
 3958POPC   C4B50626  37.837  14.940   7.304
 3959POPC   NC350627   8.867  26.106   4.943
 3959POPC   PO450628   9.120  26.242   5.543
 3959POPC   GL150629   9.040  25.984   5.851
 3959POPC   GL250630   8.739  26.176   5.914
 3959POPC   C1A50631   8.948  25.807   6.216
 3959POPC   D2A50632   8.981  25.941   6.614
 3959POPC   C3A50633   8.795  25.665   6.893
 3959POPC   C4A50634   8.933  25.879   7.232
 3959POPC   C1B50635   9.054  26.337   6.226
 3959POPC   C2B50636   9.243  26.394   6.643
 3959POPC   C3B50637   9.212  26.273   7.085
 3959POPC   C4B50638   9.055  26.398   7.542
 3960POPC   NC350639  40.471  17.233   5.466
 3960POPC   PO450640  40.982  17.820   5.415
 3960POPC   GL150641  40.786  17.720   5.804
 3960POPC   GL250642  40.804  17.370   5.826
 3960POPC   C1A50643  40.576  17.717   6.241
 3960POPC   D2A50644  40.471  17.744   6.709
 3960POPC   C3A50645  40.854  17.706   6.989
 3960POPC   C4A50646  41.027  17.943   7.326
 3960POPC   C1B50647  40.534  17.217   6.156
 3960POPC   C2B50648  40.674  17.309   6.569
 3960POPC   C3B50649  40.528  17.310   7.010
 3960POPC   C4B50650  40.827  17.337   7.376
 3961POPC   NC350651  42.657   2.176   5.119
 3961POPC   PO450652  42.392   1.792   5.529
 3961POPC   GL150653  42.354   2.160   5.802
 3961POPC   GL250654  42.640   2.188   6.016
 3961POPC   C1A50655  42.064   2.243   6.163
 3961POPC   D2A50656  42.123   2.076   6.612
 3961POPC   C3A50657  42.110   2.134   7.063
 3961POPC   C4A50658  42.531   2.121   7.175
 3961POPC   C1B50659  42.371   1.839   6.200
 3961POPC   C2B50660  42.370   1.577   6.534
 3961POPC   C3B50661  42.259   1.629   6.960
 3961POPC   C4B50662  42.348   1.596   7.390
 3962POPC   NC350663  11.708  27.862   5.585
 3962POPC   PO450664  12.228  27.535   5.168
 3962POPC   GL150665  11.967  27.414   5.648
 3962POPC   GL250666  12.145  27.219   5.952
 3962POPC   C1A50667  11.784  27.510   6.130
 3962POPC   D2A50668  11.797  27.864   6.450
 3962POPC   C3A50669  12.097  27.827   6.808
 3962POPC   C4A50670  12.207  27.561   7.169
 3962POPC   C1B50671  11.811  27.002   6.225
 3962POPC   C2B50672  11.764  27.029   6.687
 3962POPC   C3B50673  11.893  27.135   7.114
 3962POPC   C4B50674  11.929  27.355   7.537
 3963POPC   NC350675   0.927  32.970   5.408
 3963POPC   PO450676   1.542  33.332   5.597
 3963POPC   GL150677   1.324  33.138   5.965
 3963POPC   GL250678   1.088  32.871   5.890
 3963POPC   C1A50679   1.304  32.970   6.412
 3963POPC   D2A50680   1.024  32.829   6.781
 3963POPC   C3A50681   1.056  33.099   7.137
 3963POPC   C4A50682   1.430  33.341   7.180
 3963POPC   C1B50683   0.929  32.650   6.260
 3963POPC   C2B50684   1.199  32.397   6.537
 3963POPC   C3B50685   1.375  32.514   6.930
 3963POPC   C4B50686   1.141  32.623   7.348
 3964POPC   NC350687   9.140  13.051   5.444
 3964POPC   PO450688   8.550  12.480   5.396
 3964POPC   GL150689   8.834  12.711   5.763
 3964POPC   GL250690   8.848  13.070   5.846
 3964POPC   C1A50691   9.146  12.798   6.155
 3964POPC   D2A50692   9.207  13.035   6.576
 3964POPC   C3A50693   8.962  12.918   6.963
 3964POPC   C4A50694   8.957  12.692   7.371
 3964POPC   C1B50695   8.770  13.149   6.291
 3964POPC   C2B50696   8.560  13.259   6.681
 3964POPC   C3B50697   8.487  13.065   7.077
 3964POPC   C4B50698   8.628  13.059   7.506
 3965POPC   NC350699  12.114   9.640   5.579
 3965POPC   PO450700  11.935   9.120   5.152
 3965POPC   GL150701  11.941   9.163   5.662
 3965POPC   GL250702  12.263   9.243   5.871
 3965POPC   C1A50703  11.869   9.102   6.161
 3965POPC   D2A50704  11.849   8.763   6.489
 3965POPC   C3A50705  11.878   8.859   6.903
 3965POPC   C4A50706  12.131   9.158   7.088
 3965POPC   C1B50707  12.488   9.056   6.236
 3965POPC   C2B50708  12.324   8.912   6.633
 3965POPC   C3B50709  12.341   8.643   6.979
 3965POPC   C4B50710  12.296   8.765   7.395
 3966POPC   NC350711   9.562  10.345   5.268
 3966POPC   PO450712   9.753   9.659   5.151
 3966POPC   GL150713   9.861   9.541   5.666
 3966POPC   GL250714   9.551   9.575   5.797
 3966POPC   C1A50715   9.903   9.731   6.147
 3966POPC   D2A50716  10.188   9.953   6.507
 3966POPC   C3A50717  10.138   9.944   6.998
 3966POPC   C4A50718   9.760  10.085   7.240
 3966POPC   C1B50719   9.506   9.379   6.204
 3966POPC   C2B50720   9.741   9.455   6.555
 3966POPC   C3B50721   9.705   9.661   6.924
 3966POPC   C4B50722   9.783   9.566   7.328
 3967POPC   NC350723  22.018   4.792   5.451
 3967POPC   PO450724  21.865   5.397   5.668
 3967POPC   GL150725  22.196   5.170   5.881
 3967POPC   GL250726  22.293   4.824   5.918
 3967POPC   C1A50727  22.464   5.276   6.173
 3967POPC   D2A50728  22.330   5.455   6.493
 3967POPC   C3A50729  22.466   5.291   6.834
 3967POPC   C4A50730  22.206   5.406   7.127
 3967POPC   C1B50731  21.868   4.890   6.147
 3967POPC   C2B50732  21.755   4.865   6.594
 3967POPC   C3B50733  22.003   4.946   6.971
 3967POPC   C4B50734  22.367   4.932   7.199
 3968POPC   NC350735   3.451  25.620   5.535
 3968POPC   PO450736   3.643  24.921   5.365
 3968POPC   GL150737   3.653  25.155   5.708
 3968POPC   GL250738   3.317  25.146   5.731
 3968POPC   C1A50739   3.852  25.120   6.123
 3968POPC   D2A50740   3.660  25.147   6.535
 3968POPC   C3A50741   3.887  25.012   6.922
 3968POPC   C4A50742   3.759  25.145   7.330
 3968POPC   C1B50743   3.367  25.319   6.132
 3968POPC   C2B50744   3.129  25.407   6.466
 3968POPC   C3B50745   3.203  25.381   6.884
 3968POPC   C4B50746   3.379  25.527   7.276
 3969POPC   NC350747  21.997  32.941   5.232
 3969POPC   PO450748  22.405  33.488   5.377
 3969POPC   GL150749  22.326  33.066   5.635
 3969POPC   GL250750  21.977  32.953   5.739
 3969POPC   C1A50751  22.367  32.894   6.084
 3969POPC   D2A50752  22.571  33.018   6.498
 3969POPC   C3A50753  22.309  33.015   6.885
 3969POPC   C4A50754  22.108  32.806   7.227
 3969POPC   C1B50755  22.001  33.318   5.994
 3969POPC   C2B50756  22.140  33.264   6.410
 3969POPC   C3B50757  22.097  33.473   6.798
 3969POPC   C4B50758  21.948  33.273   7.176
 3970POPC   NC350759  17.342  11.286   5.649
 3970POPC   PO450760  17.926  11.043   5.476
 3970POPC   GL150761  17.688  10.934   5.832
 3970POPC   GL250762  17.795  11.246   5.975
 3970POPC   C1A50763  17.496  10.863   6.222
 3970POPC   D2A50764  17.580  11.031   6.623
 3970POPC   C3A50765  17.250  11.244   6.834
 3970POPC   C4A50766  17.235  11.120   7.249
 3970POPC   C1B50767  18.014  11.295   6.377
 3970POPC   C2B50768  17.799  11.470   6.736
 3970POPC   C3B50769  17.660  11.367   7.116
 3970POPC   C4B50770  17.335  11.607   7.261
 3971POPC   NC350771  24.986  26.377   5.451
 3971POPC   PO450772  25.387  25.947   5.145
 3971POPC   GL150773  25.268  25.907   5.658
 3971POPC   GL250774  25.198  26.192   5.866
 3971POPC   C1A50775  25.336  25.860   6.195
 3971POPC   D2A50776  25.146  25.992   6.624
 3971POPC   C3A50777  25.217  26.083   7.082
 3971POPC   C4A50778  25.143  26.175   7.530
 3971POPC   C1B50779  25.526  26.364   6.141
 3971POPC   C2B50780  25.628  26.224   6.525
 3971POPC   C3B50781  25.573  26.409   6.918
 3971POPC   C4B50782  25.297  26.600   7.254
 3972POPC   NC350783   7.904  28.277   5.401
 3972POPC   PO450784   8.551  28.504   5.026
 3972POPC   GL150785   8.357  28.517   5.486
 3972POPC   GL250786   8.612  28.405   5.696
 3972POPC   C1A50787   8.149  28.548   5.954
 3972POPC   D2A50788   8.030  28.314   6.381
 3972POPC   C3A50789   8.256  28.427   6.786
 3972POPC   C4A50790   8.305  28.504   7.229
 3972POPC   C1B50791   8.506  28.189   6.102
 3972POPC   C2B50792   8.548  28.072   6.524
 3972POPC   C3B50793   8.310  27.916   6.863
 3972POPC   C4B50794   8.344  27.996   7.275
 3973POPC   NC350795  16.279  42.186   5.039
 3973POPC   PO450796  15.865  42.498   5.485
 3973POPC   GL150797  15.908  42.301   5.913
 3973POPC   GL250798  16.217  42.441   6.016
 3973POPC   C1A50799  15.951  42.031   6.318
 3973POPC   D2A50800  15.787  41.841   6.733
 3973POPC   C3A50801  15.900  42.038   7.149
 3973POPC   C4A50802  15.813  42.066   7.608
 3973POPC   C1B50803  16.303  42.449   6.418
 3973POPC   C2B50804  16.108  42.311   6.748
 3973POPC   C3B50805  16.178  42.511   7.094
 3973POPC   C4B50806  15.993  42.549   7.440
 3974POPC   NC350807  28.544   2.862   5.111
 3974POPC   PO450808  28.087   2.373   5.126
 3974POPC   GL150809  28.237   2.549   5.567
 3974POPC   GL250810  28.261   2.934   5.685
 3974POPC   C1A50811  28.254   2.522   6.053
 3974POPC   D2A50812  28.227   2.724   6.471
 3974POPC   C3A50813  28.506   2.693   6.822
 3974POPC   C4A50814  28.359   2.567   7.211
 3974POPC   C1B50815  28.414   3.050   6.132
 3974POPC   C2B50816  28.418   3.196   6.603
 3974POPC   C3B50817  28.364   3.132   7.061
 3974POPC   C4B50818  28.270   3.043   7.503
 3975POPC   NC350819  38.284   3.156   5.301
 3975POPC   PO450820  38.734   3.508   5.526
 3975POPC   GL150821  38.513   3.609   5.894
 3975POPC   GL250822  38.177   3.671   5.842
 3975POPC   C1A50823  38.529   3.809   6.284
 3975POPC   D2A50824  38.824   3.734   6.570
 3975POPC   C3A50825  38.682   3.793   6.956
 3975POPC   C4A50826  38.714   3.430   7.192
 3975POPC   C1B50827  38.149   3.450   6.243
 3975POPC   C2B50828  38.259   3.565   6.670
 3975POPC   C3B50829  38.220   3.514   7.085
 3975POPC   C4B50830  38.130   3.193   7.320
 3976POPC   NC350831  34.599  14.675   5.359
 3976POPC   PO450832  34.505  14.039   5.464
 3976POPC   GL150833  34.629  14.215   5.835
 3976POPC   GL250834  34.481  14.515   5.812
 3976POPC   C1A50835  34.400  14.256   6.255
 3976POPC   D2A50836  34.318  14.246   6.713
 3976POPC   C3A50837  34.747  14.320   6.928
 3976POPC   C4A50838  34.854  14.360   7.371
 3976POPC   C1B50839  34.460  14.766   6.156
 3976POPC   C2B50840  34.181  14.697   6.492
 3976POPC   C3B50841  34.285  14.793   6.895
 3976POPC   C4B50842  34.335  14.452   7.179
 3977POPC   NC350843   6.676   8.528   5.352
 3977POPC   PO450844   6.415   7.828   5.511
 3977POPC   GL150845   6.562   8.001   5.910
 3977POPC   GL250846   6.710   8.305   5.919
 3977POPC   C1A50847   6.349   8.215   6.277
 3977POPC   D2A50848   6.535   8.416   6.626
 3977POPC   C3A50849   6.448   8.339   7.048
 3977POPC   C4A50850   6.639   7.960   7.252
 3977POPC   C1B50851   6.970   8.358   6.279
 3977POPC   C2B50852   7.013   8.583   6.669
 3977POPC   C3B50853   6.923   8.474   7.092
 3977POPC   C4B50854   6.724   8.386   7.509
 3978POPC   NC350855   1.633  25.104   5.274
 3978POPC   PO450856   2.275  25.480   5.282
 3978POPC   GL150857   2.153  25.297   5.705
 3978POPC   GL250858   1.821  25.138   5.828
 3978POPC   C1A50859   2.277  25.208   6.139
 3978POPC   D2A50860   2.326  25.007   6.556
 3978POPC   C3A50861   2.271  25.157   6.961
 3978POPC   C4A50862   1.929  25.429   7.118
 3978POPC   C1B50863   1.870  24.931   6.255
 3978POPC   C2B50864   1.834  25.091   6.698
 3978POPC   C3B50865   1.577  25.001   7.094
 3978POPC   C4B50866   1.518  25.041   7.561
 3979POPC   NC350867  18.514  25.511   5.407
 3979POPC   PO450868  18.305  24.838   5.372
 3979POPC   GL150869  18.265  25.132   5.729
 3979POPC   GL250870  18.102  25.439   5.704
 3979POPC   C1A50871  18.325  25.093   6.193
 3979POPC   D2A50872  18.126  25.070   6.607
 3979POPC   C3A50873  18.325  25.110   6.965
 3979POPC   C4A50874  18.094  25.167   7.315
 3979POPC   C1B50875  18.115  25.565   6.138
 3979POPC   C2B50876  18.342  25.524   6.555
 3979POPC   C3B50877  18.203  25.598   6.995
 3979POPC   C4B50878  17.853  25.645   7.288
 3980POPC   NC350879  28.562  29.275   5.388
 3980POPC   PO450880  28.027  29.611   5.357
 3980POPC   GL150881  28.119  29.301   5.729
 3980POPC   GL250882  28.424  29.341   5.868
 3980POPC   C1A50883  28.116  29.075   6.164
 3980POPC   D2A50884  27.979  28.914   6.586
 3980POPC   C3A50885  28.163  29.049   6.982
 3980POPC   C4A50886  28.451  28.817   7.273
 3980POPC   C1B50887  28.643  29.186   6.169
 3980POPC   C2B50888  28.474  29.162   6.552
 3980POPC   C3B50889  28.678  29.140   6.906
 3980POPC   C4B50890  28.545  29.329   7.245
 3981POPC   NC350891  24.288  21.635   5.439
 3981POPC   PO450892  24.430  22.232   5.170
 3981POPC   GL150893  24.319  22.145   5.623
 3981POPC   GL250894  24.262  22.430   5.882
 3981POPC   C1A50895  24.554  21.967   5.987
 3981POPC   D2A50896  24.698  21.836   6.398
 3981POPC   C3A50897  24.388  21.810   6.724
 3981POPC   C4A50898  24.332  21.973   7.152
 3981POPC   C1B50899  24.432  22.361   6.314
 3981POPC   C2B50900  24.361  22.325   6.782
 3981POPC   C3B50901  24.598  22.416   7.152
 3981POPC   C4B50902  24.789  22.373   7.542
 3982POPC   NC350903   8.805  31.883   5.064
 3982POPC   PO450904   9.000  32.425   5.466
 3982POPC   GL150905   8.841  32.236   5.824
 3982POPC   GL250906   8.639  32.453   5.940
 3982POPC   C1A50907   8.938  32.197   6.272
 3982POPC   D2A50908   9.253  32.402   6.510
 3982POPC   C3A50909   9.275  32.360   6.941
 3982POPC   C4A50910   9.323  32.348   7.382
 3982POPC   C1B50911   8.461  32.063   6.128
 3982POPC   C2B50912   8.483  31.822   6.525
 3982POPC   C3B50913   8.656  31.711   6.936
 3982POPC   C4B50914   8.891  32.083   7.142
 3983POPC   NC350915  13.463  22.195   5.422
 3983POPC   PO450916  14.050  22.458   5.631
 3983POPC   GL150917  13.769  22.095   5.830
 3983POPC   GL250918  13.376  21.998   5.877
 3983POPC   C1A50919  13.817  21.915   6.236
 3983POPC   D2A50920  13.790  22.196   6.565
 3983POPC   C3A50921  13.950  22.280   6.953
 3983POPC   C4A50922  13.916  22.036   7.318
 3983POPC   C1B50923  13.385  22.233   6.224
 3983POPC   C2B50924  13.313  22.379   6.594
 3983POPC   C3B50925  13.432  22.191   6.946
 3983POPC   C4B50926  13.470  22.257   7.385
 3984POPC   NC350927  15.860  27.049   5.337
 3984POPC   PO450928  16.363  26.632   5.522
 3984POPC   GL150929  16.063  26.798   5.774
 3984POPC   GL250930  16.097  27.121   5.825
 3984POPC   C1A50931  15.943  26.721   6.184
 3984POPC   D2A50932  16.066  26.664   6.630
 3984POPC   C3A50933  15.859  26.631   7.025
 3984POPC   C4A50934  15.814  26.735   7.475
 3984POPC   C1B50935  15.726  27.185   6.063
 3984POPC   C2B50936  15.770  27.080   6.491
 3984POPC   C3B50937  15.866  27.125   6.920
 3984POPC   C4B50938  15.626  27.171   7.286
 3985POPC   NC350939  34.131  39.683   5.416
 3985POPC   PO450940  33.665  40.312   5.507
 3985POPC   GL150941  33.772  39.927   5.750
 3985POPC   GL250942  34.059  40.038   5.936
 3985POPC   C1A50943  33.652  39.806   6.159
 3985POPC   D2A50944  33.811  40.047   6.502
 3985POPC   C3A50945  33.749  39.944   6.946
 3985POPC   C4A50946  33.720  39.713   7.366
 3985POPC   C1B50947  33.984  40.447   6.156
 3985POPC   C2B50948  33.938  40.525   6.609
 3985POPC   C3B50949  34.191  40.295   6.917
 3985POPC   C4B50950  34.139  40.019   7.277
 3986POPC   NC350951  31.862  23.278   5.266
 3986POPC   PO450952  31.249  22.949   5.129
 3986POPC   GL150953  31.455  22.976   5.652
 3986POPC   GL250954  31.733  23.191   5.741
 3986POPC   C1A50955  31.320  22.974   6.103
 3986POPC   D2A50956  31.433  22.848   6.517
 3986POPC   C3A50957  31.168  22.861   6.871
 3986POPC   C4A50958  31.333  22.880   7.267
 3986POPC   C1B50959  31.850  23.052   6.138
 3986POPC   C2B50960  31.830  23.219   6.539
 3986POPC   C3B50961  31.670  23.086   6.911
 3986POPC   C4B50962  31.670  23.284   7.278
 3987POPC   NC350963  24.088   7.420   5.403
 3987POPC   PO450964  24.724   7.204   5.409
 3987POPC   GL150965  24.483   7.386   5.784
 3987POPC   GL250966  24.705   7.636   5.965
 3987POPC   C1A50967  24.256   7.564   6.190
 3987POPC   D2A50968  24.347   7.690   6.644
 3987POPC   C3A50969  24.071   7.516   7.018
 3987POPC   C4A50970  24.226   7.216   7.390
 3987POPC   C1B50971  24.706   7.257   6.229
 3987POPC   C2B50972  24.649   7.188   6.657
 3987POPC   C3B50973  24.574   7.430   7.022
 3987POPC   C4B50974  24.903   7.524   7.221
 3988POPC   NC350975  18.524  30.897   5.447
 3988POPC   PO450976  18.171  30.304   5.397
 3988POPC   GL150977  18.185  30.605   5.720
 3988POPC   GL250978  18.518  30.456   5.764
 3988POPC   C1A50979  18.130  30.845   6.130
 3988POPC   D2A50980  18.352  31.038   6.500
 3988POPC   C3A50981  18.172  31.068   6.930
 3988POPC   C4A50982  18.318  30.920   7.312
 3988POPC   C1B50983  18.339  30.373   6.141
 3988POPC   C2B50984  18.453  30.534   6.492
 3988POPC   C3B50985  18.311  30.574   6.879
 3988POPC   C4B50986  18.431  30.352   7.223
 3989POPC   NC350987   0.101  33.202   5.587
 3989POPC   PO450988   0.441  32.697   5.347
 3989POPC   GL150989   0.570  32.856   5.761
 3989POPC   GL250990   0.271  32.858   5.927
 3989POPC   C1A50991   0.680  33.132   6.118
 3989POPC   D2A50992   0.699  33.124   6.554
 3989POPC   C3A50993   0.407  33.116   6.896
 3989POPC   C4A50994   0.579  33.279   7.286
 3989POPC   C1B50995   0.190  33.021   6.337
 3989POPC   C2B50996   0.046  32.782   6.673
 3989POPC   C3B50997   0.166  32.701   7.094
 3989POPC   C4B50998   0.276  32.825   7.520
 3990POPC   NC350999  36.462  43.481   5.461
 3990POPC   PO451000  37.101  43.809   5.386
 3990POPC   GL151001  37.096  43.852   5.806
 3990POPC   GL251002  36.857  43.594   5.787
 3990POPC   C1A51003  36.825  44.013   6.133
 3990POPC   D2A51004  36.653  44.053   6.528
 3990POPC   C3A51005  36.810  44.153   6.902
 3990POPC   C4A51006  36.685  44.115   7.315
 3990POPC   C1B51007  36.632  43.550   6.128
 3990POPC   C2B51008  36.770  43.557   6.514
 3990POPC   C3B51009  36.967  43.678   6.855
 3990POPC   C4B51010  36.848  43.628   7.276
 3991POPC   NC351011   7.761   8.920   5.535
 3991POPC   PO451012   8.386   9.058   5.312
 3991POPC   GL151013   8.257   9.065   5.713
 3991POPC   GL251014   8.196   8.713   5.791
 3991POPC   C1A51015   8.031   9.155   6.091
 3991POPC   D2A51016   7.903   9.058   6.525
 3991POPC   C3A51017   8.056   9.140   6.943
 3991POPC   C4A51018   7.942   9.148   7.349
 3991POPC   C1B51019   8.446   8.860   6.187
 3991POPC   C2B51020   8.372   8.879   6.655
 3991POPC   C3B51021   8.373   8.730   7.102
 3991POPC   C4B51022   8.696   8.747   7.455
 3992POPC   NC351023  39.818  22.715   5.511
 3992POPC   PO451024  40.529  22.779   5.476
 3992POPC   GL151025  40.256  22.781   5.850
 3992POPC   GL251026  39.935  23.026   5.909
 3992POPC   C1A51027  40.277  22.898   6.281
 3992POPC   D2A51028  40.018  23.072   6.588
 3992POPC   C3A51029  40.143  22.935   6.989
 3992POPC   C4A51030  40.088  23.190   7.315
 3992POPC   C1B51031  39.646  23.296   6.181
 3992POPC   C2B51032  39.498  23.336   6.608
 3992POPC   C3B51033  39.702  23.257   6.985
 3992POPC   C4B51034  39.657  22.910   7.277
 3993POPC   NC351035  32.629  33.328   5.051
 3993POPC   PO451036  32.644  32.656   5.227
 3993POPC   GL151037  32.848  32.809   5.722
 3993POPC   GL251038  33.220  32.823   5.785
 3993POPC   C1A51039  32.896  33.107   6.080
 3993POPC   D2A51040  33.068  33.113   6.484
 3993POPC   C3A51041  32.912  33.252   6.830
 3993POPC   C4A51042  32.861  32.978   7.180
 3993POPC   C1B51043  33.264  32.702   6.222
 3993POPC   C2B51044  33.405  32.756   6.655
 3993POPC   C3B51045  33.268  32.674   7.052
 3993POPC   C4B51046  33.284  32.321   7.305
 3994POPC   NC351047   9.691  36.039   5.362
 3994POPC   PO451048  10.406  36.117   5.367
 3994POPC   GL151049  10.000  36.222   5.722
 3994POPC   GL251050   9.571  36.329   5.746
 3994POPC   C1A51051   9.784  36.106   6.144
 3994POPC   D2A51052   9.784  35.851   6.518
 3994POPC   C3A51053   9.695  36.003   6.939
 3994POPC   C4A51054   9.765  35.817   7.345
 3994POPC   C1B51055   9.334  36.406   6.140
 3994POPC   C2B51056   9.380  36.251   6.576
 3994POPC   C3B51057   9.309  36.355   7.007
 3994POPC   C4B51058   9.589  36.328   7.361
 3995POPC   NC351059  12.244  14.504   5.412
 3995POPC   PO451060  11.897  13.985   5.427
 3995POPC   GL151061  12.054  14.187   5.785
 3995POPC   GL251062  11.927  14.525   5.843
 3995POPC   C1A51063  12.357  14.318   6.082
 3995POPC   D2A51064  12.558  14.350   6.485
 3995POPC   C3A51065  12.441  14.300   6.927
 3995POPC   C4A51066  12.484  14.650   7.222
 3995POPC   C1B51067  11.903  14.437   6.267
 3995POPC   C2B51068  11.822  14.675   6.637
 3995POPC   C3B51069  12.018  14.655   7.005
 3995POPC   C4B51070  12.043  14.316   7.265
 3996POPC   NC351071  10.901  11.398   5.475
 3996POPC   PO451072  11.535  11.472   5.232
 3996POPC   GL151073  11.382  11.386   5.757
 3996POPC   GL251074  11.529  11.584   6.067
 3996POPC   C1A51075  11.184  11.199   6.164
 3996POPC   D2A51076  11.276  11.369   6.602
 3996POPC   C3A51077  11.073  11.196   6.958
 3996POPC   C4A51078  11.156  11.002   7.334
 3996POPC   C1B51079  11.698  11.168   6.218
 3996POPC   C2B51080  11.744  10.982   6.642
 3996POPC   C3B51081  11.579  11.148   7.057
 3996POPC   C4B51082  11.436  11.551   7.279
 3997POPC   NC351083  38.812  15.441   5.482
 3997POPC   PO451084  38.151  15.309   5.386
 3997POPC   GL151085  38.372  15.378   5.789
 3997POPC   GL251086  38.460  15.035   5.846
 3997POPC   C1A51087  38.418  15.353   6.265
 3997POPC   D2A51088  38.690  15.288   6.638
 3997POPC   C3A51089  38.505  15.501   6.971
 3997POPC   C4A51090  38.173  15.270   7.130
 3997POPC   C1B51091  38.681  14.908   6.246
 3997POPC   C2B51092  38.778  14.782   6.693
 3997POPC   C3B51093  38.645  14.997   7.091
 3997POPC   C4B51094  38.662  14.839   7.552
 3998POPC   NC351095  14.287  16.973   5.610
 3998POPC   PO451096  13.989  16.459   5.359
 3998POPC   GL151097  14.208  16.426   5.798
 3998POPC   GL251098  14.551  16.543   5.885
 3998POPC   C1A51099  14.162  16.585   6.257
 3998POPC   D2A51100  14.227  16.893   6.624
 3998POPC   C3A51101  14.293  16.684   7.039
 3998POPC   C4A51102  14.526  16.281   7.084
 3998POPC   C1B51103  14.640  16.786   6.277
 3998POPC   C2B51104  14.711  16.643   6.688
 3998POPC   C3B51105  14.800  16.805   7.056
 3998POPC   C4B51106  14.596  17.017   7.342
 3999POPC   NC351107  23.978  36.031   5.133
 3999POPC   PO451108  23.602  36.378   5.565
 3999POPC   GL151109  23.638  36.091   5.863
 3999POPC   GL251110  23.633  35.771   5.670
 3999POPC   C1A51111  23.767  36.234   6.273
 3999POPC   D2A51112  23.548  36.411   6.619
 3999POPC   C3A51113  23.698  36.201   6.983
 3999POPC   C4A51114  23.625  36.196   7.404
 3999POPC   C1B51115  23.768  35.671   6.100
 3999POPC   C2B51116  23.689  35.790   6.494
 3999POPC   C3B51117  23.689  35.682   6.874
 3999POPC   C4B51118  23.666  35.714   7.259
 4000POPC   NC351119  23.479  12.007   5.528
 4000POPC   PO451120  22.833  12.358   5.269
 4000POPC   GL151121  22.650  12.408   5.666
 4000POPC   GL251122  22.838  12.103   5.753
 4000POPC   C1A51123  22.693  12.451   6.108
 4000POPC   D2A51124  22.992  12.448   6.445
 4000POPC   C3A51125  23.014  12.277   6.875
 4000POPC   C4A51126  23.130  12.033   7.252
 4000POPC   C1B51127  22.609  11.916   6.095
 4000POPC   C2B51128  22.624  12.068   6.500
 4000POPC   C3B51129  22.645  11.907   6.899
 4000POPC   C4B51130  22.565  12.023   7.286
 4001POPC   NC351131  43.934   0.392   5.168
 4001POPC   PO451132  44.021  44.745   5.365
 4001POPC   GL151133  44.119  44.743   5.779
 4001POPC   GL251134  43.776  44.864   5.840
 4001POPC   C1A51135  44.125  44.891   6.206
 4001POPC   D2A51136  43.862  44.836   6.564
 4001POPC   C3A51137  44.091  44.830   6.940
 4001POPC   C4A51138  44.104  44.752   7.336
 4001POPC   C1B51139  43.757  44.522   6.155
 4001POPC   C2B51140  43.648  44.323   6.528
 4001POPC   C3B51141  43.703  44.493   6.921
 4001POPC   C4B51142  43.736  44.342   7.319
 4002POPC   NC351143  34.368  38.191   5.368
 4002POPC   PO451144  34.852  38.628   5.018
 4002POPC   GL151145  34.750  38.524   5.534
 4002POPC   GL251146  34.404  38.569   5.740
 4002POPC   C1A51147  34.744  38.321   6.001
 4002POPC   D2A51148  34.722  38.230   6.481
 4002POPC   C3A51149  34.698  38.371   6.926
 4002POPC   C4A51150  34.466  38.259   7.269
 4002POPC   C1B51151  34.411  38.677   6.197
 4002POPC   C2B51152  34.481  38.723   6.659
 4002POPC   C3B51153  34.455  38.765   7.165
 4002POPC   C4B51154  34.452  38.586   7.668
 4003POPC   NC351155   0.153  15.325   5.358
 4003POPC   PO451156   0.871  15.332   5.373
 4003POPC   GL151157   0.543  15.302   5.736
 4003POPC   GL251158   0.443  14.938   5.824
 4003POPC   C1A51159   0.435  15.271   6.215
 4003POPC   D2A51160   0.432  15.086   6.651
 4003POPC   C3A51161   0.458  15.258   7.092
 4003POPC   C4A51162   0.743  15.476   7.407
 4003POPC   C1B51163   0.157  14.773   6.142
 4003POPC   C2B51164  44.971  14.893   6.550
 4003POPC   C3B51165   0.035  14.976   6.998
 4003POPC   C4B51166   0.260  14.805   7.342
 4004POPC   NC351167  32.889  20.952   5.621
 4004POPC   PO451168  33.071  21.609   5.464
 4004POPC   GL151169  33.107  21.370   5.829
 4004POPC   GL251170  32.733  21.365   5.885
 4004POPC   C1A51171  33.072  21.229   6.265
 4004POPC   D2A51172  32.884  21.366   6.641
 4004POPC   C3A51173  33.005  21.218   7.043
 4004POPC   C4A51174  33.301  21.383   7.303
 4004POPC   C1B51175  32.504  21.462   6.272
 4004POPC   C2B51176  32.514  21.731   6.623
 4004POPC   C3B51177  32.733  21.737   6.986
 4004POPC   C4B51178  32.746  21.628   7.392
 4005POPC   NC351179  15.113  37.432   5.436
 4005POPC   PO451180  15.540  37.982   5.451
 4005POPC   GL151181  15.382  37.703   5.809
 4005POPC   GL251182  15.042  37.665   5.896
 4005POPC   C1A51183  15.479  37.650   6.230
 4005POPC   D2A51184  15.266  37.754   6.589
 4005POPC   C3A51185  15.460  37.655   6.966
 4005POPC   C4A51186  15.290  37.575   7.311
 4005POPC   C1B51187  15.002  37.416   6.226
 4005POPC   C2B51188  14.775  37.385   6.570
 4005POPC   C3B51189  14.942  37.518   6.946
 4005POPC   C4B51190  14.825  37.736   7.325
 4006POPC   NC351191  24.059  12.539   5.556
 4006POPC   PO451192  23.939  11.858   5.356
 4006POPC   GL151193  23.898  12.093   5.770
 4006POPC   GL251194  23.880  11.718   5.840
 4006POPC   C1A51195  23.746  12.331   6.180
 4006POPC   D2A51196  23.449  12.197   6.552
 4006POPC   C3A51197  23.565  12.285   6.997
 4006POPC   C4A51198  23.834  12.236   7.392
 4006POPC   C1B51199  23.642  11.817   6.179
 4006POPC   C2B51200  23.645  11.686   6.575
 4006POPC   C3B51201  23.456  11.792   6.914
 4006POPC   C4B51202  23.666  11.791   7.246
 4007POPC   NC351203  33.422  19.319   5.390
 4007POPC   PO451204  33.885  18.811   5.205
 4007POPC   GL151205  33.844  18.813   5.710
 4007POPC   GL251206  33.931  19.149   5.647
 4007POPC   C1A51207  33.927  18.683   6.164
 4007POPC   D2A51208  34.060  18.917   6.554
 4007POPC   C3A51209  34.014  18.797   6.977
 4007POPC   C4A51210  33.853  19.048   7.306
 4007POPC   C1B51211  33.855  19.171   6.122
 4007POPC   C2B51212  33.783  19.373   6.498
 4007POPC   C3B51213  33.899  19.328   6.887
 4007POPC   C4B51214  33.844  19.569   7.236
 4008POPC   NC351215  26.868   5.179   5.404
 4008POPC   PO451216  26.585   4.541   5.461
 4008POPC   GL151217  26.769   4.827   5.853
 4008POPC   GL251218  26.779   5.235   5.903
 4008POPC   C1A51219  27.033   4.960   6.246
 4008POPC   D2A51220  26.990   5.243   6.577
 4008POPC   C3A51221  26.948   5.086   6.973
 4008POPC   C4A51222  27.121   4.803   7.251
 4008POPC   C1B51223  26.555   5.154   6.312
 4008POPC   C2B51224  26.486   5.208   6.783
 4008POPC   C3B51225  26.501   5.181   7.232
 4008POPC   C4B51226  26.445   5.231   7.707
 4009POPC   NC351227  10.590  37.410   5.568
 4009POPC   PO451228  10.546  36.878   5.182
 4009POPC   GL151229  10.609  36.915   5.684
 4009POPC   GL251230  10.938  37.112   5.797
 4009POPC   C1A51231  10.328  36.977   6.094
 4009POPC   D2A51232  10.087  36.893   6.509
 4009POPC   C3A51233  10.391  36.770   6.856
 4009POPC   C4A51234  10.451  36.683   7.303
 4009POPC   C1B51235  10.866  37.144   6.254
 4009POPC   C2B51236  10.698  37.216   6.677
 4009POPC   C3B51237  10.783  37.069   7.101
 4009POPC   C4B51238  10.814  37.011   7.555
 4010POPC   NC351239  44.973  44.033   5.358
 4010POPC   PO451240  44.525  43.571   5.243
 4010POPC   GL151241  44.585  43.790   5.627
 4010POPC   GL251242  44.559  43.626   5.902
 4010POPC   C1A51243  44.733  44.100   5.988
 4010POPC   D2A51244  44.791  44.286   6.404
 4010POPC   C3A51245  44.615  44.181   6.787
 4010POPC   C4A51246  44.689  44.137   7.221
 4010POPC   C1B51247  44.422  43.771   6.249
 4010POPC   C2B51248  44.567  43.704   6.628
 4010POPC   C3B51249  44.450  43.731   7.038
 4010POPC   C4B51250  44.768  43.645   7.346
 4011POPC   NC351251   8.417  19.973   5.252
 4011POPC   PO451252   7.953  20.222   5.620
 4011POPC   GL151253   7.926  19.949   5.978
 4011POPC   GL251254   7.903  19.575   5.950
 4011POPC   C1A51255   8.068  20.057   6.387
 4011POPC   D2A51256   8.368  19.843   6.638
 4011POPC   C3A51257   8.262  19.965   7.034
 4011POPC   C4A51258   8.537  20.188   7.258
 4011POPC   C1B51259   8.055  19.555   6.344
 4011POPC   C2B51260   7.913  19.655   6.760
 4011POPC   C3B51261   8.074  19.509   7.148
 4011POPC   C4B51262   7.969  19.508   7.604
 4012POPC   NC351263  44.519  44.923   5.405
 4012POPC   PO451264  44.547  44.220   5.367
 4012POPC   GL151265  44.596  44.517   5.726
 4012POPC   GL251266  44.881  44.767   5.744
 4012POPC   C1A51267  44.580  44.688   6.156
 4012POPC   D2A51268  44.440  44.730   6.595
 4012POPC   C3A51269  44.639  44.626   7.030
 4012POPC   C4A51270  44.563  44.541   7.494
 4012POPC   C1B51271   0.076  44.667   6.164
 4012POPC   C2B51272  44.935  44.748   6.595
 4012POPC   C3B51273   0.064  44.927   6.962
 4012POPC   C4B51274   0.029  44.893   7.370
 4013POPC   NC351275   1.051   9.566   5.131
 4013POPC   PO451276   1.411  10.118   5.169
 4013POPC   GL151277   1.190   9.957   5.569
 4013POPC   GL251278   1.027   9.608   5.661
 4013POPC   C1A51279   1.274   9.881   6.028
 4013POPC   D2A51280   1.135   9.920   6.466
 4013POPC   C3A51281   1.256   9.836   6.917
 4013POPC   C4A51282   1.405   9.951   7.350
 4013POPC   C1B51283   0.835   9.598   6.119
 4013POPC   C2B51284   0.692   9.699   6.559
 4013POPC   C3B51285   0.830   9.507   6.953
 4013POPC   C4B51286   0.957   9.716   7.321
 4014POPC   NC351287  41.258   4.416   5.334
 4014POPC   PO451288  41.848   4.127   5.466
 4014POPC   GL151289  41.649   4.456   5.732
 4014POPC   GL251290  41.306   4.487   5.828
 4014POPC   C1A51291  41.683   4.599   6.159
 4014POPC   D2A51292  41.767   4.243   6.434
 4014POPC   C3A51293  41.735   4.332   6.830
 4014POPC   C4A51294  41.713   4.698   7.055
 4014POPC   C1B51295  41.276   4.326   6.254
 4014POPC   C2B51296  41.322   4.561   6.635
 4014POPC   C3B51297  41.295   4.418   7.035
 4014POPC   C4B51298  41.396   3.961   7.031
 4015POPC   NC351299  12.472  34.899   5.320
 4015POPC   PO451300  12.958  34.405   5.571
 4015POPC   GL151301  12.958  34.677   5.932
 4015POPC   GL251302  12.698  34.832   5.757
 4015POPC   C1A51303  13.174  34.652   6.315
 4015POPC   D2A51304  13.166  34.602   6.741
 4015POPC   C3A51305  12.814  34.401   6.915
 4015POPC   C4A51306  12.901  34.303   7.310
 4015POPC   C1B51307  12.524  34.857   6.144
 4015POPC   C2B51308  12.695  34.782   6.523
 4015POPC   C3B51309  12.591  34.860   6.895
 4015POPC   C4B51310  12.746  34.770   7.309
 4016POPC   NC351311  28.889  31.613   5.448
 4016POPC   PO451312  29.552  31.694   5.449
 4016POPC   GL151313  29.276  31.689   5.813
 4016POPC   GL251314  29.178  31.322   5.777
 4016POPC   C1A51315  29.370  31.665   6.283
 4016POPC   D2A51316  29.407  31.381   6.645
 4016POPC   C3A51317  29.543  31.504   7.038
 4016POPC   C4A51318  29.414  31.301   7.416
 4016POPC   C1B51319  28.996  31.347   6.166
 4016POPC   C2B51320  28.925  31.552   6.579
 4016POPC   C3B51321  29.044  31.474   7.016
 4016POPC   C4B51322  28.921  31.135   7.262
 4017POPC   NC351323  30.410  24.655   5.452
 4017POPC   PO451324  31.064  24.385   5.472
 4017POPC   GL151325  30.829  24.608   5.757
 4017POPC   GL251326  30.565  24.372   5.842
 4017POPC   C1A51327  30.797  24.710   6.191
 4017POPC   D2A51328  31.078  24.767   6.571
 4017POPC   C3A51329  30.908  24.703   7.003
 4017POPC   C4A51330  30.664  24.593   7.416
 4017POPC   C1B51331  30.754  24.202   6.218
 4017POPC   C2B51332  30.693  24.407   6.602
 4017POPC   C3B51333  30.556  24.328   6.992
 4017POPC   C4B51334  30.850  24.105   7.318
 4018POPC   NC351335  31.833   7.633   5.369
 4018POPC   PO451336  31.370   7.149   5.361
 4018POPC   GL151337  31.567   7.311   5.721
 4018POPC   GL251338  31.498   7.669   5.749
 4018POPC   C1A51339  31.587   7.248   6.163
 4018POPC   D2A51340  31.327   7.218   6.523
 4018POPC   C3A51341  31.544   7.195   6.920
 4018POPC   C4A51342  31.324   7.221   7.294
 4018POPC   C1B51343  31.581   7.832   6.129
 4018POPC   C2B51344  31.552   7.671   6.519
 4018POPC   C3B51345  31.727   7.720   6.890
 4018POPC   C4B51346  31.801   7.502   7.269
 4019POPC   NC351347   0.909  24.090   5.244
 4019POPC   PO451348   1.294  24.668   5.395
 4019POPC   GL151349   1.432  24.656   5.790
 4019POPC   GL251350   1.354  24.313   5.859
 4019POPC   C1A51351   1.387  24.672   6.228
 4019POPC   D2A51352   1.600  24.630   6.595
 4019POPC   C3A51353   1.433  24.470   6.958
 4019POPC   C4A51354   1.327  24.627   7.363
 4019POPC   C1B51355   1.123  24.229   6.264
 4019POPC   C2B51356   1.063  24.209   6.718
 4019POPC   C3B51357   0.928  24.347   7.148
 4019POPC   C4B51358   0.870  24.419   7.599
 4020POPC   NC351359  31.133  16.221   5.107
 4020POPC   PO451360  31.587  15.857   5.525
 4020POPC   GL151361  31.503  15.859   5.942
 4020POPC   GL251362  31.545  16.223   5.972
 4020POPC   C1A51363  31.355  15.638   6.313
 4020POPC   D2A51364  31.493  15.479   6.708
 4020POPC   C3A51365  31.408  15.670   7.076
 4020POPC   C4A51366  31.018  15.745   7.080
 4020POPC   C1B51367  31.229  16.147   6.295
 4020POPC   C2B51368  31.297  16.034   6.718
 4020POPC   C3B51369  31.393  16.215   7.092
 4020POPC   C4B51370  31.792  16.410   7.212
 4021POPC   NC351371  36.237  41.943   5.314
 4021POPC   PO451372  36.274  41.313   5.073
 4021POPC   GL151373  36.315  41.440   5.568
 4021POPC   GL251374  36.290  41.764   5.770
 4021POPC   C1A51375  36.150  41.352   6.030
 4021POPC   D2A51376  36.001  41.235   6.457
 4021POPC   C3A51377  36.329  41.241   6.765
 4021POPC   C4A51378  36.179  41.289   7.183
 4021POPC   C1B51379  36.160  41.834   6.208
 4021POPC   C2B51380  36.081  41.713   6.646
 4021POPC   C3B51381  36.059  41.815   7.084
 4021POPC   C4B51382  35.844  42.046   7.360
 4022POPC   NC351383  40.464  10.250   5.430
 4022POPC   PO451384  39.784  10.351   5.483
 4022POPC   GL151385  39.851  10.567   5.876
 4022POPC   GL251386  40.239  10.579   5.848
 4022POPC   C1A51387  39.975  10.563   6.287
 4022POPC   D2A51388  40.199  10.345   6.555
 4022POPC   C3A51389  40.056  10.309   6.951
 4022POPC   C4A51390  39.812  10.195   7.284
 4022POPC   C1B51391  40.404  10.798   6.204
 4022POPC   C2B51392  40.226  10.910   6.596
 4022POPC   C3B51393  40.219  10.791   7.025
 4022POPC   C4B51394  40.263  10.540   7.380
 4023POPC   NC351395  43.713   5.547   5.533
 4023POPC   PO451396  44.453   5.555   5.448
 4023POPC   GL151397  44.166   5.621   5.815
 4023POPC   GL251398  43.924   5.906   5.818
 4023POPC   C1A51399  44.123   5.761   6.258
 4023POPC   D2A51400  44.206   6.012   6.599
 4023POPC   C3A51401  44.223   5.762   6.960
 4023POPC   C4A51402  44.144   6.084   7.230
 4023POPC   C1B51403  43.630   5.742   6.137
 4023POPC   C2B51404  43.694   5.548   6.528
 4023POPC   C3B51405  43.704   5.725   6.939
 4023POPC   C4B51406  43.664   5.929   7.338
 4024POPC   NC351407   2.017  36.989   5.373
 4024POPC   PO451408   2.543  36.528   5.455
 4024POPC   GL151409   2.146  36.609   5.686
 4024POPC   GL251410   2.278  36.596   5.958
 4024POPC   C1A51411   1.876  36.872   6.049
 4024POPC   D2A51412   1.888  37.169   6.425
 4024POPC   C3A51413   1.895  37.030   6.871
 4024POPC   C4A51414   2.008  37.119   7.315
 4024POPC   C1B51415   2.502  36.497   6.293
 4024POPC   C2B51416   2.436  36.550   6.734
 4024POPC   C3B51417   2.346  36.850   7.049
 4024POPC   C4B51418   2.327  36.786   7.512
 4025POPC   NC351419  35.156  25.379   5.530
 4025POPC   PO451420  35.438  24.882   5.193
 4025POPC   GL151421  35.558  24.943   5.688
 4025POPC   GL251422  35.584  25.291   5.773
 4025POPC   C1A51423  35.426  24.987   6.165
 4025POPC   D2A51424  35.174  25.203   6.533
 4025POPC   C3A51425  35.231  25.080   6.989
 4025POPC   C4A51426  34.961  24.895   7.303
 4025POPC   C1B51427  35.434  25.506   6.140
 4025POPC   C2B51428  35.272  25.747   6.469
 4025POPC   C3B51429  35.090  25.626   6.863
 4025POPC   C4B51430  35.315  25.738   7.211
 4026POPC   NC351431   7.478   9.982   5.586
 4026POPC   PO451432   7.524   9.332   5.429
 4026POPC   GL151433   7.448   9.512   5.837
 4026POPC   GL251434   7.101   9.593   5.778
 4026POPC   C1A51435   7.400   9.817   6.215
 4026POPC   D2A51436   7.697   9.992   6.527
 4026POPC   C3A51437   7.566  10.008   6.966
 4026POPC   C4A51438   7.145  10.094   7.180
 4026POPC   C1B51439   7.076   9.397   6.184
 4026POPC   C2B51440   7.308   9.472   6.592
 4026POPC   C3B51441   7.266   9.600   7.038
 4026POPC   C4B51442   6.981   9.641   7.395
 4027POPC   NC351443  36.408  14.068   5.372
 4027POPC   PO451444  35.988  14.584   5.296
 4027POPC   GL151445  35.990  14.287   5.647
 4027POPC   GL251446  36.091  14.598   5.824
 4027POPC   C1A51447  35.882  14.230   6.097
 4027POPC   D2A51448  36.130  14.379   6.476
 4027POPC   C3A51449  36.021  14.213   6.886
 4027POPC   C4A51450  36.047  14.133   7.324
 4027POPC   C1B51451  36.421  14.650   6.124
 4027POPC   C2B51452  36.559  14.871   6.469
 4027POPC   C3B51453  36.479  14.681   6.865
 4027POPC   C4B51454  36.159  14.612   7.186
 4028POPC   NC351455  13.427  10.521   5.477
 4028POPC   PO451456  12.828  10.693   5.441
 4028POPC   GL151457  12.823  10.409   5.800
 4028POPC   GL251458  13.170  10.272   5.860
 4028POPC   C1A51459  12.881  10.414   6.254
 4028POPC   D2A51460  12.809  10.632   6.622
 4028POPC   C3A51461  12.973  10.367   6.916
 4028POPC   C4A51462  12.818  10.275   7.312
 4028POPC   C1B51463  13.265  10.692   6.076
 4028POPC   C2B51464  13.235  10.918   6.468
 4028POPC   C3B51465  13.228  10.831   6.896
 4028POPC   C4B51466  13.162  11.054   7.293
 4029POPC   NC351467  19.431  36.121   5.298
 4029POPC   PO451468  18.852  36.314   5.282
 4029POPC   GL151469  18.836  36.300   5.744
 4029POPC   GL251470  19.033  35.992   5.818
 4029POPC   C1A51471  18.826  36.228   6.215
 4029POPC   D2A51472  19.104  36.001   6.499
 4029POPC   C3A51473  19.052  35.936   6.940
 4029POPC   C4A51474  18.820  36.160   7.246
 4029POPC   C1B51475  19.307  36.295   6.040
 4029POPC   C2B51476  19.300  36.480   6.457
 4029POPC   C3B51477  19.416  36.321   6.832
 4029POPC   C4B51478  19.354  36.241   7.260
 4030POPC   NC351479  13.954  12.628   5.628
 4030POPC   PO451480  14.434  13.102   5.364
 4030POPC   GL151481  14.414  12.857   5.711
 4030POPC   GL251482  14.464  12.497   5.586
 4030POPC   C1A51483  14.504  12.978   6.153
 4030POPC   D2A51484  14.258  13.126   6.536
 4030POPC   C3A51485  14.440  13.161   6.901
 4030POPC   C4A51486  14.622  13.160   7.294
 4030POPC   C1B51487  14.418  12.454   6.052
 4030POPC   C2B51488  14.276  12.636   6.445
 4030POPC   C3B51489  14.336  12.603   6.884
 4030POPC   C4B51490  14.220  12.816   7.228
 4031POPC   NC351491  14.509  10.860   5.535
 4031POPC   PO451492  14.771  10.381   5.172
 4031POPC   GL151493  14.457  10.313   5.617
 4031POPC   GL251494  14.560  10.492   5.965
 4031POPC   C1A51495  14.218  10.151   6.053
 4031POPC   D2A51496  14.435  10.233   6.514
 4031POPC   C3A51497  14.302  10.162   6.988
 4031POPC   C4A51498  14.234  10.337   7.455
 4031POPC   C1B51499  14.648  10.727   6.333
 4031POPC   C2B51500  14.408  10.739   6.714
 4031POPC   C3B51501  14.511  10.606   7.114
 4031POPC   C4B51502  14.325  10.871   7.371
 4032POPC   NC351503  35.841  43.895   5.056
 4032POPC   PO451504  35.251  43.913   5.334
 4032POPC   GL151505  35.449  44.014   5.726
 4032POPC   GL251506  35.557  43.669   5.762
 4032POPC   C1A51507  35.299  44.113   6.165
 4032POPC   D2A51508  35.117  43.899   6.528
 4032POPC   C3A51509  35.292  44.002   6.923
 4032POPC   C4A51510  35.315  44.171   7.314
 4032POPC   C1B51511  35.365  43.615   6.171
 4032POPC   C2B51512  35.584  43.698   6.583
 4032POPC   C3B51513  35.339  43.490   6.900
 4032POPC   C4B51514  35.220  43.597   7.284
 4033POPC   NC351515  10.754  14.822   5.427
 4033POPC   PO451516  10.143  15.110   5.349
 4033POPC   GL151517  10.350  15.016   5.714
 4033POPC   GL251518  10.554  15.317   5.656
 4033POPC   C1A51519  10.445  14.891   6.152
 4033POPC   D2A51520  10.713  14.960   6.532
 4033POPC   C3A51521  10.556  14.888   6.967
 4033POPC   C4A51522  10.673  14.987   7.390
 4033POPC   C1B51523  10.724  15.316   6.078
 4033POPC   C2B51524  10.559  15.448   6.475
 4033POPC   C3B51525  10.691  15.369   6.874
 4033POPC   C4B51526  10.511  15.442   7.210
 4034POPC   NC351527   4.986   5.399   5.180
 4034POPC   PO451528   5.340   4.986   5.649
 4034POPC   GL151529   5.041   5.076   5.962
 4034POPC   GL251530   4.831   4.842   6.025
 4034POPC   C1A51531   5.026   5.317   6.354
 4034POPC   D2A51532   5.128   5.520   6.742
 4034POPC   C3A51533   5.103   5.255   7.084
 4034POPC   C4A51534   4.836   5.110   7.409
 4034POPC   C1B51535   5.210   4.811   6.333
 4034POPC   C2B51536   5.246   4.893   6.730
 4034POPC   C3B51537   5.445   4.885   7.088
 4034POPC   C4B51538   5.322   4.926   7.504
 4035POPC   NC351539  28.426  35.687   5.371
 4035POPC   PO451540  27.925  36.029   5.470
 4035POPC   GL151541  28.215  35.913   5.789
 4035POPC   GL251542  28.583  35.996   5.755
 4035POPC   C1A51543  28.385  35.792   6.192
 4035POPC   D2A51544  28.192  35.939   6.574
 4035POPC   C3A51545  28.376  35.966   6.966
 4035POPC   C4A51546  28.259  35.989   7.386
 4035POPC   C1B51547  28.408  36.303   6.058
 4035POPC   C2B51548  28.478  36.368   6.482
 4035POPC   C3B51549  28.553  36.465   6.897
 4035POPC   C4B51550  28.651  36.283   7.278
 4036POPC   NC351551  25.959  30.251   5.486
 4036POPC   PO451552  25.749  29.588   5.415
 4036POPC   GL151553  25.842  29.785   5.804
 4036POPC   GL251554  26.204  29.821   5.791
 4036POPC   C1A51555  25.968  29.708   6.251
 4036POPC   D2A51556  25.747  29.841   6.586
 4036POPC   C3A51557  25.809  30.003   6.974
 4036POPC   C4A51558  25.865  30.104   7.391
 4036POPC   C1B51559  26.199  30.138   6.146
 4036POPC   C2B51560  26.284  30.046   6.614
 4036POPC   C3B51561  26.298  30.125   7.070
 4036POPC   C4B51562  26.375  30.021   7.500
 4037POPC   NC351563   8.889  17.517   5.188
 4037POPC   PO451564   9.417  17.209   5.124
 4037POPC   GL151565   9.082  17.266   5.599
 4037POPC   GL251566   8.775  17.525   5.703
 4037POPC   C1A51567   8.943  17.230   6.112
 4037POPC   D2A51568   9.111  17.035   6.550
 4037POPC   C3A51569   8.986  17.176   6.988
 4037POPC   C4A51570   8.842  17.477   7.296
 4037POPC   C1B51571   8.637  17.752   6.108
 4037POPC   C2B51572   8.618  17.836   6.599
 4037POPC   C3B51573   8.908  17.914   7.010
 4037POPC   C4B51574   9.002  17.944   7.481
 4038POPC   NC351575   0.045   0.558   5.153
 4038POPC   PO451576   0.667   0.860   5.345
 4038POPC   GL151577   0.526   0.599   5.709
 4038POPC   GL251578   0.767   0.343   5.831
 4038POPC   C1A51579   0.309   0.435   6.107
 4038POPC   D2A51580   0.367   0.603   6.534
 4038POPC   C3A51581   0.398   0.338   6.897
 4038POPC   C4A51582   0.113   0.372   7.227
 4038POPC   C1B51583   0.752   0.668   6.179
 4038POPC   C2B51584   0.880   0.738   6.613
 4038POPC   C3B51585   0.658   0.761   7.018
 4038POPC   C4B51586   0.668   0.449   7.375
 4039POPC   NC351587   3.556  12.021   5.385
 4039POPC   PO451588   2.945  12.094   5.503
 4039POPC   GL151589   3.231  11.856   5.799
 4039POPC   GL251590   3.600  11.708   5.793
 4039POPC   C1A51591   3.441  11.981   6.188
 4039POPC   D2A51592   3.326  12.073   6.607
 4039POPC   C3A51593   3.485  12.391   6.858
 4039POPC   C4A51594   3.629  12.365   7.263
 4039POPC   C1B51595   3.882  11.680   6.164
 4039POPC   C2B51596   3.866  11.957   6.567
 4039POPC   C3B51597   3.668  11.906   6.969
 4039POPC   C4B51598   3.860  11.604   7.216
 4040POPC   NC351599  18.835  28.408   5.232
 4040POPC   PO451600  19.335  28.081   5.436
 4040POPC   GL151601  19.079  28.321   5.778
 4040POPC   GL251602  18.753  28.534   5.746
 4040POPC   C1A51603  18.943  28.389   6.219
 4040POPC   D2A51604  18.912  28.578   6.621
 4040POPC   C3A51605  19.022  28.458   7.057
 4040POPC   C4A51606  18.798  28.188   7.433
 4040POPC   C1B51607  18.608  28.816   6.111
 4040POPC   C2B51608  18.732  29.036   6.508
 4040POPC   C3B51609  18.675  28.867   6.963
 4040POPC   C4B51610  18.691  28.678   7.373
 4041POPC   NC351611  17.017  29.642   5.458
 4041POPC   PO451612  17.071  29.022   5.535
 4041POPC   GL151613  17.150  29.190   5.943
 4041POPC   GL251614  16.947  29.509   6.034
 4041POPC   C1A51615  16.970  29.043   6.324
 4041POPC   D2A51616  16.711  29.167   6.657
 4041POPC   C3A51617  16.831  29.095   7.080
 4041POPC   C4A51618  16.500  28.825   7.184
 4041POPC   C1B51619  16.497  29.378   6.213
 4041POPC   C2B51620  16.210  29.274   6.589
 4041POPC   C3B51621  16.359  29.343   7.014
 4041POPC   C4B51622  16.217  29.480   7.394
 4042POPC   NC351623  36.552  12.665   5.431
 4042POPC   PO451624  37.071  13.079   5.375
 4042POPC   GL151625  36.910  12.938   5.789
 4042POPC   GL251626  36.891  12.565   5.808
 4042POPC   C1A51627  36.808  12.875   6.263
 4042POPC   D2A51628  36.689  13.041   6.711
 4042POPC   C3A51629  36.965  12.880   7.074
 4042POPC   C4A51630  37.226  12.495   7.026
 4042POPC   C1B51631  36.644  12.362   6.131
 4042POPC   C2B51632  36.457  12.513   6.466
 4042POPC   C3B51633  36.744  12.485   6.808
 4042POPC   C4B51634  36.726  12.452   7.262
 4043POPC   NC351635  24.214   5.659   5.413
 4043POPC   PO451636  23.506   5.666   5.417
 4043POPC   GL151637  23.748   5.855   5.723
 4043POPC   GL251638  23.920   5.566   5.830
 4043POPC   C1A51639  23.767   6.064   6.155
 4043POPC   D2A51640  23.550   6.089   6.572
 4043POPC   C3A51641  23.800   6.126   6.949
 4043POPC   C4A51642  24.132   6.142   7.262
 4043POPC   C1B51643  23.718   5.560   6.241
 4043POPC   C2B51644  23.764   5.636   6.699
 4043POPC   C3B51645  23.639   5.627   7.145
 4043POPC   C4B51646  23.507   5.569   7.588
 4044POPC   NC351647  27.291  43.659   5.307
 4044POPC   PO451648  27.183  44.271   5.491
 4044POPC   GL151649  27.392  43.965   5.744
 4044POPC   GL251650  27.682  43.804   5.681
 4044POPC   C1A51651  27.343  43.848   6.172
 4044POPC   D2A51652  27.418  44.180   6.454
 4044POPC   C3A51653  27.375  44.080   6.877
 4044POPC   C4A51654  27.165  43.750   7.061
 4044POPC   C1B51655  27.793  44.048   6.074
 4044POPC   C2B51656  27.812  43.881   6.505
 4044POPC   C3B51657  27.688  43.676   6.856
 4044POPC   C4B51658  27.772  43.859   7.232
 4045POPC   NC351659   0.742  43.862   5.653
 4045POPC   PO451660   1.273  43.956   5.228
 4045POPC   GL151661   1.346  43.957   5.713
 4045POPC   GL251662   1.193  43.665   5.809
 4045POPC   C1A51663   1.350  43.975   6.201
 4045POPC   D2A51664   1.568  43.888   6.615
 4045POPC   C3A51665   1.347  43.970   7.029
 4045POPC   C4A51666   1.013  43.978   7.393
 4045POPC   C1B51667   1.025  43.549   6.215
 4045POPC   C2B51668   1.088  43.747   6.603
 4045POPC   C3B51669   0.970  43.637   6.986
 4045POPC   C4B51670   1.016  43.403   7.296
 4046POPC   NC351671  10.357   7.732   5.476
 4046POPC   PO451672  10.481   7.135   5.238
 4046POPC   GL151673  10.660   7.299   5.651
 4046POPC   GL251674  10.828   7.630   5.699
 4046POPC   C1A51675  10.605   7.121   6.063
 4046POPC   D2A51676  10.722   7.235   6.479
 4046POPC   C3A51677  10.486   7.198   6.858
 4046POPC   C4A51678  10.391   7.361   7.281
 4046POPC   C1B51679  10.600   7.638   6.133
 4046POPC   C2B51680  10.463   7.686   6.599
 4046POPC   C3B51681  10.680   7.672   6.995
 4046POPC   C4B51682  10.807   7.843   7.399
 4047POPC   NC351683   1.198  10.541   5.235
 4047POPC   PO451684   0.631  10.507   5.588
 4047POPC   GL151685   1.052  10.437   5.777
 4047POPC   GL251686   1.378  10.630   5.691
 4047POPC   C1A51687   1.182  10.457   6.219
 4047POPC   D2A51688   1.080  10.774   6.547
 4047POPC   C3A51689   0.958  10.645   6.956
 4047POPC   C4A51690   1.061  10.295   7.205
 4047POPC   C1B51691   1.535  10.827   6.038
 4047POPC   C2B51692   1.576  10.742   6.459
 4047POPC   C3B51693   1.490  10.747   6.900
 4047POPC   C4B51694   1.572  10.408   7.157
 4048POPC   NC351695  43.715  23.155   5.470
 4048POPC   PO451696  43.602  22.548   5.646
 4048POPC   GL151697  43.818  22.840   5.876
 4048POPC   GL251698  44.039  23.130   5.960
 4048POPC   C1A51699  43.698  22.971   6.271
 4048POPC   D2A51700  43.943  23.049   6.593
 4048POPC   C3A51701  43.784  22.934   6.955
 4048POPC   C4A51702  44.125  23.113   7.211
 4048POPC   C1B51703  44.169  22.733   6.231
 4048POPC   C2B51704  44.212  22.497   6.629
 4048POPC   C3B51705  44.151  22.594   7.065
 4048POPC   C4B51706  44.155  22.712   7.514
 4049POPC   NC351707   5.142  22.675   5.379
 4049POPC   PO451708   4.930  23.330   5.439
 4049POPC   GL151709   5.198  23.123   5.788
 4049POPC   GL251710   5.277  22.745   5.854
 4049POPC   C1A51711   5.072  23.061   6.223
 4049POPC   D2A51712   4.892  23.201   6.582
 4049POPC   C3A51713   5.073  23.112   6.984
 4049POPC   C4A51714   5.376  23.060   7.300
 4049POPC   C1B51715   5.076  22.537   6.236
 4049POPC   C2B51716   5.017  22.675   6.680
 4049POPC   C3B51717   5.161  22.613   7.122
 4049POPC   C4B51718   5.181  22.544   7.573
 4050POPC   NC351719  43.653   2.090   5.116
 4050POPC   PO451720  44.118   1.634   5.329
 4050POPC   GL151721  43.985   1.992   5.627
 4050POPC   GL251722  43.642   2.103   5.634
 4050POPC   C1A51723  43.821   1.972   6.082
 4050POPC   D2A51724  43.973   2.089   6.480
 4050POPC   C3A51725  43.740   2.015   6.838
 4050POPC   C4A51726  43.902   1.925   7.239
 4050POPC   C1B51727  43.558   2.401   6.021
 4050POPC   C2B51728  43.587   2.430   6.488
 4050POPC   C3B51729  43.591   2.505   6.910
 4050POPC   C4B51730  43.528   2.268   7.253
 4051POPC   NC351731  30.613  30.626   5.413
 4051POPC   PO451732  31.253  30.753   5.200
 4051POPC   GL151733  30.989  30.945   5.586
 4051POPC   GL251734  30.692  31.201   5.659
 4051POPC   C1A51735  30.834  30.881   6.055
 4051POPC   D2A51736  31.057  30.824   6.475
 4051POPC   C3A51737  30.868  30.911   6.871
 4051POPC   C4A51738  30.956  30.725   7.250
 4051POPC   C1B51739  30.599  31.338   6.121
 4051POPC   C2B51740  30.468  31.222   6.571
 4051POPC   C3B51741  30.393  31.109   7.013
 4051POPC   C4B51742  30.645  31.107   7.376
 4052POPC   NC351743   6.286  28.678   5.520
 4052POPC   PO451744   5.732  28.316   5.350
 4052POPC   GL151745   5.809  28.339   5.756
 4052POPC   GL251746   5.531  28.538   5.851
 4052POPC   C1A51747   5.971  28.548   6.120
 4052POPC   D2A51748   6.096  28.818   6.437
 4052POPC   C3A51749   5.976  28.624   6.815
 4052POPC   C4A51750   6.068  28.336   7.153
 4052POPC   C1B51751   5.560  28.195   6.174
 4052POPC   C2B51752   5.737  28.221   6.539
 4052POPC   C3B51753   5.671  28.113   6.941
 4052POPC   C4B51754   5.527  28.079   7.343
 4053POPC   NC351755  19.992   9.379   5.336
 4053POPC   PO451756  19.702   9.970   5.390
 4053POPC   GL151757  19.754   9.733   5.778
 4053POPC   GL251758  20.091   9.633   5.776
 4053POPC   C1A51759  19.714   9.906   6.223
 4053POPC   D2A51760  19.752  10.145   6.624
 4053POPC   C3A51761  19.645  10.046   7.042
 4053POPC   C4A51762  19.709   9.891   7.467
 4053POPC   C1B51763  20.020   9.493   6.192
 4053POPC   C2B51764  19.980   9.668   6.620
 4053POPC   C3B51765  19.829   9.554   7.053
 4053POPC   C4B51766  19.674   9.166   7.256
 4054POPC   NC351767  42.117  28.936   5.445
 4054POPC   PO451768  42.453  29.441   5.183
 4054POPC   GL151769  42.450  29.489   5.668
 4054POPC   GL251770  42.522  29.141   5.735
 4054POPC   C1A51771  42.599  29.439   6.127
 4054POPC   D2A51772  42.781  29.175   6.475
 4054POPC   C3A51773  42.551  29.228   6.828
 4054POPC   C4A51774  42.340  29.356   7.178
 4054POPC   C1B51775  42.479  28.922   6.140
 4054POPC   C2B51776  42.333  28.832   6.564
 4054POPC   C3B51777  42.125  28.950   6.925
 4054POPC   C4B51778  42.136  28.939   7.360
 4055POPC   NC351779  42.682  35.353   5.249
 4055POPC   PO451780  43.287  34.993   5.347
 4055POPC   GL151781  43.008  35.244   5.624
 4055POPC   GL251782  43.237  35.395   5.852
 4055POPC   C1A51783  42.767  35.261   6.021
 4055POPC   D2A51784  42.694  35.235   6.465
 4055POPC   C3A51785  43.075  35.387   6.709
 4055POPC   C4A51786  43.093  35.352   7.154
 4055POPC   C1B51787  43.381  35.138   6.214
 4055POPC   C2B51788  43.566  34.978   6.591
 4055POPC   C3B51789  43.473  35.069   7.021
 4055POPC   C4B51790  43.353  35.132   7.516
 4056POPC   NC351791  15.611  15.137   5.242
 4056POPC   PO451792  14.934  15.192   5.284
 4056POPC   GL151793  15.053  15.193   5.728
 4056POPC   GL251794  15.385  15.251   5.728
 4056POPC   C1A51795  15.095  15.027   6.164
 4056POPC   D2A51796  15.237  15.124   6.565
 4056POPC   C3A51797  15.177  14.981   6.966
 4056POPC   C4A51798  15.301  14.985   7.402
 4056POPC   C1B51799  15.385  15.465   6.139
 4056POPC   C2B51800  15.409  15.596   6.583
 4056POPC   C3B51801  15.490  15.404   6.989
 4056POPC   C4B51802  15.439  15.465   7.433
 4057POPC   NC351803  16.189  26.271   5.278
 4057POPC   PO451804  15.671  25.827   5.491
 4057POPC   GL151805  15.904  25.952   5.817
 4057POPC   GL251806  16.037  26.283   5.791
 4057POPC   C1A51807  15.972  25.909   6.240
 4057POPC   D2A51808  15.701  25.954   6.583
 4057POPC   C3A51809  15.853  26.112   6.955
 4057POPC   C4A51810  15.616  26.177   7.317
 4057POPC   C1B51811  16.277  26.323   6.187
 4057POPC   C2B51812  16.269  26.190   6.624
 4057POPC   C3B51813  16.317  26.404   7.023
 4057POPC   C4B51814  16.084  26.342   7.380
 4058POPC   NC351815  14.883  40.817   5.462
 4058POPC   PO451816  15.396  40.363   5.584
 4058POPC   GL151817  15.078  40.591   5.884
 4058POPC   GL251818  15.000  40.975   5.914
 4058POPC   C1A51819  15.071  40.697   6.326
 4058POPC   D2A51820  15.319  40.883   6.641
 4058POPC   C3A51821  15.242  40.682   6.999
 4058POPC   C4A51822  14.952  40.693   7.288
 4058POPC   C1B51823  15.229  41.190   6.223
 4058POPC   C2B51824  15.028  41.307   6.613
 4058POPC   C3B51825  14.962  41.142   7.016
 4058POPC   C4B51826  15.327  41.131   7.217
 4059POPC   NC351827  41.651  27.812   5.230
 4059POPC   PO451828  41.285  27.300   5.141
 4059POPC   GL151829  41.364  27.565   5.595
 4059POPC   GL251830  41.696  27.473   5.739
 4059POPC   C1A51831  41.403  27.680   6.103
 4059POPC   D2A51832  41.676  27.511   6.487
 4059POPC   C3A51833  41.633  27.678   6.912
 4059POPC   C4A51834  41.672  27.832   7.323
 4059POPC   C1B51835  41.513  27.195   6.095
 4059POPC   C2B51836  41.212  27.252   6.470
 4059POPC   C3B51837  41.377  27.219   6.902
 4059POPC   C4B51838  41.583  27.337   7.298
 4060POPC   NC351839  16.927  20.069   5.572
 4060POPC   PO451840  16.572  19.591   5.379
 4060POPC   GL151841  16.574  19.675   5.820
 4060POPC   GL251842  16.493  20.013   5.879
 4060POPC   C1A51843  16.668  19.740   6.278
 4060POPC   D2A51844  16.890  19.941   6.632
 4060POPC   C3A51845  16.736  19.724   7.030
 4060POPC   C4A51846  16.974  19.902   7.347
 4060POPC   C1B51847  16.337  20.138   6.264
 4060POPC   C2B51848  16.384  19.979   6.667
 4060POPC   C3B51849  16.569  20.185   6.998
 4060POPC   C4B51850  16.441  20.093   7.389
 4061POPC   NC351851  30.538  18.006   5.470
 4061POPC   PO451852  30.815  18.603   5.428
 4061POPC   GL151853  30.723  18.392   5.833
 4061POPC   GL251854  30.370  18.257   5.881
 4061POPC   C1A51855  30.865  18.290   6.259
 4061POPC   D2A51856  30.993  18.543   6.613
 4061POPC   C3A51857  30.787  18.373   6.944
 4061POPC   C4A51858  30.637  18.020   7.159
 4061POPC   C1B51859  30.371  18.458   6.285
 4061POPC   C2B51860  30.329  18.523   6.723
 4061POPC   C3B51861  30.358  18.581   7.148
 4061POPC   C4B51862  30.375  18.315   7.459
 4062POPC   NC351863   6.830  29.227   5.466
 4062POPC   PO451864   6.713  28.582   5.651
 4062POPC   GL151865   6.601  28.958   5.863
 4062POPC   GL251866   6.560  29.341   5.884
 4062POPC   C1A51867   6.591  28.999   6.293
 4062POPC   D2A51868   6.577  29.278   6.648
 4062POPC   C3A51869   6.647  29.067   7.019
 4062POPC   C4A51870   6.343  28.790   7.149
 4062POPC   C1B51871   6.846  29.462   6.245
 4062POPC   C2B51872   7.061  29.433   6.662
 4062POPC   C3B51873   6.969  29.474   7.131
 4062POPC   C4B51874   6.672  29.362   7.466
 4063POPC   NC351875  32.989  43.485   5.070
 4063POPC   PO451876  33.016  42.861   5.263
 4063POPC   GL151877  32.907  42.936   5.743
 4063POPC   GL251878  33.222  42.861   5.913
 4063POPC   C1A51879  32.958  43.265   6.123
 4063POPC   D2A51880  33.179  43.342   6.529
 4063POPC   C3A51881  33.038  43.203   6.948
 4063POPC   C4A51882  33.207  43.150   7.383
 4063POPC   C1B51883  33.000  42.789   6.273
 4063POPC   C2B51884  33.135  42.788   6.651
 4063POPC   C3B51885  33.241  42.700   7.070
 4063POPC   C4B51886  33.330  42.663   7.490
 4064POPC   NC351887  35.907  18.601   5.576
 4064POPC   PO451888  35.704  17.931   5.303
 4064POPC   GL151889  35.985  18.109   5.643
 4064POPC   GL251890  35.965  17.898   5.868
 4064POPC   C1A51891  36.278  18.288   6.002
 4064POPC   D2A51892  36.373  18.258   6.433
 4064POPC   C3A51893  36.073  18.365   6.738
 4064POPC   C4A51894  36.250  18.480   7.123
 4064POPC   C1B51895  35.889  18.067   6.276
 4064POPC   C2B51896  35.586  18.036   6.596
 4064POPC   C3B51897  35.698  17.993   7.018
 4064POPC   C4B51898  36.006  18.100   7.332
 4065POPC   NC351899  42.237  26.521   5.592
 4065POPC   PO451900  42.625  27.028   5.419
 4065POPC   GL151901  42.526  26.880   5.802
 4065POPC   GL251902  42.806  26.667   5.793
 4065POPC   C1A51903  42.313  26.980   6.184
 4065POPC   D2A51904  42.025  27.056   6.516
 4065POPC   C3A51905  42.205  26.892   6.889
 4065POPC   C4A51906  42.133  27.005   7.287
 4065POPC   C1B51907  42.826  26.872   6.207
 4065POPC   C2B51908  42.635  26.950   6.607
 4065POPC   C3B51909  42.719  26.795   7.005
 4065POPC   C4B51910  42.516  26.653   7.357
 4066POPC   NC351911  27.202  40.846   5.460
 4066POPC   PO451912  26.726  41.299   5.363
 4066POPC   GL151913  26.630  41.031   5.759
 4066POPC   GL251914  26.902  40.817   5.856
 4066POPC   C1A51915  26.589  40.926   6.226
 4066POPC   D2A51916  26.862  40.820   6.568
 4066POPC   C3A51917  26.681  40.621   6.917
 4066POPC   C4A51918  26.510  40.722   7.310
 4066POPC   C1B51919  27.161  40.641   6.176
 4066POPC   C2B51920  27.185  40.403   6.559
 4066POPC   C3B51921  27.212  40.583   6.945
 4066POPC   C4B51922  27.026  40.639   7.314
 4067POPC   NC351923  35.014   1.026   5.681
 4067POPC   PO451924  35.623   1.141   5.369
 4067POPC   GL151925  35.501   1.112   5.821
 4067POPC   GL251926  35.398   0.823   6.027
 4067POPC   C1A51927  35.445   1.292   6.257
 4067POPC   D2A51928  35.201   1.342   6.657
 4067POPC   C3A51929  35.359   1.090   7.003
 4067POPC   C4A51930  35.487   1.161   7.424
 4067POPC   C1B51931  35.061   0.957   6.326
 4067POPC   C2B51932  34.800   0.949   6.697
 4067POPC   C3B51933  34.939   0.856   7.109
 4067POPC   C4B51934  35.002   1.013   7.519
 4068POPC   NC351935  29.886  22.646   5.044
 4068POPC   PO451936  29.701  23.347   5.295
 4068POPC   GL151937  29.804  23.327   5.765
 4068POPC   GL251938  30.183  23.241   5.824
 4068POPC   C1A51939  29.858  23.215   6.235
 4068POPC   D2A51940  29.930  22.830   6.507
 4068POPC   C3A51941  29.872  22.968   6.923
 4068POPC   C4A51942  29.549  23.252   7.107
 4068POPC   C1B51943  30.342  23.044   6.235
 4068POPC   C2B51944  30.320  23.087   6.709
 4068POPC   C3B51945  30.326  23.007   7.202
 4068POPC   C4B51946  30.215  23.150   7.652
 4069POPC   NC351947  24.992  27.572   5.398
 4069POPC   PO451948  24.267  27.575   5.365
 4069POPC   GL151949  24.423  27.734   5.770
 4069POPC   GL251950  24.768  27.638   5.888
 4069POPC   C1A51951  24.486  27.887   6.212
 4069POPC   D2A51952  24.632  27.642   6.570
 4069POPC   C3A51953  24.557  27.826   6.952
 4069POPC   C4A51954  24.726  27.900   7.360
 4069POPC   C1B51955  24.463  27.368   6.175
 4069POPC   C2B51956  24.442  27.137   6.556
 4069POPC   C3B51957  24.683  27.262   6.923
 4069POPC   C4B51958  24.586  27.404   7.303
 4070POPC   NC351959  38.538   2.192   5.218
 4070POPC   PO451960  38.499   1.572   5.514
 4070POPC   GL151961  38.336   1.898   5.823
 4070POPC   GL251962  38.410   2.235   5.709
 4070POPC   C1A51963  38.445   2.055   6.270
 4070POPC   D2A51964  38.261   2.035   6.707
 4070POPC   C3A51965  38.495   1.720   7.043
 4070POPC   C4A51966  38.941   1.567   7.203
 4070POPC   C1B51967  38.215   2.482   6.061
 4070POPC   C2B51968  38.186   2.543   6.508
 4070POPC   C3B51969  38.348   2.481   6.933
 4070POPC   C4B51970  38.279   2.130   7.217
 4071POPC   NC351971   8.484  16.717   5.385
 4071POPC   PO451972   7.847  16.717   5.580
 4071POPC   GL151973   8.162  16.821   5.862
 4071POPC   GL251974   8.358  16.514   5.853
 4071POPC   C1A51975   8.097  16.917   6.303
 4071POPC   D2A51976   8.193  16.734   6.721
 4071POPC   C3A51977   8.037  17.018   7.060
 4071POPC   C4A51978   8.095  17.057   7.544
 4071POPC   C1B51979   8.170  16.424   6.269
 4071POPC   C2B51980   7.924  16.256   6.647
 4071POPC   C3B51981   7.994  16.279   7.100
 4071POPC   C4B51982   8.258  16.600   7.285
 4072POPC   NC351983  17.193   3.960   5.337
 4072POPC   PO451984  17.594   3.430   5.290
 4072POPC   GL151985  17.435   3.375   5.737
 4072POPC   GL251986  17.397   3.717   5.896
 4072POPC   C1A51987  17.618   3.319   6.153
 4072POPC   D2A51988  17.584   3.560   6.523
 4072POPC   C3A51989  17.802   3.374   6.860
 4072POPC   C4A51990  17.753   3.340   7.292
 4072POPC   C1B51991  17.188   3.820   6.303
 4072POPC   C2B51992  17.180   3.764   6.765
 4072POPC   C3B51993  17.371   3.643   7.147
 4072POPC   C4B51994  17.192   3.663   7.558
 4073POPC   NC351995   6.913   7.584   5.580
 4073POPC   PO451996   7.605   7.456   5.536
 4073POPC   GL151997   7.385   7.580   5.899
 4073POPC   GL251998   7.108   7.814   5.972
 4073POPC   C1A51999   7.403   7.452   6.321
 4073POPC   D2A52000   7.371   7.097   6.558
 4073POPC   C3A52001   7.138   7.237   6.905
 4073POPC   C4A52002   7.305   7.224   7.280
 4073POPC   C1B52003   7.233   7.919   6.361
 4073POPC   C2B52004   7.413   7.766   6.723
 4073POPC   C3B52005   7.349   7.699   7.120
 4073POPC   C4B52006   7.019   7.643   7.381
 4074POPC   NC352007   6.544  12.235   5.141
 4074POPC   PO452008   6.626  12.756   5.511
 4074POPC   GL152009   6.967  12.899   5.763
 4074POPC   GL252010   6.958  13.254   5.858
 4074POPC   C1A52011   6.965  12.748   6.183
 4074POPC   D2A52012   6.697  12.845   6.521
 4074POPC   C3A52013   6.873  12.674   6.874
 4074POPC   C4A52014   6.588  12.614   7.175
 4074POPC   C1B52015   7.012  13.242   6.315
 4074POPC   C2B52016   7.026  13.162   6.756
 4074POPC   C3B52017   6.767  13.123   7.140
 4074POPC   C4B52018   6.837  13.295   7.586
 4075POPC   NC352019   6.251  36.324   5.548
 4075POPC   PO452020   6.711  36.442   5.037
 4075POPC   GL152021   6.652  36.067   5.630
 4075POPC   GL252022   6.589  36.331   5.957
 4075POPC   C1A52023   6.386  35.911   6.056
 4075POPC   D2A52024   6.556  36.150   6.433
 4075POPC   C3A52025   6.642  36.075   6.855
 4075POPC   C4A52026   6.475  36.352   7.142
 4075POPC   C1B52027   6.908  36.528   6.210
 4075POPC   C2B52028   7.123  36.563   6.567
 4075POPC   C3B52029   7.160  36.249   6.817
 4075POPC   C4B52030   6.968  36.283   7.190
 4076POPC   NC352031   2.318  42.372   5.383
 4076POPC   PO452032   1.630  42.403   5.447
 4076POPC   GL152033   1.803  42.358   5.848
 4076POPC   GL252034   2.145  42.352   5.852
 4076POPC   C1A52035   1.849  42.505   6.260
 4076POPC   D2A52036   1.763  42.321   6.622
 4076POPC   C3A52037   2.058  42.088   6.807
 4076POPC   C4A52038   2.041  42.261   7.181
 4076POPC   C1B52039   2.227  42.746   6.007
 4076POPC   C2B52040   2.265  42.795   6.439
 4076POPC   C3B52041   2.226  42.593   6.810
 4076POPC   C4B52042   2.266  42.794   7.185
 4077POPC   NC352043  32.840  23.487   5.266
 4077POPC   PO452044  32.967  24.080   5.490
 4077POPC   GL152045  32.966  23.725   5.735
 4077POPC   GL252046  32.648  23.555   5.764
 4077POPC   C1A52047  33.203  23.624   6.104
 4077POPC   D2A52048  33.055  23.641   6.544
 4077POPC   C3A52049  33.302  23.723   6.908
 4077POPC   C4A52050  33.263  23.768   7.354
 4077POPC   C1B52051  32.703  23.790   6.182
 4077POPC   C2B52052  32.618  23.885   6.636
 4077POPC   C3B52053  32.821  23.806   7.058
 4077POPC   C4B52054  32.760  23.779   7.513
 4078POPC   NC352055  13.979  16.028   5.496
 4078POPC   PO452056  14.549  15.646   5.485
 4078POPC   GL152057  14.390  15.881   5.802
 4078POPC   GL252058  14.084  15.751   5.901
 4078POPC   C1A52059  14.526  16.050   6.172
 4078POPC   D2A52060  14.436  16.177   6.577
 4078POPC   C3A52061  14.503  15.806   6.833
 4078POPC   C4A52062  14.708  15.799   7.210
 4078POPC   C1B52063  14.006  16.109   6.152
 4078POPC   C2B52064  13.920  16.170   6.582
 4078POPC   C3B52065  13.969  15.835   6.881
 4078POPC   C4B52066  14.182  15.931   7.251
 4079POPC   NC352067  15.114  38.057   5.569
 4079POPC   PO452068  15.075  38.740   5.486
 4079POPC   GL152069  15.247  38.543   5.814
 4079POPC   GL252070  15.536  38.386   5.756
 4079POPC   C1A52071  15.314  38.630   6.232
 4079POPC   D2A52072  15.178  38.550   6.623
 4079POPC   C3A52073  15.387  38.722   6.953
 4079POPC   C4A52074  15.155  38.655   7.292
 4079POPC   C1B52075  15.420  38.140   6.135
 4079POPC   C2B52076  15.545  38.199   6.559
 4079POPC   C3B52077  15.399  38.171   6.954
 4079POPC   C4B52078  15.127  38.144   7.278
 4080POPC   NC352079  25.166  24.836   5.514
 4080POPC   PO452080  25.493  24.319   5.208
 4080POPC   GL152081  25.490  24.309   5.685
 4080POPC   GL252082  25.501  24.616   5.868
 4080POPC   C1A52083  25.288  24.233   6.128
 4080POPC   D2A52084  25.375  24.141   6.566
 4080POPC   C3A52085  25.080  24.080   6.915
 4080POPC   C4A52086  25.042  24.396   7.216
 4080POPC   C1B52087  25.641  24.791   6.271
 4080POPC   C2B52088  25.464  24.758   6.700
 4080POPC   C3B52089  25.481  24.680   7.133
 4080POPC   C4B52090  25.636  24.920   7.503
 4081POPC   NC352091   9.302  14.578   5.577
 4081POPC   PO452092   8.691  14.393   5.310
 4081POPC   GL152093   8.884  14.306   5.753
 4081POPC   GL252094   8.635  14.073   5.744
 4081POPC   C1A52095   9.024  14.429   6.209
 4081POPC   D2A52096   8.945  14.560   6.667
 4081POPC   C3A52097   9.199  14.701   7.033
 4081POPC   C4A52098   9.033  14.737   7.467
 4081POPC   C1B52099   8.495  14.372   6.070
 4081POPC   C2B52100   8.586  14.239   6.470
 4081POPC   C3B52101   8.487  14.370   6.843
 4081POPC   C4B52102   8.756  14.425   7.160
 4082POPC   NC352103  39.688  39.473   5.494
 4082POPC   PO452104  40.263  39.859   5.605
 4082POPC   GL152105  40.148  39.889   6.001
 4082POPC   GL252106  39.830  39.737   5.898
 4082POPC   C1A52107  40.168  40.209   6.330
 4082POPC   D2A52108  40.381  40.191   6.718
 4082POPC   C3A52109  40.123  39.919   6.962
 4082POPC   C4A52110  40.139  39.741   7.340
 4082POPC   C1B52111  39.789  39.681   6.309
 4082POPC   C2B52112  39.713  39.901   6.648
 4082POPC   C3B52113  39.649  39.687   7.018
 4082POPC   C4B52114  39.671  39.957   7.270
 4083POPC   NC352115  44.482  34.821   5.454
 4083POPC   PO452116  44.982  34.277   5.427
 4083POPC   GL152117  44.800  34.503   5.781
 4083POPC   GL252118  44.488  34.413   5.828
 4083POPC   C1A52119  44.873  34.612   6.233
 4083POPC   D2A52120  44.895  34.820   6.663
 4083POPC   C3A52121  44.836  34.547   7.006
 4083POPC   C4A52122  44.799  34.559   7.468
 4083POPC   C1B52123  44.364  34.647   6.241
 4083POPC   C2B52124  44.365  34.665   6.724
 4083POPC   C3B52125  44.375  34.630   7.208
 4083POPC   C4B52126  44.339  34.334   7.642
 4084POPC   NC352127  24.465  22.619   5.460
 4084POPC   PO452128  24.245  23.236   5.596
 4084POPC   GL152129  24.360  23.019   5.925
 4084POPC   GL252130  24.595  22.869   5.866
 4084POPC   C1A52131  24.340  23.045   6.344
 4084POPC   D2A52132  24.028  23.272   6.546
 4084POPC   C3A52133  24.157  23.307   6.946
 4084POPC   C4A52134  24.046  23.101   7.277
 4084POPC   C1B52135  24.788  22.745   6.228
 4084POPC   C2B52136  24.616  22.733   6.653
 4084POPC   C3B52137  24.476  22.905   7.053
 4084POPC   C4B52138  24.613  22.834   7.466
 4085POPC   NC352139  37.177   8.683   5.454
 4085POPC   PO452140  36.831   9.312   5.380
 4085POPC   GL152141  36.779   9.097   5.797
 4085POPC   GL252142  37.032   8.840   5.930
 4085POPC   C1A52143  36.620   9.014   6.229
 4085POPC   D2A52144  36.698   8.854   6.633
 4085POPC   C3A52145  36.608   9.141   6.984
 4085POPC   C4A52146  36.560   8.951   7.381
 4085POPC   C1B52147  37.087   9.207   6.214
 4085POPC   C2B52148  37.027   9.311   6.664
 4085POPC   C3B52149  37.136   9.258   7.112
 4085POPC   C4B52150  37.052   9.034   7.516
 4086POPC   NC352151   7.528   0.238   5.006
 4086POPC   PO452152   7.924   0.498   5.468
 4086POPC   GL152153   7.563   0.422   5.781
 4086POPC   GL252154   7.202   0.300   5.755
 4086POPC   C1A52155   7.563   0.297   6.227
 4086POPC   D2A52156   7.664   0.070   6.605
 4086POPC   C3A52157   7.639   0.362   6.925
 4086POPC   C4A52158   7.552   0.454   7.349
 4086POPC   C1B52159   7.097   0.484   6.162
 4086POPC   C2B52160   7.259   0.592   6.580
 4086POPC   C3B52161   7.141   0.511   7.016
 4086POPC   C4B52162   7.186   0.822   7.346
 4087POPC   NC352163  28.390  20.039   5.421
 4087POPC   PO452164  28.647  19.356   5.367
 4087POPC   GL152165  28.641  19.632   5.716
 4087POPC   GL252166  28.275  19.694   5.798
 4087POPC   C1A52167  28.627  19.603   6.170
 4087POPC   D2A52168  28.346  19.648   6.564
 4087POPC   C3A52169  28.507  19.551   6.995
 4087POPC   C4A52170  28.787  19.610   7.369
 4087POPC   C1B52171  28.386  20.053   6.081
 4087POPC   C2B52172  28.247  20.132   6.491
 4087POPC   C3B52173  28.292  20.046   6.902
 4087POPC   C4B52174  28.481  20.024   7.292
 4088POPC   NC352175   9.299  38.608   5.439
 4088POPC   PO452176   8.850  38.258   5.287
 4088POPC   GL152177   8.910  38.307   5.779
 4088POPC   GL252178   9.243  38.426   5.925
 4088POPC   C1A52179   8.865  38.383   6.283
 4088POPC   D2A52180   9.013  38.496   6.743
 4088POPC   C3A52181   8.775  38.601   7.150
 4088POPC   C4A52182   8.829  38.862   7.543
 4088POPC   C1B52183   9.331  38.641   6.345
 4088POPC   C2B52184   9.448  38.796   6.769
 4088POPC   C3B52185   9.209  38.914   7.134
 4088POPC   C4B52186   9.358  38.791   7.538
 4089POPC   NC352187  23.984   1.725   5.625
 4089POPC   PO452188  23.729   2.184   5.164
 4089POPC   GL152189  23.694   2.140   5.694
 4089POPC   GL252190  23.425   1.932   5.792
 4089POPC   C1A52191  23.906   2.012   6.183
 4089POPC   D2A52192  23.959   1.734   6.582
 4089POPC   C3A52193  23.923   1.984   6.982
 4089POPC   C4A52194  23.983   2.406   7.167
 4089POPC   C1B52195  23.534   1.665   6.179
 4089POPC   C2B52196  23.493   1.505   6.592
 4089POPC   C3B52197  23.502   1.667   7.005
 4089POPC   C4B52198  23.691   1.801   7.402
 4090POPC   NC352199  17.293  16.642   5.345
 4090POPC   PO452200  17.859  17.000   5.567
 4090POPC   GL152201  17.512  16.796   5.791
 4090POPC   GL252202  17.147  16.892   5.777
 4090POPC   C1A52203  17.532  16.760   6.219
 4090POPC   D2A52204  17.750  17.007   6.500
 4090POPC   C3A52205  17.568  16.837   6.848
 4090POPC   C4A52206  17.587  16.670   7.262
 4090POPC   C1B52207  17.023  16.681   6.185
 4090POPC   C2B52208  17.183  16.534   6.598
 4090POPC   C3B52209  17.112  16.703   7.034
 4090POPC   C4B52210  17.163  16.791   7.515
 4091POPC   NC352211  10.857  40.015   5.378
 4091POPC   PO452212  11.436  39.673   5.417
 4091POPC   GL152213  11.279  39.962   5.728
 4091POPC   GL252214  11.226  39.685   5.916
 4091POPC   C1A52215  11.353  40.123   6.178
 4091POPC   D2A52216  11.167  40.194   6.636
 4091POPC   C3A52217  11.366  40.194   7.078
 4091POPC   C4A52218  11.416  40.281   7.550
 4091POPC   C1B52219  11.178  39.495   6.316
 4091POPC   C2B52220  11.127  39.683   6.748
 4091POPC   C3B52221  11.196  39.738   7.206
 4091POPC   C4B52222  11.240  39.791   7.622
 4092POPC   NC352223   0.616  10.969   5.530
 4092POPC   PO452224   0.282  10.446   5.145
 4092POPC   GL152225   0.134  10.574   5.661
 4092POPC   GL252226   0.341  10.772   5.929
 4092POPC   C1A52227   0.159  10.359   6.120
 4092POPC   D2A52228   0.258  10.634   6.502
 4092POPC   C3A52229   0.464  10.489   6.920
 4092POPC   C4A52230   0.273  10.515   7.355
 4092POPC   C1B52231   0.657  10.501   6.225
 4092POPC   C2B52232   0.810  10.285   6.597
 4092POPC   C3B52233   0.697  10.025   6.971
 4092POPC   C4B52234   0.632  10.141   7.421
 4093POPC   NC352235  41.240  38.058   5.464
 4093POPC   PO452236  41.380  37.314   5.459
 4093POPC   GL152237  41.611  37.657   5.768
 4093POPC   GL252238  41.438  37.948   5.906
 4093POPC   C1A52239  41.862  37.854   6.132
 4093POPC   D2A52240  42.069  37.631   6.485
 4093POPC   C3A52241  41.763  37.597   6.805
 4093POPC   C4A52242  41.666  37.686   7.206
 4093POPC   C1B52243  41.133  38.043   6.189
 4093POPC   C2B52244  41.054  37.837   6.574
 4093POPC   C3B52245  41.268  37.839   6.927
 4093POPC   C4B52246  41.184  37.747   7.310
 4094POPC   NC352247  27.292   3.388   5.510
 4094POPC   PO452248  27.698   3.609   5.154
 4094POPC   GL152249  27.718   3.583   5.716
 4094POPC   GL252250  27.471   3.767   5.879
 4094POPC   C1A52251  27.881   3.762   6.152
 4094POPC   D2A52252  27.617   3.764   6.547
 4094POPC   C3A52253  27.832   3.731   6.928
 4094POPC   C4A52254  27.750   3.733   7.356
 4094POPC   C1B52255  27.496   3.413   6.178
 4094POPC   C2B52256  27.362   3.314   6.605
 4094POPC   C3B52257  27.423   3.415   7.041
 4094POPC   C4B52258  27.459   3.306   7.489
 4095POPC   NC352259   2.425   7.574   5.638
 4095POPC   PO452260   2.912   7.217   5.412
 4095POPC   GL152261   2.728   7.165   5.791
 4095POPC   GL252262   2.877   7.495   5.897
 4095POPC   C1A52263   2.793   7.123   6.245
 4095POPC   D2A52264   2.656   7.368   6.592
 4095POPC   C3A52265   2.772   7.233   7.000
 4095POPC   C4A52266   2.817   7.350   7.454
 4095POPC   C1B52267   2.899   7.757   6.281
 4095POPC   C2B52268   2.596   7.884   6.597
 4095POPC   C3B52269   2.531   7.687   6.986
 4095POPC   C4B52270   2.357   7.487   7.315
 4096POPC   NC352271  30.022  39.551   5.412
 4096POPC   PO452272  29.733  38.930   5.578
 4096POPC   GL152273  29.881  39.108   5.943
 4096POPC   GL252274  29.564  38.928   6.067
 4096POPC   C1A52275  29.892  39.532   6.166
 4096POPC   D2A52276  29.771  39.649   6.606
 4096POPC   C3A52277  29.978  39.498   7.016
 4096POPC   C4A52278  30.055  39.280   7.439
 4096POPC   C1B52279  29.614  39.190   6.398
 4096POPC   C2B52280  30.029  39.203   6.552
 4096POPC   C3B52281  30.104  38.995   6.891
 4096POPC   C4B52282  29.774  38.994   7.155
 4097POPC   NC352283  40.929  37.342   5.335
 4097POPC   PO452284  40.744  37.939   5.482
 4097POPC   GL152285  40.846  37.812   5.840
 4097POPC   GL252286  41.094  37.622   5.737
 4097POPC   C1A52287  40.672  37.797   6.240
 4097POPC   D2A52288  40.509  37.708   6.637
 4097POPC   C3A52289  40.481  37.878   7.009
 4097POPC   C4A52290  40.736  37.959   7.347
 4097POPC   C1B52291  41.148  37.512   6.159
 4097POPC   C2B52292  40.864  37.358   6.495
 4097POPC   C3B52293  40.863  37.498   6.946
 4097POPC   C4B52294  40.864  37.344   7.370
 4098POPC   NC352295  40.849  27.427   5.229
 4098POPC   PO452296  40.212  27.493   5.434
 4098POPC   GL152297  40.533  27.542   5.781
 4098POPC   GL252298  40.877  27.440   5.755
 4098POPC   C1A52299  40.736  27.754   6.154
 4098POPC   D2A52300  40.792  27.579   6.582
 4098POPC   C3A52301  41.089  27.675   6.928
 4098POPC   C4A52302  40.863  27.760   7.319
 4098POPC   C1B52303  40.762  27.227   6.163
 4098POPC   C2B52304  40.696  27.077   6.595
 4098POPC   C3B52305  40.744  27.299   7.021
 4098POPC   C4B52306  41.078  27.232   7.326
 4099POPC   NC352307  15.597  38.844   5.478
 4099POPC   PO452308  16.259  38.461   5.430
 4099POPC   GL152309  16.044  38.401   5.784
 4099POPC   GL252310  16.011  38.744   5.793
 4099POPC   C1A52311  15.826  38.432   6.176
 4099POPC   D2A52312  16.025  38.380   6.555
 4099POPC   C3A52313  15.833  38.457   6.952
 4099POPC   C4A52314  15.606  38.421   7.346
 4099POPC   C1B52315  16.211  38.745   6.198
 4099POPC   C2B52316  16.438  38.691   6.584
 4099POPC   C3B52317  16.230  38.767   6.961
 4099POPC   C4B52318  16.224  38.569   7.343
 4100POPC   NC352319  43.836  34.368   5.165
 4100POPC   PO452320  44.106  33.798   5.330
 4100POPC   GL152321  44.213  33.826   5.771
 4100POPC   GL252322  43.861  33.840   5.860
 4100POPC   C1A52323  44.223  33.696   6.212
 4100POPC   D2A52324  43.952  33.612   6.574
 4100POPC   C3A52325  44.085  33.766   6.985
 4100POPC   C4A52326  44.023  33.817   7.452
 4100POPC   C1B52327  43.595  34.108   6.110
 4100POPC   C2B52328  43.507  34.116   6.536
 4100POPC   C3B52329  43.548  33.822   6.856
 4100POPC   C4B52330  43.586  33.980   7.261
 4101POPC   NC352331  10.245  25.507   5.404
 4101POPC   PO452332  10.320  24.970   5.879
 4101POPC   GL152333  10.471  25.374   5.880
 4101POPC   GL252334  10.145  25.538   5.923
 4101POPC   C1A52335  10.813  25.544   6.176
 4101POPC   D2A52336  10.798  25.505   6.648
 4101POPC   C3A52337  10.569  25.133   6.822
 4101POPC   C4A52338  10.309  25.154   7.197
 4101POPC   C1B52339  10.212  25.425   6.372
 4101POPC   C2B52340  10.202  25.490   6.821
 4101POPC   C3B52341  10.093  25.703   7.237
 4101POPC   C4B52342  10.060  25.565   7.695
 4102POPC   NC352343  26.384   3.081   5.534
 4102POPC   PO452344  25.969   2.602   5.285
 4102POPC   GL152345  25.876   2.661   5.758
 4102POPC   GL252346  26.146   2.840   5.910
 4102POPC   C1A52347  25.802   2.696   6.246
 4102POPC   D2A52348  26.053   2.868   6.605
 4102POPC   C3A52349  26.023   2.658   7.035
 4102POPC   C4A52350  25.666   2.412   7.154
 4102POPC   C1B52351  26.361   2.620   6.245
 4102POPC   C2B52352  26.442   2.537   6.676
 4102POPC   C3B52353  26.456   2.916   6.915
 4102POPC   C4B52354  26.324   3.048   7.324
 4103POPC   NC352355   9.161  36.881   5.262
 4103POPC   PO452356   8.594  36.542   5.481
 4103POPC   GL152357   8.868  36.711   5.810
 4103POPC   GL252358   9.227  36.757   5.761
 4103POPC   C1A52359   8.942  36.744   6.256
 4103POPC   D2A52360   9.077  36.670   6.677
 4103POPC   C3A52361   8.852  36.657   7.053
 4103POPC   C4A52362   8.702  36.736   7.475
 4103POPC   C1B52363   9.301  37.082   6.087
 4103POPC   C2B52364   9.142  37.163   6.507
 4103POPC   C3B52365   8.979  37.146   6.928
 4103POPC   C4B52366   9.126  37.003   7.333
 4104POPC   NC352367  38.402  24.569   5.574
 4104POPC   PO452368  38.265  23.998   5.386
 4104POPC   GL152369  38.567  24.108   5.757
 4104POPC   GL252370  38.842  24.389   5.773
 4104POPC   C1A52371  38.643  24.163   6.212
 4104POPC   D2A52372  38.344  24.324   6.514
 4104POPC   C3A52373  38.443  24.494   6.918
 4104POPC   C4A52374  38.247  24.431   7.302
 4104POPC   C1B52375  38.777  24.676   6.123
 4104POPC   C2B52376  38.702  24.758   6.559
 4104POPC   C3B52377  38.896  24.725   6.973
 4104POPC   C4B52378  38.818  24.446   7.345
 4105POPC   NC352379  16.369  12.561   5.477
 4105POPC   PO452380  17.047  12.642   5.628
 4105POPC   GL152381  16.696  12.657   5.853
 4105POPC   GL252382  16.488  12.952   5.806
 4105POPC   C1A52383  16.518  12.561   6.228
 4105POPC   D2A52384  16.484  12.784   6.596
 4105POPC   C3A52385  16.555  12.624   7.001
 4105POPC   C4A52386  16.560  12.821   7.398
 4105POPC   C1B52387  16.759  13.022   6.188
 4105POPC   C2B52388  16.858  13.132   6.609
 4105POPC   C3B52389  16.669  13.141   6.999
 4105POPC   C4B52390  16.800  13.276   7.438
 4106POPC   NC352391  36.755  37.886   5.436
 4106POPC   PO452392  36.724  37.227   5.471
 4106POPC   GL152393  36.902  37.465   5.787
 4106POPC   GL252394  36.947  37.819   5.889
 4106POPC   C1A52395  36.992  37.416   6.187
 4106POPC   D2A52396  36.818  37.635   6.510
 4106POPC   C3A52397  36.937  37.480   6.917
 4106POPC   C4A52398  36.724  37.403   7.282
 4106POPC   C1B52399  36.625  38.093   6.074
 4106POPC   C2B52400  36.611  38.189   6.493
 4106POPC   C3B52401  36.859  38.035   6.820
 4106POPC   C4B52402  36.756  37.910   7.218
 4107POPC   NC352403   4.015  44.831   5.440
 4107POPC   PO452404   4.628  44.416   5.464
 4107POPC   GL152405   4.405  44.649   5.768
 4107POPC   GL252406   4.097  44.448   5.819
 4107POPC   C1A52407   4.468  44.831   6.181
 4107POPC   D2A52408   4.281  44.618   6.516
 4107POPC   C3A52409   4.384  44.538   6.931
 4107POPC   C4A52410   4.480  44.200   7.215
 4107POPC   C1B52411   3.960  44.790   6.092
 4107POPC   C2B52412   3.931  44.966   6.488
 4107POPC   C3B52413   4.119   0.033   6.860
 4107POPC   C4B52414   3.969  44.948   7.258
 4108POPC   NC352415  19.833  17.956   5.443
 4108POPC   PO452416  19.662  18.618   5.505
 4108POPC   GL152417  19.869  18.331   5.770
 4108POPC   GL252418  20.196  18.285   5.647
 4108POPC   C1A52419  19.901  18.146   6.149
 4108POPC   D2A52420  19.830  18.378   6.544
 4108POPC   C3A52421  19.834  18.167   6.939
 4108POPC   C4A52422  19.741  18.142   7.360
 4108POPC   C1B52423  20.332  18.483   6.038
 4108POPC   C2B52424  20.456  18.473   6.484
 4108POPC   C3B52425  20.247  18.493   6.880
 4108POPC   C4B52426  19.978  18.587   7.249
 4109POPC   NC352427  39.578  41.030   5.425
 4109POPC   PO452428  39.034  40.678   5.506
 4109POPC   GL152429  39.374  40.737   5.805
 4109POPC   GL252430  39.443  41.070   5.930
 4109POPC   C1A52431  39.617  40.550   6.121
 4109POPC   D2A52432  39.548  40.405   6.542
 4109POPC   C3A52433  39.244  40.591   6.838
 4109POPC   C4A52434  39.280  40.768   7.246
 4109POPC   C1B52435  39.311  40.907   6.335
 4109POPC   C2B52436  39.250  41.107   6.718
 4109POPC   C3B52437  39.019  41.150   7.062
 4109POPC   C4B52438  39.112  41.190   7.477
 4110POPC   NC352439  43.326  18.720   5.467
 4110POPC   PO452440  43.121  19.329   5.483
 4110POPC   GL152441  43.050  19.085   5.813
 4110POPC   GL252442  42.709  19.036   5.888
 4110POPC   C1A52443  43.280  18.989   6.196
 4110POPC   D2A52444  43.482  18.804   6.573
 4110POPC   C3A52445  43.359  19.002   6.969
 4110POPC   C4A52446  43.237  18.855   7.394
 4110POPC   C1B52447  42.781  18.841   6.249
 4110POPC   C2B52448  42.963  18.803   6.631
 4110POPC   C3B52449  42.853  18.894   7.037
 4110POPC   C4B52450  42.788  18.557   7.281
 4111POPC   NC352451  38.206  18.029   5.276
 4111POPC   PO452452  38.534  18.574   5.308
 4111POPC   GL152453  38.401  18.337   5.667
 4111POPC   GL252454  38.760  18.235   5.638
 4111POPC   C1A52455  38.202  18.312   6.115
 4111POPC   D2A52456  38.263  18.129   6.513
 4111POPC   C3A52457  38.118  18.372   6.852
 4111POPC   C4A52458  38.300  18.275   7.249
 4111POPC   C1B52459  38.671  18.151   6.064
 4111POPC   C2B52460  38.789  18.146   6.487
 4111POPC   C3B52461  38.682  18.061   6.897
 4111POPC   C4B52462  38.812  18.291   7.264
 4112POPC   NC352463   5.177  25.450   5.433
 4112POPC   PO452464   4.557  25.316   5.491
 4112POPC   GL152465   4.868  25.267   5.830
 4112POPC   GL252466   5.041  24.967   5.733
 4112POPC   C1A52467   4.955  25.305   6.300
 4112POPC   D2A52468   4.838  25.206   6.739
 4112POPC   C3A52469   5.037  25.410   7.096
 4112POPC   C4A52470   5.275  25.363   7.449
 4112POPC   C1B52471   5.283  24.965   6.098
 4112POPC   C2B52472   5.186  24.827   6.522
 4112POPC   C3B52473   5.237  24.944   6.939
 4112POPC   C4B52474   5.181  24.833   7.330
 4113POPC   NC352475   0.785  14.851   5.449
 4113POPC   PO452476   0.132  14.853   5.429
 4113POPC   GL152477   0.263  14.449   5.667
 4113POPC   GL252478   0.630  14.401   5.725
 4113POPC   C1A52479   0.338  14.241   6.102
 4113POPC   D2A52480   0.279  14.430   6.512
 4113POPC   C3A52481   0.366  14.202   6.870
 4113POPC   C4A52482   0.250  14.300   7.273
 4113POPC   C1B52483   0.804  14.480   6.152
 4113POPC   C2B52484   0.738  14.682   6.540
 4113POPC   C3B52485   0.562  14.678   6.946
 4113POPC   C4B52486   0.753  14.478   7.292
 4114POPC   NC352487  14.974   6.869   5.519
 4114POPC   PO452488  15.430   6.383   5.503
 4114POPC   GL152489  15.176   6.563   5.865
 4114POPC   GL252490  14.791   6.508   5.851
 4114POPC   C1A52491  15.269   6.718   6.266
 4114POPC   D2A52492  15.623   6.638   6.535
 4114POPC   C3A52493  15.488   6.662   6.950
 4114POPC   C4A52494  15.307   6.632   7.342
 4114POPC   C1B52495  14.874   6.398   6.286
 4114POPC   C2B52496  14.964   6.573   6.690
 4114POPC   C3B52497  14.871   6.726   7.094
 4114POPC   C4B52498  15.114   7.087   7.172
 4115POPC   NC352499   9.722   7.255   5.606
 4115POPC   PO452500   9.619   6.642   5.359
 4115POPC   GL152501   9.785   6.744   5.759
 4115POPC   GL252502   9.470   6.920   5.916
 4115POPC   C1A52503   9.931   6.939   6.158
 4115POPC   D2A52504   9.655   7.062   6.497
 4115POPC   C3A52505   9.663   6.790   6.877
 4115POPC   C4A52506   9.523   6.927   7.330
 4115POPC   C1B52507   9.552   6.582   6.214
 4115POPC   C2B52508   9.484   6.363   6.593
 4115POPC   C3B52509   9.691   6.276   6.956
 4115POPC   C4B52510   9.757   6.497   7.346
 4116POPC   NC352511  23.905  44.182   5.317
 4116POPC   PO452512  23.911  44.802   5.436
 4116POPC   GL152513  23.951  44.524   5.758
 4116POPC   GL252514  23.654  44.288   5.749
 4116POPC   C1A52515  23.921  44.641   6.194
 4116POPC   D2A52516  23.690  44.553   6.578
 4116POPC   C3A52517  23.728  44.669   7.004
 4116POPC   C4A52518  24.085  44.795   7.241
 4116POPC   C1B52519  23.555  44.255   6.189
 4116POPC   C2B52520  23.385  44.152   6.629
 4116POPC   C3B52521  23.457  44.162   7.094
 4116POPC   C4B52522  23.460  44.465   7.430
 4117POPC   NC352523  44.172  25.785   5.556
 4117POPC   PO452524  44.751  25.906   5.142
 4117POPC   GL152525  44.681  25.914   5.623
 4117POPC   GL252526  44.490  26.208   5.697
 4117POPC   C1A52527  44.716  26.023   6.115
 4117POPC   D2A52528  44.677  26.337   6.483
 4117POPC   C3A52529  44.618  26.255   6.962
 4117POPC   C4A52530  44.569  26.242   7.461
 4117POPC   C1B52531  44.217  26.164   6.075
 4117POPC   C2B52532  44.202  26.050   6.479
 4117POPC   C3B52533  44.165  25.979   6.902
 4117POPC   C4B52534  44.130  26.280   7.226
 4118POPC   NC352535  22.782  35.182   5.226
 4118POPC   PO452536  23.319  35.546   5.276
 4118POPC   GL152537  23.070  35.323   5.642
 4118POPC   GL252538  22.788  35.564   5.639
 4118POPC   C1A52539  22.933  35.200   6.106
 4118POPC   D2A52540  22.797  35.296   6.539
 4118POPC   C3A52541  22.852  35.137   6.953
 4118POPC   C4A52542  23.051  35.415   7.286
 4118POPC   C1B52543  22.795  35.691   6.087
 4118POPC   C2B52544  22.828  35.858   6.498
 4118POPC   C3B52545  22.894  35.690   6.885
 4118POPC   C4B52546  22.731  35.830   7.314
 4119POPC   NC352547  41.182  39.072   5.480
 4119POPC   PO452548  40.504  39.228   5.357
 4119POPC   GL152549  40.593  39.156   5.813
 4119POPC   GL252550  40.941  39.251   5.947
 4119POPC   C1A52551  40.621  38.932   6.195
 4119POPC   D2A52552  40.882  39.052   6.531
 4119POPC   C3A52553  40.704  39.208   6.900
 4119POPC   C4A52554  40.849  39.141   7.311
 4119POPC   C1B52555  40.641  39.446   6.268
 4119POPC   C2B52556  40.343  39.700   6.497
 4119POPC   C3B52557  40.592  39.740   6.865
 4119POPC   C4B52558  40.612  39.584   7.278
 4120POPC   NC352559  32.702  40.598   5.151
 4120POPC   PO452560  32.038  40.695   5.388
 4120POPC   GL152561  32.356  40.727   5.702
 4120POPC   GL252562  32.461  41.062   5.681
 4120POPC   C1A52563  32.409  40.522   6.115
 4120POPC   D2A52564  32.429  40.667   6.556
 4120POPC   C3A52565  32.247  40.613   6.988
 4120POPC   C4A52566  32.384  40.667   7.426
 4120POPC   C1B52567  32.257  40.999   6.110
 4120POPC   C2B52568  32.234  41.192   6.487
 4120POPC   C3B52569  32.467  41.096   6.850
 4120POPC   C4B52570  32.224  41.083   7.208
 4121POPC   NC352571  14.869  39.169   5.424
 4121POPC   PO452572  15.518  39.272   5.309
 4121POPC   GL152573  15.266  39.225   5.735
 4121POPC   GL252574  15.006  38.997   5.913
 4121POPC   C1A52575  15.315  39.309   6.180
 4121POPC   D2A52576  15.355  39.057   6.542
 4121POPC   C3A52577  15.284  39.236   6.927
 4121POPC   C4A52578  15.369  39.115   7.341
 4121POPC   C1B52579  14.888  38.918   6.360
 4121POPC   C2B52580  14.890  38.923   6.834
 4121POPC   C3B52581  14.863  39.075   7.257
 4121POPC   C4B52582  14.824  38.862   7.674
 4122POPC   NC352583  30.895  39.841   5.508
 4122POPC   PO452584  30.370  40.141   5.494
 4122POPC   GL152585  30.630  40.180   5.820
 4122POPC   GL252586  30.572  39.838   5.910
 4122POPC   C1A52587  30.588  40.251   6.251
 4122POPC   D2A52588  30.544  40.076   6.646
 4122POPC   C3A52589  30.780  40.210   6.965
 4122POPC   C4A52590  30.650  40.129   7.360
 4122POPC   C1B52591  30.738  39.763   6.285
 4122POPC   C2B52592  30.822  39.628   6.656
 4122POPC   C3B52593  30.740  39.719   7.056
 4122POPC   C4B52594  30.871  39.553   7.430
 4123POPC   NC352595  25.237   7.039   5.357
 4123POPC   PO452596  24.824   6.495   5.265
 4123POPC   GL152597  24.933   6.498   5.690
 4123POPC   GL252598  24.863   6.840   5.728
 4123POPC   C1A52599  25.221   6.548   6.064
 4123POPC   D2A52600  25.467   6.772   6.398
 4123POPC   C3A52601  25.433   6.761   6.813
 4123POPC   C4A52602  25.319   6.711   7.231
 4123POPC   C1B52603  24.747   6.752   6.132
 4123POPC   C2B52604  24.950   6.768   6.531
 4123POPC   C3B52605  24.926   6.570   6.919
 4123POPC   C4B52606  24.770   6.541   7.343
 4124POPC   NC352607   3.538  30.970   5.277
 4124POPC   PO452608   4.006  30.490   5.465
 4124POPC   GL152609   3.642  30.631   5.677
 4124POPC   GL252610   3.829  30.785   5.910
 4124POPC   C1A52611   3.278  30.525   5.955
 4124POPC   D2A52612   3.305  30.382   6.401
 4124POPC   C3A52613   3.445  30.635   6.768
 4124POPC   C4A52614   3.285  30.594   7.178
 4124POPC   C1B52615   3.546  30.832   6.249
 4124POPC   C2B52616   3.810  30.921   6.563
 4124POPC   C3B52617   3.865  31.090   6.946
 4124POPC   C4B52618   3.475  31.079   7.141
 4125POPC   NC352619  36.555  15.618   5.647
 4125POPC   PO452620  37.061  15.994   5.384
 4125POPC   GL152621  36.887  16.007   5.803
 4125POPC   GL252622  37.098  15.738   5.846
 4125POPC   C1A52623  36.746  15.871   6.249
 4125POPC   D2A52624  36.591  15.859   6.695
 4125POPC   C3A52625  36.851  15.941   7.086
 4125POPC   C4A52626  36.868  16.065   7.538
 4125POPC   C1B52627  37.176  15.561   6.228
 4125POPC   C2B52628  37.001  15.510   6.611
 4125POPC   C3B52629  37.164  15.519   7.024
 4125POPC   C4B52630  37.196  15.712   7.437
 4126POPC   NC352631  41.199  42.546   5.403
 4126POPC   PO452632  41.798  42.263   5.222
 4126POPC   GL152633  41.759  42.281   5.673
 4126POPC   GL252634  41.789  42.624   5.630
 4126POPC   C1A52635  41.497  42.133   6.069
 4126POPC   D2A52636  41.442  42.304   6.493
 4126POPC   C3A52637  41.380  42.168   6.932
 4126POPC   C4A52638  41.694  42.109   7.266
 4126POPC   C1B52639  41.769  42.579   6.084
 4126POPC   C2B52640  41.960  42.429   6.462
 4126POPC   C3B52641  41.828  42.445   6.878
 4126POPC   C4B52642  41.691  42.621   7.260
 4127POPC   NC352643  18.377   9.970   5.268
 4127POPC   PO452644  18.078   9.406   5.418
 4127POPC   GL152645  18.239   9.645   5.764
 4127POPC   GL252646  18.221  10.020   5.772
 4127POPC   C1A52647  18.184   9.604   6.213
 4127POPC   D2A52648  18.030   9.822   6.585
 4127POPC   C3A52649  18.318   9.877   6.904
 4127POPC   C4A52650  18.328   9.601   7.245
 4127POPC   C1B52651  18.545   9.974   6.084
 4127POPC   C2B52652  18.733   9.949   6.499
 4127POPC   C3B52653  18.792  10.061   6.910
 4127POPC   C4B52654  18.677   9.951   7.321
 4128POPC   NC352655   1.053  28.073   5.418
 4128POPC   PO452656   0.924  28.681   5.784
 4128POPC   GL152657   1.149  28.303   5.884
 4128POPC   GL252658   1.025  27.962   5.898
 4128POPC   C1A52659   1.382  28.254   6.277
 4128POPC   D2A52660   1.319  28.451   6.710
 4128POPC   C3A52661   1.584  28.424   7.097
 4128POPC   C4A52662   1.643  28.323   7.558
 4128POPC   C1B52663   0.969  27.900   6.299
 4128POPC   C2B52664   1.227  27.920   6.639
 4128POPC   C3B52665   1.103  28.087   7.007
 4128POPC   C4B52666   1.223  28.061   7.417
 4129POPC   NC352667  34.910   5.843   5.165
 4129POPC   PO452668  35.541   6.011   5.247
 4129POPC   GL152669  35.487   5.874   5.677
 4129POPC   GL252670  35.781   5.678   5.766
 4129POPC   C1A52671  35.201   5.818   6.031
 4129POPC   D2A52672  35.238   5.602   6.409
 4129POPC   C3A52673  35.193   5.766   6.858
 4129POPC   C4A52674  35.253   5.769   7.324
 4129POPC   C1B52675  35.696   5.849   6.187
 4129POPC   C2B52676  35.658   5.764   6.628
 4129POPC   C3B52677  35.676   5.720   7.068
 4129POPC   C4B52678  35.720   5.679   7.531
 4130POPC   NC352679  15.281   0.883   5.408
 4130POPC   PO452680  15.061   0.223   5.503
 4130POPC   GL152681  15.262   0.262   5.903
 4130POPC   GL252682  15.416   0.567   5.800
 4130POPC   C1A52683  15.247   0.317   6.356
 4130POPC   D2A52684  15.067   0.374   6.775
 4130POPC   C3A52685  15.311   0.196   7.140
 4130POPC   C4A52686  15.258   0.173   7.635
 4130POPC   C1B52687  15.246   0.792   6.137
 4130POPC   C2B52688  15.353   0.809   6.562
 4130POPC   C3B52689  15.291   0.763   7.011
 4130POPC   C4B52690  15.359   0.622   7.402
 4131POPC   NC352691  16.358  16.945   5.433
 4131POPC   PO452692  16.875  16.478   5.468
 4131POPC   GL152693  16.655  16.648   5.815
 4131POPC   GL252694  16.648  16.980   5.859
 4131POPC   C1A52695  16.510  16.664   6.254
 4131POPC   D2A52696  16.671  16.491   6.628
 4131POPC   C3A52697  16.564  16.658   7.024
 4131POPC   C4A52698  16.772  16.494   7.369
 4131POPC   C1B52699  16.802  17.168   6.194
 4131POPC   C2B52700  16.686  17.023   6.584
 4131POPC   C3B52701  16.611  17.178   6.952
 4131POPC   C4B52702  16.820  17.039   7.268
 4132POPC   NC352703  23.541   8.000   5.597
 4132POPC   PO452704  22.964   8.260   5.332
 4132POPC   GL152705  22.960   8.256   5.748
 4132POPC   GL252706  22.681   8.029   5.774
 4132POPC   C1A52707  23.119   8.125   6.174
 4132POPC   D2A52708  23.006   7.880   6.572
 4132POPC   C3A52709  23.162   7.965   6.999
 4132POPC   C4A52710  23.066   8.297   7.284
 4132POPC   C1B52711  22.617   8.236   6.142
 4132POPC   C2B52712  22.493   8.098   6.545
 4132POPC   C3B52713  22.649   8.146   6.950
 4132POPC   C4B52714  22.537   8.349   7.330
 4133POPC   NC352715  29.622   6.722   5.411
 4133POPC   PO452716  30.106   6.305   5.220
 4133POPC   GL152717  29.963   6.407   5.666
 4133POPC   GL252718  30.089   6.769   5.694
 4133POPC   C1A52719  29.781   6.604   6.091
 4133POPC   D2A52720  29.891   6.782   6.526
 4133POPC   C3A52721  29.864   6.511   6.909
 4133POPC   C4A52722  29.734   6.494   7.333
 4133POPC   C1B52723  30.301   6.768   6.119
 4133POPC   C2B52724  30.416   6.883   6.557
 4133POPC   C3B52725  30.269   6.850   6.975
 4133POPC   C4B52726  29.854   6.970   7.137
 4134POPC   NC352727   0.694  42.898   5.617
 4134POPC   PO452728   0.396  43.503   5.388
 4134POPC   GL152729   0.425  43.285   5.815
 4134POPC   GL252730   0.336  42.912   5.947
 4134POPC   C1A52731   0.451  43.277   6.275
 4134POPC   D2A52732   0.654  43.460   6.629
 4134POPC   C3A52733   0.563  43.282   7.030
 4134POPC   C4A52734   0.195  43.372   7.230
 4134POPC   C1B52735   0.251  42.799   6.360
 4134POPC   C2B52736   0.213  43.064   6.697
 4134POPC   C3B52737   0.113  42.893   7.066
 4134POPC   C4B52738   0.354  42.859   7.401
 4135POPC   NC352739  36.853  21.080   5.357
 4135POPC   PO452740  36.620  21.662   5.266
 4135POPC   GL152741  36.796  21.452   5.716
 4135POPC   GL252742  37.125  21.219   5.790
 4135POPC   C1A52743  36.776  21.313   6.183
 4135POPC   D2A52744  36.909  21.467   6.609
 4135POPC   C3A52745  36.616  21.375   6.918
 4135POPC   C4A52746  36.762  21.409   7.316
 4135POPC   C1B52747  37.107  20.936   6.209
 4135POPC   C2B52748  36.847  20.973   6.624
 4135POPC   C3B52749  36.982  20.996   7.090
 4135POPC   C4B52750  36.925  20.998   7.572
 4136POPC   NC352751  11.030  32.840   5.623
 4136POPC   PO452752  11.408  33.151   5.200
 4136POPC   GL152753  11.262  33.313   5.645
 4136POPC   GL252754  10.896  33.333   5.758
 4136POPC   C1A52755  11.306  33.269   6.123
 4136POPC   D2A52756  11.348  32.892   6.401
 4136POPC   C3A52757  11.381  32.944   6.875
 4136POPC   C4A52758  11.502  33.278   7.171
 4136POPC   C1B52759  10.793  33.264   6.215
 4136POPC   C2B52760  10.957  33.141   6.645
 4136POPC   C3B52761  10.953  33.214   7.106
 4136POPC   C4B52762  11.129  33.287   7.520
 4137POPC   NC352763   5.127  37.807   5.387
 4137POPC   PO452764   4.809  37.130   5.377
 4137POPC   GL152765   5.004  37.364   5.746
 4137POPC   GL252766   5.328  37.559   5.807
 4137POPC   C1A52767   5.094  37.374   6.215
 4137POPC   D2A52768   5.237  37.598   6.589
 4137POPC   C3A52769   5.267  37.391   6.991
 4137POPC   C4A52770   5.209  37.419   7.452
 4137POPC   C1B52771   5.178  37.897   6.151
 4137POPC   C2B52772   5.116  38.094   6.596
 4137POPC   C3B52773   5.172  37.916   7.016
 4137POPC   C4B52774   5.449  37.846   7.369
 4138POPC   NC352775  37.660  10.218   5.334
 4138POPC   PO452776  37.785   9.610   5.349
 4138POPC   GL152777  37.647   9.719   5.746
 4138POPC   GL252778  37.812  10.020   5.890
 4138POPC   C1A52779  37.708   9.494   6.138
 4138POPC   D2A52780  37.900   9.453   6.562
 4138POPC   C3A52781  37.607   9.435   6.930
 4138POPC   C4A52782  37.668   9.708   7.261
 4138POPC   C1B52783  37.872   9.923   6.353
 4138POPC   C2B52784  37.770   9.935   6.785
 4138POPC   C3B52785  38.029  10.050   7.118
 4138POPC   C4B52786  37.960  10.088   7.562
 4139POPC   NC352787  29.251  15.244   5.231
 4139POPC   PO452788  28.634  15.060   5.496
 4139POPC   GL152789  28.947  15.336   5.719
 4139POPC   GL252790  29.323  15.268   5.752
 4139POPC   C1A52791  28.961  15.472   6.154
 4139POPC   D2A52792  28.851  15.262   6.512
 4139POPC   C3A52793  29.164  15.308   6.818
 4139POPC   C4A52794  29.186  15.352   7.270
 4139POPC   C1B52795  29.242  15.038   6.156
 4139POPC   C2B52796  29.193  14.851   6.583
 4139POPC   C3B52797  29.097  14.857   7.054
 4139POPC   C4B52798  29.285  14.901   7.485
 4140POPC   NC352799  11.547  41.617   5.532
 4140POPC   PO452800  10.964  41.302   5.541
 4140POPC   GL152801  11.255  41.332   5.875
 4140POPC   GL252802  11.591  41.176   5.775
 4140POPC   C1A52803  11.374  41.660   6.192
 4140POPC   D2A52804  11.222  41.951   6.522
 4140POPC   C3A52805  11.290  41.707   6.928
 4140POPC   C4A52806  11.059  41.429   7.206
 4140POPC   C1B52807  11.571  41.144   6.218
 4140POPC   C2B52808  11.496  41.354   6.590
 4140POPC   C3B52809  11.454  41.176   6.975
 4140POPC   C4B52810  11.553  41.284   7.366
 4141POPC   NC352811   5.209  39.371   5.262
 4141POPC   PO452812   4.736  38.991   5.462
 4141POPC   GL152813   5.111  39.121   5.711
 4141POPC   GL252814   5.117  39.504   5.766
 4141POPC   C1A52815   5.121  39.014   6.154
 4141POPC   D2A52816   4.820  39.139   6.457
 4141POPC   C3A52817   4.860  39.100   6.911
 4141POPC   C4A52818   4.920  39.193   7.358
 4141POPC   C1B52819   5.380  39.452   6.146
 4141POPC   C2B52820   5.331  39.261   6.574
 4141POPC   C3B52821   5.261  39.393   7.008
 4141POPC   C4B52822   5.496  39.525   7.363
 4142POPC   NC352823  43.501  35.389   5.171
 4142POPC   PO452824  44.047  35.144   5.484
 4142POPC   GL152825  43.778  35.203   5.845
 4142POPC   GL252826  43.742  35.524   5.864
 4142POPC   C1A52827  43.887  35.288   6.287
 4142POPC   D2A52828  44.088  35.091   6.623
 4142POPC   C3A52829  43.994  35.270   7.037
 4142POPC   C4A52830  43.842  35.250   7.474
 4142POPC   C1B52831  43.517  35.637   6.252
 4142POPC   C2B52832  43.601  35.491   6.691
 4142POPC   C3B52833  43.573  35.558   7.134
 4142POPC   C4B52834  43.333  35.663   7.484
 4143POPC   NC352835   0.028  24.515   5.328
 4143POPC   PO452836  44.433  24.243   5.364
 4143POPC   GL152837  44.655  24.381   5.708
 4143POPC   GL252838  44.941  24.154   5.684
 4143POPC   C1A52839  44.552  24.397   6.159
 4143POPC   D2A52840  44.660  24.612   6.555
 4143POPC   C3A52841  44.430  24.580   6.935
 4143POPC   C4A52842  44.565  24.461   7.310
 4143POPC   C1B52843   0.073  24.265   6.116
 4143POPC   C2B52844   0.136  24.360   6.558
 4143POPC   C3B52845  44.918  24.332   6.960
 4143POPC   C4B52846   0.002  24.265   7.438
 4144POPC   NC352847  28.535  23.445   5.378
 4144POPC   PO452848  27.997  23.915   5.406
 4144POPC   GL152849  28.133  23.678   5.776
 4144POPC   GL252850  28.480  23.676   5.818
 4144POPC   C1A52851  28.219  23.612   6.248
 4144POPC   D2A52852  28.121  23.839   6.631
 4144POPC   C3A52853  28.147  23.739   7.075
 4144POPC   C4A52854  28.132  23.856   7.517
 4144POPC   C1B52855  28.635  23.945   6.120
 4144POPC   C2B52856  28.512  24.181   6.464
 4144POPC   C3B52857  28.712  24.122   6.858
 4144POPC   C4B52858  28.569  24.091   7.236
 4145POPC   NC352859  12.664  25.293   5.396
 4145POPC   PO452860  13.058  25.793   5.474
 4145POPC   GL152861  12.852  25.569   5.815
 4145POPC   GL252862  12.957  25.187   5.792
 4145POPC   C1A52863  12.875  25.398   6.240
 4145POPC   D2A52864  13.044  25.186   6.591
 4145POPC   C3A52865  13.022  25.359   6.997
 4145POPC   C4A52866  13.023  25.569   7.390
 4145POPC   C1B52867  12.600  25.005   6.053
 4145POPC   C2B52868  12.658  24.846   6.490
 4145POPC   C3B52869  12.613  25.097   6.861
 4145POPC   C4B52870  12.526  25.136   7.293
 4146POPC   NC352871  12.107  33.817   4.736
 4146POPC   PO452872  11.939  33.670   5.303
 4146POPC   GL152873  12.062  33.774   5.724
 4146POPC   GL252874  12.031  33.489   5.855
 4146POPC   C1A52875  12.081  33.910   6.178
 4146POPC   D2A52876  12.223  34.128   6.562
 4146POPC   C3A52877  12.059  34.016   6.965
 4146POPC   C4A52878  12.063  34.121   7.407
 4146POPC   C1B52879  11.788  33.460   6.205
 4146POPC   C2B52880  11.725  33.254   6.596
 4146POPC   C3B52881  11.956  33.349   6.957
 4146POPC   C4B52882  11.964  33.624   7.293
 4147POPC   NC352883  41.615   3.710   5.409
 4147POPC   PO452884  41.152   3.113   5.439
 4147POPC   GL152885  41.449   3.358   5.791
 4147POPC   GL252886  41.618   3.693   5.895
 4147POPC   C1A52887  41.267   3.530   6.215
 4147POPC   D2A52888  41.079   3.668   6.602
 4147POPC   C3A52889  41.278   3.399   6.871
 4147POPC   C4A52890  41.435   3.497   7.269
 4147POPC   C1B52891  41.774   3.500   6.251
 4147POPC   C2B52892  41.671   3.740   6.609
 4147POPC   C3B52893  41.955   3.897   6.913
 4147POPC   C4B52894  41.833   3.845   7.293
 4148POPC   NC352895  25.602  21.041   5.558
 4148POPC   PO452896  25.146  21.570   5.391
 4148POPC   GL152897  25.155  21.248   5.742
 4148POPC   GL252898  25.416  21.439   5.840
 4148POPC   C1A52899  25.258  21.091   6.165
 4148POPC   D2A52900  25.510  21.037   6.494
 4148POPC   C3A52901  25.391  21.285   6.843
 4148POPC   C4A52902  25.221  21.136   7.209
 4148POPC   C1B52903  25.328  21.680   6.214
 4148POPC   C2B52904  25.161  21.710   6.637
 4148POPC   C3B52905  25.281  21.756   7.091
 4148POPC   C4B52906  25.266  21.773   7.568
 4149POPC   NC352907  28.305  15.406   5.497
 4149POPC   PO452908  27.975  14.872   5.302
 4149POPC   GL152909  28.178  14.940   5.740
 4149POPC   GL252910  28.041  15.219   5.868
 4149POPC   C1A52911  28.434  15.089   6.148
 4149POPC   D2A52912  28.426  14.955   6.585
 4149POPC   C3A52913  28.651  15.084   6.962
 4149POPC   C4A52914  28.488  15.019   7.397
 4149POPC   C1B52915  28.066  15.431   6.239
 4149POPC   C2B52916  28.373  15.482   6.540
 4149POPC   C3B52917  28.289  15.429   6.958
 4149POPC   C4B52918  28.191  15.427   7.367
 4150POPC   NC352919  18.457   0.022   5.299
 4150POPC   PO452920  18.053  44.530   5.400
 4150POPC   GL152921  18.284  44.734   5.730
 4150POPC   GL252922  18.539  44.528   5.811
 4150POPC   C1A52923  18.390  44.869   6.178
 4150POPC   D2A52924  18.358   0.008   6.616
 4150POPC   C3A52925  18.376  44.762   6.981
 4150POPC   C4A52926  18.696  44.550   7.218
 4150POPC   C1B52927  18.381  44.333   6.193
 4150POPC   C2B52928  18.470  44.349   6.661
 4150POPC   C3B52929  18.353  44.220   7.076
 4150POPC   C4B52930  18.197  44.469   7.398
 4151POPC   NC352931  44.089  44.283   5.464
 4151POPC   PO452932  43.645  43.805   5.255
 4151POPC   GL152933  43.814  43.774   5.759
 4151POPC   GL252934  44.146  43.935   5.825
 4151POPC   C1A52935  43.854  43.977   6.215
 4151POPC   D2A52936  44.035  43.813   6.577
 4151POPC   C3A52937  43.872  43.999   6.909
 4151POPC   C4A52938  43.987  43.880   7.281
 4151POPC   C1B52939  44.259  44.275   6.171
 4151POPC   C2B52940  44.143  44.334   6.636
 4151POPC   C3B52941  44.219  44.315   7.117
 4151POPC   C4B52942  44.137  44.298   7.614
 4152POPC   NC352943  36.769  13.406   5.511
 4152POPC   PO452944  37.471  13.590   5.587
 4152POPC   GL152945  37.166  13.694   5.897
 4152POPC   GL252946  36.927  13.965   5.841
 4152POPC   C1A52947  36.854  13.498   6.194
 4152POPC   D2A52948  36.507  13.530   6.495
 4152POPC   C3A52949  36.699  13.564   6.895
 4152POPC   C4A52950  36.823  13.851   7.199
 4152POPC   C1B52951  37.028  13.997   6.308
 4152POPC   C2B52952  37.133  13.741   6.682
 4152POPC   C3B52953  37.309  13.851   7.101
 4152POPC   C4B52954  37.208  13.902   7.537
 4153POPC   NC352955  35.252  34.562   5.404
 4153POPC   PO452956  35.805  34.831   5.550
 4153POPC   GL152957  35.454  34.785   5.868
 4153POPC   GL252958  35.127  34.948   5.728
 4153POPC   C1A52959  35.423  34.545   6.309
 4153POPC   D2A52960  35.135  34.508   6.704
 4153POPC   C3A52961  35.364  34.516   7.124
 4153POPC   C4A52962  35.615  34.879   7.275
 4153POPC   C1B52963  35.014  34.792   6.135
 4153POPC   C2B52964  35.241  34.980   6.489
 4153POPC   C3B52965  35.222  34.971   6.926
 4153POPC   C4B52966  34.929  34.768   7.208
 4154POPC   NC352967  35.821  25.129   5.290
 4154POPC   PO452968  36.451  25.408   5.270
 4154POPC   GL152969  36.380  25.145   5.633
 4154POPC   GL252970  36.075  25.186   5.748
 4154POPC   C1A52971  36.425  25.155   6.123
 4154POPC   D2A52972  36.202  25.109   6.500
 4154POPC   C3A52973  36.104  25.343   6.854
 4154POPC   C4A52974  36.199  25.119   7.195
 4154POPC   C1B52975  35.943  25.381   6.142
 4154POPC   C2B52976  35.694  25.270   6.509
 4154POPC   C3B52977  35.586  25.439   6.891
 4154POPC   C4B52978  35.782  25.427   7.292
 4155POPC   NC352979  16.576   5.200   5.330
 4155POPC   PO452980  17.004   4.791   5.584
 4155POPC   GL152981  16.795   5.143   5.806
 4155POPC   GL252982  16.413   5.189   5.827
 4155POPC   C1A52983  16.763   5.278   6.227
 4155POPC   D2A52984  16.800   5.006   6.563
 4155POPC   C3A52985  16.915   5.115   6.940
 4155POPC   C4A52986  17.068   4.852   7.247
 4155POPC   C1B52987  16.271   5.371   6.234
 4155POPC   C2B52988  16.472   5.393   6.673
 4155POPC   C3B52989  16.429   5.119   7.092
 4155POPC   C4B52990  16.556   5.269   7.535
 4156POPC   NC352991  39.270  30.316   5.492
 4156POPC   PO452992  38.941  30.817   5.365
 4156POPC   GL152993  39.225  30.809   5.772
 4156POPC   GL252994  39.186  30.500   5.962
 4156POPC   C1A52995  39.416  30.877   6.232
 4156POPC   D2A52996  39.365  30.743   6.692
 4156POPC   C3A52997  39.380  30.973   7.107
 4156POPC   C4A52998  39.162  31.118   7.478
 4156POPC   C1B52999  39.638  30.384   6.076
 4156POPC   C2B53000  39.797  30.224   6.477
 4156POPC   C3B53001  39.754  30.428   6.844
 4156POPC   C4B53002  39.466  30.468   7.130
 4157POPC   NC353003  27.981  34.900   5.412
 4157POPC   PO453004  28.065  34.287   5.632
 4157POPC   GL153005  27.646  34.584   5.716
 4157POPC   GL253006  27.294  34.384   5.703
 4157POPC   C1A53007  27.339  34.769   6.054
 4157POPC   D2A53008  27.447  34.736   6.508
 4157POPC   C3A53009  27.384  34.916   6.921
 4157POPC   C4A53010  27.675  34.814   7.254
 4157POPC   C1B53011  27.473  34.273   6.127
 4157POPC   C2B53012  27.356  34.227   6.572
 4157POPC   C3B53013  27.442  34.299   7.034
 4157POPC   C4B53014  27.469  34.394   7.503
 4158POPC   NC353015  34.322  34.925   5.349
 4158POPC   PO453016  34.931  34.668   5.093
 4158POPC   GL153017  34.725  34.652   5.571
 4158POPC   GL253018  34.590  34.944   5.785
 4158POPC   C1A53019  34.582  34.493   6.038
 4158POPC   D2A53020  34.373  34.492   6.495
 4158POPC   C3A53021  34.622  34.553   6.867
 4158POPC   C4A53022  34.896  34.264   7.103
 4158POPC   C1B53023  34.367  34.916   6.214
 4158POPC   C2B53024  34.225  34.963   6.666
 4158POPC   C3B53025  34.167  34.718   7.043
 4158POPC   C4B53026  34.463  34.637   7.365
 4159POPC   NC353027   4.621  15.966   5.552
 4159POPC   PO453028   4.128  15.681   5.266
 4159POPC   GL153029   4.154  15.754   5.722
 4159POPC   GL253030   4.152  16.117   5.777
 4159POPC   C1A53031   4.417  15.715   6.121
 4159POPC   D2A53032   4.508  15.455   6.484
 4159POPC   C3A53033   4.489  15.668   6.880
 4159POPC   C4A53034   4.354  15.702   7.298
 4159POPC   C1B53035   3.963  15.970   6.176
 4159POPC   C2B53036   4.107  15.933   6.607
 4159POPC   C3B53037   3.943  16.097   7.022
 4159POPC   C4B53038   4.126  16.097   7.471
 4160POPC   NC353039  12.661  36.535   5.502
 4160POPC   PO453040  12.953  37.140   5.455
 4160POPC   GL153041  12.931  37.035   5.834
 4160POPC   GL253042  12.605  36.901   5.851
 4160POPC   C1A53043  12.905  37.056   6.253
 4160POPC   D2A53044  12.972  36.807   6.572
 4160POPC   C3A53045  12.891  37.082   6.914
 4160POPC   C4A53046  12.945  36.929   7.322
 4160POPC   C1B53047  12.601  36.560   6.187
 4160POPC   C2B53048  12.655  36.399   6.617
 4160POPC   C3B53049  12.752  36.599   6.998
 4160POPC   C4B53050  12.537  36.639   7.415
 4161POPC   NC353051  23.549   2.597   5.401
 4161POPC   PO453052  24.117   3.039   5.509
 4161POPC   GL153053  23.817   2.960   5.868
 4161POPC   GL253054  23.822   2.609   5.862
 4161POPC   C1A53055  23.516   2.915   6.274
 4161POPC   D2A53056  23.251   2.978   6.690
 4161POPC   C3A53057  23.353   2.934   7.106
 4161POPC   C4A53058  23.779   2.903   7.165
 4161POPC   C1B53059  23.588   2.402   6.198
 4161POPC   C2B53060  23.713   2.339   6.660
 4161POPC   C3B53061  23.495   2.428   7.070
 4161POPC   C4B53062  23.526   2.619   7.503
 4162POPC   NC353063   7.746   5.412   5.400
 4162POPC   PO453064   7.405   4.808   5.417
 4162POPC   GL153065   7.447   5.169   5.762
 4162POPC   GL253066   7.770   5.257   5.869
 4162POPC   C1A53067   7.373   5.305   6.192
 4162POPC   D2A53068   7.391   5.066   6.557
 4162POPC   C3A53069   7.434   5.199   6.992
 4162POPC   C4A53070   7.159   4.948   7.237
 4162POPC   C1B53071   7.756   4.883   6.107
 4162POPC   C2B53072   7.685   4.664   6.467
 4162POPC   C3B53073   7.764   4.853   6.841
 4162POPC   C4B53074   7.771   4.797   7.269
 4163POPC   NC353075  29.573  17.745   5.508
 4163POPC   PO453076  29.156  17.197   5.239
 4163POPC   GL153077  29.253  17.405   5.705
 4163POPC   GL253078  29.202  17.798   5.830
 4163POPC   C1A53079  29.244  17.379   6.183
 4163POPC   D2A53080  29.231  17.237   6.648
 4163POPC   C3A53081  29.172  17.422   7.065
 4163POPC   C4A53082  29.459  17.627   7.360
 4163POPC   C1B53083  29.037  17.906   6.236
 4163POPC   C2B53084  29.191  17.909   6.684
 4163POPC   C3B53085  29.085  17.923   7.132
 4163POPC   C4B53086  28.963  18.172   7.502
 4164POPC   NC353087  38.005  40.510   5.563
 4164POPC   PO453088  37.595  41.141   5.576
 4164POPC   GL153089  37.747  40.873   5.841
 4164POPC   GL253090  37.532  40.578   5.779
 4164POPC   C1A53091  37.932  40.965   6.224
 4164POPC   D2A53092  37.959  40.729   6.584
 4164POPC   C3A53093  37.643  40.779   6.879
 4164POPC   C4A53094  37.729  40.883   7.319
 4164POPC   C1B53095  37.750  40.463   6.181
 4164POPC   C2B53096  37.834  40.243   6.577
 4164POPC   C3B53097  37.883  40.370   7.024
 4164POPC   C4B53098  37.557  40.422   7.417
 4165POPC   NC353099  39.544  23.676   5.475
 4165POPC   PO453100  38.952  24.005   5.442
 4165POPC   GL153101  39.111  23.803   5.785
 4165POPC   GL253102  39.466  23.830   5.938
 4165POPC   C1A53103  39.055  23.656   6.186
 4165POPC   D2A53104  38.976  23.488   6.581
 4165POPC   C3A53105  39.189  23.652   6.905
 4165POPC   C4A53106  39.134  23.807   7.295
 4165POPC   C1B53107  39.522  23.790   6.375
 4165POPC   C2B53108  39.643  23.812   6.815
 4165POPC   C3B53109  39.622  23.693   7.244
 4165POPC   C4B53110  39.569  23.857   7.674
 4166POPC   NC353111   2.530  13.277   5.438
 4166POPC   PO453112   2.516  13.968   5.551
 4166POPC   GL153113   2.773  13.652   5.724
 4166POPC   GL253114   2.468  13.585   5.885
 4166POPC   C1A53115   2.909  13.600   6.160
 4166POPC   D2A53116   2.731  13.760   6.573
 4166POPC   C3A53117   2.992  13.655   6.929
 4166POPC   C4A53118   3.131  13.761   7.319
 4166POPC   C1B53119   2.302  13.732   6.256
 4166POPC   C2B53120   2.242  13.517   6.648
 4166POPC   C3B53121   2.501  13.491   6.987
 4166POPC   C4B53122   2.747  13.412   7.336
 4167POPC   NC353123  13.197  41.683   5.420
 4167POPC   PO453124  13.776  41.360   5.556
 4167POPC   GL153125  13.716  41.310   5.965
 4167POPC   GL253126  13.573  41.613   5.963
 4167POPC   C1A53127  13.707  41.365   6.407
 4167POPC   D2A53128  13.565  41.749   6.575
 4167POPC   C3A53129  13.536  41.664   6.966
 4167POPC   C4A53130  13.576  41.273   7.092
 4167POPC   C1B53131  13.946  41.772   6.208
 4167POPC   C2B53132  14.092  41.696   6.644
 4167POPC   C3B53133  14.018  41.656   7.105
 4167POPC   C4B53134  13.989  41.770   7.547
 4168POPC   NC353135  31.169  11.850   5.622
 4168POPC   PO453136  31.532  12.321   5.278
 4168POPC   GL153137  31.402  12.284   5.741
 4168POPC   GL253138  31.582  11.946   5.882
 4168POPC   C1A53139  31.307  12.209   6.203
 4168POPC   D2A53140  31.606  12.185   6.533
 4168POPC   C3A53141  31.454  12.006   6.906
 4168POPC   C4A53142  31.463  12.188   7.292
 4168POPC   C1B53143  31.403  11.704   6.232
 4168POPC   C2B53144  31.661  11.668   6.563
 4168POPC   C3B53145  31.672  11.552   6.960
 4168POPC   C4B53146  31.606  11.707   7.364
 4169POPC   NC353147   6.547   3.766   5.432
 4169POPC   PO453148   6.563   3.087   5.473
 4169POPC   GL153149   6.746   3.226   5.839
 4169POPC   GL253150   6.832   3.563   5.782
 4169POPC   C1A53151   6.597   3.488   6.221
 4169POPC   D2A53152   6.578   3.889   6.484
 4169POPC   C3A53153   6.670   3.785   6.908
 4169POPC   C4A53154   6.587   3.402   7.088
 4169POPC   C1B53155   6.996   3.804   6.143
 4169POPC   C2B53156   7.067   3.625   6.543
 4169POPC   C3B53157   7.090   3.387   6.904
 4169POPC   C4B53158   7.060   3.612   7.259
 4170POPC   NC353159   8.019  24.946   5.498
 4170POPC   PO453160   8.479  25.484   5.417
 4170POPC   GL153161   8.294  25.322   5.804
 4170POPC   GL253162   7.944  25.443   5.860
 4170POPC   C1A53163   8.276  25.495   6.247
 4170POPC   D2A53164   8.178  25.305   6.625
 4170POPC   C3A53165   8.461  25.211   6.932
 4170POPC   C4A53166   8.160  25.384   7.183
 4170POPC   C1B53167   8.008  25.060   6.162
 4170POPC   C2B53168   7.867  24.907   6.574
 4170POPC   C3B53169   7.823  25.067   6.977
 4170POPC   C4B53170   7.735  24.905   7.385
 4171POPC   NC353171  30.712  35.105   5.428
 4171POPC   PO453172  31.268  35.483   5.646
 4171POPC   GL153173  30.911  35.317   5.864
 4171POPC   GL253174  30.581  35.457   5.789
 4171POPC   C1A53175  30.789  35.496   6.259
 4171POPC   D2A53176  30.737  35.278   6.603
 4171POPC   C3A53177  30.721  35.477   7.011
 4171POPC   C4A53178  30.700  35.078   7.246
 4171POPC   C1B53179  30.462  35.131   6.107
 4171POPC   C2B53180  30.201  35.172   6.481
 4171POPC   C3B53181  30.325  35.177   6.895
 4171POPC   C4B53182  30.287  35.398   7.292
 4172POPC   NC353183  28.319  27.653   5.369
 4172POPC   PO453184  28.794  28.084   5.615
 4172POPC   GL153185  28.639  27.728   5.884
 4172POPC   GL253186  28.371  27.465   5.842
 4172POPC   C1A53187  28.594  27.557   6.310
 4172POPC   D2A53188  28.448  27.354   6.695
 4172POPC   C3A53189  28.424  27.693   7.062
 4172POPC   C4A53190  28.500  27.695   7.537
 4172POPC   C1B53191  28.110  27.270   6.169
 4172POPC   C2B53192  27.952  27.351   6.586
 4172POPC   C3B53193  28.036  27.340   7.014
 4172POPC   C4B53194  28.080  27.465   7.418
 4173POPC   NC353195  37.330  22.771   5.540
 4173POPC   PO453196  36.829  22.399   5.188
 4173POPC   GL153197  36.708  22.525   5.707
 4173POPC   GL253198  36.648  22.869   5.819
 4173POPC   C1A53199  36.896  22.568   6.154
 4173POPC   D2A53200  37.116  22.628   6.574
 4173POPC   C3A53201  36.972  22.842   6.994
 4173POPC   C4A53202  37.055  23.267   7.146
 4173POPC   C1B53203  36.810  23.056   6.194
 4173POPC   C2B53204  36.722  23.045   6.619
 4173POPC   C3B53205  36.552  23.210   7.051
 4173POPC   C4B53206  36.551  23.391   7.483
 4174POPC   NC353207  14.503   4.781   5.295
 4174POPC   PO453208  14.093   4.197   5.381
 4174POPC   GL153209  14.329   4.408   5.701
 4174POPC   GL253210  14.276   4.105   5.917
 4174POPC   C1A53211  14.513   4.516   6.113
 4174POPC   D2A53212  14.525   4.269   6.494
 4174POPC   C3A53213  14.606   4.311   6.936
 4174POPC   C4A53214  14.350   4.547   7.251
 4174POPC   C1B53215  14.147   3.924   6.350
 4174POPC   C2B53216  14.299   3.872   6.773
 4174POPC   C3B53217  14.227   4.039   7.178
 4174POPC   C4B53218  13.843   3.930   7.399
 4175POPC   NC353219   4.972   4.656   5.564
 4175POPC   PO453220   5.540   4.462   5.282
 4175POPC   GL153221   5.377   4.267   5.680
 4175POPC   GL253222   5.028   4.160   5.714
 4175POPC   C1A53223   5.257   4.360   6.123
 4175POPC   D2A53224   5.437   4.354   6.541
 4175POPC   C3A53225   5.232   4.401   6.949
 4175POPC   C4A53226   4.974   4.698   7.149
 4175POPC   C1B53227   4.941   3.977   6.161
 4175POPC   C2B53228   4.962   4.132   6.604
 4175POPC   C3B53229   4.986   3.935   7.028
 4175POPC   C4B53230   4.676   3.847   7.338
 4176POPC   NC353231   6.552  27.483   5.360
 4176POPC   PO453232   7.150  27.127   5.517
 4176POPC   GL153233   6.864  27.377   5.746
 4176POPC   GL253234   6.522  27.292   5.815
 4176POPC   C1A53235   6.836  27.525   6.141
 4176POPC   D2A53236   6.934  27.603   6.545
 4176POPC   C3A53237   6.674  27.559   6.879
 4176POPC   C4A53238   6.871  27.527   7.251
 4176POPC   C1B53239   6.296  27.502   6.142
 4176POPC   C2B53240   6.304  27.441   6.550
 4176POPC   C3B53241   6.167  27.409   6.956
 4176POPC   C4B53242   6.378  27.442   7.306
 4177POPC   NC353243  11.797  36.056   5.347
 4177POPC   PO453244  12.264  35.584   5.049
 4177POPC   GL153245  12.277  35.852   5.493
 4177POPC   GL253246  12.305  36.194   5.683
 4177POPC   C1A53247  12.197  35.806   5.981
 4177POPC   D2A53248  12.018  35.941   6.388
 4177POPC   C3A53249  12.093  35.717   6.775
 4177POPC   C4A53250  12.031  35.969   7.103
 4177POPC   C1B53251  12.071  36.381   6.080
 4177POPC   C2B53252  12.055  36.540   6.527
 4177POPC   C3B53253  12.243  36.504   6.928
 4177POPC   C4B53254  12.492  36.192   7.127
 4178POPC   NC353255  13.485  39.738   5.502
 4178POPC   PO453256  13.492  40.405   5.644
 4178POPC   GL153257  13.698  40.037   5.896
 4178POPC   GL253258  13.850  39.653   5.854
 4178POPC   C1A53259  13.556  40.014   6.342
 4178POPC   D2A53260  13.454  40.325   6.685
 4178POPC   C3A53261  13.479  40.166   7.115
 4178POPC   C4A53262  13.389  39.747   7.232
 4178POPC   C1B53263  14.037  39.798   6.222
 4178POPC   C2B53264  13.921  39.678   6.644
 4178POPC   C3B53265  13.914  39.855   7.041
 4178POPC   C4B53266  14.012  40.300   7.136
 4179POPC   NC353267  14.297  32.016   5.298
 4179POPC   PO453268  14.672  32.506   5.368
 4179POPC   GL153269  14.451  32.274   5.738
 4179POPC   GL253270  14.289  31.927   5.790
 4179POPC   C1A53271  14.328  32.402   6.169
 4179POPC   D2A53272  14.614  32.599   6.457
 4179POPC   C3A53273  14.571  32.555   6.910
 4179POPC   C4A53274  14.309  32.388   7.235
 4179POPC   C1B53275  14.309  31.897   6.213
 4179POPC   C2B53276  14.391  32.058   6.607
 4179POPC   C3B53277  14.581  32.011   7.013
 4179POPC   C4B53278  14.447  31.925   7.429
 4180POPC   NC353279   2.266  11.612   5.380
 4180POPC   PO453280   1.640  11.396   5.286
 4180POPC   GL153281   1.770  11.373   5.718
 4180POPC   GL253282   2.142  11.349   5.802
 4180POPC   C1A53283   1.656  11.378   6.151
 4180POPC   D2A53284   1.699  11.261   6.598
 4180POPC   C3A53285   1.795  11.641   6.902
 4180POPC   C4A53286   2.065  11.650   7.302
 4180POPC   C1B53287   2.293  11.409   6.226
 4180POPC   C2B53288   2.183  11.397   6.645
 4180POPC   C3B53289   2.097  11.235   7.027
 4180POPC   C4B53290   2.326  11.220   7.389
 4181POPC   NC353291  26.381  13.492   5.543
 4181POPC   PO453292  26.807  13.788   5.162
 4181POPC   GL153293  26.757  13.787   5.679
 4181POPC   GL253294  26.918  13.488   5.725
 4181POPC   C1A53295  26.922  13.902   6.176
 4181POPC   D2A53296  27.031  14.097   6.610
 4181POPC   C3A53297  26.934  13.878   6.992
 4181POPC   C4A53298  27.091  13.455   7.087
 4181POPC   C1B53299  26.711  13.450   6.143
 4181POPC   C2B53300  26.708  13.623   6.576
 4181POPC   C3B53301  26.570  13.500   6.983
 4181POPC   C4B53302  26.709  13.340   7.397
 4182POPC   NC353303  32.811  20.488   5.133
 4182POPC   PO453304  33.301  20.797   5.470
 4182POPC   GL153305  32.922  20.459   5.675
 4182POPC   GL253306  32.938  20.141   5.883
 4182POPC   C1A53307  32.758  20.524   6.150
 4182POPC   D2A53308  32.868  20.479   6.614
 4182POPC   C3A53309  32.694  20.757   6.956
 4182POPC   C4A53310  32.778  20.780   7.405
 4182POPC   C1B53311  33.259  20.457   6.075
 4182POPC   C2B53312  33.337  20.712   6.469
 4182POPC   C3B53313  33.217  20.752   6.909
 4182POPC   C4B53314  33.129  20.469   7.215
 4183POPC   NC353315  16.672  27.163   5.488
 4183POPC   PO453316  17.006  26.564   5.445
 4183POPC   GL153317  16.789  26.759   5.819
 4183POPC   GL253318  16.797  27.044   5.987
 4183POPC   C1A53319  16.729  26.583   6.231
 4183POPC   D2A53320  16.561  26.623   6.607
 4183POPC   C3A53321  16.812  26.624   6.936
 4183POPC   C4A53322  16.927  26.936   7.220
 4183POPC   C1B53323  16.406  26.986   6.200
 4183POPC   C2B53324  16.307  27.106   6.604
 4183POPC   C3B53325  16.369  26.933   7.003
 4183POPC   C4B53326  16.189  27.043   7.376
 4184POPC   NC353327  25.379  25.494   5.195
 4184POPC   PO453328  25.629  24.981   5.542
 4184POPC   GL153329  25.348  25.314   5.681
 4184POPC   GL253330  25.622  25.547   5.710
 4184POPC   C1A53331  25.032  25.463   6.027
 4184POPC   D2A53332  24.849  25.626   6.443
 4184POPC   C3A53333  24.915  25.456   6.887
 4184POPC   C4A53334  25.252  25.156   7.086
 4184POPC   C1B53335  25.529  25.379   6.149
 4184POPC   C2B53336  25.313  25.463   6.552
 4184POPC   C3B53337  25.410  25.628   6.970
 4184POPC   C4B53338  25.098  25.656   7.349
 4185POPC   NC353339  20.812  22.213   5.488
 4185POPC   PO453340  20.177  22.316   5.426
 4185POPC   GL153341  20.233  22.147   5.790
 4185POPC   GL253342  20.528  22.337   5.902
 4185POPC   C1A53343  20.307  22.003   6.204
 4185POPC   D2A53344  20.540  22.172   6.542
 4185POPC   C3A53345  20.384  21.983   6.897
 4185POPC   C4A53346  20.436  22.126   7.287
 4185POPC   C1B53347  20.842  22.035   6.129
 4185POPC   C2B53348  21.062  21.999   6.528
 4185POPC   C3B53349  20.893  22.027   6.948
 4185POPC   C4B53350  20.944  22.353   7.280
 4186POPC   NC353351  15.897  11.523   5.489
 4186POPC   PO453352  15.644  10.819   5.387
 4186POPC   GL153353  15.729  11.078   5.734
 4186POPC   GL253354  16.064  11.110   5.842
 4186POPC   C1A53355  15.670  11.067   6.182
 4186POPC   D2A53356  15.917  11.013   6.543
 4186POPC   C3A53357  15.723  10.972   6.936
 4186POPC   C4A53358  15.650  11.289   7.194
 4186POPC   C1B53359  16.318  11.150   6.222
 4186POPC   C2B53360  16.266  11.435   6.558
 4186POPC   C3B53361  16.133  11.327   6.953
 4186POPC   C4B53362  16.429  11.125   7.191
 4187POPC   NC353363  24.252  23.580   5.284
 4187POPC   PO453364  23.632  23.851   5.101
 4187POPC   GL153365  23.718  23.601   5.513
 4187POPC   GL253366  23.997  23.765   5.681
 4187POPC   C1A53367  23.594  23.399   5.958
 4187POPC   D2A53368  23.550  23.443   6.451
 4187POPC   C3A53369  23.700  23.601   6.888
 4187POPC   C4A53370  23.645  23.950   7.188
 4187POPC   C1B53371  23.858  23.811   6.082
 4187POPC   C2B53372  23.961  23.814   6.498
 4187POPC   C3B53373  23.882  24.120   6.790
 4187POPC   C4B53374  24.055  24.257   7.215
 4188POPC   NC353375  18.640  24.196   5.205
 4188POPC   PO453376  19.286  24.393   5.294
 4188POPC   GL153377  19.128  24.329   5.753
 4188POPC   GL253378  19.078  24.667   5.865
 4188POPC   C1A53379  18.978  24.320   6.224
 4188POPC   D2A53380  19.161  24.384   6.654
 4188POPC   C3A53381  18.899  24.400   7.028
 4188POPC   C4A53382  18.944  24.592   7.443
 4188POPC   C1B53383  19.297  24.879   6.226
 4188POPC   C2B53384  19.474  24.818   6.661
 4188POPC   C3B53385  19.289  24.750   7.088
 4188POPC   C4B53386  19.136  25.052   7.459
 4189POPC   NC353387  12.046   5.573   5.402
 4189POPC   PO453388  11.652   5.022   5.438
 4189POPC   GL153389  11.872   4.962   5.834
 4189POPC   GL253390  12.004   5.290   5.860
 4189POPC   C1A53391  12.008   4.962   6.295
 4189POPC   D2A53392  12.303   4.835   6.629
 4189POPC   C3A53393  12.169   4.869   7.051
 4189POPC   C4A53394  11.868   5.113   7.285
 4189POPC   C1B53395  12.360   5.307   6.156
 4189POPC   C2B53396  12.380   5.363   6.576
 4189POPC   C3B53397  12.139   5.374   6.923
 4189POPC   C4B53398  12.369   5.325   7.272
 4190POPC   NC353399  31.283  33.641   5.197
 4190POPC   PO453400  30.628  33.688   5.207
 4190POPC   GL153401  30.702  33.773   5.641
 4190POPC   GL253402  30.457  33.562   5.742
 4190POPC   C1A53403  30.580  33.966   6.066
 4190POPC   D2A53404  30.600  33.808   6.503
 4190POPC   C3A53405  30.902  34.016   6.799
 4190POPC   C4A53406  30.915  34.109   7.246
 4190POPC   C1B53407  30.811  33.496   6.073
 4190POPC   C2B53408  30.890  33.357   6.505
 4190POPC   C3B53409  30.624  33.413   6.845
 4190POPC   C4B53410  30.661  33.690   7.145
 4191POPC   NC353411  42.909   7.803   5.181
 4191POPC   PO453412  42.256   8.000   5.380
 4191POPC   GL153413  42.058   8.012   5.772
 4191POPC   GL253414  42.386   7.930   5.913
 4191POPC   C1A53415  42.058   8.285   6.141
 4191POPC   D2A53416  42.224   8.339   6.572
 4191POPC   C3A53417  42.203   8.060   6.970
 4191POPC   C4A53418  42.524   7.782   7.175
 4191POPC   C1B53419  42.592   8.252   6.190
 4191POPC   C2B53420  42.715   8.502   6.563
 4191POPC   C3B53421  42.520   8.470   6.958
 4191POPC   C4B53422  42.454   8.500   7.403
 4192POPC   NC353423   8.567  30.436   5.372
 4192POPC   PO453424   9.173  30.720   5.545
 4192POPC   GL153425   9.022  30.719   5.938
 4192POPC   GL253426   8.682  30.604   5.864
 4192POPC   C1A53427   9.169  30.649   6.355
 4192POPC   D2A53428   9.195  30.288   6.611
 4192POPC   C3A53429   9.167  30.328   7.078
 4192POPC   C4A53430   8.981  30.417   7.497
 4192POPC   C1B53431   8.621  30.871   6.232
 4192POPC   C2B53432   8.765  30.841   6.665
 4192POPC   C3B53433   8.750  30.637   7.083
 4192POPC   C4B53434   8.497  30.587   7.494
 4193POPC   NC353435   6.944  38.821   5.242
 4193POPC   PO453436   6.853  38.139   5.509
 4193POPC   GL153437   6.720  38.371   5.856
 4193POPC   GL253438   6.930  38.664   5.896
 4193POPC   C1A53439   6.453  38.316   6.228
 4193POPC   D2A53440   6.162  38.194   6.549
 4193POPC   C3A53441   6.339  38.223   6.925
 4193POPC   C4A53442   6.269  38.535   7.238
 4193POPC   C1B53443   6.977  38.396   6.279
 4193POPC   C2B53444   6.746  38.428   6.649
 4193POPC   C3B53445   6.734  38.534   7.064
 4193POPC   C4B53446   6.907  38.309   7.384
 4194POPC   NC353447  26.802  24.708   5.469
 4194POPC   PO453448  26.419  24.129   5.483
 4194POPC   GL153449  26.696  24.326   5.841
 4194POPC   GL253450  26.949  24.653   5.947
 4194POPC   C1A53451  26.590  24.422   6.249
 4194POPC   D2A53452  26.522  24.616   6.610
 4194POPC   C3A53453  26.551  24.361   6.954
 4194POPC   C4A53454  26.612  24.710   7.213
 4194POPC   C1B53455  27.103  24.398   6.254
 4194POPC   C2B53456  26.966  24.269   6.637
 4194POPC   C3B53457  27.041  24.452   7.062
 4194POPC   C4B53458  26.815  24.291   7.441
 4195POPC   NC353459  20.339  33.216   5.516
 4195POPC   PO453460  20.602  32.665   5.462
 4195POPC   GL153461  20.718  32.866   5.867
 4195POPC   GL253462  20.894  33.169   5.837
 4195POPC   C1A53463  20.841  32.989   6.305
 4195POPC   D2A53464  20.637  32.868   6.657
 4195POPC   C3A53465  20.723  33.086   6.995
 4195POPC   C4A53466  20.579  33.183   7.389
 4195POPC   C1B53467  20.585  33.381   6.151
 4195POPC   C2B53468  20.448  33.340   6.575
 4195POPC   C3B53469  20.140  33.350   6.904
 4195POPC   C4B53470  20.312  33.566   7.202
 4196POPC   NC353471   8.739  10.813   5.591
 4196POPC   PO453472   9.103  10.248   5.321
 4196POPC   GL153473   8.965  10.344   5.745
 4196POPC   GL253474   8.667  10.342   5.863
 4196POPC   C1A53475   9.074  10.328   6.207
 4196POPC   D2A53476   9.053  10.112   6.601
 4196POPC   C3A53477   8.968  10.347   6.953
 4196POPC   C4A53478   8.698  10.408   7.279
 4196POPC   C1B53479   8.579  10.481   6.276
 4196POPC   C2B53480   8.796  10.738   6.572
 4196POPC   C3B53481   8.791  10.833   7.005
 4196POPC   C4B53482   9.137  10.817   7.222
 4197POPC   NC353483  40.893  24.276   5.311
 4197POPC   PO453484  41.193  24.894   5.258
 4197POPC   GL153485  40.913  24.699   5.626
 4197POPC   GL253486  40.576  24.486   5.644
 4197POPC   C1A53487  40.780  24.651   6.089
 4197POPC   D2A53488  40.906  24.867   6.468
 4197POPC   C3A53489  41.000  24.536   6.743
 4197POPC   C4A53490  40.934  24.407   7.147
 4197POPC   C1B53491  40.363  24.266   5.969
 4197POPC   C2B53492  40.368  24.334   6.416
 4197POPC   C3B53493  40.499  24.394   6.839
 4197POPC   C4B53494  40.413  24.225   7.216
 4198POPC   NC353495   9.343  43.198   5.407
 4198POPC   PO453496   9.880  42.648   5.470
 4198POPC   GL153497   9.736  42.997   5.677
 4198POPC   GL253498   9.418  42.866   5.786
 4198POPC   C1A53499   9.818  43.130   6.094
 4198POPC   D2A53500  10.039  43.320   6.418
 4198POPC   C3A53501   9.855  43.233   6.782
 4198POPC   C4A53502   9.870  43.138   7.194
 4198POPC   C1B53503   9.346  43.257   6.048
 4198POPC   C2B53504   9.378  43.278   6.512
 4198POPC   C3B53505   9.414  43.422   6.966
 4198POPC   C4B53506   9.414  43.188   7.385
 4199POPC   NC353507  30.522  31.634   5.335
 4199POPC   PO453508  31.023  31.394   5.303
 4199POPC   GL153509  30.908  31.695   5.694
 4199POPC   GL253510  30.542  31.769   5.806
 4199POPC   C1A53511  30.876  31.776   6.175
 4199POPC   D2A53512  30.884  31.541   6.563
 4199POPC   C3A53513  30.814  31.416   6.977
 4199POPC   C4A53514  30.915  31.631   7.337
 4199POPC   C1B53515  30.376  31.972   6.156
 4199POPC   C2B53516  30.338  31.729   6.555
 4199POPC   C3B53517  30.213  31.763   6.981
 4199POPC   C4B53518  30.406  31.552   7.312
 4200POPC   NC353519  17.657  20.129   5.337
 4200POPC   PO453520  17.373  20.731   5.405
 4200POPC   GL153521  17.566  20.656   5.789
 4200POPC   GL253522  17.759  20.355   5.796
 4200POPC   C1A53523  17.456  20.625   6.220
 4200POPC   D2A53524  17.444  20.872   6.568
 4200POPC   C3A53525  17.367  20.628   6.933
 4200POPC   C4A53526  17.441  20.751   7.343
 4200POPC   C1B53527  17.622  20.149   6.183
 4200POPC   C2B53528  17.410  20.184   6.597
 4200POPC   C3B53529  17.588  20.156   7.032
 4200POPC   C4B53530  17.369  20.256   7.428
 4201POPC   NC353531  29.362   1.394   5.324
 4201POPC   PO453532  30.040   1.412   5.331
 4201POPC   GL153533  30.010   1.325   5.734
 4201POPC   GL253534  30.104   0.973   5.708
 4201POPC   C1A53535  29.883   1.424   6.148
 4201POPC   D2A53536  30.012   1.220   6.510
 4201POPC   C3A53537  29.742   1.123   6.833
 4201POPC   C4A53538  30.036   1.222   7.139
 4201POPC   C1B53539  29.933   0.908   6.097
 4201POPC   C2B53540  30.011   0.701   6.487
 4201POPC   C3B53541  30.150   0.777   6.904
 4201POPC   C4B53542  29.999   0.660   7.325
 4202POPC   NC353543  13.949  40.473   5.564
 4202POPC   PO453544  13.615  40.874   5.159
 4202POPC   GL153545  13.649  40.890   5.663
 4202POPC   GL253546  13.329  41.003   5.818
 4202POPC   C1A53547  13.716  40.820   6.152
 4202POPC   D2A53548  13.634  40.896   6.635
 4202POPC   C3A53549  13.597  40.662   7.052
 4202POPC   C4A53550  13.677  40.458   7.492
 4202POPC   C1B53551  13.298  41.088   6.273
 4202POPC   C2B53552  13.239  41.210   6.719
 4202POPC   C3B53553  13.181  40.978   7.134
 4202POPC   C4B53554  13.512  40.936   7.477
 4203POPC   NC353555  18.768  23.243   5.478
 4203POPC   PO453556  19.179  22.739   5.590
 4203POPC   GL153557  18.869  22.834   5.858
 4203POPC   GL253558  18.877  23.190   5.967
 4203POPC   C1A53559  18.960  22.803   6.290
 4203POPC   D2A53560  18.966  23.017   6.647
 4203POPC   C3A53561  18.976  22.779   7.029
 4203POPC   C4A53562  19.164  22.404   7.184
 4203POPC   C1B53563  19.081  23.415   6.301
 4203POPC   C2B53564  18.995  23.535   6.724
 4203POPC   C3B53565  18.754  23.267   7.015
 4203POPC   C4B53566  18.839  23.115   7.403
 4204POPC   NC353567  23.604  10.819   5.539
 4204POPC   PO453568  23.708  10.224   5.280
 4204POPC   GL153569  23.797  10.401   5.754
 4204POPC   GL253570  23.980  10.690   5.888
 4204POPC   C1A53571  23.868  10.362   6.238
 4204POPC   D2A53572  24.029  10.694   6.530
 4204POPC   C3A53573  23.944  10.727   6.924
 4204POPC   C4A53574  23.726  10.433   7.147
 4204POPC   C1B53575  23.687  10.875   6.200
 4204POPC   C2B53576  23.365  10.832   6.555
 4204POPC   C3B53577  23.438  10.832   7.028
 4204POPC   C4B53578  23.433  10.644   7.501
 4205POPC   NC353579  20.985  15.338   5.486
 4205POPC   PO453580  21.479  14.912   5.391
 4205POPC   GL153581  21.460  15.095   5.783
 4205POPC   GL253582  21.453  15.440   5.756
 4205POPC   C1A53583  21.409  15.000   6.210
 4205POPC   D2A53584  21.280  15.180   6.605
 4205POPC   C3A53585  21.522  15.125   6.993
 4205POPC   C4A53586  21.298  15.075   7.377
 4205POPC   C1B53587  21.248  15.494   6.172
 4205POPC   C2B53588  21.333  15.682   6.605
 4205POPC   C3B53589  21.252  15.552   7.060
 4205POPC   C4B53590  21.493  15.528   7.449
 4206POPC   NC353591  19.657  33.896   5.250
 4206POPC   PO453592  20.009  33.510   5.625
 4206POPC   GL153593  19.862  33.914   5.750
 4206POPC   GL253594  19.487  33.966   5.727
 4206POPC   C1A53595  20.037  34.011   6.174
 4206POPC   D2A53596  20.280  33.924   6.559
 4206POPC   C3A53597  20.010  33.869   6.926
 4206POPC   C4A53598  19.668  34.025   7.164
 4206POPC   C1B53599  19.543  33.847   6.153
 4206POPC   C2B53600  19.545  33.743   6.596
 4206POPC   C3B53601  19.549  33.422   6.895
 4206POPC   C4B53602  19.779  33.506   7.270
 4207POPC   NC353603  42.069  32.104   5.230
 4207POPC   PO453604  42.268  31.413   5.380
 4207POPC   GL153605  42.412  31.338   5.775
 4207POPC   GL253606  42.187  31.567   5.896
 4207POPC   C1A53607  42.363  31.162   6.193
 4207POPC   D2A53608  42.561  31.316   6.563
 4207POPC   C3A53609  42.362  31.361   6.949
 4207POPC   C4A53610  42.505  31.189   7.339
 4207POPC   C1B53611  42.289  31.665   6.269
 4207POPC   C2B53612  42.116  31.711   6.636
 4207POPC   C3B53613  42.008  31.797   7.018
 4207POPC   C4B53614  42.272  31.703   7.339
 4208POPC   NC353615   6.813   9.238   5.538
 4208POPC   PO453616   6.318   8.734   5.571
 4208POPC   GL153617   6.719   8.805   5.818
 4208POPC   GL253618   6.619   9.111   5.979
 4208POPC   C1A53619   7.015   8.875   6.200
 4208POPC   D2A53620   6.967   9.084   6.616
 4208POPC   C3A53621   6.637   8.875   6.857
 4208POPC   C4A53622   6.550   8.807   7.282
 4208POPC   C1B53623   6.486   9.080   6.386
 4208POPC   C2B53624   6.140   9.051   6.661
 4208POPC   C3B53625   6.281   9.191   7.039
 4208POPC   C4B53626   6.719   9.334   7.094
 4209POPC   NC353627  18.622   4.177   5.396
 4209POPC   PO453628  18.084   4.615   5.365
 4209POPC   GL153629  18.306   4.372   5.747
 4209POPC   GL253630  18.283   4.008   5.819
 4209POPC   C1A53631  18.493   4.522   6.147
 4209POPC   D2A53632  18.303   4.557   6.557
 4209POPC   C3A53633  18.342   4.195   6.848
 4209POPC   C4A53634  18.421   4.419   7.211
 4209POPC   C1B53635  18.089   4.219   6.213
 4209POPC   C2B53636  17.876   4.273   6.631
 4209POPC   C3B53637  17.931   4.342   7.096
 4209POPC   C4B53638  18.009   4.151   7.505
 4210POPC   NC353639  40.668  11.224   5.325
 4210POPC   PO453640  41.191  10.822   5.383
 4210POPC   GL153641  41.010  11.120   5.703
 4210POPC   GL253642  40.779  11.416   5.769
 4210POPC   C1A53643  40.835  11.058   6.126
 4210POPC   D2A53644  40.715  11.052   6.532
 4210POPC   C3A53645  40.975  11.152   6.901
 4210POPC   C4A53646  40.894  11.285   7.287
 4210POPC   C1B53647  40.840  11.586   6.159
 4210POPC   C2B53648  40.979  11.515   6.558
 4210POPC   C3B53649  40.796  11.673   6.970
 4210POPC   C4B53650  40.874  11.763   7.435
 4211POPC   NC353651   1.485   7.532   5.299
 4211POPC   PO453652   2.130   7.208   5.450
 4211POPC   GL153653   2.142   7.201   5.888
 4211POPC   GL253654   1.990   7.527   5.908
 4211POPC   C1A53655   1.883   7.201   6.275
 4211POPC   D2A53656   1.795   7.171   6.697
 4211POPC   C3A53657   2.152   7.187   6.936
 4211POPC   C4A53658   1.995   7.134   7.342
 4211POPC   C1B53659   2.261   7.569   6.292
 4211POPC   C2B53660   2.093   7.660   6.706
 4211POPC   C3B53661   1.847   7.557   7.065
 4211POPC   C4B53662   1.925   7.625   7.515
 4212POPC   NC353663  36.335   6.792   4.969
 4212POPC   PO453664  35.951   6.825   5.503
 4212POPC   GL153665  36.089   6.681   5.841
 4212POPC   GL253666  36.404   6.522   5.808
 4212POPC   C1A53667  35.842   6.695   6.193
 4212POPC   D2A53668  35.723   6.436   6.490
 4212POPC   C3A53669  35.770   6.627   6.903
 4212POPC   C4A53670  35.516   6.667   7.246
 4212POPC   C1B53671  36.400   6.589   6.252
 4212POPC   C2B53672  36.193   6.549   6.622
 4212POPC   C3B53673  36.271   6.374   7.007
 4212POPC   C4B53674  36.175   6.436   7.391
 4213POPC   NC353675  36.664   6.249   5.447
 4213POPC   PO453676  37.058   5.643   5.430
 4213POPC   GL153677  37.022   5.755   5.810
 4213POPC   GL253678  36.688   5.828   5.816
 4213POPC   C1A53679  37.036   5.599   6.206
 4213POPC   D2A53680  36.815   5.752   6.543
 4213POPC   C3A53681  36.832   5.474   6.876
 4213POPC   C4A53682  37.006   5.383   7.275
 4213POPC   C1B53683  36.554   6.082   6.179
 4213POPC   C2B53684  36.531   6.163   6.619
 4213POPC   C3B53685  36.593   5.948   7.000
 4213POPC   C4B53686  36.950   5.889   7.239
 4214POPC   NC353687  41.613  41.887   5.398
 4214POPC   PO453688  41.324  41.340   5.318
 4214POPC   GL153689  41.519  41.469   5.725
 4214POPC   GL253690  41.890  41.417   5.817
 4214POPC   C1A53691  41.541  41.586   6.169
 4214POPC   D2A53692  41.343  41.752   6.531
 4214POPC   C3A53693  41.498  41.667   6.956
 4214POPC   C4A53694  41.373  41.307   7.183
 4214POPC   C1B53695  42.004  41.339   6.270
 4214POPC   C2B53696  41.897  41.439   6.716
 4214POPC   C3B53697  42.014  41.547   7.168
 4214POPC   C4B53698  41.988  41.809   7.554
 4215POPC   NC353699  35.828  38.734   5.572
 4215POPC   PO453700  36.285  38.114   5.497
 4215POPC   GL153701  36.096  38.270   5.825
 4215POPC   GL253702  36.129  38.593   5.939
 4215POPC   C1A53703  36.152  38.207   6.258
 4215POPC   D2A53704  36.102  38.473   6.568
 4215POPC   C3A53705  35.992  38.328   6.974
 4215POPC   C4A53706  35.681  38.501   7.265
 4215POPC   C1B53707  36.462  38.619   6.213
 4215POPC   C2B53708  36.467  38.831   6.569
 4215POPC   C3B53709  36.183  38.805   6.941
 4215POPC   C4B53710  36.161  38.614   7.393
 4216POPC   NC353711  38.623  40.773   5.343
 4216POPC   PO453712  38.055  40.990   5.438
 4216POPC   GL153713  38.308  40.826   5.825
 4216POPC   GL253714  38.635  40.633   5.844
 4216POPC   C1A53715  38.397  40.765   6.284
 4216POPC   D2A53716  38.333  41.092   6.577
 4216POPC   C3A53717  38.107  41.032   6.966
 4216POPC   C4A53718  38.227  40.754   7.282
 4216POPC   C1B53719  38.896  40.609   6.213
 4216POPC   C2B53720  38.823  40.822   6.620
 4216POPC   C3B53721  38.745  40.726   7.057
 4216POPC   C4B53722  38.872  40.522   7.438
 4217POPC   NC353723  26.457  40.182   5.545
 4217POPC   PO453724  27.130  40.394   5.494
 4217POPC   GL153725  26.864  40.294   5.862
 4217POPC   GL253726  26.776  39.929   5.881
 4217POPC   C1A53727  26.737  40.266   6.307
 4217POPC   D2A53728  26.869  40.012   6.668
 4217POPC   C3A53729  26.890  40.184   7.094
 4217POPC   C4A53730  26.925  40.228   7.586
 4217POPC   C1B53731  26.683  39.719   6.279
 4217POPC   C2B53732  26.401  39.676   6.621
 4217POPC   C3B53733  26.324  39.824   7.062
 4217POPC   C4B53734  26.415  40.210   7.292
 4218POPC   NC353735   6.399  17.563   5.402
 4218POPC   PO453736   6.989  17.221   5.478
 4218POPC   GL153737   6.674  17.350   5.803
 4218POPC   GL253738   6.427  17.693   5.880
 4218POPC   C1A53739   6.758  17.511   6.212
 4218POPC   D2A53740   6.460  17.695   6.471
 4218POPC   C3A53741   6.658  17.614   6.839
 4218POPC   C4A53742   6.595  17.775   7.238
 4218POPC   C1B53743   6.271  17.333   6.122
 4218POPC   C2B53744   6.169  17.248   6.556
 4218POPC   C3B53745   6.258  17.346   6.984
 4218POPC   C4B53746   6.648  17.227   7.178
 4219POPC   NC353747  29.357  11.052   5.508
 4219POPC   PO453748  29.070  11.488   5.732
 4219POPC   GL153749  29.424  11.342   5.954
 4219POPC   GL253750  29.270  11.029   6.014
 4219POPC   C1A53751  29.523  11.215   6.402
 4219POPC   D2A53752  29.431  11.128   6.847
 4219POPC   C3A53753  29.109  11.406   7.071
 4219POPC   C4A53754  29.023  11.364   7.536
 4219POPC   C1B53755  29.103  10.832   6.396
 4219POPC   C2B53756  28.908  11.005   6.788
 4219POPC   C3B53757  28.904  10.952   7.245
 4219POPC   C4B53758  28.702  10.994   7.678
 4220POPC   NC353759  32.375   3.159   5.375
 4220POPC   PO453760  32.112   2.556   5.473
 4220POPC   GL153761  32.254   2.831   5.779
 4220POPC   GL253762  32.013   3.080   5.813
 4220POPC   C1A53763  32.388   2.896   6.194
 4220POPC   D2A53764  32.254   3.033   6.592
 4220POPC   C3A53765  32.503   2.844   6.917
 4220POPC   C4A53766  32.482   2.843   7.344
 4220POPC   C1B53767  31.877   2.825   6.162
 4220POPC   C2B53768  31.783   2.700   6.593
 4220POPC   C3B53769  31.997   2.803   6.990
 4220POPC   C4B53770  32.037   2.613   7.410
 4221POPC   NC353771  28.489  24.968   5.418
 4221POPC   PO453772  28.141  25.575   5.468
 4221POPC   GL153773  28.446  25.356   5.746
 4221POPC   GL253774  28.208  25.097   5.871
 4221POPC   C1A53775  28.668  25.230   6.165
 4221POPC   D2A53776  28.695  25.051   6.614
 4221POPC   C3A53777  28.718  25.387   6.941
 4221POPC   C4A53778  28.647  25.488   7.393
 4221POPC   C1B53779  28.184  25.480   6.161
 4221POPC   C2B53780  28.232  25.519   6.608
 4221POPC   C3B53781  28.215  25.225   6.942
 4221POPC   C4B53782  28.478  25.010   7.238
 4222POPC   NC353783  16.554  32.907   5.290
 4222POPC   PO453784  17.054  33.373   5.441
 4222POPC   GL153785  16.999  33.179   5.834
 4222POPC   GL253786  16.692  33.006   5.790
 4222POPC   C1A53787  16.920  32.982   6.242
 4222POPC   D2A53788  16.619  33.097   6.547
 4222POPC   C3A53789  16.757  32.902   6.906
 4222POPC   C4A53790  16.908  32.727   7.265
 4222POPC   C1B53791  16.396  32.842   6.115
 4222POPC   C2B53792  16.142  32.897   6.506
 4222POPC   C3B53793  16.238  32.974   6.946
 4222POPC   C4B53794  16.495  33.069   7.307
 4223POPC   NC353795  39.350  31.095   5.361
 4223POPC   PO453796  39.192  31.723   5.429
 4223POPC   GL153797  39.283  31.518   5.797
 4223POPC   GL253798  39.531  31.259   5.818
 4223POPC   C1A53799  39.190  31.343   6.212
 4223POPC   D2A53800  39.363  31.265   6.634
 4223POPC   C3A53801  39.086  31.371   6.992
 4223POPC   C4A53802  38.762  31.390   7.298
 4223POPC   C1B53803  39.671  31.521   6.158
 4223POPC   C2B53804  39.660  31.714   6.562
 4223POPC   C3B53805  39.676  31.528   6.967
 4223POPC   C4B53806  39.433  31.537   7.332
 4224POPC   NC353807  30.037  28.723   5.461
 4224POPC   PO453808  29.706  28.135   5.336
 4224POPC   GL153809  29.817  28.248   5.763
 4224POPC   GL253810  29.930  27.899   5.840
 4224POPC   C1A53811  29.902  28.586   6.125
 4224POPC   D2A53812  30.096  28.539   6.549
 4224POPC   C3A53813  29.904  28.512   6.932
 4224POPC   C4A53814  30.193  28.465   7.272
 4224POPC   C1B53815  30.068  28.111   6.194
 4224POPC   C2B53816  29.726  28.177   6.484
 4224POPC   C3B53817  29.620  28.027   6.881
 4224POPC   C4B53818  29.801  28.127   7.266
 4225POPC   NC353819  42.610  39.001   5.541
 4225POPC   PO453820  42.467  39.638   5.428
 4225POPC   GL153821  42.322  39.459   5.861
 4225POPC   GL253822  42.170  39.115   5.812
 4225POPC   C1A53823  42.377  39.501   6.345
 4225POPC   D2A53824  42.176  39.301   6.725
 4225POPC   C3A53825  42.229  39.393   7.176
 4225POPC   C4A53826  42.069  39.272   7.589
 4225POPC   C1B53827  42.441  39.033   6.171
 4225POPC   C2B53828  42.605  39.028   6.585
 4225POPC   C3B53829  42.577  39.067   7.005
 4225POPC   C4B53830  42.548  39.077   7.442
 4226POPC   NC353831  23.727  11.433   5.357
 4226POPC   PO453832  24.080  10.871   5.440
 4226POPC   GL153833  23.959  11.206   5.781
 4226POPC   GL253834  23.639  11.252   5.849
 4226POPC   C1A53835  23.911  11.374   6.252
 4226POPC   D2A53836  23.764  11.166   6.634
 4226POPC   C3A53837  23.956  11.229   7.027
 4226POPC   C4A53838  23.850  10.933   7.377
 4226POPC   C1B53839  23.410  11.312   6.264
 4226POPC   C2B53840  23.288  11.320   6.705
 4226POPC   C3B53841  23.456  11.313   7.147
 4226POPC   C4B53842  23.436  11.144   7.612
 4227POPC   NC353843   8.031  20.879   5.459
 4227POPC   PO453844   8.424  20.391   5.431
 4227POPC   GL153845   8.336  20.580   5.796
 4227POPC   GL253846   8.492  20.861   5.833
 4227POPC   C1A53847   8.491  20.528   6.241
 4227POPC   D2A53848   8.231  20.678   6.570
 4227POPC   C3A53849   8.223  20.486   6.951
 4227POPC   C4A53850   7.992  20.342   7.255
 4227POPC   C1B53851   8.127  20.911   6.128
 4227POPC   C2B53852   7.977  21.128   6.509
 4227POPC   C3B53853   8.099  21.017   6.946
 4227POPC   C4B53854   8.067  20.864   7.380
 4228POPC   NC353855  33.617   4.834   5.546
 4228POPC   PO453856  34.115   5.194   5.585
 4228POPC   GL153857  33.849   5.177   5.868
 4228POPC   GL253858  33.966   4.846   5.970
 4228POPC   C1A53859  33.814   5.294   6.267
 4228POPC   D2A53860  33.966   5.139   6.622
 4228POPC   C3A53861  33.684   5.267   6.928
 4228POPC   C4A53862  33.552   5.138   7.311
 4228POPC   C1B53863  34.268   4.801   6.335
 4228POPC   C2B53864  34.290   4.799   6.814
 4228POPC   C3B53865  33.954   4.849   7.123
 4228POPC   C4B53866  33.541   4.632   7.280
 4229POPC   NC353867  26.379  35.410   5.534
 4229POPC   PO453868  25.701  35.139   5.448
 4229POPC   GL153869  25.894  35.341   5.744
 4229POPC   GL253870  26.096  35.096   5.848
 4229POPC   C1A53871  26.020  35.514   6.139
 4229POPC   D2A53872  26.124  35.645   6.531
 4229POPC   C3A53873  26.216  35.326   6.816
 4229POPC   C4A53874  26.239  35.493   7.195
 4229POPC   C1B53875  25.725  35.063   6.127
 4229POPC   C2B53876  25.584  35.379   6.369
 4229POPC   C3B53877  25.719  35.411   6.777
 4229POPC   C4B53878  25.686  35.558   7.184
 4230POPC   NC353879   7.898  43.978   5.367
 4230POPC   PO453880   8.551  43.953   5.183
 4230POPC   GL153881   8.290  44.044   5.644
 4230POPC   GL253882   8.033  43.781   5.822
 4230POPC   C1A53883   8.144  44.124   6.142
 4230POPC   D2A53884   8.259  44.190   6.574
 4230POPC   C3A53885   8.039  44.174   6.943
 4230POPC   C4A53886   8.066  43.857   7.205
 4230POPC   C1B53887   8.185  43.584   6.221
 4230POPC   C2B53888   8.265  43.689   6.662
 4230POPC   C3B53889   8.222  43.436   6.993
 4230POPC   C4B53890   8.048  43.389   7.406
 4231POPC   NC353891  44.196  35.667   5.656
 4231POPC   PO453892  44.710  35.239   5.444
 4231POPC   GL153893  44.618  35.081   5.862
 4231POPC   GL253894  44.289  35.198   5.951
 4231POPC   C1A53895  44.702  35.116   6.287
 4231POPC   D2A53896  44.878  35.346   6.636
 4231POPC   C3A53897  44.721  35.239   7.050
 4231POPC   C4A53898  44.841  35.065   7.464
 4231POPC   C1B53899  44.369  35.512   6.303
 4231POPC   C2B53900  44.480  35.667   6.737
 4231POPC   C3B53901  44.389  35.615   7.207
 4231POPC   C4B53902  44.214  35.565   7.670
 4232POPC   NC353903   4.500  14.780   5.651
 4232POPC   PO453904   4.107  14.389   5.237
 4232POPC   GL153905   4.139  14.411   5.721
 4232POPC   GL253906   4.463  14.290   5.898
 4232POPC   C1A53907   4.167  14.580   6.172
 4232POPC   D2A53908   4.426  14.501   6.523
 4232POPC   C3A53909   4.164  14.683   6.823
 4232POPC   C4A53910   3.990  14.803   7.197
 4232POPC   C1B53911   4.227  14.076   6.272
 4232POPC   C2B53912   4.071  14.159   6.709
 4232POPC   C3B53913   4.203  14.286   7.129
 4232POPC   C4B53914   4.624  14.450   7.028
 4233POPC   NC353915  28.719  26.621   5.354
 4233POPC   PO453916  28.407  27.191   5.384
 4233POPC   GL153917  28.616  27.015   5.754
 4233POPC   GL253918  28.475  26.703   5.808
 4233POPC   C1A53919  28.569  27.024   6.227
 4233POPC   D2A53920  28.229  26.894   6.535
 4233POPC   C3A53921  28.293  26.901   6.948
 4233POPC   C4A53922  28.537  27.202   7.191
 4233POPC   C1B53923  28.235  26.572   6.147
 4233POPC   C2B53924  28.267  26.353   6.524
 4233POPC   C3B53925  28.096  26.355   6.922
 4233POPC   C4B53926  28.292  26.510   7.277
 4234POPC   NC353927  37.169   9.673   5.359
 4234POPC   PO453928  36.524   9.802   5.308
 4234POPC   GL153929  36.813   9.779   5.709
 4234POPC   GL253930  37.159   9.916   5.792
 4234POPC   C1A53931  36.931   9.680   6.161
 4234POPC   D2A53932  36.946   9.862   6.548
 4234POPC   C3A53933  36.792   9.685   6.931
 4234POPC   C4A53934  36.774  10.033   7.206
 4234POPC   C1B53935  37.399   9.889   6.161
 4234POPC   C2B53936  37.410   9.681   6.531
 4234POPC   C3B53937  37.281   9.841   6.946
 4234POPC   C4B53938  37.151   9.712   7.342
 4235POPC   NC353939  12.669  23.508   5.406
 4235POPC   PO453940  13.103  24.007   5.472
 4235POPC   GL153941  12.901  23.769   5.807
 4235POPC   GL253942  12.542  23.858   5.747
 4235POPC   C1A53943  13.035  23.580   6.235
 4235POPC   D2A53944  13.289  23.582   6.657
 4235POPC   C3A53945  13.003  23.520   7.013
 4235POPC   C4A53946  12.923  23.290   7.408
 4235POPC   C1B53947  12.455  23.518   6.025
 4235POPC   C2B53948  12.537  23.565   6.429
 4235POPC   C3B53949  12.498  23.601   6.843
 4235POPC   C4B53950  12.669  23.923   7.087
 4236POPC   NC353951  12.017  42.028   5.324
 4236POPC   PO453952  11.947  41.420   5.396
 4236POPC   GL153953  12.039  41.652   5.761
 4236POPC   GL253954  12.374  41.846   5.685
 4236POPC   C1A53955  11.889  41.570   6.201
 4236POPC   D2A53956  12.027  41.521   6.625
 4236POPC   C3A53957  11.820  41.538   7.014
 4236POPC   C4A53958  12.062  41.523   7.406
 4236POPC   C1B53959  12.277  41.937   6.134
 4236POPC   C2B53960  12.167  42.033   6.560
 4236POPC   C3B53961  12.222  41.859   6.993
 4236POPC   C4B53962  12.491  41.813   7.379
 4237POPC   NC353963   9.295   5.541   5.678
 4237POPC   PO453964   9.221   4.876   5.376
 4237POPC   GL153965   9.157   5.048   5.760
 4237POPC   GL253966   8.842   5.223   5.752
 4237POPC   C1A53967   9.113   5.054   6.192
 4237POPC   D2A53968   8.875   5.025   6.570
 4237POPC   C3A53969   9.086   5.016   6.935
 4237POPC   C4A53970   9.167   5.161   7.332
 4237POPC   C1B53971   8.627   5.144   6.138
 4237POPC   C2B53972   8.475   5.341   6.524
 4237POPC   C3B53973   8.620   5.315   6.929
 4237POPC   C4B53974   8.750   5.552   7.276
 4238POPC   NC353975  32.338  30.961   5.367
 4238POPC   PO453976  31.852  30.504   5.463
 4238POPC   GL153977  31.953  30.506   5.859
 4238POPC   GL253978  32.295  30.586   5.776
 4238POPC   C1A53979  32.000  30.736   6.251
 4238POPC   D2A53980  32.275  30.910   6.584
 4238POPC   C3A53981  32.117  30.804   6.975
 4238POPC   C4A53982  31.981  30.829   7.399
 4238POPC   C1B53983  32.505  30.677   6.162
 4238POPC   C2B53984  32.703  30.641   6.544
 4238POPC   C3B53985  32.612  30.700   6.956
 4238POPC   C4B53986  32.499  30.690   7.380
 4239POPC   NC353987  27.564  40.320   5.394
 4239POPC   PO453988  27.926  39.778   5.389
 4239POPC   GL153989  27.763  39.958   5.769
 4239POPC   GL253990  27.878  40.300   5.804
 4239POPC   C1A53991  27.598  39.884   6.203
 4239POPC   D2A53992  27.636  39.917   6.662
 4239POPC   C3A53993  27.302  39.886   6.977
 4239POPC   C4A53994  27.364  40.226   7.287
 4239POPC   C1B53995  28.032  40.158   6.176
 4239POPC   C2B53996  27.944  40.349   6.575
 4239POPC   C3B53997  27.959  40.169   6.979
 4239POPC   C4B53998  27.781  39.810   7.173
 4240POPC   NC353999   9.842  44.915   5.500
 4240POPC   PO454000   9.434  44.440   5.346
 4240POPC   GL154001   9.661  44.389   5.801
 4240POPC   GL254002   9.892  44.672   5.932
 4240POPC   C1A54003   9.870  44.250   6.198
 4240POPC   D2A54004  10.049  44.599   6.453
 4240POPC   C3A54005   9.877  44.561   6.854
 4240POPC   C4A54006   9.950  44.351   7.227
 4240POPC   C1B54007  10.219  44.972   6.090
 4240POPC   C2B54008  10.375   0.030   6.500
 4240POPC   C3B54009  10.286  44.854   6.914
 4240POPC   C4B54010   9.970  44.870   7.256
 4241POPC   NC354011  32.095  32.744   5.269
 4241POPC   PO454012  32.591  33.119   5.455
 4241POPC   GL154013  32.387  33.010   5.818
 4241POPC   GL254014  32.082  33.118   5.702
 4241POPC   C1A54015  32.236  32.842   6.205
 4241POPC   D2A54016  32.086  32.948   6.614
 4241POPC   C3A54017  32.312  32.922   6.976
 4241POPC   C4A54018  32.324  32.656   7.299
 4241POPC   C1B54019  31.962  33.295   6.138
 4241POPC   C2B54020  31.911  33.428   6.590
 4241POPC   C3B54021  32.007  33.375   7.022
 4241POPC   C4B54022  32.137  33.150   7.374
 4242POPC   NC354023  28.996   1.511   5.673
 4242POPC   PO454024  29.276   0.949   5.190
 4242POPC   GL154025  29.575   1.057   5.695
 4242POPC   GL254026  29.490   1.369   5.835
 4242POPC   C1A54027  29.440   1.019   6.214
 4242POPC   D2A54028  29.121   0.915   6.596
 4242POPC   C3A54029  29.251   1.080   7.032
 4242POPC   C4A54030  29.169   1.011   7.496
 4242POPC   C1B54031  29.347   1.563   6.221
 4242POPC   C2B54032  29.321   1.400   6.623
 4242POPC   C3B54033  29.208   1.572   7.009
 4242POPC   C4B54034  29.362   1.466   7.403
 4243POPC   NC354035  29.807   4.927   5.485
 4243POPC   PO454036  29.966   5.444   5.171
 4243POPC   GL154037  30.020   5.314   5.696
 4243POPC   GL254038  30.165   4.948   5.826
 4243POPC   C1A54039  29.871   5.197   6.147
 4243POPC   D2A54040  29.942   4.917   6.525
 4243POPC   C3A54041  29.968   5.209   6.856
 4243POPC   C4A54042  29.944   5.525   7.181
 4243POPC   C1B54043  30.363   5.014   6.252
 4243POPC   C2B54044  30.470   5.172   6.662
 4243POPC   C3B54045  30.428   5.185   7.113
 4243POPC   C4B54046  30.088   4.946   7.277
 4244POPC   NC354047   5.509  41.882   5.470
 4244POPC   PO454048   5.781  41.234   5.532
 4244POPC   GL154049   5.543  41.388   5.849
 4244POPC   GL254050   5.659  41.742   5.932
 4244POPC   C1A54051   5.662  41.366   6.277
 4244POPC   D2A54052   5.625  41.599   6.658
 4244POPC   C3A54053   5.841  41.388   6.991
 4244POPC   C4A54054   5.734  41.333   7.420
 4244POPC   C1B54055   6.050  41.703   6.191
 4244POPC   C2B54056   6.274  41.808   6.585
 4244POPC   C3B54057   6.273  41.761   7.041
 4244POPC   C4B54058   5.893  41.820   7.260
 4245POPC   NC354059  14.507  43.610   5.408
 4245POPC   PO454060  14.702  44.295   5.405
 4245POPC   GL154061  14.568  44.002   5.741
 4245POPC   GL254062  14.286  44.049   5.918
 4245POPC   C1A54063  14.636  43.702   6.113
 4245POPC   D2A54064  14.561  43.518   6.558
 4245POPC   C3A54065  14.661  43.718   6.959
 4245POPC   C4A54066  14.580  44.105   7.135
 4245POPC   C1B54067  14.219  43.899   6.343
 4245POPC   C2B54068  14.237  44.088   6.733
 4245POPC   C3B54069  14.073  43.973   7.102
 4245POPC   C4B54070  14.110  44.190   7.442
 4246POPC   NC354071  36.073  23.660   5.219
 4246POPC   PO454072  36.700  24.035   5.294
 4246POPC   GL154073  36.394  23.790   5.614
 4246POPC   GL254074  36.302  23.441   5.632
 4246POPC   C1A54075  36.308  23.627   6.103
 4246POPC   D2A54076  36.377  23.675   6.599
 4246POPC   C3A54077  36.249  23.661   7.067
 4246POPC   C4A54078  35.937  23.945   7.278
 4246POPC   C1B54079  35.904  23.371   5.856
 4246POPC   C2B54080  35.850  23.411   6.307
 4246POPC   C3B54081  35.720  23.327   6.728
 4246POPC   C4B54082  35.743  23.500   7.159
 4247POPC   NC354083  15.303  26.192   5.458
 4247POPC   PO454084  14.924  25.635   5.487
 4247POPC   GL154085  15.195  25.828   5.819
 4247POPC   GL254086  15.055  26.188   5.885
 4247POPC   C1A54087  15.287  25.966   6.251
 4247POPC   D2A54088  15.249  26.207   6.611
 4247POPC   C3A54089  15.302  25.936   6.952
 4247POPC   C4A54090  15.138  25.989   7.349
 4247POPC   C1B54091  14.772  26.309   6.204
 4247POPC   C2B54092  14.804  26.482   6.615
 4247POPC   C3B54093  14.931  26.342   7.027
 4247POPC   C4B54094  14.997  26.465   7.474
 4248POPC   NC354095  38.595  23.674   5.405
 4248POPC   PO454096  37.998  23.275   5.447
 4248POPC   GL154097  38.234  23.602   5.761
 4248POPC   GL254098  38.606  23.623   5.902
 4248POPC   C1A54099  38.182  23.924   6.094
 4248POPC   D2A54100  38.148  23.833   6.547
 4248POPC   C3A54101  38.214  24.043   6.946
 4248POPC   C4A54102  38.566  24.015   7.259
 4248POPC   C1B54103  38.561  23.659   6.323
 4248POPC   C2B54104  38.640  23.868   6.711
 4248POPC   C3B54105  38.711  23.581   7.035
 4248POPC   C4B54106  38.740  23.556   7.466
 4249POPC   NC354107  40.562  35.411   5.054
 4249POPC   PO454108  40.626  35.615   5.679
 4249POPC   GL154109  40.951  35.608   5.940
 4249POPC   GL254110  41.039  35.316   5.759
 4249POPC   C1A54111  40.926  35.492   6.372
 4249POPC   D2A54112  40.563  35.292   6.583
 4249POPC   C3A54113  40.533  35.366   7.037
 4249POPC   C4A54114  40.443  35.266   7.499
 4249POPC   C1B54115  41.178  35.069   6.083
 4249POPC   C2B54116  41.060  35.004   6.483
 4249POPC   C3B54117  41.003  35.246   6.848
 4249POPC   C4B54118  41.093  35.107   7.246
 4250POPC   NC354119  41.613  43.455   5.371
 4250POPC   PO454120  41.165  43.023   5.365
 4250POPC   GL154121  41.369  42.860   5.771
 4250POPC   GL254122  41.661  43.099   5.823
 4250POPC   C1A54123  41.298  42.753   6.220
 4250POPC   D2A54124  41.578  42.801   6.571
 4250POPC   C3A54125  41.465  42.970   6.974
 4250POPC   C4A54126  41.526  43.125   7.409
 4250POPC   C1B54127  41.896  43.049   6.238
 4250POPC   C2B54128  42.059  42.946   6.698
 4250POPC   C3B54129  41.981  43.058   7.180
 4250POPC   C4B54130  41.911  42.880   7.644
 4251POPC   NC354131   1.729  26.541   5.503
 4251POPC   PO454132   2.048  27.108   5.537
 4251POPC   GL154133   2.258  26.956   5.878
 4251POPC   GL254134   2.409  26.625   5.777
 4251POPC   C1A54135   2.266  26.868   6.307
 4251POPC   D2A54136   2.038  26.873   6.647
 4251POPC   C3A54137   2.153  27.030   7.012
 4251POPC   C4A54138   1.928  27.035   7.371
 4251POPC   C1B54139   2.122  26.432   6.089
 4251POPC   C2B54140   1.956  26.383   6.524
 4251POPC   C3B54141   2.072  26.462   6.948
 4251POPC   C4B54142   2.389  26.620   7.215
 4252POPC   NC354143   6.356  21.697   5.278
 4252POPC   PO454144   6.624  22.391   5.353
 4252POPC   GL154145   6.521  22.371   5.781
 4252POPC   GL254146   6.372  22.021   5.827
 4252POPC   C1A54147   6.690  22.277   6.189
 4252POPC   D2A54148   6.845  22.096   6.572
 4252POPC   C3A54149   6.638  22.323   6.883
 4252POPC   C4A54150   6.445  22.285   7.263
 4252POPC   C1B54151   6.375  21.861   6.284
 4252POPC   C2B54152   6.298  21.931   6.737
 4252POPC   C3B54153   6.481  21.807   7.144
 4252POPC   C4B54154   6.338  21.914   7.589
 4253POPC   NC354155  44.448   8.583   5.425
 4253POPC   PO454156  44.134   9.206   5.618
 4253POPC   GL154157  43.789   8.907   5.803
 4253POPC   GL254158  43.842   8.575   5.806
 4253POPC   C1A54159  43.633   8.991   6.200
 4253POPC   D2A54160  43.801   8.863   6.591
 4253POPC   C3A54161  43.793   9.112   6.954
 4253POPC   C4A54162  43.667   8.833   7.266
 4253POPC   C1B54163  44.169   8.726   6.118
 4253POPC   C2B54164  44.330   8.833   6.560
 4253POPC   C3B54165  44.192   8.806   6.988
 4253POPC   C4B54166  44.113   9.093   7.371
 4254POPC   NC354167   3.258  43.749   5.413
 4254POPC   PO454168   3.782  44.314   5.382
 4254POPC   GL154169   3.746  44.052   5.729
 4254POPC   GL254170   3.395  44.031   5.833
 4254POPC   C1A54171   3.793  43.934   6.171
 4254POPC   D2A54172   3.490  43.986   6.490
 4254POPC   C3A54173   3.648  44.114   6.888
 4254POPC   C4A54174   3.409  44.209   7.236
 4254POPC   C1B54175   3.369  43.628   6.091
 4254POPC   C2B54176   3.430  43.432   6.497
 4254POPC   C3B54177   3.403  43.643   6.929
 4254POPC   C4B54178   3.248  43.739   7.367
 4255POPC   NC354179  16.160  35.626   5.392
 4255POPC   PO454180  16.280  35.019   5.223
 4255POPC   GL154181  16.090  35.152   5.636
 4255POPC   GL254182  15.778  35.050   5.760
 4255POPC   C1A54183  16.150  35.317   6.095
 4255POPC   D2A54184  16.263  35.633   6.445
 4255POPC   C3A54185  16.128  35.529   6.872
 4255POPC   C4A54186  16.198  35.506   7.331
 4255POPC   C1B54187  15.786  34.948   6.202
 4255POPC   C2B54188  16.123  34.938   6.537
 4255POPC   C3B54189  16.156  35.024   6.971
 4255POPC   C4B54190  15.817  35.224   7.207
 4256POPC   NC354191  15.295  30.800   5.404
 4256POPC   PO454192  14.948  30.281   5.253
 4256POPC   GL154193  15.133  30.329   5.717
 4256POPC   GL254194  14.832  30.331   5.941
 4256POPC   C1A54195  15.324  30.572   6.085
 4256POPC   D2A54196  15.232  30.809   6.482
 4256POPC   C3A54197  15.282  30.680   6.924
 4256POPC   C4A54198  15.222  30.729   7.390
 4256POPC   C1B54199  14.893  30.443   6.344
 4256POPC   C2B54200  14.875  30.347   6.762
 4256POPC   C3B54201  14.854  30.475   7.174
 4256POPC   C4B54202  14.984  30.268   7.541
 4257POPC   NC354203  15.995  38.007   5.429
 4257POPC   PO454204  15.612  37.371   5.504
 4257POPC   GL154205  15.865  37.565   5.899
 4257POPC   GL254206  15.837  37.931   5.894
 4257POPC   C1A54207  16.263  37.612   6.174
 4257POPC   D2A54208  16.296  37.424   6.607
 4257POPC   C3A54209  16.239  37.621   7.014
 4257POPC   C4A54210  16.227  37.677   7.459
 4257POPC   C1B54211  15.898  37.941   6.297
 4257POPC   C2B54212  15.867  37.807   6.702
 4257POPC   C3B54213  15.854  37.961   7.129
 4257POPC   C4B54214  15.581  37.932   7.491
 4258POPC   NC354215  39.697   9.898   5.442
 4258POPC   PO454216  40.349   9.782   5.378
 4258POPC   GL154217  40.221   9.772   5.816
 4258POPC   GL254218  40.118  10.092   5.784
 4258POPC   C1A54219  40.132   9.626   6.265
 4258POPC   D2A54220  39.858   9.381   6.602
 4258POPC   C3A54221  39.762   9.515   7.055
 4258POPC   C4A54222  39.871   9.711   7.461
 4258POPC   C1B54223  39.934  10.075   6.181
 4258POPC   C2B54224  39.905   9.915   6.629
 4258POPC   C3B54225  40.167   9.797   6.964
 4258POPC   C4B54226  40.299  10.003   7.324
 4259POPC   NC354227   0.350  10.138   5.507
 4259POPC   PO454228   0.621   9.515   5.277
 4259POPC   GL154229   0.514   9.679   5.721
 4259POPC   GL254230   0.732  10.008   5.820
 4259POPC   C1A54231   0.310   9.470   6.120
 4259POPC   D2A54232   0.134   9.324   6.539
 4259POPC   C3A54233   0.315   9.574   6.876
 4259POPC   C4A54234   0.413   9.704   7.268
 4259POPC   C1B54235   0.480   9.978   6.196
 4259POPC   C2B54236   0.324  10.115   6.607
 4259POPC   C3B54237   0.157  10.103   7.044
 4259POPC   C4B54238   0.151  10.051   7.540
 4260POPC   NC354239   9.193   6.796   5.479
 4260POPC   PO454240   8.635   6.474   5.305
 4260POPC   GL154241   8.780   6.655   5.743
 4260POPC   GL254242   8.780   7.038   5.682
 4260POPC   C1A54243   9.011   6.551   6.187
 4260POPC   D2A54244   9.201   6.796   6.572
 4260POPC   C3A54245   9.226   6.578   6.987
 4260POPC   C4A54246   8.907   6.447   7.201
 4260POPC   C1B54247   8.904   7.042   6.113
 4260POPC   C2B54248   8.673   6.851   6.474
 4260POPC   C3B54249   8.769   6.888   6.908
 4260POPC   C4B54250   9.118   7.063   7.091
 4261POPC   NC354251  42.056  10.805   5.462
 4261POPC   PO454252  42.700  10.548   5.381
 4261POPC   GL154253  42.447  10.541   5.764
 4261POPC   GL254254  42.088  10.374   5.790
 4261POPC   C1A54255  42.394  10.467   6.208
 4261POPC   D2A54256  42.175  10.645   6.545
 4261POPC   C3A54257  42.393  10.692   6.943
 4261POPC   C4A54258  42.219  10.679   7.355
 4261POPC   C1B54259  41.955  10.203   6.232
 4261POPC   C2B54260  42.216  10.139   6.640
 4261POPC   C3B54261  42.286  10.214   7.117
 4261POPC   C4B54262  42.622  10.349   7.410
 4262POPC   NC354263   3.455   5.497   5.510
 4262POPC   PO454264   3.271   6.146   5.579
 4262POPC   GL154265   3.367   5.908   5.896
 4262POPC   GL254266   3.694   5.737   5.930
 4262POPC   C1A54267   3.453   5.991   6.304
 4262POPC   D2A54268   3.662   5.760   6.582
 4262POPC   C3A54269   3.457   5.930   6.906
 4262POPC   C4A54270   3.603   5.873   7.287
 4262POPC   C1B54271   3.335   5.504   6.195
 4262POPC   C2B54272   3.166   5.628   6.581
 4262POPC   C3B54273   3.332   5.437   6.941
 4262POPC   C4B54274   3.322   5.306   7.324
 4263POPC   NC354275  34.162  19.834   5.341
 4263POPC   PO454276  33.442  19.853   5.331
 4263POPC   GL154277  33.760  19.675   5.642
 4263POPC   GL254278  33.604  19.465   5.830
 4263POPC   C1A54279  33.945  19.674   6.099
 4263POPC   D2A54280  33.827  19.907   6.423
 4263POPC   C3A54281  33.748  19.856   6.828
 4263POPC   C4A54282  33.728  20.210   7.092
 4263POPC   C1B54283  33.389  19.466   6.191
 4263POPC   C2B54284  33.352  19.683   6.541
 4263POPC   C3B54285  33.386  19.490   6.901
 4263POPC   C4B54286  33.423  19.318   7.308
 4264POPC   NC354287  38.936  26.988   5.531
 4264POPC   PO454288  39.632  26.990   5.388
 4264POPC   GL154289  39.386  26.856   5.769
 4264POPC   GL254290  39.064  26.924   6.002
 4264POPC   C1A54291  39.504  26.794   6.204
 4264POPC   D2A54292  39.254  26.747   6.567
 4264POPC   C3A54293  39.449  26.848   6.948
 4264POPC   C4A54294  39.325  26.640   7.290
 4264POPC   C1B54295  38.884  27.318   6.181
 4264POPC   C2B54296  38.902  27.368   6.646
 4264POPC   C3B54297  38.949  27.031   6.970
 4264POPC   C4B54298  38.986  27.010   7.437
 4265POPC   NC354299  34.673  11.411   5.415
 4265POPC   PO454300  34.516  10.816   5.474
 4265POPC   GL154301  34.484  11.078   5.821
 4265POPC   GL254302  34.280  11.369   5.787
 4265POPC   C1A54303  34.523  11.122   6.247
 4265POPC   D2A54304  34.769  11.020   6.590
 4265POPC   C3A54305  34.609  11.196   6.962
 4265POPC   C4A54306  34.511  11.130   7.389
 4265POPC   C1B54307  34.602  11.587   6.038
 4265POPC   C2B54308  34.649  11.606   6.464
 4265POPC   C3B54309  34.484  11.695   6.850
 4265POPC   C4B54310  34.639  11.640   7.233
 4266POPC   NC354311  10.434  28.175   5.530
 4266POPC   PO454312  10.396  27.486   5.523
 4266POPC   GL154313  10.620  27.741   5.821
 4266POPC   GL254314  10.398  27.996   5.999
 4266POPC   C1A54315  10.661  27.619   6.247
 4266POPC   D2A54316  10.539  27.757   6.640
 4266POPC   C3A54317  10.680  27.532   7.034
 4266POPC   C4A54318  10.892  27.475   7.463
 4266POPC   C1B54319  10.142  27.729   6.298
 4266POPC   C2B54320   9.983  27.631   6.702
 4266POPC   C3B54321  10.212  27.774   7.015
 4266POPC   C4B54322  10.400  27.782   7.378
 4267POPC   NC354323  11.906  30.285   5.516
 4267POPC   PO454324  11.928  29.689   5.223
 4267POPC   GL154325  11.909  29.807   5.739
 4267POPC   GL254326  12.051  30.132   5.959
 4267POPC   C1A54327  11.973  29.708   6.211
 4267POPC   D2A54328  11.786  29.829   6.619
 4267POPC   C3A54329  12.060  29.644   6.932
 4267POPC   C4A54330  12.434  29.538   7.128
 4267POPC   C1B54331  12.134  30.351   6.366
 4267POPC   C2B54332  12.150  30.161   6.794
 4267POPC   C3B54333  11.807  30.055   7.096
 4267POPC   C4B54334  11.813  30.149   7.577
 4268POPC   NC354335  43.100   8.593   5.253
 4268POPC   PO454336  43.220   7.948   5.499
 4268POPC   GL154337  43.183   8.221   5.868
 4268POPC   GL254338  43.329   8.533   5.742
 4268POPC   C1A54339  43.079   8.224   6.339
 4268POPC   D2A54340  42.768   7.987   6.673
 4268POPC   C3A54341  43.018   7.762   7.034
 4268POPC   C4A54342  43.329   8.012   7.264
 4268POPC   C1B54343  43.490   8.513   6.177
 4268POPC   C2B54344  43.317   8.632   6.599
 4268POPC   C3B54345  43.122   8.303   6.854
 4268POPC   C4B54346  42.855   8.208   7.207
 4269POPC   NC354347  35.155  23.725   5.240
 4269POPC   PO454348  35.785  24.044   5.315
 4269POPC   GL154349  35.602  23.745   5.636
 4269POPC   GL254350  35.237  23.654   5.725
 4269POPC   C1A54351  35.545  23.773   6.100
 4269POPC   D2A54352  35.432  23.718   6.533
 4269POPC   C3A54353  35.542  23.943   6.907
 4269POPC   C4A54354  35.368  23.864   7.293
 4269POPC   C1B54355  34.976  23.561   6.080
 4269POPC   C2B54356  34.929  23.678   6.506
 4269POPC   C3B54357  35.058  23.722   6.915
 4269POPC   C4B54358  34.995  23.471   7.257
 4270POPC   NC354359  28.090  16.542   5.062
 4270POPC   PO454360  28.464  16.034   5.389
 4270POPC   GL154361  28.330  15.856   5.794
 4270POPC   GL254362  28.463  15.560   5.959
 4270POPC   C1A54363  28.101  15.930   6.161
 4270POPC   D2A54364  27.984  15.860   6.579
 4270POPC   C3A54365  28.359  15.923   6.807
 4270POPC   C4A54366  28.426  15.871   7.210
 4270POPC   C1B54367  28.606  15.871   6.280
 4270POPC   C2B54368  28.902  15.838   6.604
 4270POPC   C3B54369  28.778  15.606   6.927
 4270POPC   C4B54370  28.702  15.469   7.310
 4271POPC   NC354371  21.846   6.999   5.586
 4271POPC   PO454372  21.274   6.589   5.404
 4271POPC   GL154373  21.299   6.756   5.793
 4271POPC   GL254374  21.020   6.998   5.830
 4271POPC   C1A54375  21.488   6.611   6.184
 4271POPC   D2A54376  21.594   6.269   6.444
 4271POPC   C3A54377  21.507   6.337   6.892
 4271POPC   C4A54378  21.447   6.613   7.251
 4271POPC   C1B54379  21.054   6.868   6.254
 4271POPC   C2B54380  21.258   6.812   6.647
 4271POPC   C3B54381  21.056   6.857   7.037
 4271POPC   C4B54382  21.033   6.802   7.502
 4272POPC   NC354383  24.967  15.073   5.387
 4272POPC   PO454384  25.628  14.909   5.557
 4272POPC   GL154385  25.422  15.234   5.790
 4272POPC   GL254386  25.078  15.166   5.872
 4272POPC   C1A54387  25.403  15.448   6.213
 4272POPC   D2A54388  25.311  15.399   6.679
 4272POPC   C3A54389  25.443  15.131   7.041
 4272POPC   C4A54390  25.076  15.330   7.249
 4272POPC   C1B54391  25.303  14.902   6.171
 4272POPC   C2B54392  25.266  14.853   6.614
 4272POPC   C3B54393  25.017  14.870   6.959
 4272POPC   C4B54394  25.117  14.682   7.313
 4273POPC   NC354395  17.276   1.367   5.234
 4273POPC   PO454396  17.926   1.288   5.302
 4273POPC   GL154397  17.662   1.311   5.684
 4273POPC   GL254398  17.286   1.316   5.745
 4273POPC   C1A54399  17.647   1.310   6.126
 4273POPC   D2A54400  17.455   1.074   6.469
 4273POPC   C3A54401  17.620   1.120   6.862
 4273POPC   C4A54402  17.447   1.090   7.262
 4273POPC   C1B54403  17.127   1.329   6.177
 4273POPC   C2B54404  17.131   1.529   6.588
 4273POPC   C3B54405  17.350   1.532   6.978
 4273POPC   C4B54406  17.556   1.577   7.364
 4274POPC   NC354407  30.535  23.031   5.270
 4274POPC   PO454408  31.016  22.687   5.580
 4274POPC   GL154409  30.772  23.020   5.739
 4274POPC   GL254410  30.468  22.814   5.727
 4274POPC   C1A54411  30.830  23.233   6.127
 4274POPC   D2A54412  30.809  22.980   6.501
 4274POPC   C3A54413  30.761  23.205   6.898
 4274POPC   C4A54414  30.841  23.005   7.274
 4274POPC   C1B54415  30.588  22.611   6.107
 4274POPC   C2B54416  30.425  22.596   6.524
 4274POPC   C3B54417  30.645  22.670   6.906
 4274POPC   C4B54418  30.549  22.504   7.302
 4275POPC   NC354419  22.357   1.407   5.395
 4275POPC   PO454420  21.995   0.974   5.652
 4275POPC   GL154421  22.102   1.270   5.979
 4275POPC   GL254422  22.376   1.493   5.924
 4275POPC   C1A54423  22.262   1.222   6.428
 4275POPC   D2A54424  22.380   0.901   6.753
 4275POPC   C3A54425  22.248   0.984   7.188
 4275POPC   C4A54426  22.024   0.687   7.497
 4275POPC   C1B54427  22.550   1.645   6.332
 4275POPC   C2B54428  22.350   1.735   6.733
 4275POPC   C3B54429  22.130   1.477   7.041
 4275POPC   C4B54430  22.238   1.413   7.468
 4276POPC   NC354431  16.746   1.581   5.504
 4276POPC   PO454432  16.412   2.177   5.578
 4276POPC   GL154433  16.743   2.022   5.877
 4276POPC   GL254434  16.986   1.731   5.915
 4276POPC   C1A54435  16.911   2.062   6.297
 4276POPC   D2A54436  17.161   2.184   6.634
 4276POPC   C3A54437  16.965   2.253   7.048
 4276POPC   C4A54438  16.541   2.118   7.123
 4276POPC   C1B54439  16.689   1.600   6.253
 4276POPC   C2B54440  16.668   1.784   6.683
 4276POPC   C3B54441  16.874   1.721   7.078
 4276POPC   C4B54442  16.719   1.805   7.508
 4277POPC   NC354443  17.743  30.273   5.213
 4277POPC   PO454444  17.297  30.770   5.279
 4277POPC   GL154445  17.323  30.767   5.746
 4277POPC   GL254446  17.688  30.760   5.815
 4277POPC   C1A54447  17.368  30.946   6.190
 4277POPC   D2A54448  17.262  30.719   6.592
 4277POPC   C3A54449  17.315  30.835   7.040
 4277POPC   C4A54450  17.629  30.932   7.321
 4277POPC   C1B54451  17.645  30.510   6.181
 4277POPC   C2B54452  17.931  30.508   6.502
 4277POPC   C3B54453  17.802  30.691   6.878
 4277POPC   C4B54454  17.964  30.577   7.258
 4278POPC   NC354455   3.010  44.668   5.592
 4278POPC   PO454456   2.381  44.538   5.405
 4278POPC   GL154457   2.557  44.614   5.829
 4278POPC   GL254458   2.648  44.990   5.806
 4278POPC   C1A54459   2.848  44.444   6.176
 4278POPC   D2A54460   3.045  44.270   6.559
 4278POPC   C3A54461   2.711  44.329   6.858
 4278POPC   C4A54462   2.661  44.584   7.217
 4278POPC   C1B54463   2.834  44.967   6.222
 4278POPC   C2B54464   2.878  44.756   6.628
 4278POPC   C3B54465   2.784  44.997   6.993
 4278POPC   C4B54466   2.610   0.146   7.365
 4279POPC   NC354467   6.573   6.527   5.569
 4279POPC   PO454468   6.776   7.147   5.420
 4279POPC   GL154469   6.627   6.916   5.875
 4279POPC   GL254470   6.857   6.626   5.981
 4279POPC   C1A54471   6.442   6.690   6.258
 4279POPC   D2A54472   6.526   6.581   6.682
 4279POPC   C3A54473   6.757   6.824   6.947
 4279POPC   C4A54474   6.512   6.753   7.301
 4279POPC   C1B54475   6.972   6.699   6.422
 4279POPC   C2B54476   6.998   6.395   6.759
 4279POPC   C3B54477   6.901   6.374   7.168
 4279POPC   C4B54478   7.046   6.095   7.468
 4280POPC   NC354479  33.080  29.292   4.887
 4280POPC   PO454480  32.851  28.917   5.405
 4280POPC   GL154481  32.977  29.155   5.772
 4280POPC   GL254482  33.173  28.894   5.833
 4280POPC   C1A54483  33.015  29.220   6.243
 4280POPC   D2A54484  33.057  29.451   6.636
 4280POPC   C3A54485  33.055  29.304   7.082
 4280POPC   C4A54486  32.860  28.914   7.135
 4280POPC   C1B54487  33.228  28.766   6.274
 4280POPC   C2B54488  33.276  28.997   6.653
 4280POPC   C3B54489  33.454  28.988   7.053
 4280POPC   C4B54490  33.270  28.989   7.457
 4281POPC   NC354491  10.742  29.255   5.467
 4281POPC   PO454492  10.078  28.982   5.588
 4281POPC   GL154493  10.456  29.008   5.866
 4281POPC   GL254494  10.565  29.349   5.923
 4281POPC   C1A54495  10.618  29.016   6.307
 4281POPC   D2A54496  10.757  29.310   6.654
 4281POPC   C3A54497  10.698  29.102   7.058
 4281POPC   C4A54498  10.326  28.819   7.164
 4281POPC   C1B54499  10.207  29.478   6.156
 4281POPC   C2B54500  10.287  29.593   6.571
 4281POPC   C3B54501  10.244  29.358   6.933
 4281POPC   C4B54502  10.019  29.360   7.310
 4282POPC   NC354503  20.490  17.204   5.381
 4282POPC   PO454504  20.887  17.682   5.089
 4282POPC   GL154505  20.864  17.665   5.577
 4282POPC   GL254506  20.809  17.345   5.758
 4282POPC   C1A54507  20.879  17.766   6.057
 4282POPC   D2A54508  20.647  17.779   6.476
 4282POPC   C3A54509  20.718  17.648   6.885
 4282POPC   C4A54510  20.454  17.479   7.192
 4282POPC   C1B54511  20.555  17.381   6.142
 4282POPC   C2B54512  20.687  17.229   6.528
 4282POPC   C3B54513  20.755  17.142   6.937
 4282POPC   C4B54514  20.985  17.367   7.242
 4283POPC   NC354515  17.825  37.923   5.057
 4283POPC   PO454516  17.500  37.453   5.456
 4283POPC   GL154517  17.384  37.506   5.852
 4283POPC   GL254518  17.183  37.805   5.933
 4283POPC   C1A54519  17.610  37.664   6.223
 4283POPC   D2A54520  17.511  37.984   6.536
 4283POPC   C3A54521  17.537  37.868   6.980
 4283POPC   C4A54522  17.226  37.907   7.296
 4283POPC   C1B54523  17.145  37.474   6.286
 4283POPC   C2B54524  17.380  37.469   6.657
 4283POPC   C3B54525  17.184  37.461   7.032
 4283POPC   C4B54526  17.034  37.451   7.422
 4284POPC   NC354527   3.502  17.753   5.593
 4284POPC   PO454528   3.201  17.201   5.451
 4284POPC   GL154529   3.488  17.197   5.811
 4284POPC   GL254530   3.800  17.410   5.821
 4284POPC   C1A54531   3.365  17.288   6.238
 4284POPC   D2A54532   3.207  17.221   6.666
 4284POPC   C3A54533   3.425  17.480   6.939
 4284POPC   C4A54534   3.566  17.412   7.353
 4284POPC   C1B54535   3.943  17.634   6.198
 4284POPC   C2B54536   3.895  17.818   6.620
 4284POPC   C3B54537   3.932  17.630   7.031
 4284POPC   C4B54538   4.047  17.431   7.463
 4285POPC   NC354539  17.973  24.719   5.690
 4285POPC   PO454540  18.617  24.420   5.606
 4285POPC   GL154541  18.377  24.538   5.959
 4285POPC   GL254542  18.044  24.324   6.026
 4285POPC   C1A54543  18.453  24.403   6.374
 4285POPC   D2A54544  18.484  24.716   6.677
 4285POPC   C3A54545  18.406  24.607   7.075
 4285POPC   C4A54546  18.417  24.198   7.167
 4285POPC   C1B54547  17.991  24.662   6.317
 4285POPC   C2B54548  17.708  24.784   6.604
 4285POPC   C3B54549  17.910  24.732   6.987
 4285POPC   C4B54550  18.005  24.657   7.420
 4286POPC   NC354551  43.527  33.836   5.442
 4286POPC   PO454552  42.880  33.528   5.369
 4286POPC   GL154553  43.057  33.747   5.751
 4286POPC   GL254554  43.378  33.630   5.889
 4286POPC   C1A54555  43.081  33.982   6.160
 4286POPC   D2A54556  42.975  33.811   6.557
 4286POPC   C3A54557  43.081  33.983   6.958
 4286POPC   C4A54558  43.063  33.879   7.406
 4286POPC   C1B54559  43.436  33.647   6.334
 4286POPC   C2B54560  43.257  33.393   6.612
 4286POPC   C3B54561  43.176  33.461   7.006
 4286POPC   C4B54562  43.413  33.519   7.345
 4287POPC   NC354563   2.877  11.649   5.456
 4287POPC   PO454564   2.346  12.104   5.260
 4287POPC   GL154565   2.460  12.086   5.709
 4287POPC   GL254566   2.390  12.351   5.852
 4287POPC   C1A54567   2.796  12.177   6.100
 4287POPC   D2A54568   2.796  12.208   6.542
 4287POPC   C3A54569   2.925  11.853   6.810
 4287POPC   C4A54570   3.142  12.038   7.173
 4287POPC   C1B54571   2.356  11.997   6.219
 4287POPC   C2B54572   2.395  11.887   6.631
 4287POPC   C3B54573   2.536  12.118   6.982
 4287POPC   C4B54574   2.468  11.969   7.339
 4288POPC   NC354575  30.600  32.625   5.449
 4288POPC   PO454576  31.015  32.213   5.506
 4288POPC   GL154577  30.811  32.253   5.857
 4288POPC   GL254578  30.857  32.607   5.878
 4288POPC   C1A54579  30.919  32.309   6.282
 4288POPC   D2A54580  30.676  32.099   6.548
 4288POPC   C3A54581  30.729  31.910   6.906
 4288POPC   C4A54582  30.586  32.028   7.276
 4288POPC   C1B54583  30.457  32.557   6.112
 4288POPC   C2B54584  30.510  32.586   6.537
 4288POPC   C3B54585  30.521  32.415   6.930
 4288POPC   C4B54586  30.379  32.658   7.241
 4289POPC   NC354587  43.939  36.411   5.331
 4289POPC   PO454588  43.828  35.704   5.364
 4289POPC   GL154589  43.827  36.014   5.773
 4289POPC   GL254590  43.867  36.387   5.829
 4289POPC   C1A54591  43.951  35.914   6.210
 4289POPC   D2A54592  43.760  35.987   6.611
 4289POPC   C3A54593  43.998  35.802   6.921
 4289POPC   C4A54594  43.954  35.841   7.352
 4289POPC   C1B54595  44.176  36.369   6.170
 4289POPC   C2B54596  44.228  36.236   6.600
 4289POPC   C3B54597  44.028  36.320   6.993
 4289POPC   C4B54598  43.678  36.591   7.094
 4290POPC   NC354599   0.415  34.463   5.474
 4290POPC   PO454600   0.499  35.121   5.565
 4290POPC   GL154601   0.574  34.772   5.877
 4290POPC   GL254602   0.282  34.568   5.938
 4290POPC   C1A54603   0.526  34.681   6.357
 4290POPC   D2A54604   0.222  34.440   6.593
 4290POPC   C3A54605   0.357  34.590   6.959
 4290POPC   C4A54606   0.213  34.770   7.282
 4290POPC   C1B54607   0.612  34.277   6.074
 4290POPC   C2B54608   0.593  34.134   6.462
 4290POPC   C3B54609   0.490  34.102   6.893
 4290POPC   C4B54610   0.581  34.270   7.302
 4291POPC   NC354611   9.084  34.856   5.223
 4291POPC   PO454612   8.638  34.453   5.355
 4291POPC   GL154613   9.028  34.540   5.646
 4291POPC   GL254614   9.093  34.902   5.743
 4291POPC   C1A54615   9.220  34.459   6.084
 4291POPC   D2A54616   9.253  34.594   6.552
 4291POPC   C3A54617   9.185  34.345   6.957
 4291POPC   C4A54618   9.182  34.296   7.414
 4291POPC   C1B54619   9.078  34.961   6.206
 4291POPC   C2B54620   9.334  35.111   6.574
 4291POPC   C3B54621   9.327  35.004   7.012
 4291POPC   C4B54622   9.106  34.772   7.280
 4292POPC   NC354623  24.172  32.453   5.433
 4292POPC   PO454624  24.533  31.889   5.627
 4292POPC   GL154625  24.558  32.253   5.869
 4292POPC   GL254626  24.466  32.574   5.834
 4292POPC   C1A54627  24.764  32.398   6.251
 4292POPC   D2A54628  25.037  32.248   6.608
 4292POPC   C3A54629  24.878  32.340   7.022
 4292POPC   C4A54630  24.728  32.183   7.411
 4292POPC   C1B54631  24.233  32.464   6.228
 4292POPC   C2B54632  24.391  32.428   6.675
 4292POPC   C3B54633  24.393  32.530   7.120
 4292POPC   C4B54634  24.267  32.344   7.516
 4293POPC   NC354635  17.095  39.361   5.404
 4293POPC   PO454636  17.740  39.043   5.338
 4293POPC   GL154637  17.663  39.175   5.753
 4293POPC   GL254638  17.472  39.474   5.747
 4293POPC   C1A54639  17.510  39.102   6.178
 4293POPC   D2A54640  17.426  39.338   6.560
 4293POPC   C3A54641  17.492  39.166   6.974
 4293POPC   C4A54642  17.682  38.809   7.154
 4293POPC   C1B54643  17.265  39.606   6.140
 4293POPC   C2B54644  17.128  39.776   6.555
 4293POPC   C3B54645  17.247  39.615   6.957
 4293POPC   C4B54646  17.327  39.525   7.384
 4294POPC   NC354647  17.512  28.990   5.619
 4294POPC   PO454648  17.757  29.498   5.529
 4294POPC   GL154649  17.681  29.330   5.977
 4294POPC   GL254650  17.757  28.959   6.036
 4294POPC   C1A54651  17.383  29.355   6.364
 4294POPC   D2A54652  17.155  29.391   6.766
 4294POPC   C3A54653  17.438  29.472   7.044
 4294POPC   C4A54654  17.719  29.253   7.272
 4294POPC   C1B54655  17.703  28.964   6.456
 4294POPC   C2B54656  17.318  28.913   6.682
 4294POPC   C3B54657  17.336  28.956   7.105
 4294POPC   C4B54658  17.748  28.760   7.182
 4295POPC   NC354659  32.336  26.297   5.601
 4295POPC   PO454660  32.186  25.673   5.422
 4295POPC   GL154661  32.124  25.883   5.831
 4295POPC   GL254662  31.862  26.120   5.909
 4295POPC   C1A54663  32.279  25.891   6.261
 4295POPC   D2A54664  32.466  26.140   6.611
 4295POPC   C3A54665  32.435  25.982   7.040
 4295POPC   C4A54666  32.123  25.947   7.355
 4295POPC   C1B54667  31.833  26.116   6.383
 4295POPC   C2B54668  31.940  26.135   6.837
 4295POPC   C3B54669  32.001  26.400   7.207
 4295POPC   C4B54670  31.980  26.426   7.670
 4296POPC   NC354671  12.843   4.835   5.463
 4296POPC   PO454672  12.450   5.338   5.443
 4296POPC   GL154673  12.428   4.990   5.741
 4296POPC   GL254674  12.764   5.139   5.889
 4296POPC   C1A54675  12.504   4.790   6.159
 4296POPC   D2A54676  12.776   5.028   6.490
 4296POPC   C3A54677  12.669   5.039   6.950
 4296POPC   C4A54678  12.628   4.823   7.361
 4296POPC   C1B54679  13.124   5.382   6.121
 4296POPC   C2B54680  13.341   5.355   6.547
 4296POPC   C3B54681  13.166   5.220   6.961
 4296POPC   C4B54682  13.113   5.144   7.432
 4297POPC   NC354683  22.654  23.106   5.612
 4297POPC   PO454684  23.284  23.216   5.390
 4297POPC   GL154685  23.210  23.025   5.795
 4297POPC   GL254686  23.037  23.331   5.857
 4297POPC   C1A54687  22.990  22.800   6.168
 4297POPC   D2A54688  22.736  22.826   6.566
 4297POPC   C3A54689  22.991  22.693   6.934
 4297POPC   C4A54690  23.211  22.901   7.250
 4297POPC   C1B54691  22.867  23.287   6.261
 4297POPC   C2B54692  23.144  23.148   6.581
 4297POPC   C3B54693  23.152  23.323   6.953
 4297POPC   C4B54694  22.781  23.136   7.079
 4298POPC   NC354695   2.708  32.848   5.379
 4298POPC   PO454696   3.170  33.364   5.353
 4298POPC   GL154697   2.882  33.450   5.689
 4298POPC   GL254698   2.578  33.254   5.704
 4298POPC   C1A54699   2.855  33.469   6.126
 4298POPC   D2A54700   2.981  33.214   6.471
 4298POPC   C3A54701   2.844  33.265   6.886
 4298POPC   C4A54702   2.798  32.882   7.126
 4298POPC   C1B54703   2.668  32.992   6.093
 4298POPC   C2B54704   2.567  32.868   6.521
 4298POPC   C3B54705   2.344  32.614   6.795
 4298POPC   C4B54706   2.355  32.669   7.236
 4299POPC   NC354707  15.648  27.751   5.035
 4299POPC   PO454708  16.124  27.425   5.438
 4299POPC   GL154709  15.941  27.621   5.813
 4299POPC   GL254710  16.220  27.723   5.893
 4299POPC   C1A54711  15.696  27.727   6.236
 4299POPC   D2A54712  15.685  27.931   6.684
 4299POPC   C3A54713  15.747  27.634   7.064
 4299POPC   C4A54714  15.673  27.670   7.526
 4299POPC   C1B54715  16.128  27.440   6.239
 4299POPC   C2B54716  16.007  27.528   6.628
 4299POPC   C3B54717  16.229  27.456   6.991
 4299POPC   C4B54718  16.163  27.540   7.416
 4300POPC   NC354719  19.711  16.395   5.572
 4300POPC   PO454720  19.973  15.841   5.285
 4300POPC   GL154721  19.945  15.939   5.737
 4300POPC   GL254722  19.580  15.952   5.787
 4300POPC   C1A54723  20.111  15.808   6.151
 4300POPC   D2A54724  20.192  15.943   6.577
 4300POPC   C3A54725  19.913  16.005   6.919
 4300POPC   C4A54726  19.841  16.206   7.314
 4300POPC   C1B54727  19.704  16.118   6.190
 4300POPC   C2B54728  19.703  15.788   6.486
 4300POPC   C3B54729  19.452  15.770   6.834
 4300POPC   C4B54730  19.626  15.700   7.235
 4301POPC   NC354731  17.866  17.415   5.344
 4301POPC   PO454732  18.541  17.222   5.304
 4301POPC   GL154733  18.283  17.507   5.619
 4301POPC   GL254734  18.517  17.576   5.868
 4301POPC   C1A54735  18.043  17.605   6.028
 4301POPC   D2A54736  18.150  17.573   6.476
 4301POPC   C3A54737  17.964  17.363   6.837
 4301POPC   C4A54738  18.194  17.569   7.167
 4301POPC   C1B54739  18.670  17.551   6.289
 4301POPC   C2B54740  18.693  17.239   6.609
 4301POPC   C3B54741  18.444  17.165   6.983
 4301POPC   C4B54742  18.699  17.399   7.260
 4302POPC   NC354743   7.155  28.472   5.110
 4302POPC   PO454744   6.721  27.992   5.346
 4302POPC   GL154745   6.492  28.136   5.769
 4302POPC   GL254746   6.756  28.086   5.952
 4302POPC   C1A54747   6.466  28.418   6.213
 4302POPC   D2A54748   6.540  28.618   6.637
 4302POPC   C3A54749   6.544  28.360   6.999
 4302POPC   C4A54750   6.477  28.403   7.476
 4302POPC   C1B54751   6.565  27.919   6.294
 4302POPC   C2B54752   6.712  28.038   6.641
 4302POPC   C3B54753   6.899  27.984   7.011
 4302POPC   C4B54754   6.941  28.285   7.282
 4303POPC   NC354755   9.334   8.698   5.553
 4303POPC   PO454756   8.976   8.129   5.289
 4303POPC   GL154757   9.053   8.149   5.769
 4303POPC   GL254758   9.192   8.452   6.014
 4303POPC   C1A54759   9.003   7.936   6.171
 4303POPC   D2A54760   9.150   7.846   6.577
 4303POPC   C3A54761   8.917   7.900   6.949
 4303POPC   C4A54762   9.222   8.097   7.166
 4303POPC   C1B54763   8.789   8.400   6.249
 4303POPC   C2B54764   8.703   8.202   6.635
 4303POPC   C3B54765   8.758   8.377   7.079
 4303POPC   C4B54766   8.884   8.255   7.514
 4304POPC   NC354767  40.348  20.482   5.300
 4304POPC   PO454768  41.033  20.371   5.328
 4304POPC   GL154769  40.898  20.528   5.743
 4304POPC   GL254770  40.597  20.402   5.745
 4304POPC   C1A54771  40.920  20.417   6.201
 4304POPC   D2A54772  41.004  20.661   6.585
 4304POPC   C3A54773  41.025  20.591   7.024
 4304POPC   C4A54774  41.000  20.818   7.403
 4304POPC   C1B54775  40.449  20.607   6.109
 4304POPC   C2B54776  40.448  20.666   6.572
 4304POPC   C3B54777  40.565  20.414   6.957
 4304POPC   C4B54778  40.618  20.465   7.440
 4305POPC   NC354779   7.067  25.279   5.491
 4305POPC   PO454780   6.394  25.395   5.484
 4305POPC   GL154781   6.659  25.336   5.812
 4305POPC   GL254782   6.798  25.653   5.818
 4305POPC   C1A54783   6.641  25.099   6.172
 4305POPC   D2A54784   6.519  24.941   6.584
 4305POPC   C3A54785   6.447  25.251   6.906
 4305POPC   C4A54786   6.491  25.085   7.283
 4305POPC   C1B54787   6.564  25.651   6.222
 4305POPC   C2B54788   6.335  25.682   6.629
 4305POPC   C3B54789   6.435  25.734   7.081
 4305POPC   C4B54790   6.530  25.586   7.492
 4306POPC   NC354791   6.411  19.213   5.245
 4306POPC   PO454792   6.911  18.841   5.351
 4306POPC   GL154793   6.842  18.989   5.783
 4306POPC   GL254794   6.524  19.130   5.746
 4306POPC   C1A54795   6.807  19.002   6.258
 4306POPC   D2A54796   6.437  18.888   6.531
 4306POPC   C3A54797   6.484  19.076   6.952
 4306POPC   C4A54798   6.876  18.989   7.180
 4306POPC   C1B54799   6.589  19.416   6.095
 4306POPC   C2B54800   6.571  19.404   6.520
 4306POPC   C3B54801   6.660  19.587   6.901
 4306POPC   C4B54802   6.645  19.423   7.323
 4307POPC   NC354803  20.059  16.702   5.349
 4307POPC   PO454804  20.110  17.322   5.606
 4307POPC   GL154805  19.899  16.978   5.868
 4307POPC   GL254806  20.042  16.654   5.881
 4307POPC   C1A54807  19.771  16.763   6.292
 4307POPC   D2A54808  19.808  16.958   6.704
 4307POPC   C3A54809  19.889  16.754   7.102
 4307POPC   C4A54810  19.889  16.893   7.556
 4307POPC   C1B54811  20.162  16.389   6.240
 4307POPC   C2B54812  20.052  16.450   6.667
 4307POPC   C3B54813  20.261  16.415   7.059
 4307POPC   C4B54814  20.215  16.515   7.506
 4308POPC   NC354815  37.920  25.851   5.246
 4308POPC   PO454816  37.588  26.308   5.621
 4308POPC   GL154817  37.579  26.157   5.977
 4308POPC   GL254818  37.902  25.971   5.902
 4308POPC   C1A54819  37.520  26.088   6.380
 4308POPC   D2A54820  37.897  26.005   6.592
 4308POPC   C3A54821  37.749  25.945   6.987
 4308POPC   C4A54822  37.372  26.109   7.143
 4308POPC   C1B54823  37.722  25.662   6.189
 4308POPC   C2B54824  37.472  25.606   6.556
 4308POPC   C3B54825  37.462  25.495   6.963
 4308POPC   C4B54826  37.527  25.648   7.354
 4309POPC   NC354827  44.950  22.003   5.388
 4309POPC   PO454828  44.558  22.536   5.405
 4309POPC   GL154829  44.487  22.304   5.776
 4309POPC   GL254830  44.850  22.230   5.878
 4309POPC   C1A54831  44.454  22.241   6.227
 4309POPC   D2A54832  44.715  22.315   6.577
 4309POPC   C3A54833  44.541  22.238   6.976
 4309POPC   C4A54834  44.579  22.470   7.347
 4309POPC   C1B54835   0.039  22.034   6.280
 4309POPC   C2B54836   0.015  21.932   6.764
 4309POPC   C3B54837  44.953  22.010   7.237
 4309POPC   C4B54838  44.987  21.820   7.658
 4310POPC   NC354839   4.689  27.737   5.370
 4310POPC   PO454840   5.320  27.502   5.326
 4310POPC   GL154841   5.008  27.443   5.682
 4310POPC   GL254842   4.905  27.769   5.819
 4310POPC   C1A54843   4.851  27.361   6.107
 4310POPC   D2A54844   4.904  27.656   6.449
 4310POPC   C3A54845   4.856  27.522   6.870
 4310POPC   C4A54846   4.726  27.652   7.278
 4310POPC   C1B54847   5.296  27.671   6.085
 4310POPC   C2B54848   5.396  27.817   6.524
 4310POPC   C3B54849   5.247  27.831   6.969
 4310POPC   C4B54850   5.274  27.601   7.379
 4311POPC   NC354851  27.143  33.280   5.230
 4311POPC   PO454852  27.681  32.784   5.405
 4311POPC   GL154853  27.638  33.079   5.782
 4311POPC   GL254854  27.917  33.064   5.936
 4311POPC   C1A54855  27.568  33.060   6.283
 4311POPC   D2A54856  27.717  32.921   6.718
 4311POPC   C3A54857  27.393  32.917   7.044
 4311POPC   C4A54858  26.962  32.740   7.118
 4311POPC   C1B54859  27.998  32.774   6.248
 4311POPC   C2B54860  28.170  32.663   6.627
 4311POPC   C3B54861  28.011  32.642   7.055
 4311POPC   C4B54862  27.817  32.931   7.340
 4312POPC   NC354863   5.983  25.365   5.286
 4312POPC   PO454864   5.398  24.971   5.370
 4312POPC   GL154865   5.575  25.226   5.738
 4312POPC   GL254866   5.923  25.392   5.787
 4312POPC   C1A54867   5.630  25.354   6.194
 4312POPC   D2A54868   5.549  25.159   6.585
 4312POPC   C3A54869   5.612  25.297   7.006
 4312POPC   C4A54870   5.640  25.033   7.350
 4312POPC   C1B54871   6.154  25.313   6.173
 4312POPC   C2B54872   6.052  25.156   6.584
 4312POPC   C3B54873   6.023  25.006   7.015
 4312POPC   C4B54874   6.062  25.302   7.372
 4313POPC   NC354875   1.867   4.517   5.446
 4313POPC   PO454876   2.256   4.017   5.495
 4313POPC   GL154877   2.086   4.277   5.847
 4313POPC   GL254878   2.120   4.663   5.876
 4313POPC   C1A54879   1.710   4.328   6.121
 4313POPC   D2A54880   1.720   4.495   6.533
 4313POPC   C3A54881   1.910   4.242   6.836
 4313POPC   C4A54882   1.859   4.228   7.282
 4313POPC   C1B54883   2.172   4.529   6.288
 4313POPC   C2B54884   2.174   4.692   6.704
 4313POPC   C3B54885   2.199   4.565   7.123
 4313POPC   C4B54886   2.232   4.511   7.581
 4314POPC   NC354887   2.725  26.298   5.417
 4314POPC   PO454888   3.182  25.792   5.196
 4314POPC   GL154889   2.977  25.785   5.696
 4314POPC   GL254890   2.776  26.082   5.867
 4314POPC   C1A54891   3.055  25.847   6.210
 4314POPC   D2A54892   2.835  25.868   6.652
 4314POPC   C3A54893   3.051  25.868   7.071
 4314POPC   C4A54894   3.128  25.916   7.545
 4314POPC   C1B54895   2.525  26.113   6.234
 4314POPC   C2B54896   2.482  26.345   6.618
 4314POPC   C3B54897   2.529  26.163   7.025
 4314POPC   C4B54898   2.804  26.263   7.324
 4315POPC   NC354899  35.684  26.362   5.597
 4315POPC   PO454900  35.374  25.792   5.507
 4315POPC   GL154901  35.339  25.982   5.871
 4315POPC   GL254902  35.061  25.765   5.929
 4315POPC   C1A54903  35.456  26.262   6.202
 4315POPC   D2A54904  35.643  26.155   6.559
 4315POPC   C3A54905  35.441  26.363   6.816
 4315POPC   C4A54906  35.460  26.223   7.167
 4315POPC   C1B54907  34.951  26.122   6.190
 4315POPC   C2B54908  34.827  26.019   6.604
 4315POPC   C3B54909  34.984  26.142   6.992
 4315POPC   C4B54910  34.908  26.329   7.394
 4316POPC   NC354911  22.750   4.658   5.415
 4316POPC   PO454912  23.049   4.069   5.595
 4316POPC   GL154913  22.947   4.413   5.886
 4316POPC   GL254914  23.285   4.538   5.850
 4316POPC   C1A54915  22.638   4.496   6.283
 4316POPC   D2A54916  22.436   4.566   6.738
 4316POPC   C3A54917  22.628   4.417   7.141
 4316POPC   C4A54918  22.830   4.080   7.336
 4316POPC   C1B54919  23.298   4.288   6.232
 4316POPC   C2B54920  23.233   4.031   6.600
 4316POPC   C3B54921  23.131   4.267   6.977
 4316POPC   C4B54922  23.227   4.671   7.141
 4317POPC   NC354923  14.711   1.674   5.473
 4317POPC   PO454924  15.026   1.132   5.086
 4317POPC   GL154925  14.850   1.140   5.549
 4317POPC   GL254926  15.117   1.295   5.762
 4317POPC   C1A54927  14.792   0.983   6.022
 4317POPC   D2A54928  14.967   1.152   6.449
 4317POPC   C3A54929  14.823   1.038   6.877
 4317POPC   C4A54930  14.857   0.856   7.292
 4317POPC   C1B54931  15.382   1.323   6.136
 4317POPC   C2B54932  15.621   1.283   6.518
 4317POPC   C3B54933  15.326   1.235   6.830
 4317POPC   C4B54934  15.137   1.300   7.185
 4318POPC   NC354935  22.156  23.231   5.301
 4318POPC   PO454936  22.422  22.722   5.498
 4318POPC   GL154937  22.211  22.914   5.841
 4318POPC   GL254938  22.208  23.299   5.822
 4318POPC   C1A54939  22.112  22.740   6.273
 4318POPC   D2A54940  22.236  22.834   6.696
 4318POPC   C3A54941  22.067  22.709   7.125
 4318POPC   C4A54942  22.140  22.590   7.555
 4318POPC   C1B54943  22.349  23.204   6.256
 4318POPC   C2B54944  22.506  23.284   6.680
 4318POPC   C3B54945  22.256  23.174   7.059
 4318POPC   C4B54946  22.076  23.102   7.490
 4319POPC   NC354947  34.159  16.350   5.395
 4319POPC   PO454948  34.753  16.681   5.338
 4319POPC   GL154949  34.445  16.673   5.720
 4319POPC   GL254950  34.172  16.968   5.760
 4319POPC   C1A54951  34.652  16.698   6.126
 4319POPC   D2A54952  34.877  16.693   6.528
 4319POPC   C3A54953  34.730  16.719   6.972
 4319POPC   C4A54954  34.751  17.019   7.365
 4319POPC   C1B54955  34.122  16.743   6.130
 4319POPC   C2B54956  34.319  16.532   6.473
 4319POPC   C3B54957  34.217  16.583   6.888
 4319POPC   C4B54958  34.060  16.481   7.326
 4320POPC   NC354959  18.791  24.823   5.465
 4320POPC   PO454960  18.978  25.508   5.525
 4320POPC   GL154961  18.672  25.446   5.891
 4320POPC   GL254962  18.743  25.089   5.894
 4320POPC   C1A54963  18.797  25.348   6.338
 4320POPC   D2A54964  19.232  25.302   6.524
 4320POPC   C3A54965  19.231  25.242   6.966
 4320POPC   C4A54966  18.881  25.413   7.213
 4320POPC   C1B54967  18.769  24.812   6.245
 4320POPC   C2B54968  18.967  24.865   6.644
 4320POPC   C3B54969  18.817  24.925   7.044
 4320POPC   C4B54970  18.584  24.986   7.396
 4321POPC   NC354971  16.210  30.230   5.411
 4321POPC   PO454972  15.680  29.729   5.397
 4321POPC   GL154973  15.975  29.866   5.738
 4321POPC   GL254974  15.890  30.174   5.815
 4321POPC   C1A54975  16.110  29.769   6.182
 4321POPC   D2A54976  16.307  29.774   6.612
 4321POPC   C3A54977  16.011  29.737   6.940
 4321POPC   C4A54978  15.927  29.990   7.270
 4321POPC   C1B54979  16.038  30.281   6.209
 4321POPC   C2B54980  15.867  30.081   6.572
 4321POPC   C3B54981  15.746  30.283   6.920
 4321POPC   C4B54982  16.116  30.443   7.122
 4322POPC   NC354983  13.006  19.942   5.299
 4322POPC   PO454984  12.519  19.516   5.483
 4322POPC   GL154985  12.901  19.689   5.723
 4322POPC   GL254986  12.808  20.058   5.773
 4322POPC   C1A54987  13.201  19.875   6.038
 4322POPC   D2A54988  13.142  20.057   6.465
 4322POPC   C3A54989  13.090  19.769   6.836
 4322POPC   C4A54990  12.855  19.833   7.207
 4322POPC   C1B54991  12.701  19.900   6.184
 4322POPC   C2B54992  12.621  19.890   6.635
 4322POPC   C3B54993  12.489  19.575   6.977
 4322POPC   C4B54994  12.672  19.379   7.382
 4323POPC   NC354995  12.387  41.100   5.368
 4323POPC   PO454996  12.053  40.429   5.432
 4323POPC   GL154997  11.924  40.758   5.788
 4323POPC   GL254998  12.099  41.119   5.801
 4323POPC   C1A54999  12.009  40.883   6.243
 4323POPC   D2A55000  11.859  40.982   6.658
 4323POPC   C3A55001  12.049  40.717   6.966
 4323POPC   C4A55002  11.894  40.887   7.316
 4323POPC   C1B55003  12.335  41.298   6.169
 4323POPC   C2B55004  12.342  41.139   6.604
 4323POPC   C3B55005  12.218  41.186   7.049
 4323POPC   C4B55006  12.308  41.073   7.503
 4324POPC   NC355007  15.133  32.539   5.461
 4324POPC   PO455008  15.572  32.080   5.459
 4324POPC   GL155009  15.311  32.144   5.801
 4324POPC   GL255010  14.943  32.125   5.762
 4324POPC   C1A55011  15.277  32.224   6.242
 4324POPC   D2A55012  15.418  32.132   6.647
 4324POPC   C3A55013  15.493  32.453   6.939
 4324POPC   C4A55014  15.549  32.353   7.376
 4324POPC   C1B55015  14.779  32.102   6.206
 4324POPC   C2B55016  14.895  32.215   6.649
 4324POPC   C3B55017  15.005  32.320   7.093
 4324POPC   C4B55018  14.958  32.018   7.427
 4325POPC   NC355019  24.842  12.877   5.464
 4325POPC   PO455020  24.160  13.003   5.459
 4325POPC   GL155021  24.429  13.043   5.793
 4325POPC   GL255022  24.483  12.690   5.823
 4325POPC   C1A55023  24.729  12.991   6.144
 4325POPC   D2A55024  24.650  12.825   6.535
 4325POPC   C3A55025  24.516  13.018   6.903
 4325POPC   C4A55026  24.808  13.167   7.209
 4325POPC   C1B55027  24.312  12.491   6.200
 4325POPC   C2B55028  24.230  12.568   6.636
 4325POPC   C3B55029  24.453  12.508   7.018
 4325POPC   C4B55030  24.309  12.407   7.422
 4326POPC   NC355031  18.499  40.200   5.491
 4326POPC   PO455032  18.491  39.519   5.501
 4326POPC   GL155033  18.304  39.798   5.772
 4326POPC   GL255034  18.059  39.563   5.851
 4326POPC   C1A55035  18.450  40.017   6.155
 4326POPC   D2A55036  18.416  40.198   6.569
 4326POPC   C3A55037  18.072  40.193   6.870
 4326POPC   C4A55038  18.340  40.221   7.208
 4326POPC   C1B55039  18.429  39.485   6.164
 4326POPC   C2B55040  18.515  39.663   6.598
 4326POPC   C3B55041  18.278  39.719   6.990
 4326POPC   C4B55042  18.123  39.824   7.412
 4327POPC   NC355043  42.255  22.774   5.428
 4327POPC   PO455044  42.387  23.407   5.258
 4327POPC   GL155045  42.341  23.172   5.704
 4327POPC   GL255046  41.957  23.054   5.748
 4327POPC   C1A55047  42.324  22.893   6.100
 4327POPC   D2A55048  42.145  22.801   6.532
 4327POPC   C3A55049  42.452  22.795   6.875
 4327POPC   C4A55050  42.507  22.833   7.341
 4327POPC   C1B55051  41.913  23.213   6.181
 4327POPC   C2B55052  42.068  23.379   6.581
 4327POPC   C3B55053  42.160  23.210   6.991
 4327POPC   C4B55054  41.997  22.803   7.172
 4328POPC   NC355055  43.751  29.091   5.390
 4328POPC   PO455056  44.130  28.732   5.786
 4328POPC   GL155057  43.901  29.140   5.880
 4328POPC   GL255058  44.125  29.392   5.727
 4328POPC   C1A55059  43.618  29.238   6.254
 4328POPC   D2A55060  43.646  29.030   6.677
 4328POPC   C3A55061  43.622  29.195   7.081
 4328POPC   C4A55062  43.953  29.086   7.370
 4328POPC   C1B55063  44.104  29.488   6.196
 4328POPC   C2B55064  44.116  29.423   6.678
 4328POPC   C3B55065  44.047  29.546   7.150
 4328POPC   C4B55066  44.082  29.488   7.655
 4329POPC   NC355067  13.253  11.926   5.449
 4329POPC   PO455068  13.701  12.424   5.308
 4329POPC   GL155069  13.727  12.106   5.638
 4329POPC   GL255070  14.040  12.164   5.792
 4329POPC   C1A55071  13.692  11.922   6.088
 4329POPC   D2A55072  13.944  11.869   6.507
 4329POPC   C3A55073  13.715  11.949   6.928
 4329POPC   C4A55074  13.392  11.986   7.276
 4329POPC   C1B55075  13.927  12.347   6.225
 4329POPC   C2B55076  13.909  12.380   6.686
 4329POPC   C3B55077  13.822  12.405   7.144
 4329POPC   C4B55078  13.807  12.147   7.569
 4330POPC   NC355079  16.812  24.569   5.299
 4330POPC   PO455080  16.931  24.002   5.484
 4330POPC   GL155081  16.988  24.351   5.765
 4330POPC   GL255082  16.616  24.396   5.747
 4330POPC   C1A55083  16.880  24.667   6.104
 4330POPC   D2A55084  16.522  24.717   6.410
 4330POPC   C3A55085  16.659  24.711   6.850
 4330POPC   C4A55086  16.487  24.541   7.208
 4330POPC   C1B55087  16.660  24.204   6.162
 4330POPC   C2B55088  16.775  24.295   6.574
 4330POPC   C3B55089  16.680  24.124   6.975
 4330POPC   C4B55090  16.850  24.159   7.397
 4331POPC   NC355091  29.469  16.877   5.022
 4331POPC   PO455092  29.088  16.633   5.543
 4331POPC   GL155093  29.101  16.888   5.909
 4331POPC   GL255094  29.400  16.693   5.984
 4331POPC   C1A55095  29.012  16.896   6.336
 4331POPC   D2A55096  28.947  16.817   6.769
 4331POPC   C3A55097  29.113  16.892   7.146
 4331POPC   C4A55098  28.938  16.517   7.301
 4331POPC   C1B55099  29.540  16.947   6.306
 4331POPC   C2B55100  29.533  16.836   6.748
 4331POPC   C3B55101  29.342  16.477   6.942
 4331POPC   C4B55102  29.481  16.354   7.328
 4332POPC   NC355103  32.778  17.133   5.561
 4332POPC   PO455104  32.976  16.573   5.151
 4332POPC   GL155105  32.849  16.614   5.644
 4332POPC   GL255106  32.820  16.304   5.830
 4332POPC   C1A55107  33.062  16.732   6.103
 4332POPC   D2A55108  32.969  16.952   6.529
 4332POPC   C3A55109  33.111  16.811   6.955
 4332POPC   C4A55110  33.018  16.710   7.397
 4332POPC   C1B55111  32.710  16.372   6.289
 4332POPC   C2B55112  32.766  16.486   6.721
 4332POPC   C3B55113  32.746  16.347   7.147
 4332POPC   C4B55114  32.696  16.353   7.579
 4333POPC   NC355115  18.392  20.119   5.443
 4333POPC   PO455116  18.153  19.496   5.381
 4333POPC   GL155117  18.275  19.716   5.757
 4333POPC   GL255118  18.556  19.487   5.781
 4333POPC   C1A55119  18.123  20.023   6.096
 4333POPC   D2A55120  17.929  19.969   6.538
 4333POPC   C3A55121  18.225  19.992   6.891
 4333POPC   C4A55122  18.197  20.168   7.294
 4333POPC   C1B55123  18.376  19.411   6.155
 4333POPC   C2B55124  18.305  19.631   6.505
 4333POPC   C3B55125  18.412  19.504   6.895
 4333POPC   C4B55126  18.412  19.684   7.251
 4334POPC   NC355127   4.010  42.325   5.289
 4334POPC   PO455128   4.727  42.067   5.448
 4334POPC   GL155129   4.511  42.123   5.832
 4334POPC   GL255130   4.256  42.346   5.761
 4334POPC   C1A55131   4.484  42.278   6.273
 4334POPC   D2A55132   4.514  42.099   6.685
 4334POPC   C3A55133   4.585  42.331   7.064
 4334POPC   C4A55134   4.660  42.268   7.497
 4334POPC   C1B55135   3.993  42.325   6.130
 4334POPC   C2B55136   3.884  42.371   6.559
 4334POPC   C3B55137   4.107  42.329   6.891
 4334POPC   C4B55138   3.998  42.409   7.261
 4335POPC   NC355139  28.461  21.547   5.416
 4335POPC   PO455140  28.555  22.152   5.193
 4335POPC   GL155141  28.376  22.244   5.600
 4335POPC   GL255142  28.347  21.920   5.750
 4335POPC   C1A55143  28.367  22.344   6.062
 4335POPC   D2A55144  28.556  22.250   6.482
 4335POPC   C3A55145  28.334  22.166   6.899
 4335POPC   C4A55146  28.355  22.407   7.279
 4335POPC   C1B55147  28.630  21.878   6.108
 4335POPC   C2B55148  28.637  21.695   6.522
 4335POPC   C3B55149  28.596  21.588   6.961
 4335POPC   C4B55150  28.574  21.887   7.299
 4336POPC   NC355151  20.113  32.393   5.563
 4336POPC   PO455152  19.614  31.935   5.411
 4336POPC   GL155153  19.734  32.125   5.819
 4336POPC   GL255154  19.654  32.478   5.939
 4336POPC   C1A55155  19.833  32.020   6.246
 4336POPC   D2A55156  19.997  32.061   6.651
 4336POPC   C3A55157  19.782  32.313   6.957
 4336POPC   C4A55158  19.832  32.062   7.313
 4336POPC   C1B55159  20.008  32.510   6.235
 4336POPC   C2B55160  20.314  32.450   6.575
 4336POPC   C3B55161  20.289  32.353   7.019
 4336POPC   C4B55162  20.042  32.514   7.400
 4337POPC   NC355163  20.323  26.069   5.399
 4337POPC   PO455164  21.008  26.317   5.382
 4337POPC   GL155165  20.749  26.157   5.759
 4337POPC   GL255166  20.614  25.831   5.792
 4337POPC   C1A55167  20.592  26.122   6.215
 4337POPC   D2A55168  20.373  26.338   6.544
 4337POPC   C3A55169  20.624  26.290   6.921
 4337POPC   C4A55170  20.941  26.292   7.243
 4337POPC   C1B55171  20.465  25.642   6.165
 4337POPC   C2B55172  20.379  25.817   6.571
 4337POPC   C3B55173  20.211  26.007   6.925
 4337POPC   C4B55174  20.402  25.826   7.270
 4338POPC   NC355175  26.313  23.580   5.414
 4338POPC   PO455176  25.733  23.814   5.466
 4338POPC   GL155177  26.049  23.831   5.779
 4338POPC   GL255178  26.148  23.458   5.877
 4338POPC   C1A55179  26.231  23.852   6.189
 4338POPC   D2A55180  26.167  23.545   6.508
 4338POPC   C3A55181  26.227  23.716   6.914
 4338POPC   C4A55182  26.012  23.852   7.276
 4338POPC   C1B55183  25.766  23.472   6.099
 4338POPC   C2B55184  25.668  23.369   6.506
 4338POPC   C3B55185  25.749  23.474   6.925
 4338POPC   C4B55186  25.859  23.182   7.230
 4339POPC   NC355187   3.282  11.063   5.300
 4339POPC   PO455188   2.624  11.260   5.405
 4339POPC   GL155189   2.695  11.317   5.844
 4339POPC   GL255190   2.569  11.635   5.870
 4339POPC   C1A55191   2.862  11.131   6.236
 4339POPC   D2A55192   2.947  10.939   6.661
 4339POPC   C3A55193   2.846  11.134   7.085
 4339POPC   C4A55194   2.802  11.175   7.550
 4339POPC   C1B55195   2.763  11.665   6.270
 4339POPC   C2B55196   2.689  11.424   6.634
 4339POPC   C3B55197   2.518  11.548   7.018
 4339POPC   C4B55198   2.835  11.624   7.274
 4340POPC   NC355199  14.304   2.949   5.411
 4340POPC   PO455200  14.967   2.913   5.533
 4340POPC   GL155201  14.659   2.648   5.761
 4340POPC   GL255202  14.333   2.755   5.868
 4340POPC   C1A55203  14.642   2.629   6.242
 4340POPC   D2A55204  14.614   2.913   6.607
 4340POPC   C3A55205  14.780   2.726   6.975
 4340POPC   C4A55206  14.817   2.763   7.390
 4340POPC   C1B55207  14.043   2.597   6.161
 4340POPC   C2B55208  14.140   2.610   6.587
 4340POPC   C3B55209  14.257   2.798   6.956
 4340POPC   C4B55210  14.308   2.827   7.370
 4341POPC   NC355211  31.665   3.177   5.445
 4341POPC   PO455212  31.386   2.691   5.328
 4341POPC   GL155213  31.472   2.790   5.786
 4341POPC   GL255214  31.317   3.105   5.829
 4341POPC   C1A55215  31.361   2.841   6.259
 4341POPC   D2A55216  31.156   2.829   6.662
 4341POPC   C3A55217  31.248   2.517   6.974
 4341POPC   C4A55218  31.559   2.679   7.232
 4341POPC   C1B55219  31.630   3.278   6.091
 4341POPC   C2B55220  31.772   3.223   6.484
 4341POPC   C3B55221  31.591   3.097   6.862
 4341POPC   C4B55222  31.774   3.194   7.225
 4342POPC   NC355223   7.923  23.836   4.996
 4342POPC   PO455224   8.417  23.764   5.490
 4342POPC   GL155225   8.105  23.705   5.793
 4342POPC   GL255226   7.881  23.378   5.762
 4342POPC   C1A55227   8.210  23.894   6.200
 4342POPC   D2A55228   8.434  23.829   6.573
 4342POPC   C3A55229   8.135  23.898   6.872
 4342POPC   C4A55230   8.115  23.885   7.288
 4342POPC   C1B55231   8.010  23.420   6.216
 4342POPC   C2B55232   8.100  23.441   6.664
 4342POPC   C3B55233   8.088  23.400   7.112
 4342POPC   C4B55234   8.172  23.478   7.568
 4343POPC   NC355235   0.961   1.367   5.401
 4343POPC   PO455236   1.537   1.157   5.145
 4343POPC   GL155237   1.394   1.180   5.667
 4343POPC   GL255238   1.084   1.332   5.893
 4343POPC   C1A55239   1.504   1.315   6.150
 4343POPC   D2A55240   1.221   1.437   6.512
 4343POPC   C3A55241   1.419   1.358   6.907
 4343POPC   C4A55242   1.660   1.081   7.165
 4343POPC   C1B55243   0.876   1.666   6.187
 4343POPC   C2B55244   0.984   1.894   6.564
 4343POPC   C3B55245   0.928   1.754   6.961
 4343POPC   C4B55246   0.984   1.372   7.197
 4344POPC   NC355247  43.688   1.578   5.499
 4344POPC   PO455248  43.875   0.876   5.319
 4344POPC   GL155249  43.832   1.074   5.740
 4344POPC   GL255250  44.070   1.360   5.795
 4344POPC   C1A55251  43.907   0.966   6.185
 4344POPC   D2A55252  43.908   1.198   6.560
 4344POPC   C3A55253  43.769   1.017   6.900
 4344POPC   C4A55254  43.756   1.019   7.306
 4344POPC   C1B55255  43.775   1.460   6.127
 4344POPC   C2B55256  43.694   1.644   6.506
 4344POPC   C3B55257  43.644   1.518   6.968
 4344POPC   C4B55258  43.653   1.532   7.442
 4345POPC   NC355259  18.370  24.064   5.749
 4345POPC   PO455260  17.817  24.297   5.539
 4345POPC   GL155261  17.906  23.842   5.701
 4345POPC   GL255262  18.201  23.574   5.728
 4345POPC   C1A55263  17.976  23.766   6.155
 4345POPC   D2A55264  18.291  23.820   6.467
 4345POPC   C3A55265  18.095  23.966   6.824
 4345POPC   C4A55266  18.131  23.763   7.194
 4345POPC   C1B55267  18.428  23.443   6.128
 4345POPC   C2B55268  18.491  23.281   6.561
 4345POPC   C3B55269  18.250  23.296   6.962
 4345POPC   C4B55270  18.404  23.380   7.382
 4346POPC   NC355271  17.236  43.545   5.260
 4346POPC   PO455272  17.307  44.234   5.264
 4346POPC   GL155273  17.271  43.912   5.642
 4346POPC   GL255274  17.097  44.099   5.874
 4346POPC   C1A55275  17.430  43.677   6.048
 4346POPC   D2A55276  17.573  43.779   6.501
 4346POPC   C3A55277  17.394  43.670   6.905
 4346POPC   C4A55278  17.451  43.818   7.321
 4346POPC   C1B55279  17.385  44.163   6.187
 4346POPC   C2B55280  17.637  44.272   6.529
 4346POPC   C3B55281  17.498  44.170   6.930
 4346POPC   C4B55282  17.229  44.334   7.243
 4347POPC   NC355283  13.322  26.082   5.250
 4347POPC   PO455284  13.940  26.178   5.200
 4347POPC   GL155285  13.628  26.074   5.650
 4347POPC   GL255286  13.636  26.326   5.915
 4347POPC   C1A55287  13.602  25.883   6.130
 4347POPC   D2A55288  13.871  25.990   6.497
 4347POPC   C3A55289  13.849  25.824   6.925
 4347POPC   C4A55290  13.596  26.021   7.219
 4347POPC   C1B55291  13.375  26.290   6.329
 4347POPC   C2B55292  13.364  26.192   6.776
 4347POPC   C3B55293  13.247  26.367   7.188
 4347POPC   C4B55294  13.350  26.271   7.641
 4348POPC   NC355295  32.309  40.303   5.445
 4348POPC   PO455296  32.003  39.699   5.473
 4348POPC   GL155297  32.137  39.987   5.819
 4348POPC   GL255298  32.496  40.077   5.873
 4348POPC   C1A55299  32.049  40.155   6.237
 4348POPC   D2A55300  31.999  40.303   6.669
 4348POPC   C3A55301  32.056  39.981   6.986
 4348POPC   C4A55302  32.065  39.852   7.383
 4348POPC   C1B55303  32.550  40.093   6.355
 4348POPC   C2B55304  32.476  40.174   6.783
 4348POPC   C3B55305  32.433  40.182   7.251
 4348POPC   C4B55306  32.564  39.842   7.558
 4349POPC   NC355307  19.305  29.282   5.356
 4349POPC   PO455308  18.835  28.871   5.274
 4349POPC   GL155309  18.911  29.025   5.715
 4349POPC   GL255310  19.117  29.313   5.818
 4349POPC   C1A55311  19.116  28.872   6.110
 4349POPC   D2A55312  19.348  28.825   6.498
 4349POPC   C3A55313  19.150  29.047   6.827
 4349POPC   C4A55314  19.102  28.956   7.264
 4349POPC   C1B55315  19.259  29.354   6.244
 4349POPC   C2B55316  18.996  29.506   6.538
 4349POPC   C3B55317  18.929  29.739   6.877
 4349POPC   C4B55318  19.033  29.444   7.151
 4350POPC   NC355319   4.111  35.813   5.320
 4350POPC   PO455320   3.979  35.097   5.592
 4350POPC   GL155321   4.236  35.390   5.877
 4350POPC   GL255322   4.457  35.634   5.704
 4350POPC   C1A55323   4.408  35.370   6.317
 4350POPC   D2A55324   4.592  35.105   6.672
 4350POPC   C3A55325   4.347  35.180   7.056
 4350POPC   C4A55326   4.062  35.522   7.123
 4350POPC   C1B55327   4.740  35.678   6.067
 4350POPC   C2B55328   4.678  35.768   6.511
 4350POPC   C3B55329   4.602  35.647   6.919
 4350POPC   C4B55330   4.342  35.951   7.114
 4351POPC   NC355331  27.686  23.499   5.351
 4351POPC   PO455332  27.351  24.133   5.120
 4351POPC   GL155333  27.394  23.915   5.587
 4351POPC   GL255334  27.671  24.038   5.776
 4351POPC   C1A55335  27.481  23.651   6.038
 4351POPC   D2A55336  27.717  23.471   6.435
 4351POPC   C3A55337  27.536  23.572   6.861
 4351POPC   C4A55338  27.690  23.665   7.284
 4351POPC   C1B55339  27.542  24.151   6.176
 4351POPC   C2B55340  27.610  23.962   6.543
 4351POPC   C3B55341  27.730  24.056   6.949
 4351POPC   C4B55342  27.732  24.159   7.382
 4352POPC   NC355343  29.083  39.806   5.372
 4352POPC   PO455344  29.457  40.287   5.598
 4352POPC   GL155345  29.175  40.014   5.865
 4352POPC   GL255346  28.995  39.672   5.871
 4352POPC   C1A55347  29.090  40.170   6.283
 4352POPC   D2A55348  29.220  40.490   6.613
 4352POPC   C3A55349  29.354  40.377   7.053
 4352POPC   C4A55350  29.200  40.269   7.480
 4352POPC   C1B55351  28.848  39.713   6.326
 4352POPC   C2B55352  28.862  39.972   6.698
 4352POPC   C3B55353  29.000  39.983   7.117
 4352POPC   C4B55354  28.964  39.838   7.582
 4353POPC   NC355355  35.008  24.511   5.317
 4353POPC   PO455356  34.330  24.731   5.207
 4353POPC   GL155357  34.333  24.651   5.680
 4353POPC   GL255358  34.417  24.927   5.924
 4353POPC   C1A55359  34.594  24.448   6.027
 4353POPC   D2A55360  34.885  24.509   6.375
 4353POPC   C3A55361  34.755  24.539   6.834
 4353POPC   C4A55362  34.447  24.262   7.075
 4353POPC   C1B55363  34.187  24.803   6.278
 4353POPC   C2B55364  34.255  24.554   6.637
 4353POPC   C3B55365  34.289  24.719   7.041
 4353POPC   C4B55366  34.327  24.688   7.508
 4354POPC   NC355367  43.888  28.258   5.447
 4354POPC   PO455368  44.384  28.598   5.322
 4354POPC   GL155369  44.267  28.240   5.757
 4354POPC   GL255370  43.875  28.316   5.934
 4354POPC   C1A55371  44.189  28.074   6.212
 4354POPC   D2A55372  44.156  28.331   6.581
 4354POPC   C3A55373  44.048  28.165   6.971
 4354POPC   C4A55374  43.832  28.180   7.370
 4354POPC   C1B55375  43.647  28.367   6.326
 4354POPC   C2B55376  43.634  28.504   6.758
 4354POPC   C3B55377  43.664  28.669   7.188
 4354POPC   C4B55378  43.531  28.556   7.615
 4355POPC   NC355379  34.976  37.399   5.430
 4355POPC   PO455380  35.424  37.810   5.090
 4355POPC   GL155381  35.443  37.604   5.500
 4355POPC   GL255382  35.208  37.847   5.615
 4355POPC   C1A55383  35.434  37.566   5.981
 4355POPC   D2A55384  35.562  37.529   6.441
 4355POPC   C3A55385  35.399  37.666   6.838
 4355POPC   C4A55386  35.021  37.572   7.108
 4355POPC   C1B55387  35.127  37.977   6.043
 4355POPC   C2B55388  35.279  38.038   6.456
 4355POPC   C3B55389  35.049  38.032   6.843
 4355POPC   C4B55390  34.939  38.058   7.264
 4356POPC   NC355391  10.144  36.927   5.437
 4356POPC   PO455392   9.567  36.654   5.281
 4356POPC   GL155393   9.728  36.809   5.690
 4356POPC   GL255394   9.664  37.165   5.662
 4356POPC   C1A55395   9.800  36.643   6.119
 4356POPC   D2A55396   9.536  36.743   6.476
 4356POPC   C3A55397   9.664  36.736   6.919
 4356POPC   C4A55398  10.003  36.919   7.165
 4356POPC   C1B55399   9.809  37.155   6.114
 4356POPC   C2B55400   9.659  37.228   6.544
 4356POPC   C3B55401   9.484  37.211   6.971
 4356POPC   C4B55402   9.530  37.335   7.415
 4357POPC   NC355403  32.335  42.849   5.482
 4357POPC   PO455404  32.037  43.454   5.577
 4357POPC   GL155405  32.202  43.229   5.886
 4357POPC   GL255406  32.516  43.264   5.793
 4357POPC   C1A55407  32.188  43.257   6.336
 4357POPC   D2A55408  32.180  42.895   6.601
 4357POPC   C3A55409  31.951  42.937   6.998
 4357POPC   C4A55410  32.051  43.336   7.220
 4357POPC   C1B55411  32.550  42.964   6.135
 4357POPC   C2B55412  32.677  43.120   6.534
 4357POPC   C3B55413  32.462  43.214   6.889
 4357POPC   C4B55414  32.636  43.225   7.272
 4358POPC   NC355415  16.447   9.880   5.361
 4358POPC   PO455416  17.108   9.641   5.465
 4358POPC   GL155417  16.823   9.844   5.760
 4358POPC   GL255418  16.659   9.550   5.739
 4358POPC   C1A55419  16.594   9.782   6.178
 4358POPC   D2A55420  16.534   9.635   6.584
 4358POPC   C3A55421  16.709   9.879   6.888
 4358POPC   C4A55422  16.733   9.739   7.263
 4358POPC   C1B55423  16.966   9.444   6.062
 4358POPC   C2B55424  17.012   9.511   6.491
 4358POPC   C3B55425  16.873   9.365   6.901
 4358POPC   C4B55426  17.095   9.383   7.303
 4359POPC   NC355427  31.663  35.312   5.499
 4359POPC   PO455428  31.136  34.941   5.364
 4359POPC   GL155429  31.344  35.014   5.823
 4359POPC   GL255430  31.705  34.948   5.853
 4359POPC   C1A55431  31.260  35.261   6.256
 4359POPC   D2A55432  31.197  35.548   6.614
 4359POPC   C3A55433  31.158  35.238   6.928
 4359POPC   C4A55434  31.304  35.130   7.307
 4359POPC   C1B55435  31.744  35.283   6.140
 4359POPC   C2B55436  31.693  35.424   6.545
 4359POPC   C3B55437  31.665  35.274   6.954
 4359POPC   C4B55438  31.933  35.457   7.188
 4360POPC   NC355439  44.481  35.578   5.221
 4360POPC   PO455440  44.250  36.123   5.531
 4360POPC   GL155441  44.560  35.989   5.845
 4360POPC   GL255442  44.663  35.607   5.852
 4360POPC   C1A55443  44.593  35.981   6.287
 4360POPC   D2A55444  44.725  36.176   6.656
 4360POPC   C3A55445  44.503  36.093   7.025
 4360POPC   C4A55446  44.804  36.164   7.302
 4360POPC   C1B55447  44.962  35.607   6.183
 4360POPC   C2B55448   0.074  35.808   6.570
 4360POPC   C3B55449  44.949  35.780   6.990
 4360POPC   C4B55450   0.240  35.890   7.337
 4361POPC   NC355451   5.105   9.281   5.180
 4361POPC   PO455452   5.118   9.918   5.463
 4361POPC   GL155453   5.168   9.473   5.716
 4361POPC   GL255454   5.480   9.413   5.849
 4361POPC   C1A55455   5.108   9.275   6.165
 4361POPC   D2A55456   4.961   9.219   6.586
 4361POPC   C3A55457   5.113   9.446   6.961
 4361POPC   C4A55458   4.903   9.848   7.118
 4361POPC   C1B55459   5.279   9.760   6.135
 4361POPC   C2B55460   5.351  10.026   6.500
 4361POPC   C3B55461   5.417   9.877   6.926
 4361POPC   C4B55462   5.343   9.721   7.354
 4362POPC   NC355463  23.578  35.165   5.357
 4362POPC   PO455464  24.063  35.621   5.383
 4362POPC   GL155465  23.964  35.308   5.715
 4362POPC   GL255466  23.620  35.279   5.837
 4362POPC   C1A55467  24.003  35.188   6.169
 4362POPC   D2A55468  23.722  35.273   6.521
 4362POPC   C3A55469  23.939  35.228   6.913
 4362POPC   C4A55470  24.092  35.003   7.286
 4362POPC   C1B55471  23.301  35.533   6.039
 4362POPC   C2B55472  23.235  35.540   6.462
 4362POPC   C3B55473  23.301  35.352   6.838
 4362POPC   C4B55474  23.526  35.234   7.196
 4363POPC   NC355475  35.170   4.378   5.472
 4363POPC   PO455476  35.289   3.715   5.406
 4363POPC   GL155477  35.415   4.020   5.766
 4363POPC   GL255478  35.095   4.128   5.892
 4363POPC   C1A55479  35.484   4.344   6.145
 4363POPC   D2A55480  35.188   4.537   6.465
 4363POPC   C3A55481  35.299   4.413   6.904
 4363POPC   C4A55482  35.616   4.336   7.238
 4363POPC   C1B55483  34.911   4.134   6.256
 4363POPC   C2B55484  34.975   4.101   6.643
 4363POPC   C3B55485  35.142   3.894   6.945
 4363POPC   C4B55486  35.154   4.091   7.303
 4364POPC   NC355487   0.777  21.126   5.478
 4364POPC   PO455488   1.456  21.314   5.556
 4364POPC   GL155489   1.097  21.386   5.792
 4364POPC   GL255490   0.994  21.718   5.729
 4364POPC   C1A55491   1.143  21.244   6.213
 4364POPC   D2A55492   1.400  21.270   6.569
 4364POPC   C3A55493   1.133  21.114   6.874
 4364POPC   C4A55494   1.028  20.977   7.271
 4364POPC   C1B55495   1.090  21.747   6.157
 4364POPC   C2B55496   0.987  21.597   6.554
 4364POPC   C3B55497   1.265  21.642   6.890
 4364POPC   C4B55498   1.145  21.495   7.244
 4365POPC   NC355499  40.116  30.926   5.319
 4365POPC   PO455500  39.501  30.671   5.240
 4365POPC   GL155501  39.739  30.817   5.646
 4365POPC   GL255502  40.072  30.622   5.749
 4365POPC   C1A55503  39.891  30.975   6.068
 4365POPC   D2A55504  39.920  30.766   6.481
 4365POPC   C3A55505  39.859  30.942   6.911
 4365POPC   C4A55506  39.856  30.734   7.313
 4365POPC   C1B55507  40.171  30.413   6.174
 4365POPC   C2B55508  40.257  30.403   6.617
 4365POPC   C3B55509  40.210  30.481   7.045
 4365POPC   C4B55510  40.268  30.514   7.514
 4366POPC   NC355511   1.516  11.013   5.096
 4366POPC   PO455512   1.971  10.553   5.175
 4366POPC   GL155513   1.927  10.536   5.628
 4366POPC   GL255514   1.972  10.872   5.782
 4366POPC   C1A55515   1.944  10.472   6.089
 4366POPC   D2A55516   2.208  10.513   6.439
 4366POPC   C3A55517   2.100  10.368   6.864
 4366POPC   C4A55518   2.263  10.355   7.289
 4366POPC   C1B55519   1.980  10.983   6.261
 4366POPC   C2B55520   1.986  10.860   6.723
 4366POPC   C3B55521   1.968  10.765   7.169
 4366POPC   C4B55522   1.655  10.829   7.448
 4367POPC   NC355523   7.357  17.305   5.231
 4367POPC   PO455524   7.888  17.658   5.433
 4367POPC   GL155525   7.635  17.511   5.812
 4367POPC   GL255526   7.407  17.272   5.770
 4367POPC   C1A55527   7.821  17.334   6.182
 4367POPC   D2A55528   7.630  17.273   6.557
 4367POPC   C3A55529   7.759  17.465   6.933
 4367POPC   C4A55530   7.506  17.746   7.150
 4367POPC   C1B55531   7.154  17.158   6.110
 4367POPC   C2B55532   7.093  17.178   6.526
 4367POPC   C3B55533   7.210  17.416   6.856
 4367POPC   C4B55534   7.141  17.316   7.241
 4368POPC   NC355535  30.587  13.182   5.469
 4368POPC   PO455536  31.030  12.699   5.521
 4368POPC   GL155537  30.960  13.008   5.839
 4368POPC   GL255538  30.615  12.942   5.936
 4368POPC   C1A55539  31.058  13.009   6.274
 4368POPC   D2A55540  30.794  12.882   6.570
 4368POPC   C3A55541  30.959  12.831   6.946
 4368POPC   C4A55542  30.774  12.959   7.330
 4368POPC   C1B55543  30.426  12.636   6.251
 4368POPC   C2B55544  30.204  12.462   6.621
 4368POPC   C3B55545  30.345  12.302   7.038
 4368POPC   C4B55546  30.388  12.533   7.424
 4369POPC   NC355547  43.309  24.249   5.170
 4369POPC   PO455548  42.931  24.118   5.704
 4369POPC   GL155549  43.162  24.523   5.753
 4369POPC   GL255550  42.936  24.811   5.803
 4369POPC   C1A55551  43.338  24.627   6.175
 4369POPC   D2A55552  43.222  24.498   6.642
 4369POPC   C3A55553  43.279  24.581   7.101
 4369POPC   C4A55554  43.374  24.843   7.479
 4369POPC   C1B55555  42.839  24.568   6.192
 4369POPC   C2B55556  42.697  24.441   6.602
 4369POPC   C3B55557  42.703  24.168   6.968
 4369POPC   C4B55558  42.946  24.275   7.335
 4370POPC   NC355559   7.182  36.504   5.334
 4370POPC   PO455560   7.215  37.210   5.433
 4370POPC   GL155561   7.364  37.001   5.784
 4370POPC   GL255562   7.201  36.716   5.808
 4370POPC   C1A55563   7.276  36.973   6.235
 4370POPC   D2A55564   7.375  37.218   6.558
 4370POPC   C3A55565   7.293  36.982   6.901
 4370POPC   C4A55566   7.537  37.120   7.217
 4370POPC   C1B55567   7.423  36.497   6.156
 4370POPC   C2B55568   7.609  36.679   6.579
 4370POPC   C3B55569   7.537  36.539   7.018
 4370POPC   C4B55570   7.267  36.683   7.334
 4371POPC   NC355571  34.147  44.492   5.413
 4371POPC   PO455572  34.807  44.741   5.416
 4371POPC   GL155573  34.669  44.655   5.794
 4371POPC   GL255574  34.329  44.782   5.851
 4371POPC   C1A55575  34.870  44.430   6.129
 4371POPC   D2A55576  34.769  44.265   6.541
 4371POPC   C3A55577  34.926  44.381   6.960
 4371POPC   C4A55578  34.896  44.642   7.330
 4371POPC   C1B55579  34.454  44.695   6.293
 4371POPC   C2B55580  34.503  44.642   6.755
 4371POPC   C3B55581  34.421  44.589   7.191
 4371POPC   C4B55582  34.407  44.918   7.505
 4372POPC   NC355583  33.737  42.152   5.299
 4372POPC   PO455584  33.581  42.749   5.573
 4372POPC   GL155585  33.768  42.539   5.910
 4372POPC   GL255586  33.799  42.208   5.814
 4372POPC   C1A55587  33.944  42.666   6.307
 4372POPC   D2A55588  33.804  42.641   6.714
 4372POPC   C3A55589  34.089  42.613   7.053
 4372POPC   C4A55590  33.993  42.437   7.481
 4372POPC   C1B55591  33.820  42.168   6.294
 4372POPC   C2B55592  33.823  42.129   6.758
 4372POPC   C3B55593  33.641  42.346   7.113
 4372POPC   C4B55594  33.269  42.186   7.256
 4373POPC   NC355595  28.074   3.427   5.371
 4373POPC   PO455596  28.724   3.098   5.478
 4373POPC   GL155597  28.559   3.412   5.789
 4373POPC   GL255598  28.194   3.447   5.885
 4373POPC   C1A55599  28.617   3.520   6.238
 4373POPC   D2A55600  28.668   3.739   6.644
 4373POPC   C3A55601  28.326   3.640   6.920
 4373POPC   C4A55602  28.271   3.554   7.357
 4373POPC   C1B55603  27.978   3.265   6.290
 4373POPC   C2B55604  27.871   3.218   6.755
 4373POPC   C3B55605  27.888   3.250   7.223
 4373POPC   C4B55606  27.944   3.387   7.698
 4374POPC   NC355607  41.492   8.130   5.374
 4374POPC   PO455608  40.844   8.261   5.659
 4374POPC   GL155609  41.252   8.162   5.820
 4374POPC   GL255610  41.384   8.484   5.904
 4374POPC   C1A55611  41.602   8.014   6.101
 4374POPC   D2A55612  41.775   8.098   6.524
 4374POPC   C3A55613  41.628   8.055   6.936
 4374POPC   C4A55614  41.802   7.934   7.290
 4374POPC   C1B55615  41.586   8.549   6.316
 4374POPC   C2B55616  41.455   8.522   6.765
 4374POPC   C3B55617  41.263   8.370   7.156
 4374POPC   C4B55618  41.068   8.349   7.590
 4375POPC   NC355619  26.483  30.834   5.454
 4375POPC   PO455620  25.821  30.690   5.369
 4375POPC   GL155621  26.091  30.686   5.768
 4375POPC   GL255622  26.248  31.012   5.853
 4375POPC   C1A55623  26.171  30.634   6.223
 4375POPC   D2A55624  25.914  30.411   6.536
 4375POPC   C3A55625  26.024  30.534   6.945
 4375POPC   C4A55626  26.156  30.529   7.369
 4375POPC   C1B55627  26.021  31.122   6.224
 4375POPC   C2B55628  25.993  30.955   6.617
 4375POPC   C3B55629  25.751  31.009   6.962
 4375POPC   C4B55630  25.924  31.040   7.321
 4376POPC   NC355631  19.440   4.115   5.337
 4376POPC   PO455632  18.871   4.567   5.499
 4376POPC   GL155633  19.169   4.433   5.781
 4376POPC   GL255634  19.148   4.081   5.743
 4376POPC   C1A55635  18.994   4.342   6.185
 4376POPC   D2A55636  18.712   4.203   6.507
 4376POPC   C3A55637  18.857   4.181   6.950
 4376POPC   C4A55638  19.179   4.424   7.166
 4376POPC   C1B55639  19.211   3.888   6.141
 4376POPC   C2B55640  19.218   4.060   6.579
 4376POPC   C3B55641  19.376   3.987   7.011
 4376POPC   C4B55642  19.288   4.024   7.463
 4377POPC   NC355643  41.797  23.927   5.553
 4377POPC   PO455644  41.392  23.335   5.321
 4377POPC   GL155645  41.531  23.547   5.745
 4377POPC   GL255646  41.231  23.704   5.914
 4377POPC   C1A55647  41.706  23.704   6.186
 4377POPC   D2A55648  41.835  23.889   6.596
 4377POPC   C3A55649  41.836  23.656   6.965
 4377POPC   C4A55650  41.449  23.565   7.166
 4377POPC   C1B55651  41.279  23.969   6.282
 4377POPC   C2B55652  41.323  23.845   6.721
 4377POPC   C3B55653  41.301  24.062   7.079
 4377POPC   C4B55654  41.426  24.357   7.394
 4378POPC   NC355655   5.840   5.874   5.379
 4378POPC   PO455656   5.539   6.400   5.170
 4378POPC   GL155657   5.683   6.232   5.706
 4378POPC   GL255658   5.667   5.842   5.848
 4378POPC   C1A55659   5.941   6.153   6.140
 4378POPC   D2A55660   6.038   5.850   6.512
 4378POPC   C3A55661   5.993   5.976   6.948
 4378POPC   C4A55662   5.646   6.077   7.195
 4378POPC   C1B55663   5.581   5.765   6.286
 4378POPC   C2B55664   5.572   5.758   6.734
 4378POPC   C3B55665   5.638   5.488   7.076
 4378POPC   C4B55666   5.902   5.677   7.368
 4379POPC   NC355667   2.949  32.062   5.367
 4379POPC   PO455668   2.472  32.446   5.404
 4379POPC   GL155669   2.470  32.336   5.824
 4379POPC   GL255670   2.645  32.039   5.787
 4379POPC   C1A55671   2.650  32.416   6.239
 4379POPC   D2A55672   2.934  32.513   6.594
 4379POPC   C3A55673   2.773  32.379   6.986
 4379POPC   C4A55674   2.777  32.436   7.437
 4379POPC   C1B55675   2.726  31.863   6.178
 4379POPC   C2B55676   2.705  32.018   6.584
 4379POPC   C3B55677   2.858  31.864   6.933
 4379POPC   C4B55678   2.781  31.956   7.307
 4380POPC   NC355679  38.469  30.198   5.384
 4380POPC   PO455680  38.134  29.598   5.397
 4380POPC   GL155681  38.304  29.817   5.767
 4380POPC   GL255682  38.420  29.506   5.893
 4380POPC   C1A55683  38.410  30.134   6.135
 4380POPC   D2A55684  38.400  30.281   6.603
 4380POPC   C3A55685  38.584  30.172   7.016
 4380POPC   C4A55686  38.435  29.973   7.394
 4380POPC   C1B55687  38.371  29.660   6.325
 4380POPC   C2B55688  38.333  29.767   6.782
 4380POPC   C3B55689  38.364  29.526   7.158
 4380POPC   C4B55690  38.321  29.557   7.639
 4381POPC   NC355691  12.922   9.874   5.452
 4381POPC   PO455692  12.454   9.375   5.422
 4381POPC   GL155693  12.613   9.635   5.809
 4381POPC   GL255694  12.365   9.789   6.006
 4381POPC   C1A55695  12.891   9.887   6.124
 4381POPC   D2A55696  13.062  10.022   6.541
 4381POPC   C3A55697  12.825   9.873   6.900
 4381POPC   C4A55698  12.973   9.777   7.288
 4381POPC   C1B55699  12.227   9.495   6.324
 4381POPC   C2B55700  12.403   9.426   6.741
 4381POPC   C3B55701  12.524   9.519   7.185
 4381POPC   C4B55702  12.684   9.482   7.613
 4382POPC   NC355703  15.766  12.342   5.373
 4382POPC   PO455704  16.174  11.854   5.679
 4382POPC   GL155705  16.106  12.243   5.829
 4382POPC   GL255706  15.733  12.291   5.865
 4382POPC   C1A55707  16.049  12.362   6.261
 4382POPC   D2A55708  16.270  12.319   6.674
 4382POPC   C3A55709  16.108  12.180   7.072
 4382POPC   C4A55710  15.874  11.815   7.209
 4382POPC   C1B55711  15.625  12.051   6.225
 4382POPC   C2B55712  15.692  12.248   6.632
 4382POPC   C3B55713  15.655  12.424   7.031
 4382POPC   C4B55714  15.523  12.195   7.404
 4383POPC   NC355715  44.844  20.985   5.641
 4383POPC   PO455716  44.740  21.589   5.416
 4383POPC   GL155717  44.692  21.446   5.843
 4383POPC   GL255718  44.487  21.105   5.950
 4383POPC   C1A55719  44.613  21.724   6.215
 4383POPC   D2A55720  44.402  21.847   6.628
 4383POPC   C3A55721  44.546  21.736   7.082
 4383POPC   C4A55722  44.582  21.549   7.532
 4383POPC   C1B55723  44.765  21.202   6.279
 4383POPC   C2B55724  44.784  21.459   6.624
 4383POPC   C3B55725  44.679  21.266   6.961
 4383POPC   C4B55726  44.649  21.101   7.321
 4384POPC   NC355727  21.835  36.918   5.036
 4384POPC   PO455728  21.386  36.856   5.466
 4384POPC   GL155729  21.430  36.777   5.857
 4384POPC   GL255730  21.506  36.449   5.761
 4384POPC   C1A55731  21.411  36.947   6.260
 4384POPC   D2A55732  21.654  37.103   6.593
 4384POPC   C3A55733  21.398  37.049   6.929
 4384POPC   C4A55734  21.437  37.112   7.349
 4384POPC   C1B55735  21.636  36.413   6.140
 4384POPC   C2B55736  21.388  36.444   6.451
 4384POPC   C3B55737  21.396  36.482   6.857
 4384POPC   C4B55738  21.484  36.610   7.232
 4385POPC   NC355739   8.024   3.164   5.426
 4385POPC   PO455740   8.122   2.532   5.285
 4385POPC   GL155741   8.216   2.578   5.733
 4385POPC   GL255742   7.911   2.455   5.891
 4385POPC   C1A55743   8.389   2.935   6.019
 4385POPC   D2A55744   8.556   2.925   6.471
 4385POPC   C3A55745   8.237   2.886   6.843
 4385POPC   C4A55746   8.256   2.717   7.290
 4385POPC   C1B55747   8.101   2.584   6.280
 4385POPC   C2B55748   8.124   2.410   6.686
 4385POPC   C3B55749   7.914   2.451   7.046
 4385POPC   C4B55750   7.677   2.789   7.156
 4386POPC   NC355751   1.985  22.570   5.136
 4386POPC   PO455752   1.933  21.918   5.384
 4386POPC   GL155753   1.837  22.179   5.755
 4386POPC   GL255754   2.163  22.306   5.823
 4386POPC   C1A55755   1.833  22.366   6.194
 4386POPC   D2A55756   1.733  22.232   6.606
 4386POPC   C3A55757   1.971  22.337   6.962
 4386POPC   C4A55758   1.877  22.538   7.357
 4386POPC   C1B55759   2.199  22.025   6.137
 4386POPC   C2B55760   2.263  22.082   6.559
 4386POPC   C3B55761   2.221  21.881   6.936
 4386POPC   C4B55762   2.097  21.968   7.330
 4387POPC   NC355763  18.546  12.393   5.024
 4387POPC   PO455764  18.577  12.984   5.480
 4387POPC   GL155765  18.375  12.858   5.857
 4387POPC   GL255766  18.041  12.932   5.828
 4387POPC   C1A55767  18.332  12.693   6.298
 4387POPC   D2A55768  18.267  12.587   6.734
 4387POPC   C3A55769  18.576  12.817   6.961
 4387POPC   C4A55770  18.584  12.877   7.406
 4387POPC   C1B55771  17.891  12.984   6.266
 4387POPC   C2B55772  17.737  12.702   6.580
 4387POPC   C3B55773  17.751  12.843   6.966
 4387POPC   C4B55774  18.110  12.883   7.135
 4388POPC   NC355775   9.546  12.294   5.734
 4388POPC   PO455776  10.057  12.185   5.365
 4388POPC   GL155777   9.917  11.991   5.792
 4388POPC   GL255778  10.058  12.334   5.855
 4388POPC   C1A55779   9.702  11.850   6.207
 4388POPC   D2A55780   9.581  11.911   6.642
 4388POPC   C3A55781   9.741  11.663   6.962
 4388POPC   C4A55782   9.811  11.761   7.366
 4388POPC   C1B55783   9.884  12.496   6.233
 4388POPC   C2B55784   9.940  12.271   6.581
 4388POPC   C3B55785   9.770  12.245   6.973
 4388POPC   C4B55786   9.779  12.573   7.219
 4389POPC   NC355787  27.505  15.110   5.369
 4389POPC   PO455788  27.905  15.631   5.579
 4389POPC   GL155789  27.580  15.413   5.837
 4389POPC   GL255790  27.571  15.021   5.872
 4389POPC   C1A55791  27.573  15.340   6.301
 4389POPC   D2A55792  27.851  15.332   6.691
 4389POPC   C3A55793  27.655  15.134   7.051
 4389POPC   C4A55794  27.343  15.055   7.393
 4389POPC   C1B55795  27.887  14.886   6.207
 4389POPC   C2B55796  27.932  14.793   6.642
 4389POPC   C3B55797  28.134  14.920   7.019
 4389POPC   C4B55798  27.970  14.946   7.423
 4390POPC   NC355799  41.986  39.629   5.442
 4390POPC   PO455800  41.644  39.086   5.446
 4390POPC   GL155801  41.492  39.287   5.828
 4390POPC   GL255802  41.789  39.445   5.875
 4390POPC   C1A55803  41.362  39.290   6.259
 4390POPC   D2A55804  41.384  39.028   6.623
 4390POPC   C3A55805  41.240  39.206   6.977
 4390POPC   C4A55806  41.331  39.191   7.408
 4390POPC   C1B55807  41.880  39.383   6.286
 4390POPC   C2B55808  41.673  39.444   6.668
 4390POPC   C3B55809  41.741  39.258   7.061
 4390POPC   C4B55810  41.778  39.593   7.314
 4391POPC   NC355811  32.944  14.207   5.406
 4391POPC   PO455812  33.565  14.357   5.639
 4391POPC   GL155813  33.214  14.257   5.870
 4391POPC   GL255814  32.918  14.489   5.846
 4391POPC   C1A55815  33.191  14.283   6.333
 4391POPC   D2A55816  32.911  14.426   6.649
 4391POPC   C3A55817  33.073  14.614   6.994
 4391POPC   C4A55818  33.431  14.556   7.214
 4391POPC   C1B55819  32.754  14.118   6.085
 4391POPC   C2B55820  32.836  13.924   6.487
 4391POPC   C3B55821  32.719  13.976   6.914
 4391POPC   C4B55822  32.880  14.193   7.226
 4392POPC   NC355823  18.825  43.303   5.324
 4392POPC   PO455824  19.469  43.216   5.493
 4392POPC   GL155825  19.162  43.118   5.801
 4392POPC   GL255826  18.841  43.249   5.819
 4392POPC   C1A55827  19.160  43.133   6.249
 4392POPC   D2A55828  19.129  42.893   6.599
 4392POPC   C3A55829  19.192  43.084   6.978
 4392POPC   C4A55830  19.178  43.004   7.383
 4392POPC   C1B55831  18.695  42.976   6.121
 4392POPC   C2B55832  18.710  43.203   6.522
 4392POPC   C3B55833  18.788  43.383   6.930
 4392POPC   C4B55834  18.715  43.205   7.331
 4393POPC   NC355835   6.295   8.272   5.591
 4393POPC   PO455836   5.613   7.973   5.459
 4393POPC   GL155837   5.599   8.210   5.828
 4393POPC   GL255838   5.927   8.222   5.913
 4393POPC   C1A55839   5.594   8.149   6.280
 4393POPC   D2A55840   5.917   8.147   6.594
 4393POPC   C3A55841   5.681   8.183   6.971
 4393POPC   C4A55842   5.736   8.427   7.333
 4393POPC   C1B55843   6.002   7.878   6.116
 4393POPC   C2B55844   6.237   7.705   6.441
 4393POPC   C3B55845   6.324   7.894   6.831
 4393POPC   C4B55846   6.101   8.032   7.241
 4394POPC   NC355847  40.945   4.945   5.151
 4394POPC   PO455848  40.941   5.665   5.382
 4394POPC   GL155849  40.808   5.216   5.585
 4394POPC   GL255850  40.990   4.869   5.672
 4394POPC   C1A55851  40.581   5.025   5.977
 4394POPC   D2A55852  40.424   4.965   6.419
 4394POPC   C3A55853  40.670   5.076   6.789
 4394POPC   C4A55854  40.538   5.084   7.220
 4394POPC   C1B55855  40.901   4.645   6.119
 4394POPC   C2B55856  40.790   4.608   6.597
 4394POPC   C3B55857  40.889   4.708   7.082
 4394POPC   C4B55858  41.283   4.788   7.369
 4395POPC   NC355859  43.133  43.933   5.365
 4395POPC   PO455860  43.654  44.203   5.608
 4395POPC   GL155861  43.312  44.009   5.845
 4395POPC   GL255862  43.230  43.628   5.790
 4395POPC   C1A55863  43.120  43.972   6.269
 4395POPC   D2A55864  43.169  44.217   6.657
 4395POPC   C3A55865  42.964  44.058   7.017
 4395POPC   C4A55866  42.984  43.661   7.178
 4395POPC   C1B55867  43.497  43.649   6.151
 4395POPC   C2B55868  43.498  43.803   6.589
 4395POPC   C3B55869  43.453  43.754   7.036
 4395POPC   C4B55870  43.435  43.889   7.443
 4396POPC   NC355871  40.984  22.879   5.369
 4396POPC   PO455872  40.691  23.454   5.210
 4396POPC   GL155873  40.750  23.192   5.717
 4396POPC   GL255874  40.872  22.778   5.845
 4396POPC   C1A55875  40.865  23.114   6.209
 4396POPC   D2A55876  41.166  23.060   6.576
 4396POPC   C3A55877  41.112  23.007   7.033
 4396POPC   C4A55878  40.674  23.023   7.131
 4396POPC   C1B55879  40.691  22.602   6.226
 4396POPC   C2B55880  40.651  22.769   6.666
 4396POPC   C3B55881  40.487  22.559   7.063
 4396POPC   C4B55882  40.373  22.781   7.477
 4397POPC   NC355883  13.273  44.951   5.217
 4397POPC   PO455884  13.774  44.494   5.348
 4397POPC   GL155885  13.608  44.586   5.768
 4397POPC   GL255886  13.360  44.868   5.806
 4397POPC   C1A55887  13.763  44.775   6.171
 4397POPC   D2A55888  13.535  44.909   6.529
 4397POPC   C3A55889  13.761  44.993   6.887
 4397POPC   C4A55890  13.536   0.002   7.223
 4397POPC   C1B55891  13.294  44.584   6.183
 4397POPC   C2B55892  13.351  44.378   6.566
 4397POPC   C3B55893  13.394  44.613   6.923
 4397POPC   C4B55894  13.379  44.499   7.315
 4398POPC   NC355895  23.341  41.857   5.473
 4398POPC   PO455896  22.714  41.538   5.385
 4398POPC   GL155897  22.819  41.663   5.765
 4398POPC   GL255898  23.110  41.538   5.782
 4398POPC   C1A55899  22.723  41.708   6.218
 4398POPC   D2A55900  22.996  41.651   6.571
 4398POPC   C3A55901  22.855  41.589   6.983
 4398POPC   C4A55902  22.926  41.812   7.404
 4398POPC   C1B55903  23.091  41.356   6.168
 4398POPC   C2B55904  23.130  41.145   6.559
 4398POPC   C3B55905  23.245  41.171   6.956
 4398POPC   C4B55906  23.139  41.353   7.356
 4399POPC   NC355907  10.918   9.498   5.437
 4399POPC   PO455908  10.270   9.190   5.389
 4399POPC   GL155909  10.579   9.105   5.751
 4399POPC   GL255910  10.756   8.757   5.766
 4399POPC   C1A55911  10.670   9.191   6.218
 4399POPC   D2A55912  10.464   9.027   6.611
 4399POPC   C3A55913  10.592   9.084   7.039
 4399POPC   C4A55914  10.469   8.700   7.281
 4399POPC   C1B55915  11.010   8.803   6.142
 4399POPC   C2B55916  10.956   8.879   6.589
 4399POPC   C3B55917  10.891   8.663   6.989
 4399POPC   C4B55918  10.946   8.885   7.400
 4400POPC   NC355919  26.652  15.458   5.469
 4400POPC   PO455920  27.283  15.592   5.367
 4400POPC   GL155921  27.078  15.357   5.756
 4400POPC   GL255922  26.853  15.047   5.744
 4400POPC   C1A55923  26.826  15.399   6.163
 4400POPC   D2A55924  26.594  15.545   6.558
 4400POPC   C3A55925  26.638  15.400   6.986
 4400POPC   C4A55926  27.017  15.472   7.260
 4400POPC   C1B55927  26.681  14.888   6.167
 4400POPC   C2B55928  26.662  15.016   6.631
 4400POPC   C3B55929  26.896  14.955   7.064
 4400POPC   C4B55930  26.854  15.071   7.525
 4401POPC   NC355931  35.221  16.803   5.372
 4401POPC   PO455932  35.677  16.298   5.370
 4401POPC   GL155933  35.499  16.572   5.756
 4401POPC   GL255934  35.638  16.919   5.861
 4401POPC   C1A55935  35.282  16.728   6.164
 4401POPC   D2A55936  35.305  16.970   6.550
 4401POPC   C3A55937  35.254  16.745   6.893
 4401POPC   C4A55938  35.252  16.463   7.174
 4401POPC   C1B55939  35.800  16.619   6.168
 4401POPC   C2B55940  35.647  16.555   6.564
 4401POPC   C3B55941  35.721  16.425   6.976
 4401POPC   C4B55942  35.708  16.600   7.378
 4402POPC   NC355943   6.913  14.119   5.365
 4402POPC   PO455944   6.622  14.753   5.293
 4402POPC   GL155945   6.657  14.481   5.631
 4402POPC   GL255946   6.478  14.173   5.677
 4402POPC   C1A55947   6.799  14.410   6.033
 4402POPC   D2A55948   6.683  14.340   6.435
 4402POPC   C3A55949   6.675  14.595   6.772
 4402POPC   C4A55950   6.654  14.594   7.209
 4402POPC   C1B55951   6.454  14.023   6.101
 4402POPC   C2B55952   6.502  13.869   6.526
 4402POPC   C3B55953   6.564  14.092   6.897
 4402POPC   C4B55954   6.493  14.052   7.304
 4403POPC   NC355955  18.711  10.886   5.494
 4403POPC   PO455956  19.286  10.543   5.376
 4403POPC   GL155957  19.099  10.350   5.772
 4403POPC   GL255958  19.022  10.664   5.844
 4403POPC   C1A55959  18.937  10.331   6.210
 4403POPC   D2A55960  19.118  10.539   6.565
 4403POPC   C3A55961  19.226  10.322   6.908
 4403POPC   C4A55962  18.957  10.395   7.254
 4403POPC   C1B55963  18.768  10.807   6.203
 4403POPC   C2B55964  18.874  10.975   6.601
 4403POPC   C3B55965  18.775  10.896   7.008
 4403POPC   C4B55966  18.631  10.751   7.415
 4404POPC   NC355967   9.588   4.592   5.512
 4404POPC   PO455968  10.053   4.056   5.511
 4404POPC   GL155969   9.874   4.293   5.844
 4404POPC   GL255970   9.957   4.659   5.859
 4404POPC   C1A55971   9.606   4.236   6.230
 4404POPC   D2A55972   9.653   4.383   6.674
 4404POPC   C3A55973   9.513   4.116   7.021
 4404POPC   C4A55974   9.852   3.937   7.282
 4404POPC   C1B55975   9.555   4.759   6.129
 4404POPC   C2B55976   9.352   4.782   6.558
 4404POPC   C3B55977   9.540   4.783   6.989
 4404POPC   C4B55978   9.848   4.501   7.167
 4405POPC   NC355979  22.779  24.697   5.350
 4405POPC   PO455980  23.223  24.213   5.345
 4405POPC   GL155981  23.075  24.480   5.696
 4405POPC   GL255982  22.952  24.213   5.855
 4405POPC   C1A55983  23.097  24.554   6.184
 4405POPC   D2A55984  23.201  24.336   6.585
 4405POPC   C3A55985  23.050  24.543   6.954
 4405POPC   C4A55986  22.891  24.614   7.370
 4405POPC   C1B55987  22.772  24.165   6.284
 4405POPC   C2B55988  22.661  24.316   6.695
 4405POPC   C3B55989  22.755  24.153   7.118
 4405POPC   C4B55990  22.689  24.218   7.563
 4406POPC   NC355991   5.340  28.559   5.316
 4406POPC   PO455992   4.744  28.264   5.496
 4406POPC   GL155993   5.055  28.384   5.798
 4406POPC   GL255994   5.295  28.095   5.759
 4406POPC   C1A55995   5.207  28.539   6.247
 4406POPC   D2A55996   5.371  28.525   6.694
 4406POPC   C3A55997   5.158  28.411   7.074
 4406POPC   C4A55998   5.235  28.452   7.537
 4406POPC   C1B55999   5.032  28.080   6.189
 4406POPC   C2B56000   4.992  28.139   6.624
 4406POPC   C3B56001   4.795  28.071   7.011
 4406POPC   C4B56002   5.022  28.027   7.404
 4407POPC   NC356003  25.932  42.714   5.113
 4407POPC   PO456004  26.207  42.439   5.634
 4407POPC   GL156005  26.061  42.637   5.941
 4407POPC   GL256006  25.735  42.562   5.815
 4407POPC   C1A56007  25.870  42.688   6.287
 4407POPC   D2A56008  25.898  42.429   6.604
 4407POPC   C3A56009  26.207  42.452   6.855
 4407POPC   C4A56010  26.103  42.310   7.221
 4407POPC   C1B56011  25.832  42.199   6.131
 4407POPC   C2B56012  25.571  42.074   6.465
 4407POPC   C3B56013  25.587  42.138   6.895
 4407POPC   C4B56014  25.715  41.988   7.277
 4408POPC   NC356015  42.951  25.161   4.971
 4408POPC   PO456016  43.321  25.558   5.398
 4408POPC   GL156017  43.086  25.312   5.714
 4408POPC   GL256018  43.127  25.593   5.897
 4408POPC   C1A56019  43.093  25.116   6.178
 4408POPC   D2A56020  42.966  24.939   6.600
 4408POPC   C3A56021  43.104  25.060   7.043
 4408POPC   C4A56022  43.045  25.264   7.438
 4408POPC   C1B56023  43.395  25.509   6.285
 4408POPC   C2B56024  43.254  25.392   6.682
 4408POPC   C3B56025  43.110  25.588   7.040
 4408POPC   C4B56026  43.359  25.670   7.373
 4409POPC   NC356027   3.939  36.537   5.684
 4409POPC   PO456028   4.431  36.207   5.301
 4409POPC   GL156029   4.507  36.152   5.775
 4409POPC   GL256030   4.456  36.494   5.800
 4409POPC   C1A56031   4.336  35.971   6.197
 4409POPC   D2A56032   3.985  36.153   6.449
 4409POPC   C3A56033   3.889  36.002   6.871
 4409POPC   C4A56034   3.883  36.229   7.276
 4409POPC   C1B56035   4.465  36.464   6.238
 4409POPC   C2B56036   4.465  36.263   6.637
 4409POPC   C3B56037   4.286  36.441   7.012
 4409POPC   C4B56038   4.444  36.339   7.427
 4410POPC   NC356039  23.929  41.933   5.362
 4410POPC   PO456040  23.441  41.431   5.261
 4410POPC   GL156041  23.609  41.468   5.700
 4410POPC   GL256042  23.877  41.672   5.790
 4410POPC   C1A56043  23.478  41.674   6.114
 4410POPC   D2A56044  23.492  41.845   6.516
 4410POPC   C3A56045  23.355  41.667   6.924
 4410POPC   C4A56046  23.444  41.799   7.322
 4410POPC   C1B56047  23.948  41.491   6.200
 4410POPC   C2B56048  24.001  41.740   6.569
 4410POPC   C3B56049  23.845  41.732   6.965
 4410POPC   C4B56050  23.880  41.546   7.405
 4411POPC   NC356051  31.750   2.284   5.346
 4411POPC   PO456052  31.298   1.749   5.548
 4411POPC   GL156053  31.387   2.022   5.841
 4411POPC   GL256054  31.189   2.326   5.936
 4411POPC   C1A56055  31.393   1.948   6.258
 4411POPC   D2A56056  31.357   2.211   6.589
 4411POPC   C3A56057  31.213   1.980   6.942
 4411POPC   C4A56058  31.244   1.718   7.307
 4411POPC   C1B56059  31.614   2.389   6.148
 4411POPC   C2B56060  31.857   2.195   6.505
 4411POPC   C3B56061  31.730   2.244   6.943
 4411POPC   C4B56062  31.488   2.176   7.330
 4412POPC   NC356063  12.730  34.009   5.494
 4412POPC   PO456064  12.880  33.409   5.533
 4412POPC   GL156065  12.886  33.633   5.879
 4412POPC   GL256066  12.552  33.733   5.898
 4412POPC   C1A56067  12.888  33.676   6.331
 4412POPC   D2A56068  12.686  33.857   6.679
 4412POPC   C3A56069  13.018  33.928   6.974
 4412POPC   C4A56070  13.332  33.905   7.267
 4412POPC   C1B56071  12.384  33.501   6.220
 4412POPC   C2B56072  12.207  33.580   6.596
 4412POPC   C3B56073  12.396  33.604   7.003
 4412POPC   C4B56074  12.534  33.990   7.176
 4413POPC   NC356075  29.078  22.263   5.090
 4413POPC   PO456076  29.643  22.473   5.403
 4413POPC   GL156077  29.260  22.479   5.677
 4413POPC   GL256078  28.898  22.384   5.639
 4413POPC   C1A56079  29.122  22.538   6.124
 4413POPC   D2A56080  29.412  22.409   6.440
 4413POPC   C3A56081  29.296  22.256   6.815
 4413POPC   C4A56082  29.547  22.262   7.160
 4413POPC   C1B56083  29.090  22.064   5.963
 4413POPC   C2B56084  29.021  22.036   6.426
 4413POPC   C3B56085  28.839  22.040   6.854
 4413POPC   C4B56086  29.049  22.081   7.231
 4414POPC   NC356087   6.295  43.418   5.359
 4414POPC   PO456088   6.342  42.721   5.497
 4414POPC   GL156089   6.479  43.084   5.771
 4414POPC   GL256090   6.845  43.111   5.885
 4414POPC   C1A56091   6.455  42.958   6.219
 4414POPC   D2A56092   6.351  42.911   6.643
 4414POPC   C3A56093   6.710  42.949   6.912
 4414POPC   C4A56094   6.513  43.100   7.254
 4414POPC   C1B56095   6.794  43.362   6.264
 4414POPC   C2B56096   6.836  43.416   6.708
 4414POPC   C3B56097   6.837  43.460   7.150
 4414POPC   C4B56098   6.848  43.362   7.594
 4415POPC   NC356099  25.279  29.607   5.418
 4415POPC   PO456100  24.922  29.026   5.442
 4415POPC   GL156101  25.186  29.055   5.843
 4415POPC   GL256102  25.481  29.234   5.712
 4415POPC   C1A56103  25.327  28.994   6.328
 4415POPC   D2A56104  25.444  29.022   6.803
 4415POPC   C3A56105  25.229  29.133   7.212
 4415POPC   C4A56106  25.402  28.974   7.629
 4415POPC   C1B56107  25.625  29.370   6.086
 4415POPC   C2B56108  25.757  29.276   6.484
 4415POPC   C3B56109  25.739  29.451   6.890
 4415POPC   C4B56110  25.520  29.611   7.243
 4416POPC   NC356111  25.822  27.793   5.547
 4416POPC   PO456112  25.415  27.337   5.351
 4416POPC   GL156113  25.312  27.472   5.775
 4416POPC   GL256114  25.387  27.799   5.856
 4416POPC   C1A56115  25.149  27.468   6.192
 4416POPC   D2A56116  25.334  27.363   6.573
 4416POPC   C3A56117  25.088  27.575   6.839
 4416POPC   C4A56118  25.158  27.680   7.212
 4416POPC   C1B56119  25.494  27.996   6.253
 4416POPC   C2B56120  25.402  27.997   6.700
 4416POPC   C3B56121  25.425  28.133   7.138
 4416POPC   C4B56122  25.280  28.021   7.564
 4417POPC   NC356123  34.617  27.502   5.341
 4417POPC   PO456124  34.325  28.167   5.545
 4417POPC   GL156125  34.407  27.754   5.747
 4417POPC   GL256126  34.750  27.755   5.856
 4417POPC   C1A56127  34.411  27.536   6.167
 4417POPC   D2A56128  34.648  27.679   6.537
 4417POPC   C3A56129  34.621  27.524   6.951
 4417POPC   C4A56130  34.719  27.664   7.393
 4417POPC   C1B56131  34.904  27.408   6.171
 4417POPC   C2B56132  35.090  27.396   6.579
 4417POPC   C3B56133  34.950  27.117   6.887
 4417POPC   C4B56134  34.691  27.155   7.276
 4418POPC   NC356135   2.401  10.622   5.348
 4418POPC   PO456136   3.114  10.594   5.363
 4418POPC   GL156137   2.812  10.464   5.688
 4418POPC   GL256138   2.706  10.801   5.741
 4418POPC   C1A56139   2.586  10.409   6.103
 4418POPC   D2A56140   2.705  10.513   6.525
 4418POPC   C3A56141   2.633  10.348   6.920
 4418POPC   C4A56142   2.777  10.346   7.308
 4418POPC   C1B56143   2.434  10.898   6.072
 4418POPC   C2B56144   2.445  10.973   6.522
 4418POPC   C3B56145   2.445  10.824   6.959
 4418POPC   C4B56146   2.540  10.768   7.407
 4419POPC   NC356147  21.420  16.847   5.471
 4419POPC   PO456148  21.233  16.232   5.527
 4419POPC   GL156149  21.242  16.544   5.873
 4419POPC   GL256150  21.017  16.828   5.792
 4419POPC   C1A56151  21.482  16.556   6.280
 4419POPC   D2A56152  21.322  16.558   6.690
 4419POPC   C3A56153  21.618  16.487   7.015
 4419POPC   C4A56154  21.590  16.358   7.440
 4419POPC   C1B56155  21.004  17.057   6.162
 4419POPC   C2B56156  21.176  17.105   6.582
 4419POPC   C3B56157  21.227  16.964   6.986
 4419POPC   C4B56158  21.345  16.781   7.328
 4420POPC   NC356159  18.141  26.416   5.613
 4420POPC   PO456160  18.287  26.909   5.151
 4420POPC   GL156161  18.423  26.898   5.599
 4420POPC   GL256162  18.107  26.915   5.779
 4420POPC   C1A56163  18.533  26.971   6.060
 4420POPC   D2A56164  18.594  26.641   6.372
 4420POPC   C3A56165  18.479  26.802   6.757
 4420POPC   C4A56166  18.324  26.881   7.135
 4420POPC   C1B56167  18.089  26.690   6.184
 4420POPC   C2B56168  18.112  26.507   6.559
 4420POPC   C3B56169  18.085  26.482   6.974
 4420POPC   C4B56170  17.853  26.711   7.312
 4421POPC   NC356171   8.767   9.220   5.537
 4421POPC   PO456172   8.891   8.625   5.657
 4421POPC   GL156173   9.058   8.966   5.921
 4421POPC   GL256174   9.094   9.358   5.901
 4421POPC   C1A56175   9.020   8.893   6.333
 4421POPC   D2A56176   8.837   8.703   6.677
 4421POPC   C3A56177   8.940   8.914   7.040
 4421POPC   C4A56178   9.249   8.763   7.319
 4421POPC   C1B56179   8.801   9.340   6.232
 4421POPC   C2B56180   8.771   9.238   6.675
 4421POPC   C3B56181   8.884   9.454   7.059
 4421POPC   C4B56182   9.319   9.380   7.170
 4422POPC   NC356183   5.579   0.105   5.367
 4422POPC   PO456184   5.765   0.710   5.174
 4422POPC   GL156185   5.619   0.532   5.642
 4422POPC   GL256186   5.867   0.342   5.735
 4422POPC   C1A56187   5.592   0.574   6.142
 4422POPC   D2A56188   5.291   0.567   6.523
 4422POPC   C3A56189   5.442   0.348   6.888
 4422POPC   C4A56190   5.646   0.599   7.221
 4422POPC   C1B56191   5.782   0.095   6.097
 4422POPC   C2B56192   5.765   0.191   6.515
 4422POPC   C3B56193   5.939   0.388   6.869
 4422POPC   C4B56194   5.985   0.241   7.265
 4423POPC   NC356195  29.479  33.812   5.489
 4423POPC   PO456196  30.030  33.380   5.493
 4423POPC   GL156197  29.945  33.715   5.773
 4423POPC   GL256198  29.636  33.577   5.915
 4423POPC   C1A56199  30.111  33.779   6.208
 4423POPC   D2A56200  30.150  33.539   6.600
 4423POPC   C3A56201  30.189  33.745   6.991
 4423POPC   C4A56202  30.266  33.597   7.449
 4423POPC   C1B56203  29.617  33.931   6.247
 4423POPC   C2B56204  29.780  33.928   6.685
 4423POPC   C3B56205  29.702  33.819   7.130
 4423POPC   C4B56206  29.355  33.784   7.407
 4424POPC   NC356207  33.137  30.156   5.387
 4424POPC   PO456208  33.049  29.477   5.328
 4424POPC   GL156209  32.868  29.667   5.722
 4424POPC   GL256210  32.792  30.044   5.781
 4424POPC   C1A56211  32.990  29.729   6.168
 4424POPC   D2A56212  33.084  29.946   6.579
 4424POPC   C3A56213  32.876  29.784   6.979
 4424POPC   C4A56214  32.952  29.813   7.429
 4424POPC   C1B56215  32.737  30.192   6.250
 4424POPC   C2B56216  32.636  30.165   6.727
 4424POPC   C3B56217  32.804  30.272   7.169
 4424POPC   C4B56218  32.653  30.255   7.611
 4425POPC   NC356219  21.423  36.190   5.339
 4425POPC   PO456220  21.948  35.744   5.481
 4425POPC   GL156221  21.652  35.951   5.762
 4425POPC   GL256222  21.285  35.896   5.748
 4425POPC   C1A56223  21.569  35.880   6.189
 4425POPC   D2A56224  21.290  35.948   6.538
 4425POPC   C3A56225  21.450  35.978   6.930
 4425POPC   C4A56226  21.346  35.701   7.214
 4425POPC   C1B56227  21.128  36.174   6.092
 4425POPC   C2B56228  20.901  36.272   6.526
 4425POPC   C3B56229  20.976  36.199   6.993
 4425POPC   C4B56230  20.923  36.396   7.404
 4426POPC   NC356231   1.731   9.159   5.528
 4426POPC   PO456232   1.140   9.173   5.350
 4426POPC   GL156233   1.168   9.119   5.767
 4426POPC   GL256234   1.449   8.949   5.899
 4426POPC   C1A56235   1.290   9.354   6.138
 4426POPC   D2A56236   1.105   9.392   6.526
 4426POPC   C3A56237   1.333   9.311   6.871
 4426POPC   C4A56238   1.438   9.451   7.253
 4426POPC   C1B56239   1.125   8.836   6.183
 4426POPC   C2B56240   0.999   8.876   6.590
 4426POPC   C3B56241   0.968   8.951   7.004
 4426POPC   C4B56242   1.380   8.921   7.206
 4427POPC   NC356243  11.814  22.090   5.399
 4427POPC   PO456244  12.491  22.078   5.533
 4427POPC   GL156245  12.118  22.251   5.804
 4427POPC   GL256246  11.751  22.406   5.811
 4427POPC   C1A56247  12.044  22.082   6.220
 4427POPC   D2A56248  12.200  22.314   6.583
 4427POPC   C3A56249  12.070  22.017   6.885
 4427POPC   C4A56250  12.107  21.989   7.290
 4427POPC   C1B56251  11.799  22.506   6.236
 4427POPC   C2B56252  11.697  22.282   6.632
 4427POPC   C3B56253  11.706  22.326   7.107
 4427POPC   C4B56254  11.865  22.368   7.543
 4428POPC   NC356255  43.850  10.279   5.642
 4428POPC   PO456256  43.846  10.829   5.174
 4428POPC   GL156257  43.869  10.827   5.648
 4428POPC   GL256258  43.559  10.717   5.832
 4428POPC   C1A56259  43.961  10.843   6.123
 4428POPC   D2A56260  43.785  10.641   6.468
 4428POPC   C3A56261  43.961  10.580   6.855
 4428POPC   C4A56262  43.887  10.641   7.282
 4428POPC   C1B56263  43.414  10.400   6.186
 4428POPC   C2B56264  43.533  10.222   6.627
 4428POPC   C3B56265  43.567  10.307   7.043
 4428POPC   C4B56266  43.423  10.321   7.445
 4429POPC   NC356267  24.817   1.296   5.458
 4429POPC   PO456268  24.147   1.320   5.444
 4429POPC   GL156269  24.374   1.172   5.795
 4429POPC   GL256270  24.676   0.958   5.813
 4429POPC   C1A56271  24.376   1.071   6.216
 4429POPC   D2A56272  24.313   1.254   6.586
 4429POPC   C3A56273  24.278   0.965   6.871
 4429POPC   C4A56274  24.212   1.163   7.224
 4429POPC   C1B56275  24.796   1.320   6.092
 4429POPC   C2B56276  24.851   1.259   6.504
 4429POPC   C3B56277  24.735   1.307   6.919
 4429POPC   C4B56278  24.711   0.984   7.198
 4430POPC   NC356279   8.679  28.906   5.453
 4430POPC   PO456280   8.130  29.310   5.442
 4430POPC   GL156281   8.162  29.054   5.780
 4430POPC   GL256282   8.493  29.204   5.820
 4430POPC   C1A56283   7.983  29.025   6.229
 4430POPC   D2A56284   8.089  29.261   6.642
 4430POPC   C3A56285   8.188  28.950   6.964
 4430POPC   C4A56286   8.108  28.936   7.398
 4430POPC   C1B56287   8.398  29.297   6.219
 4430POPC   C2B56288   8.558  29.050   6.562
 4430POPC   C3B56289   8.681  29.099   6.966
 4430POPC   C4B56290   8.638  29.167   7.406
 4431POPC   NC356291  38.821  14.632   5.431
 4431POPC   PO456292  38.194  14.331   5.379
 4431POPC   GL156293  38.231  14.304   5.820
 4431POPC   GL256294  38.497  14.527   5.859
 4431POPC   C1A56295  38.439  14.212   6.243
 4431POPC   D2A56296  38.422  14.411   6.642
 4431POPC   C3A56297  38.296  14.093   6.908
 4431POPC   C4A56298  38.582  13.891   7.131
 4431POPC   C1B56299  38.224  14.680   6.209
 4431POPC   C2B56300  38.260  14.931   6.591
 4431POPC   C3B56301  38.214  14.778   6.989
 4431POPC   C4B56302  38.435  14.491   7.206
 4432POPC   NC356303  15.187   2.491   5.517
 4432POPC   PO456304  15.623   3.018   5.558
 4432POPC   GL156305  15.305   2.994   5.925
 4432POPC   GL256306  15.115   2.655   5.976
 4432POPC   C1A56307  15.041   3.005   6.290
 4432POPC   D2A56308  15.075   2.676   6.549
 4432POPC   C3A56309  15.223   2.947   6.850
 4432POPC   C4A56310  15.265   2.993   7.271
 4432POPC   C1B56311  15.291   2.336   6.191
 4432POPC   C2B56312  15.465   2.329   6.584
 4432POPC   C3B56313  15.281   2.481   6.993
 4432POPC   C4B56314  15.287   2.535   7.454
 4433POPC   NC356315  33.096  44.242   5.054
 4433POPC   PO456316  32.842  44.743   5.401
 4433POPC   GL156317  32.986  44.619   5.814
 4433POPC   GL256318  33.291  44.778   5.767
 4433POPC   C1A56319  33.020  44.747   6.262
 4433POPC   D2A56320  33.104  44.512   6.663
 4433POPC   C3A56321  33.008  44.586   7.113
 4433POPC   C4A56322  33.188  44.458   7.535
 4433POPC   C1B56323  33.462  44.996   6.111
 4433POPC   C2B56324  33.479  44.859   6.530
 4433POPC   C3B56325  33.284  44.994   6.899
 4433POPC   C4B56326  33.637   0.116   7.134
 4434POPC   NC356327  39.365  14.756   5.009
 4434POPC   PO456328  39.145  14.249   5.325
 4434POPC   GL156329  39.280  14.321   5.740
 4434POPC   GL256330  38.962  14.328   5.832
 4434POPC   C1A56331  39.421  14.469   6.167
 4434POPC   D2A56332  39.563  14.724   6.530
 4434POPC   C3A56333  39.356  14.617   6.917
 4434POPC   C4A56334  39.429  14.747   7.368
 4434POPC   C1B56335  38.902  14.453   6.228
 4434POPC   C2B56336  38.994  14.275   6.593
 4434POPC   C3B56337  38.855  14.289   6.975
 4434POPC   C4B56338  38.948  14.618   7.213
 4435POPC   NC356339  23.708  27.398   5.275
 4435POPC   PO456340  23.726  27.990   5.557
 4435POPC   GL156341  23.627  27.612   5.765
 4435POPC   GL256342  23.942  27.433   5.738
 4435POPC   C1A56343  23.566  27.532   6.221
 4435POPC   D2A56344  23.669  27.797   6.592
 4435POPC   C3A56345  23.694  27.572   6.997
 4435POPC   C4A56346  23.662  27.615   7.442
 4435POPC   C1B56347  24.029  27.694   6.106
 4435POPC   C2B56348  24.111  27.546   6.517
 4435POPC   C3B56349  24.199  27.473   6.938
 4435POPC   C4B56350  24.213  27.764   7.321
 4436POPC   NC356351  44.857   5.366   5.589
 4436POPC   PO456352  44.689   4.716   5.369
 4436POPC   GL156353  44.637   4.840   5.824
 4436POPC   GL256354  44.469   5.152   5.821
 4436POPC   C1A56355  44.621   4.880   6.302
 4436POPC   D2A56356  44.809   5.169   6.578
 4436POPC   C3A56357  44.897   5.076   6.993
 4436POPC   C4A56358  44.806   5.257   7.372
 4436POPC   C1B56359  44.340   5.298   6.175
 4436POPC   C2B56360  44.242   5.167   6.567
 4436POPC   C3B56361  44.406   5.259   6.954
 4436POPC   C4B56362  44.302   5.327   7.363
 4437POPC   NC356363  10.933  23.493   5.220
 4437POPC   PO456364  11.372  23.957   5.117
 4437POPC   GL156365  11.372  23.762   5.546
 4437POPC   GL256366  11.585  23.456   5.574
 4437POPC   C1A56367  11.275  23.871   6.006
 4437POPC   D2A56368  11.047  23.817   6.415
 4437POPC   C3A56369  11.224  23.641   6.806
 4437POPC   C4A56370  11.235  23.873   7.203
 4437POPC   C1B56371  11.474  23.405   6.022
 4437POPC   C2B56372  11.586  23.460   6.466
 4437POPC   C3B56373  11.577  23.244   6.873
 4437POPC   C4B56374  11.378  23.395   7.250
 4438POPC   NC356375  13.619   7.700   5.472
 4438POPC   PO456376  13.526   7.005   5.424
 4438POPC   GL156377  13.526   7.264   5.775
 4438POPC   GL256378  13.859   7.363   5.790
 4438POPC   C1A56379  13.507   7.541   6.137
 4438POPC   D2A56380  13.256   7.595   6.504
 4438POPC   C3A56381  13.502   7.484   6.832
 4438POPC   C4A56382  13.662   7.679   7.156
 4438POPC   C1B56383  14.003   7.108   6.140
 4438POPC   C2B56384  13.872   7.238   6.546
 4438POPC   C3B56385  13.869   7.143   6.979
 4438POPC   C4B56386  13.816   7.284   7.417
 4439POPC   NC356387  41.809   6.362   5.499
 4439POPC   PO456388  41.285   6.649   5.294
 4439POPC   GL156389  41.409   6.771   5.739
 4439POPC   GL256390  41.502   6.456   5.920
 4439POPC   C1A56391  41.589   6.906   6.192
 4439POPC   D2A56392  41.761   7.087   6.607
 4439POPC   C3A56393  41.706   6.742   6.918
 4439POPC   C4A56394  41.480   6.713   7.308
 4439POPC   C1B56395  41.864   6.454   6.249
 4439POPC   C2B56396  42.092   6.286   6.631
 4439POPC   C3B56397  42.019   6.360   7.076
 4439POPC   C4B56398  41.663   6.227   7.297
 4440POPC   NC356399  21.554  40.835   5.520
 4440POPC   PO456400  20.964  40.459   5.500
 4440POPC   GL156401  21.171  40.649   5.874
 4440POPC   GL256402  21.208  40.986   5.864
 4440POPC   C1A56403  21.497  40.721   6.215
 4440POPC   D2A56404  21.636  40.504   6.613
 4440POPC   C3A56405  21.520  40.648   6.992
 4440POPC   C4A56406  21.619  40.514   7.411
 4440POPC   C1B56407  21.263  41.188   6.250
 4440POPC   C2B56408  21.198  40.928   6.599
 4440POPC   C3B56409  21.260  41.106   6.977
 4440POPC   C4B56410  21.422  40.987   7.357
 4441POPC   NC356411   8.611  42.534   5.466
 4441POPC   PO456412   9.109  42.100   5.496
 4441POPC   GL156413   8.959  42.228   5.881
 4441POPC   GL256414   8.999  42.544   5.810
 4441POPC   C1A56415   9.076  42.362   6.329
 4441POPC   D2A56416   9.132  42.444   6.793
 4441POPC   C3A56417   9.069  42.076   7.075
 4441POPC   C4A56418   9.078  41.702   7.354
 4441POPC   C1B56419   8.665  42.628   6.136
 4441POPC   C2B56420   8.665  42.647   6.613
 4441POPC   C3B56421   8.726  42.579   7.089
 4441POPC   C4B56422   8.398  42.398   7.397
 4442POPC   NC356423  26.124  42.980   5.586
 4442POPC   PO456424  25.726  43.524   5.316
 4442POPC   GL156425  25.907  43.433   5.770
 4442POPC   GL256426  25.765  43.128   5.920
 4442POPC   C1A56427  26.084  43.343   6.233
 4442POPC   D2A56428  25.987  43.487   6.679
 4442POPC   C3A56429  26.285  43.341   7.018
 4442POPC   C4A56430  26.256  42.888   7.166
 4442POPC   C1B56431  25.623  43.125   6.362
 4442POPC   C2B56432  25.886  42.957   6.709
 4442POPC   C3B56433  25.791  42.754   7.062
 4442POPC   C4B56434  25.831  43.187   7.210
 4443POPC   NC356435  33.106  22.539   5.443
 4443POPC   PO456436  33.138  23.181   5.086
 4443POPC   GL156437  33.112  23.058   5.575
 4443POPC   GL256438  32.787  23.068   5.730
 4443POPC   C1A56439  33.167  22.895   6.057
 4443POPC   D2A56440  33.330  22.845   6.507
 4443POPC   C3A56441  33.065  22.725   6.861
 4443POPC   C4A56442  33.034  22.867   7.270
 4443POPC   C1B56443  32.840  23.278   6.132
 4443POPC   C2B56444  32.899  23.140   6.532
 4443POPC   C3B56445  33.100  23.236   6.890
 4443POPC   C4B56446  32.959  23.364   7.279
 4444POPC   NC356447  16.358  39.730   5.662
 4444POPC   PO456448  15.813  39.998   5.282
 4444POPC   GL156449  15.851  40.042   5.727
 4444POPC   GL256450  15.844  39.695   5.775
 4444POPC   C1A56451  15.899  40.256   6.153
 4444POPC   D2A56452  16.178  40.408   6.521
 4444POPC   C3A56453  16.049  40.209   6.913
 4444POPC   C4A56454  15.711  40.364   7.178
 4444POPC   C1B56455  15.577  39.825   6.128
 4444POPC   C2B56456  15.605  40.013   6.555
 4444POPC   C3B56457  15.635  39.887   6.995
 4444POPC   C4B56458  15.642  39.498   7.194
 4445POPC   NC356459  26.237  21.738   5.457
 4445POPC   PO456460  26.070  21.142   5.476
 4445POPC   GL156461  26.208  21.365   5.849
 4445POPC   GL256462  25.916  21.572   5.817
 4445POPC   C1A56463  26.257  21.252   6.309
 4445POPC   D2A56464  25.977  21.151   6.692
 4445POPC   C3A56465  26.230  21.247   7.067
 4445POPC   C4A56466  26.485  21.294   7.453
 4445POPC   C1B56467  25.766  21.380   6.198
 4445POPC   C2B56468  25.695  21.610   6.565
 4445POPC   C3B56469  25.771  21.599   6.983
 4445POPC   C4B56470  25.714  21.283   7.280
 4446POPC   NC356471  29.075  19.578   5.342
 4446POPC   PO456472  28.882  20.162   5.369
 4446POPC   GL156473  29.089  19.946   5.742
 4446POPC   GL256474  29.465  19.977   5.775
 4446POPC   C1A56475  29.045  20.070   6.192
 4446POPC   D2A56476  28.748  19.942   6.520
 4446POPC   C3A56477  28.860  19.921   6.938
 4446POPC   C4A56478  29.169  20.176   7.044
 4446POPC   C1B56479  29.445  19.756   6.204
 4446POPC   C2B56480  29.253  19.747   6.611
 4446POPC   C3B56481  29.421  19.720   7.025
 4446POPC   C4B56482  29.365  19.913   7.421
 4447POPC   NC356483  13.249  22.845   5.424
 4447POPC   PO456484  12.606  23.049   5.324
 4447POPC   GL156485  12.652  22.920   5.781
 4447POPC   GL256486  12.999  22.786   5.883
 4447POPC   C1A56487  12.696  23.024   6.243
 4447POPC   D2A56488  12.871  23.222   6.621
 4447POPC   C3A56489  12.654  23.102   7.009
 4447POPC   C4A56490  12.636  22.689   7.215
 4447POPC   C1B56491  13.292  22.806   6.269
 4447POPC   C2B56492  13.251  22.881   6.734
 4447POPC   C3B56493  13.136  22.882   7.180
 4447POPC   C4B56494  13.046  22.549   7.494
 4448POPC   NC356495  16.932  20.818   5.329
 4448POPC   PO456496  16.535  20.339   5.503
 4448POPC   GL156497  16.756  20.485   5.837
 4448POPC   GL256498  17.037  20.734   5.832
 4448POPC   C1A56499  16.712  20.540   6.250
 4448POPC   D2A56500  16.995  20.611   6.562
 4448POPC   C3A56501  16.816  20.672   6.948
 4448POPC   C4A56502  16.904  20.401   7.299
 4448POPC   C1B56503  17.070  20.991   6.209
 4448POPC   C2B56504  16.978  21.133   6.630
 4448POPC   C3B56505  17.145  21.082   7.048
 4448POPC   C4B56506  16.940  20.882   7.402
 4449POPC   NC356507  34.811  36.562   5.657
 4449POPC   PO456508  34.423  36.012   5.376
 4449POPC   GL156509  34.602  36.031   5.783
 4449POPC   GL256510  34.394  36.301   5.832
 4449POPC   C1A56511  34.834  36.113   6.178
 4449POPC   D2A56512  34.948  35.928   6.601
 4449POPC   C3A56513  34.708  36.060   6.963
 4449POPC   C4A56514  34.740  36.242   7.359
 4449POPC   C1B56515  34.291  36.082   6.231
 4449POPC   C2B56516  34.318  36.226   6.649
 4449POPC   C3B56517  34.278  36.332   7.087
 4449POPC   C4B56518  34.326  35.934   7.316
 4450POPC   NC356519   2.295   8.976   5.351
 4450POPC   PO456520   1.647   8.710   5.511
 4450POPC   GL156521   1.972   8.801   5.805
 4450POPC   GL256522   2.144   9.126   5.814
 4450POPC   C1A56523   1.867   8.946   6.205
 4450POPC   D2A56524   1.542   9.023   6.487
 4450POPC   C3A56525   1.769   8.999   6.885
 4450POPC   C4A56526   1.985   8.932   7.290
 4450POPC   C1B56527   2.356   9.259   6.142
 4450POPC   C2B56528   2.185   9.178   6.519
 4450POPC   C3B56529   2.234   9.246   6.928
 4450POPC   C4B56530   2.471   9.152   7.268
 4451POPC   NC356531   6.100  13.801   5.586
 4451POPC   PO456532   5.815  14.415   5.427
 4451POPC   GL156533   5.770  14.508   5.854
 4451POPC   GL256534   5.743  14.135   5.934
 4451POPC   C1A56535   5.926  14.478   6.281
 4451POPC   D2A56536   6.202  14.296   6.569
 4451POPC   C3A56537   6.199  14.482   6.964
 4451POPC   C4A56538   5.876  14.464   7.266
 4451POPC   C1B56539   5.598  14.086   6.376
 4451POPC   C2B56540   5.632  14.227   6.823
 4451POPC   C3B56541   5.492  14.089   7.243
 4451POPC   C4B56542   5.393  13.936   7.678
 4452POPC   NC356543  25.797  18.546   5.380
 4452POPC   PO456544  26.038  17.991   5.221
 4452POPC   GL156545  25.896  18.140   5.682
 4452POPC   GL256546  26.030  18.465   5.844
 4452POPC   C1A56547  25.849  18.148   6.168
 4452POPC   D2A56548  25.984  18.510   6.446
 4452POPC   C3A56549  25.804  18.498   6.871
 4452POPC   C4A56550  25.815  18.291   7.266
 4452POPC   C1B56551  26.321  18.757   6.101
 4452POPC   C2B56552  26.479  18.785   6.522
 4452POPC   C3B56553  26.335  18.530   6.856
 4452POPC   C4B56554  26.383  18.527   7.277
 4453POPC   NC356555  44.062   6.292   5.315
 4453POPC   PO456556  43.732   6.859   5.545
 4453POPC   GL156557  43.819   6.676   5.886
 4453POPC   GL256558  43.972   6.408   5.800
 4453POPC   C1A56559  43.787   6.843   6.287
 4453POPC   D2A56560  43.753   6.589   6.626
 4453POPC   C3A56561  44.103   6.489   6.895
 4453POPC   C4A56562  44.190   6.768   7.256
 4453POPC   C1B56563  43.928   6.267   6.215
 4453POPC   C2B56564  43.697   6.077   6.536
 4453POPC   C3B56565  43.621   6.227   6.938
 4453POPC   C4B56566  43.753   6.472   7.301
 4454POPC   NC356567  42.931  10.130   5.460
 4454POPC   PO456568  43.214   9.544   5.656
 4454POPC   GL156569  43.118   9.701   6.027
 4454POPC   GL256570  43.035  10.036   5.958
 4454POPC   C1A56571  43.308   9.845   6.387
 4454POPC   D2A56572  43.538   9.725   6.773
 4454POPC   C3A56573  43.185   9.500   7.015
 4454POPC   C4A56574  42.807   9.696   7.211
 4454POPC   C1B56575  42.763   9.947   6.308
 4454POPC   C2B56576  42.882   9.763   6.691
 4454POPC   C3B56577  43.148  10.008   6.979
 4454POPC   C4B56578  43.026  10.396   7.118
 4455POPC   NC356579  44.508  13.930   5.485
 4455POPC   PO456580   0.135  13.516   5.528
 4455POPC   GL156581  44.947  13.716   5.880
 4455POPC   GL256582  44.607  13.582   5.822
 4455POPC   C1A56583  44.763  13.584   6.301
 4455POPC   D2A56584  44.458  13.570   6.645
 4455POPC   C3A56585  44.643  13.302   6.988
 4455POPC   C4A56586  44.980  13.543   7.173
 4455POPC   C1B56587  44.370  13.878   6.114
 4455POPC   C2B56588  44.338  14.097   6.516
 4455POPC   C3B56589  44.531  14.103   6.925
 4455POPC   C4B56590  44.401  13.738   7.159
 4456POPC   NC356591   1.641  31.560   5.567
 4456POPC   PO456592   2.159  31.170   5.320
 4456POPC   GL156593   2.039  31.281   5.748
 4456POPC   GL256594   1.729  31.179   5.893
 4456POPC   C1A56595   2.161  31.171   6.189
 4456POPC   D2A56596   1.940  31.310   6.544
 4456POPC   C3A56597   2.119  31.232   6.920
 4456POPC   C4A56598   2.021  31.420   7.277
 4456POPC   C1B56599   1.647  31.549   6.193
 4456POPC   C2B56600   1.498  31.558   6.605
 4456POPC   C3B56601   1.812  31.712   6.895
 4456POPC   C4B56602   1.625  31.742   7.270
 4457POPC   NC356603   9.917   6.268   5.388
 4457POPC   PO456604   9.650   5.644   5.404
 4457POPC   GL156605   9.702   5.825   5.797
 4457POPC   GL256606   9.670   6.215   5.826
 4457POPC   C1A56607   9.905   5.597   6.126
 4457POPC   D2A56608   9.976   5.394   6.530
 4457POPC   C3A56609  10.108   5.521   6.903
 4457POPC   C4A56610   9.998   5.672   7.272
 4457POPC   C1B56611   9.707   6.069   6.241
 4457POPC   C2B56612   9.838   5.878   6.597
 4457POPC   C3B56613   9.634   5.761   6.945
 4457POPC   C4B56614   9.615   6.004   7.362
 4458POPC   NC356615  31.428  42.836   5.389
 4458POPC   PO456616  31.387  43.525   5.248
 4458POPC   GL156617  31.543  43.261   5.670
 4458POPC   GL256618  31.801  42.971   5.717
 4458POPC   C1A56619  31.431  43.054   6.088
 4458POPC   D2A56620  31.256  43.213   6.513
 4458POPC   C3A56621  31.514  43.223   6.901
 4458POPC   C4A56622  31.394  43.180   7.326
 4458POPC   C1B56623  31.920  42.839   6.144
 4458POPC   C2B56624  31.648  42.880   6.532
 4458POPC   C3B56625  31.385  42.743   6.893
 4458POPC   C4B56626  31.552  42.677   7.307
 4459POPC   NC356627  41.187  25.348   5.441
 4459POPC   PO456628  41.860  25.276   5.430
 4459POPC   GL156629  41.586  25.316   5.822
 4459POPC   GL256630  41.336  25.011   5.787
 4459POPC   C1A56631  41.725  25.428   6.297
 4459POPC   D2A56632  41.792  25.558   6.779
 4459POPC   C3A56633  41.739  25.334   7.207
 4459POPC   C4A56634  41.722  25.530   7.664
 4459POPC   C1B56635  41.296  25.134   6.206
 4459POPC   C2B56636  41.308  25.338   6.594
 4459POPC   C3B56637  41.084  25.172   6.920
 4459POPC   C4B56638  41.258  25.178   7.323
 4460POPC   NC356639  15.261  20.319   5.389
 4460POPC   PO456640  15.654  20.866   5.573
 4460POPC   GL156641  15.345  20.703   5.848
 4460POPC   GL256642  15.130  20.396   5.873
 4460POPC   C1A56643  15.166  20.829   6.222
 4460POPC   D2A56644  15.225  20.993   6.612
 4460POPC   C3A56645  15.051  20.756   6.870
 4460POPC   C4A56646  15.267  20.541   7.135
 4460POPC   C1B56647  15.327  20.348   6.272
 4460POPC   C2B56648  15.100  20.264   6.639
 4460POPC   C3B56649  14.826  20.294   6.959
 4460POPC   C4B56650  14.940  20.200   7.315
 4461POPC   NC356651  22.834  14.943   5.565
 4461POPC   PO456652  23.357  15.298   5.411
 4461POPC   GL156653  23.121  15.432   5.787
 4461POPC   GL256654  22.815  15.348   5.875
 4461POPC   C1A56655  23.204  15.304   6.233
 4461POPC   D2A56656  23.005  15.413   6.639
 4461POPC   C3A56657  23.131  15.212   7.002
 4461POPC   C4A56658  23.381  15.451   7.232
 4461POPC   C1B56659  22.700  15.194   6.271
 4461POPC   C2B56660  22.731  14.952   6.618
 4461POPC   C3B56661  22.635  15.200   6.940
 4461POPC   C4B56662  22.442  15.203   7.295
 4462POPC   NC356663   4.707   7.084   5.473
 4462POPC   PO456664   4.325   7.486   5.082
 4462POPC   GL156665   4.150   7.493   5.548
 4462POPC   GL256666   4.171   7.824   5.731
 4462POPC   C1A56667   4.192   7.374   6.016
 4462POPC   D2A56668   4.483   7.425   6.366
 4462POPC   C3A56669   4.426   7.415   6.821
 4462POPC   C4A56670   4.177   7.247   7.168
 4462POPC   C1B56671   3.975   7.833   6.181
 4462POPC   C2B56672   4.008   7.735   6.655
 4462POPC   C3B56673   3.941   7.843   7.110
 4462POPC   C4B56674   3.990   7.772   7.605
 4463POPC   NC356675  37.694  29.639   5.221
 4463POPC   PO456676  37.449  29.194   5.493
 4463POPC   GL156677  37.504  29.083   5.914
 4463POPC   GL256678  37.872  28.988   5.879
 4463POPC   C1A56679  37.322  29.232   6.313
 4463POPC   D2A56680  37.432  29.509   6.659
 4463POPC   C3A56681  37.531  29.229   6.991
 4463POPC   C4A56682  37.270  29.003   7.279
 4463POPC   C1B56683  37.904  28.782   6.280
 4463POPC   C2B56684  37.717  28.721   6.698
 4463POPC   C3B56685  37.743  28.785   7.136
 4463POPC   C4B56686  37.961  28.574   7.471
 4464POPC   NC356687  13.580  38.010   5.238
 4464POPC   PO456688  13.887  37.498   5.442
 4464POPC   GL156689  13.602  37.687   5.754
 4464POPC   GL256690  13.587  37.376   5.863
 4464POPC   C1A56691  13.354  37.613   6.218
 4464POPC   D2A56692  13.046  37.480   6.571
 4464POPC   C3A56693  13.309  37.399   6.965
 4464POPC   C4A56694  13.374  37.532   7.410
 4464POPC   C1B56695  13.882  37.615   6.164
 4464POPC   C2B56696  13.856  37.477   6.576
 4464POPC   C3B56697  13.934  37.607   6.971
 4464POPC   C4B56698  13.691  37.866   7.189
 4465POPC   NC356699  35.575  36.942   5.265
 4465POPC   PO456700  34.948  36.943   5.236
 4465POPC   GL156701  35.269  36.790   5.648
 4465POPC   GL256702  35.382  37.126   5.720
 4465POPC   C1A56703  35.284  36.657   6.155
 4465POPC   D2A56704  35.154  36.734   6.637
 4465POPC   C3A56705  35.387  36.794   7.061
 4465POPC   C4A56706  35.249  37.154   7.358
 4465POPC   C1B56707  35.569  37.092   6.139
 4465POPC   C2B56708  35.562  37.045   6.598
 4465POPC   C3B56709  35.641  37.246   6.999
 4465POPC   C4B56710  35.805  37.071   7.359
 4466POPC   NC356711  21.553  34.378   5.427
 4466POPC   PO456712  20.939  34.348   5.570
 4466POPC   GL156713  21.268  34.594   5.812
 4466POPC   GL256714  21.509  34.897   5.856
 4466POPC   C1A56715  21.432  34.530   6.235
 4466POPC   D2A56716  21.213  34.336   6.588
 4466POPC   C3A56717  21.376  34.355   7.011
 4466POPC   C4A56718  21.545  34.120   7.321
 4466POPC   C1B56719  21.132  34.976   6.132
 4466POPC   C2B56720  20.987  34.789   6.502
 4466POPC   C3B56721  21.211  34.825   6.878
 4466POPC   C4B56722  21.381  34.805   7.274
 4467POPC   NC356723   8.727  21.502   5.318
 4467POPC   PO456724   9.132  20.948   5.248
 4467POPC   GL156725   8.962  21.170   5.609
 4467POPC   GL256726   9.146  21.501   5.631
 4467POPC   C1A56727   8.815  21.389   5.994
 4467POPC   D2A56728   8.805  21.584   6.412
 4467POPC   C3A56729   8.952  21.349   6.796
 4467POPC   C4A56730   8.734  21.196   7.182
 4467POPC   C1B56731   9.268  21.651   6.051
 4467POPC   C2B56732   9.287  21.719   6.513
 4467POPC   C3B56733   8.967  21.850   6.826
 4467POPC   C4B56734   8.992  21.644   7.216
 4468POPC   NC356735  12.556  39.468   5.193
 4468POPC   PO456736  13.212  39.237   5.356
 4468POPC   GL156737  12.847  39.116   5.610
 4468POPC   GL256738  12.759  39.454   5.667
 4468POPC   C1A56739  12.874  39.025   6.071
 4468POPC   D2A56740  13.072  39.281   6.401
 4468POPC   C3A56741  12.955  39.205   6.820
 4468POPC   C4A56742  12.741  39.089   7.191
 4468POPC   C1B56743  12.670  39.510   6.101
 4468POPC   C2B56744  12.537  39.309   6.483
 4468POPC   C3B56745  12.502  39.456   6.909
 4468POPC   C4B56746  12.865  39.601   7.152
 4469POPC   NC356747  44.226   1.204   5.137
 4469POPC   PO456748  44.870   0.975   5.297
 4469POPC   GL156749  44.914   1.121   5.724
 4469POPC   GL256750  44.563   1.192   5.757
 4469POPC   C1A56751  44.913   1.255   6.171
 4469POPC   D2A56752  44.650   1.361   6.538
 4469POPC   C3A56753  44.717   1.513   6.948
 4469POPC   C4A56754  44.735   1.237   7.292
 4469POPC   C1B56755  44.418   1.052   6.173
 4469POPC   C2B56756  44.339   0.957   6.614
 4469POPC   C3B56757  44.266   1.145   7.045
 4469POPC   C4B56758  44.309   0.880   7.428
 4470POPC   NC356759   1.091  25.073   5.264
 4470POPC   PO456760   1.423  25.657   5.461
 4470POPC   GL156761   1.361  25.395   5.804
 4470POPC   GL256762   1.152  25.102   5.784
 4470POPC   C1A56763   1.421  25.180   6.202
 4470POPC   D2A56764   1.341  25.082   6.615
 4470POPC   C3A56765   1.445  25.440   6.863
 4470POPC   C4A56766   1.458  25.481   7.295
 4470POPC   C1B56767   0.942  24.947   6.185
 4470POPC   C2B56768   0.989  24.704   6.565
 4470POPC   C3B56769   1.062  24.827   6.970
 4470POPC   C4B56770   1.044  25.215   7.156
 4471POPC   NC356771  38.672  32.679   5.338
 4471POPC   PO456772  38.358  32.157   5.433
 4471POPC   GL156773  38.632  32.298   5.732
 4471POPC   GL256774  38.652  31.984   5.874
 4471POPC   C1A56775  38.412  32.377   6.140
 4471POPC   D2A56776  38.469  32.379   6.601
 4471POPC   C3A56777  38.302  32.457   7.020
 4471POPC   C4A56778  38.315  32.095   7.243
 4471POPC   C1B56779  38.872  32.155   6.209
 4471POPC   C2B56780  38.835  32.010   6.609
 4471POPC   C3B56781  38.775  32.181   6.998
 4471POPC   C4B56782  38.707  32.383   7.387
 4472POPC   NC356783  22.586  39.289   5.309
 4472POPC   PO456784  22.974  39.656   5.685
 4472POPC   GL156785  22.854  39.226   5.874
 4472POPC   GL256786  23.041  39.342   6.166
 4472POPC   C1A56787  22.690  38.961   6.228
 4472POPC   D2A56788  22.783  38.886   6.678
 4472POPC   C3A56789  22.875  39.143   7.092
 4472POPC   C4A56790  23.244  39.310   7.343
 4472POPC   C1B56791  22.669  39.446   6.393
 4472POPC   C2B56792  22.626  39.480   6.820
 4472POPC   C3B56793  22.840  39.675   7.149
 4472POPC   C4B56794  23.242  39.881   7.145
 4473POPC   NC356795  34.515  18.026   5.642
 4473POPC   PO456796  34.821  18.685   5.507
 4473POPC   GL156797  34.818  18.406   5.864
 4473POPC   GL256798  34.568  18.604   5.947
 4473POPC   C1A56799  34.631  18.257   6.289
 4473POPC   D2A56800  34.542  18.060   6.668
 4473POPC   C3A56801  34.779  18.062   7.073
 4473POPC   C4A56802  34.532  17.966   7.447
 4473POPC   C1B56803  34.520  18.761   6.370
 4473POPC   C2B56804  34.575  18.578   6.760
 4473POPC   C3B56805  34.438  18.426   7.128
 4473POPC   C4B56806  34.719  18.428   7.474
 4474POPC   NC356807  32.099  18.560   5.191
 4474POPC   PO456808  31.836  17.986   5.456
 4474POPC   GL156809  32.082  18.143   5.794
 4474POPC   GL256810  32.431  18.035   5.741
 4474POPC   C1A56811  32.173  18.425   6.161
 4474POPC   D2A56812  32.207  18.634   6.566
 4474POPC   C3A56813  32.238  18.412   6.954
 4474POPC   C4A56814  32.152  18.284   7.351
 4474POPC   C1B56815  32.632  18.220   6.108
 4474POPC   C2B56816  32.678  18.400   6.512
 4474POPC   C3B56817  32.708  18.159   6.881
 4474POPC   C4B56818  32.627  18.093   7.302
 4475POPC   NC356819  16.547   6.342   5.445
 4475POPC   PO456820  16.534   5.660   5.432
 4475POPC   GL156821  16.627   5.916   5.809
 4475POPC   GL256822  16.990   5.986   5.765
 4475POPC   C1A56823  16.504   5.831   6.259
 4475POPC   D2A56824  16.318   6.053   6.613
 4475POPC   C3A56825  16.458   5.882   6.993
 4475POPC   C4A56826  16.706   5.545   7.100
 4475POPC   C1B56827  16.979   6.036   6.233
 4475POPC   C2B56828  16.874   5.849   6.655
 4475POPC   C3B56829  16.954   6.006   7.089
 4475POPC   C4B56830  17.031   6.238   7.476
 4476POPC   NC356831  41.843   0.045   5.466
 4476POPC   PO456832  41.809  44.371   5.434
 4476POPC   GL156833  41.801  44.632   5.781
 4476POPC   GL256834  41.509  44.474   5.897
 4476POPC   C1A56835  41.623  44.873   6.170
 4476POPC   D2A56836  41.385  44.828   6.569
 4476POPC   C3A56837  41.683  44.944   6.914
 4476POPC   C4A56838  42.090  44.779   7.039
 4476POPC   C1B56839  41.875  44.427   6.234
 4476POPC   C2B56840  41.867  44.444   6.699
 4476POPC   C3B56841  41.852  44.347   7.127
 4476POPC   C4B56842  41.705  44.709   7.371
 4477POPC   NC356843  41.084  23.691   5.253
 4477POPC   PO456844  40.500  24.005   5.367
 4477POPC   GL156845  40.789  23.901   5.689
 4477POPC   GL256846  40.972  24.193   5.814
 4477POPC   C1A56847  40.744  23.632   6.065
 4477POPC   D2A56848  41.017  23.559   6.417
 4477POPC   C3A56849  40.894  23.425   6.804
 4477POPC   C4A56850  40.960  23.456   7.221
 4477POPC   C1B56851  40.804  24.138   6.196
 4477POPC   C2B56852  40.849  24.045   6.612
 4477POPC   C3B56853  40.649  23.856   6.941
 4477POPC   C4B56854  40.831  23.937   7.313
 4478POPC   NC356855  14.004  41.123   5.238
 4478POPC   PO456856  14.450  40.582   5.460
 4478POPC   GL156857  14.459  40.831   5.799
 4478POPC   GL256858  14.156  41.021   5.723
 4478POPC   C1A56859  14.571  40.805   6.231
 4478POPC   D2A56860  14.741  40.868   6.666
 4478POPC   C3A56861  14.499  40.830   7.060
 4478POPC   C4A56862  14.483  40.631   7.480
 4478POPC   C1B56863  14.145  41.126   6.158
 4478POPC   C2B56864  14.186  40.977   6.569
 4478POPC   C3B56865  14.014  41.042   6.969
 4478POPC   C4B56866  14.016  40.801   7.329
 4479POPC   NC356867   0.800   2.938   5.357
 4479POPC   PO456868   1.391   2.652   5.482
 4479POPC   GL156869   1.132   2.842   5.787
 4479POPC   GL256870   0.848   2.586   5.798
 4479POPC   C1A56871   1.368   2.887   6.181
 4479POPC   D2A56872   1.580   2.622   6.477
 4479POPC   C3A56873   1.509   2.813   6.862
 4479POPC   C4A56874   1.231   3.050   7.136
 4479POPC   C1B56875   0.892   2.709   6.221
 4479POPC   C2B56876   1.055   2.909   6.589
 4479POPC   C3B56877   0.929   2.694   6.932
 4479POPC   C4B56878   0.783   2.651   7.329
 4480POPC   NC356879  20.374  12.148   5.456
 4480POPC   PO456880  19.761  11.791   5.414
 4480POPC   GL156881  19.675  12.028   5.822
 4480POPC   GL256882  20.001  12.200   5.841
 4480POPC   C1A56883  19.608  11.892   6.264
 4480POPC   D2A56884  19.717  12.078   6.673
 4480POPC   C3A56885  19.546  12.012   7.116
 4480POPC   C4A56886  19.690  12.178   7.551
 4480POPC   C1B56887  20.099  12.097   6.284
 4480POPC   C2B56888  20.216  12.189   6.708
 4480POPC   C3B56889  20.028  12.174   7.137
 4480POPC   C4B56890  20.199  12.393   7.537
 4481POPC   NC356891  38.371  22.043   5.568
 4481POPC   PO456892  38.563  22.650   5.444
 4481POPC   GL156893  38.679  22.327   5.864
 4481POPC   GL256894  38.687  21.930   5.924
 4481POPC   C1A56895  38.660  22.178   6.350
 4481POPC   D2A56896  38.549  22.301   6.764
 4481POPC   C3A56897  38.485  22.150   7.141
 4481POPC   C4A56898  38.194  22.423   7.385
 4481POPC   C1B56899  38.276  21.863   6.178
 4481POPC   C2B56900  37.937  21.941   6.497
 4481POPC   C3B56901  38.032  22.103   6.902
 4481POPC   C4B56902  38.045  21.925   7.313
 4482POPC   NC356903  30.209  38.736   5.501
 4482POPC   PO456904  29.607  38.414   5.285
 4482POPC   GL156905  29.864  38.260   5.727
 4482POPC   GL256906  29.967  38.580   5.913
 4482POPC   C1A56907  29.898  38.175   6.204
 4482POPC   D2A56908  30.203  38.342   6.527
 4482POPC   C3A56909  30.021  38.467   6.942
 4482POPC   C4A56910  29.981  38.186   7.282
 4482POPC   C1B56911  29.959  38.748   6.335
 4482POPC   C2B56912  29.671  38.786   6.695
 4482POPC   C3B56913  29.512  38.581   7.074
 4482POPC   C4B56914  29.737  38.579   7.480
 4483POPC   NC356915   2.003  12.429   5.378
 4483POPC   PO456916   1.987  11.850   5.647
 4483POPC   GL156917   1.953  11.792   6.000
 4483POPC   GL256918   1.939  12.170   6.033
 4483POPC   C1A56919   1.912  11.753   6.405
 4483POPC   D2A56920   1.907  12.122   6.566
 4483POPC   C3A56921   2.036  12.146   6.948
 4483POPC   C4A56922   1.961  12.127   7.349
 4483POPC   C1B56923   2.119  12.472   6.254
 4483POPC   C2B56924   2.328  12.427   6.589
 4483POPC   C3B56925   2.221  12.637   6.915
 4483POPC   C4B56926   2.292  12.483   7.267
 4484POPC   NC356927  12.341  27.091   5.510
 4484POPC   PO456928  11.770  26.792   5.357
 4484POPC   GL156929  11.948  26.777   5.777
 4484POPC   GL256930  11.773  26.490   5.856
 4484POPC   C1A56931  12.216  26.674   6.174
 4484POPC   D2A56932  12.344  26.485   6.621
 4484POPC   C3A56933  12.179  26.696   7.009
 4484POPC   C4A56934  12.377  27.078   7.231
 4484POPC   C1B56935  11.722  26.252   6.215
 4484POPC   C2B56936  11.865  26.271   6.617
 4484POPC   C3B56937  11.969  26.197   7.021
 4484POPC   C4B56938  11.951  26.388   7.405
 4485POPC   NC356939  39.098  20.312   5.353
 4485POPC   PO456940  39.306  20.922   5.525
 4485POPC   GL156941  39.344  20.536   5.752
 4485POPC   GL256942  39.631  20.379   5.909
 4485POPC   C1A56943  39.159  20.450   6.145
 4485POPC   D2A56944  38.912  20.414   6.518
 4485POPC   C3A56945  39.119  20.622   6.872
 4485POPC   C4A56946  39.349  20.464   7.209
 4485POPC   C1B56947  39.573  20.792   6.170
 4485POPC   C2B56948  39.461  20.985   6.589
 4485POPC   C3B56949  39.524  20.910   7.026
 4485POPC   C4B56950  39.417  20.859   7.508
 4486POPC   NC356951   5.345  14.221   5.358
 4486POPC   PO456952   4.891  14.735   5.362
 4486POPC   GL156953   4.925  14.505   5.752
 4486POPC   GL256954   5.263  14.380   5.871
 4486POPC   C1A56955   4.855  14.524   6.200
 4486POPC   D2A56956   5.140  14.332   6.489
 4486POPC   C3A56957   5.112  14.239   6.913
 4486POPC   C4A56958   5.046  14.373   7.329
 4486POPC   C1B56959   5.388  14.684   6.208
 4486POPC   C2B56960   5.093  14.885   6.512
 4486POPC   C3B56961   5.025  14.765   6.931
 4486POPC   C4B56962   5.407  14.672   7.152
 4487POPC   NC356963  39.427  42.705   5.458
 4487POPC   PO456964  38.973  42.197   5.357
 4487POPC   GL156965  39.107  42.024   5.742
 4487POPC   GL256966  39.265  42.343   5.826
 4487POPC   C1A56967  39.228  41.937   6.181
 4487POPC   D2A56968  39.217  42.148   6.572
 4487POPC   C3A56969  39.285  41.998   7.010
 4487POPC   C4A56970  39.143  42.200   7.392
 4487POPC   C1B56971  39.509  42.453   6.196
 4487POPC   C2B56972  39.645  42.432   6.590
 4487POPC   C3B56973  39.467  42.446   6.945
 4487POPC   C4B56974  39.610  42.426   7.315
 4488POPC   NC356975  19.458  13.830   5.361
 4488POPC   PO456976  18.756  13.802   5.428
 4488POPC   GL156977  19.045  13.706   5.747
 4488POPC   GL256978  19.189  14.027   5.762
 4488POPC   C1A56979  18.989  13.499   6.170
 4488POPC   D2A56980  18.705  13.492   6.539
 4488POPC   C3A56981  18.847  13.508   6.989
 4488POPC   C4A56982  19.113  13.506   7.379
 4488POPC   C1B56983  18.980  14.028   6.176
 4488POPC   C2B56984  19.106  13.841   6.552
 4488POPC   C3B56985  19.271  13.793   6.943
 4488POPC   C4B56986  19.185  14.000   7.314
 4489POPC   NC356987   7.778  15.562   5.457
 4489POPC   PO456988   7.245  16.021   5.568
 4489POPC   GL156989   7.343  15.794   5.907
 4489POPC   GL256990   7.687  15.903   5.815
 4489POPC   C1A56991   7.315  15.715   6.357
 4489POPC   D2A56992   7.657  15.767   6.650
 4489POPC   C3A56993   7.563  15.657   7.105
 4489POPC   C4A56994   7.482  15.776   7.542
 4489POPC   C1B56995   7.718  16.161   6.162
 4489POPC   C2B56996   7.426  16.235   6.476
 4489POPC   C3B56997   7.255  16.003   6.819
 4489POPC   C4B56998   7.116  15.903   7.193
 4490POPC   NC356999  30.579  43.354   5.408
 4490POPC   PO457000  30.983  42.839   5.603
 4490POPC   GL157001  30.737  42.937   5.959
 4490POPC   GL257002  30.454  43.056   5.800
 4490POPC   C1A57003  30.681  43.176   6.342
 4490POPC   D2A57004  30.813  43.417   6.701
 4490POPC   C3A57005  30.983  43.144   7.019
 4490POPC   C4A57006  31.035  42.772   7.270
 4490POPC   C1B57007  30.204  43.193   6.132
 4490POPC   C2B57008  30.236  43.384   6.536
 4490POPC   C3B57009  30.360  43.210   6.933
 4490POPC   C4B57010  30.487  43.077   7.335
 4491POPC   NC357011   9.555  30.415   5.520
 4491POPC   PO457012   9.530  29.779   5.336
 4491POPC   GL157013   9.589  29.936   5.735
 4491POPC   GL257014   9.901  29.806   5.812
 4491POPC   C1A57015   9.456  30.098   6.120
 4491POPC   D2A57016   9.589  29.956   6.496
 4491POPC   C3A57017   9.641  30.236   6.818
 4491POPC   C4A57018   9.636  30.143   7.218
 4491POPC   C1B57019  10.025  30.032   6.182
 4491POPC   C2B57020  10.055  30.042   6.626
 4491POPC   C3B57021   9.875  29.764   6.908
 4491POPC   C4B57022  10.106  29.840   7.247
 4492POPC   NC357023  22.122  38.694   5.476
 4492POPC   PO457024  22.227  37.975   5.351
 4492POPC   GL157025  22.285  38.293   5.746
 4492POPC   GL257026  21.954  38.336   5.860
 4492POPC   C1A57027  22.238  38.631   6.144
 4492POPC   D2A57028  22.278  38.724   6.628
 4492POPC   C3A57029  22.194  38.489   7.053
 4492POPC   C4A57030  22.032  38.481   7.521
 4492POPC   C1B57031  22.230  38.123   6.225
 4492POPC   C2B57032  22.170  38.073   6.671
 4492POPC   C3B57033  22.389  37.950   7.044
 4492POPC   C4B57034  22.505  38.223   7.368
 4493POPC   NC357035  33.117  28.481   5.471
 4493POPC   PO457036  33.439  27.966   5.821
 4493POPC   GL157037  33.021  28.184   5.916
 4493POPC   GL257038  32.845  28.516   5.892
 4493POPC   C1A57039  32.950  28.300   6.367
 4493POPC   D2A57040  33.129  28.013   6.703
 4493POPC   C3A57041  33.267  28.152   7.089
 4493POPC   C4A57042  33.182  28.526   7.308
 4493POPC   C1B57043  32.724  28.775   6.225
 4493POPC   C2B57044  32.818  28.741   6.650
 4493POPC   C3B57045  32.772  28.422   6.983
 4493POPC   C4B57046  32.666  28.537   7.424
 4494POPC   NC357047  37.225  26.562   5.491
 4494POPC   PO457048  36.713  27.050   5.547
 4494POPC   GL157049  36.877  26.786   5.846
 4494POPC   GL257050  37.166  26.949   5.905
 4494POPC   C1A57051  36.816  26.814   6.294
 4494POPC   D2A57052  36.665  27.085   6.624
 4494POPC   C3A57053  36.743  26.942   7.059
 4494POPC   C4A57054  37.108  27.082   7.269
 4494POPC   C1B57055  37.228  26.537   6.135
 4494POPC   C2B57056  37.168  26.465   6.520
 4494POPC   C3B57057  37.172  26.730   6.851
 4494POPC   C4B57058  37.334  26.623   7.242
 4495POPC   NC357059   2.969  21.326   5.527
 4495POPC   PO457060   2.425  21.070   5.506
 4495POPC   GL157061   2.549  21.297   5.819
 4495POPC   GL257062   2.354  21.127   6.038
 4495POPC   C1A57063   2.803  21.371   6.204
 4495POPC   D2A57064   2.973  21.130   6.564
 4495POPC   C3A57065   2.977  21.419   6.911
 4495POPC   C4A57066   3.019  21.488   7.344
 4495POPC   C1B57067   2.324  21.548   6.199
 4495POPC   C2B57068   2.515  21.619   6.592
 4495POPC   C3B57069   2.412  21.422   6.982
 4495POPC   C4B57070   2.484  21.515   7.429
 4496POPC   NC357071  14.711   9.937   5.232
 4496POPC   PO457072  14.117   9.657   5.390
 4496POPC   GL157073  14.316   9.622   5.799
 4496POPC   GL257074  14.663   9.728   5.759
 4496POPC   C1A57075  14.142   9.664   6.235
 4496POPC   D2A57076  13.983   9.817   6.659
 4496POPC   C3A57077  14.182   9.661   7.057
 4496POPC   C4A57078  14.311   9.840   7.442
 4496POPC   C1B57079  14.630   9.856   6.208
 4496POPC   C2B57080  14.815   9.884   6.650
 4496POPC   C3B57081  14.691   9.834   7.100
 4496POPC   C4B57082  14.749  10.128   7.490
 4497POPC   NC357083  21.494  31.586   5.421
 4497POPC   PO457084  21.104  31.131   5.581
 4497POPC   GL157085  21.163  31.545   5.840
 4497POPC   GL257086  21.538  31.632   5.915
 4497POPC   C1A57087  21.225  31.623   6.306
 4497POPC   D2A57088  21.541  31.618   6.652
 4497POPC   C3A57089  21.442  31.787   7.056
 4497POPC   C4A57090  21.153  31.587   7.305
 4497POPC   C1B57091  21.483  31.214   6.106
 4497POPC   C2B57092  21.579  31.129   6.500
 4497POPC   C3B57093  21.605  31.161   6.932
 4497POPC   C4B57094  21.653  31.378   7.303
 4498POPC   NC357095  24.998  10.009   5.434
 4498POPC   PO457096  24.370   9.915   5.392
 4498POPC   GL157097  24.435   9.745   5.789
 4498POPC   GL257098  24.746   9.716   5.796
 4498POPC   C1A57099  24.362   9.806   6.208
 4498POPC   D2A57100  24.309   9.683   6.625
 4498POPC   C3A57101  24.337   9.845   7.015
 4498POPC   C4A57102  24.058  10.080   7.281
 4498POPC   C1B57103  24.922   9.734   6.181
 4498POPC   C2B57104  24.838   9.559   6.546
 4498POPC   C3B57105  24.749   9.479   6.935
 4498POPC   C4B57106  24.902   9.711   7.275
 4499POPC   NC357107  29.017   3.209   5.120
 4499POPC   PO457108  29.486   3.670   5.176
 4499POPC   GL157109  29.407   3.811   5.691
 4499POPC   GL257110  29.129   3.568   5.851
 4499POPC   C1A57111  29.454   3.777   6.187
 4499POPC   D2A57112  29.428   3.502   6.600
 4499POPC   C3A57113  29.284   3.515   7.044
 4499POPC   C4A57114  29.240   3.276   7.439
 4499POPC   C1B57115  29.093   3.304   6.260
 4499POPC   C2B57116  28.939   3.294   6.709
 4499POPC   C3B57117  28.771   3.484   7.104
 4499POPC   C4B57118  28.713   3.357   7.539
 4500POPC   NC357119  36.792  38.939   5.447
 4500POPC   PO457120  36.924  39.597   5.325
 4500POPC   GL157121  36.810  39.368   5.720
 4500POPC   GL257122  37.082  39.252   5.940
 4500POPC   C1A57123  36.612  39.160   6.109
 4500POPC   D2A57124  36.895  39.103   6.466
 4500POPC   C3A57125  36.683  39.169   6.862
 4500POPC   C4A57126  36.697  39.280   7.271
 4500POPC   C1B57127  37.174  39.544   6.279
 4500POPC   C2B57128  37.104  39.509   6.707
 4500POPC   C3B57129  37.145  39.238   7.029
 4500POPC   C4B57130  37.102  38.819   7.136
 4501POPC   NC357131  14.823  21.559   5.296
 4501POPC   PO457132  14.247  21.265   5.239
 4501POPC   GL157133  14.420  21.368   5.617
 4501POPC   GL257134  14.145  21.387   5.858
 4501POPC   C1A57135  14.620  21.428   5.996
 4501POPC   D2A57136  14.591  21.578   6.407
 4501POPC   C3A57137  14.417  21.406   6.752
 4501POPC   C4A57138  14.569  21.427   7.153
 4501POPC   C1B57139  14.243  21.186   6.290
 4501POPC   C2B57140  14.173  20.954   6.696
 4501POPC   C3B57141  14.115  21.167   7.112
 4501POPC   C4B57142  13.886  21.512   7.329
 4502POPC   NC357143  19.369   2.936   4.920
 4502POPC   PO457144  18.915   2.759   5.400
 4502POPC   GL157145  19.078   3.003   5.753
 4502POPC   GL257146  19.435   2.942   5.789
 4502POPC   C1A57147  19.029   2.983   6.208
 4502POPC   D2A57148  18.817   2.728   6.526
 4502POPC   C3A57149  18.857   2.857   6.965
 4502POPC   C4A57150  18.812   2.588   7.344
 4502POPC   C1B57151  19.353   2.608   6.095
 4502POPC   C2B57152  19.292   2.560   6.517
 4502POPC   C3B57153  19.151   2.462   6.907
 4502POPC   C4B57154  19.295   2.803   7.221
 4503POPC   NC357155  29.375  29.543   5.544
 4503POPC   PO457156  29.846  29.113   5.283
 4503POPC   GL157157  30.070  29.222   5.673
 4503POPC   GL257158  29.816  29.030   5.844
 4503POPC   C1A57159  30.159  29.237   6.147
 4503POPC   D2A57160  29.936  29.022   6.468
 4503POPC   C3A57161  29.975  29.046   6.933
 4503POPC   C4A57162  30.057  29.229   7.361
 4503POPC   C1B57163  29.660  29.331   6.150
 4503POPC   C2B57164  29.501  29.334   6.556
 4503POPC   C3B57165  29.629  29.422   6.960
 4503POPC   C4B57166  29.521  29.319   7.378
 4504POPC   NC357167  42.388  29.895   5.351
 4504POPC   PO457168  41.782  29.905   5.552
 4504POPC   GL157169  42.123  29.992   5.848
 4504POPC   GL257170  42.502  29.999   5.834
 4504POPC   C1A57171  42.235  29.794   6.238
 4504POPC   D2A57172  42.483  29.684   6.586
 4504POPC   C3A57173  42.206  29.774   6.917
 4504POPC   C4A57174  42.321  29.871   7.331
 4504POPC   C1B57175  42.485  30.241   6.203
 4504POPC   C2B57176  42.335  30.179   6.599
 4504POPC   C3B57177  42.485  30.228   7.009
 4504POPC   C4B57178  42.266  30.407   7.353
 4505POPC   NC357179  26.954  34.002   5.203
 4505POPC   PO457180  26.709  33.368   5.396
 4505POPC   GL157181  26.726  33.667   5.748
 4505POPC   GL257182  27.031  33.879   5.694
 4505POPC   C1A57183  26.698  33.720   6.216
 4505POPC   D2A57184  26.544  33.790   6.665
 4505POPC   C3A57185  26.726  33.697   7.096
 4505POPC   C4A57186  26.903  33.480   7.484
 4505POPC   C1B57187  26.982  34.121   6.056
 4505POPC   C2B57188  26.843  34.163   6.467
 4505POPC   C3B57189  26.948  34.142   6.877
 4505POPC   C4B57190  27.037  34.072   7.282
 4506POPC   NC357191  29.350  26.274   5.196
 4506POPC   PO457192  29.197  26.923   5.271
 4506POPC   GL157193  29.128  26.936   5.718
 4506POPC   GL257194  28.994  26.613   5.802
 4506POPC   C1A57195  29.192  26.903   6.187
 4506POPC   D2A57196  29.508  26.753   6.512
 4506POPC   C3A57197  29.287  26.784   6.920
 4506POPC   C4A57198  29.058  27.150   7.080
 4506POPC   C1B57199  28.788  26.547   6.217
 4506POPC   C2B57200  28.787  26.764   6.631
 4506POPC   C3B57201  28.756  26.714   7.074
 4506POPC   C4B57202  28.769  26.379   7.362
 4507POPC   NC357203   3.374  21.810   5.352
 4507POPC   PO457204   3.760  22.272   5.177
 4507POPC   GL157205   3.699  22.198   5.635
 4507POPC   GL257206   3.349  22.266   5.765
 4507POPC   C1A57207   3.756  22.038   6.075
 4507POPC   D2A57208   3.614  21.847   6.469
 4507POPC   C3A57209   3.604  22.104   6.829
 4507POPC   C4A57210   3.815  22.287   7.196
 4507POPC   C1B57211   3.236  22.093   6.218
 4507POPC   C2B57212   3.129  21.823   6.616
 4507POPC   C3B57213   3.233  21.880   7.088
 4507POPC   C4B57214   3.329  21.861   7.554
 4508POPC   NC357215  10.838   2.921   5.478
 4508POPC   PO457216  10.202   2.683   5.421
 4508POPC   GL157217  10.538   2.581   5.756
 4508POPC   GL257218  10.301   2.683   5.964
 4508POPC   C1A57219  10.674   2.569   6.247
 4508POPC   D2A57220  10.375   2.798   6.545
 4508POPC   C3A57221  10.487   2.788   6.989
 4508POPC   C4A57222  10.764   2.510   7.248
 4508POPC   C1B57223  10.106   3.040   6.134
 4508POPC   C2B57224  10.137   3.269   6.501
 4508POPC   C3B57225  10.098   3.105   6.870
 4508POPC   C4B57226  10.050   2.927   7.254
 4509POPC   NC357227   1.663  35.436   5.344
 4509POPC   PO457228   2.265  35.686   5.608
 4509POPC   GL157229   2.059  35.489   5.895
 4509POPC   GL257230   1.823  35.252   5.789
 4509POPC   C1A57231   2.176  35.451   6.304
 4509POPC   D2A57232   2.352  35.495   6.703
 4509POPC   C3A57233   2.082  35.586   7.060
 4509POPC   C4A57234   1.964  35.419   7.482
 4509POPC   C1B57235   1.670  35.356   6.214
 4509POPC   C2B57236   1.526  35.413   6.641
 4509POPC   C3B57237   1.616  35.319   7.093
 4509POPC   C4B57238   1.530  35.196   7.551
 4510POPC   NC357239   9.196  31.937   5.615
 4510POPC   PO457240   9.803  32.260   5.423
 4510POPC   GL157241   9.708  32.409   5.821
 4510POPC   GL257242   9.344  32.358   5.904
 4510POPC   C1A57243   9.730  32.394   6.275
 4510POPC   D2A57244   9.701  32.510   6.714
 4510POPC   C3A57245   9.921  32.224   6.987
 4510POPC   C4A57246   9.857  32.278   7.427
 4510POPC   C1B57247   9.410  31.996   6.235
 4510POPC   C2B57248   9.594  32.002   6.659
 4510POPC   C3B57249   9.525  31.957   7.126
 4510POPC   C4B57250   9.484  31.897   7.574
 4511POPC   NC357251  32.570  29.318   5.440
 4511POPC   PO457252  31.990  28.810   5.370
 4511POPC   GL157253  32.154  28.836   5.805
 4511POPC   GL257254  32.497  28.964   5.822
 4511POPC   C1A57255  32.232  28.937   6.262
 4511POPC   D2A57256  32.209  29.286   6.535
 4511POPC   C3A57257  32.133  29.192   6.954
 4511POPC   C4A57258  31.933  29.213   7.316
 4511POPC   C1B57259  32.546  29.353   6.094
 4511POPC   C2B57260  32.600  29.607   6.486
 4511POPC   C3B57261  32.611  29.339   6.856
 4511POPC   C4B57262  32.551  29.406   7.287
 4512POPC   NC357263   0.508  36.178   5.318
 4512POPC   PO457264  44.819  35.840   5.422
 4512POPC   GL157265   0.115  35.914   5.777
 4512POPC   GL257266   0.462  36.096   5.817
 4512POPC   C1A57267   0.088  36.136   6.178
 4512POPC   D2A57268   0.150  36.437   6.520
 4512POPC   C3A57269   0.528  36.451   6.726
 4512POPC   C4A57270   0.574  36.184   7.080
 4512POPC   C1B57271   0.721  36.136   6.195
 4512POPC   C2B57272   0.589  35.963   6.592
 4512POPC   C3B57273   0.482  35.654   6.903
 4512POPC   C4B57274   0.757  35.727   7.237
 4513POPC   NC357275  34.972  40.883   5.552
 4513POPC   PO457276  34.434  40.489   5.362
 4513POPC   GL157277  34.477  40.676   5.793
 4513POPC   GL257278  34.608  41.023   5.901
 4513POPC   C1A57279  34.604  40.623   6.231
 4513POPC   D2A57280  34.426  40.688   6.626
 4513POPC   C3A57281  34.608  40.911   6.971
 4513POPC   C4A57282  34.588  40.715   7.350
 4513POPC   C1B57283  34.930  41.053   6.245
 4513POPC   C2B57284  35.001  41.122   6.692
 4513POPC   C3B57285  35.064  41.161   7.140
 4513POPC   C4B57286  35.047  40.894   7.473
 4514POPC   NC357287  17.025  14.987   5.278
 4514POPC   PO457288  16.816  15.512   5.463
 4514POPC   GL157289  16.690  15.244   5.789
 4514POPC   GL257290  16.927  14.998   5.831
 4514POPC   C1A57291  16.655  15.196   6.223
 4514POPC   D2A57292  16.745  15.461   6.583
 4514POPC   C3A57293  16.842  15.295   6.947
 4514POPC   C4A57294  16.780  15.390   7.341
 4514POPC   C1B57295  17.056  14.839   6.212
 4514POPC   C2B57296  16.834  14.908   6.594
 4514POPC   C3B57297  16.462  15.000   6.829
 4514POPC   C4B57298  16.637  14.900   7.228
 4515POPC   NC357299  41.043  21.669   5.554
 4515POPC   PO457300  41.057  22.399   5.436
 4515POPC   GL157301  40.905  22.092   5.801
 4515POPC   GL257302  41.133  21.875   6.018
 4515POPC   C1A57303  40.689  22.055   6.214
 4515POPC   D2A57304  40.716  22.240   6.624
 4515POPC   C3A57305  40.510  22.051   6.958
 4515POPC   C4A57306  40.554  21.808   7.302
 4515POPC   C1B57307  41.152  22.338   6.145
 4515POPC   C2B57308  41.112  22.561   6.520
 4515POPC   C3B57309  41.010  22.509   6.962
 4515POPC   C4B57310  40.954  22.142   7.201
 4516POPC   NC357311  35.752  40.412   5.374
 4516POPC   PO457312  35.115  40.405   5.560
 4516POPC   GL157313  35.265  40.108   5.820
 4516POPC   GL257314  35.588  40.270   5.856
 4516POPC   C1A57315  35.098  39.910   6.180
 4516POPC   D2A57316  35.002  39.837   6.611
 4516POPC   C3A57317  35.170  40.157   6.866
 4516POPC   C4A57318  35.145  40.042   7.282
 4516POPC   C1B57319  35.565  40.219   6.316
 4516POPC   C2B57320  35.500  39.814   6.548
 4516POPC   C3B57321  35.405  39.718   6.972
 4516POPC   C4B57322  35.637  39.998   7.172
 4517POPC   NC357323  21.887  25.506   5.389
 4517POPC   PO457324  21.429  25.083   5.276
 4517POPC   GL157325  21.532  25.247   5.687
 4517POPC   GL257326  21.383  25.576   5.614
 4517POPC   C1A57327  21.499  25.151   6.160
 4517POPC   D2A57328  21.534  25.212   6.630
 4517POPC   C3A57329  21.485  24.959   6.995
 4517POPC   C4A57330  21.701  25.125   7.344
 4517POPC   C1B57331  21.512  25.669   6.047
 4517POPC   C2B57332  21.298  25.613   6.428
 4517POPC   C3B57333  21.336  25.675   6.857
 4517POPC   C4B57334  21.291  25.402   7.202
 4518POPC   NC357335  21.353  10.621   5.371
 4518POPC   PO457336  21.860  10.134   5.463
 4518POPC   GL157337  21.532  10.327   5.769
 4518POPC   GL257338  21.457  10.707   5.852
 4518POPC   C1A57339  21.409  10.399   6.232
 4518POPC   D2A57340  21.458  10.720   6.584
 4518POPC   C3A57341  21.430  10.542   7.005
 4518POPC   C4A57342  21.091  10.276   7.174
 4518POPC   C1B57343  21.092  10.784   6.126
 4518POPC   C2B57344  20.983  10.955   6.550
 4518POPC   C3B57345  21.026  10.825   6.991
 4518POPC   C4B57346  21.285  10.916   7.370
 4519POPC   NC357347  30.775  22.338   5.398
 4519POPC   PO457348  30.373  21.793   5.465
 4519POPC   GL157349  30.522  22.126   5.799
 4519POPC   GL257350  30.881  22.234   5.918
 4519POPC   C1A57351  30.405  22.142   6.241
 4519POPC   D2A57352  30.739  22.178   6.505
 4519POPC   C3A57353  30.699  22.142   6.944
 4519POPC   C4A57354  30.708  22.028   7.368
 4519POPC   C1B57355  31.068  22.521   6.292
 4519POPC   C2B57356  31.136  22.378   6.753
 4519POPC   C3B57357  31.066  22.441   7.219
 4519POPC   C4B57358  31.123  22.172   7.602
 4520POPC   NC357359  43.855  27.318   5.106
 4520POPC   PO457360  44.002  27.804   5.436
 4520POPC   GL157361  43.903  27.805   5.842
 4520POPC   GL257362  43.928  27.438   5.815
 4520POPC   C1A57363  43.831  27.675   6.278
 4520POPC   D2A57364  44.005  27.720   6.687
 4520POPC   C3A57365  43.765  27.745   7.071
 4520POPC   C4A57366  43.830  27.565   7.453
 4520POPC   C1B57367  44.096  27.183   6.126
 4520POPC   C2B57368  44.131  27.035   6.554
 4520POPC   C3B57369  43.984  27.233   6.913
 4520POPC   C4B57370  44.145  27.148   7.312
 4521POPC   NC357371  12.939  32.139   5.453
 4521POPC   PO457372  12.302  32.224   5.748
 4521POPC   GL157373  12.744  32.215   5.923
 4521POPC   GL257374  13.079  32.420   5.864
 4521POPC   C1A57375  12.961  32.172   6.311
 4521POPC   D2A57376  12.918  32.327   6.735
 4521POPC   C3A57377  12.582  32.170   7.005
 4521POPC   C4A57378  12.443  31.717   7.076
 4521POPC   C1B57379  13.339  32.501   6.238
 4521POPC   C2B57380  13.359  32.586   6.665
 4521POPC   C3B57381  13.245  32.547   7.074
 4521POPC   C4B57382  13.015  32.241   7.251
 4522POPC   NC357383   6.184  33.569   5.429
 4522POPC   PO457384   5.910  34.076   5.095
 4522POPC   GL157385   5.954  33.996   5.626
 4522POPC   GL257386   5.666  34.104   5.834
 4522POPC   C1A57387   5.857  33.710   6.057
 4522POPC   D2A57388   6.012  33.596   6.502
 4522POPC   C3A57389   5.877  33.559   6.957
 4522POPC   C4A57390   6.150  33.801   7.314
 4522POPC   C1B57391   5.552  34.110   6.282
 4522POPC   C2B57392   5.512  33.977   6.721
 4522POPC   C3B57393   5.766  34.032   7.073
 4522POPC   C4B57394   5.788  34.162   7.472
 4523POPC   NC357395   2.824  23.060   5.373
 4523POPC   PO457396   2.275  22.646   5.484
 4523POPC   GL157397   2.570  22.851   5.802
 4523POPC   GL257398   2.808  23.180   5.853
 4523POPC   C1A57399   2.661  22.904   6.246
 4523POPC   D2A57400   2.913  22.715   6.531
 4523POPC   C3A57401   2.794  22.746   6.947
 4523POPC   C4A57402   2.920  22.403   7.193
 4523POPC   C1B57403   2.959  23.323   6.273
 4523POPC   C2B57404   2.911  23.224   6.715
 4523POPC   C3B57405   2.861  23.228   7.154
 4523POPC   C4B57406   2.997  23.245   7.591
 4524POPC   NC357407  44.325  20.722   5.179
 4524POPC   PO457408   0.017  20.786   5.256
 4524POPC   GL157409  44.820  20.524   5.770
 4524POPC   GL257410  44.506  20.595   5.798
 4524POPC   C1A57411  44.810  20.666   6.221
 4524POPC   D2A57412  44.559  20.818   6.557
 4524POPC   C3A57413  44.759  20.764   6.938
 4524POPC   C4A57414  44.655  20.590   7.321
 4524POPC   C1B57415  44.317  20.423   6.166
 4524POPC   C2B57416  44.130  20.534   6.542
 4524POPC   C3B57417  44.356  20.420   6.889
 4524POPC   C4B57418  44.231  20.301   7.281
 4525POPC   NC357419   7.888  15.167   4.982
 4525POPC   PO457420   7.363  15.172   5.384
 4525POPC   GL157421   7.227  15.242   5.808
 4525POPC   GL257422   7.052  14.939   5.860
 4525POPC   C1A57423   7.276  15.169   6.271
 4525POPC   D2A57424   7.506  15.270   6.638
 4525POPC   C3A57425   7.546  14.935   6.927
 4525POPC   C4A57426   7.462  15.066   7.323
 4525POPC   C1B57427   6.853  14.864   6.281
 4525POPC   C2B57428   7.111  14.824   6.677
 4525POPC   C3B57429   6.976  15.000   7.095
 4525POPC   C4B57430   7.028  14.991   7.586
 4526POPC   NC357431  12.126   0.776   5.300
 4526POPC   PO457432  12.112   1.365   5.075
 4526POPC   GL157433  12.098   1.251   5.570
 4526POPC   GL257434  11.926   0.947   5.723
 4526POPC   C1A57435  12.126   1.267   6.057
 4526POPC   D2A57436  12.046   1.376   6.529
 4526POPC   C3A57437  12.148   1.277   6.972
 4526POPC   C4A57438  11.858   1.311   7.349
 4526POPC   C1B57439  11.848   0.851   6.164
 4526POPC   C2B57440  12.023   0.870   6.595
 4526POPC   C3B57441  11.796   0.910   6.983
 4526POPC   C4B57442  11.868   0.827   7.420
 4527POPC   NC357443   3.359   4.698   5.486
 4527POPC   PO457444   3.822   5.227   5.387
 4527POPC   GL157445   3.724   4.958   5.729
 4527POPC   GL257446   3.641   5.226   5.883
 4527POPC   C1A57447   3.523   4.843   6.163
 4527POPC   D2A57448   3.641   4.746   6.565
 4527POPC   C3A57449   3.450   4.902   6.916
 4527POPC   C4A57450   3.601   4.873   7.295
 4527POPC   C1B57451   3.805   5.319   6.242
 4527POPC   C2B57452   3.640   5.250   6.581
 4527POPC   C3B57453   3.832   5.230   6.943
 4527POPC   C4B57454   3.837   5.425   7.277
 4528POPC   NC357455  12.309  24.750   5.207
 4528POPC   PO457456  11.708  24.465   5.333
 4528POPC   GL157457  11.908  24.554   5.729
 4528POPC   GL257458  12.265  24.594   5.710
 4528POPC   C1A57459  11.890  24.684   6.156
 4528POPC   D2A57460  11.707  24.515   6.535
 4528POPC   C3A57461  11.838  24.722   6.877
 4528POPC   C4A57462  11.960  24.462   7.187
 4528POPC   C1B57463  12.409  24.515   6.140
 4528POPC   C2B57464  12.229  24.576   6.559
 4528POPC   C3B57465  12.352  24.683   6.975
 4528POPC   C4B57466  12.460  24.400   7.322
 4529POPC   NC357467   6.236  25.818   5.637
 4529POPC   PO457468   6.502  26.384   5.383
 4529POPC   GL157469   6.414  26.273   5.811
 4529POPC   GL257470   6.764  26.165   5.892
 4529POPC   C1A57471   6.370  26.133   6.272
 4529POPC   D2A57472   6.719  26.034   6.580
 4529POPC   C3A57473   6.660  26.188   7.013
 4529POPC   C4A57474   6.452  26.091   7.467
 4529POPC   C1B57475   7.077  25.972   6.191
 4529POPC   C2B57476   7.177  25.743   6.574
 4529POPC   C3B57477   6.936  25.699   6.924
 4529POPC   C4B57478   6.918  25.878   7.293
 4530POPC   NC357479  22.274   3.137   5.130
 4530POPC   PO457480  21.823   3.545   5.390
 4530POPC   GL157481  22.057   3.551   5.859
 4530POPC   GL257482  22.100   3.247   5.995
 4530POPC   C1A57483  22.250   3.619   6.270
 4530POPC   D2A57484  22.468   3.645   6.594
 4530POPC   C3A57485  22.242   3.570   6.953
 4530POPC   C4A57486  22.267   3.490   7.380
 4530POPC   C1B57487  21.827   3.305   6.316
 4530POPC   C2B57488  21.892   3.241   6.739
 4530POPC   C3B57489  21.815   3.306   7.142
 4530POPC   C4B57490  21.907   3.152   7.525
 4531POPC   NC357491  24.113  31.677   5.736
 4531POPC   PO457492  24.551  31.534   5.214
 4531POPC   GL157493  24.551  31.406   5.764
 4531POPC   GL257494  24.510  31.076   5.862
 4531POPC   C1A57495  24.693  31.516   6.217
 4531POPC   D2A57496  24.810  31.482   6.697
 4531POPC   C3A57497  24.649  31.843   6.967
 4531POPC   C4A57498  24.331  31.845   7.317
 4531POPC   C1B57499  24.301  31.173   6.233
 4531POPC   C2B57500  24.098  31.320   6.602
 4531POPC   C3B57501  24.379  31.267   6.928
 4531POPC   C4B57502  24.360  31.052   7.312
 4532POPC   NC357503  24.480  34.828   5.503
 4532POPC   PO457504  24.370  34.148   5.531
 4532POPC   GL157505  24.522  34.449   5.852
 4532POPC   GL257506  24.789  34.242   5.934
 4532POPC   C1A57507  24.387  34.772   6.198
 4532POPC   D2A57508  24.412  34.848   6.676
 4532POPC   C3A57509  24.233  34.593   7.001
 4532POPC   C4A57510  24.367  34.260   7.304
 4532POPC   C1B57511  24.508  34.237   6.309
 4532POPC   C2B57512  24.448  34.208   6.746
 4532POPC   C3B57513  24.718  34.456   7.018
 4532POPC   C4B57514  24.638  34.854   7.220
 4533POPC   NC357515  35.890  35.306   5.463
 4533POPC   PO457516  35.279  35.586   5.282
 4533POPC   GL157517  35.394  35.445   5.691
 4533POPC   GL257518  35.058  35.452   5.807
 4533POPC   C1A57519  35.495  35.261   6.112
 4533POPC   D2A57520  35.480  35.412   6.566
 4533POPC   C3A57521  35.675  35.290   6.954
 4533POPC   C4A57522  35.554  35.540   7.313
 4533POPC   C1B57523  35.115  35.598   6.225
 4533POPC   C2B57524  34.962  35.423   6.609
 4533POPC   C3B57525  35.124  35.456   7.007
 4533POPC   C4B57526  35.136  35.223   7.392
 4534POPC   NC357527   3.889   9.479   5.453
 4534POPC   PO457528   3.253   9.784   5.402
 4534POPC   GL157529   3.451   9.830   5.849
 4534POPC   GL257530   3.791   9.760   5.865
 4534POPC   C1A57531   3.500  10.089   6.255
 4534POPC   D2A57532   3.433  10.067   6.740
 4534POPC   C3A57533   3.475  10.029   7.187
 4534POPC   C4A57534   3.356   9.571   7.229
 4534POPC   C1B57535   3.734   9.632   6.250
 4534POPC   C2B57536   3.871   9.864   6.568
 4534POPC   C3B57537   3.765   9.711   6.927
 4534POPC   C4B57538   3.858   9.638   7.304
 4535POPC   NC357539  11.629   8.806   5.316
 4535POPC   PO457540  10.968   9.042   5.395
 4535POPC   GL157541  11.261   8.996   5.717
 4535POPC   GL257542  11.305   8.639   5.713
 4535POPC   C1A57543  11.336   9.219   6.111
 4535POPC   D2A57544  11.442   9.094   6.521
 4535POPC   C3A57545  11.234   9.206   6.912
 4535POPC   C4A57546  11.561   9.111   7.205
 4535POPC   C1B57547  11.511   8.714   6.107
 4535POPC   C2B57548  11.358   8.580   6.511
 4535POPC   C3B57549  11.386   8.723   6.905
 4535POPC   C4B57550  11.393   8.618   7.323
 4536POPC   NC357551  15.591   5.075   5.443
 4536POPC   PO457552  16.247   4.819   5.272
 4536POPC   GL157553  16.031   4.870   5.657
 4536POPC   GL257554  15.716   4.765   5.815
 4536POPC   C1A57555  16.109   4.870   6.116
 4536POPC   D2A57556  16.282   4.942   6.524
 4536POPC   C3A57557  16.149   4.683   6.860
 4536POPC   C4A57558  16.025   4.810   7.256
 4536POPC   C1B57559  15.615   4.945   6.214
 4536POPC   C2B57560  15.790   5.038   6.632
 4536POPC   C3B57561  15.590   4.875   6.990
 4536POPC   C4B57562  15.507   4.930   7.435
 4537POPC   NC357563  16.470  17.723   5.190
 4537POPC   PO457564  16.727  17.220   5.424
 4537POPC   GL157565  16.601  17.479   5.756
 4537POPC   GL257566  16.701  17.796   5.700
 4537POPC   C1A57567  16.540  17.650   6.171
 4537POPC   D2A57568  16.539  17.513   6.579
 4537POPC   C3A57569  16.676  17.694   6.975
 4537POPC   C4A57570  16.624  17.477   7.384
 4537POPC   C1B57571  17.019  17.617   6.039
 4537POPC   C2B57572  17.055  17.546   6.476
 4537POPC   C3B57573  17.174  17.737   6.863
 4537POPC   C4B57574  17.098  17.554   7.264
 4538POPC   NC357575   3.286  10.239   5.607
 4538POPC   PO457576   3.610  10.702   5.227
 4538POPC   GL157577   3.542  10.710   5.690
 4538POPC   GL257578   3.223  10.823   5.799
 4538POPC   C1A57579   3.604  10.607   6.163
 4538POPC   D2A57580   3.777  10.394   6.562
 4538POPC   C3A57581   3.698  10.524   6.981
 4538POPC   C4A57582   3.890  10.605   7.393
 4538POPC   C1B57583   3.061  10.643   6.162
 4538POPC   C2B57584   3.209  10.462   6.539
 4538POPC   C3B57585   3.167  10.422   6.991
 4538POPC   C4B57586   3.376  10.553   7.391
 4539POPC   NC357587  14.247   2.166   5.412
 4539POPC   PO457588  14.324   1.636   5.213
 4539POPC   GL157589  14.372   1.855   5.777
 4539POPC   GL257590  14.406   2.214   5.889
 4539POPC   C1A57591  14.328   1.703   6.239
 4539POPC   D2A57592  14.232   1.863   6.659
 4539POPC   C3A57593  14.223   1.714   7.059
 4539POPC   C4A57594  14.339   1.956   7.451
 4539POPC   C1B57595  14.340   2.215   6.315
 4539POPC   C2B57596  14.551   2.319   6.708
 4539POPC   C3B57597  14.452   2.366   7.153
 4539POPC   C4B57598  14.460   2.410   7.641
 4540POPC   NC357599  13.102  28.042   5.573
 4540POPC   PO457600  12.578  28.443   5.401
 4540POPC   GL157601  12.732  28.531   5.805
 4540POPC   GL257602  13.093  28.440   5.915
 4540POPC   C1A57603  12.764  28.727   6.192
 4540POPC   D2A57604  12.929  28.878   6.570
 4540POPC   C3A57605  12.859  28.549   6.845
 4540POPC   C4A57606  13.043  28.384   7.180
 4540POPC   C1B57607  13.131  28.124   6.281
 4540POPC   C2B57608  12.980  28.019   6.727
 4540POPC   C3B57609  13.039  27.898   7.186
 4540POPC   C4B57610  13.299  28.070   7.562
 4541POPC   NC357611  23.119  12.600   5.548
 4541POPC   PO457612  22.829  13.149   5.353
 4541POPC   GL157613  22.704  12.930   5.732
 4541POPC   GL257614  23.016  12.929   5.945
 4541POPC   C1A57615  22.566  12.950   6.177
 4541POPC   D2A57616  22.826  12.937   6.525
 4541POPC   C3A57617  22.704  12.772   6.943
 4541POPC   C4A57618  22.736  12.923   7.377
 4541POPC   C1B57619  23.316  12.864   6.306
 4541POPC   C2B57620  23.251  12.757   6.745
 4541POPC   C3B57621  23.201  12.713   7.155
 4541POPC   C4B57622  23.382  12.462   7.434
 4542POPC   NC357623  37.185   0.966   5.414
 4542POPC   PO457624  36.468   1.043   5.312
 4542POPC   GL157625  36.705   1.265   5.718
 4542POPC   GL257626  37.034   1.156   5.874
 4542POPC   C1A57627  36.735   1.442   6.230
 4542POPC   D2A57628  36.573   1.387   6.725
 4542POPC   C3A57629  36.840   1.132   7.033
 4542POPC   C4A57630  37.249   1.261   7.216
 4542POPC   C1B57631  37.130   0.977   6.308
 4542POPC   C2B57632  37.246   0.956   6.771
 4542POPC   C3B57633  37.247   0.754   7.191
 4542POPC   C4B57634  37.380   0.764   7.637
 4543POPC   NC357635  16.908  14.003   5.412
 4543POPC   PO457636  16.778  13.351   5.507
 4543POPC   GL157637  16.946  13.609   5.829
 4543POPC   GL257638  16.636  13.756   5.874
 4543POPC   C1A57639  16.838  13.524   6.267
 4543POPC   D2A57640  16.716  13.620   6.661
 4543POPC   C3A57641  17.038  13.491   6.960
 4543POPC   C4A57642  17.231  13.524   7.337
 4543POPC   C1B57643  16.357  13.827   6.207
 4543POPC   C2B57644  16.291  14.057   6.599
 4543POPC   C3B57645  16.578  14.025   6.912
 4543POPC   C4B57646  16.605  13.658   7.170
 4544POPC   NC357647  27.551  37.952   5.380
 4544POPC   PO457648  27.606  37.275   5.505
 4544POPC   GL157649  27.756  37.617   5.748
 4544POPC   GL257650  27.426  37.765   5.838
 4544POPC   C1A57651  27.793  37.600   6.199
 4544POPC   D2A57652  27.518  37.626   6.545
 4544POPC   C3A57653  27.676  37.468   6.937
 4544POPC   C4A57654  28.103  37.389   7.110
 4544POPC   C1B57655  27.565  38.059   6.126
 4544POPC   C2B57656  27.646  38.125   6.546
 4544POPC   C3B57657  27.569  37.967   6.946
 4544POPC   C4B57658  27.885  37.832   7.232
 4545POPC   NC357659  41.740  30.372   5.562
 4545POPC   PO457660  41.530  31.052   5.541
 4545POPC   GL157661  41.479  30.725   5.835
 4545POPC   GL257662  41.295  30.895   6.058
 4545POPC   C1A57663  41.625  30.552   6.213
 4545POPC   D2A57664  41.695  30.776   6.601
 4545POPC   C3A57665  41.509  30.629   6.969
 4545POPC   C4A57666  41.751  30.591   7.325
 4545POPC   C1B57667  41.762  31.028   6.144
 4545POPC   C2B57668  41.909  31.297   6.415
 4545POPC   C3B57669  41.806  31.246   6.860
 4545POPC   C4B57670  41.953  31.306   7.258
 4546POPC   NC357671  43.584   8.025   5.218
 4546POPC   PO457672  44.153   8.322   5.150
 4546POPC   GL157673  43.992   8.142   5.582
 4546POPC   GL257674  43.663   8.035   5.733
 4546POPC   C1A57675  44.012   8.180   6.081
 4546POPC   D2A57676  44.025   8.405   6.484
 4546POPC   C3A57677  44.141   8.266   6.894
 4546POPC   C4A57678  44.037   8.458   7.306
 4546POPC   C1B57679  43.520   7.982   6.176
 4546POPC   C2B57680  43.565   8.206   6.581
 4546POPC   C3B57681  43.642   8.302   6.998
 4546POPC   C4B57682  43.841   7.979   7.293
 4547POPC   NC357683  15.200  44.138   5.394
 4547POPC   PO457684  15.038  43.477   5.550
 4547POPC   GL157685  15.062  43.852   5.830
 4547POPC   GL257686  15.019  44.245   5.836
 4547POPC   C1A57687  15.094  43.916   6.267
 4547POPC   D2A57688  15.497  43.933   6.471
 4547POPC   C3A57689  15.464  43.717   6.838
 4547POPC   C4A57690  15.156  43.674   7.163
 4547POPC   C1B57691  15.358  44.326   6.102
 4547POPC   C2B57692  15.184  44.369   6.502
 4547POPC   C3B57693  15.054  44.041   6.787
 4547POPC   C4B57694  15.091  44.186   7.188
 4548POPC   NC357695   0.260  41.661   5.438
 4548POPC   PO457696   0.995  41.696   5.462
 4548POPC   GL157697   0.672  41.658   5.799
 4548POPC   GL257698   0.467  41.973   5.829
 4548POPC   C1A57699   0.545  41.394   6.168
 4548POPC   D2A57700   0.258  41.230   6.518
 4548POPC   C3A57701   0.351  41.394   6.946
 4548POPC   C4A57702   0.757  41.250   7.064
 4548POPC   C1B57703   0.179  41.768   6.132
 4548POPC   C2B57704   0.097  41.754   6.588
 4548POPC   C3B57705   0.260  41.926   6.982
 4548POPC   C4B57706   0.130  41.928   7.399
 4549POPC   NC357707  28.328  32.424   5.224
 4549POPC   PO457708  27.952  31.999   5.434
 4549POPC   GL157709  28.344  32.165   5.733
 4549POPC   GL257710  28.536  32.482   5.747
 4549POPC   C1A57711  28.288  32.348   6.201
 4549POPC   D2A57712  28.137  32.154   6.590
 4549POPC   C3A57713  28.362  32.269   6.987
 4549POPC   C4A57714  28.353  32.131   7.426
 4549POPC   C1B57715  28.777  32.381   6.129
 4549POPC   C2B57716  28.654  32.266   6.563
 4549POPC   C3B57717  28.880  32.362   6.963
 4549POPC   C4B57718  28.691  32.515   7.356
 4550POPC   NC357719  16.568  21.626   5.550
 4550POPC   PO457720  15.919  21.460   5.428
 4550POPC   GL157721  15.862  21.284   5.852
 4550POPC   GL257722  15.566  21.497   5.932
 4550POPC   C1A57723  16.025  21.171   6.306
 4550POPC   D2A57724  16.117  21.397   6.720
 4550POPC   C3A57725  16.020  21.243   7.133
 4550POPC   C4A57726  16.124  21.368   7.590
 4550POPC   C1B57727  15.519  21.222   6.245
 4550POPC   C2B57728  15.615  21.310   6.660
 4550POPC   C3B57729  15.614  21.526   7.037
 4550POPC   C4B57730  15.475  21.758   7.382
 4551POPC   NC357731   4.570  14.428   5.228
 4551POPC   PO457732   4.377  13.903   5.582
 4551POPC   GL157733   4.184  13.688   5.898
 4551POPC   GL257734   4.502  13.653   6.099
 4551POPC   C1A57735   4.065  13.477   6.279
 4551POPC   D2A57736   4.292  13.589   6.678
 4551POPC   C3A57737   4.212  13.356   7.094
 4551POPC   C4A57738   4.125  13.509   7.547
 4551POPC   C1B57739   4.733  14.012   6.256
 4551POPC   C2B57740   4.681  14.075   6.682
 4551POPC   C3B57741   4.514  13.882   7.053
 4551POPC   C4B57742   4.600  13.567   7.378
 4552POPC   NC357743  10.224  43.018   5.503
 4552POPC   PO457744  10.771  43.516   5.542
 4552POPC   GL157745  10.605  43.215   5.820
 4552POPC   GL257746  10.256  43.347   5.903
 4552POPC   C1A57747  10.692  43.205   6.253
 4552POPC   D2A57748  10.531  43.486   6.539
 4552POPC   C3A57749  10.341  43.344   6.936
 4552POPC   C4A57750  10.562  43.049   7.168
 4552POPC   C1B57751  10.280  42.953   6.160
 4552POPC   C2B57752  10.377  42.952   6.620
 4552POPC   C3B57753  10.188  42.770   7.025
 4552POPC   C4B57754  10.181  42.873   7.510
 4553POPC   NC357755   8.768  31.030   5.566
 4553POPC   PO457756   9.065  31.594   5.311
 4553POPC   GL157757   8.881  31.534   5.778
 4553POPC   GL257758   9.040  31.235   5.925
 4553POPC   C1A57759   8.945  31.668   6.254
 4553POPC   D2A57760   9.095  31.886   6.669
 4553POPC   C3A57761   9.135  31.653   7.081
 4553POPC   C4A57762   8.923  31.533   7.416
 4553POPC   C1B57763   9.046  31.154   6.314
 4553POPC   C2B57764   9.016  31.361   6.679
 4553POPC   C3B57765   8.937  31.178   7.048
 4553POPC   C4B57766   8.740  31.022   7.407
 4554POPC   NC357767  42.217   0.582   5.388
 4554POPC   PO457768  42.891   0.762   5.456
 4554POPC   GL157769  42.735   0.499   5.824
 4554POPC   GL257770  42.509   0.186   5.848
 4554POPC   C1A57771  42.605   0.477   6.263
 4554POPC   D2A57772  42.622   0.377   6.722
 4554POPC   C3A57773  42.512   0.674   7.042
 4554POPC   C4A57774  42.478   0.632   7.502
 4554POPC   C1B57775  42.143  44.928   6.072
 4554POPC   C2B57776  42.034  44.910   6.517
 4554POPC   C3B57777  42.106   0.250   6.828
 4554POPC   C4B57778  42.379   0.210   7.152
 4555POPC   NC357779  18.968  13.272   5.447
 4555POPC   PO457780  19.211  12.598   5.389
 4555POPC   GL157781  19.098  12.808   5.757
 4555POPC   GL257782  19.355  13.034   5.804
 4555POPC   C1A57783  18.811  12.801   6.113
 4555POPC   D2A57784  18.751  12.984   6.497
 4555POPC   C3A57785  19.080  12.857   6.768
 4555POPC   C4A57786  19.031  12.810   7.184
 4555POPC   C1B57787  19.235  13.044   6.266
 4555POPC   C2B57788  19.204  13.333   6.644
 4555POPC   C3B57789  19.368  13.220   7.064
 4555POPC   C4B57790  19.444  12.925   7.432
 4556POPC   NC357791  34.230   4.045   5.545
 4556POPC   PO457792  34.715   4.476   5.470
 4556POPC   GL157793  34.644   4.392   5.848
 4556POPC   GL257794  34.300   4.447   5.925
 4556POPC   C1A57795  34.723   4.588   6.209
 4556POPC   D2A57796  34.580   4.428   6.578
 4556POPC   C3A57797  34.756   4.560   6.942
 4556POPC   C4A57798  34.436   4.570   7.271
 4556POPC   C1B57799  34.404   4.095   6.206
 4556POPC   C2B57800  34.518   3.913   6.630
 4556POPC   C3B57801  34.634   4.070   7.021
 4556POPC   C4B57802  34.344   4.063   7.316
 4557POPC   NC357803  26.302  16.288   5.421
 4557POPC   PO457804  25.772  15.880   5.369
 4557POPC   GL157805  26.064  15.899   5.746
 4557POPC   GL257806  25.930  16.231   5.870
 4557POPC   C1A57807  26.245  15.974   6.202
 4557POPC   D2A57808  26.084  16.078   6.633
 4557POPC   C3A57809  26.227  15.843   7.007
 4557POPC   C4A57810  26.174  16.001   7.447
 4557POPC   C1B57811  25.850  16.411   6.302
 4557POPC   C2B57812  25.626  16.286   6.719
 4557POPC   C3B57813  25.769  16.072   7.123
 4557POPC   C4B57814  25.692  15.852   7.574
 4558POPC   NC357815  19.701  21.420   5.356
 4558POPC   PO457816  19.922  20.851   5.481
 4558POPC   GL157817  19.798  21.159   5.810
 4558POPC   GL257818  19.761  21.553   5.830
 4558POPC   C1A57819  19.863  21.134   6.258
 4558POPC   D2A57820  19.795  21.066   6.698
 4558POPC   C3A57821  20.025  21.290   6.967
 4558POPC   C4A57822  19.939  21.338   7.393
 4558POPC   C1B57823  19.914  21.651   6.220
 4558POPC   C2B57824  19.695  21.570   6.597
 4558POPC   C3B57825  19.688  21.658   7.026
 4558POPC   C4B57826  19.973  21.900   7.197
 4559POPC   NC357827  33.590  11.123   5.497
 4559POPC   PO457828  33.956  11.643   5.445
 4559POPC   GL157829  33.858  11.642   5.896
 4559POPC   GL257830  33.705  11.309   5.972
 4559POPC   C1A57831  34.130  11.568   6.280
 4559POPC   D2A57832  34.236  11.290   6.636
 4559POPC   C3A57833  34.124  11.369   7.076
 4559POPC   C4A57834  33.718  11.555   7.178
 4559POPC   C1B57835  33.918  11.031   6.285
 4559POPC   C2B57836  33.780  10.853   6.711
 4559POPC   C3B57837  33.667  11.011   7.156
 4559POPC   C4B57838  33.420  11.091   7.575
 4560POPC   NC357839  30.898  42.411   5.503
 4560POPC   PO457840  30.318  42.093   5.406
 4560POPC   GL157841  30.529  42.199   5.781
 4560POPC   GL257842  30.478  42.548   5.752
 4560POPC   C1A57843  30.713  42.410   6.186
 4560POPC   D2A57844  30.875  42.318   6.624
 4560POPC   C3A57845  30.622  42.178   6.966
 4560POPC   C4A57846  30.725  41.986   7.341
 4560POPC   C1B57847  30.265  42.679   6.119
 4560POPC   C2B57848  30.313  42.862   6.532
 4560POPC   C3B57849  30.634  42.774   6.864
 4560POPC   C4B57850  30.578  42.575   7.265
 4561POPC   NC357851  27.676  36.411   5.419
 4561POPC   PO457852  27.344  35.781   5.487
 4561POPC   GL157853  27.511  36.064   5.803
 4561POPC   GL257854  27.815  36.259   5.910
 4561POPC   C1A57855  27.396  36.079   6.217
 4561POPC   D2A57856  27.583  36.158   6.584
 4561POPC   C3A57857  27.489  36.016   6.951
 4561POPC   C4A57858  27.761  36.112   7.279
 4561POPC   C1B57859  27.858  35.880   6.195
 4561POPC   C2B57860  27.710  35.660   6.565
 4561POPC   C3B57861  27.907  35.730   6.980
 4561POPC   C4B57862  27.907  35.620   7.436
 4562POPC   NC357863  24.438   6.818   5.353
 4562POPC   PO457864  24.148   6.133   5.319
 4562POPC   GL157865  24.194   6.497   5.688
 4562POPC   GL257866  24.281   6.885   5.809
 4562POPC   C1A57867  24.270   6.541   6.163
 4562POPC   D2A57868  24.399   6.754   6.529
 4562POPC   C3A57869  24.409   6.503   6.905
 4562POPC   C4A57870  24.250   6.636   7.297
 4562POPC   C1B57871  24.093   7.056   6.166
 4562POPC   C2B57872  24.135   7.224   6.572
 4562POPC   C3B57873  24.235   7.026   6.932
 4562POPC   C4B57874  24.611   6.947   7.121
 4563POPC   NC357875  27.715  24.317   5.349
 4563POPC   PO457876  27.130  24.377   5.590
 4563POPC   GL157877  27.478  24.553   5.852
 4563POPC   GL257878  27.861  24.508   5.849
 4563POPC   C1A57879  27.546  24.659   6.296
 4563POPC   D2A57880  27.453  24.431   6.664
 4563POPC   C3A57881  27.554  24.546   7.066
 4563POPC   C4A57882  27.337  24.851   7.303
 4563POPC   C1B57883  28.035  24.727   6.222
 4563POPC   C2B57884  27.906  24.831   6.688
 4563POPC   C3B57885  27.966  24.837   7.167
 4563POPC   C4B57886  27.776  24.649   7.546
 4564POPC   NC357887  11.643  40.188   5.403
 4564POPC   PO457888  12.229  39.803   5.312
 4564POPC   GL157889  12.041  39.997   5.700
 4564POPC   GL257890  11.765  39.824   5.796
 4564POPC   C1A57891  11.974  40.117   6.161
 4564POPC   D2A57892  12.141  40.061   6.597
 4564POPC   C3A57893  11.865  40.227   6.914
 4564POPC   C4A57894  11.842  40.382   7.314
 4564POPC   C1B57895  11.661  39.699   6.206
 4564POPC   C2B57896  11.611  39.908   6.585
 4564POPC   C3B57897  11.647  39.769   6.987
 4564POPC   C4B57898  11.716  39.900   7.399
 4565POPC   NC357899  10.052  33.302   5.558
 4565POPC   PO457900  10.578  32.878   5.509
 4565POPC   GL157901  10.337  32.928   5.794
 4565POPC   GL257902  10.226  32.595   5.879
 4565POPC   C1A57903  10.294  33.061   6.178
 4565POPC   D2A57904  10.520  32.923   6.508
 4565POPC   C3A57905  10.475  32.996   6.938
 4565POPC   C4A57906  10.716  32.751   7.164
 4565POPC   C1B57907  10.252  32.514   6.321
 4565POPC   C2B57908  10.178  32.632   6.751
 4565POPC   C3B57909  10.269  32.521   7.171
 4565POPC   C4B57910  10.302  32.472   7.616
 4566POPC   NC357911   9.830  11.778   5.351
 4566POPC   PO457912   9.722  11.117   5.401
 4566POPC   GL157913   9.694  11.252   5.792
 4566POPC   GL257914   9.985  11.048   5.891
 4566POPC   C1A57915   9.518  11.142   6.196
 4566POPC   D2A57916   9.277  10.980   6.550
 4566POPC   C3A57917   9.429  11.156   6.922
 4566POPC   C4A57918   9.612  11.001   7.274
 4566POPC   C1B57919   9.988  11.409   6.190
 4566POPC   C2B57920   9.814  11.328   6.580
 4566POPC   C3B57921   9.983  11.072   6.908
 4566POPC   C4B57922  10.002  11.302   7.267
 4567POPC   NC357923  26.251  41.155   5.436
 4567POPC   PO457924  26.151  40.530   5.569
 4567POPC   GL157925  26.163  40.838   5.890
 4567POPC   GL257926  25.904  41.085   5.813
 4567POPC   C1A57927  26.140  40.727   6.350
 4567POPC   D2A57928  25.897  40.604   6.707
 4567POPC   C3A57929  26.078  40.556   7.105
 4567POPC   C4A57930  25.978  40.474   7.562
 4567POPC   C1B57931  26.107  41.228   6.225
 4567POPC   C2B57932  26.069  41.151   6.656
 4567POPC   C3B57933  25.794  41.046   6.982
 4567POPC   C4B57934  25.894  40.945   7.377
 4568POPC   NC357935  21.940   8.952   5.465
 4568POPC   PO457936  22.621   8.741   5.546
 4568POPC   GL157937  22.274   8.869   5.892
 4568POPC   GL257938  21.877   8.778   5.923
 4568POPC   C1A57939  22.318   9.183   6.253
 4568POPC   D2A57940  22.544   9.356   6.642
 4568POPC   C3A57941  22.361   9.113   6.990
 4568POPC   C4A57942  21.898   9.252   7.160
 4568POPC   C1B57943  21.896   8.897   6.326
 4568POPC   C2B57944  22.138   8.792   6.628
 4568POPC   C3B57945  21.954   8.788   6.995
 4568POPC   C4B57946  22.183   8.744   7.336
 4569POPC   NC357947  23.652  21.155   5.418
 4569POPC   PO457948  23.832  21.743   5.428
 4569POPC   GL157949  23.914  21.545   5.833
 4569POPC   GL257950  24.001  21.187   5.830
 4569POPC   C1A57951  23.902  21.555   6.316
 4569POPC   D2A57952  23.625  21.593   6.686
 4569POPC   C3A57953  23.307  21.331   6.903
 4569POPC   C4A57954  23.329  21.181   7.349
 4569POPC   C1B57955  24.049  21.057   6.279
 4569POPC   C2B57956  23.724  21.057   6.629
 4569POPC   C3B57957  23.776  21.155   7.055
 4569POPC   C4B57958  24.187  21.041   7.175
 4570POPC   NC357959  27.564  42.476   5.444
 4570POPC   PO457960  27.604  41.774   5.297
 4570POPC   GL157961  27.504  41.972   5.768
 4570POPC   GL257962  27.487  42.322   5.912
 4570POPC   C1A57963  27.789  42.012   6.183
 4570POPC   D2A57964  27.974  42.148   6.592
 4570POPC   C3A57965  27.727  42.329   6.881
 4570POPC   C4A57966  27.592  42.144   7.246
 4570POPC   C1B57967  27.739  42.508   6.262
 4570POPC   C2B57968  27.989  42.727   6.560
 4570POPC   C3B57969  27.837  42.827   6.985
 4570POPC   C4B57970  27.437  42.656   7.184
 4571POPC   NC357971  16.998   6.889   5.610
 4571POPC   PO457972  16.362   6.784   5.408
 4571POPC   GL157973  16.592   6.693   5.822
 4571POPC   GL257974  16.788   6.436   5.880
 4571POPC   C1A57975  16.653   6.842   6.232
 4571POPC   D2A57976  16.852   6.834   6.626
 4571POPC   C3A57977  16.619   6.883   6.993
 4571POPC   C4A57978  16.824   6.739   7.409
 4571POPC   C1B57979  16.567   6.339   6.228
 4571POPC   C2B57980  16.739   6.337   6.633
 4571POPC   C3B57981  16.563   6.384   7.027
 4571POPC   C4B57982  16.331   6.638   7.348
 4572POPC   NC357983  20.888  32.923   5.218
 4572POPC   PO457984  21.557  32.956   5.412
 4572POPC   GL157985  21.451  32.994   5.834
 4572POPC   GL257986  21.207  32.755   5.752
 4572POPC   C1A57987  21.662  33.011   6.259
 4572POPC   D2A57988  21.766  33.076   6.706
 4572POPC   C3A57989  21.479  33.253   6.997
 4572POPC   C4A57990  21.569  33.014   7.400
 4572POPC   C1B57991  21.240  32.686   6.201
 4572POPC   C2B57992  21.255  32.955   6.593
 4572POPC   C3B57993  21.194  32.841   7.017
 4572POPC   C4B57994  21.094  33.138   7.352
 4573POPC   NC357995   5.611   6.844   5.330
 4573POPC   PO457996   6.184   6.771   5.639
 4573POPC   GL157997   5.773   6.717   5.802
 4573POPC   GL257998   5.757   7.057   5.809
 4573POPC   C1A57999   5.580   6.542   6.216
 4573POPC   D2A58000   5.678   6.323   6.657
 4573POPC   C3A58001   5.570   6.566   7.071
 4573POPC   C4A58002   5.691   6.495   7.529
 4573POPC   C1B58003   5.946   6.908   6.225
 4573POPC   C2B58004   6.031   6.727   6.591
 4573POPC   C3B58005   6.094   6.643   6.991
 4573POPC   C4B58006   5.957   6.851   7.313
 4574POPC   NC358007  38.365  25.156   5.394
 4574POPC   PO458008  38.284  25.750   5.522
 4574POPC   GL158009  38.508  25.394   5.819
 4574POPC   GL258010  38.367  25.011   5.861
 4574POPC   C1A58011  38.632  25.185   6.235
 4574POPC   D2A58012  38.364  25.125   6.578
 4574POPC   C3A58013  38.584  25.132   6.931
 4574POPC   C4A58014  38.469  25.439   7.165
 4574POPC   C1B58015  38.248  24.766   6.219
 4574POPC   C2B58016  38.020  24.740   6.617
 4574POPC   C3B58017  38.140  24.892   7.042
 4574POPC   C4B58018  38.503  24.881   7.373
 4575POPC   NC358019  12.993  15.865   5.443
 4575POPC   PO458020  12.319  15.593   5.486
 4575POPC   GL158021  12.647  15.677   5.822
 4575POPC   GL258022  12.895  15.983   5.921
 4575POPC   C1A58023  12.736  15.660   6.273
 4575POPC   D2A58024  13.029  15.818   6.577
 4575POPC   C3A58025  12.862  15.699   6.964
 4575POPC   C4A58026  12.537  15.949   7.143
 4575POPC   C1B58027  13.122  16.253   6.242
 4575POPC   C2B58028  13.032  16.519   6.630
 4575POPC   C3B58029  12.885  16.324   6.999
 4575POPC   C4B58030  13.184  16.048   7.162
 4576POPC   NC358031  11.998   1.740   5.315
 4576POPC   PO458032  11.918   2.346   5.363
 4576POPC   GL158033  12.057   2.084   5.724
 4576POPC   GL258034  12.132   1.725   5.822
 4576POPC   C1A58035  12.043   2.122   6.158
 4576POPC   D2A58036  11.959   1.877   6.515
 4576POPC   C3A58037  11.928   1.995   6.939
 4576POPC   C4A58038  11.738   1.802   7.286
 4576POPC   C1B58039  12.368   1.692   6.251
 4576POPC   C2B58040  12.401   1.706   6.750
 4576POPC   C3B58041  12.280   1.707   7.221
 4576POPC   C4B58042  12.541   1.595   7.606
 4577POPC   NC358043  24.833  16.675   5.471
 4577POPC   PO458044  25.539  16.504   5.570
 4577POPC   GL158045  25.438  16.662   5.951
 4577POPC   GL258046  25.083  16.734   5.916
 4577POPC   C1A58047  25.305  16.423   6.310
 4577POPC   D2A58048  25.069  16.372   6.683
 4577POPC   C3A58049  25.281  16.491   7.052
 4577POPC   C4A58050  25.171  16.583   7.484
 4577POPC   C1B58051  25.192  16.939   6.313
 4577POPC   C2B58052  25.096  16.879   6.750
 4577POPC   C3B58053  24.839  16.734   7.096
 4577POPC   C4B58054  24.802  16.942   7.499
 4578POPC   NC358055  27.733  17.019   5.398
 4578POPC   PO458056  27.346  16.505   5.608
 4578POPC   GL158057  27.515  16.639   5.965
 4578POPC   GL258058  27.594  16.962   5.876
 4578POPC   C1A58059  27.364  16.643   6.386
 4578POPC   D2A58060  27.353  16.649   6.813
 4578POPC   C3A58061  27.766  16.747   6.933
 4578POPC   C4A58062  27.977  16.639   7.274
 4578POPC   C1B58063  27.201  17.045   6.091
 4578POPC   C2B58064  27.305  17.129   6.519
 4578POPC   C3B58065  27.488  17.184   6.926
 4578POPC   C4B58066  27.672  17.196   7.342
 4579POPC   NC358067   8.571  37.063   5.555
 4579POPC   PO458068   7.910  36.894   5.342
 4579POPC   GL158069   7.823  36.672   5.723
 4579POPC   GL258070   8.164  36.568   5.863
 4579POPC   C1A58071   7.773  36.847   6.110
 4579POPC   D2A58072   7.877  37.108   6.416
 4579POPC   C3A58073   8.080  36.857   6.728
 4579POPC   C4A58074   7.968  36.807   7.159
 4579POPC   C1B58075   8.425  36.711   6.229
 4579POPC   C2B58076   8.599  36.922   6.617
 4579POPC   C3B58077   8.462  37.002   7.034
 4579POPC   C4B58078   8.649  37.216   7.314
 4580POPC   NC358079  26.417  18.191   5.369
 4580POPC   PO458080  27.083  18.264   5.376
 4580POPC   GL158081  26.810  18.200   5.742
 4580POPC   GL258082  26.555  18.424   5.808
 4580POPC   C1A58083  26.857  18.070   6.173
 4580POPC   D2A58084  26.633  18.264   6.526
 4580POPC   C3A58085  26.800  18.243   6.923
 4580POPC   C4A58086  26.800  18.165   7.346
 4580POPC   C1B58087  26.352  18.138   6.097
 4580POPC   C2B58088  26.197  18.017   6.523
 4580POPC   C3B58089  26.375  17.988   6.945
 4580POPC   C4B58090  26.253  18.058   7.392
 4581POPC   NC358091   0.305   2.120   5.348
 4581POPC   PO458092   0.145   1.577   5.576
 4581POPC   GL158093   0.281   1.942   5.832
 4581POPC   GL258094   0.629   2.073   5.783
 4581POPC   C1A58095   0.381   1.961   6.269
 4581POPC   D2A58096   0.512   1.699   6.620
 4581POPC   C3A58097   0.259   1.820   6.976
 4581POPC   C4A58098   0.110   1.573   7.294
 4581POPC   C1B58099   0.822   2.189   6.183
 4581POPC   C2B58100   0.634   2.273   6.643
 4581POPC   C3B58101   0.650   2.192   7.115
 4581POPC   C4B58102   0.691   2.223   7.596
 4582POPC   NC358103   1.143  15.551   5.068
 4582POPC   PO458104   1.624  15.278   5.395
 4582POPC   GL158105   1.465  15.108   5.774
 4582POPC   GL258106   1.544  14.766   5.793
 4582POPC   C1A58107   1.313  15.248   6.194
 4582POPC   D2A58108   0.913  15.365   6.441
 4582POPC   C3A58109   0.923  15.347   6.901
 4582POPC   C4A58110   0.891  14.995   7.216
 4582POPC   C1B58111   1.288  14.710   6.175
 4582POPC   C2B58112   1.189  14.932   6.578
 4582POPC   C3B58113   1.366  15.077   6.962
 4582POPC   C4B58114   1.584  15.138   7.338
 4583POPC   NC358115   4.456   3.086   5.389
 4583POPC   PO458116   4.168   3.624   5.305
 4583POPC   GL158117   4.256   3.442   5.734
 4583POPC   GL258118   4.150   3.065   5.772
 4583POPC   C1A58119   4.504   3.677   6.079
 4583POPC   D2A58120   4.490   3.987   6.431
 4583POPC   C3A58121   4.507   3.844   6.849
 4583POPC   C4A58122   4.193   3.801   7.181
 4583POPC   C1B58123   4.471   3.162   6.119
 4583POPC   C2B58124   4.486   3.396   6.517
 4583POPC   C3B58125   4.266   3.369   6.904
 4583POPC   C4B58126   4.325   3.169   7.260
 4584POPC   NC358127   1.710  22.750   5.659
 4584POPC   PO458128   1.925  23.021   5.133
 4584POPC   GL158129   2.094  23.073   5.660
 4584POPC   GL258130   2.352  23.315   5.627
 4584POPC   C1A58131   2.129  22.818   6.122
 4584POPC   D2A58132   1.841  22.766   6.505
 4584POPC   C3A58133   2.009  22.867   6.908
 4584POPC   C4A58134   2.325  22.760   7.178
 4584POPC   C1B58135   2.345  23.272   6.070
 4584POPC   C2B58136   2.275  23.116   6.510
 4584POPC   C3B58137   2.423  23.171   6.924
 4584POPC   C4B58138   2.443  23.225   7.416
 4585POPC   NC358139  14.593  18.967   5.342
 4585POPC   PO458140  13.930  19.013   5.165
 4585POPC   GL158141  14.064  19.014   5.691
 4585POPC   GL258142  14.464  19.016   5.817
 4585POPC   C1A58143  14.158  19.264   6.113
 4585POPC   D2A58144  14.334  19.061   6.521
 4585POPC   C3A58145  14.236  19.226   6.962
 4585POPC   C4A58146  14.240  19.151   7.437
 4585POPC   C1B58147  14.664  19.285   6.112
 4585POPC   C2B58148  14.742  19.402   6.508
 4585POPC   C3B58149  14.699  19.430   6.915
 4585POPC   C4B58150  14.688  19.087   7.203
 4586POPC   NC358151  20.899   5.051   5.469
 4586POPC   PO458152  20.292   5.220   5.374
 4586POPC   GL158153  20.482   5.094   5.761
 4586POPC   GL258154  20.621   5.401   5.813
 4586POPC   C1A58155  20.696   5.041   6.172
 4586POPC   D2A58156  20.545   5.258   6.540
 4586POPC   C3A58157  20.735   5.125   6.892
 4586POPC   C4A58158  20.562   5.178   7.266
 4586POPC   C1B58159  20.846   5.565   6.203
 4586POPC   C2B58160  21.004   5.499   6.638
 4586POPC   C3B58161  20.854   5.565   7.097
 4586POPC   C4B58162  20.841   5.480   7.575
 4587POPC   NC358163  18.621  14.188   5.649
 4587POPC   PO458164  19.182  14.412   5.338
 4587POPC   GL158165  19.071  14.512   5.765
 4587POPC   GL258166  18.786  14.684   5.711
 4587POPC   C1A58167  19.241  14.462   6.195
 4587POPC   D2A58168  19.052  14.373   6.613
 4587POPC   C3A58169  19.133  14.463   7.067
 4587POPC   C4A58170  19.245  14.443   7.542
 4587POPC   C1B58171  18.729  14.535   6.159
 4587POPC   C2B58172  18.672  14.680   6.532
 4587POPC   C3B58173  18.640  14.531   6.932
 4587POPC   C4B58174  18.768  14.688   7.381
 4588POPC   NC358175  11.766  33.234   5.497
 4588POPC   PO458176  12.291  32.761   5.360
 4588POPC   GL158177  12.175  33.004   5.744
 4588POPC   GL258178  12.471  33.223   5.798
 4588POPC   C1A58179  11.903  32.947   6.170
 4588POPC   D2A58180  11.778  32.655   6.532
 4588POPC   C3A58181  11.888  32.846   6.909
 4588POPC   C4A58182  11.961  32.997   7.307
 4588POPC   C1B58183  12.408  32.993   6.187
 4588POPC   C2B58184  12.211  33.035   6.576
 4588POPC   C3B58185  12.381  33.054   6.990
 4588POPC   C4B58186  12.390  33.269   7.390
 4589POPC   NC358187  31.939  16.664   5.498
 4589POPC   PO458188  31.275  16.509   5.444
 4589POPC   GL158189  31.503  16.710   5.774
 4589POPC   GL258190  31.331  16.977   5.848
 4589POPC   C1A58191  31.704  16.666   6.175
 4589POPC   D2A58192  31.689  16.410   6.552
 4589POPC   C3A58193  31.520  16.702   6.854
 4589POPC   C4A58194  31.421  16.759   7.260
 4589POPC   C1B58195  31.371  17.050   6.254
 4589POPC   C2B58196  31.093  17.053   6.574
 4589POPC   C3B58197  31.085  17.292   6.915
 4589POPC   C4B58198  31.065  17.108   7.312
 4590POPC   NC358199  36.432   3.054   5.451
 4590POPC   PO458200  36.047   2.547   5.200
 4590POPC   GL158201  35.961   2.527   5.687
 4590POPC   GL258202  36.045   2.882   5.826
 4590POPC   C1A58203  36.065   2.479   6.155
 4590POPC   D2A58204  35.944   2.650   6.562
 4590POPC   C3A58205  36.076   2.444   6.966
 4590POPC   C4A58206  35.954   2.569   7.403
 4590POPC   C1B58207  36.274   2.929   6.264
 4590POPC   C2B58208  36.404   2.783   6.710
 4590POPC   C3B58209  36.134   2.936   7.073
 4590POPC   C4B58210  36.194   3.016   7.522
 4591POPC   NC358211   3.109  34.591   5.288
 4591POPC   PO458212   2.606  34.162   5.217
 4591POPC   GL158213   2.649  34.354   5.642
 4591POPC   GL258214   2.637  34.737   5.659
 4591POPC   C1A58215   2.663  34.296   6.111
 4591POPC   D2A58216   2.414  34.423   6.506
 4591POPC   C3A58217   2.596  34.557   6.923
 4591POPC   C4A58218   2.943  34.396   7.193
 4591POPC   C1B58219   2.801  34.783   6.090
 4591POPC   C2B58220   2.949  34.561   6.472
 4591POPC   C3B58221   3.058  34.778   6.842
 4591POPC   C4B58222   2.924  34.914   7.257
 4592POPC   NC358223   6.116  18.267   5.378
 4592POPC   PO458224   5.473  18.415   5.470
 4592POPC   GL158225   5.752  18.287   5.763
 4592POPC   GL258226   6.066  18.440   5.856
 4592POPC   C1A58227   5.649  18.372   6.172
 4592POPC   D2A58228   5.912  18.143   6.449
 4592POPC   C3A58229   6.007  18.159   6.902
 4592POPC   C4A58230   5.846  18.300   7.273
 4592POPC   C1B58231   6.063  18.632   6.259
 4592POPC   C2B58232   5.942  18.662   6.676
 4592POPC   C3B58233   6.219  18.633   7.028
 4592POPC   C4B58234   6.115  18.697   7.450
 4593POPC   NC358235  23.551  29.717   5.307
 4593POPC   PO458236  23.905  30.289   5.357
 4593POPC   GL158237  23.772  30.021   5.695
 4593POPC   GL258238  23.964  29.759   5.858
 4593POPC   C1A58239  23.453  30.007   5.979
 4593POPC   D2A58240  23.162  29.935   6.300
 4593POPC   C3A58241  23.296  29.901   6.754
 4593POPC   C4A58242  23.551  29.999   7.128
 4593POPC   C1B58243  23.962  29.927   6.270
 4593POPC   C2B58244  23.875  29.847   6.752
 4593POPC   C3B58245  24.051  30.052   7.174
 4593POPC   C4B58246  23.916  30.298   7.574
 4594POPC   NC358247  38.954   2.914   5.625
 4594POPC   PO458248  38.436   2.746   5.163
 4594POPC   GL158249  38.423   2.793   5.663
 4594POPC   GL258250  38.650   2.634   5.895
 4594POPC   C1A58251  38.431   3.013   6.114
 4594POPC   D2A58252  38.600   3.224   6.508
 4594POPC   C3A58253  38.474   3.065   6.941
 4594POPC   C4A58254  38.441   2.806   7.314
 4594POPC   C1B58255  38.674   2.530   6.290
 4594POPC   C2B58256  38.718   2.720   6.651
 4594POPC   C3B58257  38.896   2.744   7.042
 4594POPC   C4B58258  38.879   2.556   7.415
 4595POPC   NC358259  39.481  13.930   5.440
 4595POPC   PO458260  39.337  13.390   5.195
 4595POPC   GL158261  39.157  13.478   5.622
 4595POPC   GL258262  39.074  13.825   5.735
 4595POPC   C1A58263  39.264  13.487   6.083
 4595POPC   D2A58264  39.135  13.409   6.501
 4595POPC   C3A58265  39.367  13.394   6.879
 4595POPC   C4A58266  39.195  13.315   7.267
 4595POPC   C1B58267  39.193  14.000   6.168
 4595POPC   C2B58268  39.323  13.877   6.606
 4595POPC   C3B58269  39.162  13.863   7.023
 4595POPC   C4B58270  38.965  13.758   7.426
 4596POPC   NC358271   3.563  33.272   5.597
 4596POPC   PO458272   3.209  32.753   5.392
 4596POPC   GL158273   3.373  32.837   5.801
 4596POPC   GL258274   3.186  33.116   5.935
 4596POPC   C1A58275   3.632  32.975   6.175
 4596POPC   D2A58276   3.830  33.114   6.571
 4596POPC   C3A58277   3.698  32.948   6.968
 4596POPC   C4A58278   3.733  32.957   7.432
 4596POPC   C1B58279   3.377  33.436   6.225
 4596POPC   C2B58280   3.397  33.499   6.684
 4596POPC   C3B58281   3.324  33.295   7.095
 4596POPC   C4B58282   3.362  33.284   7.531
 4597POPC   NC358283  13.695   9.404   5.416
 4597POPC   PO458284  13.431  10.046   5.445
 4597POPC   GL158285  13.612  10.006   5.830
 4597POPC   GL258286  13.809   9.721   5.829
 4597POPC   C1A58287  13.444   9.895   6.211
 4597POPC   D2A58288  13.445   9.645   6.573
 4597POPC   C3A58289  13.415   9.888   6.943
 4597POPC   C4A58290  13.816  10.017   7.129
 4597POPC   C1B58291  13.710   9.392   6.159
 4597POPC   C2B58292  13.845   9.294   6.591
 4597POPC   C3B58293  13.717   9.460   6.991
 4597POPC   C4B58294  13.499   9.560   7.364
 4598POPC   NC358295   4.625  13.514   5.630
 4598POPC   PO458296   5.025  13.896   5.221
 4598POPC   GL158297   5.146  13.625   5.612
 4598POPC   GL258298   5.427  13.351   5.620
 4598POPC   C1A58299   5.077  13.656   6.090
 4598POPC   D2A58300   5.148  13.820   6.514
 4598POPC   C3A58301   4.969  13.647   6.887
 4598POPC   C4A58302   5.003  13.866   7.248
 4598POPC   C1B58303   5.583  13.613   5.989
 4598POPC   C2B58304   5.599  13.576   6.460
 4598POPC   C3B58305   5.496  13.701   6.888
 4598POPC   C4B58306   5.387  13.552   7.316
 4599POPC   NC358307  36.518  25.871   5.344
 4599POPC   PO458308  36.142  26.306   5.585
 4599POPC   GL158309  36.175  25.927   5.802
 4599POPC   GL258310  35.856  25.735   5.735
 4599POPC   C1A58311  36.287  25.915   6.236
 4599POPC   D2A58312  36.174  26.144   6.603
 4599POPC   C3A58313  36.444  26.136   6.948
 4599POPC   C4A58314  36.460  26.514   7.190
 4599POPC   C1B58315  35.786  25.874   6.155
 4599POPC   C2B58316  35.904  25.721   6.568
 4599POPC   C3B58317  35.891  25.871   7.009
 4599POPC   C4B58318  35.734  25.920   7.445
 4600POPC   NC358319  35.253  21.260   5.230
 4600POPC   PO458320  34.949  21.128   5.794
 4600POPC   GL158321  35.412  21.282   5.832
 4600POPC   GL258322  35.544  21.648   5.813
 4600POPC   C1A58323  35.573  21.169   6.256
 4600POPC   D2A58324  35.424  21.332   6.639
 4600POPC   C3A58325  35.242  21.155   7.007
 4600POPC   C4A58326  34.995  21.500   7.206
 4600POPC   C1B58327  35.543  21.701   6.252
 4600POPC   C2B58328  35.434  21.866   6.643
 4600POPC   C3B58329  35.434  21.665   7.028
 4600POPC   C4B58330  35.490  21.417   7.366
 4601POPC   NC358331  42.852  29.328   5.375
 4601POPC   PO458332  43.317  28.831   5.326
 4601POPC   GL158333  43.143  29.028   5.678
 4601POPC   GL258334  42.912  28.794   5.806
 4601POPC   C1A58335  43.094  29.242   6.070
 4601POPC   D2A58336  43.180  29.524   6.421
 4601POPC   C3A58337  43.162  29.315   6.838
 4601POPC   C4A58338  42.900  29.196   7.189
 4601POPC   C1B58339  43.281  28.718   6.076
 4601POPC   C2B58340  43.231  28.805   6.514
 4601POPC   C3B58341  43.206  28.780   6.976
 4601POPC   C4B58342  43.099  28.805   7.427
 4602POPC   NC358343  16.095  36.232   5.446
 4602POPC   PO458344  15.694  35.689   5.375
 4602POPC   GL158345  15.709  35.965   5.761
 4602POPC   GL258346  15.645  36.353   5.751
 4602POPC   C1A58347  15.856  35.894   6.228
 4602POPC   D2A58348  15.798  35.920   6.700
 4602POPC   C3A58349  16.035  35.981   7.088
 4602POPC   C4A58350  16.022  35.927   7.558
 4602POPC   C1B58351  15.480  36.243   6.148
 4602POPC   C2B58352  15.392  36.209   6.569
 4602POPC   C3B58353  15.399  36.353   6.986
 4602POPC   C4B58354  15.619  36.177   7.346
 4603POPC   NC358355  11.288   5.333   5.448
 4603POPC   PO458356  10.941   4.709   5.437
 4603POPC   GL158357  10.974   5.005   5.770
 4603POPC   GL258358  11.309   4.977   5.834
 4603POPC   C1A58359  10.946   5.185   6.206
 4603POPC   D2A58360  11.217   5.171   6.539
 4603POPC   C3A58361  11.033   5.193   6.932
 4603POPC   C4A58362  10.889   5.228   7.330
 4603POPC   C1B58363  11.288   4.752   6.214
 4603POPC   C2B58364  11.558   4.775   6.565
 4603POPC   C3B58365  11.514   4.982   6.932
 4603POPC   C4B58366  11.365   5.026   7.337
 4604POPC   NC358367  18.938  39.445   5.601
 4604POPC   PO458368  19.316  39.026   5.225
 4604POPC   GL158369  19.103  38.986   5.708
 4604POPC   GL258370  19.314  39.166   5.874
 4604POPC   C1A58371  18.913  39.217   6.188
 4604POPC   D2A58372  19.069  39.302   6.649
 4604POPC   C3A58373  18.811  39.455   7.035
 4604POPC   C4A58374  18.826  39.365   7.540
 4604POPC   C1B58375  19.398  39.042   6.255
 4604POPC   C2B58376  19.331  38.828   6.586
 4604POPC   C3B58377  19.415  38.874   6.991
 4604POPC   C4B58378  19.231  39.223   7.191
 4605POPC   NC358379   8.589  10.155   5.400
 4605POPC   PO458380   8.277  10.776   5.491
 4605POPC   GL158381   8.292  10.681   5.882
 4605POPC   GL258382   8.160  10.371   5.817
 4605POPC   C1A58383   8.096  10.678   6.275
 4605POPC   D2A58384   8.148  10.351   6.547
 4605POPC   C3A58385   8.434  10.463   6.829
 4605POPC   C4A58386   8.290  10.691   7.165
 4605POPC   C1B58387   8.224  10.078   6.117
 4605POPC   C2B58388   8.223   9.856   6.496
 4605POPC   C3B58389   8.074   9.965   6.888
 4605POPC   C4B58390   8.223  10.193   7.215
 4606POPC   NC358391   8.987  14.035   5.345
 4606POPC   PO458392   8.840  13.408   5.403
 4606POPC   GL158393   8.959  13.685   5.750
 4606POPC   GL258394   8.710  13.550   5.934
 4606POPC   C1A58395   8.913  13.925   6.192
 4606POPC   D2A58396   9.096  14.074   6.613
 4606POPC   C3A58397   8.936  13.951   7.048
 4606POPC   C4A58398   9.116  13.702   7.407
 4606POPC   C1B58399   9.148  13.457   6.155
 4606POPC   C2B58400   9.182  13.564   6.587
 4606POPC   C3B58401   8.974  13.441   6.969
 4606POPC   C4B58402   8.628  13.541   7.256
 4607POPC   NC358403   1.051  12.483   5.260
 4607POPC   PO458404   0.990  11.930   5.652
 4607POPC   GL158405   1.220  12.249   5.840
 4607POPC   GL258406   1.537  12.108   5.724
 4607POPC   C1A58407   1.057  12.207   6.260
 4607POPC   D2A58408   0.915  11.923   6.571
 4607POPC   C3A58409   0.998  12.164   6.942
 4607POPC   C4A58410   1.108  11.994   7.311
 4607POPC   C1B58411   1.511  11.990   6.185
 4607POPC   C2B58412   1.407  12.131   6.619
 4607POPC   C3B58413   1.525  12.186   7.029
 4607POPC   C4B58414   1.506  12.270   7.468
 4608POPC   NC358415  13.677   4.439   5.364
 4608POPC   PO458416  13.308   3.856   5.292
 4608POPC   GL158417  13.637   3.983   5.693
 4608POPC   GL258418  13.821   4.333   5.835
 4608POPC   C1A58419  13.666   4.005   6.181
 4608POPC   D2A58420  13.578   4.278   6.566
 4608POPC   C3A58421  13.310   4.272   6.944
 4608POPC   C4A58422  13.377   4.319   7.382
 4608POPC   C1B58423  14.021   4.417   6.267
 4608POPC   C2B58424  14.063   4.334   6.726
 4608POPC   C3B58425  13.816   4.329   7.093
 4608POPC   C4B58426  13.833   4.406   7.556
 4609POPC   NC358427  20.115  13.712   5.584
 4609POPC   PO458428  19.497  13.370   5.416
 4609POPC   GL158429  19.806  13.301   5.733
 4609POPC   GL258430  20.110  13.162   5.552
 4609POPC   C1A58431  19.858  13.460   6.196
 4609POPC   D2A58432  19.626  13.656   6.566
 4609POPC   C3A58433  19.799  13.841   6.936
 4609POPC   C4A58434  19.614  13.657   7.284
 4609POPC   C1B58435  20.172  13.095   6.005
 4609POPC   C2B58436  20.180  13.138   6.481
 4609POPC   C3B58437  20.046  13.393   6.839
 4609POPC   C4B58438  20.141  13.599   7.238
 4610POPC   NC358439  35.618  30.949   5.556
 4610POPC   PO458440  35.057  30.660   5.529
 4610POPC   GL158441  35.147  30.497   5.937
 4610POPC   GL258442  35.433  30.324   5.905
 4610POPC   C1A58443  34.999  30.523   6.331
 4610POPC   D2A58444  35.181  30.744   6.681
 4610POPC   C3A58445  35.020  30.734   7.087
 4610POPC   C4A58446  35.026  30.876   7.508
 4610POPC   C1B58447  35.516  30.574   6.317
 4610POPC   C2B58448  35.720  30.796   6.696
 4610POPC   C3B58449  35.922  30.706   7.100
 4610POPC   C4B58450  35.823  30.870   7.544
 4611POPC   NC358451  12.655   7.963   5.469
 4611POPC   PO458452  13.016   8.562   5.454
 4611POPC   GL158453  12.838   8.329   5.840
 4611POPC   GL258454  12.897   7.977   5.911
 4611POPC   C1A58455  12.740   8.240   6.317
 4611POPC   D2A58456  12.662   8.214   6.785
 4611POPC   C3A58457  12.813   8.494   7.107
 4611POPC   C4A58458  12.702   8.516   7.561
 4611POPC   C1B58459  12.673   7.717   6.217
 4611POPC   C2B58460  12.777   7.719   6.651
 4611POPC   C3B58461  12.624   7.787   7.061
 4611POPC   C4B58462  12.851   8.037   7.368
 4612POPC   NC358463  43.111  11.803   5.582
 4612POPC   PO458464  43.168  11.312   5.226
 4612POPC   GL158465  43.221  11.305   5.668
 4612POPC   GL258466  42.871  11.381   5.751
 4612POPC   C1A58467  43.203  11.348   6.131
 4612POPC   D2A58468  43.252  11.508   6.545
 4612POPC   C3A58469  43.226  11.263   6.945
 4612POPC   C4A58470  43.338  11.506   7.316
 4612POPC   C1B58471  42.703  11.476   6.171
 4612POPC   C2B58472  42.764  11.294   6.583
 4612POPC   C3B58473  42.632  11.270   6.998
 4612POPC   C4B58474  42.844  11.343   7.333
 4613POPC   NC358475  30.593  13.690   4.866
 4613POPC   PO458476  30.898  13.688   5.456
 4613POPC   GL158477  30.758  13.531   5.847
 4613POPC   GL258478  30.421  13.444   5.890
 4613POPC   C1A58479  30.704  13.772   6.230
 4613POPC   D2A58480  30.557  13.869   6.625
 4613POPC   C3A58481  30.885  13.814   6.920
 4613POPC   C4A58482  30.703  13.826   7.280
 4613POPC   C1B58483  30.633  13.288   6.298
 4613POPC   C2B58484  30.621  13.361   6.747
 4613POPC   C3B58485  30.502  13.365   7.186
 4613POPC   C4B58486  30.564  13.495   7.641
 4614POPC   NC358487  22.838  33.534   5.570
 4614POPC   PO458488  23.077  32.834   5.428
 4614POPC   GL158489  22.990  32.797   5.826
 4614POPC   GL258490  23.265  32.592   5.873
 4614POPC   C1A58491  23.025  33.120   6.163
 4614POPC   D2A58492  23.002  33.384   6.536
 4614POPC   C3A58493  23.174  33.232   6.919
 4614POPC   C4A58494  22.905  33.292   7.291
 4614POPC   C1B58495  23.138  32.641   6.280
 4614POPC   C2B58496  23.031  32.852   6.625
 4614POPC   C3B58497  22.800  32.898   6.971
 4614POPC   C4B58498  22.594  32.672   7.225
 4615POPC   NC358499  31.977  41.171   5.535
 4615POPC   PO458500  32.408  41.661   5.349
 4615POPC   GL158501  32.271  41.556   5.740
 4615POPC   GL258502  32.085  41.784   5.895
 4615POPC   C1A58503  32.534  41.411   6.042
 4615POPC   D2A58504  32.695  41.406   6.451
 4615POPC   C3A58505  32.501  41.602   6.809
 4615POPC   C4A58506  32.617  41.444   7.233
 4615POPC   C1B58507  32.286  41.767   6.295
 4615POPC   C2B58508  32.105  41.996   6.614
 4615POPC   C3B58509  32.022  41.935   6.994
 4615POPC   C4B58510  32.102  41.565   7.173
 4616POPC   NC358511  37.981   9.245   5.160
 4616POPC   PO458512  37.651   8.726   5.493
 4616POPC   GL158513  37.662   9.128   5.689
 4616POPC   GL258514  37.981   9.312   5.734
 4616POPC   C1A58515  37.543   9.012   6.102
 4616POPC   D2A58516  37.492   9.164   6.512
 4616POPC   C3A58517  37.430   8.896   6.851
 4616POPC   C4A58518  37.567   8.922   7.267
 4616POPC   C1B58519  38.067   9.140   6.158
 4616POPC   C2B58520  38.183   9.029   6.563
 4616POPC   C3B58521  37.938   9.048   6.912
 4616POPC   C4B58522  37.946   9.294   7.283
 4617POPC   NC358523  22.850   7.821   5.348
 4617POPC   PO458524  23.007   7.200   5.480
 4617POPC   GL158525  23.138   7.373   5.879
 4617POPC   GL258526  23.134   7.741   5.822
 4617POPC   C1A58527  23.207   7.384   6.337
 4617POPC   D2A58528  23.230   7.072   6.672
 4617POPC   C3A58529  22.992   7.224   6.983
 4617POPC   C4A58530  22.912   7.382   7.406
 4617POPC   C1B58531  22.778   7.684   6.134
 4617POPC   C2B58532  22.580   7.597   6.538
 4617POPC   C3B58533  22.735   7.654   6.981
 4617POPC   C4B58534  22.775   7.879   7.387
 4618POPC   NC358535   0.063  37.445   5.684
 4618POPC   PO458536   0.638  37.319   5.342
 4618POPC   GL158537   0.593  37.587   5.707
 4618POPC   GL258538   0.510  37.929   5.681
 4618POPC   C1A58539   0.734  37.687   6.134
 4618POPC   D2A58540   0.374  37.593   6.409
 4618POPC   C3A58541   0.491  37.639   6.817
 4618POPC   C4A58542   0.813  37.635   7.098
 4618POPC   C1B58543   0.346  38.005   6.082
 4618POPC   C2B58544   0.555  38.083   6.457
 4618POPC   C3B58545   0.781  38.071   6.817
 4618POPC   C4B58546   0.563  38.082   7.195
 4619POPC   NC358547  32.251  13.247   5.406
 4619POPC   PO458548  32.629  13.806   5.433
 4619POPC   GL158549  32.375  13.609   5.754
 4619POPC   GL258550  32.011  13.698   5.783
 4619POPC   C1A58551  32.315  13.536   6.192
 4619POPC   D2A58552  32.330  13.825   6.534
 4619POPC   C3A58553  32.267  13.712   6.949
 4619POPC   C4A58554  32.241  13.332   7.186
 4619POPC   C1B58555  32.031  14.016   6.138
 4619POPC   C2B58556  31.932  14.181   6.568
 4619POPC   C3B58557  31.797  13.979   6.952
 4619POPC   C4B58558  31.916  13.710   7.321
 4620POPC   NC358559  25.315  20.332   5.615
 4620POPC   PO458560  25.293  19.770   5.248
 4620POPC   GL158561  25.494  19.875   5.752
 4620POPC   GL258562  25.240  20.091   6.037
 4620POPC   C1A58563  25.597  19.810   6.212
 4620POPC   D2A58564  25.414  20.075   6.519
 4620POPC   C3A58565  25.511  20.074   6.911
 4620POPC   C4A58566  25.237  20.123   7.223
 4620POPC   C1B58567  25.085  19.740   6.294
 4620POPC   C2B58568  24.941  19.805   6.722
 4620POPC   C3B58569  24.933  19.659   7.142
 4620POPC   C4B58570  24.723  19.319   7.378
 4621POPC   NC358571  27.479  21.548   5.298
 4621POPC   PO458572  27.788  20.948   5.517
 4621POPC   GL158573  27.496  21.307   5.745
 4621POPC   GL258574  27.281  21.640   5.754
 4621POPC   C1A58575  27.539  21.175   6.180
 4621POPC   D2A58576  27.800  21.234   6.513
 4621POPC   C3A58577  27.570  21.191   6.880
 4621POPC   C4A58578  27.712  21.197   7.286
 4621POPC   C1B58579  27.539  21.669   6.107
 4621POPC   C2B58580  27.416  21.584   6.533
 4621POPC   C3B58581  27.426  21.699   6.956
 4621POPC   C4B58582  27.655  21.694   7.313
 4622POPC   NC358583  25.335  13.362   5.495
 4622POPC   PO458584  25.319  14.034   5.413
 4622POPC   GL158585  25.109  13.771   5.732
 4622POPC   GL258586  25.414  13.725   5.863
 4622POPC   C1A58587  25.037  13.822   6.193
 4622POPC   D2A58588  25.152  13.600   6.576
 4622POPC   C3A58589  25.049  13.739   6.991
 4622POPC   C4A58590  25.306  13.869   7.348
 4622POPC   C1B58591  25.489  13.462   6.184
 4622POPC   C2B58592  25.602  13.350   6.590
 4622POPC   C3B58593  25.527  13.550   6.971
 4622POPC   C4B58594  25.723  13.565   7.362
 4623POPC   NC358595  34.175  26.977   5.227
 4623POPC   PO458596  33.562  26.601   5.309
 4623POPC   GL158597  33.544  26.628   5.775
 4623POPC   GL258598  33.902  26.690   5.831
 4623POPC   C1A58599  33.444  26.476   6.218
 4623POPC   D2A58600  33.564  26.423   6.689
 4623POPC   C3A58601  33.539  26.760   7.027
 4623POPC   C4A58602  33.698  27.149   7.050
 4623POPC   C1B58603  33.756  26.882   6.234
 4623POPC   C2B58604  33.894  26.855   6.671
 4623POPC   C3B58605  34.073  26.721   7.065
 4623POPC   C4B58606  34.217  26.404   7.350
 4624POPC   NC358607  29.852   5.910   5.305
 4624POPC   PO458608  30.357   5.658   5.545
 4624POPC   GL158609  30.030   5.842   5.784
 4624POPC   GL258610  29.693   5.696   5.744
 4624POPC   C1A58611  29.806   6.095   6.070
 4624POPC   D2A58612  29.795   6.225   6.494
 4624POPC   C3A58613  29.901   5.983   6.881
 4624POPC   C4A58614  30.161   6.142   7.221
 4624POPC   C1B58615  29.610   5.650   6.190
 4624POPC   C2B58616  29.475   5.802   6.602
 4624POPC   C3B58617  29.469   5.691   7.057
 4624POPC   C4B58618  29.710   5.921   7.381
 4625POPC   NC358619  40.900  19.658   5.430
 4625POPC   PO458620  40.361  20.041   5.438
 4625POPC   GL158621  40.620  19.879   5.792
 4625POPC   GL258622  40.984  20.021   5.789
 4625POPC   C1A58623  40.782  19.736   6.202
 4625POPC   D2A58624  40.747  19.914   6.623
 4625POPC   C3A58625  40.742  19.682   7.018
 4625POPC   C4A58626  40.640  19.987   7.308
 4625POPC   C1B58627  41.246  20.001   6.179
 4625POPC   C2B58628  41.183  20.187   6.601
 4625POPC   C3B58629  41.061  20.086   7.017
 4625POPC   C4B58630  41.128  19.847   7.397
 4626POPC   NC358631  43.514  25.035   5.479
 4626POPC   PO458632  44.148  25.336   5.412
 4626POPC   GL158633  43.965  25.384   5.832
 4626POPC   GL258634  43.605  25.375   5.843
 4626POPC   C1A58635  43.991  25.371   6.294
 4626POPC   D2A58636  43.830  25.312   6.686
 4626POPC   C3A58637  44.055  25.484   7.033
 4626POPC   C4A58638  44.283  25.303   7.376
 4626POPC   C1B58639  43.648  25.037   6.132
 4626POPC   C2B58640  43.475  24.971   6.512
 4626POPC   C3B58641  43.579  24.927   6.895
 4626POPC   C4B58642  43.572  25.258   7.174
 4627POPC   NC358643  40.448  35.199   5.576
 4627POPC   PO458644  39.889  35.384   5.254
 4627POPC   GL158645  40.061  35.512   5.703
 4627POPC   GL258646  39.764  35.494   5.855
 4627POPC   C1A58647  40.246  35.339   6.151
 4627POPC   D2A58648  40.182  34.960   6.392
 4627POPC   C3A58649  40.197  34.994   6.838
 4627POPC   C4A58650  40.047  35.272   7.141
 4627POPC   C1B58651  39.766  35.247   6.274
 4627POPC   C2B58652  39.714  35.127   6.708
 4627POPC   C3B58653  39.575  35.128   7.146
 4627POPC   C4B58654  39.499  35.201   7.612
 4628POPC   NC358655  43.561  12.554   5.565
 4628POPC   PO458656  43.360  13.146   5.172
 4628POPC   GL158657  43.195  13.052   5.662
 4628POPC   GL258658  43.076  12.712   5.785
 4628POPC   C1A58659  43.230  13.037   6.173
 4628POPC   D2A58660  43.025  13.082   6.629
 4628POPC   C3A58661  43.158  13.077   7.078
 4628POPC   C4A58662  43.380  12.807   7.326
 4628POPC   C1B58663  42.982  12.443   6.158
 4628POPC   C2B58664  43.057  12.507   6.607
 4628POPC   C3B58665  42.941  12.613   7.026
 4628POPC   C4B58666  42.834  12.362   7.372
 4629POPC   NC358667  42.423   3.049   5.548
 4629POPC   PO458668  42.297   2.392   5.318
 4629POPC   GL158669  42.141   2.630   5.728
 4629POPC   GL258670  41.964   2.970   5.846
 4629POPC   C1A58671  42.310   2.673   6.159
 4629POPC   D2A58672  42.082   2.612   6.585
 4629POPC   C3A58673  42.364   2.561   6.952
 4629POPC   C4A58674  42.279   2.510   7.405
 4629POPC   C1B58675  42.090   3.086   6.316
 4629POPC   C2B58676  42.363   3.037   6.729
 4629POPC   C3B58677  42.338   2.998   7.216
 4629POPC   C4B58678  42.517   2.959   7.657
 4630POPC   NC358679   8.612  22.342   5.378
 4630POPC   PO458680   9.295  22.409   5.442
 4630POPC   GL158681   9.148  22.101   5.771
 4630POPC   GL258682   8.796  21.982   5.760
 4630POPC   C1A58683   9.125  22.129   6.223
 4630POPC   D2A58684   9.048  22.412   6.570
 4630POPC   C3A58685   9.236  22.259   6.925
 4630POPC   C4A58686   9.188  22.092   7.327
 4630POPC   C1B58687   8.628  22.023   6.179
 4630POPC   C2B58688   8.554  22.282   6.534
 4630POPC   C3B58689   8.719  22.289   6.947
 4630POPC   C4B58690   8.641  22.002   7.233
 4631POPC   NC358691  42.151  12.304   5.081
 4631POPC   PO458692  41.551  12.191   5.414
 4631POPC   GL158693  41.661  12.036   5.814
 4631POPC   GL258694  41.977  11.823   5.805
 4631POPC   C1A58695  41.517  12.177   6.222
 4631POPC   D2A58696  41.335  11.913   6.561
 4631POPC   C3A58697  41.462  12.029   6.962
 4631POPC   C4A58698  41.231  12.098   7.333
 4631POPC   C1B58699  42.016  12.083   6.182
 4631POPC   C2B58700  41.851  12.111   6.592
 4631POPC   C3B58701  41.992  11.976   6.972
 4631POPC   C4B58702  41.851  12.214   7.269
 4632POPC   NC358703  27.855  20.973   5.068
 4632POPC   PO458704  28.283  20.550   5.390
 4632POPC   GL158705  28.264  20.559   5.845
 4632POPC   GL258706  28.600  20.727   5.833
 4632POPC   C1A58707  28.447  20.535   6.277
 4632POPC   D2A58708  28.656  20.413   6.668
 4632POPC   C3A58709  28.367  20.568   6.940
 4632POPC   C4A58710  28.141  20.428   7.230
 4632POPC   C1B58711  28.609  21.005   6.206
 4632POPC   C2B58712  28.623  20.909   6.639
 4632POPC   C3B58713  28.525  21.071   7.044
 4632POPC   C4B58714  28.662  20.907   7.452
 4633POPC   NC358715   9.422  35.385   5.487
 4633POPC   PO458716   8.763  35.187   5.310
 4633POPC   GL158717   8.941  35.409   5.668
 4633POPC   GL258718   8.712  35.224   5.888
 4633POPC   C1A58719   9.134  35.444   6.091
 4633POPC   D2A58720   8.883  35.382   6.468
 4633POPC   C3A58721   9.044  35.403   6.885
 4633POPC   C4A58722   8.928  35.540   7.267
 4633POPC   C1B58723   8.536  35.044   6.262
 4633POPC   C2B58724   8.663  34.961   6.695
 4633POPC   C3B58725   8.736  35.073   7.125
 4633POPC   C4B58726   8.605  34.970   7.545
 4634POPC   NC358727  26.709   2.219   5.520
 4634POPC   PO458728  26.872   1.580   5.322
 4634POPC   GL158729  26.897   1.816   5.740
 4634POPC   GL258730  26.609   1.890   5.894
 4634POPC   C1A58731  27.045   1.900   6.174
 4634POPC   D2A58732  26.901   2.001   6.581
 4634POPC   C3A58733  27.101   1.978   6.973
 4634POPC   C4A58734  26.933   2.136   7.349
 4634POPC   C1B58735  26.543   2.138   6.222
 4634POPC   C2B58736  26.376   2.036   6.599
 4634POPC   C3B58737  26.581   2.127   6.979
 4634POPC   C4B58738  26.533   2.496   7.192
 4635POPC   NC358739  17.024  28.600   5.359
 4635POPC   PO458740  16.406  28.315   5.297
 4635POPC   GL158741  16.696  28.295   5.654
 4635POPC   GL258742  16.578  28.080   5.881
 4635POPC   C1A58743  16.771  28.525   6.073
 4635POPC   D2A58744  16.949  28.529   6.497
 4635POPC   C3A58745  16.879  28.209   6.818
 4635POPC   C4A58746  16.861  28.434   7.216
 4635POPC   C1B58747  16.510  28.117   6.321
 4635POPC   C2B58748  16.192  28.021   6.630
 4635POPC   C3B58749  16.210  27.959   7.068
 4635POPC   C4B58750  16.545  28.052   7.372
 4636POPC   NC358751  40.097  16.309   5.389
 4636POPC   PO458752  39.884  16.976   5.543
 4636POPC   GL158753  39.966  16.735   5.873
 4636POPC   GL258754  40.253  16.517   5.865
 4636POPC   C1A58755  39.752  16.758   6.249
 4636POPC   D2A58756  39.591  17.040   6.545
 4636POPC   C3A58757  39.654  16.846   6.945
 4636POPC   C4A58758  39.901  16.448   7.009
 4636POPC   C1B58759  40.279  16.766   6.263
 4636POPC   C2B58760  40.063  16.853   6.649
 4636POPC   C3B58761  40.167  16.916   7.083
 4636POPC   C4B58762  40.322  16.765   7.467
 4637POPC   NC358763  22.835  29.307   5.380
 4637POPC   PO458764  23.227  28.734   5.643
 4637POPC   GL158765  22.869  28.889   5.886
 4637POPC   GL258766  22.847  29.210   5.876
 4637POPC   C1A58767  22.816  28.998   6.356
 4637POPC   D2A58768  22.506  29.055   6.711
 4637POPC   C3A58769  22.714  28.963   7.105
 4637POPC   C4A58770  23.165  28.934   7.175
 4637POPC   C1B58771  23.090  29.444   6.124
 4637POPC   C2B58772  22.992  29.519   6.532
 4637POPC   C3B58773  22.979  29.317   6.871
 4637POPC   C4B58774  22.917  29.384   7.306
 4638POPC   NC358775  33.367  40.662   5.645
 4638POPC   PO458776  32.864  40.990   5.334
 4638POPC   GL158777  32.888  40.786   5.749
 4638POPC   GL258778  32.816  40.453   5.679
 4638POPC   C1A58779  33.068  40.850   6.187
 4638POPC   D2A58780  32.892  40.950   6.555
 4638POPC   C3A58781  33.088  40.857   6.909
 4638POPC   C4A58782  32.787  40.970   7.231
 4638POPC   C1B58783  32.915  40.361   6.120
 4638POPC   C2B58784  32.888  40.431   6.581
 4638POPC   C3B58785  32.752  40.511   7.014
 4638POPC   C4B58786  32.971  40.528   7.397
 4639POPC   NC358787  37.547   3.702   5.398
 4639POPC   PO458788  37.861   3.030   5.397
 4639POPC   GL158789  37.599   3.230   5.738
 4639POPC   GL258790  37.671   3.583   5.877
 4639POPC   C1A58791  37.521   3.212   6.195
 4639POPC   D2A58792  37.716   3.451   6.531
 4639POPC   C3A58793  37.735   3.287   6.956
 4639POPC   C4A58794  37.521   3.343   7.339
 4639POPC   C1B58795  37.853   3.879   6.183
 4639POPC   C2B58796  37.984   3.977   6.568
 4639POPC   C3B58797  37.833   3.807   6.894
 4639POPC   C4B58798  37.649   3.839   7.233
 4640POPC   NC358799  15.873  44.344   5.431
 4640POPC   PO458800  16.026  44.991   5.381
 4640POPC   GL158801  16.074  44.747   5.795
 4640POPC   GL258802  15.764  44.577   5.880
 4640POPC   C1A58803  16.169  44.602   6.278
 4640POPC   D2A58804  16.167  44.301   6.624
 4640POPC   C3A58805  15.959  44.453   6.961
 4640POPC   C4A58806  16.063  44.657   7.310
 4640POPC   C1B58807  15.763  44.896   6.186
 4640POPC   C2B58808  15.618  44.903   6.600
 4640POPC   C3B58809  15.767  44.960   7.012
 4640POPC   C4B58810  15.657  44.905   7.458
 4641POPC   NC358811  10.338  43.747   5.455
 4641POPC   PO458812  10.109  44.421   5.526
 4641POPC   GL158813  10.390  44.145   5.860
 4641POPC   GL258814  10.540  43.782   5.916
 4641POPC   C1A58815  10.737  44.144   6.201
 4641POPC   D2A58816  10.520  44.010   6.532
 4641POPC   C3A58817  10.337  44.164   6.927
 4641POPC   C4A58818  10.531  44.088   7.329
 4641POPC   C1B58819  10.902  43.666   6.203
 4641POPC   C2B58820  10.985  43.824   6.622
 4641POPC   C3B58821  10.686  43.760   6.944
 4641POPC   C4B58822  10.660  43.544   7.283
 4642POPC   NC358823   8.263  13.269   5.341
 4642POPC   PO458824   8.063  13.857   5.244
 4642POPC   GL158825   8.223  13.682   5.665
 4642POPC   GL258826   8.138  14.002   5.761
 4642POPC   C1A58827   8.255  13.389   6.078
 4642POPC   D2A58828   7.958  13.249   6.391
 4642POPC   C3A58829   7.937  13.367   6.841
 4642POPC   C4A58830   8.021  13.683   7.136
 4642POPC   C1B58831   8.367  13.880   6.136
 4642POPC   C2B58832   8.280  13.656   6.518
 4642POPC   C3B58833   8.455  13.827   6.858
 4642POPC   C4B58834   8.388  14.039   7.219
 4643POPC   NC358835   9.820   1.256   5.348
 4643POPC   PO458836   9.530   0.633   5.190
 4643POPC   GL158837   9.657   0.888   5.665
 4643POPC   GL258838   9.674   1.282   5.813
 4643POPC   C1A58839   9.818   0.943   6.132
 4643POPC   D2A58840   9.803   1.262   6.507
 4643POPC   C3A58841   9.633   1.184   6.941
 4643POPC   C4A58842   9.966   1.124   7.260
 4643POPC   C1B58843   9.884   1.576   6.100
 4643POPC   C2B58844  10.101   1.665   6.527
 4643POPC   C3B58845   9.981   1.560   6.977
 4643POPC   C4B58846  10.140   1.578   7.454
 4644POPC   NC358847  21.331  22.472   5.456
 4644POPC   PO458848  21.085  21.875   5.338
 4644POPC   GL158849  21.268  22.017   5.782
 4644POPC   GL258850  21.437  22.330   5.922
 4644POPC   C1A58851  21.513  21.901   6.187
 4644POPC   D2A58852  21.487  21.716   6.616
 4644POPC   C3A58853  21.584  21.994   6.947
 4644POPC   C4A58854  21.293  21.943   7.242
 4644POPC   C1B58855  21.606  22.630   6.233
 4644POPC   C2B58856  21.758  22.657   6.655
 4644POPC   C3B58857  21.607  22.523   7.040
 4644POPC   C4B58858  21.480  22.369   7.412
 4645POPC   NC358859  31.430  22.589   5.347
 4645POPC   PO458860  31.157  21.973   5.363
 4645POPC   GL158861  31.350  22.013   5.791
 4645POPC   GL258862  31.378  22.382   5.813
 4645POPC   C1A58863  31.272  22.061   6.259
 4645POPC   D2A58864  31.098  21.824   6.650
 4645POPC   C3A58865  31.174  21.952   7.099
 4645POPC   C4A58866  31.551  22.153   7.297
 4645POPC   C1B58867  31.599  22.517   6.152
 4645POPC   C2B58868  31.606  22.342   6.563
 4645POPC   C3B58869  31.611  22.551   6.957
 4645POPC   C4B58870  31.817  22.753   7.305
 4646POPC   NC358871  33.855  15.892   5.193
 4646POPC   PO458872  33.243  16.045   5.417
 4646POPC   GL158873  33.555  15.857   5.666
 4646POPC   GL258874  33.891  16.016   5.711
 4646POPC   C1A58875  33.613  15.916   6.128
 4646POPC   D2A58876  33.707  16.142   6.516
 4646POPC   C3A58877  33.530  15.984   6.897
 4646POPC   C4A58878  33.659  16.115   7.317
 4646POPC   C1B58879  34.083  16.177   6.117
 4646POPC   C2B58880  34.213  16.056   6.549
 4646POPC   C3B58881  34.023  16.096   6.953
 4646POPC   C4B58882  34.120  15.889   7.358
 4647POPC   NC358883  11.957  25.721   5.315
 4647POPC   PO458884  12.218  25.105   5.479
 4647POPC   GL158885  12.344  25.437   5.769
 4647POPC   GL258886  12.032  25.497   5.789
 4647POPC   C1A58887  12.330  25.427   6.230
 4647POPC   D2A58888  12.214  25.112   6.535
 4647POPC   C3A58889  12.126  25.263   6.959
 4647POPC   C4A58890  12.036  24.992   7.287
 4647POPC   C1B58891  11.855  25.254   6.153
 4647POPC   C2B58892  11.733  25.277   6.608
 4647POPC   C3B58893  11.596  25.142   7.029
 4647POPC   C4B58894  11.744  25.402   7.356
 4648POPC   NC358895  30.204   7.533   5.463
 4648POPC   PO458896  29.645   7.141   5.604
 4648POPC   GL158897  29.890   7.404   5.877
 4648POPC   GL258898  30.243   7.239   5.885
 4648POPC   C1A58899  29.751   7.586   6.294
 4648POPC   D2A58900  29.706   7.788   6.719
 4648POPC   C3A58901  29.687   7.458   7.043
 4648POPC   C4A58902  29.857   7.379   7.465
 4648POPC   C1B58903  30.151   7.253   6.320
 4648POPC   C2B58904  30.146   7.494   6.705
 4648POPC   C3B58905  30.225   7.357   7.115
 4648POPC   C4B58906  30.253   7.040   7.453
 4649POPC   NC358907  27.536  31.918   5.618
 4649POPC   PO458908  27.777  31.246   5.448
 4649POPC   GL158909  27.512  31.321   5.823
 4649POPC   GL258910  27.755  31.550   5.906
 4649POPC   C1A58911  27.376  31.508   6.261
 4649POPC   D2A58912  27.319  31.519   6.729
 4649POPC   C3A58913  27.328  31.299   7.127
 4649POPC   C4A58914  27.271  31.468   7.593
 4649POPC   C1B58915  28.024  31.539   6.245
 4649POPC   C2B58916  28.093  31.422   6.652
 4649POPC   C3B58917  27.802  31.400   6.981
 4649POPC   C4B58918  27.656  31.661   7.295
 4650POPC   NC358919  30.413   5.551   5.084
 4650POPC   PO458920  30.936   5.878   5.453
 4650POPC   GL158921  30.798   5.853   5.855
 4650POPC   GL258922  30.538   6.094   5.799
 4650POPC   C1A58923  30.822   6.013   6.262
 4650POPC   D2A58924  30.575   5.954   6.614
 4650POPC   C3A58925  30.694   6.066   7.011
 4650POPC   C4A58926  30.923   5.907   7.333
 4650POPC   C1B58927  30.305   6.053   6.173
 4650POPC   C2B58928  30.091   5.760   6.441
 4650POPC   C3B58929  30.284   5.617   6.831
 4650POPC   C4B58930  30.425   5.698   7.256
 4651POPC   NC358931  16.874  35.612   5.546
 4651POPC   PO458932  16.981  34.899   5.592
 4651POPC   GL158933  17.104  35.277   5.899
 4651POPC   GL258934  17.115  35.667   5.975
 4651POPC   C1A58935  16.925  35.348   6.334
 4651POPC   D2A58936  16.574  35.244   6.623
 4651POPC   C3A58937  16.727  35.100   7.011
 4651POPC   C4A58938  16.479  35.022   7.364
 4651POPC   C1B58939  16.782  35.832   6.239
 4651POPC   C2B58940  16.708  35.769   6.674
 4651POPC   C3B58941  16.605  35.603   7.053
 4651POPC   C4B58942  16.800  35.423   7.401
 4652POPC   NC358943  12.744  42.031   5.298
 4652POPC   PO458944  12.784  41.408   5.443
 4652POPC   GL158945  13.057  41.482   5.857
 4652POPC   GL258946  13.123  41.879   5.887
 4652POPC   C1A58947  13.193  41.573   6.291
 4652POPC   D2A58948  13.008  41.658   6.668
 4652POPC   C3A58949  13.071  41.558   7.086
 4652POPC   C4A58950  13.163  41.972   7.201
 4652POPC   C1B58951  12.790  41.870   6.188
 4652POPC   C2B58952  12.520  41.671   6.512
 4652POPC   C3B58953  12.581  41.498   6.913
 4652POPC   C4B58954  12.704  41.276   7.282
 4653POPC   NC358955  22.760  11.182   5.396
 4653POPC   PO458956  23.351  11.558   5.570
 4653POPC   GL158957  23.101  11.286   5.839
 4653POPC   GL258958  23.250  10.949   5.930
 4653POPC   C1A58959  22.934  11.479   6.240
 4653POPC   D2A58960  23.049  11.773   6.594
 4653POPC   C3A58961  23.003  11.584   7.024
 4653POPC   C4A58962  22.794  11.408   7.354
 4653POPC   C1B58963  22.861  10.957   6.159
 4653POPC   C2B58964  22.822  11.088   6.579
 4653POPC   C3B58965  22.938  11.062   7.000
 4653POPC   C4B58966  22.607  10.944   7.287
 4654POPC   NC358967  26.915  20.935   5.407
 4654POPC   PO458968  27.010  21.549   5.333
 4654POPC   GL158969  26.737  21.655   5.674
 4654POPC   GL258970  26.727  21.287   5.752
 4654POPC   C1A58971  26.614  21.585   6.133
 4654POPC   D2A58972  26.715  21.443   6.522
 4654POPC   C3A58973  26.629  21.567   6.966
 4654POPC   C4A58974  26.824  21.651   7.352
 4654POPC   C1B58975  27.053  21.287   6.079
 4654POPC   C2B58976  27.143  21.139   6.511
 4654POPC   C3B58977  27.083  21.344   6.875
 4654POPC   C4B58978  27.232  21.383   7.297
 4655POPC   NC358979  41.888  19.811   5.432
 4655POPC   PO458980  42.576  19.749   5.355
 4655POPC   GL158981  42.363  19.749   5.754
 4655POPC   GL258982  42.653  19.532   5.814
 4655POPC   C1A58983  42.153  19.759   6.181
 4655POPC   D2A58984  42.169  19.978   6.610
 4655POPC   C3A58985  42.147  19.765   7.009
 4655POPC   C4A58986  42.231  19.840   7.435
 4655POPC   C1B58987  42.770  19.863   6.068
 4655POPC   C2B58988  42.601  19.746   6.435
 4655POPC   C3B58989  42.647  19.748   6.856
 4655POPC   C4B58990  42.701  19.729   7.286
 4656POPC   NC358991  16.127  10.578   5.378
 4656POPC   PO458992  15.548  10.080   5.417
 4656POPC   GL158993  15.802  10.167   5.794
 4656POPC   GL258994  15.833  10.522   5.787
 4656POPC   C1A58995  16.033  10.205   6.237
 4656POPC   D2A58996  16.364  10.117   6.547
 4656POPC   C3A58997  16.220  10.256   6.949
 4656POPC   C4A58998  15.889  10.448   7.180
 4656POPC   C1B58999  16.050  10.705   6.130
 4656POPC   C2B59000  16.275  10.638   6.498
 4656POPC   C3B59001  16.186  10.779   6.909
 4656POPC   C4B59002  16.011  10.897   7.349
 4657POPC   NC359003   8.790  25.132   5.387
 4657POPC   PO459004   9.037  25.732   5.165
 4657POPC   GL159005   9.087  25.503   5.610
 4657POPC   GL259006   8.782  25.511   5.817
 4657POPC   C1A59007   9.176  25.368   6.084
 4657POPC   D2A59008   9.326  25.550   6.456
 4657POPC   C3A59009   9.247  25.458   6.839
 4657POPC   C4A59010   9.182  25.429   7.245
 4657POPC   C1B59011   8.692  25.218   6.149
 4657POPC   C2B59012   8.846  25.238   6.574
 4657POPC   C3B59013   8.949  25.023   6.979
 4657POPC   C4B59014   8.874  25.068   7.410
 4658POPC   NC359015  44.929  16.318   5.400
 4658POPC   PO459016  44.622  16.933   5.217
 4658POPC   GL159017  44.585  16.683   5.674
 4658POPC   GL259018  44.907  16.603   5.822
 4658POPC   C1A59019  44.521  16.591   6.163
 4658POPC   D2A59020  44.583  16.373   6.593
 4658POPC   C3A59021  44.420  16.619   6.906
 4658POPC   C4A59022  44.602  16.815   7.214
 4658POPC   C1B59023   0.027  16.746   6.235
 4658POPC   C2B59024  44.869  16.820   6.635
 4658POPC   C3B59025  44.977  16.555   6.971
 4658POPC   C4B59026   0.052  16.625   7.416
 4659POPC   NC359027  16.986  19.388   5.333
 4659POPC   PO459028  16.584  18.806   5.411
 4659POPC   GL159029  16.757  18.779   5.808
 4659POPC   GL259030  17.060  18.973   5.870
 4659POPC   C1A59031  16.597  18.866   6.191
 4659POPC   D2A59032  16.646  19.003   6.602
 4659POPC   C3A59033  16.784  18.754   6.949
 4659POPC   C4A59034  16.846  18.729   7.413
 4659POPC   C1B59035  16.898  19.283   6.200
 4659POPC   C2B59036  16.900  19.436   6.642
 4659POPC   C3B59037  17.010  19.292   7.075
 4659POPC   C4B59038  17.309  19.263   7.442
 4660POPC   NC359039  38.956  18.704   5.434
 4660POPC   PO459040  39.447  18.172   5.387
 4660POPC   GL159041  39.246  18.306   5.741
 4660POPC   GL259042  39.275  18.623   5.816
 4660POPC   C1A59043  39.157  18.081   6.125
 4660POPC   D2A59044  39.363  18.047   6.521
 4660POPC   C3A59045  39.209  18.156   6.917
 4660POPC   C4A59046  39.132  17.879   7.242
 4660POPC   C1B59047  39.018  18.559   6.168
 4660POPC   C2B59048  39.100  18.547   6.576
 4660POPC   C3B59049  39.091  18.657   6.992
 4660POPC   C4B59050  39.285  18.536   7.345
 4661POPC   NC359051  37.935  34.907   5.447
 4661POPC   PO459052  37.503  34.398   5.347
 4661POPC   GL159053  37.899  34.454   5.661
 4661POPC   GL259054  37.659  34.623   5.821
 4661POPC   C1A59055  38.095  34.726   6.047
 4661POPC   D2A59056  37.878  34.874   6.406
 4661POPC   C3A59057  37.856  34.710   6.820
 4661POPC   C4A59058  37.703  34.936   7.177
 4661POPC   C1B59059  37.685  34.421   6.161
 4661POPC   C2B59060  37.506  34.401   6.546
 4661POPC   C3B59061  37.635  34.228   6.898
 4661POPC   C4B59062  37.767  34.425   7.248
 4662POPC   NC359063  27.663   2.472   5.360
 4662POPC   PO459064  27.725   3.127   5.512
 4662POPC   GL159065  27.570   3.017   5.880
 4662POPC   GL259066  27.208   3.095   5.905
 4662POPC   C1A59067  27.768   2.766   6.201
 4662POPC   D2A59068  27.781   2.449   6.512
 4662POPC   C3A59069  27.943   2.608   6.893
 4662POPC   C4A59070  27.832   2.519   7.296
 4662POPC   C1B59071  27.276   2.887   6.306
 4662POPC   C2B59072  27.489   2.817   6.720
 4662POPC   C3B59073  27.499   2.912   7.173
 4662POPC   C4B59074  27.244   2.883   7.626
 4663POPC   NC359075  26.076  29.276   5.301
 4663POPC   PO459076  25.637  28.824   5.422
 4663POPC   GL159077  25.927  28.964   5.776
 4663POPC   GL259078  26.056  29.308   5.811
 4663POPC   C1A59079  26.004  28.910   6.222
 4663POPC   D2A59080  26.194  28.840   6.647
 4663POPC   C3A59081  26.118  29.098   7.021
 4663POPC   C4A59082  25.728  29.109   7.254
 4663POPC   C1B59083  26.312  29.338   6.184
 4663POPC   C2B59084  26.218  29.394   6.608
 4663POPC   C3B59085  26.240  29.627   6.960
 4663POPC   C4B59086  26.013  29.598   7.313
 4664POPC   NC359087   4.148  31.004   5.527
 4664POPC   PO459088   4.680  30.680   5.527
 4664POPC   GL159089   4.410  30.493   5.827
 4664POPC   GL259090   4.075  30.328   5.932
 4664POPC   C1A59091   4.381  30.593   6.221
 4664POPC   D2A59092   4.271  30.746   6.572
 4664POPC   C3A59093   4.407  30.562   6.908
 4664POPC   C4A59094   4.359  30.466   7.285
 4664POPC   C1B59095   3.875  30.452   6.328
 4664POPC   C2B59096   3.914  30.459   6.809
 4664POPC   C3B59097   3.800  30.650   7.190
 4664POPC   C4B59098   3.943  30.654   7.601
 4665POPC   NC359099  42.450  40.097   5.322
 4665POPC   PO459100  41.851  40.056   5.312
 4665POPC   GL159101  41.967  40.013   5.780
 4665POPC   GL259102  42.316  39.969   5.793
 4665POPC   C1A59103  42.081  39.940   6.229
 4665POPC   D2A59104  42.333  39.944   6.590
 4665POPC   C3A59105  42.058  39.785   6.894
 4665POPC   C4A59106  41.945  40.067   7.213
 4665POPC   C1B59107  42.606  40.113   6.110
 4665POPC   C2B59108  42.584  40.398   6.462
 4665POPC   C3B59109  42.502  40.339   6.888
 4665POPC   C4B59110  42.466  39.983   7.119
 4666POPC   NC359111  44.220  32.541   5.422
 4666POPC   PO459112  44.869  32.280   5.486
 4666POPC   GL159113  44.587  32.244   5.823
 4666POPC   GL259114  44.250  32.049   5.812
 4666POPC   C1A59115  44.727  32.299   6.257
 4666POPC   D2A59116  44.559  32.213   6.651
 4666POPC   C3A59117  44.695  32.504   6.958
 4666POPC   C4A59118  44.920  32.298   7.270
 4666POPC   C1B59119  44.483  31.853   6.178
 4666POPC   C2B59120  44.834  31.751   6.501
 4666POPC   C3B59121  44.852  31.863   6.963
 4666POPC   C4B59122  44.482  32.076   7.162
 4667POPC   NC359123  15.241  35.853   5.333
 4667POPC   PO459124  15.171  36.490   5.487
 4667POPC   GL159125  15.166  36.117   5.761
 4667POPC   GL259126  14.857  35.926   5.789
 4667POPC   C1A59127  15.237  35.761   6.065
 4667POPC   D2A59128  15.370  35.712   6.485
 4667POPC   C3A59129  15.282  35.863   6.955
 4667POPC   C4A59130  15.176  35.869   7.428
 4667POPC   C1B59131  14.979  36.165   6.235
 4667POPC   C2B59132  14.977  36.484   6.604
 4667POPC   C3B59133  14.796  36.544   6.998
 4667POPC   C4B59134  15.011  36.341   7.326
 4668POPC   NC359135  30.630  44.353   5.495
 4668POPC   PO459136  30.477  43.757   5.591
 4668POPC   GL159137  30.847  43.978   5.822
 4668POPC   GL259138  30.689  44.247   5.979
 4668POPC   C1A59139  31.024  43.936   6.283
 4668POPC   D2A59140  31.076  43.903   6.765
 4668POPC   C3A59141  30.757  44.091   7.069
 4668POPC   C4A59142  30.762  43.947   7.532
 4668POPC   C1B59143  30.516  43.921   6.217
 4668POPC   C2B59144  30.582  43.920   6.604
 4668POPC   C3B59145  30.454  43.703   6.899
 4668POPC   C4B59146  30.717  43.541   7.217
 4669POPC   NC359147  21.956  42.587   5.291
 4669POPC   PO459148  22.594  42.248   5.435
 4669POPC   GL159149  22.226  42.344   5.742
 4669POPC   GL259150  22.005  42.055   5.820
 4669POPC   C1A59151  22.089  42.416   6.196
 4669POPC   D2A59152  22.307  42.433   6.613
 4669POPC   C3A59153  22.173  42.662   6.986
 4669POPC   C4A59154  21.947  42.529   7.377
 4669POPC   C1B59155  22.237  41.940   6.207
 4669POPC   C2B59156  21.953  42.031   6.564
 4669POPC   C3B59157  21.905  42.223   6.956
 4669POPC   C4B59158  22.178  42.077   7.284
 4670POPC   NC359159  42.514   6.908   5.386
 4670POPC   PO459160  42.252   6.282   5.505
 4670POPC   GL159161  42.220   6.589   5.824
 4670POPC   GL259162  41.917   6.748   5.841
 4670POPC   C1A59163  42.381   6.486   6.238
 4670POPC   D2A59164  42.620   6.522   6.596
 4670POPC   C3A59165  42.493   6.509   6.986
 4670POPC   C4A59166  42.660   6.847   7.156
 4670POPC   C1B59167  42.096   6.923   6.218
 4670POPC   C2B59168  42.177   6.783   6.635
 4670POPC   C3B59169  42.165   6.903   7.048
 4670POPC   C4B59170  42.039   6.754   7.463
 4671POPC   NC359171  24.069  31.607   5.228
 4671POPC   PO459172  23.439  31.173   5.357
 4671POPC   GL159173  23.628  31.437   5.716
 4671POPC   GL259174  23.579  31.778   5.718
 4671POPC   C1A59175  23.778  31.302   6.166
 4671POPC   D2A59176  23.530  31.198   6.542
 4671POPC   C3A59177  23.655  31.328   6.954
 4671POPC   C4A59178  23.999  31.437   7.222
 4671POPC   C1B59179  23.445  31.690   6.157
 4671POPC   C2B59180  23.700  31.678   6.547
 4671POPC   C3B59181  23.728  31.820   6.971
 4671POPC   C4B59182  23.464  31.700   7.288
 4672POPC   NC359183  29.128  38.329   5.247
 4672POPC   PO459184  29.285  37.671   5.426
 4672POPC   GL159185  29.249  37.591   5.872
 4672POPC   GL259186  29.485  37.357   5.813
 4672POPC   C1A59187  29.022  37.585   6.271
 4672POPC   D2A59188  28.706  37.804   6.554
 4672POPC   C3A59189  28.867  37.798   6.970
 4672POPC   C4A59190  29.241  37.769   7.194
 4672POPC   C1B59191  29.462  37.241   6.230
 4672POPC   C2B59192  29.372  37.370   6.613
 4672POPC   C3B59193  29.208  37.305   7.000
 4672POPC   C4B59194  29.390  37.330   7.412
 4673POPC   NC359195  23.008   1.759   5.413
 4673POPC   PO459196  23.142   2.411   5.536
 4673POPC   GL159197  22.882   2.144   5.790
 4673POPC   GL259198  22.940   1.808   5.912
 4673POPC   C1A59199  22.703   2.120   6.204
 4673POPC   D2A59200  22.754   2.269   6.593
 4673POPC   C3A59201  22.632   2.092   6.983
 4673POPC   C4A59202  22.573   1.730   7.234
 4673POPC   C1B59203  23.198   2.053   6.230
 4673POPC   C2B59204  23.323   1.998   6.654
 4673POPC   C3B59205  23.153   2.042   7.088
 4673POPC   C4B59206  23.327   2.151   7.495
 4674POPC   NC359207  42.470  16.665   5.301
 4674POPC   PO459208  42.016  16.509   5.762
 4674POPC   GL159209  42.294  16.816   5.852
 4674POPC   GL259210  42.611  16.754   5.777
 4674POPC   C1A59211  42.287  16.840   6.310
 4674POPC   D2A59212  42.365  16.583   6.688
 4674POPC   C3A59213  42.235  16.724   7.136
 4674POPC   C4A59214  42.103  16.493   7.531
 4674POPC   C1B59215  42.729  16.983   6.113
 4674POPC   C2B59216  42.738  16.918   6.535
 4674POPC   C3B59217  42.508  17.075   6.849
 4674POPC   C4B59218  42.619  17.089   7.252
 4675POPC   NC359219  20.610  20.286   5.043
 4675POPC   PO459220  20.638  20.785   5.338
 4675POPC   GL159221  20.702  20.503   5.694
 4675POPC   GL259222  20.428  20.269   5.795
 4675POPC   C1A59223  20.788  20.352   6.131
 4675POPC   D2A59224  20.580  20.477   6.525
 4675POPC   C3A59225  20.742  20.341   6.887
 4675POPC   C4A59226  20.634  20.643   7.165
 4675POPC   C1B59227  20.257  20.308   6.178
 4675POPC   C2B59228  20.144  20.176   6.583
 4675POPC   C3B59229  20.216  20.300   7.002
 4675POPC   C4B59230  20.281  20.399   7.458
 4676POPC   NC359231  12.458  12.408   5.407
 4676POPC   PO459232  12.794  11.782   5.500
 4676POPC   GL159233  12.668  12.078   5.745
 4676POPC   GL259234  12.922  12.296   5.618
 4676POPC   C1A59235  12.765  11.987   6.161
 4676POPC   D2A59236  12.932  11.894   6.524
 4676POPC   C3A59237  12.630  12.051   6.765
 4676POPC   C4A59238  12.630  11.984   7.161
 4676POPC   C1B59239  13.040  12.415   6.037
 4676POPC   C2B59240  12.955  12.409   6.500
 4676POPC   C3B59241  13.078  12.213   6.929
 4676POPC   C4B59242  12.974  12.294   7.367
 4677POPC   NC359243   4.049  21.455   5.628
 4677POPC   PO459244   3.425  21.322   5.442
 4677POPC   GL159245   3.333  21.183   5.869
 4677POPC   GL259246   3.688  21.185   6.000
 4677POPC   C1A59247   3.311  21.430   6.273
 4677POPC   D2A59248   3.525  21.378   6.659
 4677POPC   C3A59249   3.504  21.441   7.092
 4677POPC   C4A59250   3.889  21.268   7.286
 4677POPC   C1B59251   3.932  21.499   6.276
 4677POPC   C2B59252   4.048  21.641   6.696
 4677POPC   C3B59253   3.881  21.780   7.096
 4677POPC   C4B59254   3.838  21.707   7.545
 4678POPC   NC359255  15.995   1.908   5.539
 4678POPC   PO459256  15.303   1.622   5.414
 4678POPC   GL159257  15.561   1.667   5.765
 4678POPC   GL259258  15.537   2.040   5.816
 4678POPC   C1A59259  15.775   1.669   6.172
 4678POPC   D2A59260  15.742   1.868   6.578
 4678POPC   C3A59261  16.104   1.941   6.854
 4678POPC   C4A59262  15.814   1.856   7.190
 4678POPC   C1B59263  15.794   2.203   6.159
 4678POPC   C2B59264  15.965   2.353   6.541
 4678POPC   C3B59265  15.792   2.315   6.962
 4678POPC   C4B59266  16.107   2.377   7.223
 4679POPC   NC359267  35.597   2.614   5.310
 4679POPC   PO459268  35.125   3.116   5.126
 4679POPC   GL159269  35.109   2.819   5.602
 4679POPC   GL259270  35.473   2.681   5.796
 4679POPC   C1A59271  35.116   2.765   6.107
 4679POPC   D2A59272  35.395   2.609   6.471
 4679POPC   C3A59273  35.180   2.544   6.878
 4679POPC   C4A59274  35.200   2.804   7.223
 4679POPC   C1B59275  35.667   2.921   6.160
 4679POPC   C2B59276  35.671   3.064   6.602
 4679POPC   C3B59277  35.643   2.812   6.959
 4679POPC   C4B59278  35.704   3.007   7.331
 4680POPC   NC359279  33.782  30.515   5.524
 4680POPC   PO459280  34.198  31.095   5.391
 4680POPC   GL159281  33.946  30.934   5.790
 4680POPC   GL259282  33.595  30.785   5.941
 4680POPC   C1A59283  34.001  30.735   6.209
 4680POPC   D2A59284  33.701  30.479   6.443
 4680POPC   C3A59285  33.732  30.516   6.898
 4680POPC   C4A59286  33.825  30.827   7.226
 4680POPC   C1B59287  33.617  31.071   6.276
 4680POPC   C2B59288  33.720  31.026   6.713
 4680POPC   C3B59289  33.412  31.065   7.062
 4680POPC   C4B59290  33.400  30.973   7.516
 4681POPC   NC359291  38.994  22.841   5.501
 4681POPC   PO459292  39.630  23.216   5.479
 4681POPC   GL159293  39.337  23.084   5.813
 4681POPC   GL259294  39.004  23.291   5.764
 4681POPC   C1A59295  39.387  22.808   6.204
 4681POPC   D2A59296  39.504  22.485   6.536
 4681POPC   C3A59297  39.370  22.607   6.957
 4681POPC   C4A59298  39.189  22.710   7.354
 4681POPC   C1B59299  38.976  23.143   6.187
 4681POPC   C2B59300  39.086  22.993   6.600
 4681POPC   C3B59301  39.015  23.157   7.007
 4681POPC   C4B59302  39.278  23.294   7.289
 4682POPC   NC359303  21.821  19.356   5.512
 4682POPC   PO459304  22.051  20.008   5.482
 4682POPC   GL159305  22.192  20.020   5.892
 4682POPC   GL259306  21.957  19.752   5.936
 4682POPC   C1A59307  22.175  19.984   6.357
 4682POPC   D2A59308  21.935  19.948   6.717
 4682POPC   C3A59309  22.262  19.772   6.964
 4682POPC   C4A59310  22.412  19.544   7.332
 4682POPC   C1B59311  21.817  19.615   6.321
 4682POPC   C2B59312  21.864  19.395   6.707
 4682POPC   C3B59313  21.746  19.589   7.053
 4682POPC   C4B59314  21.950  19.762   7.385
 4683POPC   NC359315  41.836  31.399   5.575
 4683POPC   PO459316  41.576  31.968   5.296
 4683POPC   GL159317  41.631  31.864   5.742
 4683POPC   GL259318  41.358  31.721   5.862
 4683POPC   C1A59319  41.775  31.793   6.207
 4683POPC   D2A59320  41.590  31.629   6.611
 4683POPC   C3A59321  41.504  31.713   7.047
 4683POPC   C4A59322  41.350  31.533   7.429
 4683POPC   C1B59323  41.410  31.399   6.184
 4683POPC   C2B59324  41.315  31.116   6.528
 4683POPC   C3B59325  41.273  31.221   6.961
 4683POPC   C4B59326  41.506  31.047   7.275
 4684POPC   NC359327  10.237  20.279   5.185
 4684POPC   PO459328  10.266  20.904   5.398
 4684POPC   GL159329  10.366  20.642   5.760
 4684POPC   GL259330  10.307  20.267   5.728
 4684POPC   C1A59331  10.421  20.748   6.205
 4684POPC   D2A59332  10.242  20.872   6.617
 4684POPC   C3A59333  10.551  20.829   6.931
 4684POPC   C4A59334  10.792  20.808   7.298
 4684POPC   C1B59335  10.402  20.230   6.204
 4684POPC   C2B59336  10.297  20.349   6.671
 4684POPC   C3B59337  10.525  20.322   7.092
 4684POPC   C4B59338  10.927  20.068   7.192
 4685POPC   NC359339  19.281   7.652   5.479
 4685POPC   PO459340  18.856   7.198   5.298
 4685POPC   GL159341  18.842   7.105   5.761
 4685POPC   GL259342  19.222   7.061   5.838
 4685POPC   C1A59343  18.899   7.310   6.182
 4685POPC   D2A59344  19.220   7.458   6.505
 4685POPC   C3A59345  19.079   7.760   6.814
 4685POPC   C4A59346  19.199   7.893   7.217
 4685POPC   C1B59347  19.244   6.936   6.275
 4685POPC   C2B59348  18.956   7.014   6.621
 4685POPC   C3B59349  19.013   7.247   6.980
 4685POPC   C4B59350  19.194   6.982   7.283
 4686POPC   NC359351  36.366   7.082   5.501
 4686POPC   PO459352  35.909   7.451   5.366
 4686POPC   GL159353  36.104   7.497   5.705
 4686POPC   GL259354  35.990   7.197   5.845
 4686POPC   C1A59355  36.087   7.602   6.148
 4686POPC   D2A59356  35.809   7.558   6.494
 4686POPC   C3A59357  35.928   7.697   6.906
 4686POPC   C4A59358  35.785   7.516   7.280
 4686POPC   C1B59359  36.183   7.092   6.212
 4686POPC   C2B59360  35.939   7.026   6.564
 4686POPC   C3B59361  35.699   7.141   6.890
 4686POPC   C4B59362  35.882   6.983   7.271
 4687POPC   NC359363  38.756  39.112   5.524
 4687POPC   PO459364  38.121  39.368   5.511
 4687POPC   GL159365  38.291  39.106   5.813
 4687POPC   GL259366  38.171  39.314   6.054
 4687POPC   C1A59367  38.441  38.822   6.131
 4687POPC   D2A59368  38.564  39.034   6.483
 4687POPC   C3A59369  38.548  38.978   6.905
 4687POPC   C4A59370  38.841  39.176   7.230
 4687POPC   C1B59371  38.527  39.464   6.226
 4687POPC   C2B59372  38.345  39.478   6.615
 4687POPC   C3B59373  38.514  39.499   6.977
 4687POPC   C4B59374  38.563  39.588   7.364
 4688POPC   NC359375  27.255   1.835   5.411
 4688POPC   PO459376  27.879   2.142   5.595
 4688POPC   GL159377  27.488   2.138   5.759
 4688POPC   GL259378  27.460   1.817   5.893
 4688POPC   C1A59379  27.451   2.233   6.186
 4688POPC   D2A59380  27.454   2.037   6.576
 4688POPC   C3A59381  27.499   2.306   6.925
 4688POPC   C4A59382  27.462   2.163   7.332
 4688POPC   C1B59383  27.763   1.776   6.227
 4688POPC   C2B59384  27.796   1.632   6.653
 4688POPC   C3B59385  27.593   1.765   7.022
 4688POPC   C4B59386  27.715   1.754   7.417
 4689POPC   NC359387  32.010  34.650   5.570
 4689POPC   PO459388  32.428  34.171   5.356
 4689POPC   GL159389  32.340  34.327   5.799
 4689POPC   GL259390  32.035  34.316   5.979
 4689POPC   C1A59391  32.419  34.595   6.177
 4689POPC   D2A59392  32.262  34.584   6.576
 4689POPC   C3A59393  32.471  34.686   6.907
 4689POPC   C4A59394  32.619  34.811   7.287
 4689POPC   C1B59395  31.757  34.342   6.314
 4689POPC   C2B59396  31.790  34.462   6.729
 4689POPC   C3B59397  32.114  34.294   6.985
 4689POPC   C4B59398  32.292  34.414   7.355
 4690POPC   NC359399  42.897  36.176   5.296
 4690POPC   PO459400  42.245  35.965   5.434
 4690POPC   GL159401  42.303  36.054   5.838
 4690POPC   GL259402  42.588  36.247   5.832
 4690POPC   C1A59403  42.108  36.040   6.237
 4690POPC   D2A59404  41.918  36.061   6.622
 4690POPC   C3A59405  42.178  36.096   6.971
 4690POPC   C4A59406  42.330  35.791   7.247
 4690POPC   C1B59407  42.655  36.080   6.246
 4690POPC   C2B59408  42.739  35.954   6.686
 4690POPC   C3B59409  42.730  36.183   7.074
 4690POPC   C4B59410  42.415  36.337   7.363
 4691POPC   NC359411  26.881  29.673   5.423
 4691POPC   PO459412  26.488  30.296   5.517
 4691POPC   GL159413  26.648  30.063   5.848
 4691POPC   GL259414  26.967  29.944   5.831
 4691POPC   C1A59415  26.593  29.843   6.236
 4691POPC   D2A59416  26.652  29.628   6.596
 4691POPC   C3A59417  26.716  29.853   6.950
 4691POPC   C4A59418  26.857  29.806   7.337
 4691POPC   C1B59419  27.018  30.140   6.186
 4691POPC   C2B59420  27.031  30.005   6.569
 4691POPC   C3B59421  27.093  30.219   6.925
 4691POPC   C4B59422  27.247  30.175   7.322
 4692POPC   NC359423  33.148   9.508   5.381
 4692POPC   PO459424  32.821  10.191   5.542
 4692POPC   GL159425  32.902   9.781   5.747
 4692POPC   GL259426  33.274   9.744   5.816
 4692POPC   C1A59427  32.945   9.472   6.105
 4692POPC   D2A59428  33.247   9.479   6.480
 4692POPC   C3A59429  33.127   9.421   6.950
 4692POPC   C4A59430  33.321   9.501   7.383
 4692POPC   C1B59431  33.136   9.936   6.198
 4692POPC   C2B59432  33.086   9.973   6.653
 4692POPC   C3B59433  32.849   9.896   7.046
 4692POPC   C4B59434  32.970   9.869   7.480
 4693POPC   NC359435  36.427  40.610   5.598
 4693POPC   PO459436  36.033  40.045   5.389
 4693POPC   GL159437  36.111  40.260   5.780
 4693POPC   GL259438  36.378  40.049   5.898
 4693POPC   C1A59439  36.218  40.411   6.228
 4693POPC   D2A59440  36.071  40.319   6.651
 4693POPC   C3A59441  36.362  40.369   6.995
 4693POPC   C4A59442  36.337  40.233   7.402
 4693POPC   C1B59443  36.009  39.955   6.203
 4693POPC   C2B59444  36.016  39.793   6.638
 4693POPC   C3B59445  36.131  39.899   7.051
 4693POPC   C4B59446  36.379  39.707   7.358
 4694POPC   NC359447   7.645  33.085   5.384
 4694POPC   PO459448   7.237  32.540   5.516
 4694POPC   GL159449   7.300  32.929   5.759
 4694POPC   GL259450   7.652  32.947   5.876
 4694POPC   C1A59451   7.245  33.027   6.204
 4694POPC   D2A59452   7.250  32.711   6.546
 4694POPC   C3A59453   7.174  32.913   6.938
 4694POPC   C4A59454   7.377  33.228   7.212
 4694POPC   C1B59455   7.772  33.152   6.300
 4694POPC   C2B59456   7.748  33.123   6.767
 4694POPC   C3B59457   7.660  32.822   7.094
 4694POPC   C4B59458   7.597  32.856   7.558
 4695POPC   NC359459   9.097   0.565   5.352
 4695POPC   PO459460   8.710   0.008   5.207
 4695POPC   GL159461   8.923   0.155   5.658
 4695POPC   GL259462   8.875   0.483   5.811
 4695POPC   C1A59463   9.163   0.174   6.082
 4695POPC   D2A59464   8.932   0.310   6.418
 4695POPC   C3A59465   9.103   0.283   6.826
 4695POPC   C4A59466   8.914   0.489   7.194
 4695POPC   C1B59467   9.163   0.733   6.061
 4695POPC   C2B59468   9.185   0.749   6.514
 4695POPC   C3B59469   9.306   0.749   6.939
 4695POPC   C4B59470   9.194   0.937   7.321
 4696POPC   NC359471   4.430  25.735   5.365
 4696POPC   PO459472   4.017  26.287   5.262
 4696POPC   GL159473   4.195  26.091   5.639
 4696POPC   GL259474   4.105  26.349   5.819
 4696POPC   C1A59475   4.514  26.036   5.998
 4696POPC   D2A59476   4.504  26.193   6.452
 4696POPC   C3A59477   4.397  25.944   6.828
 4696POPC   C4A59478   4.606  25.677   7.185
 4696POPC   C1B59479   4.044  26.068   6.185
 4696POPC   C2B59480   3.952  26.155   6.611
 4696POPC   C3B59481   4.038  26.293   7.031
 4696POPC   C4B59482   4.244  26.012   7.314
 4697POPC   NC359483   6.007  34.550   5.359
 4697POPC   PO459484   5.335  34.273   5.504
 4697POPC   GL159485   5.695  34.603   5.758
 4697POPC   GL259486   6.084  34.650   5.852
 4697POPC   C1A59487   5.740  34.614   6.223
 4697POPC   D2A59488   5.484  34.550   6.566
 4697POPC   C3A59489   5.638  34.493   6.939
 4697POPC   C4A59490   5.761  34.655   7.319
 4697POPC   C1B59491   6.071  34.246   6.139
 4697POPC   C2B59492   5.983  34.248   6.627
 4697POPC   C3B59493   6.142  34.385   7.094
 4697POPC   C4B59494   6.171  34.510   7.587
 4698POPC   NC359495   4.547  18.317   5.453
 4698POPC   PO459496   3.942  17.869   5.521
 4698POPC   GL159497   4.241  18.051   5.807
 4698POPC   GL259498   4.193  18.437   5.823
 4698POPC   C1A59499   4.526  18.201   6.142
 4698POPC   D2A59500   4.666  18.431   6.528
 4698POPC   C3A59501   4.511  18.331   6.924
 4698POPC   C4A59502   4.422  18.257   7.336
 4698POPC   C1B59503   4.011  18.257   6.218
 4698POPC   C2B59504   4.059  18.301   6.657
 4698POPC   C3B59505   3.995  18.155   7.073
 4698POPC   C4B59506   3.926  18.369   7.473
 4699POPC   NC359507  37.533  30.608   5.414
 4699POPC   PO459508  37.518  31.151   5.815
 4699POPC   GL159509  37.788  30.793   5.854
 4699POPC   GL259510  37.752  30.461   5.866
 4699POPC   C1A59511  37.937  30.758   6.262
 4699POPC   D2A59512  37.707  30.849   6.656
 4699POPC   C3A59513  37.820  30.921   7.095
 4699POPC   C4A59514  37.468  30.986   7.409
 4699POPC   C1B59515  37.682  30.310   6.268
 4699POPC   C2B59516  37.900  30.371   6.641
 4699POPC   C3B59517  37.819  30.408   7.075
 4699POPC   C4B59518  37.628  30.517   7.484
 4700POPC   NC359519   1.557  16.378   5.442
 4700POPC   PO459520   1.120  16.891   5.394
 4700POPC   GL159521   1.209  16.704   5.761
 4700POPC   GL259522   1.279  17.060   5.862
 4700POPC   C1A59523   1.136  16.712   6.209
 4700POPC   D2A59524   0.919  16.871   6.575
 4700POPC   C3A59525   1.111  16.711   6.959
 4700POPC   C4A59526   1.241  16.573   7.377
 4700POPC   C1B59527   1.479  17.075   6.268
 4700POPC   C2B59528   1.383  17.125   6.698
 4700POPC   C3B59529   1.331  17.120   7.108
 4700POPC   C4B59530   1.538  16.987   7.488
 4701POPC   NC359531  23.152  10.262   5.441
 4701POPC   PO459532  23.170  10.938   5.406
 4701POPC   GL159533  22.924  10.652   5.702
 4701POPC   GL259534  22.632  10.436   5.767
 4701POPC   C1A59535  23.041  10.473   6.096
 4701POPC   D2A59536  22.879  10.540   6.499
 4701POPC   C3A59537  23.126  10.403   6.843
 4701POPC   C4A59538  23.026  10.610   7.198
 4701POPC   C1B59539  22.608  10.209   6.187
 4701POPC   C2B59540  22.662  10.090   6.658
 4701POPC   C3B59541  22.699  10.241   7.103
 4701POPC   C4B59542  22.669  10.480   7.517
 4702POPC   NC359543  13.497  20.325   5.465
 4702POPC   PO459544  13.918  20.826   5.549
 4702POPC   GL159545  13.526  20.695   5.838
 4702POPC   GL259546  13.439  20.334   5.965
 4702POPC   C1A59547  13.313  20.715   6.272
 4702POPC   D2A59548  13.414  20.860   6.699
 4702POPC   C3A59549  13.502  20.606   7.052
 4702POPC   C4A59550  13.927  20.704   7.230
 4702POPC   C1B59551  13.793  20.479   6.233
 4702POPC   C2B59552  13.890  20.505   6.677
 4702POPC   C3B59553  13.897  20.252   7.051
 4702POPC   C4B59554  13.663  20.348   7.474
 4703POPC   NC359555  16.107  29.563   5.346
 4703POPC   PO459556  15.735  28.946   5.384
 4703POPC   GL159557  15.838  29.019   5.792
 4703POPC   GL259558  15.842  29.360   5.738
 4703POPC   C1A59559  15.952  28.977   6.246
 4703POPC   D2A59560  15.809  28.880   6.682
 4703POPC   C3A59561  15.987  28.919   7.099
 4703POPC   C4A59562  15.762  29.108   7.463
 4703POPC   C1B59563  15.659  29.523   6.104
 4703POPC   C2B59564  15.748  29.561   6.542
 4703POPC   C3B59565  15.710  29.327   6.943
 4703POPC   C4B59566  15.696  29.566   7.330
 4704POPC   NC359567  41.917  37.352   5.485
 4704POPC   PO459568  42.395  37.662   5.145
 4704POPC   GL159569  42.233  37.726   5.705
 4704POPC   GL259570  42.102  37.457   5.963
 4704POPC   C1A59571  42.379  37.881   6.154
 4704POPC   D2A59572  42.546  38.069   6.577
 4704POPC   C3A59573  42.398  37.938   7.019
 4704POPC   C4A59574  42.045  37.972   7.353
 4704POPC   C1B59575  42.470  37.342   6.242
 4704POPC   C2B59576  42.720  37.339   6.656
 4704POPC   C3B59577  42.598  37.411   7.108
 4704POPC   C4B59578  42.170  37.509   7.209
 4705POPC   NC359579  16.495  11.734   5.382
 4705POPC   PO459580  16.243  11.201   5.382
 4705POPC   GL159581  16.571  11.132   5.712
 4705POPC   GL259582  16.476  11.445   5.836
 4705POPC   C1A59583  16.839  11.123   6.129
 4705POPC   D2A59584  16.752  11.221   6.611
 4705POPC   C3A59585  16.845  10.920   6.978
 4705POPC   C4A59586  16.828  10.985   7.463
 4705POPC   C1B59587  16.656  11.576   6.231
 4705POPC   C2B59588  16.992  11.785   6.443
 4705POPC   C3B59589  17.038  11.766   6.884
 4705POPC   C4B59590  16.842  11.419   7.122
 4706POPC   NC359591   7.554   1.719   5.551
 4706POPC   PO459592   7.150   2.360   5.445
 4706POPC   GL159593   7.153   2.060   5.748
 4706POPC   GL259594   7.469   2.149   5.840
 4706POPC   C1A59595   7.206   1.846   6.150
 4706POPC   D2A59596   6.956   1.832   6.491
 4706POPC   C3A59597   7.220   1.822   6.845
 4706POPC   C4A59598   7.423   1.808   7.230
 4706POPC   C1B59599   7.630   2.229   6.255
 4706POPC   C2B59600   7.664   1.945   6.585
 4706POPC   C3B59601   7.851   1.957   6.974
 4706POPC   C4B59602   7.759   2.112   7.418
 4707POPC   NC359603   0.353   6.240   5.401
 4707POPC   PO459604   0.095   5.627   5.300
 4707POPC   GL159605   0.180   5.815   5.744
 4707POPC   GL259606   0.351   6.154   5.880
 4707POPC   C1A59607   0.108   5.877   6.213
 4707POPC   D2A59608   0.394   5.905   6.556
 4707POPC   C3A59609   0.207   5.894   6.959
 4707POPC   C4A59610   0.223   5.526   7.230
 4707POPC   C1B59611   0.719   6.159   6.147
 4707POPC   C2B59612   0.688   6.332   6.552
 4707POPC   C3B59613   0.674   6.154   6.932
 4707POPC   C4B59614   0.444   6.199   7.306
 4708POPC   NC359615   6.936  16.781   5.373
 4708POPC   PO459616   6.267  17.059   5.454
 4708POPC   GL159617   6.474  16.790   5.816
 4708POPC   GL259618   6.827  16.853   5.858
 4708POPC   C1A59619   6.587  16.506   6.214
 4708POPC   D2A59620   6.414  16.267   6.595
 4708POPC   C3A59621   6.478  16.478   7.005
 4708POPC   C4A59622   6.704  16.697   7.332
 4708POPC   C1B59623   6.663  17.014   6.254
 4708POPC   C2B59624   6.629  17.003   6.705
 4708POPC   C3B59625   6.985  16.914   6.980
 4708POPC   C4B59626   7.227  16.736   7.326
 4709POPC   NC359627  44.027  42.640   5.660
 4709POPC   PO459628  43.517  42.279   5.390
 4709POPC   GL159629  43.740  42.132   5.750
 4709POPC   GL259630  44.064  42.202   5.907
 4709POPC   C1A59631  43.651  42.031   6.189
 4709POPC   D2A59632  43.563  42.299   6.556
 4709POPC   C3A59633  43.751  42.184   6.978
 4709POPC   C4A59634  43.683  42.151   7.430
 4709POPC   C1B59635  44.018  42.427   6.322
 4709POPC   C2B59636  44.275  42.604   6.673
 4709POPC   C3B59637  44.149  42.507   7.104
 4709POPC   C4B59638  44.201  42.137   7.356
 4710POPC   NC359639   8.280   6.882   5.400
 4710POPC   PO459640   7.677   6.685   5.501
 4710POPC   GL159641   8.015   6.608   5.821
 4710POPC   GL259642   8.303   6.439   5.687
 4710POPC   C1A59643   8.133   6.820   6.233
 4710POPC   D2A59644   7.899   6.966   6.616
 4710POPC   C3A59645   8.105   6.825   6.989
 4710POPC   C4A59646   8.010   6.441   7.231
 4710POPC   C1B59647   8.486   6.465   6.109
 4710POPC   C2B59648   8.357   6.374   6.535
 4710POPC   C3B59649   8.468   6.468   6.945
 4710POPC   C4B59650   8.497   6.736   7.334
 4711POPC   NC359651  39.807   3.417   5.314
 4711POPC   PO459652  40.373   3.765   5.342
 4711POPC   GL159653  40.095   3.610   5.717
 4711POPC   GL259654  39.974   3.237   5.756
 4711POPC   C1A59655  40.134   3.493   6.184
 4711POPC   D2A59656  40.212   3.352   6.630
 4711POPC   C3A59657  40.152   3.653   6.935
 4711POPC   C4A59658  39.918   3.680   7.302
 4711POPC   C1B59659  39.695   3.157   6.114
 4711POPC   C2B59660  39.727   3.209   6.565
 4711POPC   C3B59661  39.851   3.256   6.983
 4711POPC   C4B59662  39.665   3.108   7.299
 4712POPC   NC359663  21.689  30.013   5.097
 4712POPC   PO459664  21.650  29.689   5.674
 4712POPC   GL159665  21.353  29.919   5.925
 4712POPC   GL259666  21.071  30.182   5.837
 4712POPC   C1A59667  21.168  29.792   6.300
 4712POPC   D2A59668  21.087  29.792   6.733
 4712POPC   C3A59669  21.458  29.887   6.970
 4712POPC   C4A59670  21.370  29.876   7.383
 4712POPC   C1B59671  21.193  30.290   6.251
 4712POPC   C2B59672  21.308  30.319   6.707
 4712POPC   C3B59673  21.283  30.351   7.166
 4712POPC   C4B59674  21.024  30.291   7.523
 4713POPC   NC359675  11.157  28.560   5.202
 4713POPC   PO459676  11.724  28.333   5.498
 4713POPC   GL159677  11.435  28.287   5.842
 4713POPC   GL259678  11.268  28.598   5.722
 4713POPC   C1A59679  11.469  28.282   6.326
 4713POPC   D2A59680  11.301  28.160   6.781
 4713POPC   C3A59681  11.556  28.252   7.194
 4713POPC   C4A59682  11.799  28.342   7.597
 4713POPC   C1B59683  11.102  28.576   6.131
 4713POPC   C2B59684  11.092  28.620   6.566
 4713POPC   C3B59685  10.843  28.590   6.934
 4713POPC   C4B59686  11.063  28.382   7.238
 4714POPC   NC359687  23.899   0.898   5.458
 4714POPC   PO459688  23.521   1.478   5.567
 4714POPC   GL159689  23.830   1.276   5.842
 4714POPC   GL259690  23.951   0.916   5.959
 4714POPC   C1A59691  23.917   1.321   6.253
 4714POPC   D2A59692  23.861   1.007   6.539
 4714POPC   C3A59693  23.842   1.255   6.871
 4714POPC   C4A59694  23.721   1.301   7.263
 4714POPC   C1B59695  23.539   0.948   6.127
 4714POPC   C2B59696  23.326   1.029   6.526
 4714POPC   C3B59697  23.302   1.167   6.964
 4714POPC   C4B59698  23.373   0.963   7.371
 4715POPC   NC359699  10.793  14.100   5.590
 4715POPC   PO459700  10.318  13.692   5.266
 4715POPC   GL159701  10.310  13.704   5.721
 4715POPC   GL259702  10.381  13.990   5.865
 4715POPC   C1A59703  10.200  13.543   6.130
 4715POPC   D2A59704  10.287  13.687   6.556
 4715POPC   C3A59705  10.396  13.387   6.890
 4715POPC   C4A59706  10.225  13.354   7.309
 4715POPC   C1B59707  10.674  13.769   6.175
 4715POPC   C2B59708  10.800  13.604   6.587
 4715POPC   C3B59709  10.741  13.768   7.004
 4715POPC   C4B59710  10.887  13.644   7.385
 4716POPC   NC359711  30.567  40.573   5.452
 4716POPC   PO459712  31.084  40.980   5.300
 4716POPC   GL159713  30.941  40.813   5.719
 4716POPC   GL259714  30.569  40.907   5.840
 4716POPC   C1A59715  30.897  40.647   6.146
 4716POPC   D2A59716  30.781  40.580   6.591
 4716POPC   C3A59717  30.898  40.841   6.943
 4716POPC   C4A59718  30.844  40.598   7.314
 4716POPC   C1B59719  30.411  41.044   6.272
 4716POPC   C2B59720  30.450  40.989   6.732
 4716POPC   C3B59721  30.458  40.927   7.197
 4716POPC   C4B59722  30.247  40.914   7.596
 4717POPC   NC359723  28.342  42.184   5.087
 4717POPC   PO459724  27.992  42.494   5.639
 4717POPC   GL159725  28.286  42.265   5.838
 4717POPC   GL259726  28.425  41.942   5.711
 4717POPC   C1A59727  28.252  42.373   6.245
 4717POPC   D2A59728  28.449  42.427   6.609
 4717POPC   C3A59729  28.218  42.491   6.961
 4717POPC   C4A59730  28.473  42.466   7.290
 4717POPC   C1B59731  28.298  41.868   6.154
 4717POPC   C2B59732  28.410  41.902   6.558
 4717POPC   C3B59733  28.444  42.043   6.957
 4717POPC   C4B59734  28.112  42.044   7.260
 4718POPC   NC359735  14.644  33.851   5.492
 4718POPC   PO459736  14.050  34.144   5.567
 4718POPC   GL159737  14.317  33.929   5.906
 4718POPC   GL259738  14.523  33.613   5.922
 4718POPC   C1A59739  14.487  33.914   6.335
 4718POPC   D2A59740  14.788  34.022   6.654
 4718POPC   C3A59741  14.524  34.042   7.038
 4718POPC   C4A59742  14.229  33.894   7.378
 4718POPC   C1B59743  14.181  33.497   6.184
 4718POPC   C2B59744  14.130  33.302   6.585
 4718POPC   C3B59745  14.199  33.494   6.986
 4718POPC   C4B59746  14.160  33.322   7.396
 4719POPC   NC359747   7.105  34.628   5.333
 4719POPC   PO459748   6.480  34.798   5.488
 4719POPC   GL159749   6.625  34.584   5.814
 4719POPC   GL259750   6.799  34.308   5.640
 4719POPC   C1A59751   6.486  34.545   6.257
 4719POPC   D2A59752   6.273  34.705   6.654
 4719POPC   C3A59753   6.604  34.725   6.987
 4719POPC   C4A59754   6.624  34.724   7.450
 4719POPC   C1B59755   6.967  34.294   6.060
 4719POPC   C2B59756   6.969  34.351   6.498
 4719POPC   C3B59757   7.146  34.268   6.883
 4719POPC   C4B59758   6.958  34.418   7.230
 4720POPC   NC359759  13.553  15.525   5.040
 4720POPC   PO459760  13.505  16.086   5.424
 4720POPC   GL159761  13.580  15.894   5.831
 4720POPC   GL259762  13.351  15.651   5.732
 4720POPC   C1A59763  13.547  15.938   6.304
 4720POPC   D2A59764  13.401  16.157   6.690
 4720POPC   C3A59765  13.677  16.222   7.040
 4720POPC   C4A59766  13.667  15.905   7.311
 4720POPC   C1B59767  13.223  15.594   6.130
 4720POPC   C2B59768  13.419  15.484   6.532
 4720POPC   C3B59769  13.389  15.626   6.954
 4720POPC   C4B59770  13.211  15.472   7.360
 4721POPC   NC359771  42.830   1.854   5.631
 4721POPC   PO459772  43.261   2.237   5.309
 4721POPC   GL159773  43.181   2.143   5.833
 4721POPC   GL259774  43.237   1.763   5.907
 4721POPC   C1A59775  43.335   2.025   6.304
 4721POPC   D2A59776  43.226   1.713   6.623
 4721POPC   C3A59777  43.270   1.889   6.981
 4721POPC   C4A59778  43.039   2.200   7.158
 4721POPC   C1B59779  42.879   1.778   6.272
 4721POPC   C2B59780  42.751   1.865   6.744
 4721POPC   C3B59781  42.836   1.723   7.182
 4721POPC   C4B59782  42.829   1.531   7.581
 4722POPC   NC359783  32.864  24.528   5.344
 4722POPC   PO459784  33.439  24.561   5.630
 4722POPC   GL159785  33.005  24.530   5.840
 4722POPC   GL259786  32.740  24.254   5.910
 4722POPC   C1A59787  32.951  24.581   6.294
 4722POPC   D2A59788  33.306  24.648   6.562
 4722POPC   C3A59789  33.182  24.748   6.940
 4722POPC   C4A59790  32.948  24.655   7.235
 4722POPC   C1B59791  33.125  24.120   6.161
 4722POPC   C2B59792  33.297  24.122   6.577
 4722POPC   C3B59793  33.055  24.244   6.926
 4722POPC   C4B59794  32.640  24.270   7.143
 4723POPC   NC359795  30.932  29.680   5.472
 4723POPC   PO459796  30.448  30.084   5.284
 4723POPC   GL159797  30.663  30.056   5.717
 4723POPC   GL259798  30.662  30.367   5.942
 4723POPC   C1A59799  30.777  29.909   6.167
 4723POPC   D2A59800  30.712  29.978   6.640
 4723POPC   C3A59801  30.854  29.731   7.027
 4723POPC   C4A59802  30.698  29.756   7.457
 4723POPC   C1B59803  31.031  30.375   6.248
 4723POPC   C2B59804  31.242  30.337   6.652
 4723POPC   C3B59805  30.983  30.244   7.006
 4723POPC   C4B59806  30.529  30.127   7.115
 4724POPC   NC359807   5.949  32.720   5.373
 4724POPC   PO459808   5.753  33.369   5.418
 4724POPC   GL159809   5.854  33.075   5.758
 4724POPC   GL259810   5.598  32.777   5.750
 4724POPC   C1A59811   6.074  33.185   6.196
 4724POPC   D2A59812   6.231  33.134   6.668
 4724POPC   C3A59813   6.151  33.174   7.149
 4724POPC   C4A59814   6.311  33.193   7.628
 4724POPC   C1B59815   5.740  32.802   6.173
 4724POPC   C2B59816   5.960  32.720   6.528
 4724POPC   C3B59817   6.021  32.719   6.963
 4724POPC   C4B59818   5.741  32.708   7.335
 4725POPC   NC359819  24.582  10.914   5.352
 4725POPC   PO459820  24.741  11.539   5.099
 4725POPC   GL159821  24.433  11.419   5.552
 4725POPC   GL259822  24.447  11.093   5.788
 4725POPC   C1A59823  24.354  11.516   6.060
 4725POPC   D2A59824  24.267  11.655   6.546
 4725POPC   C3A59825  24.499  11.489   6.944
 4725POPC   C4A59826  24.669  11.605   7.372
 4725POPC   C1B59827  24.245  11.014   6.176
 4725POPC   C2B59828  24.270  11.136   6.601
 4725POPC   C3B59829  24.450  10.978   6.963
 4725POPC   C4B59830  24.802  11.109   7.280
 4726POPC   NC359831   3.662  25.968   5.171
 4726POPC   PO459832   3.159  26.212   5.565
 4726POPC   GL159833   3.393  26.042   5.875
 4726POPC   GL259834   3.711  26.002   5.782
 4726POPC   C1A59835   3.532  26.069   6.294
 4726POPC   D2A59836   3.411  25.814   6.634
 4726POPC   C3A59837   3.607  25.988   6.974
 4726POPC   C4A59838   3.595  26.037   7.388
 4726POPC   C1B59839   3.762  25.651   6.101
 4726POPC   C2B59840   3.905  25.615   6.517
 4726POPC   C3B59841   3.736  25.502   6.917
 4726POPC   C4B59842   3.890  25.634   7.323
 4727POPC   NC359843  35.096  19.186   5.535
 4727POPC   PO459844  35.539  18.750   5.329
 4727POPC   GL159845  35.500  18.998   5.748
 4727POPC   GL259846  35.200  18.787   5.854
 4727POPC   C1A59847  35.340  19.140   6.193
 4727POPC   D2A59848  35.397  19.234   6.662
 4727POPC   C3A59849  35.449  18.918   7.023
 4727POPC   C4A59850  35.507  18.846   7.517
 4727POPC   C1B59851  35.028  18.659   6.255
 4727POPC   C2B59852  35.049  18.743   6.692
 4727POPC   C3B59853  34.941  18.957   7.062
 4727POPC   C4B59854  35.172  19.352   7.107
 4728POPC   NC359855  21.171  14.531   5.417
 4728POPC   PO459856  21.769  14.341   5.519
 4728POPC   GL159857  21.501  14.477   5.836
 4728POPC   GL259858  21.329  14.199   5.785
 4728POPC   C1A59859  21.575  14.517   6.281
 4728POPC   D2A59860  21.329  14.668   6.644
 4728POPC   C3A59861  21.492  14.625   7.059
 4728POPC   C4A59862  21.888  14.398   7.147
 4728POPC   C1B59863  21.150  14.255   6.183
 4728POPC   C2B59864  21.298  14.112   6.565
 4728POPC   C3B59865  21.454  14.132   6.963
 4728POPC   C4B59866  21.332  14.233   7.385
 4729POPC   NC359867  40.085  27.042   5.428
 4729POPC   PO459868  39.804  26.456   5.213
 4729POPC   GL159869  39.869  26.621   5.689
 4729POPC   GL259870  39.868  26.978   5.871
 4729POPC   C1A59871  39.980  26.601   6.167
 4729POPC   D2A59872  39.866  26.832   6.579
 4729POPC   C3A59873  39.927  26.668   7.006
 4729POPC   C4A59874  40.241  26.595   7.337
 4729POPC   C1B59875  39.908  27.229   6.255
 4729POPC   C2B59876  40.223  27.298   6.585
 4729POPC   C3B59877  40.315  27.033   6.943
 4729POPC   C4B59878  40.234  27.320   7.278
 4730POPC   NC359879  17.625  31.929   5.331
 4730POPC   PO459880  17.164  32.393   5.273
 4730POPC   GL159881  17.329  32.157   5.695
 4730POPC   GL259882  17.715  32.086   5.802
 4730POPC   C1A59883  17.292  32.266   6.165
 4730POPC   D2A59884  17.129  32.593   6.506
 4730POPC   C3A59885  17.260  32.587   6.915
 4730POPC   C4A59886  17.282  32.236   7.199
 4730POPC   C1B59887  17.717  32.495   6.012
 4730POPC   C2B59888  17.686  32.480   6.472
 4730POPC   C3B59889  17.721  32.321   6.880
 4730POPC   C4B59890  17.800  32.344   7.286
 4731POPC   NC359891  30.668  38.025   5.492
 4731POPC   PO459892  30.761  37.291   5.416
 4731POPC   GL159893  30.777  37.318   5.855
 4731POPC   GL259894  30.616  37.625   5.826
 4731POPC   C1A59895  30.675  37.376   6.304
 4731POPC   D2A59896  30.829  37.639   6.618
 4731POPC   C3A59897  30.948  37.454   6.961
 4731POPC   C4A59898  30.888  37.359   7.361
 4731POPC   C1B59899  30.770  37.870   6.164
 4731POPC   C2B59900  31.132  37.993   6.434
 4731POPC   C3B59901  31.149  37.934   6.903
 4731POPC   C4B59902  30.794  37.869   7.239
 4732POPC   NC359903  22.139  26.223   5.188
 4732POPC   PO459904  22.287  25.590   5.192
 4732POPC   GL159905  22.162  25.893   5.569
 4732POPC   GL259906  22.440  26.117   5.713
 4732POPC   C1A59907  22.034  25.912   6.007
 4732POPC   D2A59908  22.320  25.789   6.346
 4732POPC   C3A59909  22.237  25.799   6.828
 4732POPC   C4A59910  22.240  25.956   7.275
 4732POPC   C1B59911  22.337  26.286   6.152
 4732POPC   C2B59912  22.018  26.164   6.490
 4732POPC   C3B59913  21.993  26.276   6.929
 4732POPC   C4B59914  22.296  26.467   7.250
 4733POPC   NC359915   1.179  13.329   5.319
 4733POPC   PO459916   1.553  12.706   5.365
 4733POPC   GL159917   1.252  12.785   5.723
 4733POPC   GL259918   1.084  13.107   5.780
 4733POPC   C1A59919   1.125  12.703   6.170
 4733POPC   D2A59920   1.118  12.572   6.639
 4733POPC   C3A59921   1.285  12.742   7.055
 4733POPC   C4A59922   1.517  13.087   7.284
 4733POPC   C1B59923   1.373  13.141   6.134
 4733POPC   C2B59924   1.154  13.126   6.507
 4733POPC   C3B59925   1.220  13.253   6.897
 4733POPC   C4B59926   0.996  13.169   7.266
 4734POPC   NC359927  15.239  10.260   5.713
 4734POPC   PO459928  15.105   9.708   5.288
 4734POPC   GL159929  15.183   9.747   5.728
 4734POPC   GL259930  15.508   9.710   5.792
 4734POPC   C1A59931  15.131   9.762   6.191
 4734POPC   D2A59932  15.283   9.614   6.593
 4734POPC   C3A59933  15.200   9.784   7.000
 4734POPC   C4A59934  15.072   9.728   7.418
 4734POPC   C1B59935  15.609   9.934   6.203
 4734POPC   C2B59936  15.463  10.104   6.603
 4734POPC   C3B59937  15.634  10.044   7.019
 4734POPC   C4B59938  15.567   9.817   7.417
 4735POPC   NC359939   0.009   4.525   5.071
 4735POPC   PO459940  44.705   4.069   5.468
 4735POPC   GL159941  44.649   4.321   5.816
 4735POPC   GL259942  44.900   4.161   5.999
 4735POPC   C1A59943  44.474   4.394   6.186
 4735POPC   D2A59944  44.657   4.299   6.546
 4735POPC   C3A59945  44.620   4.575   6.865
 4735POPC   C4A59946  44.648   4.369   7.242
 4735POPC   C1B59947  44.992   4.545   6.203
 4735POPC   C2B59948   0.049   4.672   6.619
 4735POPC   C3B59949   0.139   4.641   7.041
 4735POPC   C4B59950  44.945   4.748   7.437
 4736POPC   NC359951  19.473  26.288   4.920
 4736POPC   PO459952  19.837  26.012   5.443
 4736POPC   GL159953  19.898  26.117   5.880
 4736POPC   GL259954  20.223  26.178   5.884
 4736POPC   C1A59955  19.862  26.208   6.343
 4736POPC   D2A59956  19.541  26.201   6.677
 4736POPC   C3A59957  19.694  26.051   7.062
 4736POPC   C4A59958  19.979  26.102   7.381
 4736POPC   C1B59959  20.166  26.557   6.105
 4736POPC   C2B59960  20.005  26.710   6.487
 4736POPC   C3B59961  19.961  26.488   6.865
 4736POPC   C4B59962  20.110  26.592   7.262
 4737POPC   NC359963  19.319   2.505   5.451
 4737POPC   PO459964  19.274   1.832   5.296
 4737POPC   GL159965  19.067   1.939   5.752
 4737POPC   GL259966  18.971   2.304   5.789
 4737POPC   C1A59967  18.794   1.750   6.137
 4737POPC   D2A59968  18.775   1.867   6.614
 4737POPC   C3A59969  18.782   1.610   6.998
 4737POPC   C4A59970  18.967   1.588   7.412
 4737POPC   C1B59971  19.020   2.207   6.239
 4737POPC   C2B59972  19.261   2.052   6.582
 4737POPC   C3B59973  19.228   1.937   7.007
 4737POPC   C4B59974  18.853   2.078   7.177
 4738POPC   NC359975   9.111  29.626   5.155
 4738POPC   PO459976   8.611  30.081   5.080
 4738POPC   GL159977   8.767  29.958   5.538
 4738POPC   GL259978   9.086  29.772   5.638
 4738POPC   C1A59979   8.932  30.146   5.962
 4738POPC   D2A59980   8.738  30.288   6.372
 4738POPC   C3A59981   8.787  30.024   6.769
 4738POPC   C4A59982   8.692  30.101   7.194
 4738POPC   C1B59983   9.166  29.672   6.065
 4738POPC   C2B59984   9.140  29.752   6.504
 4738POPC   C3B59985   9.313  29.856   6.939
 4738POPC   C4B59986   9.154  29.931   7.390
 4739POPC   NC359987   4.265  10.313   5.415
 4739POPC   PO459988   4.274  10.869   5.615
 4739POPC   GL159989   4.044  10.585   5.875
 4739POPC   GL259990   3.824  10.280   5.754
 4739POPC   C1A59991   4.123  10.657   6.319
 4739POPC   D2A59992   3.971  10.896   6.702
 4739POPC   C3A59993   4.242  10.789   7.062
 4739POPC   C4A59994   4.637  10.537   7.170
 4739POPC   C1B59995   4.013  10.139   6.150
 4739POPC   C2B59996   4.283  10.173   6.516
 4739POPC   C3B59997   4.212  10.282   6.942
 4739POPC   C4B59998   3.959  10.131   7.249
 4740POPC   NC359999  34.254   5.592   5.410
 4740POPC   PO460000  34.556   6.176   5.181
 4740POPC   GL160001  34.576   5.958   5.611
 4740POPC   GL260002  34.284   6.071   5.800
 4740POPC   C1A60003  34.631   5.775   6.071
 4740POPC   D2A60004  34.741   5.497   6.464
 4740POPC   C3A60005  34.682   5.621   6.892
 4740POPC   C4A60006  34.739   5.817   7.279
 4740POPC   C1B60007  34.417   6.269   6.211
 4740POPC   C2B60008  34.435   6.261   6.660
 4740POPC   C3B60009  34.384   6.186   7.080
 4740POPC   C4B60010  34.225   5.827   7.136
 4741POPC   NC360011  21.185   7.184   5.390
 4741POPC   PO460012  21.814   7.425   5.394
 4741POPC   GL160013  21.682   7.645   5.769
 4741POPC   GL260014  21.360   7.465   5.801
 4741POPC   C1A60015  21.619   7.585   6.247
 4741POPC   D2A60016  21.339   7.431   6.592
 4741POPC   C3A60017  21.371   7.592   7.001
 4741POPC   C4A60018  20.975   7.761   7.136
 4741POPC   C1B60019  21.466   7.132   6.096
 4741POPC   C2B60020  21.670   7.080   6.475
 4741POPC   C3B60021  21.594   7.047   6.956
 4741POPC   C4B60022  21.360   7.170   7.315
 4742POPC   NC360023  29.540   9.217   5.376
 4742POPC   PO460024  28.865   9.018   5.419
 4742POPC   GL160025  29.109   9.115   5.795
 4742POPC   GL260026  29.380   8.885   5.721
 4742POPC   C1A60027  29.061   8.998   6.255
 4742POPC   D2A60028  29.081   8.829   6.686
 4742POPC   C3A60029  28.903   9.129   6.972
 4742POPC   C4A60030  28.982   9.259   7.374
 4742POPC   C1B60031  29.549   8.921   6.103
 4742POPC   C2B60032  29.544   8.938   6.518
 4742POPC   C3B60033  29.529   8.760   6.927
 4742POPC   C4B60034  29.416   9.077   7.203
 4743POPC   NC360035  25.608  16.991   5.575
 4743POPC   PO460036  26.285  17.118   5.365
 4743POPC   GL160037  26.302  16.808   5.690
 4743POPC   GL260038  25.971  16.761   5.843
 4743POPC   C1A60039  26.366  16.553   6.079
 4743POPC   D2A60040  26.401  16.504   6.529
 4743POPC   C3A60041  26.042  16.601   6.784
 4743POPC   C4A60042  26.119  16.880   7.127
 4743POPC   C1B60043  25.798  16.924   6.232
 4743POPC   C2B60044  25.591  16.776   6.589
 4743POPC   C3B60045  25.632  16.841   7.015
 4743POPC   C4B60046  25.645  16.817   7.480
 4744POPC   NC360047  35.501   9.763   5.306
 4744POPC   PO460048  35.065   9.368   5.649
 4744POPC   GL160049  35.210   9.743   5.858
 4744POPC   GL260050  35.530   9.963   5.782
 4744POPC   C1A60051  35.198   9.739   6.310
 4744POPC   D2A60052  35.410   9.833   6.678
 4744POPC   C3A60053  35.104   9.872   6.976
 4744POPC   C4A60054  35.083   9.513   7.185
 4744POPC   C1B60055  35.519  10.137   6.211
 4744POPC   C2B60056  35.692  10.245   6.612
 4744POPC   C3B60057  35.520  10.204   7.024
 4744POPC   C4B60058  35.593  10.169   7.465
 4745POPC   NC360059  15.603  41.467   5.426
 4745POPC   PO460060  16.246  41.788   5.271
 4745POPC   GL160061  16.129  41.728   5.749
 4745POPC   GL260062  15.817  41.788   5.863
 4745POPC   C1A60063  16.118  41.469   6.131
 4745POPC   D2A60064  16.060  41.428   6.594
 4745POPC   C3A60065  16.216  41.520   7.030
 4745POPC   C4A60066  16.080  41.641   7.479
 4745POPC   C1B60067  15.626  41.549   6.249
 4745POPC   C2B60068  15.555  41.341   6.657
 4745POPC   C3B60069  15.719  41.414   7.064
 4745POPC   C4B60070  15.554  41.714   7.352
 4746POPC   NC360071  30.250  17.380   5.393
 4746POPC   PO460072  30.882  17.690   5.505
 4746POPC   GL160073  30.658  17.561   5.849
 4746POPC   GL260074  30.469  17.234   5.824
 4746POPC   C1A60075  30.564  17.886   6.175
 4746POPC   D2A60076  30.542  18.025   6.608
 4746POPC   C3A60077  30.800  17.713   6.812
 4746POPC   C4A60078  30.780  17.527   7.258
 4746POPC   C1B60079  30.705  17.171   6.193
 4746POPC   C2B60080  30.625  17.293   6.608
 4746POPC   C3B60081  30.616  17.125   6.999
 4746POPC   C4B60082  30.391  17.229   7.379
 4747POPC   NC360083  24.795   7.667   5.468
 4747POPC   PO460084  25.397   7.481   5.312
 4747POPC   GL160085  25.283   7.573   5.713
 4747POPC   GL260086  25.058   7.325   5.772
 4747POPC   C1A60087  25.349   7.619   6.170
 4747POPC   D2A60088  25.256   7.714   6.612
 4747POPC   C3A60089  25.487   7.459   6.886
 4747POPC   C4A60090  25.396   7.396   7.266
 4747POPC   C1B60091  25.186   7.086   6.106
 4747POPC   C2B60092  25.213   7.200   6.539
 4747POPC   C3B60093  25.076   7.104   6.960
 4747POPC   C4B60094  25.004   7.076   7.411
 4748POPC   NC360095  31.169  16.094   5.638
 4748POPC   PO460096  30.694  16.125   5.164
 4748POPC   GL160097  30.710  15.985   5.720
 4748POPC   GL260098  30.662  16.291   5.875
 4748POPC   C1A60099  30.743  15.850   6.150
 4748POPC   D2A60100  30.872  15.804   6.580
 4748POPC   C3A60101  30.538  15.809   6.926
 4748POPC   C4A60102  30.630  15.703   7.392
 4748POPC   C1B60103  30.407  16.225   6.224
 4748POPC   C2B60104  30.628  16.259   6.596
 4748POPC   C3B60105  30.856  16.228   6.968
 4748POPC   C4B60106  30.549  16.222   7.269
 4749POPC   NC360107  30.956  38.976   5.384
 4749POPC   PO460108  30.268  39.162   5.316
 4749POPC   GL160109  30.424  39.174   5.746
 4749POPC   GL260110  30.742  39.362   5.768
 4749POPC   C1A60111  30.384  39.382   6.167
 4749POPC   D2A60112  30.309  39.620   6.564
 4749POPC   C3A60113  30.452  39.355   6.880
 4749POPC   C4A60114  30.512  39.164   7.252
 4749POPC   C1B60115  30.898  39.288   6.208
 4749POPC   C2B60116  31.030  39.165   6.607
 4749POPC   C3B60117  30.955  39.244   7.030
 4749POPC   C4B60118  30.980  39.067   7.474
 4750POPC   NC360119  10.509  23.025   5.472
 4750POPC   PO460120  10.594  22.408   5.233
 4750POPC   GL160121  10.709  22.617   5.736
 4750POPC   GL260122  10.765  22.991   5.889
 4750POPC   C1A60123  10.552  22.695   6.231
 4750POPC   D2A60124  10.708  22.909   6.580
 4750POPC   C3A60125  10.757  22.688   6.968
 4750POPC   C4A60126  10.451  22.638   7.268
 4750POPC   C1B60127  10.405  23.181   6.139
 4750POPC   C2B60128  10.292  23.273   6.580
 4750POPC   C3B60129  10.427  23.091   6.986
 4750POPC   C4B60130  10.150  23.059   7.341
 4751POPC   NC360131  17.337  23.088   5.319
 4751POPC   PO460132  17.626  22.463   5.257
 4751POPC   GL160133  17.652  22.818   5.611
 4751POPC   GL260134  17.814  23.160   5.593
 4751POPC   C1A60135  17.518  23.004   6.044
 4751POPC   D2A60136  17.530  23.037   6.521
 4751POPC   C3A60137  17.180  22.985   6.805
 4751POPC   C4A60138  17.255  22.783   7.170
 4751POPC   C1B60139  17.939  23.282   6.025
 4751POPC   C2B60140  17.985  23.353   6.487
 4751POPC   C3B60141  17.751  23.367   6.876
 4751POPC   C4B60142  17.442  23.352   7.193
 4752POPC   NC360143  11.722  13.396   5.597
 4752POPC   PO460144  11.267  13.937   5.465
 4752POPC   GL160145  11.337  13.954   5.897
 4752POPC   GL260146  11.671  13.819   5.913
 4752POPC   C1A60147  11.234  13.694   6.246
 4752POPC   D2A60148  11.305  13.453   6.626
 4752POPC   C3A60149  11.286  13.631   7.051
 4752POPC   C4A60150  11.438  13.663   7.500
 4752POPC   C1B60151  11.723  13.488   6.274
 4752POPC   C2B60152  11.795  13.380   6.729
 4752POPC   C3B60153  11.686  13.329   7.189
 4752POPC   C4B60154  11.671  13.232   7.656
 4753POPC   NC360155   8.660  37.850   5.351
 4753POPC   PO460156   9.056  37.291   5.441
 4753POPC   GL160157   8.977  37.631   5.776
 4753POPC   GL260158   9.239  37.910   5.857
 4753POPC   C1A60159   8.961  37.615   6.242
 4753POPC   D2A60160   8.736  37.475   6.614
 4753POPC   C3A60161   8.786  37.627   7.041
 4753POPC   C4A60162   9.041  37.519   7.399
 4753POPC   C1B60163   9.244  38.046   6.295
 4753POPC   C2B60164   8.935  37.979   6.653
 4753POPC   C3B60165   8.924  38.112   7.099
 4753POPC   C4B60166   8.805  37.959   7.540
 4754POPC   NC360167  15.543  13.121   5.541
 4754POPC   PO460168  16.005  12.771   5.318
 4754POPC   GL160169  15.992  12.737   5.782
 4754POPC   GL260170  15.690  12.813   5.943
 4754POPC   C1A60171  16.112  12.878   6.220
 4754POPC   D2A60172  15.954  12.712   6.617
 4754POPC   C3A60173  16.131  12.904   6.967
 4754POPC   C4A60174  16.069  12.656   7.317
 4754POPC   C1B60175  15.665  13.160   6.216
 4754POPC   C2B60176  15.853  13.195   6.621
 4754POPC   C3B60177  15.744  13.244   7.044
 4754POPC   C4B60178  15.510  13.234   7.430
 4755POPC   NC360179  20.424  36.233   5.305
 4755POPC   PO460180  21.041  35.936   5.278
 4755POPC   GL160181  20.767  35.999   5.700
 4755POPC   GL260182  20.432  36.169   5.800
 4755POPC   C1A60183  20.697  35.904   6.161
 4755POPC   D2A60184  20.797  35.734   6.557
 4755POPC   C3A60185  20.557  35.945   6.834
 4755POPC   C4A60186  20.506  36.046   7.240
 4755POPC   C1B60187  20.516  36.406   6.177
 4755POPC   C2B60188  20.392  36.359   6.593
 4755POPC   C3B60189  20.529  36.498   6.997
 4755POPC   C4B60190  20.281  36.473   7.379
 4756POPC   NC360191  26.953   1.174   5.525
 4756POPC   PO460192  26.370   1.705   5.482
 4756POPC   GL160193  26.585   1.390   5.804
 4756POPC   GL260194  26.960   1.402   5.991
 4756POPC   C1A60195  26.647   1.060   6.141
 4756POPC   D2A60196  26.899   1.205   6.507
 4756POPC   C3A60197  26.734   1.175   6.924
 4756POPC   C4A60198  26.589   0.823   7.174
 4756POPC   C1B60199  27.320   1.475   6.277
 4756POPC   C2B60200  27.264   1.575   6.680
 4756POPC   C3B60201  27.235   1.345   7.042
 4756POPC   C4B60202  26.944   1.292   7.380
 4757POPC   NC360203  33.235   2.904   5.488
 4757POPC   PO460204  33.013   2.260   5.399
 4757POPC   GL160205  33.050   2.514   5.773
 4757POPC   GL260206  33.401   2.473   5.830
 4757POPC   C1A60207  32.879   2.700   6.161
 4757POPC   D2A60208  32.831   2.554   6.611
 4757POPC   C3A60209  33.028   2.848   6.901
 4757POPC   C4A60210  33.157   2.881   7.312
 4757POPC   C1B60211  33.410   2.772   6.213
 4757POPC   C2B60212  33.464   3.041   6.598
 4757POPC   C3B60213  33.550   2.861   7.018
 4757POPC   C4B60214  33.547   2.506   7.318
 4758POPC   NC360215  26.312  42.005   5.706
 4758POPC   PO460216  25.913  41.497   5.473
 4758POPC   GL160217  26.165  41.533   5.837
 4758POPC   GL260218  26.499  41.541   5.731
 4758POPC   C1A60219  26.219  41.737   6.273
 4758POPC   D2A60220  26.031  41.904   6.643
 4758POPC   C3A60221  26.146  41.587   6.951
 4758POPC   C4A60222  26.126  41.697   7.380
 4758POPC   C1B60223  26.592  41.412   6.112
 4758POPC   C2B60224  26.537  41.386   6.553
 4758POPC   C3B60225  26.507  41.118   6.919
 4758POPC   C4B60226  26.307  41.210   7.302
 4759POPC   NC360227  43.214  11.804   5.002
 4759POPC   PO460228  43.085  12.258   5.540
 4759POPC   GL160229  43.326  12.175   5.886
 4759POPC   GL260230  43.408  11.809   6.002
 4759POPC   C1A60231  43.432  12.246   6.301
 4759POPC   D2A60232  43.292  12.015   6.662
 4759POPC   C3A60233  43.207  12.177   7.059
 4759POPC   C4A60234  43.220  12.036   7.476
 4759POPC   C1B60235  43.023  11.907   6.219
 4759POPC   C2B60236  42.815  11.803   6.561
 4759POPC   C3B60237  42.958  11.703   6.949
 4759POPC   C4B60238  42.792  11.831   7.301
 4760POPC   NC360239   6.180   9.892   5.181
 4760POPC   PO460240   6.902   9.803   5.341
 4760POPC   GL160241   6.619   9.813   5.689
 4760POPC   GL260242   6.417   9.511   5.673
 4760POPC   C1A60243   6.634   9.694   6.133
 4760POPC   D2A60244   6.734   9.528   6.535
 4760POPC   C3A60245   6.871   9.836   6.806
 4760POPC   C4A60246   6.659   9.976   7.151
 4760POPC   C1B60247   6.213   9.406   6.075
 4760POPC   C2B60248   6.196   9.540   6.493
 4760POPC   C3B60249   6.374   9.661   6.864
 4760POPC   C4B60250   6.307   9.628   7.294
 4761POPC   NC360251   8.278  19.073   5.357
 4761POPC   PO460252   8.271  19.680   5.586
 4761POPC   GL160253   8.304  19.261   5.856
 4761POPC   GL260254   8.309  18.868   5.809
 4761POPC   C1A60255   8.372  19.136   6.295
 4761POPC   D2A60256   8.335  19.308   6.716
 4761POPC   C3A60257   8.046  19.061   6.930
 4761POPC   C4A60258   7.859  19.069   7.327
 4761POPC   C1B60259   8.152  18.695   6.165
 4761POPC   C2B60260   8.075  18.693   6.565
 4761POPC   C3B60261   8.220  18.594   6.967
 4761POPC   C4B60262   8.274  18.741   7.348
 4762POPC   NC360263  29.186   3.068   5.638
 4762POPC   PO460264  29.004   2.747   5.079
 4762POPC   GL160265  28.894   2.622   5.558
 4762POPC   GL260266  29.157   2.512   5.809
 4762POPC   C1A60267  28.746   2.686   6.018
 4762POPC   D2A60268  28.814   2.871   6.435
 4762POPC   C3A60269  29.032   2.606   6.741
 4762POPC   C4A60270  28.894   2.457   7.144
 4762POPC   C1B60271  29.282   2.744   6.211
 4762POPC   C2B60272  29.395   2.983   6.588
 4762POPC   C3B60273  29.254   2.989   7.007
 4762POPC   C4B60274  28.844   2.980   7.147
 4763POPC   NC360275   5.385   7.508   5.465
 4763POPC   PO460276   4.674   7.534   5.570
 4763POPC   GL160277   4.967   7.351   5.857
 4763POPC   GL260278   5.309   7.256   5.904
 4763POPC   C1A60279   4.990   7.313   6.295
 4763POPC   D2A60280   4.906   7.556   6.631
 4763POPC   C3A60281   4.949   7.397   7.035
 4763POPC   C4A60282   5.307   7.445   7.336
 4763POPC   C1B60283   5.479   7.123   6.312
 4763POPC   C2B60284   5.356   7.296   6.710
 4763POPC   C3B60285   5.298   7.016   7.076
 4763POPC   C4B60286   5.479   6.970   7.491
 4764POPC   NC360287   9.891  27.612   5.458
 4764POPC   PO460288   9.211  27.867   5.518
 4764POPC   GL160289   9.522  27.722   5.848
 4764POPC   GL260290   9.875  27.855   5.891
 4764POPC   C1A60291   9.607  27.531   6.267
 4764POPC   D2A60292   9.486  27.724   6.655
 4764POPC   C3A60293   9.565  27.525   7.064
 4764POPC   C4A60294   9.938  27.461   7.307
 4764POPC   C1B60295   9.712  28.026   6.253
 4764POPC   C2B60296   9.833  28.137   6.652
 4764POPC   C3B60297   9.746  27.998   7.034
 4764POPC   C4B60298   9.991  28.048   7.375
 4765POPC   NC360299  26.348   0.511   5.345
 4765POPC   PO460300  25.766   0.184   5.388
 4765POPC   GL160301  26.049   0.270   5.734
 4765POPC   GL260302  25.937   0.609   5.722
 4765POPC   C1A60303  26.177   0.493   6.147
 4765POPC   D2A60304  25.986   0.569   6.553
 4765POPC   C3A60305  26.276   0.525   6.890
 4765POPC   C4A60306  26.296   0.305   7.280
 4765POPC   C1B60307  25.698   0.698   6.134
 4765POPC   C2B60308  25.751   1.027   6.486
 4765POPC   C3B60309  25.797   0.981   6.936
 4765POPC   C4B60310  26.082   0.802   7.271
 4766POPC   NC360311  22.827  27.753   5.282
 4766POPC   PO460312  23.281  27.149   5.249
 4766POPC   GL160313  23.119  27.401   5.589
 4766POPC   GL260314  22.846  27.181   5.711
 4766POPC   C1A60315  23.129  27.661   5.973
 4766POPC   D2A60316  23.081  27.497   6.426
 4766POPC   C3A60317  23.193  27.703   6.824
 4766POPC   C4A60318  23.189  27.516   7.228
 4766POPC   C1B60319  22.688  27.415   6.088
 4766POPC   C2B60320  22.568  27.532   6.507
 4766POPC   C3B60321  22.726  27.446   6.906
 4766POPC   C4B60322  22.725  27.786   7.194
 4767POPC   NC360323  11.017  43.119   5.506
 4767POPC   PO460324  11.660  43.051   5.474
 4767POPC   GL160325  11.447  42.996   5.888
 4767POPC   GL260326  11.081  42.988   5.988
 4767POPC   C1A60327  11.491  43.012   6.343
 4767POPC   D2A60328  11.487  42.911   6.771
 4767POPC   C3A60329  11.541  43.242   7.072
 4767POPC   C4A60330  11.471  43.144   7.504
 4767POPC   C1B60331  11.009  42.833   6.403
 4767POPC   C2B60332  10.865  43.109   6.744
 4767POPC   C3B60333  11.060  43.108   7.144
 4767POPC   C4B60334  11.015  42.884   7.552
 4768POPC   NC360335  22.808  26.966   5.212
 4768POPC   PO460336  23.092  26.716   5.758
 4768POPC   GL160337  22.758  26.498   5.965
 4768POPC   GL260338  22.484  26.640   5.735
 4768POPC   C1A60339  22.792  26.570   6.395
 4768POPC   D2A60340  23.193  26.812   6.565
 4768POPC   C3A60341  23.084  26.989   6.958
 4768POPC   C4A60342  22.879  26.624   7.178
 4768POPC   C1B60343  22.547  26.932   6.091
 4768POPC   C2B60344  22.756  27.065   6.475
 4768POPC   C3B60345  22.593  26.922   6.854
 4768POPC   C4B60346  22.660  27.067   7.254
 4769POPC   NC360347  36.076   1.206   5.501
 4769POPC   PO460348  36.470   1.754   5.640
 4769POPC   GL160349  36.283   1.445   5.934
 4769POPC   GL260350  35.950   1.279   5.965
 4769POPC   C1A60351  36.266   1.263   6.343
 4769POPC   D2A60352  35.985   1.345   6.671
 4769POPC   C3A60353  36.155   1.414   7.062
 4769POPC   C4A60354  35.959   1.341   7.429
 4769POPC   C1B60355  35.837   0.993   6.255
 4769POPC   C2B60356  35.654   0.960   6.630
 4769POPC   C3B60357  35.848   0.957   7.077
 4769POPC   C4B60358  35.851   0.832   7.551
 4770POPC   NC360359  34.281  18.812   5.469
 4770POPC   PO460360  34.332  19.510   5.610
 4770POPC   GL160361  34.548  19.141   5.782
 4770POPC   GL260362  34.297  19.011   5.965
 4770POPC   C1A60363  34.813  19.127   6.159
 4770POPC   D2A60364  34.804  19.241   6.621
 4770POPC   C3A60365  34.460  19.070   6.905
 4770POPC   C4A60366  34.468  18.871   7.350
 4770POPC   C1B60367  34.334  19.263   6.318
 4770POPC   C2B60368  34.227  19.588   6.565
 4770POPC   C3B60369  34.336  19.572   6.970
 4770POPC   C4B60370  34.271  19.330   7.339
 4771POPC   NC360371  19.045  34.239   5.506
 4771POPC   PO460372  18.738  34.852   5.470
 4771POPC   GL160373  18.909  34.900   5.882
 4771POPC   GL260374  19.153  34.650   5.826
 4771POPC   C1A60375  19.124  34.861   6.303
 4771POPC   D2A60376  18.937  34.641   6.674
 4771POPC   C3A60377  19.024  34.836   7.083
 4771POPC   C4A60378  19.449  34.993   7.211
 4771POPC   C1B60379  18.930  34.409   6.159
 4771POPC   C2B60380  18.749  34.155   6.499
 4771POPC   C3B60381  18.635  34.277   6.902
 4771POPC   C4B60382  18.866  34.369   7.284
 4772POPC   NC360383  11.648  20.554   5.459
 4772POPC   PO460384  12.189  20.885   5.561
 4772POPC   GL160385  12.075  20.539   5.813
 4772POPC   GL260386  12.431  20.419   5.840
 4772POPC   C1A60387  11.848  20.459   6.208
 4772POPC   D2A60388  11.968  20.592   6.618
 4772POPC   C3A60389  11.747  20.689   6.991
 4772POPC   C4A60390  11.742  20.572   7.440
 4772POPC   C1B60391  12.397  20.647   6.223
 4772POPC   C2B60392  12.462  20.517   6.665
 4772POPC   C3B60393  12.247  20.553   7.089
 4772POPC   C4B60394  12.452  20.711   7.467
 4773POPC   NC360395  13.713   1.679   5.399
 4773POPC   PO460396  13.461   2.194   5.252
 4773POPC   GL160397  13.470   2.054   5.692
 4773POPC   GL260398  13.647   2.362   5.742
 4773POPC   C1A60399  13.500   1.713   6.054
 4773POPC   D2A60400  13.816   1.684   6.392
 4773POPC   C3A60401  13.732   1.767   6.832
 4773POPC   C4A60402  13.389   1.798   7.129
 4773POPC   C1B60403  13.854   2.118   6.061
 4773POPC   C2B60404  13.850   2.190   6.499
 4773POPC   C3B60405  13.950   2.228   6.927
 4773POPC   C4B60406  13.574   2.282   7.191
 4774POPC   NC360407  14.475  35.571   5.411
 4774POPC   PO460408  14.064  35.051   5.484
 4774POPC   GL160409  14.304  35.239   5.844
 4774POPC   GL260410  14.488  35.582   5.908
 4774POPC   C1A60411  14.272  35.346   6.286
 4774POPC   D2A60412  14.545  35.383   6.627
 4774POPC   C3A60413  14.326  35.401   6.968
 4774POPC   C4A60414  13.947  35.365   7.195
 4774POPC   C1B60415  14.641  35.780   6.295
 4774POPC   C2B60416  14.850  35.768   6.720
 4774POPC   C3B60417  14.785  35.622   7.188
 4774POPC   C4B60418  14.775  35.602   7.695
 4775POPC   NC360419  19.540  22.937   5.377
 4775POPC   PO460420  20.232  23.153   5.438
 4775POPC   GL160421  19.943  22.967   5.706
 4775POPC   GL260422  19.691  23.219   5.775
 4775POPC   C1A60423  19.975  22.970   6.138
 4775POPC   D2A60424  20.260  23.193   6.415
 4775POPC   C3A60425  19.983  23.252   6.769
 4775POPC   C4A60426  19.940  22.961   7.114
 4775POPC   C1B60427  19.436  23.077   6.130
 4775POPC   C2B60428  19.437  22.836   6.522
 4775POPC   C3B60429  19.451  22.957   6.954
 4775POPC   C4B60430  19.260  23.295   7.139
 4776POPC   NC360431  16.569  44.898   5.561
 4776POPC   PO460432  16.375  44.191   5.507
 4776POPC   GL160433  16.616  44.300   5.871
 4776POPC   GL260434  16.536  44.584   5.953
 4776POPC   C1A60435  16.856  44.322   6.263
 4776POPC   D2A60436  16.648  44.461   6.607
 4776POPC   C3A60437  16.834  44.674   6.940
 4776POPC   C4A60438  16.930  44.708   7.391
 4776POPC   C1B60439  16.701  44.830   6.242
 4776POPC   C2B60440  16.548  44.978   6.581
 4776POPC   C3B60441  16.317  44.786   6.851
 4776POPC   C4B60442  16.497  44.926   7.195
 4777POPC   NC360443  19.486  20.723   5.352
 4777POPC   PO460444  18.820  20.342   5.468
 4777POPC   GL160445  19.021  20.417   5.854
 4777POPC   GL260446  19.379  20.411   5.823
 4777POPC   C1A60447  18.996  20.525   6.292
 4777POPC   D2A60448  18.830  20.379   6.712
 4777POPC   C3A60449  18.930  20.613   7.093
 4777POPC   C4A60450  19.297  20.538   7.324
 4777POPC   C1B60451  19.499  20.789   6.036
 4777POPC   C2B60452  19.384  20.901   6.440
 4777POPC   C3B60453  19.377  20.754   6.851
 4777POPC   C4B60454  19.614  20.942   7.180
 4778POPC   NC360455  10.011  12.751   5.255
 4778POPC   PO460456   9.329  12.618   5.499
 4778POPC   GL160457   9.557  12.879   5.809
 4778POPC   GL260458   9.916  12.819   5.773
 4778POPC   C1A60459   9.646  12.952   6.276
 4778POPC   D2A60460   9.653  12.717   6.694
 4778POPC   C3A60461   9.473  12.958   7.049
 4778POPC   C4A60462   9.566  13.367   7.239
 4778POPC   C1B60463  10.155  12.968   6.120
 4778POPC   C2B60464  10.081  13.188   6.513
 4778POPC   C3B60465   9.981  13.053   6.935
 4778POPC   C4B60466  10.193  12.872   7.261
 4779POPC   NC360467  29.728  36.609   5.145
 4779POPC   PO460468  29.911  37.216   5.530
 4779POPC   GL160469  29.910  37.130   5.978
 4779POPC   GL260470  29.644  36.879   5.907
 4779POPC   C1A60471  29.858  36.922   6.399
 4779POPC   D2A60472  30.101  36.630   6.658
 4779POPC   C3A60473  30.129  36.844   7.025
 4779POPC   C4A60474  30.090  37.272   7.130
 4779POPC   C1B60475  29.367  36.736   6.261
 4779POPC   C2B60476  29.350  36.869   6.661
 4779POPC   C3B60477  29.675  37.045   6.906
 4779POPC   C4B60478  29.760  36.978   7.364
 4780POPC   NC360479  34.072  22.284   5.450
 4780POPC   PO460480  33.758  21.680   5.365
 4780POPC   GL160481  33.948  21.866   5.728
 4780POPC   GL260482  33.746  22.139   5.832
 4780POPC   C1A60483  33.995  21.824   6.169
 4780POPC   D2A60484  34.157  21.743   6.576
 4780POPC   C3A60485  34.022  22.032   6.875
 4780POPC   C4A60486  33.961  22.055   7.305
 4780POPC   C1B60487  33.554  22.084   6.225
 4780POPC   C2B60488  33.574  21.991   6.641
 4780POPC   C3B60489  33.523  22.116   7.057
 4780POPC   C4B60490  33.253  22.410   7.278
 4781POPC   NC360491  35.537  42.162   5.449
 4781POPC   PO460492  36.130  42.396   5.258
 4781POPC   GL160493  36.134  42.326   5.727
 4781POPC   GL260494  35.818  42.497   5.754
 4781POPC   C1A60495  35.997  42.324   6.215
 4781POPC   D2A60496  35.978  42.240   6.692
 4781POPC   C3A60497  36.321  42.256   6.994
 4781POPC   C4A60498  36.349  42.177   7.439
 4781POPC   C1B60499  35.737  42.777   6.085
 4781POPC   C2B60500  35.802  42.762   6.512
 4781POPC   C3B60501  36.050  42.747   6.876
 4781POPC   C4B60502  36.013  42.537   7.274
 4782POPC   NC360503   8.087   0.304   5.072
 4782POPC   PO460504   8.578   0.652   5.432
 4782POPC   GL160505   8.296   0.395   5.789
 4782POPC   GL260506   7.980   0.113   5.791
 4782POPC   C1A60507   8.026   0.591   6.142
 4782POPC   D2A60508   8.223   0.660   6.560
 4782POPC   C3A60509   8.022   0.707   6.960
 4782POPC   C4A60510   8.183   0.742   7.389
 4782POPC   C1B60511   8.041   0.093   6.234
 4782POPC   C2B60512   8.168   0.027   6.670
 4782POPC   C3B60513   8.108   0.210   7.088
 4782POPC   C4B60514   7.996   0.277   7.540
 4783POPC   NC360515  17.117  32.762   5.553
 4783POPC   PO460516  17.805  33.099   5.573
 4783POPC   GL160517  17.492  33.035   5.837
 4783POPC   GL260518  17.477  33.367   5.926
 4783POPC   C1A60519  17.452  32.889   6.252
 4783POPC   D2A60520  17.668  32.953   6.648
 4783POPC   C3A60521  17.603  32.935   7.070
 4783POPC   C4A60522  17.843  32.826   7.457
 4783POPC   C1B60523  17.314  33.366   6.337
 4783POPC   C2B60524  17.182  33.106   6.698
 4783POPC   C3B60525  17.151  33.180   7.146
 4783POPC   C4B60526  17.445  33.152   7.522
 4784POPC   NC360527   9.529  42.298   5.499
 4784POPC   PO460528  10.084  41.881   5.485
 4784POPC   GL160529   9.941  42.174   5.792
 4784POPC   GL260530   9.882  41.888   5.984
 4784POPC   C1A60531   9.971  42.540   6.129
 4784POPC   D2A60532   9.888  42.803   6.520
 4784POPC   C3A60533   9.679  42.714   6.946
 4784POPC   C4A60534   9.466  42.391   7.218
 4784POPC   C1B60535   9.666  42.160   6.283
 4784POPC   C2B60536   9.606  42.257   6.713
 4784POPC   C3B60537   9.593  41.936   7.044
 4784POPC   C4B60538   9.614  41.689   7.426
 4785POPC   NC360539   7.719  32.422   5.535
 4785POPC   PO460540   7.511  31.795   5.442
 4785POPC   GL160541   7.410  32.108   5.790
 4785POPC   GL260542   7.079  32.254   5.923
 4785POPC   C1A60543   7.519  32.346   6.183
 4785POPC   D2A60544   7.488  32.176   6.594
 4785POPC   C3A60545   7.389  32.401   6.937
 4785POPC   C4A60546   7.527  32.393   7.331
 4785POPC   C1B60547   7.204  31.938   6.233
 4785POPC   C2B60548   7.317  31.687   6.589
 4785POPC   C3B60549   7.149  31.867   6.917
 4785POPC   C4B60550   7.132  32.050   7.276
 4786POPC   NC360551  18.633  30.106   5.294
 4786POPC   PO460552  19.265  29.753   5.466
 4786POPC   GL160553  18.909  29.951   5.732
 4786POPC   GL260554  18.955  29.760   6.005
 4786POPC   C1A60555  18.844  30.256   6.112
 4786POPC   D2A60556  18.794  30.142   6.555
 4786POPC   C3A60557  19.132  30.201   6.876
 4786POPC   C4A60558  18.908  30.171   7.273
 4786POPC   C1B60559  19.209  29.927   6.308
 4786POPC   C2B60560  19.461  29.761   6.600
 4786POPC   C3B60561  19.443  29.650   6.970
 4786POPC   C4B60562  19.299  29.840   7.331
 4787POPC   NC360563  43.500  40.217   5.331
 4787POPC   PO460564  42.897  40.088   5.251
 4787POPC   GL160565  43.151  39.987   5.675
 4787POPC   GL260566  43.275  39.647   5.786
 4787POPC   C1A60567  43.132  39.992   6.154
 4787POPC   D2A60568  42.851  39.957   6.536
 4787POPC   C3A60569  42.956  39.934   6.979
 4787POPC   C4A60570  43.195  40.071   7.338
 4787POPC   C1B60571  43.344  39.541   6.223
 4787POPC   C2B60572  43.300  39.650   6.695
 4787POPC   C3B60573  43.306  39.618   7.171
 4787POPC   C4B60574  43.508  39.779   7.584
 4788POPC   NC360575  13.914  29.724   5.496
 4788POPC   PO460576  13.341  30.146   5.337
 4788POPC   GL160577  13.561  30.036   5.686
 4788POPC   GL260578  13.426  29.720   5.730
 4788POPC   C1A60579  13.608  30.029   6.135
 4788POPC   D2A60580  13.483  30.312   6.465
 4788POPC   C3A60581  13.548  30.254   6.896
 4788POPC   C4A60582  13.599  30.143   7.336
 4788POPC   C1B60583  13.333  29.609   6.158
 4788POPC   C2B60584  13.369  29.784   6.600
 4788POPC   C3B60585  13.618  29.720   7.004
 4788POPC   C4B60586  13.427  29.544   7.380
 4789POPC   NC360587  42.295  11.505   5.087
 4789POPC   PO460588  42.019  11.243   5.612
 4789POPC   GL160589  42.307  11.378   5.853
 4789POPC   GL260590  42.485  11.053   5.783
 4789POPC   C1A60591  42.196  11.560   6.251
 4789POPC   D2A60592  42.300  11.870   6.547
 4789POPC   C3A60593  42.434  11.719   6.905
 4789POPC   C4A60594  42.271  11.593   7.253
 4789POPC   C1B60595  42.322  11.009   6.211
 4789POPC   C2B60596  42.255  11.165   6.640
 4789POPC   C3B60597  42.152  11.116   7.081
 4789POPC   C4B60598  42.385  11.143   7.474
 4790POPC   NC360599  25.311  26.887   5.429
 4790POPC   PO460600  24.815  27.215   5.636
 4790POPC   GL160601  25.095  27.025   5.892
 4790POPC   GL260602  25.145  26.689   5.880
 4790POPC   C1A60603  25.412  27.015   6.192
 4790POPC   D2A60604  25.459  26.768   6.561
 4790POPC   C3A60605  25.285  26.978   6.919
 4790POPC   C4A60606  25.533  27.154   7.259
 4790POPC   C1B60607  25.070  26.507   6.316
 4790POPC   C2B60608  25.092  26.480   6.781
 4790POPC   C3B60609  24.829  26.421   7.192
 4790POPC   C4B60610  24.900  26.676   7.588
 4791POPC   NC360611  16.938  31.984   5.281
 4791POPC   PO460612  16.684  32.548   5.550
 4791POPC   GL160613  16.830  32.258   5.771
 4791POPC   GL260614  16.552  32.085   5.842
 4791POPC   C1A60615  16.792  32.350   6.208
 4791POPC   D2A60616  16.595  32.587   6.527
 4791POPC   C3A60617  16.755  32.390   6.895
 4791POPC   C4A60618  16.780  32.241   7.299
 4791POPC   C1B60619  16.312  32.201   6.206
 4791POPC   C2B60620  16.488  32.091   6.572
 4791POPC   C3B60621  16.416  31.944   6.947
 4791POPC   C4B60622  16.538  31.822   7.340
 4792POPC   NC360623  23.416  28.334   5.474
 4792POPC   PO460624  24.038  28.648   5.457
 4792POPC   GL160625  23.877  28.421   5.830
 4792POPC   GL260626  23.589  28.599   5.971
 4792POPC   C1A60627  23.757  28.179   6.223
 4792POPC   D2A60628  23.679  28.329   6.663
 4792POPC   C3A60629  23.593  28.079   7.033
 4792POPC   C4A60630  23.474  28.097   7.464
 4792POPC   C1B60631  23.865  28.692   6.330
 4792POPC   C2B60632  24.118  28.606   6.720
 4792POPC   C3B60633  24.007  28.683   7.182
 4792POPC   C4B60634  23.646  28.589   7.444
 4793POPC   NC360635  30.773   5.452   5.521
 4793POPC   PO460636  30.701   4.780   5.306
 4793POPC   GL160637  30.675   5.002   5.765
 4793POPC   GL260638  30.491   5.323   5.895
 4793POPC   C1A60639  30.881   5.133   6.163
 4793POPC   D2A60640  30.897   4.919   6.533
 4793POPC   C3A60641  30.996   5.078   6.920
 4793POPC   C4A60642  30.924   4.898   7.305
 4793POPC   C1B60643  30.544   5.567   6.229
 4793POPC   C2B60644  30.823   5.506   6.526
 4793POPC   C3B60645  30.792   5.555   6.930
 4793POPC   C4B60646  30.860   5.397   7.313
 4794POPC   NC360647  10.497  44.724   5.441
 4794POPC   PO460648  10.584  44.127   5.383
 4794POPC   GL160649  10.776  44.448   5.765
 4794POPC   GL260650  10.780  44.848   5.840
 4794POPC   C1A60651  10.518  44.580   6.165
 4794POPC   D2A60652  10.566  44.524   6.607
 4794POPC   C3A60653  10.660  44.542   7.051
 4794POPC   C4A60654  10.383  44.587   7.389
 4794POPC   C1B60655  10.855  44.961   6.288
 4794POPC   C2B60656  10.819  44.961   6.757
 4794POPC   C3B60657  10.884  44.984   7.203
 4794POPC   C4B60658  10.727  44.849   7.641
 4795POPC   NC360659  10.325  39.733   5.770
 4795POPC   PO460660  10.439  40.282   5.442
 4795POPC   GL160661  10.679  40.266   5.814
 4795POPC   GL260662  10.783  39.928   5.870
 4795POPC   C1A60663  10.506  40.199   6.225
 4795POPC   D2A60664  10.431  40.409   6.594
 4795POPC   C3A60665  10.341  40.220   6.977
 4795POPC   C4A60666  10.478  40.254   7.380
 4795POPC   C1B60667  10.901  39.903   6.279
 4795POPC   C2B60668  10.688  39.943   6.654
 4795POPC   C3B60669  10.834  40.055   7.045
 4795POPC   C4B60670  10.734  39.813   7.381
 4796POPC   NC360671  12.621   8.814   5.445
 4796POPC   PO460672  13.310   9.070   5.314
 4796POPC   GL160673  13.095   8.997   5.734
 4796POPC   GL260674  12.777   9.150   5.797
 4796POPC   C1A60675  12.935   8.764   6.112
 4796POPC   D2A60676  12.808   8.705   6.545
 4796POPC   C3A60677  12.792   9.077   6.771
 4796POPC   C4A60678  12.667   9.023   7.164
 4796POPC   C1B60679  13.023   9.364   6.119
 4796POPC   C2B60680  12.938   9.521   6.538
 4796POPC   C3B60681  13.145   9.440   6.952
 4796POPC   C4B60682  13.065   9.271   7.367
 4797POPC   NC360683  19.948  41.118   5.514
 4797POPC   PO460684  19.869  40.464   5.444
 4797POPC   GL160685  19.860  40.720   5.832
 4797POPC   GL260686  19.544  40.895   5.802
 4797POPC   C1A60687  19.634  40.656   6.255
 4797POPC   D2A60688  19.804  40.622   6.680
 4797POPC   C3A60689  19.612  40.554   7.094
 4797POPC   C4A60690  19.823  40.733   7.432
 4797POPC   C1B60691  19.690  41.156   6.181
 4797POPC   C2B60692  19.550  41.073   6.592
 4797POPC   C3B60693  19.737  41.055   7.001
 4797POPC   C4B60694  19.524  41.139   7.369
 4798POPC   NC360695   1.810  19.792   5.343
 4798POPC   PO460696   1.940  20.418   5.159
 4798POPC   GL160697   2.065  20.154   5.600
 4798POPC   GL260698   2.287  20.273   5.884
 4798POPC   C1A60699   2.046  19.817   5.981
 4798POPC   D2A60700   1.859  19.713   6.432
 4798POPC   C3A60701   1.999  19.575   6.842
 4798POPC   C4A60702   1.881  19.549   7.251
 4798POPC   C1B60703   2.163  20.153   6.342
 4798POPC   C2B60704   2.157  20.063   6.817
 4798POPC   C3B60705   2.168  19.993   7.269
 4798POPC   C4B60706   2.221  20.148   7.718
 4799POPC   NC360707  24.823  32.173   5.403
 4799POPC   PO460708  25.365  32.520   5.327
 4799POPC   GL160709  25.348  32.360   5.725
 4799POPC   GL260710  25.249  32.010   5.679
 4799POPC   C1A60711  25.307  32.299   6.156
 4799POPC   D2A60712  25.504  32.467   6.512
 4799POPC   C3A60713  25.500  32.255   6.854
 4799POPC   C4A60714  25.343  32.212   7.212
 4799POPC   C1B60715  25.429  31.796   6.049
 4799POPC   C2B60716  25.496  31.888   6.487
 4799POPC   C3B60717  25.252  31.786   6.849
 4799POPC   C4B60718  25.073  31.796   7.254
 4800POPC   NC360719   6.290   1.380   5.396
 4800POPC   PO460720   5.809   0.991   5.647
 4800POPC   GL160721   6.104   1.090   5.895
 4800POPC   GL260722   6.103   1.457   5.899
 4800POPC   C1A60723   6.031   0.866   6.297
 4800POPC   D2A60724   5.759   0.799   6.657
 4800POPC   C3A60725   6.022   0.880   7.017
 4800POPC   C4A60726   6.014   1.141   7.366
 4800POPC   C1B60727   5.894   1.379   6.268
 4800POPC   C2B60728   5.956   1.282   6.647
 4800POPC   C3B60729   5.844   1.468   7.026
 4800POPC   C4B60730   5.990   1.664   7.362
 4801POPC   NC360731   3.448  44.616   5.242
 4801POPC   PO460732   3.190   0.079   5.637
 4801POPC   GL160733   3.374  44.802   5.898
 4801POPC   GL260734   3.613  44.648   5.723
 4801POPC   C1A60735   3.283  44.711   6.306
 4801POPC   D2A60736   3.415  44.771   6.691
 4801POPC   C3A60737   3.200  44.635   7.038
 4801POPC   C4A60738   3.516  44.718   7.376
 4801POPC   C1B60739   3.624  44.403   6.090
 4801POPC   C2B60740   3.781  44.444   6.483
 4801POPC   C3B60741   3.863  44.588   6.887
 4801POPC   C4B60742   3.917  44.394   7.273
 4802POPC   NC360743  20.717   3.286   5.429
 4802POPC   PO460744  20.905   3.935   5.421
 4802POPC   GL160745  20.840   3.721   5.800
 4802POPC   GL260746  20.516   3.580   5.800
 4802POPC   C1A60747  20.818   3.552   6.222
 4802POPC   D2A60748  21.056   3.377   6.528
 4802POPC   C3A60749  20.918   3.486   6.927
 4802POPC   C4A60750  20.810   3.849   7.144
 4802POPC   C1B60751  20.337   3.467   6.220
 4802POPC   C2B60752  20.489   3.422   6.632
 4802POPC   C3B60753  20.407   3.593   6.997
 4802POPC   C4B60754  20.089   3.685   7.205
 4803POPC   NC360755  29.740  19.435   5.435
 4803POPC   PO460756  30.102  18.885   5.398
 4803POPC   GL160757  30.008  19.110   5.766
 4803POPC   GL260758  29.666  19.025   5.755
 4803POPC   C1A60759  30.092  18.947   6.197
 4803POPC   D2A60760  30.035  19.067   6.655
 4803POPC   C3A60761  30.033  18.981   7.109
 4803POPC   C4A60762  29.625  18.893   7.326
 4803POPC   C1B60763  29.599  19.201   6.165
 4803POPC   C2B60764  29.640  19.400   6.558
 4803POPC   C3B60765  29.573  19.235   6.953
 4803POPC   C4B60766  29.771  19.372   7.323
 4804POPC   NC360767  32.487   6.925   5.485
 4804POPC   PO460768  31.960   6.382   5.407
 4804POPC   GL160769  32.139   6.593   5.757
 4804POPC   GL260770  31.968   6.925   5.754
 4804POPC   C1A60771  32.289   6.457   6.188
 4804POPC   D2A60772  32.158   6.287   6.607
 4804POPC   C3A60773  32.342   6.508   6.950
 4804POPC   C4A60774  32.436   6.774   7.278
 4804POPC   C1B60775  32.007   6.918   6.223
 4804POPC   C2B60776  32.003   6.781   6.683
 4804POPC   C3B60777  31.938   6.911   7.120
 4804POPC   C4B60778  31.725   7.008   7.530
 4805POPC   NC360779  42.761  21.052   5.382
 4805POPC   PO460780  42.304  21.491   5.261
 4805POPC   GL160781  42.426  21.454   5.700
 4805POPC   GL260782  42.326  21.108   5.747
 4805POPC   C1A60783  42.380  21.641   6.137
 4805POPC   D2A60784  42.451  21.709   6.607
 4805POPC   C3A60785  42.210  21.462   6.917
 4805POPC   C4A60786  42.070  21.556   7.323
 4805POPC   C1B60787  42.577  21.157   6.130
 4805POPC   C2B60788  42.467  21.186   6.552
 4805POPC   C3B60789  42.668  21.234   6.937
 4805POPC   C4B60790  42.589  21.450   7.293
 4806POPC   NC360791   3.259  20.880   5.413
 4806POPC   PO460792   3.607  20.365   5.216
 4806POPC   GL160793   3.461  20.345   5.663
 4806POPC   GL260794   3.531  20.688   5.811
 4806POPC   C1A60795   3.524  20.272   6.130
 4806POPC   D2A60796   3.761  20.403   6.511
 4806POPC   C3A60797   3.621  20.295   6.921
 4806POPC   C4A60798   3.342  20.541   7.177
 4806POPC   C1B60799   3.292  20.731   6.203
 4806POPC   C2B60800   3.313  20.685   6.654
 4806POPC   C3B60801   3.284  21.000   6.975
 4806POPC   C4B60802   3.145  20.987   7.392
 4807POPC   NC360803  22.502   8.323   5.396
 4807POPC   PO460804  21.797   8.445   5.394
 4807POPC   GL160805  22.115   8.403   5.704
 4807POPC   GL260806  22.168   8.093   5.750
 4807POPC   C1A60807  22.149   8.430   6.179
 4807POPC   D2A60808  22.016   8.269   6.582
 4807POPC   C3A60809  22.158   8.334   6.992
 4807POPC   C4A60810  21.975   8.276   7.446
 4807POPC   C1B60811  22.271   7.868   6.102
 4807POPC   C2B60812  22.090   7.768   6.476
 4807POPC   C3B60813  22.243   7.757   6.888
 4807POPC   C4B60814  22.273   7.921   7.258
 4808POPC   NC360815   7.775  30.847   4.918
 4808POPC   PO460816   7.424  30.474   5.385
 4808POPC   GL160817   7.380  30.760   5.745
 4808POPC   GL260818   7.141  30.608   5.906
 4808POPC   C1A60819   7.479  30.861   6.191
 4808POPC   D2A60820   7.764  30.707   6.494
 4808POPC   C3A60821   7.673  30.740   6.929
 4808POPC   C4A60822   7.426  31.046   7.191
 4808POPC   C1B60823   7.344  30.372   6.234
 4808POPC   C2B60824   7.437  30.342   6.654
 4808POPC   C3B60825   7.267  30.436   7.044
 4808POPC   C4B60826   7.476  30.574   7.385
 4809POPC   NC360827   9.771  26.513   5.074
 4809POPC   PO460828   9.843  27.154   5.318
 4809POPC   GL160829   9.943  27.000   5.752
 4809POPC   GL260830   9.686  26.765   5.811
 4809POPC   C1A60831   9.995  26.830   6.201
 4809POPC   D2A60832   9.700  26.891   6.527
 4809POPC   C3A60833   9.806  27.084   6.930
 4809POPC   C4A60834   9.799  26.976   7.373
 4809POPC   C1B60835   9.589  26.498   6.191
 4809POPC   C2B60836   9.765  26.373   6.581
 4809POPC   C3B60837   9.609  26.592   6.945
 4809POPC   C4B60838   9.542  26.543   7.356
 4810POPC   NC360839  15.829  40.494   5.469
 4810POPC   PO460840  15.981  41.169   5.491
 4810POPC   GL160841  15.877  40.890   5.801
 4810POPC   GL260842  15.514  40.859   5.807
 4810POPC   C1A60843  16.070  40.784   6.173
 4810POPC   D2A60844  15.915  40.943   6.551
 4810POPC   C3A60845  16.188  41.021   6.911
 4810POPC   C4A60846  16.091  41.126   7.353
 4810POPC   C1B60847  15.572  40.650   6.224
 4810POPC   C2B60848  15.671  40.517   6.669
 4810POPC   C3B60849  15.719  40.846   7.012
 4810POPC   C4B60850  15.656  40.796   7.443
 4811POPC   NC360851  27.986  26.018   5.404
 4811POPC   PO460852  27.314  26.197   5.306
 4811POPC   GL160853  27.442  26.180   5.731
 4811POPC   GL260854  27.482  25.824   5.811
 4811POPC   C1A60855  27.519  26.207   6.176
 4811POPC   D2A60856  27.747  26.432   6.482
 4811POPC   C3A60857  27.512  26.430   6.852
 4811POPC   C4A60858  27.528  26.225   7.215
 4811POPC   C1B60859  27.480  25.690   6.258
 4811POPC   C2B60860  27.410  25.935   6.631
 4811POPC   C3B60861  27.412  25.768   7.040
 4811POPC   C4B60862  27.230  25.896   7.440
 4812POPC   NC360863  20.717  16.223   5.502
 4812POPC   PO460864  20.484  16.774   5.205
 4812POPC   GL160865  20.543  16.717   5.657
 4812POPC   GL260866  20.437  16.981   5.851
 4812POPC   C1A60867  20.651  16.569   6.107
 4812POPC   D2A60868  20.836  16.725   6.523
 4812POPC   C3A60869  20.731  16.635   6.956
 4812POPC   C4A60870  20.819  16.820   7.365
 4812POPC   C1B60871  20.295  16.917   6.296
 4812POPC   C2B60872  20.324  16.899   6.763
 4812POPC   C3B60873  20.340  16.963   7.226
 4812POPC   C4B60874  20.379  16.975   7.694
 4813POPC   NC360875  36.654  41.044   5.217
 4813POPC   PO460876  36.034  40.774   5.418
 4813POPC   GL160877  36.092  40.888   5.845
 4813POPC   GL260878  35.873  40.673   5.978
 4813POPC   C1A60879  36.323  40.908   6.243
 4813POPC   D2A60880  36.428  40.727   6.612
 4813POPC   C3A60881  36.104  40.801   6.893
 4813POPC   C4A60882  36.244  40.798   7.309
 4813POPC   C1B60883  35.812  40.736   6.425
 4813POPC   C2B60884  35.640  40.544   6.805
 4813POPC   C3B60885  35.881  40.426   7.189
 4813POPC   C4B60886  35.949  40.522   7.618
 4814POPC   NC360887  35.893  16.715   5.449
 4814POPC   PO460888  36.531  16.843   5.470
 4814POPC   GL160889  36.311  16.589   5.771
 4814POPC   GL260890  36.160  16.900   5.830
 4814POPC   C1A60891  36.329  16.600   6.229
 4814POPC   D2A60892  36.139  16.758   6.610
 4814POPC   C3A60893  36.220  16.861   7.034
 4814POPC   C4A60894  36.175  16.494   7.221
 4814POPC   C1B60895  36.061  17.059   6.163
 4814POPC   C2B60896  35.783  17.074   6.477
 4814POPC   C3B60897  35.720  16.948   6.899
 4814POPC   C4B60898  35.818  17.093   7.294
 4815POPC   NC360899   1.383  15.611   5.619
 4815POPC   PO460900   1.047  16.213   5.395
 4815POPC   GL160901   1.189  16.074   5.759
 4815POPC   GL260902   0.933  15.793   5.809
 4815POPC   C1A60903   1.147  16.192   6.184
 4815POPC   D2A60904   1.017  16.370   6.582
 4815POPC   C3A60905   0.982  16.225   6.987
 4815POPC   C4A60906   1.231  16.043   7.295
 4815POPC   C1B60907   0.760  15.857   6.239
 4815POPC   C2B60908   0.946  15.845   6.650
 4815POPC   C3B60909   1.314  15.733   6.876
 4815POPC   C4B60910   1.291  15.534   7.254
 4816POPC   NC360911  22.742  37.351   5.597
 4816POPC   PO460912  23.103  37.904   5.426
 4816POPC   GL160913  23.145  37.619   5.790
 4816POPC   GL260914  23.400  37.332   5.783
 4816POPC   C1A60915  22.900  37.657   6.206
 4816POPC   D2A60916  22.600  37.781   6.537
 4816POPC   C3A60917  22.703  37.568   6.930
 4816POPC   C4A60918  22.855  37.812   7.270
 4816POPC   C1B60919  23.176  37.232   6.156
 4816POPC   C2B60920  23.020  37.284   6.589
 4816POPC   C3B60921  23.159  37.363   7.007
 4816POPC   C4B60922  23.527  37.378   7.217
 4817POPC   NC360923   6.754  36.012   5.158
 4817POPC   PO460924   7.420  36.022   5.335
 4817POPC   GL160925   7.370  35.975   5.773
 4817POPC   GL260926   7.115  36.220   5.819
 4817POPC   C1A60927   7.387  35.985   6.225
 4817POPC   D2A60928   7.608  36.172   6.530
 4817POPC   C3A60929   7.624  35.959   6.876
 4817POPC   C4A60930   7.412  36.064   7.232
 4817POPC   C1B60931   6.902  35.936   6.090
 4817POPC   C2B60932   6.952  35.819   6.521
 4817POPC   C3B60933   7.130  35.750   6.922
 4817POPC   C4B60934   6.968  35.794   7.337
 4818POPC   NC360935   0.349  23.578   5.467
 4818POPC   PO460936   0.927  23.957   5.688
 4818POPC   GL160937   0.623  23.685   5.880
 4818POPC   GL260938   0.313  23.862   5.884
 4818POPC   C1A60939   0.368  23.401   6.144
 4818POPC   D2A60940   0.517  23.429   6.551
 4818POPC   C3A60941   0.325  23.434   6.926
 4818POPC   C4A60942   0.506  23.607   7.314
 4818POPC   C1B60943   0.424  23.902   6.326
 4818POPC   C2B60944   0.166  23.855   6.690
 4818POPC   C3B60945   0.192  23.931   7.111
 4818POPC   C4B60946   0.487  24.091   7.457
 4819POPC   NC360947  17.380  41.195   5.492
 4819POPC   PO460948  17.277  40.521   5.575
 4819POPC   GL160949  17.618  40.746   5.768
 4819POPC   GL260950  17.732  40.452   5.926
 4819POPC   C1A60951  17.690  40.981   6.182
 4819POPC   D2A60952  17.487  40.899   6.609
 4819POPC   C3A60953  17.536  41.065   7.024
 4819POPC   C4A60954  17.937  41.217   7.182
 4819POPC   C1B60955  17.372  40.571   6.214
 4819POPC   C2B60956  17.259  40.458   6.633
 4819POPC   C3B60957  17.498  40.539   7.009
 4819POPC   C4B60958  17.364  40.554   7.424
 4820POPC   NC360959  33.630  11.972   5.368
 4820POPC   PO460960  34.022  12.563   5.384
 4820POPC   GL160961  33.772  12.355   5.688
 4820POPC   GL260962  33.401  12.371   5.702
 4820POPC   C1A60963  33.850  12.163   6.088
 4820POPC   D2A60964  34.004  12.214   6.507
 4820POPC   C3A60965  33.794  12.008   6.872
 4820POPC   C4A60966  33.690  12.065   7.295
 4820POPC   C1B60967  33.367  12.386   6.152
 4820POPC   C2B60968  33.443  12.249   6.590
 4820POPC   C3B60969  33.371  12.397   7.029
 4820POPC   C4B60970  33.441  12.455   7.494
 4821POPC   NC360971  27.457  35.473   5.164
 4821POPC   PO460972  26.792  35.435   5.297
 4821POPC   GL160973  26.998  35.454   5.707
 4821POPC   GL260974  27.017  35.149   5.914
 4821POPC   C1A60975  26.882  35.597   6.116
 4821POPC   D2A60976  26.651  35.588   6.503
 4821POPC   C3A60977  26.857  35.406   6.842
 4821POPC   C4A60978  26.751  35.541   7.294
 4821POPC   C1B60979  26.841  35.104   6.323
 4821POPC   C2B60980  26.549  34.980   6.645
 4821POPC   C3B60981  26.586  35.072   7.090
 4821POPC   C4B60982  27.014  35.102   7.232
 4822POPC   NC360983   8.650  43.523   5.319
 4822POPC   PO460984   8.949  42.904   5.404
 4822POPC   GL160985   8.928  43.034   5.828
 4822POPC   GL260986   8.849  43.301   5.754
 4822POPC   C1A60987   9.001  42.970   6.284
 4822POPC   D2A60988   8.940  43.076   6.709
 4822POPC   C3A60989   9.217  42.918   6.996
 4822POPC   C4A60990   9.161  42.747   7.409
 4822POPC   C1B60991   8.911  43.477   6.163
 4822POPC   C2B60992   8.703  43.473   6.514
 4822POPC   C3B60993   8.750  43.513   6.916
 4822POPC   C4B60994   8.599  43.565   7.297
 4823POPC   NC360995  28.915  41.786   5.633
 4823POPC   PO460996  28.260  41.479   5.466
 4823POPC   GL160997  28.322  41.433   5.893
 4823POPC   GL260998  28.620  41.482   5.899
 4823POPC   C1A60999  28.404  41.377   6.353
 4823POPC   D2A61000  28.369  41.278   6.768
 4823POPC   C3A61001  28.371  41.556   7.042
 4823POPC   C4A61002  28.523  41.526   7.393
 4823POPC   C1B61003  28.773  41.708   6.259
 4823POPC   C2B61004  28.778  41.607   6.722
 4823POPC   C3B61005  28.863  41.781   7.114
 4823POPC   C4B61006  28.618  42.004   7.449
 4824POPC   NC361007   8.197  12.431   5.078
 4824POPC   PO461008   7.965  11.905   5.446
 4824POPC   GL161009   8.235  11.916   5.827
 4824POPC   GL261010   8.532  12.177   5.839
 4824POPC   C1A61011   8.400  11.874   6.259
 4824POPC   D2A61012   8.586  12.109   6.591
 4824POPC   C3A61013   8.400  12.037   6.983
 4824POPC   C4A61014   8.234  11.694   7.202
 4824POPC   C1B61015   8.277  12.365   6.184
 4824POPC   C2B61016   8.204  12.432   6.592
 4824POPC   C3B61017   8.097  12.440   6.986
 4824POPC   C4B61018   8.019  12.367   7.405
 4825POPC   NC361019   2.496  27.269   5.470
 4825POPC   PO461020   2.883  26.737   5.288
 4825POPC   GL161021   2.917  26.706   5.748
 4825POPC   GL261022   2.766  27.040   5.843
 4825POPC   C1A61023   2.754  26.653   6.184
 4825POPC   D2A61024   2.988  26.762   6.556
 4825POPC   C3A61025   2.833  26.621   6.932
 4825POPC   C4A61026   3.010  26.735   7.322
 4825POPC   C1B61027   2.622  27.213   6.263
 4825POPC   C2B61028   2.573  27.044   6.711
 4825POPC   C3B61029   2.651  27.057   7.174
 4825POPC   C4B61030   2.400  27.080   7.598
 4826POPC   NC361031  21.694  32.544   5.621
 4826POPC   PO461032  21.336  31.993   5.562
 4826POPC   GL161033  21.314  32.228   5.904
 4826POPC   GL261034  20.964  32.331   5.882
 4826POPC   C1A61035  21.516  32.249   6.307
 4826POPC   D2A61036  21.601  32.588   6.605
 4826POPC   C3A61037  21.670  32.560   7.055
 4826POPC   C4A61038  21.616  32.205   7.323
 4826POPC   C1B61039  20.973  32.064   6.265
 4826POPC   C2B61040  21.201  32.040   6.658
 4826POPC   C3B61041  21.197  32.263   7.046
 4826POPC   C4B61042  21.127  32.075   7.458
 4827POPC   NC361043  31.035   4.587   5.587
 4827POPC   PO461044  31.660   4.402   5.352
 4827POPC   GL161045  31.737   4.365   5.806
 4827POPC   GL261046  31.368   4.301   5.871
 4827POPC   C1A61047  31.657   4.418   6.274
 4827POPC   D2A61048  31.379   4.185   6.573
 4827POPC   C3A61049  31.457   4.224   7.020
 4827POPC   C4A61050  31.814   4.483   7.150
 4827POPC   C1B61051  31.022   4.224   6.204
 4827POPC   C2B61052  30.923   4.396   6.642
 4827POPC   C3B61053  30.965   4.412   7.103
 4827POPC   C4B61054  30.937   4.465   7.578
 4828POPC   NC361055  14.466  30.253   5.284
 4828POPC   PO461056  14.866  30.742   5.574
 4828POPC   GL161057  14.464  30.673   5.794
 4828POPC   GL261058  14.078  30.654   5.746
 4828POPC   C1A61059  14.379  30.567   6.208
 4828POPC   D2A61060  14.425  30.295   6.515
 4828POPC   C3A61061  14.399  30.411   6.939
 4828POPC   C4A61062  14.404  30.625   7.320
 4828POPC   C1B61063  14.013  30.949   6.121
 4828POPC   C2B61064  14.144  30.925   6.561
 4828POPC   C3B61065  14.242  31.009   7.000
 4828POPC   C4B61066  14.039  30.969   7.414
 4829POPC   NC361067  39.875  28.832   5.530
 4829POPC   PO461068  40.170  29.437   5.419
 4829POPC   GL161069  39.984  29.271   5.789
 4829POPC   GL261070  40.259  29.021   5.803
 4829POPC   C1A61071  39.735  29.188   6.169
 4829POPC   D2A61072  39.833  28.924   6.535
 4829POPC   C3A61073  39.797  29.069   6.951
 4829POPC   C4A61074  39.961  28.833   7.312
 4829POPC   C1B61075  40.234  29.023   6.232
 4829POPC   C2B61076  40.502  29.170   6.560
 4829POPC   C3B61077  40.309  29.091   6.941
 4829POPC   C4B61078  40.357  29.139   7.367
 4830POPC   NC361079  34.302  42.971   5.202
 4830POPC   PO461080  34.902  43.192   5.371
 4830POPC   GL161081  34.570  43.000   5.702
 4830POPC   GL261082  34.330  43.288   5.804
 4830POPC   C1A61083  34.461  42.908   6.181
 4830POPC   D2A61084  34.618  42.731   6.592
 4830POPC   C3A61085  34.535  42.938   7.015
 4830POPC   C4A61086  34.857  43.245   7.154
 4830POPC   C1B61087  34.554  43.411   6.182
 4830POPC   C2B61088  34.640  43.270   6.603
 4830POPC   C3B61089  34.454  43.456   6.953
 4830POPC   C4B61090  34.401  43.323   7.386
 4831POPC   NC361091  23.727  33.298   5.273
 4831POPC   PO461092  23.824  32.656   5.216
 4831POPC   GL161093  23.717  32.793   5.649
 4831POPC   GL261094  23.980  32.726   5.851
 4831POPC   C1A61095  23.532  32.995   6.017
 4831POPC   D2A61096  23.494  32.995   6.464
 4831POPC   C3A61097  23.756  33.166   6.767
 4831POPC   C4A61098  23.619  33.100   7.170
 4831POPC   C1B61099  24.018  32.956   6.233
 4831POPC   C2B61100  24.008  32.759   6.594
 4831POPC   C3B61101  23.806  32.677   6.944
 4831POPC   C4B61102  23.893  32.657   7.322
 4832POPC   NC361103  29.997   3.069   5.259
 4832POPC   PO461104  29.560   3.337   5.665
 4832POPC   GL161105  29.766   3.425   6.021
 4832POPC   GL261106  30.078   3.573   5.947
 4832POPC   C1A61107  29.912   3.391   6.445
 4832POPC   D2A61108  30.257   3.509   6.724
 4832POPC   C3A61109  30.085   3.377   7.112
 4832POPC   C4A61110  29.705   3.228   6.970
 4832POPC   C1B61111  29.988   3.866   6.279
 4832POPC   C2B61112  29.717   3.920   6.617
 4832POPC   C3B61113  29.738   3.757   7.000
 4832POPC   C4B61114  30.018   3.822   7.340
 4833POPC   NC361115   8.072  11.446   5.406
 4833POPC   PO461116   8.739  11.274   5.495
 4833POPC   GL161117   8.383  11.395   5.836
 4833POPC   GL261118   8.124  11.153   5.852
 4833POPC   C1A61119   8.112  11.469   6.258
 4833POPC   D2A61120   8.237  11.496   6.725
 4833POPC   C3A61121   7.979  11.271   7.080
 4833POPC   C4A61122   7.969  11.395   7.526
 4833POPC   C1B61123   8.426  11.057   6.239
 4833POPC   C2B61124   8.390  11.013   6.737
 4833POPC   C3B61125   8.451  11.161   7.214
 4833POPC   C4B61126   8.658  11.006   7.663
 4834POPC   NC361127  44.813  39.959   5.396
 4834POPC   PO461128  44.186  39.881   5.549
 4834POPC   GL161129  44.557  40.027   5.823
 4834POPC   GL261130  44.919  39.807   5.857
 4834POPC   C1A61131  44.472  40.171   6.227
 4834POPC   D2A61132  44.285  40.079   6.613
 4834POPC   C3A61133  44.582  40.232   6.878
 4834POPC   C4A61134  44.667  40.200   7.286
 4834POPC   C1B61135  44.706  39.712   6.196
 4834POPC   C2B61136  44.746  39.850   6.581
 4834POPC   C3B61137  44.648  39.734   6.993
 4834POPC   C4B61138  44.946  39.653   7.298
 4835POPC   NC361139  24.041   3.418   5.259
 4835POPC   PO461140  23.546   3.834   5.309
 4835POPC   GL161141  23.718   3.618   5.657
 4835POPC   GL261142  23.908   3.878   5.794
 4835POPC   C1A61143  23.651   3.413   6.065
 4835POPC   D2A61144  23.373   3.418   6.444
 4835POPC   C3A61145  23.620   3.307   6.818
 4835POPC   C4A61146  23.618   3.460   7.220
 4835POPC   C1B61147  23.663   3.912   6.190
 4835POPC   C2B61148  23.765   3.770   6.622
 4835POPC   C3B61149  23.982   3.780   7.061
 4835POPC   C4B61150  23.942   3.756   7.556
 4836POPC   NC361151  28.707  28.385   5.273
 4836POPC   PO461152  28.254  28.898   5.403
 4836POPC   GL161153  28.345  28.741   5.851
 4836POPC   GL261154  28.578  28.440   5.913
 4836POPC   C1A61155  28.177  28.532   6.262
 4836POPC   D2A61156  27.914  28.389   6.634
 4836POPC   C3A61157  28.080  28.489   7.050
 4836POPC   C4A61158  28.270  28.197   7.367
 4836POPC   C1B61159  28.487  28.096   6.236
 4836POPC   C2B61160  28.374  28.126   6.686
 4836POPC   C3B61161  28.629  28.313   7.021
 4836POPC   C4B61162  28.787  28.080   7.362
 4837POPC   NC361163  20.838  26.816   5.363
 4837POPC   PO461164  20.161  26.589   5.409
 4837POPC   GL161165  20.498  26.613   5.710
 4837POPC   GL261166  20.533  26.958   5.825
 4837POPC   C1A61167  20.671  26.594   6.132
 4837POPC   D2A61168  20.794  26.660   6.545
 4837POPC   C3A61169  20.475  26.801   6.808
 4837POPC   C4A61170  20.599  26.715   7.204
 4837POPC   C1B61171  20.868  27.055   6.177
 4837POPC   C2B61172  20.833  27.177   6.640
 4837POPC   C3B61173  20.888  27.110   7.128
 4837POPC   C4B61174  20.761  27.163   7.599
 4838POPC   NC361175   6.267  30.451   5.417
 4838POPC   PO461176   6.614  29.925   5.179
 4838POPC   GL161177   6.524  30.025   5.689
 4838POPC   GL261178   6.695  30.317   5.789
 4838POPC   C1A61179   6.509  29.909   6.179
 4838POPC   D2A61180   6.684  29.823   6.635
 4838POPC   C3A61181   6.550  29.794   7.112
 4838POPC   C4A61182   6.310  29.755   7.572
 4838POPC   C1B61183   6.790  30.435   6.208
 4838POPC   C2B61184   6.915  30.334   6.599
 4838POPC   C3B61185   6.751  30.359   6.984
 4838POPC   C4B61186   6.826  30.318   7.402
 4839POPC   NC361187  35.650  35.855   5.372
 4839POPC   PO461188  35.043  36.177   5.539
 4839POPC   GL161189  35.208  35.945   5.862
 4839POPC   GL261190  35.563  35.912   5.860
 4839POPC   C1A61191  35.347  36.101   6.288
 4839POPC   D2A61192  35.503  36.362   6.631
 4839POPC   C3A61193  35.183  36.291   6.946
 4839POPC   C4A61194  35.126  35.916   7.219
 4839POPC   C1B61195  35.699  35.733   6.231
 4839POPC   C2B61196  35.696  35.867   6.657
 4839POPC   C3B61197  35.618  36.027   7.074
 4839POPC   C4B61198  35.522  36.009   7.524
 4840POPC   NC361199   7.384  23.199   5.274
 4840POPC   PO461200   7.308  22.596   5.291
 4840POPC   GL161201   7.415  22.881   5.672
 4840POPC   GL261202   7.191  23.181   5.761
 4840POPC   C1A61203   7.421  22.808   6.125
 4840POPC   D2A61204   7.191  23.001   6.467
 4840POPC   C3A61205   7.399  22.887   6.846
 4840POPC   C4A61206   7.405  22.968   7.274
 4840POPC   C1B61207   7.458  23.322   6.117
 4840POPC   C2B61208   7.642  23.237   6.529
 4840POPC   C3B61209   7.594  23.359   6.975
 4840POPC   C4B61210   7.700  23.366   7.433
 4841POPC   NC361211  30.998  28.085   5.600
 4841POPC   PO461212  30.449  28.513   5.472
 4841POPC   GL161213  30.597  28.348   5.845
 4841POPC   GL261214  30.451  28.014   5.812
 4841POPC   C1A61215  30.799  28.478   6.231
 4841POPC   D2A61216  30.741  28.653   6.633
 4841POPC   C3A61217  30.596  28.384   6.937
 4841POPC   C4A61218  30.781  28.523   7.288
 4841POPC   C1B61219  30.728  27.949   6.192
 4841POPC   C2B61220  30.985  28.099   6.550
 4841POPC   C3B61221  30.926  27.967   6.969
 4841POPC   C4B61222  30.894  28.033   7.405
 4842POPC   NC361223  36.987  21.957   5.083
 4842POPC   PO461224  37.170  22.334   5.614
 4842POPC   GL161225  36.944  22.036   5.816
 4842POPC   GL261226  37.219  21.757   5.787
 4842POPC   C1A61227  36.655  22.129   6.193
 4842POPC   D2A61228  36.626  22.466   6.575
 4842POPC   C3A61229  36.841  22.350   6.942
 4842POPC   C4A61230  37.181  22.272   7.181
 4842POPC   C1B61231  37.017  21.755   6.212
 4842POPC   C2B61232  36.974  21.986   6.602
 4842POPC   C3B61233  36.839  21.847   7.013
 4842POPC   C4B61234  37.027  21.863   7.430
 4843POPC   NC361235  34.911  39.172   5.474
 4843POPC   PO461236  35.618  39.136   5.411
 4843POPC   GL161237  35.353  39.160   5.821
 4843POPC   GL261238  35.188  39.514   5.807
 4843POPC   C1A61239  35.462  38.974   6.265
 4843POPC   D2A61240  35.735  38.921   6.652
 4843POPC   C3A61241  35.454  38.936   6.994
 4843POPC   C4A61242  35.394  39.283   7.259
 4843POPC   C1B61243  35.141  39.399   6.250
 4843POPC   C2B61244  35.299  39.321   6.651
 4843POPC   C3B61245  35.007  39.395   6.958
 4843POPC   C4B61246  34.972  39.564   7.336
 4844POPC   NC361247   1.348  33.783   5.611
 4844POPC   PO461248   0.791  34.181   5.388
 4844POPC   GL161249   0.878  33.947   5.800
 4844POPC   GL261250   0.936  33.570   5.883
 4844POPC   C1A61251   1.051  34.013   6.236
 4844POPC   D2A61252   0.980  33.963   6.708
 4844POPC   C3A61253   1.209  34.083   7.002
 4844POPC   C4A61254   1.504  33.784   6.966
 4844POPC   C1B61255   1.193  33.505   6.291
 4844POPC   C2B61256   1.107  33.450   6.747
 4844POPC   C3B61257   0.978  33.631   7.149
 4844POPC   C4B61258   1.059  33.482   7.571
 4845POPC   NC361259  29.128  27.384   5.213
 4845POPC   PO461260  28.813  27.935   5.126
 4845POPC   GL161261  29.068  27.674   5.602
 4845POPC   GL261262  29.405  27.795   5.745
 4845POPC   C1A61263  29.083  27.498   6.064
 4845POPC   D2A61264  28.997  27.285   6.485
 4845POPC   C3A61265  28.878  27.582   6.801
 4845POPC   C4A61266  28.913  27.610   7.230
 4845POPC   C1B61267  29.542  27.766   6.169
 4845POPC   C2B61268  29.318  27.733   6.556
 4845POPC   C3B61269  29.355  27.579   6.971
 4845POPC   C4B61270  29.641  27.647   7.260
 4846POPC   NC361271  13.491  42.511   5.465
 4846POPC   PO461272  13.549  41.871   5.201
 4846POPC   GL161273  13.579  42.054   5.691
 4846POPC   GL261274  13.807  42.347   5.834
 4846POPC   C1A61275  13.534  42.075   6.158
 4846POPC   D2A61276  13.776  42.219   6.513
 4846POPC   C3A61277  13.549  42.153   6.885
 4846POPC   C4A61278  13.679  42.072   7.285
 4846POPC   C1B61279  13.562  42.601   6.175
 4846POPC   C2B61280  13.423  42.585   6.624
 4846POPC   C3B61281  13.635  42.599   7.061
 4846POPC   C4B61282  13.648  42.557   7.552
 4847POPC   NC361283  27.843  41.352   5.241
 4847POPC   PO461284  27.915  40.653   5.394
 4847POPC   GL161285  27.793  40.811   5.794
 4847POPC   GL261286  27.452  40.945   5.878
 4847POPC   C1A61287  27.721  40.645   6.203
 4847POPC   D2A61288  27.506  40.795   6.569
 4847POPC   C3A61289  27.725  40.648   6.927
 4847POPC   C4A61290  27.575  40.699   7.316
 4847POPC   C1B61291  27.573  41.157   6.217
 4847POPC   C2B61292  27.538  41.359   6.610
 4847POPC   C3B61293  27.518  41.133   6.988
 4847POPC   C4B61294  27.678  41.184   7.396
 4848POPC   NC361295  16.260  23.724   5.368
 4848POPC   PO461296  15.629  23.417   5.250
 4848POPC   GL161297  15.816  23.591   5.638
 4848POPC   GL261298  15.571  23.532   5.891
 4848POPC   C1A61299  15.974  23.789   6.038
 4848POPC   D2A61300  16.122  23.674   6.458
 4848POPC   C3A61301  15.876  23.649   6.857
 4848POPC   C4A61302  15.982  23.798   7.271
 4848POPC   C1B61303  15.600  23.585   6.352
 4848POPC   C2B61304  15.628  23.245   6.623
 4848POPC   C3B61305  15.704  23.174   7.038
 4848POPC   C4B61306  15.518  23.512   7.234
 4849POPC   NC361307  14.666  13.519   5.438
 4849POPC   PO461308  13.984  13.788   5.445
 4849POPC   GL161309  14.257  13.580   5.761
 4849POPC   GL261310  14.579  13.725   5.893
 4849POPC   C1A61311  14.256  13.519   6.217
 4849POPC   D2A61312  14.497  13.620   6.612
 4849POPC   C3A61313  14.192  13.663   6.948
 4849POPC   C4A61314  14.053  13.305   7.185
 4849POPC   C1B61315  14.783  13.416   6.146
 4849POPC   C2B61316  14.812  13.205   6.535
 4849POPC   C3B61317  14.917  13.327   6.926
 4849POPC   C4B61318  14.673  13.649   7.141
 4850POPC   NC361319  34.471  37.278   5.580
 4850POPC   PO461320  34.755  37.914   5.376
 4850POPC   GL161321  34.712  37.725   5.775
 4850POPC   GL261322  34.919  37.484   5.950
 4850POPC   C1A61323  34.610  37.838   6.186
 4850POPC   D2A61324  34.748  37.693   6.604
 4850POPC   C3A61325  34.539  37.834   6.994
 4850POPC   C4A61326  34.521  37.742   7.460
 4850POPC   C1B61327  34.550  37.342   6.235
 4850POPC   C2B61328  34.232  37.228   6.539
 4850POPC   C3B61329  34.297  37.355   6.979
 4850POPC   C4B61330  34.145  37.252   7.392
 4851POPC   NC361331  23.087   3.596   5.489
 4851POPC   PO461332  22.375   3.333   5.528
 4851POPC   GL161333  22.570   3.512   5.880
 4851POPC   GL261334  22.631   3.848   5.827
 4851POPC   C1A61335  22.824   3.502   6.247
 4851POPC   D2A61336  22.865   3.319   6.664
 4851POPC   C3A61337  23.144   3.413   7.010
 4851POPC   C4A61338  23.259   3.815   7.238
 4851POPC   C1B61339  22.773   4.008   6.263
 4851POPC   C2B61340  22.732   4.064   6.733
 4851POPC   C3B61341  22.725   3.713   7.019
 4851POPC   C4B61342  22.819   3.560   7.406
 4852POPC   NC361343  35.974  42.830   5.342
 4852POPC   PO461344  35.848  43.516   5.354
 4852POPC   GL161345  36.133  43.213   5.701
 4852POPC   GL261346  36.188  42.867   5.804
 4852POPC   C1A61347  36.226  43.265   6.150
 4852POPC   D2A61348  35.987  43.236   6.537
 4852POPC   C3A61349  36.097  43.367   6.960
 4852POPC   C4A61350  36.148  43.069   7.287
 4852POPC   C1B61351  36.255  42.762   6.247
 4852POPC   C2B61352  36.476  42.582   6.601
 4852POPC   C3B61353  36.556  42.746   7.014
 4852POPC   C4B61354  36.464  42.683   7.461
 4853POPC   NC361355  38.636  27.167   5.150
 4853POPC   PO461356  38.745  26.583   5.606
 4853POPC   GL161357  38.537  26.863   5.881
 4853POPC   GL261358  38.194  26.982   5.770
 4853POPC   C1A61359  38.610  26.918   6.322
 4853POPC   D2A61360  38.409  27.037   6.696
 4853POPC   C3A61361  38.418  26.650   6.942
 4853POPC   C4A61362  38.696  26.621   7.266
 4853POPC   C1B61363  38.089  26.898   6.213
 4853POPC   C2B61364  37.896  26.909   6.634
 4853POPC   C3B61365  38.037  26.946   7.062
 4853POPC   C4B61366  38.163  26.731   7.423
 4854POPC   NC361367  32.631  14.982   5.427
 4854POPC   PO461368  31.884  15.194   5.497
 4854POPC   GL161369  32.126  15.042   5.809
 4854POPC   GL261370  32.398  15.289   5.772
 4854POPC   C1A61371  32.321  14.932   6.188
 4854POPC   D2A61372  32.183  14.759   6.608
 4854POPC   C3A61373  32.264  14.976   7.014
 4854POPC   C4A61374  32.127  15.159   7.413
 4854POPC   C1B61375  32.285  15.470   6.153
 4854POPC   C2B61376  32.312  15.316   6.581
 4854POPC   C3B61377  32.356  15.486   6.994
 4854POPC   C4B61378  32.211  15.653   7.369
 4855POPC   NC361379   5.311  31.699   5.408
 4855POPC   PO461380   4.685  31.357   5.361
 4855POPC   GL161381   4.934  31.484   5.750
 4855POPC   GL261382   5.294  31.326   5.782
 4855POPC   C1A61383   5.003  31.754   6.140
 4855POPC   D2A61384   4.936  31.643   6.592
 4855POPC   C3A61385   5.186  31.724   6.997
 4855POPC   C4A61386   4.986  31.636   7.414
 4855POPC   C1B61387   5.066  31.243   6.174
 4855POPC   C2B61388   4.953  31.112   6.587
 4855POPC   C3B61389   4.938  31.262   7.013
 4855POPC   C4B61390   5.152  31.131   7.387
 4856POPC   NC361391  13.701  34.095   5.269
 4856POPC   PO461392  13.336  33.580   5.152
 4856POPC   GL161393  13.358  33.681   5.632
 4856POPC   GL261394  13.546  34.007   5.764
 4856POPC   C1A61395  13.368  33.495   6.077
 4856POPC   D2A61396  13.351  33.421   6.553
 4856POPC   C3A61397  13.597  33.677   6.850
 4856POPC   C4A61398  13.784  33.637   7.271
 4856POPC   C1B61399  13.830  33.949   6.149
 4856POPC   C2B61400  14.011  33.828   6.546
 4856POPC   C3B61401  14.000  33.989   6.942
 4856POPC   C4B61402  13.780  34.158   7.307
 4857POPC   NC361403   3.763  41.525   5.295
 4857POPC   PO461404   3.108  41.583   5.318
 4857POPC   GL161405   3.385  41.410   5.655
 4857POPC   GL261406   3.563  41.693   5.798
 4857POPC   C1A61407   3.399  41.334   6.140
 4857POPC   D2A61408   3.632  41.539   6.500
 4857POPC   C3A61409   3.621  41.456   6.931
 4857POPC   C4A61410   3.577  41.600   7.347
 4857POPC   C1B61411   3.856  41.830   6.141
 4857POPC   C2B61412   4.003  41.883   6.589
 4857POPC   C3B61413   3.824  41.935   7.029
 4857POPC   C4B61414   3.809  42.002   7.505
 4858POPC   NC361415  32.615   7.872   5.331
 4858POPC   PO461416  32.170   7.304   5.457
 4858POPC   GL161417  32.033   7.519   5.829
 4858POPC   GL261418  31.979   7.883   5.805
 4858POPC   C1A61419  31.996   7.551   6.265
 4858POPC   D2A61420  31.944   7.298   6.623
 4858POPC   C3A61421  32.313   7.175   6.880
 4858POPC   C4A61422  32.243   7.280   7.303
 4858POPC   C1B61423  32.366   7.867   6.081
 4858POPC   C2B61424  32.424   7.686   6.523
 4858POPC   C3B61425  32.228   7.671   6.948
 4858POPC   C4B61426  32.447   7.773   7.336
 4859POPC   NC361427  28.800   0.947   5.305
 4859POPC   PO461428  28.280   1.328   5.403
 4859POPC   GL161429  28.330   1.109   5.809
 4859POPC   GL261430  28.656   0.970   5.830
 4859POPC   C1A61431  28.497   1.270   6.226
 4859POPC   D2A61432  28.320   1.535   6.576
 4859POPC   C3A61433  28.301   1.259   6.930
 4859POPC   C4A61434  28.390   1.282   7.366
 4859POPC   C1B61435  28.681   0.777   6.250
 4859POPC   C2B61436  28.593   0.886   6.689
 4859POPC   C3B61437  28.743   1.028   7.098
 4859POPC   C4B61438  28.683   0.895   7.540
 4860POPC   NC361439   5.580   1.398   5.689
 4860POPC   PO461440   4.985   1.091   5.469
 4860POPC   GL161441   5.117   1.209   5.863
 4860POPC   GL261442   5.377   0.982   5.904
 4860POPC   C1A61443   5.106   1.404   6.281
 4860POPC   D2A61444   4.990   1.100   6.593
 4860POPC   C3A61445   5.047   1.206   7.023
 4860POPC   C4A61446   4.845   1.011   7.380
 4860POPC   C1B61447   5.477   1.052   6.309
 4860POPC   C2B61448   5.461   1.228   6.702
 4860POPC   C3B61449   5.543   1.076   7.091
 4860POPC   C4B61450   5.486   1.350   7.399
 4861POPC   NC361451  44.038  15.345   5.121
 4861POPC   PO461452  44.690  15.232   5.331
 4861POPC   GL161453  44.713  15.112   5.730
 4861POPC   GL261454  44.426  14.886   5.771
 4861POPC   C1A61455  44.920  15.249   6.109
 4861POPC   D2A61456  44.985  15.421   6.519
 4861POPC   C3A61457  44.643  15.418   6.803
 4861POPC   C4A61458  44.702  15.318   7.226
 4861POPC   C1B61459  44.629  14.822   6.151
 4861POPC   C2B61460  44.466  14.974   6.536
 4861POPC   C3B61461  44.535  14.878   6.944
 4861POPC   C4B61462  44.425  14.930   7.353
 4862POPC   NC361463  11.314  34.282   4.878
 4862POPC   PO461464  11.177  34.626   5.438
 4862POPC   GL161465  11.326  34.362   5.805
 4862POPC   GL261466  11.570  34.614   5.843
 4862POPC   C1A61467  11.273  34.247   6.266
 4862POPC   D2A61468  11.276  34.512   6.662
 4862POPC   C3A61469  11.262  34.441   7.141
 4862POPC   C4A61470  11.280  34.821   7.410
 4862POPC   C1B61471  11.447  34.762   6.206
 4862POPC   C2B61472  11.662  34.863   6.559
 4862POPC   C3B61473  11.530  34.865   6.962
 4862POPC   C4B61474  11.775  34.966   7.321
 4863POPC   NC361475  39.925  40.172   5.624
 4863POPC   PO461476  40.016  40.812   5.427
 4863POPC   GL161477  39.922  40.902   5.843
 4863POPC   GL261478  40.104  40.609   5.965
 4863POPC   C1A61479  39.854  40.970   6.299
 4863POPC   D2A61480  40.121  40.690   6.583
 4863POPC   C3A61481  39.927  40.386   6.864
 4863POPC   C4A61482  39.720  40.520   7.221
 4863POPC   C1B61483  40.350  40.949   6.161
 4863POPC   C2B61484  40.479  41.095   6.570
 4863POPC   C3B61485  40.295  41.030   6.988
 4863POPC   C4B61486  40.450  40.977   7.416
 4864POPC   NC361487  14.092  24.477   5.480
 4864POPC   PO461488  14.589  24.835   5.576
 4864POPC   GL161489  14.423  24.569   5.889
 4864POPC   GL261490  14.245  24.236   5.892
 4864POPC   C1A61491  14.412  24.741   6.268
 4864POPC   D2A61492  14.597  24.612   6.595
 4864POPC   C3A61493  14.401  24.812   6.898
 4864POPC   C4A61494  14.538  24.703   7.243
 4864POPC   C1B61495  14.163  24.034   6.290
 4864POPC   C2B61496  14.102  24.255   6.647
 4864POPC   C3B61497  14.316  24.317   6.989
 4864POPC   C4B61498  14.259  24.140   7.330
 4865POPC   NC361499  22.584  34.536   5.625
 4865POPC   PO461500  22.005  34.401   5.459
 4865POPC   GL161501  21.910  34.547   5.874
 4865POPC   GL261502  22.085  34.879   5.810
 4865POPC   C1A61503  22.101  34.543   6.309
 4865POPC   D2A61504  22.198  34.890   6.614
 4865POPC   C3A61505  22.419  34.788   6.994
 4865POPC   C4A61506  22.443  34.366   7.171
 4865POPC   C1B61507  21.882  34.994   6.185
 4865POPC   C2B61508  21.609  34.915   6.544
 4865POPC   C3B61509  21.761  34.782   6.930
 4865POPC   C4B61510  21.917  34.672   7.316
 4866POPC   NC361511  31.123  34.482   5.306
 4866POPC   PO461512  31.783  34.248   5.546
 4866POPC   GL161513  31.538  34.463   5.842
 4866POPC   GL261514  31.232  34.314   5.784
 4866POPC   C1A61515  31.397  34.702   6.223
 4866POPC   D2A61516  31.523  34.939   6.587
 4866POPC   C3A61517  31.489  34.760   7.008
 4866POPC   C4A61518  31.768  34.506   7.270
 4866POPC   C1B61519  31.275  34.174   6.203
 4866POPC   C2B61520  31.286  34.351   6.612
 4866POPC   C3B61521  31.398  34.215   7.005
 4866POPC   C4B61522  31.309  34.366   7.401
 4867POPC   NC361523   1.074  26.315   5.097
 4867POPC   PO461524   1.288  26.755   5.525
 4867POPC   GL161525   1.301  26.998   5.896
 4867POPC   GL261526   1.624  27.068   5.840
 4867POPC   C1A61527   1.119  26.979   6.305
 4867POPC   D2A61528   1.047  26.630   6.599
 4867POPC   C3A61529   0.993  26.758   7.032
 4867POPC   C4A61530   1.048  26.628   7.466
 4867POPC   C1B61531   1.745  26.795   6.176
 4867POPC   C2B61532   1.554  26.717   6.574
 4867POPC   C3B61533   1.525  26.697   7.019
 4867POPC   C4B61534   1.348  27.056   7.262
 4868POPC   NC361535  36.781  40.008   5.199
 4868POPC   PO461536  36.843  40.593   5.363
 4868POPC   GL161537  36.823  40.287   5.721
 4868POPC   GL261538  36.878  39.906   5.740
 4868POPC   C1A61539  36.940  40.221   6.169
 4868POPC   D2A61540  36.935  39.993   6.571
 4868POPC   C3A61541  36.862  40.241   6.964
 4868POPC   C4A61542  37.079  40.277   7.360
 4868POPC   C1B61543  36.695  39.685   6.115
 4868POPC   C2B61544  36.605  39.588   6.558
 4868POPC   C3B61545  36.750  39.719   6.996
 4868POPC   C4B61546  37.192  39.851   7.096
 4869POPC   NC361547   9.566  26.368   5.534
 4869POPC   PO461548   9.953  25.885   5.187
 4869POPC   GL161549   9.817  25.839   5.647
 4869POPC   GL261550   9.797  26.136   5.909
 4869POPC   C1A61551   9.483  25.758   5.967
 4869POPC   D2A61552   9.430  26.027   6.327
 4869POPC   C3A61553   9.515  25.930   6.760
 4869POPC   C4A61554   9.460  25.845   7.189
 4869POPC   C1B61555   9.922  25.877   6.281
 4869POPC   C2B61556  10.036  25.953   6.730
 4869POPC   C3B61557   9.869  26.176   7.107
 4869POPC   C4B61558  10.014  26.405   7.513
 4870POPC   NC361559  30.390   9.078   5.622
 4870POPC   PO461560  29.781   8.712   5.432
 4870POPC   GL161561  29.944   8.927   5.804
 4870POPC   GL261562  29.818   9.280   5.820
 4870POPC   C1A61563  30.189   8.811   6.212
 4870POPC   D2A61564  30.005   8.784   6.640
 4870POPC   C3A61565  29.853   9.126   6.918
 4870POPC   C4A61566  29.890   8.922   7.315
 4870POPC   C1B61567  29.924   9.243   6.279
 4870POPC   C2B61568  30.238   9.273   6.637
 4870POPC   C3B61569  30.327   9.163   7.097
 4870POPC   C4B61570  30.398   9.294   7.524
 4871POPC   NC361571  37.978  26.566   5.572
 4871POPC   PO461572  37.483  27.031   5.508
 4871POPC   GL161573  37.682  27.001   5.897
 4871POPC   GL261574  37.670  26.689   5.947
 4871POPC   C1A61575  37.464  26.973   6.321
 4871POPC   D2A61576  37.328  27.212   6.676
 4871POPC   C3A61577  37.551  27.029   7.012
 4871POPC   C4A61578  37.702  27.057   7.437
 4871POPC   C1B61579  37.749  26.523   6.335
 4871POPC   C2B61580  37.625  26.442   6.769
 4871POPC   C3B61581  37.811  26.462   7.162
 4871POPC   C4B61582  37.712  26.554   7.607
 4872POPC   NC361583   4.351  31.381   5.057
 4872POPC   PO461584   4.027  31.573   5.606
 4872POPC   GL161585   4.415  31.415   5.816
 4872POPC   GL261586   4.557  31.076   5.839
 4872POPC   C1A61587   4.556  31.481   6.256
 4872POPC   D2A61588   4.323  31.733   6.608
 4872POPC   C3A61589   4.225  31.557   7.037
 4872POPC   C4A61590   4.521  31.372   7.337
 4872POPC   C1B61591   4.203  31.082   6.166
 4872POPC   C2B61592   4.197  31.250   6.574
 4872POPC   C3B61593   4.428  31.091   6.919
 4872POPC   C4B61594   4.222  30.956   7.290
 4873POPC   NC361595  41.637  32.377   5.504
 4873POPC   PO461596  42.103  32.027   5.682
 4873POPC   GL161597  41.897  32.338   5.938
 4873POPC   GL261598  41.519  32.285   6.001
 4873POPC   C1A61599  41.851  32.373   6.368
 4873POPC   D2A61600  41.756  32.099   6.651
 4873POPC   C3A61601  41.629  32.246   7.006
 4873POPC   C4A61602  41.596  32.120   7.388
 4873POPC   C1B61603  41.328  32.016   6.315
 4873POPC   C2B61604  41.185  32.051   6.737
 4873POPC   C3B61605  41.135  32.134   7.174
 4873POPC   C4B61606  41.308  32.536   7.305
 4874POPC   NC361607  17.855  24.722   5.201
 4874POPC   PO461608  17.255  24.419   5.274
 4874POPC   GL161609  17.437  24.649   5.682
 4874POPC   GL261610  17.522  24.398   5.943
 4874POPC   C1A61611  17.394  24.822   6.156
 4874POPC   D2A61612  17.209  24.583   6.510
 4874POPC   C3A61613  17.306  24.714   6.915
 4874POPC   C4A61614  17.466  24.569   7.273
 4874POPC   C1B61615  17.621  24.278   6.354
 4874POPC   C2B61616  17.649  24.302   6.796
 4874POPC   C3B61617  17.825  24.223   7.198
 4874POPC   C4B61618  17.693  24.322   7.652
 4875POPC   NC361619  29.929  40.294   5.545
 4875POPC   PO461620  29.571  39.706   5.369
 4875POPC   GL161621  29.696  39.868   5.804
 4875POPC   GL261622  30.060  39.880   5.830
 4875POPC   C1A61623  29.632  40.041   6.257
 4875POPC   D2A61624  29.380  39.970   6.669
 4875POPC   C3A61625  29.615  39.902   7.070
 4875POPC   C4A61626  29.724  40.205   7.408
 4875POPC   C1B61627  30.148  40.001   6.263
 4875POPC   C2B61628  30.034  40.080   6.712
 4875POPC   C3B61629  30.217  39.970   7.115
 4875POPC   C4B61630  30.385  39.658   7.412
 4876POPC   NC361631  10.280  21.357   5.356
 4876POPC   PO461632   9.618  21.580   5.434
 4876POPC   GL161633   9.625  21.328   5.833
 4876POPC   GL261634   9.355  21.115   5.928
 4876POPC   C1A61635   9.682  21.425   6.298
 4876POPC   D2A61636   9.837  21.711   6.655
 4876POPC   C3A61637   9.871  21.475   7.054
 4876POPC   C4A61638   9.824  21.016   7.119
 4876POPC   C1B61639   9.215  21.216   6.332
 4876POPC   C2B61640   9.429  21.165   6.718
 4876POPC   C3B61641   9.348  21.257   7.142
 4876POPC   C4B61642   9.430  21.078   7.526
 4877POPC   NC361643  23.094   5.236   5.390
 4877POPC   PO461644  22.436   5.010   5.462
 4877POPC   GL161645  22.730   5.171   5.754
 4877POPC   GL261646  22.998   4.949   5.805
 4877POPC   C1A61647  22.964   5.298   6.160
 4877POPC   D2A61648  22.870   5.134   6.549
 4877POPC   C3A61649  22.983   5.328   6.951
 4877POPC   C4A61650  22.686   5.343   7.291
 4877POPC   C1B61651  23.081   4.778   6.235
 4877POPC   C2B61652  22.989   4.631   6.647
 4877POPC   C3B61653  22.803   4.863   6.974
 4877POPC   C4B61654  22.843   4.881   7.420
 4878POPC   NC361655   8.342  44.926   5.496
 4878POPC   PO461656   7.880  44.410   5.553
 4878POPC   GL161657   8.229  44.522   5.862
 4878POPC   GL261658   8.579  44.279   5.969
 4878POPC   C1A61659   8.193  44.618   6.297
 4878POPC   D2A61660   7.891  44.552   6.620
 4878POPC   C3A61661   7.973  44.698   7.028
 4878POPC   C4A61662   7.708  44.954   7.264
 4878POPC   C1B61663   8.661  44.411   6.357
 4878POPC   C2B61664   8.486  44.608   6.742
 4878POPC   C3B61665   8.413  44.466   7.161
 4878POPC   C4B61666   8.257  44.240   7.507
 4879POPC   NC361667   7.044  11.061   5.525
 4879POPC   PO461668   7.620  11.342   5.319
 4879POPC   GL161669   7.611  11.204   5.770
 4879POPC   GL261670   7.325  11.099   5.954
 4879POPC   C1A61671   7.766  11.089   6.217
 4879POPC   D2A61672   7.740  11.339   6.625
 4879POPC   C3A61673   7.474  11.172   6.982
 4879POPC   C4A61674   7.535  11.183   7.438
 4879POPC   C1B61675   7.404  11.449   6.240
 4879POPC   C2B61676   7.081  11.613   6.495
 4879POPC   C3B61677   7.061  11.661   6.915
 4879POPC   C4B61678   7.137  11.451   7.274
 4880POPC   NC361679  21.931  11.186   5.464
 4880POPC   PO461680  22.405  11.566   5.267
 4880POPC   GL161681  22.317  11.395   5.733
 4880POPC   GL261682  21.975  11.318   5.953
 4880POPC   C1A61683  22.444  11.305   6.168
 4880POPC   D2A61684  22.532  11.552   6.547
 4880POPC   C3A61685  22.492  11.333   6.936
 4880POPC   C4A61686  22.159  11.241   7.223
 4880POPC   C1B61687  21.997  11.003   6.330
 4880POPC   C2B61688  22.030  10.925   6.818
 4880POPC   C3B61689  21.812  10.797   7.245
 4880POPC   C4B61690  21.694  10.891   7.701
 4881POPC   NC361691  21.035  29.767   5.553
 4881POPC   PO461692  20.872  29.083   5.387
 4881POPC   GL161693  20.752  29.369   5.759
 4881POPC   GL261694  20.921  29.445   6.027
 4881POPC   C1A61695  20.387  29.443   6.107
 4881POPC   D2A61696  20.145  29.281   6.508
 4881POPC   C3A61697  20.371  29.303   6.919
 4881POPC   C4A61698  20.475  29.079   7.283
 4881POPC   C1B61699  20.697  29.031   6.120
 4881POPC   C2B61700  20.646  29.096   6.535
 4881POPC   C3B61701  20.920  29.047   6.885
 4881POPC   C4B61702  20.890  29.360   7.191
 4882POPC   NC361703  37.397   5.339   5.519
 4882POPC   PO461704  37.892   4.852   5.471
 4882POPC   GL161705  37.582   4.925   5.781
 4882POPC   GL261706  37.255   4.750   5.718
 4882POPC   C1A61707  37.590   5.160   6.185
 4882POPC   D2A61708  37.291   5.301   6.550
 4882POPC   C3A61709  37.437   5.335   7.008
 4882POPC   C4A61710  37.615   5.368   7.435
 4882POPC   C1B61711  37.390   4.648   6.158
 4882POPC   C2B61712  37.522   4.835   6.563
 4882POPC   C3B61713  37.431   4.672   6.951
 4882POPC   C4B61714  37.545   4.883   7.299
 4883POPC   NC361715  36.674  22.842   5.311
 4883POPC   PO461716  36.130  23.202   5.198
 4883POPC   GL161717  36.193  22.951   5.606
 4883POPC   GL261718  35.942  22.782   5.752
 4883POPC   C1A61719  36.272  23.081   6.087
 4883POPC   D2A61720  36.233  23.180   6.556
 4883POPC   C3A61721  36.315  22.820   6.840
 4883POPC   C4A61722  36.505  22.621   7.189
 4883POPC   C1B61723  35.778  22.936   6.120
 4883POPC   C2B61724  35.935  22.766   6.501
 4883POPC   C3B61725  35.801  22.864   6.922
 4883POPC   C4B61726  35.982  22.665   7.247
 4884POPC   NC361727  13.081   7.045   5.569
 4884POPC   PO461728  13.147   7.698   5.556
 4884POPC   GL161729  12.878   7.469   5.798
 4884POPC   GL261730  12.584   7.353   5.618
 4884POPC   C1A61731  12.999   7.284   6.177
 4884POPC   D2A61732  13.088   7.088   6.550
 4884POPC   C3A61733  13.010   7.345   6.907
 4884POPC   C4A61734  13.230   7.421   7.287
 4884POPC   C1B61735  12.491   7.216   6.052
 4884POPC   C2B61736  12.600   7.259   6.503
 4884POPC   C3B61737  12.531   7.168   6.946
 4884POPC   C4B61738  12.715   7.374   7.329
 4885POPC   NC361739  37.596  33.962   5.268
 4885POPC   PO461740  38.148  33.801   5.296
 4885POPC   GL161741  37.914  33.944   5.711
 4885POPC   GL261742  37.535  34.106   5.767
 4885POPC   C1A61743  37.790  33.921   6.173
 4885POPC   D2A61744  37.901  33.903   6.598
 4885POPC   C3A61745  37.799  33.701   6.949
 4885POPC   C4A61746  37.773  33.926   7.320
 4885POPC   C1B61747  37.292  34.084   6.174
 4885POPC   C2B61748  37.363  33.879   6.584
 4885POPC   C3B61749  37.315  33.851   7.038
 4885POPC   C4B61750  37.304  34.201   7.298
 4886POPC   NC361751   2.154  17.769   5.547
 4886POPC   PO461752   2.058  18.477   5.459
 4886POPC   GL161753   1.847  18.396   5.860
 4886POPC   GL261754   1.632  18.068   5.944
 4886POPC   C1A61755   2.096  18.120   6.138
 4886POPC   D2A61756   2.262  17.917   6.484
 4886POPC   C3A61757   2.141  18.202   6.782
 4886POPC   C4A61758   2.217  18.087   7.153
 4886POPC   C1B61759   1.642  18.327   6.347
 4886POPC   C2B61760   1.676  18.433   6.813
 4886POPC   C3B61761   1.702  18.210   7.200
 4886POPC   C4B61762   1.521  18.337   7.597
 4887POPC   NC361763  44.348  23.798   5.531
 4887POPC   PO461764  44.923  23.385   5.524
 4887POPC   GL161765  44.828  23.657   5.852
 4887POPC   GL261766  44.573  23.924   5.951
 4887POPC   C1A61767  44.943  23.776   6.244
 4887POPC   D2A61768  44.708  24.046   6.516
 4887POPC   C3A61769  44.694  23.869   6.927
 4887POPC   C4A61770  44.614  23.954   7.336
 4887POPC   C1B61771  44.462  23.593   6.233
 4887POPC   C2B61772  44.304  23.703   6.639
 4887POPC   C3B61773  44.233  23.604   7.064
 4887POPC   C4B61774  44.477  23.464   7.388
 4888POPC   NC361775  30.423  41.560   5.389
 4888POPC   PO461776  30.852  41.322   5.753
 4888POPC   GL161777  30.591  41.644   5.857
 4888POPC   GL261778  30.334  41.395   5.871
 4888POPC   C1A61779  30.680  41.903   6.181
 4888POPC   D2A61780  30.542  41.887   6.568
 4888POPC   C3A61781  30.679  41.597   6.879
 4888POPC   C4A61782  30.641  41.468   7.308
 4888POPC   C1B61783  30.237  41.630   6.233
 4888POPC   C2B61784  30.226  41.460   6.624
 4888POPC   C3B61785  30.224  41.355   7.052
 4888POPC   C4B61786  30.081  41.378   7.464
 4889POPC   NC361787  29.844  41.073   4.925
 4889POPC   PO461788  30.131  40.706   5.435
 4889POPC   GL161789  29.823  40.733   5.772
 4889POPC   GL261790  30.052  40.962   5.893
 4889POPC   C1A61791  29.765  40.731   6.249
 4889POPC   D2A61792  29.946  41.031   6.534
 4889POPC   C3A61793  30.001  40.884   6.961
 4889POPC   C4A61794  29.731  40.692   7.258
 4889POPC   C1B61795  30.236  40.587   6.086
 4889POPC   C2B61796  30.247  40.535   6.518
 4889POPC   C3B61797  30.370  40.493   6.924
 4889POPC   C4B61798  30.194  40.475   7.304
 4890POPC   NC361799  26.424  22.460   5.104
 4890POPC   PO461800  25.915  22.087   5.409
 4890POPC   GL161801  26.074  22.068   5.848
 4890POPC   GL261802  26.357  21.928   5.910
 4890POPC   C1A61803  26.187  22.253   6.263
 4890POPC   D2A61804  25.983  22.047   6.628
 4890POPC   C3A61805  25.833  22.210   6.982
 4890POPC   C4A61806  26.194  22.378   7.180
 4890POPC   C1B61807  26.127  21.739   6.249
 4890POPC   C2B61808  26.209  21.605   6.678
 4890POPC   C3B61809  26.204  21.835   7.075
 4890POPC   C4B61810  26.095  21.603   7.409
 4891POPC   NC361811  22.623  14.388   5.347
 4891POPC   PO461812  23.227  14.683   5.464
 4891POPC   GL161813  22.981  14.525   5.801
 4891POPC   GL261814  22.822  14.194   5.814
 4891POPC   C1A61815  22.875  14.604   6.225
 4891POPC   D2A61816  22.901  14.331   6.561
 4891POPC   C3A61817  22.993  14.570   6.899
 4891POPC   C4A61818  23.243  14.545   7.264
 4891POPC   C1B61819  22.552  14.156   6.202
 4891POPC   C2B61820  22.550  13.979   6.633
 4891POPC   C3B61821  22.664  14.115   7.071
 4891POPC   C4B61822  22.607  13.914   7.506
 4892POPC   NC361823  36.112  15.004   5.454
 4892POPC   PO461824  36.246  15.650   5.299
 4892POPC   GL161825  36.158  15.400   5.781
 4892POPC   GL261826  35.884  15.486   5.997
 4892POPC   C1A61827  36.188  15.108   6.139
 4892POPC   D2A61828  35.938  15.226   6.494
 4892POPC   C3A61829  36.081  15.033   6.861
 4892POPC   C4A61830  36.388  15.069   7.184
 4892POPC   C1B61831  36.216  15.605   6.263
 4892POPC   C2B61832  36.106  15.702   6.670
 4892POPC   C3B61833  36.189  15.542   7.083
 4892POPC   C4B61834  36.187  15.418   7.492
 4893POPC   NC361835  42.751  37.483   5.365
 4893POPC   PO461836  43.374  37.322   5.415
 4893POPC   GL161837  43.107  37.470   5.734
 4893POPC   GL261838  43.328  37.471   5.967
 4893POPC   C1A61839  42.886  37.738   6.052
 4893POPC   D2A61840  43.039  37.980   6.399
 4893POPC   C3A61841  42.988  37.780   6.795
 4893POPC   C4A61842  43.115  37.999   7.150
 4893POPC   C1B61843  43.176  37.465   6.375
 4893POPC   C2B61844  43.443  37.515   6.696
 4893POPC   C3B61845  43.377  37.569   7.082
 4893POPC   C4B61846  43.115  37.537   7.433
 4894POPC   NC361847  22.122  28.607   5.394
 4894POPC   PO461848  22.511  28.056   5.470
 4894POPC   GL161849  22.206  28.250   5.760
 4894POPC   GL261850  22.348  28.580   5.869
 4894POPC   C1A61851  22.036  28.298   6.169
 4894POPC   D2A61852  22.177  28.129   6.542
 4894POPC   C3A61853  21.879  28.129   6.880
 4894POPC   C4A61854  21.866  28.468   7.170
 4894POPC   C1B61855  22.320  28.764   6.301
 4894POPC   C2B61856  22.177  28.642   6.728
 4894POPC   C3B61857  22.253  28.780   7.150
 4894POPC   C4B61858  22.279  28.608   7.586
 4895POPC   NC361859  33.259   1.879   5.380
 4895POPC   PO461860  32.651   1.715   5.530
 4895POPC   GL161861  32.892   1.727   5.874
 4895POPC   GL261862  33.117   2.012   5.863
 4895POPC   C1A61863  32.904   1.822   6.319
 4895POPC   D2A61864  32.923   2.023   6.749
 4895POPC   C3A61865  33.017   1.750   7.133
 4895POPC   C4A61866  33.085   1.623   7.594
 4895POPC   C1B61867  33.148   2.278   6.249
 4895POPC   C2B61868  33.349   2.418   6.651
 4895POPC   C3B61869  33.154   2.367   7.049
 4895POPC   C4B61870  32.749   2.441   7.163
 4896POPC   NC361871   2.875  15.086   5.332
 4896POPC   PO461872   2.586  15.558   5.681
 4896POPC   GL161873   2.752  15.130   5.838
 4896POPC   GL261874   2.495  14.873   5.766
 4896POPC   C1A61875   2.889  15.060   6.282
 4896POPC   D2A61876   2.778  15.337   6.633
 4896POPC   C3A61877   2.924  15.267   7.065
 4896POPC   C4A61878   3.050  15.426   7.494
 4896POPC   C1B61879   2.318  15.153   6.121
 4896POPC   C2B61880   2.222  15.313   6.544
 4896POPC   C3B61881   2.380  15.217   6.932
 4896POPC   C4B61882   2.426  14.907   7.190
 4897POPC   NC361883  17.230  13.066   5.548
 4897POPC   PO461884  17.379  12.468   5.180
 4897POPC   GL161885  17.553  12.667   5.679
 4897POPC   GL261886  17.554  13.042   5.908
 4897POPC   C1A61887  17.427  12.638   6.168
 4897POPC   D2A61888  17.057  12.684   6.460
 4897POPC   C3A61889  17.097  12.656   6.953
 4897POPC   C4A61890  17.453  12.598   7.305
 4897POPC   C1B61891  17.265  13.123   6.262
 4897POPC   C2B61892  17.346  13.032   6.701
 4897POPC   C3B61893  17.337  13.081   7.138
 4897POPC   C4B61894  17.709  13.194   7.380
 4898POPC   NC361895   9.796  33.590   5.112
 4898POPC   PO461896   9.591  33.221   5.602
 4898POPC   GL161897   9.713  33.603   5.855
 4898POPC   GL261898   9.857  33.943   5.827
 4898POPC   C1A61899   9.544  33.852   6.240
 4898POPC   D2A61900   9.535  34.030   6.670
 4898POPC   C3A61901   9.507  33.642   6.941
 4898POPC   C4A61902   9.452  33.532   7.375
 4898POPC   C1B61903  10.044  33.926   6.231
 4898POPC   C2B61904   9.955  33.719   6.636
 4898POPC   C3B61905  10.013  33.690   7.086
 4898POPC   C4B61906  10.336  33.944   7.252
 4899POPC   NC361907  13.062  31.277   5.355
 4899POPC   PO461908  12.700  31.869   5.170
 4899POPC   GL161909  12.665  31.663   5.641
 4899POPC   GL261910  12.741  31.299   5.755
 4899POPC   C1A61911  12.662  31.706   6.120
 4899POPC   D2A61912  12.593  31.919   6.553
 4899POPC   C3A61913  12.925  31.813   6.866
 4899POPC   C4A61914  12.816  31.396   6.944
 4899POPC   C1B61915  13.040  31.123   6.071
 4899POPC   C2B61916  13.227  31.167   6.492
 4899POPC   C3B61917  13.241  31.125   6.916
 4899POPC   C4B61918  13.237  31.416   7.249
 4900POPC   NC361919  14.177   8.373   5.313
 4900POPC   PO461920  14.718   7.969   5.220
 4900POPC   GL161921  14.625   8.147   5.668
 4900POPC   GL261922  14.255   8.194   5.797
 4900POPC   C1A61923  14.620   8.462   6.026
 4900POPC   D2A61924  14.282   8.469   6.367
 4900POPC   C3A61925  14.406   8.498   6.833
 4900POPC   C4A61926  14.501   8.452   7.293
 4900POPC   C1B61927  14.442   8.003   6.188
 4900POPC   C2B61928  14.316   8.000   6.626
 4900POPC   C3B61929  14.269   8.064   7.056
 4900POPC   C4B61930  14.574   7.950   7.385
 4901POPC   NC361931  20.242  38.583   5.345
 4901POPC   PO461932  20.826  38.293   5.344
 4901POPC   GL161933  20.709  38.228   5.774
 4901POPC   GL261934  20.558  38.572   5.756
 4901POPC   C1A61935  20.731  38.382   6.212
 4901POPC   D2A61936  20.845  38.303   6.629
 4901POPC   C3A61937  20.694  38.549   6.955
 4901POPC   C4A61938  20.675  38.185   7.169
 4901POPC   C1B61939  20.297  38.674   6.113
 4901POPC   C2B61940  20.375  38.785   6.550
 4901POPC   C3B61941  20.157  38.689   6.929
 4901POPC   C4B61942  20.320  38.513   7.323
 4902POPC   NC361943  19.193  20.060   5.506
 4902POPC   PO461944  19.147  19.389   5.408
 4902POPC   GL161945  19.040  19.688   5.800
 4902POPC   GL261946  18.770  19.946   5.771
 4902POPC   C1A61947  19.117  20.018   6.175
 4902POPC   D2A61948  19.330  20.253   6.559
 4902POPC   C3A61949  19.218  20.151   6.991
 4902POPC   C4A61950  19.111  19.965   7.403
 4902POPC   C1B61951  18.612  19.872   6.153
 4902POPC   C2B61952  18.764  19.889   6.544
 4902POPC   C3B61953  18.791  19.863   6.949
 4902POPC   C4B61954  18.691  20.173   7.189
 4903POPC   NC361955  36.466   0.286   5.554
 4903POPC   PO461956  37.115   0.480   5.428
 4903POPC   GL161957  36.842   0.629   5.795
 4903POPC   GL261958  36.488   0.770   5.752
 4903POPC   C1A61959  36.841   0.510   6.264
 4903POPC   D2A61960  37.179   0.483   6.597
 4903POPC   C3A61961  37.134   0.287   6.994
 4903POPC   C4A61962  36.772   0.113   7.129
 4903POPC   C1B61963  36.632   0.968   6.123
 4903POPC   C2B61964  36.681   0.915   6.552
 4903POPC   C3B61965  36.684   0.557   6.792
 4903POPC   C4B61966  36.733   0.626   7.192
 4904POPC   NC361967  10.735  10.455   5.408
 4904POPC   PO461968  10.042  10.588   5.384
 4904POPC   GL161969  10.304  10.500   5.792
 4904POPC   GL261970  10.655  10.577   5.876
 4904POPC   C1A61971  10.386  10.429   6.264
 4904POPC   D2A61972  10.256  10.726   6.601
 4904POPC   C3A61973  10.398  10.573   6.994
 4904POPC   C4A61974  10.342  10.366   7.396
 4904POPC   C1B61975  10.831  10.740   6.225
 4904POPC   C2B61976  10.763  10.594   6.621
 4904POPC   C3B61977  10.927  10.679   6.996
 4904POPC   C4B61978  10.747  10.714   7.398
 4905POPC   NC361979  38.906  37.840   5.429
 4905POPC   PO461980  38.287  37.834   5.121
 4905POPC   GL161981  38.380  37.869   5.615
 4905POPC   GL261982  38.606  37.596   5.781
 4905POPC   C1A61983  38.363  37.928   6.097
 4905POPC   D2A61984  38.731  37.867   6.402
 4905POPC   C3A61985  38.657  37.887   6.845
 4905POPC   C4A61986  38.366  37.750   7.151
 4905POPC   C1B61987  38.488  37.428   6.205
 4905POPC   C2B61988  38.449  37.196   6.607
 4905POPC   C3B61989  38.536  37.263   7.045
 4905POPC   C4B61990  38.892  37.510   7.187
 4906POPC   NC361991   0.986   6.930   5.050
 4906POPC   PO461992   1.030   7.606   5.164
 4906POPC   GL161993   1.117   7.632   5.641
 4906POPC   GL261994   1.101   7.268   5.728
 4906POPC   C1A61995   1.172   7.643   6.114
 4906POPC   D2A61996   1.436   7.493   6.469
 4906POPC   C3A61997   1.326   7.538   6.911
 4906POPC   C4A61998   1.440   7.671   7.334
 4906POPC   C1B61999   0.960   7.156   6.158
 4906POPC   C2B62000   0.938   7.266   6.610
 4906POPC   C3B62001   1.101   7.103   7.028
 4906POPC   C4B62002   1.524   7.098   7.167
 4907POPC   NC362003  20.845  40.707   5.138
 4907POPC   PO462004  20.293  40.904   5.269
 4907POPC   GL162005  20.382  40.916   5.694
 4907POPC   GL262006  20.723  40.917   5.741
 4907POPC   C1A62007  20.315  40.775   6.123
 4907POPC   D2A62008  20.184  40.981   6.516
 4907POPC   C3A62009  20.276  40.727   6.861
 4907POPC   C4A62010  20.314  40.619   7.293
 4907POPC   C1B62011  20.807  40.950   6.218
 4907POPC   C2B62012  20.710  41.028   6.701
 4907POPC   C3B62013  20.861  40.819   7.120
 4907POPC   C4B62014  20.705  40.861   7.564
 4908POPC   NC362015  28.430   4.381   5.414
 4908POPC   PO462016  28.080   3.870   5.527
 4908POPC   GL162017  28.356   4.012   5.825
 4908POPC   GL262018  28.716   4.137   5.781
 4908POPC   C1A62019  28.462   4.012   6.240
 4908POPC   D2A62020  28.652   4.262   6.547
 4908POPC   C3A62021  28.399   4.159   6.885
 4908POPC   C4A62022  28.148   4.040   7.243
 4908POPC   C1B62023  28.564   4.480   6.060
 4908POPC   C2B62024  28.564   4.769   6.417
 4908POPC   C3B62025  28.528   4.719   6.855
 4908POPC   C4B62026  28.456   4.497   7.245
 4909POPC   NC362027   1.324  29.902   5.354
 4909POPC   PO462028   0.870  30.385   5.328
 4909POPC   GL162029   1.077  30.099   5.765
 4909POPC   GL262030   1.267  29.745   5.824
 4909POPC   C1A62031   1.201  30.009   6.254
 4909POPC   D2A62032   1.331  30.036   6.713
 4909POPC   C3A62033   1.066  30.040   7.079
 4909POPC   C4A62034   0.869  29.653   7.162
 4909POPC   C1B62035   1.563  29.664   6.157
 4909POPC   C2B62036   1.768  29.849   6.535
 4909POPC   C3B62037   1.702  29.708   6.982
 4909POPC   C4B62038   1.483  29.836   7.363
 4910POPC   NC362039   4.214   4.937   5.360
 4910POPC   PO462040   4.809   5.108   5.499
 4910POPC   GL162041   4.530   5.244   5.822
 4910POPC   GL262042   4.168   5.222   5.801
 4910POPC   C1A62043   4.509   5.205   6.257
 4910POPC   D2A62044   4.736   4.934   6.541
 4910POPC   C3A62045   4.628   5.057   6.941
 4910POPC   C4A62046   4.324   5.217   7.226
 4910POPC   C1B62047   4.082   4.911   6.142
 4910POPC   C2B62048   4.140   4.970   6.609
 4910POPC   C3B62049   4.065   4.784   7.041
 4910POPC   C4B62050   4.043   4.876   7.522
 4911POPC   NC362051  33.106  35.977   5.496
 4911POPC   PO462052  33.192  36.624   5.350
 4911POPC   GL162053  33.099  36.431   5.775
 4911POPC   GL262054  32.726  36.390   5.774
 4911POPC   C1A62055  33.255  36.144   6.153
 4911POPC   D2A62056  33.031  35.888   6.493
 4911POPC   C3A62057  33.052  35.935   6.961
 4911POPC   C4A62058  32.974  35.850   7.412
 4911POPC   C1B62059  32.779  36.295   6.217
 4911POPC   C2B62060  33.046  36.461   6.537
 4911POPC   C3B62061  32.900  36.446   6.956
 4911POPC   C4B62062  32.615  36.167   7.178
 4912POPC   NC362063   4.729  21.830   5.523
 4912POPC   PO462064   4.417  21.205   5.492
 4912POPC   GL162065   4.492  21.473   5.874
 4912POPC   GL262066   4.319  21.238   6.045
 4912POPC   C1A62067   4.426  21.781   6.242
 4912POPC   D2A62068   4.655  21.902   6.605
 4912POPC   C3A62069   4.521  21.619   6.917
 4912POPC   C4A62070   4.299  21.601   7.300
 4912POPC   C1B62071   4.417  21.318   6.469
 4912POPC   C2B62072   4.247  21.175   6.853
 4912POPC   C3B62073   4.403  21.123   7.239
 4912POPC   C4B62074   4.624  21.242   7.601
 4913POPC   NC362075  28.841   4.914   5.430
 4913POPC   PO462076  29.457   5.217   5.609
 4913POPC   GL162077  29.284   5.287   5.992
 4913POPC   GL262078  28.966   5.270   5.866
 4913POPC   C1A62079  29.324   5.291   6.455
 4913POPC   D2A62080  29.209   5.228   6.905
 4913POPC   C3A62081  29.578   5.157   7.197
 4913POPC   C4A62082  29.685   5.382   7.596
 4913POPC   C1B62083  28.794   5.258   6.284
 4913POPC   C2B62084  28.707   5.201   6.724
 4913POPC   C3B62085  28.723   5.232   7.161
 4913POPC   C4B62086  28.795   4.880   7.435
 4914POPC   NC362087   3.852  34.209   5.401
 4914POPC   PO462088   3.538  34.714   5.212
 4914POPC   GL162089   3.457  34.453   5.642
 4914POPC   GL262090   3.117  34.506   5.794
 4914POPC   C1A62091   3.468  34.330   6.110
 4914POPC   D2A62092   3.471  34.562   6.507
 4914POPC   C3A62093   3.394  34.390   6.907
 4914POPC   C4A62094   3.465  34.293   7.327
 4914POPC   C1B62095   3.322  34.834   6.070
 4914POPC   C2B62096   3.525  35.072   6.424
 4914POPC   C3B62097   3.666  34.918   6.829
 4914POPC   C4B62098   3.432  34.812   7.189
 4915POPC   NC362099  38.137   9.793   5.578
 4915POPC   PO462100  38.568  10.217   5.481
 4915POPC   GL162101  38.469  10.013   5.924
 4915POPC   GL262102  38.232   9.701   6.048
 4915POPC   C1A62103  38.452  10.005   6.396
 4915POPC   D2A62104  38.262   9.783   6.735
 4915POPC   C3A62105  38.512   9.865   7.055
 4915POPC   C4A62106  38.902  10.053   7.085
 4915POPC   C1B62107  38.420   9.474   6.362
 4915POPC   C2B62108  38.574   9.295   6.747
 4915POPC   C3B62109  38.453   9.346   7.168
 4915POPC   C4B62110  38.253   9.677   7.433
 4916POPC   NC362111  29.804  44.853   5.235
 4916POPC   PO462112  29.945  44.294   5.543
 4916POPC   GL162113  29.954  44.574   5.835
 4916POPC   GL262114  30.096  44.892   5.673
 4916POPC   C1A62115  29.759  44.642   6.242
 4916POPC   D2A62116  29.738  44.807   6.666
 4916POPC   C3A62117  29.867  44.565   6.958
 4916POPC   C4A62118  29.576  44.386   7.161
 4916POPC   C1B62119  30.210  44.906   6.103
 4916POPC   C2B62120  30.211  44.757   6.490
 4916POPC   C3B62121  30.229  44.913   6.843
 4916POPC   C4B62122  30.093  44.956   7.223
 4917POPC   NC362123  43.046  42.651   5.468
 4917POPC   PO462124  42.750  41.938   5.394
 4917POPC   GL162125  42.992  42.171   5.723
 4917POPC   GL262126  42.753  42.403   5.788
 4917POPC   C1A62127  43.213  42.368   6.107
 4917POPC   D2A62128  43.032  42.420   6.545
 4917POPC   C3A62129  43.262  42.378   6.959
 4917POPC   C4A62130  43.162  42.102   7.318
 4917POPC   C1B62131  42.661  42.329   6.178
 4917POPC   C2B62132  42.641  42.101   6.555
 4917POPC   C3B62133  42.792  42.186   6.952
 4917POPC   C4B62134  42.631  42.209   7.349
 4918POPC   NC362135   8.113  26.668   5.416
 4918POPC   PO462136   8.601  27.082   5.413
 4918POPC   GL162137   8.414  26.999   5.795
 4918POPC   GL262138   8.062  27.000   5.791
 4918POPC   C1A62139   8.261  26.793   6.217
 4918POPC   D2A62140   8.094  26.428   6.499
 4918POPC   C3A62141   8.195  26.473   6.965
 4918POPC   C4A62142   8.449  26.815   7.166
 4918POPC   C1B62143   7.800  27.183   6.101
 4918POPC   C2B62144   7.633  27.141   6.521
 4918POPC   C3B62145   7.844  26.923   6.826
 4918POPC   C4B62146   7.998  27.053   7.207
 4919POPC   NC362147  23.974  34.066   5.307
 4919POPC   PO462148  23.930  34.808   5.420
 4919POPC   GL162149  23.836  34.788   5.859
 4919POPC   GL262150  24.012  34.497   5.838
 4919POPC   C1A62151  23.552  34.527   6.140
 4919POPC   D2A62152  23.448  34.505   6.572
 4919POPC   C3A62153  23.523  34.284   6.945
 4919POPC   C4A62154  23.367  34.476   7.317
 4919POPC   C1B62155  24.021  34.430   6.282
 4919POPC   C2B62156  23.903  34.765   6.583
 4919POPC   C3B62157  23.752  34.744   7.008
 4919POPC   C4B62158  23.878  34.453   7.335
 4920POPC   NC362159   0.679  39.591   5.524
 4920POPC   PO462160   0.618  40.268   5.423
 4920POPC   GL162161   0.407  40.035   5.719
 4920POPC   GL262162   0.123  40.239   5.710
 4920POPC   C1A62163   0.365  39.855   6.129
 4920POPC   D2A62164   0.261  39.766   6.567
 4920POPC   C3A62165   0.606  39.808   6.880
 4920POPC   C4A62166   0.789  39.830   7.312
 4920POPC   C1B62167  44.979  40.226   6.155
 4920POPC   C2B62168   0.042  40.285   6.597
 4920POPC   C3B62169   0.063  40.029   6.953
 4920POPC   C4B62170   0.325  40.015   7.266
 4921POPC   NC362171  43.597  32.782   5.479
 4921POPC   PO462172  43.851  32.133   5.399
 4921POPC   GL162173  43.588  32.304   5.703
 4921POPC   GL262174  43.874  32.412   5.864
 4921POPC   C1A62175  43.475  32.264   6.160
 4921POPC   D2A62176  43.770  32.159   6.510
 4921POPC   C3A62177  43.699  32.157   6.962
 4921POPC   C4A62178  44.007  32.111   7.322
 4921POPC   C1B62179  44.237  32.473   6.156
 4921POPC   C2B62180  44.287  32.655   6.567
 4921POPC   C3B62181  44.180  32.453   6.950
 4921POPC   C4B62182  44.332  32.531   7.362
 4922POPC   NC362183  24.956  21.158   5.289
 4922POPC   PO462184  24.240  21.146   5.368
 4922POPC   GL162185  24.501  21.267   5.719
 4922POPC   GL262186  24.729  21.542   5.711
 4922POPC   C1A62187  24.372  21.476   6.094
 4922POPC   D2A62188  24.481  21.365   6.482
 4922POPC   C3A62189  24.154  21.325   6.735
 4922POPC   C4A62190  24.017  21.618   7.005
 4922POPC   C1B62191  24.882  21.432   6.138
 4922POPC   C2B62192  24.966  21.226   6.555
 4922POPC   C3B62193  24.877  21.421   6.953
 4922POPC   C4B62194  24.488  21.459   7.131
 4923POPC   NC362195  23.217  43.510   5.591
 4923POPC   PO462196  22.663  43.841   5.472
 4923POPC   GL162197  22.856  44.077   5.842
 4923POPC   GL262198  23.214  44.015   5.860
 4923POPC   C1A62199  22.938  44.067   6.280
 4923POPC   D2A62200  22.867  43.772   6.594
 4923POPC   C3A62201  22.960  43.954   7.016
 4923POPC   C4A62202  23.017  43.853   7.478
 4923POPC   C1B62203  23.360  43.789   6.251
 4923POPC   C2B62204  23.335  43.652   6.716
 4923POPC   C3B62205  23.361  43.664   7.157
 4923POPC   C4B62206  23.433  43.624   7.622
 4924POPC   NC362207  21.500  26.427   5.432
 4924POPC   PO462208  21.230  27.049   5.280
 4924POPC   GL162209  21.281  26.853   5.711
 4924POPC   GL262210  21.058  26.579   5.805
 4924POPC   C1A62211  21.577  26.725   6.057
 4924POPC   D2A62212  21.707  26.561   6.482
 4924POPC   C3A62213  21.596  26.653   6.889
 4924POPC   C4A62214  21.800  26.615   7.289
 4924POPC   C1B62215  21.171  26.494   6.235
 4924POPC   C2B62216  21.284  26.880   6.464
 4924POPC   C3B62217  21.305  27.080   6.845
 4924POPC   C4B62218  21.352  26.890   7.275
 4925POPC   NC362219   2.249  20.632   5.497
 4925POPC   PO462220   2.900  20.661   5.232
 4925POPC   GL162221   2.827  20.828   5.668
 4925POPC   GL262222   3.020  20.580   5.775
 4925POPC   C1A62223   2.802  20.866   6.131
 4925POPC   D2A62224   2.842  20.568   6.488
 4925POPC   C3A62225   2.846  20.733   6.933
 4925POPC   C4A62226   2.703  21.082   7.198
 4925POPC   C1B62227   3.021  20.240   6.054
 4925POPC   C2B62228   3.145  20.103   6.469
 4925POPC   C3B62229   3.067  20.250   6.866
 4925POPC   C4B62230   2.815  20.317   7.252
 4926POPC   NC362231  20.228  20.520   5.437
 4926POPC   PO462232  19.605  20.225   5.374
 4926POPC   GL162233  19.878  20.360   5.777
 4926POPC   GL262234  20.001  20.674   5.942
 4926POPC   C1A62235  19.740  20.349   6.228
 4926POPC   D2A62236  19.824  20.568   6.625
 4926POPC   C3A62237  19.702  20.381   7.025
 4926POPC   C4A62238  19.778  20.450   7.471
 4926POPC   C1B62239  20.276  20.824   6.294
 4926POPC   C2B62240  20.335  20.889   6.745
 4926POPC   C3B62241  20.082  20.775   7.093
 4926POPC   C4B62242  20.060  20.865   7.522
 4927POPC   NC362243  33.556  34.982   5.476
 4927POPC   PO462244  34.033  34.529   5.420
 4927POPC   GL162245  33.761  34.523   5.767
 4927POPC   GL262246  33.562  34.784   5.939
 4927POPC   C1A62247  33.980  34.570   6.167
 4927POPC   D2A62248  33.804  34.665   6.588
 4927POPC   C3A62249  33.806  34.343   6.937
 4927POPC   C4A62250  33.966  34.351   7.372
 4927POPC   C1B62251  33.375  35.052   6.256
 4927POPC   C2B62252  33.269  34.953   6.682
 4927POPC   C3B62253  33.486  34.730   7.007
 4927POPC   C4B62254  33.680  34.765   7.386
 4928POPC   NC362255  35.958  44.135   5.546
 4928POPC   PO462256  36.573  43.922   5.482
 4928POPC   GL162257  36.362  43.911   5.821
 4928POPC   GL262258  36.072  43.700   5.817
 4928POPC   C1A62259  36.273  43.941   6.235
 4928POPC   D2A62260  36.279  43.645   6.543
 4928POPC   C3A62261  36.461  43.764   6.918
 4928POPC   C4A62262  36.211  43.888   7.216
 4928POPC   C1B62263  35.786  43.900   6.141
 4928POPC   C2B62264  35.767  44.203   6.472
 4928POPC   C3B62265  35.770  44.172   6.913
 4928POPC   C4B62266  35.727  43.771   7.109
 4929POPC   NC362267  31.984   5.290   5.479
 4929POPC   PO462268  32.441   4.846   5.251
 4929POPC   GL162269  32.324   4.971   5.679
 4929POPC   GL262270  31.969   4.831   5.684
 4929POPC   C1A62271  32.431   5.064   6.122
 4929POPC   D2A62272  32.322   5.286   6.508
 4929POPC   C3A62273  32.312   5.025   6.862
 4929POPC   C4A62274  32.633   4.972   7.121
 4929POPC   C1B62275  31.918   5.090   6.106
 4929POPC   C2B62276  31.822   5.348   6.506
 4929POPC   C3B62277  31.974   5.402   6.963
 4929POPC   C4B62278  31.890   5.082   7.293
 4930POPC   NC362279  32.456  26.938   5.449
 4930POPC   PO462280  31.906  26.445   5.515
 4930POPC   GL162281  32.092  26.749   5.775
 4930POPC   GL262282  32.450  26.703   5.901
 4930POPC   C1A62283  32.051  27.028   6.133
 4930POPC   D2A62284  31.915  27.049   6.555
 4930POPC   C3A62285  32.230  27.012   6.913
 4930POPC   C4A62286  32.426  27.118   7.308
 4930POPC   C1B62287  32.262  26.472   6.243
 4930POPC   C2B62288  32.177  26.562   6.667
 4930POPC   C3B62289  32.468  26.506   7.011
 4930POPC   C4B62290  32.452  26.473   7.453
 4931POPC   NC362291  18.517  33.643   5.295
 4931POPC   PO462292  19.285  33.590   5.365
 4931POPC   GL162293  19.036  33.724   5.686
 4931POPC   GL262294  19.094  33.418   5.855
 4931POPC   C1A62295  19.034  33.915   6.116
 4931POPC   D2A62296  19.258  34.159   6.478
 4931POPC   C3A62297  19.196  34.012   6.922
 4931POPC   C4A62298  19.288  33.696   7.259
 4931POPC   C1B62299  19.217  33.459   6.251
 4931POPC   C2B62300  19.041  33.626   6.613
 4931POPC   C3B62301  18.987  33.394   6.972
 4931POPC   C4B62302  18.887  33.450   7.420
 4932POPC   NC362303  24.663  23.177   5.414
 4932POPC   PO462304  24.600  23.871   5.243
 4932POPC   GL162305  24.515  23.669   5.717
 4932POPC   GL262306  24.720  23.393   5.873
 4932POPC   C1A62307  24.306  23.547   6.158
 4932POPC   D2A62308  24.430  23.622   6.596
 4932POPC   C3A62309  24.224  23.802   6.966
 4932POPC   C4A62310  24.366  23.811   7.372
 4932POPC   C1B62311  24.796  23.273   6.302
 4932POPC   C2B62312  24.721  23.232   6.742
 4932POPC   C3B62313  24.666  23.517   7.073
 4932POPC   C4B62314  24.478  23.322   7.412
 4933POPC   NC362315  42.305   7.555   5.461
 4933POPC   PO462316  41.986   6.965   5.400
 4933POPC   GL162317  42.225   7.161   5.771
 4933POPC   GL262318  42.090   7.497   5.920
 4933POPC   C1A62319  42.467   7.271   6.158
 4933POPC   D2A62320  42.269   7.283   6.571
 4933POPC   C3A62321  42.503   7.298   6.951
 4933POPC   C4A62322  42.394   7.208   7.390
 4933POPC   C1B62323  42.121   7.759   6.315
 4933POPC   C2B62324  41.972   7.664   6.739
 4933POPC   C3B62325  42.080   7.533   7.152
 4933POPC   C4B62326  42.171   7.707   7.562
 4934POPC   NC362327   6.467  37.049   5.354
 4934POPC   PO462328   6.781  36.526   5.558
 4934POPC   GL162329   6.688  36.831   5.851
 4934POPC   GL262330   6.833  37.156   5.822
 4934POPC   C1A62331   6.553  36.895   6.279
 4934POPC   D2A62332   6.868  37.021   6.589
 4934POPC   C3A62333   6.826  36.749   6.956
 4934POPC   C4A62334   6.476  36.867   7.179
 4934POPC   C1B62335   6.646  37.393   6.199
 4934POPC   C2B62336   6.505  37.409   6.622
 4934POPC   C3B62337   6.689  37.301   7.021
 4934POPC   C4B62338   6.950  37.098   7.324
 4935POPC   NC362339  29.731  14.962   5.552
 4935POPC   PO462340  30.069  15.476   5.390
 4935POPC   GL162341  29.867  15.404   5.770
 4935POPC   GL262342  29.708  15.684   5.869
 4935POPC   C1A62343  29.969  15.134   6.133
 4935POPC   D2A62344  30.147  15.008   6.508
 4935POPC   C3A62345  30.200  15.199   6.871
 4935POPC   C4A62346  30.054  15.061   7.212
 4935POPC   C1B62347  29.558  15.423   6.192
 4935POPC   C2B62348  29.624  15.151   6.571
 4935POPC   C3B62349  29.582  15.097   7.025
 4935POPC   C4B62350  29.694  15.418   7.321
 4936POPC   NC362351   8.415  29.654   5.251
 4936POPC   PO462352   7.722  29.633   5.172
 4936POPC   GL162353   7.909  29.709   5.672
 4936POPC   GL262354   8.313  29.700   5.753
 4936POPC   C1A62355   8.019  29.704   6.180
 4936POPC   D2A62356   8.278  29.914   6.547
 4936POPC   C3A62357   8.162  29.922   7.020
 4936POPC   C4A62358   8.232  30.179   7.392
 4936POPC   C1B62359   8.640  29.728   6.103
 4936POPC   C2B62360   8.678  29.564   6.547
 4936POPC   C3B62361   8.542  29.591   6.965
 4936POPC   C4B62362   8.202  29.417   7.214
 4937POPC   NC362363  30.679  27.141   5.518
 4937POPC   PO462364  30.669  26.500   5.374
 4937POPC   GL162365  30.579  26.715   5.786
 4937POPC   GL262366  30.895  26.849   5.886
 4937POPC   C1A62367  30.466  26.884   6.204
 4937POPC   D2A62368  30.571  26.754   6.628
 4937POPC   C3A62369  30.352  26.952   6.948
 4937POPC   C4A62370  30.530  26.989   7.308
 4937POPC   C1B62371  31.143  26.664   6.197
 4937POPC   C2B62372  31.143  26.674   6.622
 4937POPC   C3B62373  30.977  26.666   7.039
 4937POPC   C4B62374  31.096  26.346   7.347
 4938POPC   NC362375  43.024  19.760   5.407
 4938POPC   PO462376  43.424  20.278   5.398
 4938POPC   GL162377  43.275  20.032   5.770
 4938POPC   GL262378  43.200  19.653   5.877
 4938POPC   C1A62379  43.339  20.032   6.206
 4938POPC   D2A62380  43.078  19.906   6.549
 4938POPC   C3A62381  43.283  20.052   6.931
 4938POPC   C4A62382  43.273  19.783   7.255
 4938POPC   C1B62383  42.938  19.395   6.204
 4938POPC   C2B62384  42.784  19.285   6.615
 4938POPC   C3B62385  42.991  19.393   6.995
 4938POPC   C4B62386  42.922  19.279   7.394
 4939POPC   NC362387   3.854   0.741   5.366
 4939POPC   PO462388   3.651   0.050   5.254
 4939POPC   GL162389   3.714   0.165   5.705
 4939POPC   GL262390   3.608   0.498   5.756
 4939POPC   C1A62391   3.590   0.156   6.160
 4939POPC   D2A62392   3.540   0.256   6.580
 4939POPC   C3A62393   3.322   0.612   6.778
 4939POPC   C4A62394   3.293   0.625   7.248
 4939POPC   C1B62395   3.802   0.615   6.146
 4939POPC   C2B62396   3.785   0.699   6.568
 4939POPC   C3B62397   3.784   0.456   6.971
 4939POPC   C4B62398   4.031   0.448   7.291
 4940POPC   NC362399  34.084   3.156   5.589
 4940POPC   PO462400  33.740   3.619   5.184
 4940POPC   GL162401  33.753   3.575   5.606
 4940POPC   GL262402  33.515   3.330   5.646
 4940POPC   C1A62403  33.902   3.591   6.039
 4940POPC   D2A62404  34.163   3.668   6.382
 4940POPC   C3A62405  34.061   3.716   6.826
 4940POPC   C4A62406  34.202   3.603   7.223
 4940POPC   C1B62407  33.450   3.357   6.102
 4940POPC   C2B62408  33.631   3.556   6.473
 4940POPC   C3B62409  33.534   3.700   6.859
 4940POPC   C4B62410  33.682   3.670   7.278
 4941POPC   NC362411  44.888  42.404   5.292
 4941POPC   PO462412  44.265  42.325   5.415
 4941POPC   GL162413  44.528  42.412   5.735
 4941POPC   GL262414  44.523  42.747   5.806
 4941POPC   C1A62415  44.492  42.348   6.167
 4941POPC   D2A62416  44.699  42.271   6.538
 4941POPC   C3A62417  44.512  42.199   6.924
 4941POPC   C4A62418  44.707  42.233   7.321
 4941POPC   C1B62419  44.771  42.767   6.195
 4941POPC   C2B62420  44.783  42.768   6.660
 4941POPC   C3B62421  44.640  42.690   7.094
 4941POPC   C4B62422  44.866  42.726   7.511
 4942POPC   NC362423  42.836  23.454   5.166
 4942POPC   PO462424  43.307  22.997   5.307
 4942POPC   GL162425  43.007  22.994   5.675
 4942POPC   GL262426  43.304  22.934   5.856
 4942POPC   C1A62427  42.856  22.924   6.149
 4942POPC   D2A62428  43.030  22.996   6.597
 4942POPC   C3A62429  42.958  22.841   7.036
 4942POPC   C4A62430  42.956  23.067   7.451
 4942POPC   C1B62431  43.279  23.221   6.211
 4942POPC   C2B62432  43.464  23.270   6.656
 4942POPC   C3B62433  43.260  23.278   7.099
 4942POPC   C4B62434  43.375  23.330   7.587
 4943POPC   NC362435  16.671  26.316   5.634
 4943POPC   PO462436  16.403  25.786   5.293
 4943POPC   GL162437  16.419  25.909   5.811
 4943POPC   GL262438  16.815  26.017   5.980
 4943POPC   C1A62439  16.481  25.844   6.288
 4943POPC   D2A62440  16.776  26.138   6.524
 4943POPC   C3A62441  16.682  26.071   6.948
 4943POPC   C4A62442  16.438  25.745   7.095
 4943POPC   C1B62443  17.141  26.295   6.164
 4943POPC   C2B62444  17.194  26.446   6.591
 4943POPC   C3B62445  17.151  26.217   6.973
 4943POPC   C4B62446  16.943  26.362   7.345
 4944POPC   NC362447  13.358   2.624   5.388
 4944POPC   PO462448  14.033   2.566   5.453
 4944POPC   GL162449  13.854   2.876   5.734
 4944POPC   GL262450  13.513   2.926   5.753
 4944POPC   C1A62451  13.791   3.038   6.160
 4944POPC   D2A62452  13.593   3.010   6.563
 4944POPC   C3A62453  13.744   2.708   6.894
 4944POPC   C4A62454  13.792   2.790   7.319
 4944POPC   C1B62455  13.496   2.643   6.121
 4944POPC   C2B62456  13.430   2.514   6.533
 4944POPC   C3B62457  13.244   2.732   6.863
 4944POPC   C4B62458  13.240   2.651   7.272
 4945POPC   NC362459  32.544  38.631   5.389
 4945POPC   PO462460  31.996  38.161   5.521
 4945POPC   GL162461  32.365  38.290   5.772
 4945POPC   GL262462  32.247  38.652   5.801
 4945POPC   C1A62463  32.412  38.371   6.229
 4945POPC   D2A62464  32.022  38.434   6.526
 4945POPC   C3A62465  32.090  38.291   6.955
 4945POPC   C4A62466  32.403  38.215   7.259
 4945POPC   C1B62467  32.168  38.822   6.209
 4945POPC   C2B62468  32.416  38.759   6.609
 4945POPC   C3B62469  32.440  38.677   7.056
 4945POPC   C4B62470  32.080  38.625   7.373
 4946POPC   NC362471   4.828  20.990   5.456
 4946POPC   PO462472   5.193  21.634   5.426
 4946POPC   GL162473   5.250  21.291   5.715
 4946POPC   GL262474   4.948  21.254   5.867
 4946POPC   C1A62475   5.391  21.389   6.144
 4946POPC   D2A62476   5.368  21.603   6.531
 4946POPC   C3A62477   5.372  21.320   6.864
 4946POPC   C4A62478   5.310  21.414   7.269
 4946POPC   C1B62479   4.873  21.481   6.237
 4946POPC   C2B62480   4.908  21.389   6.656
 4946POPC   C3B62481   4.869  21.251   7.069
 4946POPC   C4B62482   4.837  21.590   7.323
 4947POPC   NC362483   8.492  14.861   5.458
 4947POPC   PO462484   8.172  15.407   5.253
 4947POPC   GL162485   8.111  15.177   5.684
 4947POPC   GL262486   7.768  15.130   5.750
 4947POPC   C1A62487   8.271  15.296   6.137
 4947POPC   D2A62488   8.580  15.402   6.471
 4947POPC   C3A62489   8.408  15.305   6.895
 4947POPC   C4A62490   8.320  15.417   7.323
 4947POPC   C1B62491   7.788  15.148   6.199
 4947POPC   C2B62492   8.008  15.126   6.602
 4947POPC   C3B62493   7.904  15.279   7.039
 4947POPC   C4B62494   7.820  15.377   7.521
 4948POPC   NC362495  13.678  30.490   5.388
 4948POPC   PO462496  13.524  31.129   5.349
 4948POPC   GL162497  13.432  30.883   5.785
 4948POPC   GL262498  13.527  30.515   5.867
 4948POPC   C1A62499  13.515  30.797   6.273
 4948POPC   D2A62500  13.642  30.821   6.711
 4948POPC   C3A62501  13.444  30.712   7.112
 4948POPC   C4A62502  13.617  30.652   7.521
 4948POPC   C1B62503  13.886  30.450   6.183
 4948POPC   C2B62504  13.965  30.444   6.644
 4948POPC   C3B62505  13.932  30.554   7.107
 4948POPC   C4B62506  14.020  30.358   7.547
 4949POPC   NC362507  17.025  31.140   5.202
 4949POPC   PO462508  16.551  30.614   5.369
 4949POPC   GL162509  16.758  30.810   5.742
 4949POPC   GL262510  16.820  30.495   5.857
 4949POPC   C1A62511  16.868  30.813   6.233
 4949POPC   D2A62512  16.735  30.689   6.648
 4949POPC   C3A62513  16.833  30.974   6.983
 4949POPC   C4A62514  16.810  31.027   7.484
 4949POPC   C1B62515  16.544  30.400   6.229
 4949POPC   C2B62516  16.371  30.291   6.654
 4949POPC   C3B62517  16.604  30.365   7.035
 4949POPC   C4B62518  16.861  30.568   7.318
 4950POPC   NC362519   9.311  20.270   5.460
 4950POPC   PO462520   9.590  19.632   5.403
 4950POPC   GL162521   9.612  19.953   5.740
 4950POPC   GL262522   9.582  19.711   5.928
 4950POPC   C1A62523   9.522  20.177   6.174
 4950POPC   D2A62524   9.306  20.091   6.582
 4950POPC   C3A62525   9.529  19.886   6.959
 4950POPC   C4A62526   9.773  20.006   7.343
 4950POPC   C1B62527   9.678  19.462   6.266
 4950POPC   C2B62528   9.781  19.420   6.705
 4950POPC   C3B62529   9.618  19.380   7.107
 4950POPC   C4B62530   9.844  19.516   7.475
 4951POPC   NC362531  35.177  41.507   5.305
 4951POPC   PO462532  35.797  41.745   5.433
 4951POPC   GL162533  35.749  41.534   5.791
 4951POPC   GL262534  35.396  41.456   5.773
 4951POPC   C1A62535  35.681  41.614   6.252
 4951POPC   D2A62536  35.377  41.835   6.552
 4951POPC   C3A62537  35.564  41.867   6.949
 4951POPC   C4A62538  35.690  41.469   7.173
 4951POPC   C1B62539  35.188  41.689   6.093
 4951POPC   C2B62540  34.906  41.579   6.431
 4951POPC   C3B62541  35.005  41.615   6.872
 4951POPC   C4B62542  35.174  41.774   7.261
 4952POPC   NC362543  36.585  22.110   5.457
 4952POPC   PO462544  35.929  22.369   5.419
 4952POPC   GL162545  36.189  22.309   5.739
 4952POPC   GL262546  36.151  21.919   5.688
 4952POPC   C1A62547  36.311  22.522   6.117
 4952POPC   D2A62548  36.215  22.232   6.446
 4952POPC   C3A62549  36.155  22.342   6.855
 4952POPC   C4A62550  36.119  22.198   7.258
 4952POPC   C1B62551  35.974  21.951   6.096
 4952POPC   C2B62552  35.964  21.801   6.534
 4952POPC   C3B62553  35.842  21.927   6.945
 4952POPC   C4B62554  35.809  21.803   7.402
 4953POPC   NC362555  17.858  10.571   5.524
 4953POPC   PO462556  17.232  10.812   5.559
 4953POPC   GL162557  17.261  10.507   5.885
 4953POPC   GL262558  17.584  10.406   5.922
 4953POPC   C1A62559  17.242  10.416   6.325
 4953POPC   D2A62560  17.485  10.536   6.680
 4953POPC   C3A62561  17.299  10.633   7.052
 4953POPC   C4A62562  17.633  10.839   7.255
 4953POPC   C1B62563  17.860  10.499   6.265
 4953POPC   C2B62564  18.053  10.366   6.640
 4953POPC   C3B62565  17.874  10.428   7.033
 4953POPC   C4B62566  17.818  10.399   7.457
 4954POPC   NC362567  25.723  26.957   5.104
 4954POPC   PO462568  25.457  26.461   5.501
 4954POPC   GL162569  25.673  26.787   5.792
 4954POPC   GL262570  26.068  26.873   5.776
 4954POPC   C1A62571  25.850  26.763   6.221
 4954POPC   D2A62572  25.975  26.592   6.622
 4954POPC   C3A62573  25.824  26.829   6.988
 4954POPC   C4A62574  25.752  26.704   7.433
 4954POPC   C1B62575  26.350  26.774   6.142
 4954POPC   C2B62576  26.331  26.957   6.569
 4954POPC   C3B62577  26.348  26.783   6.950
 4954POPC   C4B62578  26.194  26.932   7.319
 4955POPC   NC362579   5.721  30.951   5.227
 4955POPC   PO462580   5.833  30.369   5.467
 4955POPC   GL162581   5.826  30.477   5.867
 4955POPC   GL262582   6.118  30.692   5.836
 4955POPC   C1A62583   5.882  30.613   6.298
 4955POPC   D2A62584   6.105  30.872   6.593
 4955POPC   C3A62585   5.930  30.869   6.992
 4955POPC   C4A62586   5.782  30.475   7.179
 4955POPC   C1B62587   6.289  30.367   6.080
 4955POPC   C2B62588   6.382  30.330   6.512
 4955POPC   C3B62589   6.262  30.479   6.916
 4955POPC   C4B62590   6.305  30.213   7.261
 4956POPC   NC362591  14.095  28.141   5.515
 4956POPC   PO462592  13.420  28.385   5.509
 4956POPC   GL162593  13.672  28.449   5.819
 4956POPC   GL262594  13.662  28.091   5.883
 4956POPC   C1A62595  13.547  28.457   6.237
 4956POPC   D2A62596  13.743  28.353   6.610
 4956POPC   C3A62597  13.451  28.207   6.909
 4956POPC   C4A62598  13.546  28.387   7.282
 4956POPC   C1B62599  13.967  28.107   6.207
 4956POPC   C2B62600  14.081  27.959   6.637
 4956POPC   C3B62601  13.928  28.076   7.058
 4956POPC   C4B62602  13.884  28.051   7.509
 4957POPC   NC362603   4.306  23.385   5.414
 4957POPC   PO462604   4.028  22.814   5.399
 4957POPC   GL162605   4.169  22.792   5.824
 4957POPC   GL262606   3.983  23.096   5.918
 4957POPC   C1A62607   4.411  22.866   6.220
 4957POPC   D2A62608   4.376  23.256   6.477
 4957POPC   C3A62609   4.523  23.206   6.923
 4957POPC   C4A62610   4.673  22.821   7.101
 4957POPC   C1B62611   3.916  22.919   6.336
 4957POPC   C2B62612   4.099  22.842   6.759
 4957POPC   C3B62613   4.155  22.993   7.202
 4957POPC   C4B62614   3.983  23.072   7.632
 4958POPC   NC362615  10.716  21.011   5.459
 4958POPC   PO462616  10.333  21.803   5.386
 4958POPC   GL162617  10.532  21.620   5.784
 4958POPC   GL262618  10.548  21.255   5.871
 4958POPC   C1A62619  10.657  21.716   6.230
 4958POPC   D2A62620  10.432  21.746   6.655
 4958POPC   C3A62621  10.377  21.360   6.919
 4958POPC   C4A62622  10.317  21.353   7.350
 4958POPC   C1B62623  10.821  21.182   6.267
 4958POPC   C2B62624  10.857  21.214   6.753
 4958POPC   C3B62625  10.848  21.305   7.230
 4958POPC   C4B62626  11.113  21.100   7.612
 4959POPC   NC362627  12.057   9.551   5.074
 4959POPC   PO462628  12.442   9.986   5.468
 4959POPC   GL162629  12.063  10.112   5.751
 4959POPC   GL262630  11.832   9.822   5.941
 4959POPC   C1A62631  12.031  10.181   6.211
 4959POPC   D2A62632  12.008   9.898   6.555
 4959POPC   C3A62633  12.280   9.912   6.904
 4959POPC   C4A62634  12.125   9.890   7.284
 4959POPC   C1B62635  11.690   9.574   6.296
 4959POPC   C2B62636  11.846   9.382   6.686
 4959POPC   C3B62637  11.774   9.559   7.101
 4959POPC   C4B62638  11.794   9.548   7.571
 4960POPC   NC362639  31.117  35.853   5.444
 4960POPC   PO462640  31.669  36.225   5.353
 4960POPC   GL162641  31.359  36.257   5.698
 4960POPC   GL262642  31.484  35.949   5.793
 4960POPC   C1A62643  31.442  36.328   6.158
 4960POPC   D2A62644  31.425  36.495   6.587
 4960POPC   C3A62645  31.386  36.222   6.937
 4960POPC   C4A62646  31.387  36.164   7.381
 4960POPC   C1B62647  31.542  35.769   6.177
 4960POPC   C2B62648  31.575  35.945   6.554
 4960POPC   C3B62649  31.635  35.787   6.942
 4960POPC   C4B62650  31.347  35.643   7.231
 4961POPC   NC362651  31.243  19.642   5.408
 4961POPC   PO462652  31.821  19.900   5.367
 4961POPC   GL162653  31.636  19.690   5.736
 4961POPC   GL262654  31.754  19.783   6.031
 4961POPC   C1A62655  31.302  19.596   6.117
 4961POPC   D2A62656  31.158  19.663   6.554
 4961POPC   C3A62657  31.470  19.479   6.821
 4961POPC   C4A62658  31.593  19.560   7.233
 4961POPC   C1B62659  31.529  20.017   6.350
 4961POPC   C2B62660  31.487  19.997   6.779
 4961POPC   C3B62661  31.775  20.019   7.097
 4961POPC   C4B62662  31.746  19.967   7.549
 4962POPC   NC362663  33.170  42.453   5.462
 4962POPC   PO462664  32.516  42.451   5.628
 4962POPC   GL162665  32.926  42.442   5.902
 4962POPC   GL262666  33.152  42.160   5.914
 4962POPC   C1A62667  33.380  42.474   6.217
 4962POPC   D2A62668  33.377  42.335   6.653
 4962POPC   C3A62669  32.970  42.318   6.858
 4962POPC   C4A62670  32.747  42.353   7.265
 4962POPC   C1B62671  32.948  42.265   6.351
 4962POPC   C2B62672  32.579  42.134   6.516
 4962POPC   C3B62673  32.508  42.097   6.909
 4962POPC   C4B62674  32.456  41.902   7.282
 4963POPC   NC362675   8.431   5.809   5.472
 4963POPC   PO462676   7.807   5.873   5.418
 4963POPC   GL162677   8.045   5.711   5.826
 4963POPC   GL262678   8.284   5.987   5.930
 4963POPC   C1A62679   8.161   5.692   6.304
 4963POPC   D2A62680   8.363   5.835   6.664
 4963POPC   C3A62681   8.176   6.025   6.969
 4963POPC   C4A62682   8.260   5.688   7.228
 4963POPC   C1B62683   8.616   5.998   6.265
 4963POPC   C2B62684   8.837   6.182   6.623
 4963POPC   C3B62685   8.702   6.004   7.019
 4963POPC   C4B62686   8.473   6.163   7.353
 4964POPC   NC362687  26.902  24.137   5.268
 4964POPC   PO462688  26.652  23.531   5.114
 4964POPC   GL162689  26.789  23.551   5.583
 4964POPC   GL262690  26.870  23.864   5.689
 4964POPC   C1A62691  26.649  23.526   6.041
 4964POPC   D2A62692  26.658  23.687   6.481
 4964POPC   C3A62693  26.843  23.425   6.822
 4964POPC   C4A62694  26.731  23.325   7.244
 4964POPC   C1B62695  27.028  23.905   6.109
 4964POPC   C2B62696  27.159  23.742   6.503
 4964POPC   C3B62697  27.059  23.865   6.921
 4964POPC   C4B62698  27.282  24.024   7.207
 4965POPC   NC362699  38.063  43.200   5.273
 4965POPC   PO462700  37.443  43.235   5.068
 4965POPC   GL162701  37.582  43.237   5.604
 4965POPC   GL262702  37.915  43.293   5.748
 4965POPC   C1A62703  37.568  43.098   6.090
 4965POPC   D2A62704  37.503  42.881   6.531
 4965POPC   C3A62705  37.524  43.131   6.931
 4965POPC   C4A62706  37.330  43.496   7.136
 4965POPC   C1B62707  37.912  43.477   6.164
 4965POPC   C2B62708  37.873  43.292   6.576
 4965POPC   C3B62709  38.027  43.185   6.997
 4965POPC   C4B62710  37.890  42.822   7.187
 4966POPC   NC362711   1.465  39.524   5.631
 4966POPC   PO462712   1.475  38.989   5.184
 4966POPC   GL162713   1.439  39.012   5.726
 4966POPC   GL262714   1.092  39.025   5.912
 4966POPC   C1A62715   1.455  39.163   6.228
 4966POPC   D2A62716   1.497  39.465   6.626
 4966POPC   C3A62717   1.505  39.266   7.056
 4966POPC   C4A62718   1.228  39.071   7.314
 4966POPC   C1B62719   1.034  39.425   6.167
 4966POPC   C2B62720   0.988  39.592   6.583
 4966POPC   C3B62721   1.070  39.519   7.016
 4966POPC   C4B62722   1.212  39.573   7.444
 4967POPC   NC362723   4.440  20.032   5.194
 4967POPC   PO462724   4.033  19.558   5.435
 4967POPC   GL162725   4.279  19.656   5.815
 4967POPC   GL262726   4.216  19.995   5.836
 4967POPC   C1A62727   4.325  19.698   6.290
 4967POPC   D2A62728   4.458  19.456   6.653
 4967POPC   C3A62729   4.371  19.701   7.006
 4967POPC   C4A62730   4.384  19.784   7.416
 4967POPC   C1B62731   3.979  20.050   6.205
 4967POPC   C2B62732   4.098  20.036   6.675
 4967POPC   C3B62733   4.084  20.122   7.139
 4967POPC   C4B62734   3.955  19.976   7.584
 4968POPC   NC362735  26.540  28.000   5.371
 4968POPC   PO462736  26.475  28.614   5.556
 4968POPC   GL162737  26.811  28.441   5.795
 4968POPC   GL262738  26.852  28.066   5.777
 4968POPC   C1A62739  26.949  28.424   6.224
 4968POPC   D2A62740  26.938  28.117   6.574
 4968POPC   C3A62741  26.991  28.344   6.966
 4968POPC   C4A62742  26.833  28.595   7.309
 4968POPC   C1B62743  26.529  28.118   6.099
 4968POPC   C2B62744  26.404  28.096   6.543
 4968POPC   C3B62745  26.613  27.975   6.932
 4968POPC   C4B62746  26.636  28.132   7.333
 4969POPC   NC362747   2.649  12.450   5.402
 4969POPC   PO462748   2.964  13.081   5.437
 4969POPC   GL162749   2.693  12.841   5.739
 4969POPC   GL262750   2.644  13.112   5.912
 4969POPC   C1A62751   2.590  12.693   6.192
 4969POPC   D2A62752   2.612  12.847   6.633
 4969POPC   C3A62753   2.757  12.583   6.967
 4969POPC   C4A62754   3.152  12.602   7.191
 4969POPC   C1B62755   2.557  13.258   6.308
 4969POPC   C2B62756   2.881  13.284   6.601
 4969POPC   C3B62757   2.915  13.094   6.980
 4969POPC   C4B62758   2.500  13.000   7.134
 4970POPC   NC362759   2.977  15.783   5.574
 4970POPC   PO462760   2.442  15.819   5.203
 4970POPC   GL162761   2.593  16.081   5.701
 4970POPC   GL262762   2.980  16.169   5.894
 4970POPC   C1A62763   2.597  16.033   6.188
 4970POPC   D2A62764   2.337  15.849   6.544
 4970POPC   C3A62765   2.525  15.702   6.942
 4970POPC   C4A62766   2.889  15.792   7.187
 4970POPC   C1B62767   2.962  16.419   6.267
 4970POPC   C2B62768   2.682  16.345   6.615
 4970POPC   C3B62769   2.899  16.269   6.994
 4970POPC   C4B62770   2.893  16.274   7.448
 4971POPC   NC362771  20.105  31.633   5.439
 4971POPC   PO462772  19.562  31.248   5.329
 4971POPC   GL162773  19.632  31.516   5.731
 4971POPC   GL262774  19.968  31.456   5.907
 4971POPC   C1A62775  19.510  31.604   6.179
 4971POPC   D2A62776  19.657  31.641   6.629
 4971POPC   C3A62777  19.657  31.276   6.940
 4971POPC   C4A62778  20.051  31.082   7.133
 4971POPC   C1B62779  20.107  31.590   6.333
 4971POPC   C2B62780  20.305  31.654   6.755
 4971POPC   C3B62781  20.265  31.837   7.186
 4971POPC   C4B62782  20.182  31.872   7.653
 4972POPC   NC362783  41.854  23.371   5.341
 4972POPC   PO462784  41.812  22.761   5.297
 4972POPC   GL162785  41.476  22.824   5.671
 4972POPC   GL262786  41.260  23.116   5.764
 4972POPC   C1A62787  41.381  22.793   6.130
 4972POPC   D2A62788  41.635  22.915   6.482
 4972POPC   C3A62789  41.477  22.710   6.826
 4972POPC   C4A62790  41.463  22.619   7.223
 4972POPC   C1B62791  41.386  23.297   6.171
 4972POPC   C2B62792  41.543  23.412   6.581
 4972POPC   C3B62793  41.657  23.167   6.928
 4972POPC   C4B62794  41.616  23.107   7.351
 4973POPC   NC362795  31.129   4.897   5.145
 4973POPC   PO462796  31.606   5.395   5.246
 4973POPC   GL162797  31.570   5.164   5.714
 4973POPC   GL262798  31.459   4.817   5.783
 4973POPC   C1A62799  31.421   5.219   6.157
 4973POPC   D2A62800  31.302   5.336   6.588
 4973POPC   C3A62801  31.512   5.181   6.935
 4973POPC   C4A62802  31.332   5.207   7.334
 4973POPC   C1B62803  31.250   4.725   6.216
 4973POPC   C2B62804  31.348   4.713   6.694
 4973POPC   C3B62805  31.375   4.725   7.167
 4973POPC   C4B62806  31.314   4.813   7.625
 4974POPC   NC362807   0.628  16.164   5.625
 4974POPC   PO462808   0.059  15.850   5.454
 4974POPC   GL162809   0.269  15.833   5.808
 4974POPC   GL262810   0.173  16.169   5.859
 4974POPC   C1A62811   0.255  15.755   6.237
 4974POPC   D2A62812   0.476  15.600   6.620
 4974POPC   C3A62813   0.495  15.775   7.027
 4974POPC   C4A62814   0.723  15.987   7.348
 4974POPC   C1B62815   0.262  16.263   6.272
 4974POPC   C2B62816   0.526  16.150   6.611
 4974POPC   C3B62817   0.446  16.281   7.010
 4974POPC   C4B62818   0.137  16.133   7.244
 4975POPC   NC362819  21.051  30.098   5.160
 4975POPC   PO462820  20.533  29.728   5.475
 4975POPC   GL162821  20.634  29.868   5.860
 4975POPC   GL262822  20.569  30.176   5.798
 4975POPC   C1A62823  20.663  29.844   6.271
 4975POPC   D2A62824  20.450  29.695   6.581
 4975POPC   C3A62825  20.593  29.756   6.956
 4975POPC   C4A62826  20.333  29.687   7.288
 4975POPC   C1B62827  20.692  30.341   6.183
 4975POPC   C2B62828  20.831  30.221   6.578
 4975POPC   C3B62829  20.857  30.188   6.976
 4975POPC   C4B62830  20.566  30.182   7.247
 4976POPC   NC362831   9.663  25.519   5.090
 4976POPC   PO462832   9.958  25.149   5.492
 4976POPC   GL162833   9.772  25.154   5.845
 4976POPC   GL262834   9.446  25.096   5.769
 4976POPC   C1A62835   9.721  25.374   6.202
 4976POPC   D2A62836   9.751  25.276   6.627
 4976POPC   C3A62837   9.724  25.463   7.002
 4976POPC   C4A62838   9.838  25.241   7.369
 4976POPC   C1B62839   9.329  24.886   6.163
 4976POPC   C2B62840   9.315  25.006   6.600
 4976POPC   C3B62841   9.463  25.034   7.056
 4976POPC   C4B62842   9.359  25.046   7.544
 4977POPC   NC362843  20.195  11.540   5.399
 4977POPC   PO462844  19.865  10.947   5.374
 4977POPC   GL162845  19.749  11.312   5.695
 4977POPC   GL262846  19.943  11.601   5.849
 4977POPC   C1A62847  19.645  11.319   6.177
 4977POPC   D2A62848  19.920  11.135   6.530
 4977POPC   C3A62849  19.786  11.149   6.965
 4977POPC   C4A62850  19.517  11.486   7.139
 4977POPC   C1B62851  20.107  11.578   6.252
 4977POPC   C2B62852  20.092  11.674   6.673
 4977POPC   C3B62853  20.100  11.581   7.103
 4977POPC   C4B62854  19.875  11.738   7.426
 4978POPC   NC362855  40.065  21.738   5.449
 4978POPC   PO462856  40.290  21.037   5.389
 4978POPC   GL162857  40.182  21.324   5.733
 4978POPC   GL262858  39.861  21.371   5.830
 4978POPC   C1A62859  40.295  21.367   6.182
 4978POPC   D2A62860  40.417  21.203   6.578
 4978POPC   C3A62861  40.351  21.419   6.964
 4978POPC   C4A62862  40.035  21.331   7.258
 4978POPC   C1B62863  39.760  21.358   6.242
 4978POPC   C2B62864  39.936  21.496   6.625
 4978POPC   C3B62865  39.735  21.640   6.992
 4978POPC   C4B62866  39.674  21.737   7.467
 4979POPC   NC362867  31.221  44.891   5.485
 4979POPC   PO462868  30.576  44.807   5.356
 4979POPC   GL162869  30.600  44.767   5.806
 4979POPC   GL262870  30.930  44.699   5.849
 4979POPC   C1A62871  30.646  44.657   6.258
 4979POPC   D2A62872  30.717  44.856   6.646
 4979POPC   C3A62873  30.596  44.611   7.018
 4979POPC   C4A62874  30.583  44.863   7.401
 4979POPC   C1B62875  31.118  44.435   6.190
 4979POPC   C2B62876  30.920  44.359   6.584
 4979POPC   C3B62877  31.118  44.496   6.944
 4979POPC   C4B62878  30.980  44.507   7.345
 4980POPC   NC362879   1.682  29.415   5.198
 4980POPC   PO462880   1.756  30.089   5.312
 4980POPC   GL162881   1.771  29.838   5.705
 4980POPC   GL262882   1.621  30.113   5.856
 4980POPC   C1A62883   2.056  29.707   6.087
 4980POPC   D2A62884   2.177  29.540   6.524
 4980POPC   C3A62885   2.195  29.855   6.865
 4980POPC   C4A62886   2.123  29.793   7.284
 4980POPC   C1B62887   1.911  30.232   6.190
 4980POPC   C2B62888   2.043  30.295   6.617
 4980POPC   C3B62889   1.765  30.207   6.972
 4980POPC   C4B62890   1.820  30.239   7.417
 4981POPC   NC362891  21.720  12.095   5.104
 4981POPC   PO462892  21.109  12.000   5.416
 4981POPC   GL162893  21.284  12.100   5.813
 4981POPC   GL262894  21.331  12.464   5.839
 4981POPC   C1A62895  21.496  12.002   6.202
 4981POPC   D2A62896  21.666  11.764   6.548
 4981POPC   C3A62897  21.566  11.973   6.949
 4981POPC   C4A62898  21.399  11.860   7.360
 4981POPC   C1B62899  21.659  12.488   6.151
 4981POPC   C2B62900  21.764  12.301   6.553
 4981POPC   C3B62901  21.660  12.505   6.926
 4981POPC   C4B62902  21.470  12.389   7.281
 4982POPC   NC362903  13.834  21.266   5.434
 4982POPC   PO462904  13.387  21.733   5.444
 4982POPC   GL162905  13.408  21.378   5.739
 4982POPC   GL262906  13.678  21.571   5.861
 4982POPC   C1A62907  13.581  21.144   6.125
 4982POPC   D2A62908  13.780  21.378   6.493
 4982POPC   C3A62909  13.559  21.341   6.880
 4982POPC   C4A62910  13.603  21.089   7.168
 4982POPC   C1B62911  13.406  21.611   6.219
 4982POPC   C2B62912  13.437  21.805   6.582
 4982POPC   C3B62913  13.721  21.800   6.902
 4982POPC   C4B62914  13.448  21.760   7.252
 4983POPC   NC362915  39.292  12.354   5.496
 4983POPC   PO462916  39.134  11.736   5.180
 4983POPC   GL162917  39.218  11.847   5.688
 4983POPC   GL262918  39.292  12.169   5.955
 4983POPC   C1A62919  39.353  11.707   6.122
 4983POPC   D2A62920  39.516  12.008   6.458
 4983POPC   C3A62921  39.336  11.984   6.876
 4983POPC   C4A62922  39.492  11.905   7.275
 4983POPC   C1B62923  39.074  12.329   6.343
 4983POPC   C2B62924  38.947  12.300   6.740
 4983POPC   C3B62925  38.827  12.542   7.059
 4983POPC   C4B62926  38.579  12.417   7.412
 4984POPC   NC362927  17.346  27.745   5.272
 4984POPC   PO462928  17.088  27.304   5.673
 4984POPC   GL162929  17.447  27.410   5.825
 4984POPC   GL262930  17.517  27.750   5.769
 4984POPC   C1A62931  17.425  27.459   6.248
 4984POPC   D2A62932  17.690  27.322   6.536
 4984POPC   C3A62933  17.480  27.360   6.905
 4984POPC   C4A62934  17.532  27.614   7.253
 4984POPC   C1B62935  17.838  27.702   6.111
 4984POPC   C2B62936  18.002  27.743   6.503
 4984POPC   C3B62937  17.926  27.616   6.900
 4984POPC   C4B62938  17.999  27.840   7.247
 4985POPC   NC362939  13.260  29.682   5.241
 4985POPC   PO462940  12.636  29.928   5.126
 4985POPC   GL162941  12.867  29.818   5.555
 4985POPC   GL262942  13.046  30.075   5.770
 4985POPC   C1A62943  12.833  29.644   6.008
 4985POPC   D2A62944  12.578  29.702   6.411
 4985POPC   C3A62945  12.787  29.742   6.824
 4985POPC   C4A62946  12.717  30.052   7.185
 4985POPC   C1B62947  13.083  30.066   6.239
 4985POPC   C2B62948  13.032  30.177   6.698
 4985POPC   C3B62949  13.184  29.947   7.079
 4985POPC   C4B62950  13.128  29.932   7.517
 4986POPC   NC362951  28.785  17.136   5.553
 4986POPC   PO462952  28.179  16.941   5.265
 4986POPC   GL162953  28.093  16.854   5.733
 4986POPC   GL262954  28.367  17.041   5.845
 4986POPC   C1A62955  28.205  16.659   6.168
 4986POPC   D2A62956  28.299  16.313   6.464
 4986POPC   C3A62957  28.247  16.416   6.906
 4986POPC   C4A62958  28.447  16.381   7.321
 4986POPC   C1B62959  28.483  17.095   6.284
 4986POPC   C2B62960  28.447  16.832   6.664
 4986POPC   C3B62961  28.551  16.833   7.124
 4986POPC   C4B62962  28.332  16.839   7.562
 4987POPC   NC362963  41.596   2.971   5.378
 4987POPC   PO462964  41.355   2.377   5.330
 4987POPC   GL162965  41.601   2.584   5.720
 4987POPC   GL262966  41.403   2.853   5.845
 4987POPC   C1A62967  41.722   2.685   6.204
 4987POPC   D2A62968  41.623   3.063   6.517
 4987POPC   C3A62969  41.867   3.044   6.908
 4987POPC   C4A62970  41.878   2.663   7.135
 4987POPC   C1B62971  41.223   2.569   6.167
 4987POPC   C2B62972  41.223   2.423   6.595
 4987POPC   C3B62973  41.310   2.591   7.000
 4987POPC   C4B62974  41.409   2.986   7.155
 4988POPC   NC362975  37.131  43.275   5.394
 4988POPC   PO462976  36.525  42.992   5.380
 4988POPC   GL162977  36.673  43.106   5.801
 4988POPC   GL262978  37.041  43.109   5.869
 4988POPC   C1A62979  36.696  43.046   6.254
 4988POPC   D2A62980  36.462  43.101   6.610
 4988POPC   C3A62981  36.624  43.283   6.937
 4988POPC   C4A62982  36.676  43.155   7.321
 4988POPC   C1B62983  37.129  43.320   6.241
 4988POPC   C2B62984  37.068  43.179   6.661
 4988POPC   C3B62985  37.051  42.999   7.042
 4988POPC   C4B62986  37.220  43.117   7.438
 4989POPC   NC362987  22.672  32.613   5.427
 4989POPC   PO462988  23.020  32.064   5.274
 4989POPC   GL162989  22.951  32.239   5.661
 4989POPC   GL262990  23.197  32.086   5.824
 4989POPC   C1A62991  22.790  32.323   6.077
 4989POPC   D2A62992  22.663  32.512   6.486
 4989POPC   C3A62993  22.887  32.392   6.867
 4989POPC   C4A62994  22.601  32.172   7.153
 4989POPC   C1B62995  23.281  32.158   6.266
 4989POPC   C2B62996  23.350  32.026   6.690
 4989POPC   C3B62997  23.380  32.180   7.146
 4989POPC   C4B62998  23.331  32.058   7.650
 4990POPC   NC362999  16.495  38.888   5.485
 4990POPC   PO463000  16.663  39.536   5.361
 4990POPC   GL163001  16.737  39.219   5.773
 4990POPC   GL263002  17.085  39.135   5.861
 4990POPC   C1A63003  16.535  39.123   6.196
 4990POPC   D2A63004  16.249  39.165   6.578
 4990POPC   C3A63005  16.521  39.173   6.969
 4990POPC   C4A63006  16.595  39.324   7.448
 4990POPC   C1B63007  17.021  39.183   6.293
 4990POPC   C2B63008  16.928  39.301   6.702
 4990POPC   C3B63009  16.997  39.199   7.147
 4990POPC   C4B63010  17.217  38.912   7.385
 4991POPC   NC363011  26.069  14.797   5.648
 4991POPC   PO463012  26.303  14.213   5.424
 4991POPC   GL163013  26.003  14.311   5.757
 4991POPC   GL263014  25.710  14.120   5.776
 4991POPC   C1A63015  25.893  14.400   6.186
 4991POPC   D2A63016  26.028  14.200   6.551
 4991POPC   C3A63017  26.013  14.483   6.853
 4991POPC   C4A63018  26.028  14.496   7.258
 4991POPC   C1B63019  25.806  13.894   6.176
 4991POPC   C2B63020  25.615  13.878   6.580
 4991POPC   C3B63021  25.688  14.057   6.994
 4991POPC   C4B63022  25.998  14.000   7.336
 4992POPC   NC363023   0.200   8.390   5.449
 4992POPC   PO463024  44.905   8.938   5.379
 4992POPC   GL163025  44.633   9.003   5.734
 4992POPC   GL263026  44.938   9.089   5.910
 4992POPC   C1A63027  44.495   9.137   6.167
 4992POPC   D2A63028  44.607   9.316   6.559
 4992POPC   C3A63029  44.449   9.244   6.988
 4992POPC   C4A63030  44.590   8.900   7.301
 4992POPC   C1B63031   0.195   8.911   6.226
 4992POPC   C2B63032   0.054   8.805   6.637
 4992POPC   C3B63033  44.913   9.032   6.928
 4992POPC   C4B63034   0.040   9.278   7.225
 4993POPC   NC363035  18.157   0.903   5.199
 4993POPC   PO463036  18.503   1.390   5.553
 4993POPC   GL163037  18.260   1.223   5.869
 4993POPC   GL263038  18.559   1.113   6.053
 4993POPC   C1A63039  18.204   1.380   6.294
 4993POPC   D2A63040  18.528   1.381   6.604
 4993POPC   C3A63041  18.283   1.406   6.976
 4993POPC   C4A63042  17.979   1.157   7.242
 4993POPC   C1B63043  18.241   0.881   6.303
 4993POPC   C2B63044  18.108   0.979   6.737
 4993POPC   C3B63045  18.322   0.771   7.090
 4993POPC   C4B63046  18.781   0.730   7.215
 4994POPC   NC363047  13.195  12.882   5.161
 4994POPC   PO463048  13.698  12.996   5.571
 4994POPC   GL163049  13.643  12.871   5.937
 4994POPC   GL263050  13.535  12.515   5.888
 4994POPC   C1A63051  13.849  12.907   6.281
 4994POPC   D2A63052  13.607  12.982   6.595
 4994POPC   C3A63053  13.842  12.874   6.896
 4994POPC   C4A63054  13.696  12.948   7.283
 4994POPC   C1B63055  13.447  12.571   6.311
 4994POPC   C2B63056  13.426  12.524   6.725
 4994POPC   C3B63057  13.329  12.645   7.097
 4994POPC   C4B63058  13.438  12.472   7.475
 4995POPC   NC363059  24.939   3.661   5.218
 4995POPC   PO463060  25.552   3.393   5.421
 4995POPC   GL163061  25.396   3.568   5.804
 4995POPC   GL263062  25.290   3.920   5.713
 4995POPC   C1A63063  25.202   3.343   6.138
 4995POPC   D2A63064  25.151   3.444   6.508
 4995POPC   C3A63065  25.238   3.218   6.877
 4995POPC   C4A63066  25.252   3.361   7.312
 4995POPC   C1B63067  25.045   3.846   6.106
 4995POPC   C2B63068  25.112   3.952   6.547
 4995POPC   C3B63069  25.088   3.716   6.939
 4995POPC   C4B63070  24.861   3.678   7.303
 4996POPC   NC363071  39.902  19.977   5.387
 4996POPC   PO463072  39.776  19.330   5.465
 4996POPC   GL163073  40.031  19.620   5.731
 4996POPC   GL263074  39.791  19.852   5.879
 4996POPC   C1A63075  40.235  19.723   6.122
 4996POPC   D2A63076  40.271  19.686   6.575
 4996POPC   C3A63077  40.282  19.947   6.935
 4996POPC   C4A63078  40.183  19.670   7.285
 4996POPC   C1B63079  39.698  20.019   6.287
 4996POPC   C2B63080  39.800  19.944   6.736
 4996POPC   C3B63081  39.829  20.032   7.191
 4996POPC   C4B63082  39.818  19.843   7.597
 4997POPC   NC363083  12.226  16.060   5.468
 4997POPC   PO463084  11.586  15.788   5.498
 4997POPC   GL163085  11.943  15.808   5.823
 4997POPC   GL263086  11.810  15.529   5.999
 4997POPC   C1A63087  12.311  15.931   6.128
 4997POPC   D2A63088  12.424  15.929   6.601
 4997POPC   C3A63089  12.132  16.151   6.905
 4997POPC   C4A63090  11.735  16.175   7.124
 4997POPC   C1B63091  11.880  15.788   6.357
 4997POPC   C2B63092  11.936  15.694   6.774
 4997POPC   C3B63093  11.669  15.655   7.128
 4997POPC   C4B63094  11.318  15.917   7.300
 4998POPC   NC363095  23.762  29.046   5.513
 4998POPC   PO463096  23.191  29.100   5.177
 4998POPC   GL163097  23.303  29.243   5.657
 4998POPC   GL263098  23.491  29.534   5.789
 4998POPC   C1A63099  23.519  29.124   6.115
 4998POPC   D2A63100  23.908  29.232   6.400
 4998POPC   C3A63101  23.901  29.084   6.830
 4998POPC   C4A63102  23.652  29.097   7.234
 4998POPC   C1B63103  23.565  29.608   6.271
 4998POPC   C2B63104  23.514  29.438   6.698
 4998POPC   C3B63105  23.376  29.519   7.125
 4998POPC   C4B63106  23.341  29.454   7.588
 4999POPC   NC363107  32.124  20.971   5.423
 4999POPC   PO463108  32.072  21.642   5.489
 4999POPC   GL163109  32.171  21.309   5.814
 4999POPC   GL263110  31.900  21.043   5.906
 4999POPC   C1A63111  32.392  20.999   6.068
 4999POPC   D2A63112  32.616  20.950   6.459
 4999POPC   C3A63113  32.434  21.194   6.802
 4999POPC   C4A63114  32.537  21.187   7.239
 4999POPC   C1B63115  31.966  21.322   6.289
 4999POPC   C2B63116  32.043  21.564   6.680
 4999POPC   C3B63117  32.244  21.587   7.083
 4999POPC   C4B63118  32.078  21.281   7.389
 5000POPC   NC363119  24.938  31.443   5.467
 5000POPC   PO463120  25.525  31.703   5.367
 5000POPC   GL163121  25.439  31.380   5.709
 5000POPC   GL263122  25.093  31.347   5.929
 5000POPC   C1A63123  25.537  31.263   6.134
 5000POPC   D2A63124  25.248  31.407   6.434
 5000POPC   C3A63125  25.286  31.233   6.834
 5000POPC   C4A63126  25.474  31.442   7.175
 5000POPC   C1B63127  24.891  31.050   6.240
 5000POPC   C2B63128  24.833  30.936   6.669
 5000POPC   C3B63129  24.851  31.091   7.085
 5000POPC   C4B63130  24.702  31.445   7.284
 5001POPC   NC363131  24.845  14.080   5.410
 5001POPC   PO463132  24.850  13.375   5.496
 5001POPC   GL163133  24.636  13.521   5.864
 5001POPC   GL263134  24.369  13.771   5.856
 5001POPC   C1A63135  24.418  13.376   6.219
 5001POPC   D2A63136  24.690  13.371   6.569
 5001POPC   C3A63137  24.564  13.544   6.955
 5001POPC   C4A63138  24.358  13.401   7.283
 5001POPC   C1B63139  24.528  13.876   6.235
 5001POPC   C2B63140  24.701  13.902   6.613
 5001POPC   C3B63141  24.631  14.043   7.007
 5001POPC   C4B63142  24.421  13.912   7.339
 5002POPC   NC363143  23.846  14.086   5.456
 5002POPC   PO463144  23.906  14.721   5.286
 5002POPC   GL163145  23.675  14.565   5.698
 5002POPC   GL263146  23.430  14.266   5.723
 5002POPC   C1A63147  23.721  14.428   6.160
 5002POPC   D2A63148  23.810  14.628   6.591
 5002POPC   C3A63149  23.701  14.424   6.993
 5002POPC   C4A63150  23.721  14.581   7.429
 5002POPC   C1B63151  23.244  14.250   6.147
 5002POPC   C2B63152  23.404  14.290   6.563
 5002POPC   C3B63153  23.268  14.137   6.952
 5002POPC   C4B63154  23.526  13.962   7.235
 5003POPC   NC363155   6.139  44.402   5.447
 5003POPC   PO463156   6.060   0.073   5.341
 5003POPC   GL163157   5.911  44.819   5.672
 5003POPC   GL263158   6.252  44.804   5.759
 5003POPC   C1A63159   5.873  44.587   6.064
 5003POPC   D2A63160   5.684  44.667   6.466
 5003POPC   C3A63161   5.863  44.342   6.763
 5003POPC   C4A63162   5.909  44.299   7.242
 5003POPC   C1B63163   6.270  44.893   6.173
 5003POPC   C2B63164   6.162  44.786   6.572
 5003POPC   C3B63165   5.898  44.853   6.914
 5003POPC   C4B63166   6.150  44.758   7.250
 5004POPC   NC363167  38.484  30.915   5.337
 5004POPC   PO463168  38.047  30.379   5.463
 5004POPC   GL163169  38.298  30.633   5.794
 5004POPC   GL263170  38.684  30.679   5.791
 5004POPC   C1A63171  38.437  30.666   6.261
 5004POPC   D2A63172  38.234  30.779   6.672
 5004POPC   C3A63173  38.344  30.675   7.064
 5004POPC   C4A63174  38.108  30.632   7.431
 5004POPC   C1B63175  38.894  30.899   6.169
 5004POPC   C2B63176  38.816  30.964   6.626
 5004POPC   C3B63177  38.814  30.934   7.079
 5004POPC   C4B63178  38.709  30.933   7.530
 5005POPC   NC363179   0.068   4.403   5.559
 5005POPC   PO463180   0.699   4.110   5.362
 5005POPC   GL163181   0.500   4.132   5.724
 5005POPC   GL263182   0.226   3.910   5.657
 5005POPC   C1A63183   0.480   4.377   6.104
 5005POPC   D2A63184   0.680   4.477   6.491
 5005POPC   C3A63185   0.573   4.247   6.851
 5005POPC   C4A63186   0.639   4.507   7.176
 5005POPC   C1B63187   0.308   3.870   6.118
 5005POPC   C2B63188   0.196   4.149   6.477
 5005POPC   C3B63189   0.045   4.176   6.896
 5005POPC   C4B63190   0.241   4.243   7.322
 5006POPC   NC363191   7.488  29.974   5.373
 5006POPC   PO463192   7.167  29.473   5.659
 5006POPC   GL163193   7.393  29.794   5.864
 5006POPC   GL263194   7.196  30.108   5.806
 5006POPC   C1A63195   7.522  29.864   6.284
 5006POPC   D2A63196   7.754  29.782   6.655
 5006POPC   C3A63197   7.503  29.654   7.022
 5006POPC   C4A63198   7.660  29.862   7.373
 5006POPC   C1B63199   7.026  29.964   6.232
 5006POPC   C2B63200   7.189  29.911   6.681
 5006POPC   C3B63201   7.092  29.965   7.125
 5006POPC   C4B63202   7.262  30.127   7.518
 5007POPC   NC363203  20.965   9.326   5.386
 5007POPC   PO463204  20.842   8.599   5.402
 5007POPC   GL163205  20.688   8.819   5.754
 5007POPC   GL263206  20.985   8.972   5.772
 5007POPC   C1A63207  20.545   8.823   6.186
 5007POPC   D2A63208  20.731   9.005   6.562
 5007POPC   C3A63209  20.567   8.970   6.918
 5007POPC   C4A63210  20.675   8.840   7.299
 5007POPC   C1B63211  20.982   9.140   6.159
 5007POPC   C2B63212  20.983   9.432   6.506
 5007POPC   C3B63213  21.017   9.286   6.912
 5007POPC   C4B63214  20.747   9.337   7.235
 5008POPC   NC363215  41.093  19.009   5.327
 5008POPC   PO463216  40.554  19.372   5.557
 5008POPC   GL163217  40.888  19.238   5.788
 5008POPC   GL263218  41.102  19.522   5.856
 5008POPC   C1A63219  40.848  19.146   6.226
 5008POPC   D2A63220  40.736  19.395   6.589
 5008POPC   C3A63221  40.566  19.188   6.954
 5008POPC   C4A63222  40.763  18.856   7.208
 5008POPC   C1B63223  41.294  19.365   6.165
 5008POPC   C2B63224  41.262  19.164   6.558
 5008POPC   C3B63225  41.081  19.217   6.951
 5008POPC   C4B63226  41.012  19.364   7.347
 5009POPC   NC363227   6.707  13.189   5.395
 5009POPC   PO463228   6.477  13.818   5.295
 5009POPC   GL163229   6.602  13.643   5.697
 5009POPC   GL263230   6.866  13.839   5.796
 5009POPC   C1A63231   6.632  13.542   6.158
 5009POPC   D2A63232   6.573  13.353   6.583
 5009POPC   C3A63233   6.347  13.561   6.917
 5009POPC   C4A63234   6.546  13.562   7.296
 5009POPC   C1B63235   6.975  13.950   6.209
 5009POPC   C2B63236   7.028  13.698   6.554
 5009POPC   C3B63237   6.864  13.670   6.915
 5009POPC   C4B63238   6.987  13.903   7.278
 5010POPC   NC363239   2.272  16.240   5.339
 5010POPC   PO463240   1.680  15.914   5.452
 5010POPC   GL163241   2.029  15.972   5.764
 5010POPC   GL263242   1.898  16.291   5.796
 5010POPC   C1A63243   2.121  16.191   6.216
 5010POPC   D2A63244   1.964  16.302   6.628
 5010POPC   C3A63245   2.101  16.012   6.973
 5010POPC   C4A63246   2.464  16.127   7.228
 5010POPC   C1B63247   1.643  16.035   6.122
 5010POPC   C2B63248   1.483  16.105   6.554
 5010POPC   C3B63249   1.592  16.208   6.977
 5010POPC   C4B63250   1.752  16.026   7.353
 5011POPC   NC363251  14.973   5.073   5.397
 5011POPC   PO463252  14.212   5.165   5.410
 5011POPC   GL163253  14.426   4.975   5.771
 5011POPC   GL263254  14.693   5.209   5.801
 5011POPC   C1A63255  14.379   5.000   6.232
 5011POPC   D2A63256  14.258   4.809   6.630
 5011POPC   C3A63257  14.290   5.079   7.002
 5011POPC   C4A63258  14.455   5.035   7.429
 5011POPC   C1B63259  14.717   5.372   6.195
 5011POPC   C2B63260  14.701   5.172   6.636
 5011POPC   C3B63261  14.703   5.386   7.070
 5011POPC   C4B63262  14.810   5.421   7.525
 5012POPC   NC363263  37.241  35.252   5.321
 5012POPC   PO463264  36.979  35.843   5.373
 5012POPC   GL163265  36.918  35.539   5.752
 5012POPC   GL263266  37.051  35.197   5.829
 5012POPC   C1A63267  36.727  35.464   6.161
 5012POPC   D2A63268  37.000  35.368   6.540
 5012POPC   C3A63269  36.835  35.452   6.941
 5012POPC   C4A63270  36.963  35.667   7.288
 5012POPC   C1B63271  36.908  34.996   6.218
 5012POPC   C2B63272  36.689  34.970   6.628
 5012POPC   C3B63273  36.840  34.932   7.027
 5012POPC   C4B63274  37.216  35.129   7.198
 5013POPC   NC363275  37.413  18.927   5.394
 5013POPC   PO463276  37.926  19.265   5.159
 5013POPC   GL163277  37.897  18.915   5.554
 5013POPC   GL263278  37.605  19.076   5.828
 5013POPC   C1A63279  37.982  18.797   6.011
 5013POPC   D2A63280  37.691  19.001   6.342
 5013POPC   C3A63281  37.684  18.860   6.772
 5013POPC   C4A63282  37.616  19.001   7.187
 5013POPC   C1B63283  37.278  19.277   6.130
 5013POPC   C2B63284  37.185  19.419   6.547
 5013POPC   C3B63285  37.405  19.394   6.936
 5013POPC   C4B63286  37.218  19.335   7.346
 5014POPC   NC363287   9.410  37.603   5.496
 5014POPC   PO463288  10.123  37.436   5.564
 5014POPC   GL163289   9.883  37.604   5.877
 5014POPC   GL263290   9.748  37.901   5.953
 5014POPC   C1A63291   9.962  37.607   6.337
 5014POPC   D2A63292   9.821  37.683   6.732
 5014POPC   C3A63293   9.971  37.372   6.937
 5014POPC   C4A63294   9.992  37.509   7.298
 5014POPC   C1B63295   9.477  37.594   6.205
 5014POPC   C2B63296   9.315  37.625   6.638
 5014POPC   C3B63297   9.403  37.709   7.066
 5014POPC   C4B63298   9.303  37.975   7.394
 5015POPC   NC363299  14.329   9.172   5.456
 5015POPC   PO463300  13.946   8.709   5.118
 5015POPC   GL163301  14.262   8.716   5.663
 5015POPC   GL263302  14.574   8.932   5.820
 5015POPC   C1A63303  14.215   8.914   6.138
 5015POPC   D2A63304  14.465   8.940   6.512
 5015POPC   C3A63305  14.126   8.901   6.787
 5015POPC   C4A63306  14.027   9.067   7.158
 5015POPC   C1B63307  14.573   9.316   6.141
 5015POPC   C2B63308  14.479   9.493   6.570
 5015POPC   C3B63309  14.453   9.263   6.924
 5015POPC   C4B63310  14.626   8.909   7.123
 5016POPC   NC363311   7.929  18.139   5.426
 5016POPC   PO463312   7.358  18.458   5.572
 5016POPC   GL163313   7.579  18.258   5.895
 5016POPC   GL263314   7.788  17.971   5.874
 5016POPC   C1A63315   7.366  18.233   6.290
 5016POPC   D2A63316   7.222  18.434   6.658
 5016POPC   C3A63317   7.359  18.294   7.040
 5016POPC   C4A63318   7.291  18.513   7.382
 5016POPC   C1B63319   7.614  17.796   6.247
 5016POPC   C2B63320   7.444  17.869   6.661
 5016POPC   C3B63321   7.060  17.914   6.919
 5016POPC   C4B63322   7.075  17.954   7.362
 5017POPC   NC363323  24.128  20.724   5.570
 5017POPC   PO463324  24.560  20.301   5.151
 5017POPC   GL163325  24.750  20.429   5.588
 5017POPC   GL263326  24.696  20.804   5.584
 5017POPC   C1A63327  24.689  20.440   6.086
 5017POPC   D2A63328  24.770  20.411   6.599
 5017POPC   C3A63329  24.425  20.534   6.930
 5017POPC   C4A63330  24.191  20.273   7.249
 5017POPC   C1B63331  24.733  20.951   6.038
 5017POPC   C2B63332  24.554  20.855   6.444
 5017POPC   C3B63333  24.570  21.018   6.849
 5017POPC   C4B63334  24.723  20.952   7.257
 5018POPC   NC363335  27.159  38.536   5.290
 5018POPC   PO463336  26.581  38.795   5.199
 5018POPC   GL163337  26.789  38.642   5.638
 5018POPC   GL263338  26.627  38.340   5.775
 5018POPC   C1A63339  26.868  38.587   6.141
 5018POPC   D2A63340  26.763  38.516   6.615
 5018POPC   C3A63341  27.084  38.631   6.939
 5018POPC   C4A63342  27.080  38.675   7.393
 5018POPC   C1B63343  26.329  38.461   6.141
 5018POPC   C2B63344  26.123  38.591   6.549
 5018POPC   C3B63345  26.298  38.786   6.921
 5018POPC   C4B63346  26.631  38.576   7.150
 5019POPC   NC363347  10.534  12.226   5.383
 5019POPC   PO463348  10.452  11.500   5.377
 5019POPC   GL163349  10.654  11.815   5.691
 5019POPC   GL263350  10.403  11.948   5.788
 5019POPC   C1A63351  10.725  12.049   6.147
 5019POPC   D2A63352  10.510  12.113   6.570
 5019POPC   C3A63353  10.731  12.193   6.940
 5019POPC   C4A63354  10.634  12.011   7.307
 5019POPC   C1B63355  10.201  11.969   6.194
 5019POPC   C2B63356  10.081  11.792   6.571
 5019POPC   C3B63357  10.192  11.958   6.960
 5019POPC   C4B63358  10.126  12.162   7.331
 5020POPC   NC363359  10.496  26.354   5.515
 5020POPC   PO463360  10.732  25.778   5.459
 5020POPC   GL163361  10.554  25.877   5.859
 5020POPC   GL263362  10.276  26.042   5.848
 5020POPC   C1A63363  10.450  25.885   6.318
 5020POPC   D2A63364  10.617  25.995   6.718
 5020POPC   C3A63365  10.578  25.726   7.068
 5020POPC   C4A63366  10.515  25.524   7.473
 5020POPC   C1B63367  10.190  26.329   6.216
 5020POPC   C2B63368  10.296  26.391   6.666
 5020POPC   C3B63369  10.378  26.212   7.124
 5020POPC   C4B63370  10.565  26.454   7.515
 5021POPC   NC363371  22.019  20.798   5.314
 5021POPC   PO463372  22.456  20.993   5.703
 5021POPC   GL163373  22.334  20.601   5.803
 5021POPC   GL263374  22.020  20.476   5.719
 5021POPC   C1A63375  22.269  20.451   6.184
 5021POPC   D2A63376  22.075  20.467   6.545
 5021POPC   C3A63377  22.242  20.336   6.895
 5021POPC   C4A63378  22.255  20.168   7.292
 5021POPC   C1B63379  21.883  20.782   6.057
 5021POPC   C2B63380  21.912  20.947   6.494
 5021POPC   C3B63381  21.829  20.774   6.904
 5021POPC   C4B63382  22.059  20.668   7.239
 5022POPC   NC363383  37.022  28.065   5.609
 5022POPC   PO463384  36.653  28.666   5.643
 5022POPC   GL163385  36.752  28.372   5.954
 5022POPC   GL263386  37.115  28.315   6.047
 5022POPC   C1A63387  36.772  28.421   6.398
 5022POPC   D2A63388  36.862  28.141   6.729
 5022POPC   C3A63389  36.734  28.372   7.077
 5022POPC   C4A63390  36.838  28.510   7.467
 5022POPC   C1B63391  37.208  28.715   6.303
 5022POPC   C2B63392  37.216  28.847   6.763
 5022POPC   C3B63393  37.219  28.543   7.105
 5022POPC   C4B63394  37.178  28.106   7.176
 5023POPC   NC363395  43.422   2.690   5.395
 5023POPC   PO463396  42.876   3.108   5.613
 5023POPC   GL163397  43.103   2.794   5.832
 5023POPC   GL263398  43.383   2.974   5.837
 5023POPC   C1A63399  43.139   2.570   6.242
 5023POPC   D2A63400  43.048   2.328   6.629
 5023POPC   C3A63401  42.915   2.637   6.938
 5023POPC   C4A63402  43.237   2.702   7.245
 5023POPC   C1B63403  43.287   3.083   6.243
 5023POPC   C2B63404  43.202   2.955   6.652
 5023POPC   C3B63405  43.312   3.162   7.038
 5023POPC   C4B63406  43.392   3.149   7.500
 5024POPC   NC363407   7.120  33.612   5.080
 5024POPC   PO463408   7.674  33.534   5.496
 5024POPC   GL163409   7.389  33.655   5.814
 5024POPC   GL263410   7.114  33.424   5.864
 5024POPC   C1A63411   7.350  33.930   6.156
 5024POPC   D2A63412   7.353  33.899   6.604
 5024POPC   C3A63413   7.672  33.702   6.889
 5024POPC   C4A63414   7.833  34.024   7.145
 5024POPC   C1B63415   7.052  33.527   6.303
 5024POPC   C2B63416   7.259  33.391   6.675
 5024POPC   C3B63417   7.178  33.655   7.030
 5024POPC   C4B63418   7.001  33.567   7.396
 5025POPC   NC363419  36.871  29.700   5.389
 5025POPC   PO463420  37.354  30.188   5.598
 5025POPC   GL163421  37.041  29.952   5.855
 5025POPC   GL263422  36.689  29.828   5.834
 5025POPC   C1A63423  36.869  30.062   6.271
 5025POPC   D2A63424  36.914  30.189   6.700
 5025POPC   C3A63425  37.129  29.909   6.937
 5025POPC   C4A63426  37.107  29.838   7.309
 5025POPC   C1B63427  36.410  29.862   6.189
 5025POPC   C2B63428  36.485  29.878   6.631
 5025POPC   C3B63429  36.622  29.849   7.055
 5025POPC   C4B63430  36.431  30.114   7.367
 5026POPC   NC363431   7.877  30.802   5.587
 5026POPC   PO463432   8.290  30.273   5.689
 5026POPC   GL163433   8.170  30.600   5.975
 5026POPC   GL263434   7.808  30.533   6.003
 5026POPC   C1A63435   8.271  30.535   6.412
 5026POPC   D2A63436   8.418  30.379   6.799
 5026POPC   C3A63437   8.195  30.620   7.081
 5026POPC   C4A63438   7.973  31.040   7.220
 5026POPC   C1B63439   7.874  30.225   6.314
 5026POPC   C2B63440   7.928  30.276   6.741
 5026POPC   C3B63441   7.807  30.297   7.156
 5026POPC   C4B63442   7.966  30.601   7.518
 5027POPC   NC363443  43.426  35.786   5.569
 5027POPC   PO463444  43.284  36.376   5.464
 5027POPC   GL163445  43.096  36.134   5.791
 5027POPC   GL263446  42.911  35.816   5.802
 5027POPC   C1A63447  43.155  36.181   6.220
 5027POPC   D2A63448  42.999  36.368   6.608
 5027POPC   C3A63449  43.252  36.317   6.970
 5027POPC   C4A63450  43.583  36.074   7.119
 5027POPC   C1B63451  42.994  35.683   6.253
 5027POPC   C2B63452  43.238  35.868   6.621
 5027POPC   C3B63453  43.130  35.834   7.029
 5027POPC   C4B63454  42.845  35.752   7.341
 5028POPC   NC363455  27.491  28.059   5.392
 5028POPC   PO463456  27.418  28.739   5.415
 5028POPC   GL163457  27.591  28.499   5.737
 5028POPC   GL263458  27.319  28.276   5.829
 5028POPC   C1A63459  27.665  28.422   6.176
 5028POPC   D2A63460  27.414  28.295   6.519
 5028POPC   C3A63461  27.505  28.488   6.942
 5028POPC   C4A63462  27.352  28.513   7.372
 5028POPC   C1B63463  27.195  27.992   6.150
 5028POPC   C2B63464  27.349  27.779   6.505
 5028POPC   C3B63465  27.457  27.968   6.896
 5028POPC   C4B63466  27.233  28.005   7.258
 5029POPC   NC363467   1.623  20.803   5.584
 5029POPC   PO463468   0.997  20.605   5.330
 5029POPC   GL163469   1.170  20.582   5.768
 5029POPC   GL263470   1.218  20.888   5.877
 5029POPC   C1A63471   1.273  20.464   6.207
 5029POPC   D2A63472   1.324  20.670   6.619
 5029POPC   C3A63473   1.341  20.423   6.978
 5029POPC   C4A63474   0.934  20.383   7.188
 5029POPC   C1B63475   1.539  20.910   6.222
 5029POPC   C2B63476   1.755  20.922   6.669
 5029POPC   C3B63477   1.550  20.905   7.083
 5029POPC   C4B63478   1.386  20.644   7.453
 5030POPC   NC363479   3.519  33.332   5.054
 5030POPC   PO463480   3.397  33.968   5.379
 5030POPC   GL163481   3.507  33.888   5.818
 5030POPC   GL263482   3.795  33.654   5.831
 5030POPC   C1A63483   3.623  33.876   6.276
 5030POPC   D2A63484   3.724  34.119   6.614
 5030POPC   C3A63485   3.587  33.910   6.983
 5030POPC   C4A63486   3.451  33.777   7.394
 5030POPC   C1B63487   3.954  33.483   6.224
 5030POPC   C2B63488   3.907  33.624   6.676
 5030POPC   C3B63489   3.828  33.471   7.125
 5030POPC   C4B63490   4.032  33.349   7.532
 5031POPC   NC363491  39.720   8.794   5.520
 5031POPC   PO463492  40.305   8.930   5.408
 5031POPC   GL163493  40.121   8.992   5.794
 5031POPC   GL263494  40.184   8.675   5.867
 5031POPC   C1A63495  40.193   9.132   6.232
 5031POPC   D2A63496  40.364   9.344   6.626
 5031POPC   C3A63497  40.144   9.157   6.976
 5031POPC   C4A63498  39.704   8.997   6.995
 5031POPC   C1B63499  40.020   8.640   6.303
 5031POPC   C2B63500  39.985   8.615   6.775
 5031POPC   C3B63501  40.155   8.674   7.193
 5031POPC   C4B63502  40.066   8.640   7.642
 5032POPC   NC363503  42.097  34.497   5.603
 5032POPC   PO463504  41.440  34.584   5.381
 5032POPC   GL163505  41.319  34.653   5.782
 5032POPC   GL263506  41.648  34.773   5.833
 5032POPC   C1A63507  41.373  34.601   6.229
 5032POPC   D2A63508  41.543  34.796   6.574
 5032POPC   C3A63509  41.461  34.608   6.972
 5032POPC   C4A63510  41.484  34.807   7.353
 5032POPC   C1B63511  41.910  34.685   6.193
 5032POPC   C2B63512  42.019  34.583   6.595
 5032POPC   C3B63513  41.906  34.848   6.951
 5032POPC   C4B63514  41.982  34.719   7.352
 5033POPC   NC363515  25.481   0.590   5.422
 5033POPC   PO463516  24.872   0.126   5.493
 5033POPC   GL163517  25.145   0.271   5.818
 5033POPC   GL263518  25.524   0.278   5.835
 5033POPC   C1A63519  25.217   0.395   6.243
 5033POPC   D2A63520  25.036   0.314   6.665
 5033POPC   C3A63521  25.269   0.352   7.054
 5033POPC   C4A63522  25.507   0.166   7.396
 5033POPC   C1B63523  25.737   0.182   6.227
 5033POPC   C2B63524  25.614   0.196   6.672
 5033POPC   C3B63525  25.774   0.453   7.018
 5033POPC   C4B63526  25.590   0.708   7.317
 5034POPC   NC363527  31.677  43.742   5.543
 5034POPC   PO463528  31.192  44.361   5.560
 5034POPC   GL163529  31.395  44.075   5.837
 5034POPC   GL263530  31.300  43.702   5.881
 5034POPC   C1A63531  31.524  44.015   6.255
 5034POPC   D2A63532  31.435  44.276   6.574
 5034POPC   C3A63533  31.505  44.127   6.968
 5034POPC   C4A63534  31.204  44.054   7.273
 5034POPC   C1B63535  31.583  43.522   6.222
 5034POPC   C2B63536  31.538  43.679   6.672
 5034POPC   C3B63537  31.538  43.663   7.150
 5034POPC   C4B63538  31.706  43.521   7.540
 5035POPC   NC363539  13.980  13.310   5.404
 5035POPC   PO463540  13.282  13.336   5.254
 5035POPC   GL163541  13.405  13.369   5.755
 5035POPC   GL263542  13.742  13.513   5.816
 5035POPC   C1A63543  13.523  13.349   6.234
 5035POPC   D2A63544  13.846  13.428   6.578
 5035POPC   C3A63545  13.615  13.359   6.951
 5035POPC   C4A63546  13.568  13.446   7.390
 5035POPC   C1B63547  13.790  13.793   6.212
 5035POPC   C2B63548  13.550  13.841   6.625
 5035POPC   C3B63549  13.692  13.861   7.058
 5035POPC   C4B63550  13.948  13.755   7.404
 5036POPC   NC363551  30.750  12.457   5.258
 5036POPC   PO463552  30.513  11.854   5.467
 5036POPC   GL163553  30.702  12.088   5.804
 5036POPC   GL263554  30.659  12.448   5.794
 5036POPC   C1A63555  30.826  12.014   6.234
 5036POPC   D2A63556  30.976  11.888   6.650
 5036POPC   C3A63557  30.751  11.959   7.048
 5036POPC   C4A63558  31.015  11.981   7.404
 5036POPC   C1B63559  30.907  12.525   6.169
 5036POPC   C2B63560  30.806  12.376   6.599
 5036POPC   C3B63561  31.068  12.332   6.956
 5036POPC   C4B63562  30.855  12.446   7.280
 5037POPC   NC363563  11.466   0.183   5.466
 5037POPC   PO463564  11.070   0.717   5.486
 5037POPC   GL163565  11.099   0.612   5.868
 5037POPC   GL263566  11.095   0.259   5.803
 5037POPC   C1A63567  11.356   0.740   6.195
 5037POPC   D2A63568  11.607   0.559   6.534
 5037POPC   C3A63569  11.307   0.594   6.822
 5037POPC   C4A63570  11.092   0.502   7.190
 5037POPC   C1B63571  11.332   0.237   6.157
 5037POPC   C2B63572  11.251   0.161   6.564
 5037POPC   C3B63573  11.321   0.083   6.976
 5037POPC   C4B63574  11.332   0.097   7.428
 5038POPC   NC363575   1.508  42.860   5.452
 5038POPC   PO463576   0.956  43.277   5.565
 5038POPC   GL163577   1.301  43.152   5.844
 5038POPC   GL263578   1.604  43.350   5.751
 5038POPC   C1A63579   1.350  43.055   6.287
 5038POPC   D2A63580   1.152  43.239   6.652
 5038POPC   C3A63581   1.213  43.010   7.017
 5038POPC   C4A63582   0.855  42.920   7.261
 5038POPC   C1B63583   1.557  43.510   6.186
 5038POPC   C2B63584   1.643  43.377   6.613
 5038POPC   C3B63585   1.463  43.472   7.023
 5038POPC   C4B63586   1.417  43.680   7.463
 5039POPC   NC363587  21.633  41.659   5.475
 5039POPC   PO463588  21.145  41.179   5.380
 5039POPC   GL163589  21.234  41.477   5.744
 5039POPC   GL263590  21.571  41.345   5.867
 5039POPC   C1A63591  21.294  41.729   6.126
 5039POPC   D2A63592  21.321  41.904   6.550
 5039POPC   C3A63593  21.257  41.641   6.921
 5039POPC   C4A63594  21.451  41.488   7.267
 5039POPC   C1B63595  21.783  41.177   6.222
 5039POPC   C2B63596  21.693  41.021   6.645
 5039POPC   C3B63597  21.808  41.162   7.060
 5039POPC   C4B63598  21.872  41.252   7.510
 5040POPC   NC363599  11.214  24.367   5.274
 5040POPC   PO463600  11.222  25.022   5.450
 5040POPC   GL163601  11.357  24.633   5.715
 5040POPC   GL263602  11.482  24.251   5.725
 5040POPC   C1A63603  11.383  24.555   6.141
 5040POPC   D2A63604  11.185  24.443   6.526
 5040POPC   C3A63605  11.331  24.618   6.912
 5040POPC   C4A63606  11.150  24.403   7.241
 5040POPC   C1B63607  11.693  24.153   6.142
 5040POPC   C2B63608  11.507  24.026   6.556
 5040POPC   C3B63609  11.589  24.180   6.986
 5040POPC   C4B63610  11.566  24.224   7.473
 5041POPC   NC363611  38.955  21.243   5.430
 5041POPC   PO463612  39.619  21.552   5.422
 5041POPC   GL163613  39.340  21.414   5.770
 5041POPC   GL263614  38.976  21.505   5.857
 5041POPC   C1A63615  39.260  21.273   6.209
 5041POPC   D2A63616  39.351  21.511   6.608
 5041POPC   C3A63617  39.196  21.318   6.977
 5041POPC   C4A63618  39.463  21.327   7.290
 5041POPC   C1B63619  38.928  21.674   6.278
 5041POPC   C2B63620  38.833  21.523   6.680
 5041POPC   C3B63621  38.795  21.736   7.056
 5041POPC   C4B63622  38.709  21.631   7.469
 5042POPC   NC363623  43.035  10.855   5.262
 5042POPC   PO463624  43.439  10.372   5.433
 5042POPC   GL163625  43.096  10.516   5.738
 5042POPC   GL263626  42.986  10.850   5.765
 5042POPC   C1A63627  42.894  10.468   6.143
 5042POPC   D2A63628  43.025  10.338   6.563
 5042POPC   C3A63629  43.311  10.655   6.735
 5042POPC   C4A63630  43.344  10.770   7.170
 5042POPC   C1B63631  42.835  10.976   6.154
 5042POPC   C2B63632  42.697  10.784   6.524
 5042POPC   C3B63633  42.884  10.850   6.912
 5042POPC   C4B63634  42.774  10.840   7.325
 5043POPC   NC363635  36.611  20.431   5.524
 5043POPC   PO463636  37.201  20.796   5.446
 5043POPC   GL163637  36.955  20.689   5.802
 5043POPC   GL263638  36.704  20.925   5.828
 5043POPC   C1A63639  36.854  20.493   6.228
 5043POPC   D2A63640  37.092  20.538   6.631
 5043POPC   C3A63641  36.958  20.296   6.983
 5043POPC   C4A63642  36.702  20.262   7.363
 5043POPC   C1B63643  36.477  20.890   6.204
 5043POPC   C2B63644  36.479  20.630   6.565
 5043POPC   C3B63645  36.595  20.641   7.002
 5043POPC   C4B63646  36.529  20.744   7.426
 5044POPC   NC363647  28.226  40.996   5.540
 5044POPC   PO463648  28.607  40.439   5.558
 5044POPC   GL163649  28.319  40.596   5.847
 5044POPC   GL263650  28.482  40.944   5.976
 5044POPC   C1A63651  28.302  40.567   6.263
 5044POPC   D2A63652  28.404  40.841   6.534
 5044POPC   C3A63653  28.285  40.628   6.871
 5044POPC   C4A63654  28.149  40.542   7.259
 5044POPC   C1B63655  28.073  41.026   6.183
 5044POPC   C2B63656  27.936  41.054   6.621
 5044POPC   C3B63657  28.031  41.030   7.068
 5044POPC   C4B63658  28.417  40.997   7.236
 5045POPC   NC363659  28.367   5.473   5.342
 5045POPC   PO463660  28.324   4.836   5.437
 5045POPC   GL163661  28.317   5.161   5.749
 5045POPC   GL263662  28.550   4.974   5.920
 5045POPC   C1A63663  28.270   5.307   6.188
 5045POPC   D2A63664  28.223   5.118   6.607
 5045POPC   C3A63665  28.260   5.406   6.974
 5045POPC   C4A63666  28.384   5.624   7.332
 5045POPC   C1B63667  28.151   4.806   6.126
 5045POPC   C2B63668  28.061   4.613   6.539
 5045POPC   C3B63669  27.982   4.799   6.945
 5045POPC   C4B63670  28.271   4.968   7.219
 5046POPC   NC363671  21.026  13.295   5.588
 5046POPC   PO463672  20.421  13.510   5.303
 5046POPC   GL163673  20.542  13.424   5.711
 5046POPC   GL263674  20.573  13.768   5.798
 5046POPC   C1A63675  20.502  13.436   6.167
 5046POPC   D2A63676  20.655  13.459   6.565
 5046POPC   C3A63677  20.461  13.697   6.849
 5046POPC   C4A63678  20.649  13.555   7.210
 5046POPC   C1B63679  20.826  13.853   6.137
 5046POPC   C2B63680  20.765  14.084   6.503
 5046POPC   C3B63681  20.933  13.878   6.854
 5046POPC   C4B63682  21.075  13.842   7.231
 5047POPC   NC363683  30.191   2.678   5.514
 5047POPC   PO463684  29.498   2.727   5.502
 5047POPC   GL163685  29.722   2.887   5.839
 5047POPC   GL263686  30.040   3.041   5.833
 5047POPC   C1A63687  29.808   2.903   6.265
 5047POPC   D2A63688  29.887   2.579   6.545
 5047POPC   C3A63689  29.723   2.714   6.893
 5047POPC   C4A63690  29.422   2.510   7.134
 5047POPC   C1B63691  30.290   2.730   6.154
 5047POPC   C2B63692  30.381   2.476   6.551
 5047POPC   C3B63693  30.242   2.415   6.950
 5047POPC   C4B63694  29.991   2.562   7.282
 5048POPC   NC363695  26.436  32.985   5.263
 5048POPC   PO463696  25.844  33.392   5.426
 5048POPC   GL163697  25.924  33.051   5.746
 5048POPC   GL263698  25.700  32.777   5.664
 5048POPC   C1A63699  26.065  33.114   6.196
 5048POPC   D2A63700  25.970  33.351   6.621
 5048POPC   C3A63701  26.236  33.279   6.993
 5048POPC   C4A63702  26.109  33.099   7.446
 5048POPC   C1B63703  25.633  32.729   6.093
 5048POPC   C2B63704  25.718  32.924   6.518
 5048POPC   C3B63705  25.838  32.917   6.954
 5048POPC   C4B63706  25.711  32.597   7.219
 5049POPC   NC363707   5.097  27.090   5.300
 5049POPC   PO463708   5.590  26.601   5.287
 5049POPC   GL163709   5.393  26.685   5.720
 5049POPC   GL263710   5.076  26.902   5.775
 5049POPC   C1A63711   5.353  26.647   6.188
 5049POPC   D2A63712   5.070  26.681   6.571
 5049POPC   C3A63713   5.154  26.531   7.002
 5049POPC   C4A63714   5.347  26.659   7.417
 5049POPC   C1B63715   5.344  27.166   6.020
 5049POPC   C2B63716   5.292  27.292   6.468
 5049POPC   C3B63717   5.197  27.118   6.895
 5049POPC   C4B63718   5.419  27.132   7.280
 5050POPC   NC363719  20.630  13.085   5.218
 5050POPC   PO463720  20.949  12.836   5.719
 5050POPC   GL163721  20.564  12.877   5.791
 5050POPC   GL263722  20.444  12.541   5.818
 5050POPC   C1A63723  20.582  12.916   6.244
 5050POPC   D2A63724  20.524  12.762   6.629
 5050POPC   C3A63725  20.525  13.102   6.926
 5050POPC   C4A63726  20.771  13.049   7.304
 5050POPC   C1B63727  20.167  12.606   6.167
 5050POPC   C2B63728  20.004  12.648   6.555
 5050POPC   C3B63729  20.160  12.634   6.953
 5050POPC   C4B63730  20.278  12.837   7.285
 5051POPC   NC363731  14.557  18.040   5.304
 5051POPC   PO463732  14.335  17.401   5.418
 5051POPC   GL163733  14.464  17.439   5.825
 5051POPC   GL263734  14.589  17.782   5.749
 5051POPC   C1A63735  14.357  17.315   6.244
 5051POPC   D2A63736  14.468  17.554   6.610
 5051POPC   C3A63737  14.407  17.266   6.939
 5051POPC   C4A63738  14.030  17.142   7.073
 5051POPC   C1B63739  14.515  17.832   6.176
 5051POPC   C2B63740  14.664  18.051   6.543
 5051POPC   C3B63741  14.805  17.849   6.894
 5051POPC   C4B63742  14.431  17.742   7.100
 5052POPC   NC363743   4.735   9.616   5.519
 5052POPC   PO463744   4.120   9.887   5.502
 5052POPC   GL163745   4.283   9.550   5.809
 5052POPC   GL263746   4.645   9.467   5.980
 5052POPC   C1A63747   4.246   9.662   6.232
 5052POPC   D2A63748   4.502   9.659   6.561
 5052POPC   C3A63749   4.263   9.758   6.884
 5052POPC   C4A63750   4.370   9.833   7.260
 5052POPC   C1B63751   4.519   9.187   6.292
 5052POPC   C2B63752   4.471   9.184   6.737
 5052POPC   C3B63753   4.615   9.433   7.051
 5052POPC   C4B63754   4.847   9.395   7.447
 5053POPC   NC363755  38.417  34.165   5.292
 5053POPC   PO463756  38.418  34.794   5.436
 5053POPC   GL163757  38.595  34.746   5.835
 5053POPC   GL263758  38.522  34.415   5.807
 5053POPC   C1A63759  38.552  34.632   6.271
 5053POPC   D2A63760  38.357  34.749   6.626
 5053POPC   C3A63761  38.541  34.676   6.997
 5053POPC   C4A63762  38.244  34.617   7.324
 5053POPC   C1B63763  38.208  34.240   6.071
 5053POPC   C2B63764  38.069  34.361   6.483
 5053POPC   C3B63765  38.154  34.267   6.915
 5053POPC   C4B63766  38.459  34.134   7.206
 5054POPC   NC363767   4.703  41.400   5.127
 5054POPC   PO463768   4.138  41.813   5.345
 5054POPC   GL163769   4.053  41.532   5.753
 5054POPC   GL263770   4.353  41.391   5.939
 5054POPC   C1A63771   3.914  41.295   6.145
 5054POPC   D2A63772   4.082  41.259   6.579
 5054POPC   C3A63773   4.227  41.540   6.888
 5054POPC   C4A63774   4.055  41.534   7.269
 5054POPC   C1B63775   4.410  41.662   6.303
 5054POPC   C2B63776   4.687  41.626   6.661
 5054POPC   C3B63777   4.647  41.775   7.091
 5054POPC   C4B63778   4.288  41.981   7.271
 5055POPC   NC363779  43.905  14.103   5.266
 5055POPC   PO463780  44.266  13.556   5.274
 5055POPC   GL163781  44.069  13.723   5.640
 5055POPC   GL263782  44.087  13.375   5.747
 5055POPC   C1A63783  43.809  13.728   6.012
 5055POPC   D2A63784  43.981  13.706   6.429
 5055POPC   C3A63785  43.747  13.661   6.793
 5055POPC   C4A63786  43.874  13.656   7.211
 5055POPC   C1B63787  44.282  13.357   6.139
 5055POPC   C2B63788  44.125  13.215   6.492
 5055POPC   C3B63789  44.109  13.279   6.906
 5055POPC   C4B63790  44.210  13.294   7.322
 5056POPC   NC363791  19.258  10.055   5.389
 5056POPC   PO463792  18.752   9.713   5.215
 5056POPC   GL163793  18.789   9.903   5.641
 5056POPC   GL263794  18.741   9.569   5.778
 5056POPC   C1A63795  19.068   9.870   6.049
 5056POPC   D2A63796  19.255  10.014   6.470
 5056POPC   C3A63797  19.237   9.781   6.857
 5056POPC   C4A63798  19.183   9.909   7.278
 5056POPC   C1B63799  18.712   9.517   6.220
 5056POPC   C2B63800  18.915   9.450   6.609
 5056POPC   C3B63801  18.796   9.535   7.026
 5056POPC   C4B63802  18.856   9.508   7.473
 5057POPC   NC363803  41.419  29.659   5.430
 5057POPC   PO463804  41.252  30.405   5.510
 5057POPC   GL163805  41.381  30.063   5.795
 5057POPC   GL263806  41.175  29.761   5.862
 5057POPC   C1A63807  41.631  30.053   6.189
 5057POPC   D2A63808  41.562  30.249   6.611
 5057POPC   C3A63809  41.917  30.300   6.907
 5057POPC   C4A63810  41.867  30.093   7.296
 5057POPC   C1B63811  41.447  29.585   6.135
 5057POPC   C2B63812  41.716  29.661   6.496
 5057POPC   C3B63813  41.663  29.834   6.896
 5057POPC   C4B63814  41.425  29.741   7.239
 5058POPC   NC363815  18.898   6.284   5.474
 5058POPC   PO463816  19.410   5.813   5.569
 5058POPC   GL163817  19.131   5.993   5.851
 5058POPC   GL263818  18.777   5.870   5.832
 5058POPC   C1A63819  18.993   6.094   6.245
 5058POPC   D2A63820  18.984   5.926   6.634
 5058POPC   C3A63821  19.044   6.097   7.079
 5058POPC   C4A63822  19.185   5.836   7.447
 5058POPC   C1B63823  18.554   5.806   6.248
 5058POPC   C2B63824  18.579   5.613   6.651
 5058POPC   C3B63825  18.898   5.589   6.981
 5058POPC   C4B63826  18.718   5.709   7.315
 5059POPC   NC363827  35.640  22.003   5.425
 5059POPC   PO463828  35.189  22.521   5.384
 5059POPC   GL163829  35.246  22.343   5.765
 5059POPC   GL263830  35.569  22.425   5.766
 5059POPC   C1A63831  35.326  22.185   6.197
 5059POPC   D2A63832  35.210  22.333   6.614
 5059POPC   C3A63833  35.191  22.124   7.052
 5059POPC   C4A63834  35.264  21.860   7.465
 5059POPC   C1B63835  35.794  22.425   6.131
 5059POPC   C2B63836  35.723  22.282   6.534
 5059POPC   C3B63837  35.635  22.388   6.931
 5059POPC   C4B63838  35.603  22.252   7.328
 5060POPC   NC363839   6.079  37.852   5.084
 5060POPC   PO463840   5.500  37.473   5.314
 5060POPC   GL163841   5.782  37.722   5.589
 5060POPC   GL263842   5.967  37.511   5.825
 5060POPC   C1A63843   5.681  37.879   6.021
 5060POPC   D2A63844   5.628  38.055   6.459
 5060POPC   C3A63845   5.659  37.905   6.880
 5060POPC   C4A63846   5.977  37.940   7.219
 5060POPC   C1B63847   5.673  37.382   6.192
 5060POPC   C2B63848   5.728  37.422   6.660
 5060POPC   C3B63849   5.759  37.479   7.144
 5060POPC   C4B63850   5.723  37.422   7.601
 5061POPC   NC363851  40.306  32.558   5.525
 5061POPC   PO463852  40.733  32.080   5.499
 5061POPC   GL163853  41.037  32.128   5.810
 5061POPC   GL263854  41.147  32.451   5.690
 5061POPC   C1A63855  40.834  32.125   6.214
 5061POPC   D2A63856  40.700  31.880   6.575
 5061POPC   C3A63857  40.688  32.137   6.905
 5061POPC   C4A63858  40.482  32.115   7.247
 5061POPC   C1B63859  41.045  32.599   6.109
 5061POPC   C2B63860  40.866  32.513   6.531
 5061POPC   C3B63861  40.989  32.568   6.924
 5061POPC   C4B63862  40.764  32.544   7.316
 5062POPC   NC363863   2.047  28.153   5.335
 5062POPC   PO463864   1.764  28.712   5.475
 5062POPC   GL163865   2.070  28.446   5.779
 5062POPC   GL263866   2.294  28.101   5.770
 5062POPC   C1A63867   1.911  28.377   6.202
 5062POPC   D2A63868   1.777  28.233   6.625
 5062POPC   C3A63869   2.037  28.256   6.975
 5062POPC   C4A63870   2.073  28.494   7.352
 5062POPC   C1B63871   2.352  28.140   6.180
 5062POPC   C2B63872   2.232  27.962   6.564
 5062POPC   C3B63873   2.397  27.918   6.954
 5062POPC   C4B63874   2.461  28.173   7.286
 5063POPC   NC363875  30.090  27.867   5.353
 5063POPC   PO463876  29.539  27.452   5.400
 5063POPC   GL163877  29.754  27.405   5.802
 5063POPC   GL263878  29.500  27.243   5.938
 5063POPC   C1A63879  29.972  27.455   6.227
 5063POPC   D2A63880  30.084  27.761   6.564
 5063POPC   C3A63881  30.079  27.753   7.020
 5063POPC   C4A63882  30.408  27.981   7.233
 5063POPC   C1B63883  29.516  27.271   6.387
 5063POPC   C2B63884  29.776  27.389   6.739
 5063POPC   C3B63885  29.927  27.256   7.138
 5063POPC   C4B63886  29.827  27.357   7.618
 5064POPC   NC363887  31.549  39.660   5.360
 5064POPC   PO463888  31.155  40.229   5.468
 5064POPC   GL163889  31.352  39.917   5.772
 5064POPC   GL263890  31.105  39.707   5.942
 5064POPC   C1A63891  31.539  40.036   6.200
 5064POPC   D2A63892  31.674  39.923   6.608
 5064POPC   C3A63893  31.603  40.151   6.996
 5064POPC   C4A63894  31.591  39.799   7.234
 5064POPC   C1B63895  31.053  40.129   6.115
 5064POPC   C2B63896  31.070  40.133   6.530
 5064POPC   C3B63897  31.194  39.896   6.871
 5064POPC   C4B63898  31.130  39.980   7.276
 5065POPC   NC363899   6.175   0.653   5.388
 5065POPC   PO463900   6.927   0.564   5.423
 5065POPC   GL163901   6.678   0.507   5.800
 5065POPC   GL263902   6.389   0.304   5.696
 5065POPC   C1A63903   6.625   0.645   6.254
 5065POPC   D2A63904   6.756   0.451   6.656
 5065POPC   C3A63905   6.494   0.594   6.990
 5065POPC   C4A63906   6.500   0.935   7.248
 5065POPC   C1B63907   6.210   0.401   6.097
 5065POPC   C2B63908   6.287   0.296   6.518
 5065POPC   C3B63909   6.339   0.119   6.940
 5065POPC   C4B63910   6.475   0.279   7.395
 5066POPC   NC363911  33.748  20.637   5.450
 5066POPC   PO463912  34.316  20.270   5.442
 5066POPC   GL163913  34.035  20.356   5.776
 5066POPC   GL263914  34.136  20.700   5.798
 5066POPC   C1A63915  33.786  20.366   6.169
 5066POPC   D2A63916  33.854  20.375   6.614
 5066POPC   C3A63917  33.727  20.668   6.867
 5066POPC   C4A63918  33.625  20.682   7.270
 5066POPC   C1B63919  34.139  20.739   6.248
 5066POPC   C2B63920  34.241  20.746   6.674
 5066POPC   C3B63921  34.171  20.494   7.024
 5066POPC   C4B63922  34.150  20.757   7.299
 5067POPC   NC363923  29.831  15.872   5.401
 5067POPC   PO463924  30.312  16.170   5.527
 5067POPC   GL163925  30.130  16.002   5.827
 5067POPC   GL263926  30.262  15.727   5.822
 5067POPC   C1A63927  29.959  15.955   6.221
 5067POPC   D2A63928  30.078  16.042   6.632
 5067POPC   C3A63929  29.708  16.079   6.876
 5067POPC   C4A63930  29.864  15.997   7.254
 5067POPC   C1B63931  30.299  15.535   6.180
 5067POPC   C2B63932  29.990  15.513   6.493
 5067POPC   C3B63933  29.891  15.600   6.895
 5067POPC   C4B63934  30.170  15.594   7.224
 5068POPC   NC363935  37.296  13.980   5.434
 5068POPC   PO463936  37.470  14.586   5.496
 5068POPC   GL163937  37.695  14.312   5.709
 5068POPC   GL263938  37.400  14.185   5.877
 5068POPC   C1A63939  37.851  14.305   6.132
 5068POPC   D2A63940  37.988  14.137   6.490
 5068POPC   C3A63941  37.912  14.427   6.792
 5068POPC   C4A63942  37.907  14.436   7.232
 5068POPC   C1B63943  37.386  14.500   6.176
 5068POPC   C2B63944  37.314  14.520   6.582
 5068POPC   C3B63945  37.427  14.470   7.000
 5068POPC   C4B63946  37.365  14.824   7.252
 5069POPC   NC363947  35.640   3.508   5.625
 5069POPC   PO463948  36.264   3.496   5.430
 5069POPC   GL163949  36.370   3.629   5.840
 5069POPC   GL263950  36.401   3.284   5.913
 5069POPC   C1A63951  36.381   3.985   6.144
 5069POPC   D2A63952  36.340   4.063   6.586
 5069POPC   C3A63953  36.062   3.737   6.764
 5069POPC   C4A63954  35.812   3.412   7.018
 5069POPC   C1B63955  36.211   3.447   6.300
 5069POPC   C2B63956  36.199   3.253   6.692
 5069POPC   C3B63957  36.313   3.410   7.116
 5069POPC   C4B63958  36.540   3.375   7.495
 5070POPC   NC363959   0.440  30.313   5.132
 5070POPC   PO463960   0.596  30.879   5.488
 5070POPC   GL163961   0.556  30.823   5.934
 5070POPC   GL263962   0.188  30.820   5.909
 5070POPC   C1A63963   0.586  30.657   6.343
 5070POPC   D2A63964   0.332  30.781   6.664
 5070POPC   C3A63965   0.444  30.736   7.089
 5070POPC   C4A63966   0.212  30.897   7.409
 5070POPC   C1B63967   0.126  30.473   6.183
 5070POPC   C2B63968   0.300  30.262   6.521
 5070POPC   C3B63969   0.106  30.385   6.899
 5070POPC   C4B63970   0.155  30.359   7.299
 5071POPC   NC363971  10.694  14.074   5.047
 5071POPC   PO463972  10.453  14.450   5.491
 5071POPC   GL163973  10.258  14.495   5.839
 5071POPC   GL263974  10.613  14.458   5.970
 5071POPC   C1A63975  10.078  14.543   6.215
 5071POPC   D2A63976  10.298  14.628   6.595
 5071POPC   C3A63977  10.124  14.603   7.003
 5071POPC   C4A63978  10.384  14.555   7.350
 5071POPC   C1B63979  10.462  14.224   6.288
 5071POPC   C2B63980  10.617  14.094   6.626
 5071POPC   C3B63981  10.642  14.335   6.958
 5071POPC   C4B63982  10.713  14.177   7.352
 5072POPC   NC363983  23.732   8.041   5.003
 5072POPC   PO463984  23.573   8.444   5.470
 5072POPC   GL163985  23.899   8.308   5.787
 5072POPC   GL263986  24.208   8.503   5.819
 5072POPC   C1A63987  23.794   8.078   6.189
 5072POPC   D2A63988  23.493   8.054   6.523
 5072POPC   C3A63989  23.698   8.047   6.898
 5072POPC   C4A63990  23.612   7.928   7.286
 5072POPC   C1B63991  23.977   8.550   6.221
 5072POPC   C2B63992  23.750   8.493   6.587
 5072POPC   C3B63993  24.006   8.498   6.943
 5072POPC   C4B63994  24.035   8.445   7.357
 5073POPC   NC363995  15.728  21.826   5.217
 5073POPC   PO463996  15.744  22.442   5.371
 5073POPC   GL163997  16.008  22.222   5.696
 5073POPC   GL263998  15.883  21.869   5.754
 5073POPC   C1A63999  15.964  22.229   6.176
 5073POPC   D2A64000  16.230  22.123   6.563
 5073POPC   C3A64001  16.262  22.421   6.917
 5073POPC   C4A64002  16.035  22.394   7.299
 5073POPC   C1B64003  15.975  21.698   6.188
 5073POPC   C2B64004  15.801  21.806   6.600
 5073POPC   C3B64005  15.828  22.012   6.996
 5073POPC   C4B64006  15.973  21.780   7.338
 5074POPC   NC364007  33.992  13.036   5.398
 5074POPC   PO464008  33.276  13.057   5.292
 5074POPC   GL164009  33.575  12.859   5.631
 5074POPC   GL264010  33.725  13.143   5.820
 5074POPC   C1A64011  33.805  12.697   6.050
 5074POPC   D2A64012  33.888  12.830   6.473
 5074POPC   C3A64013  33.808  12.570   6.824
 5074POPC   C4A64014  33.918  12.573   7.246
 5074POPC   C1B64015  34.052  13.202   6.150
 5074POPC   C2B64016  34.292  13.134   6.539
 5074POPC   C3B64017  34.117  12.999   6.945
 5074POPC   C4B64018  33.767  13.162   7.170
 5075POPC   NC364019  25.703  27.724   5.047
 5075POPC   PO464020  26.267  27.637   5.522
 5075POPC   GL164021  26.102  27.537   5.899
 5075POPC   GL264022  25.801  27.322   5.791
 5075POPC   C1A64023  26.100  27.232   6.213
 5075POPC   D2A64024  25.831  27.136   6.571
 5075POPC   C3A64025  26.034  27.316   6.930
 5075POPC   C4A64026  26.164  27.779   7.069
 5075POPC   C1B64027  25.667  27.504   6.190
 5075POPC   C2B64028  25.783  27.657   6.609
 5075POPC   C3B64029  25.651  27.666   7.058
 5075POPC   C4B64030  25.782  27.922   7.438
 5076POPC   NC364031  21.254  33.350   5.479
 5076POPC   PO464032  21.601  33.928   5.365
 5076POPC   GL164033  21.302  34.012   5.698
 5076POPC   GL264034  21.535  34.162   5.881
 5076POPC   C1A64035  21.128  34.033   6.144
 5076POPC   D2A64036  21.326  33.855   6.479
 5076POPC   C3A64037  21.210  33.863   6.889
 5076POPC   C4A64038  21.350  33.656   7.283
 5076POPC   C1B64039  21.579  33.709   6.025
 5076POPC   C2B64040  21.714  33.545   6.426
 5076POPC   C3B64041  21.738  33.834   6.794
 5076POPC   C4B64042  21.871  33.760   7.209
 5077POPC   NC364043  19.629  37.908   5.203
 5077POPC   PO464044  19.702  37.265   5.369
 5077POPC   GL164045  19.722  37.552   5.732
 5077POPC   GL264046  20.067  37.435   5.835
 5077POPC   C1A64047  19.839  37.748   6.159
 5077POPC   D2A64048  20.136  37.587   6.495
 5077POPC   C3A64049  19.945  37.680   6.887
 5077POPC   C4A64050  19.604  38.001   6.890
 5077POPC   C1B64051  19.831  37.239   6.200
 5077POPC   C2B64052  19.666  37.351   6.613
 5077POPC   C3B64053  19.746  37.211   7.044
 5077POPC   C4B64054  19.639  37.264   7.487
 5078POPC   NC364055  38.181  15.756   5.246
 5078POPC   PO464056  38.789  15.956   5.343
 5078POPC   GL164057  38.624  15.855   5.735
 5078POPC   GL264058  38.253  15.886   5.748
 5078POPC   C1A64059  38.599  15.953   6.148
 5078POPC   D2A64060  38.493  15.787   6.552
 5078POPC   C3A64061  38.465  16.062   6.911
 5078POPC   C4A64062  38.659  16.008   7.304
 5078POPC   C1B64063  38.115  15.771   6.183
 5078POPC   C2B64064  37.983  15.882   6.628
 5078POPC   C3B64065  38.055  15.774   7.077
 5078POPC   C4B64066  38.264  15.748   7.477
 5079POPC   NC364067  18.093  39.356   5.337
 5079POPC   PO464068  18.676  38.918   5.381
 5079POPC   GL164069  18.563  39.088   5.776
 5079POPC   GL264070  18.202  39.089   5.771
 5079POPC   C1A64071  18.476  38.942   6.187
 5079POPC   D2A64072  18.381  39.164   6.573
 5079POPC   C3A64073  18.503  39.059   6.991
 5079POPC   C4A64074  18.365  39.356   7.342
 5079POPC   C1B64075  18.012  39.168   6.172
 5079POPC   C2B64076  17.871  39.064   6.578
 5079POPC   C3B64077  18.015  39.150   6.975
 5079POPC   C4B64078  17.860  39.408   7.261
 5080POPC   NC364079  37.627   4.452   5.426
 5080POPC   PO464080  38.001   3.860   5.401
 5080POPC   GL164081  37.934   4.140   5.746
 5080POPC   GL264082  37.592   4.090   5.794
 5080POPC   C1A64083  37.824   4.404   6.129
 5080POPC   D2A64084  37.640   4.353   6.552
 5080POPC   C3A64085  37.830   4.350   6.981
 5080POPC   C4A64086  38.144   4.681   7.102
 5080POPC   C1B64087  37.379   4.104   6.160
 5080POPC   C2B64088  37.443   3.897   6.539
 5080POPC   C3B64089  37.357   4.140   6.925
 5080POPC   C4B64090  37.460   4.317   7.332
 5081POPC   NC364091   9.421   1.902   5.487
 5081POPC   PO464092  10.016   1.700   5.416
 5081POPC   GL164093   9.887   2.011   5.797
 5081POPC   GL264094   9.561   2.195   5.902
 5081POPC   C1A64095   9.896   2.054   6.275
 5081POPC   D2A64096   9.873   2.093   6.745
 5081POPC   C3A64097  10.083   2.002   7.161
 5081POPC   C4A64098   9.914   2.032   7.597
 5081POPC   C1B64099   9.443   1.867   6.208
 5081POPC   C2B64100   9.560   1.700   6.622
 5081POPC   C3B64101   9.541   1.864   7.070
 5081POPC   C4B64102   9.399   1.991   7.494
 5082POPC   NC364103   3.835  40.791   5.373
 5082POPC   PO464104   3.173  40.763   5.363
 5082POPC   GL164105   3.435  40.724   5.761
 5082POPC   GL264106   3.781  40.594   5.828
 5082POPC   C1A64107   3.490  40.801   6.216
 5082POPC   D2A64108   3.606  41.035   6.567
 5082POPC   C3A64109   3.356  41.005   6.941
 5082POPC   C4A64110   3.605  41.102   7.324
 5082POPC   C1B64111   3.960  40.598   6.221
 5082POPC   C2B64112   3.782  40.549   6.596
 5082POPC   C3B64113   3.775  40.731   6.983
 5082POPC   C4B64114   3.679  40.600   7.399
 5083POPC   NC364115  11.663  44.456   5.274
 5083POPC   PO464116  11.909   0.009   5.537
 5083POPC   GL164117  12.108  44.857   5.930
 5083POPC   GL264118  12.306  44.550   5.870
 5083POPC   C1A64119  12.051  44.667   6.369
 5083POPC   D2A64120  11.732  44.389   6.617
 5083POPC   C3A64121  11.882  44.264   7.028
 5083POPC   C4A64122  12.061  44.589   7.290
 5083POPC   C1B64123  12.550  44.593   6.243
 5083POPC   C2B64124  12.503  44.672   6.680
 5083POPC   C3B64125  12.568  44.816   7.087
 5083POPC   C4B64126  12.261   0.063   7.326
 5084POPC   NC364127  20.368  25.072   5.337
 5084POPC   PO464128  20.615  25.704   5.303
 5084POPC   GL164129  20.822  25.410   5.595
 5084POPC   GL264130  20.521  25.280   5.790
 5084POPC   C1A64131  20.962  25.463   6.051
 5084POPC   D2A64132  20.802  25.473   6.512
 5084POPC   C3A64133  20.855  25.108   6.791
 5084POPC   C4A64134  20.840  25.068   7.234
 5084POPC   C1B64135  20.268  25.176   6.169
 5084POPC   C2B64136  20.210  25.334   6.584
 5084POPC   C3B64137  20.480  25.435   6.947
 5084POPC   C4B64138  20.412  25.331   7.385
 5085POPC   NC364139  38.331  38.299   5.123
 5085POPC   PO464140  38.763  38.661   5.420
 5085POPC   GL164141  38.610  38.368   5.763
 5085POPC   GL264142  38.231  38.362   5.811
 5085POPC   C1A64143  38.644  38.348   6.225
 5085POPC   D2A64144  38.488  38.552   6.614
 5085POPC   C3A64145  38.640  38.400   6.992
 5085POPC   C4A64146  38.980  38.158   7.167
 5085POPC   C1B64147  38.136  38.396   6.276
 5085POPC   C2B64148  38.172  38.166   6.713
 5085POPC   C3B64149  38.148  38.233   7.179
 5085POPC   C4B64150  38.121  38.634   7.451
 5086POPC   NC364151  18.309  38.672   5.512
 5086POPC   PO464152  17.800  38.294   5.339
 5086POPC   GL164153  17.984  38.349   5.772
 5086POPC   GL264154  18.371  38.241   5.801
 5086POPC   C1A64155  18.029  38.641   6.145
 5086POPC   D2A64156  18.231  38.669   6.556
 5086POPC   C3A64157  18.183  38.377   6.879
 5086POPC   C4A64158  18.186  38.646   7.193
 5086POPC   C1B64159  18.518  38.399   6.210
 5086POPC   C2B64160  18.621  38.226   6.602
 5086POPC   C3B64161  18.581  38.037   7.000
 5086POPC   C4B64162  18.443  38.254   7.356
 5087POPC   NC364163  44.668  15.632   5.559
 5087POPC   PO464164  44.471  16.246   5.427
 5087POPC   GL164165  44.656  16.111   5.790
 5087POPC   GL264166  44.433  15.865   5.934
 5087POPC   C1A64167  44.788  16.137   6.199
 5087POPC   D2A64168  44.977  15.973   6.601
 5087POPC   C3A64169  44.740  16.016   6.960
 5087POPC   C4A64170  44.645  16.293   7.278
 5087POPC   C1B64171  44.525  15.740   6.368
 5087POPC   C2B64172  44.328  15.852   6.732
 5087POPC   C3B64173  44.349  15.740   7.156
 5087POPC   C4B64174  44.348  15.972   7.541
 5088POPC   NC364175  37.536  13.163   5.395
 5088POPC   PO464176  37.953  12.654   5.580
 5088POPC   GL164177  37.702  12.949   5.832
 5088POPC   GL264178  38.003  13.040   5.969
 5088POPC   C1A64179  37.332  12.997   6.152
 5088POPC   D2A64180  37.188  12.857   6.608
 5088POPC   C3A64181  37.487  12.941   6.967
 5088POPC   C4A64182  37.775  12.644   7.157
 5088POPC   C1B64183  38.252  13.245   6.262
 5088POPC   C2B64184  38.228  13.041   6.669
 5088POPC   C3B64185  38.173  13.127   7.094
 5088POPC   C4B64186  37.861  13.121   7.353
 5089POPC   NC364187   5.042  17.027   5.433
 5089POPC   PO464188   4.730  16.407   5.603
 5089POPC   GL164189   5.025  16.564   5.908
 5089POPC   GL264190   5.177  16.900   5.910
 5089POPC   C1A64191   5.266  16.378   6.225
 5089POPC   D2A64192   5.129  16.473   6.613
 5089POPC   C3A64193   5.323  16.374   6.970
 5089POPC   C4A64194   5.022  16.565   7.257
 5089POPC   C1B64195   5.289  16.915   6.345
 5089POPC   C2B64196   5.207  16.962   6.790
 5089POPC   C3B64197   5.441  16.870   7.191
 5089POPC   C4B64198   5.297  16.884   7.624
 5090POPC   NC364199   8.962   6.218   5.096
 5090POPC   PO464200   8.894   5.667   5.474
 5090POPC   GL164201   8.775   5.743   5.858
 5090POPC   GL264202   8.772   6.121   5.802
 5090POPC   C1A64203   8.899   5.559   6.247
 5090POPC   D2A64204   8.845   5.671   6.651
 5090POPC   C3A64205   9.134   5.530   6.920
 5090POPC   C4A64206   9.286   5.643   7.289
 5090POPC   C1B64207   9.121   6.033   6.143
 5090POPC   C2B64208   9.293   5.896   6.562
 5090POPC   C3B64209   9.211   6.058   7.005
 5090POPC   C4B64210   8.991   6.014   7.447
 5091POPC   NC364211   6.372  31.342   5.472
 5091POPC   PO464212   5.675  31.386   5.390
 5091POPC   GL164213   5.958  31.496   5.775
 5091POPC   GL264214   6.111  31.188   5.919
 5091POPC   C1A64215   6.093  31.564   6.246
 5091POPC   D2A64216   5.909  31.374   6.637
 5091POPC   C3A64217   5.737  31.734   6.877
 5091POPC   C4A64218   6.098  31.933   7.023
 5091POPC   C1B64219   5.678  31.256   6.155
 5091POPC   C2B64220   5.404  31.377   6.541
 5091POPC   C3B64221   5.492  31.287   6.980
 5091POPC   C4B64222   5.915  31.366   7.167
 5092POPC   NC364223  36.998  23.736   5.489
 5092POPC   PO464224  37.000  23.111   5.524
 5092POPC   GL164225  36.774  23.441   5.847
 5092POPC   GL264226  36.785  23.850   5.921
 5092POPC   C1A64227  36.780  23.540   6.311
 5092POPC   D2A64228  36.843  23.517   6.743
 5092POPC   C3A64229  36.846  23.887   6.988
 5092POPC   C4A64230  36.776  23.828   7.404
 5092POPC   C1B64231  37.200  23.767   6.093
 5092POPC   C2B64232  37.275  23.613   6.474
 5092POPC   C3B64233  37.301  23.648   6.908
 5092POPC   C4B64234  37.253  23.732   7.294
 5093POPC   NC364235  41.322  18.148   5.399
 5093POPC   PO464236  41.800  18.606   5.402
 5093POPC   GL164237  41.546  18.485   5.724
 5093POPC   GL264238  41.691  18.162   5.763
 5093POPC   C1A64239  41.380  18.356   6.118
 5093POPC   D2A64240  41.376  18.147   6.485
 5093POPC   C3A64241  41.461  18.392   6.824
 5093POPC   C4A64242  41.601  18.337   7.217
 5093POPC   C1B64243  41.803  18.025   6.182
 5093POPC   C2B64244  41.773  17.870   6.622
 5093POPC   C3B64245  41.929  18.005   7.002
 5093POPC   C4B64246  42.049  17.738   7.324
 5094POPC   NC364247   5.202  33.418   5.316
 5094POPC   PO464248   4.903  32.810   5.205
 5094POPC   GL164249   5.081  32.840   5.641
 5094POPC   GL264250   5.270  33.157   5.736
 5094POPC   C1A64251   5.167  32.849   6.116
 5094POPC   D2A64252   4.908  32.814   6.495
 5094POPC   C3A64253   5.127  32.964   6.862
 5094POPC   C4A64254   5.061  32.812   7.263
 5094POPC   C1B64255   5.559  33.269   6.107
 5094POPC   C2B64256   5.689  33.175   6.549
 5094POPC   C3B64257   5.634  33.073   6.976
 5094POPC   C4B64258   5.369  33.246   7.282
 5095POPC   NC364259  15.395  13.914   5.497
 5095POPC   PO464260  15.087  13.265   5.442
 5095POPC   GL164261  15.233  13.375   5.854
 5095POPC   GL264262  15.085  13.677   5.816
 5095POPC   C1A64263  15.281  13.537   6.282
 5095POPC   D2A64264  15.121  13.731   6.679
 5095POPC   C3A64265  15.326  13.573   7.074
 5095POPC   C4A64266  15.062  13.464   7.415
 5095POPC   C1B64267  15.026  13.968   6.142
 5095POPC   C2B64268  14.767  14.064   6.481
 5095POPC   C3B64269  14.820  14.098   6.942
 5095POPC   C4B64270  15.085  13.966   7.283
 5096POPC   NC364271  38.213  13.106   5.502
 5096POPC   PO464272  38.809  12.681   5.235
 5096POPC   GL164273  38.616  12.858   5.649
 5096POPC   GL264274  38.757  13.153   5.668
 5096POPC   C1A64275  38.494  12.807   6.139
 5096POPC   D2A64276  38.560  12.619   6.598
 5096POPC   C3A64277  38.293  12.637   7.016
 5096POPC   C4A64278  38.166  12.735   7.486
 5096POPC   C1B64279  38.808  13.220   6.102
 5096POPC   C2B64280  38.682  13.214   6.528
 5096POPC   C3B64281  38.680  13.015   6.925
 5096POPC   C4B64282  38.597  12.918   7.330
 5097POPC   NC364283  44.320  33.348   5.289
 5097POPC   PO464284  44.014  32.863   5.671
 5097POPC   GL164285  43.716  33.028   5.893
 5097POPC   GL264286  43.442  32.739   5.948
 5097POPC   C1A64287  43.789  33.344   6.155
 5097POPC   D2A64288  43.688  33.144   6.538
 5097POPC   C3A64289  43.682  33.340   6.914
 5097POPC   C4A64290  43.895  33.357   7.264
 5097POPC   C1B64291  43.759  32.691   6.275
 5097POPC   C2B64292  43.753  32.651   6.684
 5097POPC   C3B64293  43.884  32.874   6.999
 5097POPC   C4B64294  43.781  32.564   7.254
 5098POPC   NC364295   4.396  34.901   5.613
 5098POPC   PO464296   4.348  34.191   5.370
 5098POPC   GL164297   4.440  34.300   5.786
 5098POPC   GL264298   4.105  34.444   5.835
 5098POPC   C1A64299   4.466  34.394   6.232
 5098POPC   D2A64300   4.602  34.380   6.691
 5098POPC   C3A64301   4.554  34.680   7.057
 5098POPC   C4A64302   4.308  34.697   7.456
 5098POPC   C1B64303   3.948  34.459   6.283
 5098POPC   C2B64304   4.047  34.515   6.734
 5098POPC   C3B64305   3.897  34.520   7.161
 5098POPC   C4B64306   3.912  34.416   7.606
 5099POPC   NC364307  18.728   3.311   5.484
 5099POPC   PO464308  19.319   3.672   5.335
 5099POPC   GL164309  19.141   3.543   5.723
 5099POPC   GL264310  18.809   3.711   5.816
 5099POPC   C1A64311  19.360   3.390   6.086
 5099POPC   D2A64312  19.444   3.588   6.486
 5099POPC   C3A64313  19.150   3.574   6.788
 5099POPC   C4A64314  19.248   3.330   7.155
 5099POPC   C1B64315  18.861   3.472   6.193
 5099POPC   C2B64316  18.768   3.242   6.583
 5099POPC   C3B64317  18.755   3.345   7.024
 5099POPC   C4B64318  18.929   3.749   7.225
 5100POPC   NC364319  35.025  20.767   5.536
 5100POPC   PO464320  35.549  20.456   5.263
 5100POPC   GL164321  35.379  20.438   5.723
 5100POPC   GL264322  35.464  20.776   5.837
 5100POPC   C1A64323  35.121  20.545   6.135
 5100POPC   D2A64324  35.175  20.457   6.571
 5100POPC   C3A64325  35.152  20.638   6.987
 5100POPC   C4A64326  35.486  20.566   7.262
 5100POPC   C1B64327  35.602  20.631   6.258
 5100POPC   C2B64328  35.543  20.816   6.668
 5100POPC   C3B64329  35.777  20.928   7.009
 5100POPC   C4B64330  35.723  20.982   7.423
 5101POPC   NC364331  33.270  35.199   5.019
 5101POPC   PO464332  32.854  35.684   5.229
 5101POPC   GL164333  33.174  35.444   5.566
 5101POPC   GL264334  33.122  35.107   5.784
 5101POPC   C1A64335  33.210  35.515   6.057
 5101POPC   D2A64336  32.983  35.347   6.437
 5101POPC   C3A64337  33.157  35.442   6.842
 5101POPC   C4A64338  33.373  35.208   7.156
 5101POPC   C1B64339  32.773  34.977   6.082
 5101POPC   C2B64340  32.518  35.054   6.467
 5101POPC   C3B64341  32.758  35.100   6.861
 5101POPC   C4B64342  32.886  35.283   7.247
 5102POPC   NC364343  32.535  16.745   5.100
 5102POPC   PO464344  32.197  17.058   5.547
 5102POPC   GL164345  32.132  16.806   5.935
 5102POPC   GL264346  32.374  16.582   5.815
 5102POPC   C1A64347  32.170  16.418   6.236
 5102POPC   D2A64348  32.253  16.342   6.670
 5102POPC   C3A64349  32.049  16.681   6.865
 5102POPC   C4A64350  31.895  16.922   7.205
 5102POPC   C1B64351  32.565  16.847   6.170
 5102POPC   C2B64352  32.471  16.909   6.612
 5102POPC   C3B64353  32.508  16.787   7.058
 5102POPC   C4B64354  32.232  16.605   7.389
 5103POPC   NC364355  16.043   0.416   5.198
 5103POPC   PO464356  16.565   0.533   5.551
 5103POPC   GL164357  16.715   0.289   5.877
 5103POPC   GL264358  17.043   0.369   5.860
 5103POPC   C1A64359  16.777   0.357   6.307
 5103POPC   D2A64360  16.494   0.551   6.579
 5103POPC   C3A64361  16.677   0.705   6.943
 5103POPC   C4A64362  16.549   0.453   7.277
 5103POPC   C1B64363  17.136   0.033   6.103
 5103POPC   C2B64364  17.078   0.000   6.564
 5103POPC   C3B64365  16.864   0.199   6.920
 5103POPC   C4B64366  16.997   0.199   7.347
 5104POPC   NC364367  21.184  38.374   5.606
 5104POPC   PO464368  21.669  38.767   5.599
 5104POPC   GL164369  21.492  38.563   5.978
 5104POPC   GL264370  21.470  38.178   5.984
 5104POPC   C1A64371  21.269  38.457   6.368
 5104POPC   D2A64372  21.338  38.128   6.697
 5104POPC   C3A64373  21.170  38.279   7.076
 5104POPC   C4A64374  21.215  38.696   7.204
 5104POPC   C1B64375  21.763  38.310   6.338
 5104POPC   C2B64376  21.787  38.513   6.724
 5104POPC   C3B64377  21.661  38.449   7.149
 5104POPC   C4B64378  21.442  38.366   7.550
 5105POPC   NC364379  22.002   6.303   5.041
 5105POPC   PO464380  22.233   6.862   5.335
 5105POPC   GL164381  22.220   6.684   5.742
 5105POPC   GL264382  21.866   6.539   5.812
 5105POPC   C1A64383  22.435   6.551   6.099
 5105POPC   D2A64384  22.416   6.662   6.521
 5105POPC   C3A64385  22.536   6.324   6.794
 5105POPC   C4A64386  22.434   6.390   7.213
 5105POPC   C1B64387  21.976   6.733   6.242
 5105POPC   C2B64388  21.849   6.678   6.696
 5105POPC   C3B64389  21.952   6.665   7.129
 5105POPC   C4B64390  21.808   6.931   7.440
 5106POPC   NC364391  22.469  37.616   5.177
 5106POPC   PO464392  21.914  37.256   5.347
 5106POPC   GL164393  22.238  37.545   5.633
 5106POPC   GL264394  22.073  37.823   5.806
 5106POPC   C1A64395  22.351  37.546   6.094
 5106POPC   D2A64396  22.047  37.454   6.390
 5106POPC   C3A64397  22.222  37.503   6.781
 5106POPC   C4A64398  22.285  37.479   7.227
 5106POPC   C1B64399  21.820  37.846   6.123
 5106POPC   C2B64400  21.728  37.823   6.558
 5106POPC   C3B64401  21.858  37.785   6.975
 5106POPC   C4B64402  21.959  38.060   7.264
 5107POPC   NC364403  20.257  40.485   5.064
 5107POPC   PO464404  20.562  39.945   5.358
 5107POPC   GL164405  20.638  40.105   5.743
 5107POPC   GL264406  20.497  40.424   5.735
 5107POPC   C1A64407  20.444  40.042   6.153
 5107POPC   D2A64408  20.638  40.028   6.550
 5107POPC   C3A64409  20.424  39.925   6.924
 5107POPC   C4A64410  20.824  39.909   7.150
 5107POPC   C1B64411  20.746  40.453   6.119
 5107POPC   C2B64412  20.654  40.553   6.533
 5107POPC   C3B64413  20.648  40.380   6.950
 5107POPC   C4B64414  20.736  40.361   7.385
 5108POPC   NC364415  24.581  41.179   5.448
 5108POPC   PO464416  24.367  41.806   5.238
 5108POPC   GL164417  24.400  41.717   5.737
 5108POPC   GL264418  24.304  41.375   5.844
 5108POPC   C1A64419  24.418  41.674   6.255
 5108POPC   D2A64420  24.360  41.368   6.653
 5108POPC   C3A64421  24.303  41.572   7.097
 5108POPC   C4A64422  24.324  41.726   7.577
 5108POPC   C1B64423  24.658  41.248   6.151
 5108POPC   C2B64424  24.849  41.505   6.504
 5108POPC   C3B64425  24.779  41.651   6.921
 5108POPC   C4B64426  24.722  41.285   7.153
 5109POPC   NC364427  35.948  20.510   4.992
 5109POPC   PO464428  36.427  20.905   5.367
 5109POPC   GL164429  36.250  20.704   5.733
 5109POPC   GL264430  35.917  20.577   5.712
 5109POPC   C1A64431  36.209  20.448   6.140
 5109POPC   D2A64432  35.959  20.330   6.513
 5109POPC   C3A64433  36.097  20.490   6.908
 5109POPC   C4A64434  36.011  20.557   7.332
 5109POPC   C1B64435  35.964  20.925   6.053
 5109POPC   C2B64436  36.025  20.856   6.493
 5109POPC   C3B64437  36.268  20.997   6.852
 5109POPC   C4B64438  36.228  21.109   7.275
 5110POPC   NC364439  17.811  28.137   5.625
 5110POPC   PO464440  18.373  28.378   5.296
 5110POPC   GL164441  18.261  28.377   5.713
 5110POPC   GL264442  18.165  28.676   5.870
 5110POPC   C1A64443  18.438  28.307   6.120
 5110POPC   D2A64444  18.311  28.243   6.535
 5110POPC   C3A64445  18.555  28.312   6.899
 5110POPC   C4A64446  18.312  28.257   7.234
 5110POPC   C1B64447  17.935  28.520   6.245
 5110POPC   C2B64448  17.909  28.547   6.699
 5110POPC   C3B64449  18.205  28.663   6.964
 5110POPC   C4B64450  18.238  28.890   7.308
 5111POPC   NC364451  44.719   5.915   5.267
 5111POPC   PO464452  44.955   6.446   5.468
 5111POPC   GL164453  44.753   6.094   5.746
 5111POPC   GL264454  44.395   6.096   5.677
 5111POPC   C1A64455  44.626   5.750   6.086
 5111POPC   D2A64456  44.531   5.605   6.539
 5111POPC   C3A64457  44.794   5.589   6.909
 5111POPC   C4A64458  44.610   5.720   7.296
 5111POPC   C1B64459  44.428   6.213   6.126
 5111POPC   C2B64460  44.703   6.091   6.488
 5111POPC   C3B64461  44.638   6.083   6.925
 5111POPC   C4B64462  44.553   6.398   7.224
 5112POPC   NC364463  12.423  43.929   5.168
 5112POPC   PO464464  13.009  44.033   5.428
 5112POPC   GL164465  12.842  43.842   5.785
 5112POPC   GL264466  13.098  43.624   5.821
 5112POPC   C1A64467  12.769  43.708   6.223
 5112POPC   D2A64468  12.509  43.730   6.584
 5112POPC   C3A64469  12.721  43.901   6.923
 5112POPC   C4A64470  12.673  43.941   7.339
 5112POPC   C1B64471  13.275  43.804   6.174
 5112POPC   C2B64472  13.150  43.892   6.560
 5112POPC   C3B64473  13.221  43.788   6.946
 5112POPC   C4B64474  13.165  44.022   7.312
 5113POPC   NC364475  34.931   8.123   5.497
 5113POPC   PO464476  34.301   8.382   5.658
 5113POPC   GL164477  34.431   8.151   5.957
 5113POPC   GL264478  34.778   8.180   5.971
 5113POPC   C1A64479  34.462   8.067   6.372
 5113POPC   D2A64480  34.635   7.957   6.753
 5113POPC   C3A64481  34.402   8.045   7.080
 5113POPC   C4A64482  34.427   8.273   7.431
 5113POPC   C1B64483  34.911   7.768   6.166
 5113POPC   C2B64484  34.884   7.544   6.582
 5113POPC   C3B64485  34.868   7.619   7.045
 5113POPC   C4B64486  34.858   7.998   7.285
 5114POPC   NC364487   2.260  28.875   5.526
 5114POPC   PO464488   2.066  29.532   5.412
 5114POPC   GL164489   1.949  29.314   5.767
 5114POPC   GL264490   1.578  29.331   5.743
 5114POPC   C1A64491   2.164  29.163   6.159
 5114POPC   D2A64492   2.301  29.017   6.574
 5114POPC   C3A64493   2.287  29.171   7.006
 5114POPC   C4A64494   2.437  28.862   7.313
 5114POPC   C1B64495   1.663  29.015   6.094
 5114POPC   C2B64496   1.835  28.799   6.484
 5114POPC   C3B64497   1.975  28.760   6.912
 5114POPC   C4B64498   1.877  28.956   7.302
 5115POPC   NC364499  32.483  43.734   5.533
 5115POPC   PO464500  31.978  44.111   5.527
 5115POPC   GL164501  32.236  44.031   5.895
 5115POPC   GL264502  32.174  43.720   5.979
 5115POPC   C1A64503  32.266  44.013   6.367
 5115POPC   D2A64504  31.900  44.044   6.645
 5115POPC   C3A64505  32.018  43.861   7.029
 5115POPC   C4A64506  32.389  44.132   7.076
 5115POPC   C1B64507  32.567  43.600   6.182
 5115POPC   C2B64508  32.754  43.634   6.578
 5115POPC   C3B64509  32.620  43.691   6.958
 5115POPC   C4B64510  32.424  43.697   7.337
 5116POPC   NC364511   9.784  34.159   5.383
 5116POPC   PO464512   9.535  34.860   5.357
 5116POPC   GL164513   9.552  34.657   5.750
 5116POPC   GL264514   9.875  34.569   5.807
 5116POPC   C1A64515   9.572  34.830   6.193
 5116POPC   D2A64516   9.827  34.800   6.571
 5116POPC   C3A64517   9.643  34.588   6.908
 5116POPC   C4A64518   9.614  34.596   7.343
 5116POPC   C1B64519   9.737  34.347   6.196
 5116POPC   C2B64520   9.977  34.294   6.591
 5116POPC   C3B64521   9.938  34.179   6.988
 5116POPC   C4B64522   9.579  34.047   7.238
 5117POPC   NC364523  16.292  42.171   5.599
 5117POPC   PO464524  16.833  42.568   5.445
 5117POPC   GL164525  17.006  42.500   5.876
 5117POPC   GL264526  16.725  42.263   5.944
 5117POPC   C1A64527  17.040  42.327   6.322
 5117POPC   D2A64528  16.763  42.151   6.638
 5117POPC   C3A64529  16.658  42.395   6.973
 5117POPC   C4A64530  16.922  42.698   7.126
 5117POPC   C1B64531  16.472  42.005   6.232
 5117POPC   C2B64532  16.341  41.862   6.656
 5117POPC   C3B64533  16.420  41.970   7.100
 5117POPC   C4B64534  16.311  42.158   7.477
 5118POPC   NC364535   0.612  29.460   4.932
 5118POPC   PO464536   0.285  29.231   5.489
 5118POPC   GL164537   0.422  29.442   5.810
 5118POPC   GL264538   0.153  29.613   5.913
 5118POPC   C1A64539   0.477  29.303   6.222
 5118POPC   D2A64540   0.657  29.112   6.569
 5118POPC   C3A64541   0.557  29.298   6.960
 5118POPC   C4A64542   0.360  28.979   7.161
 5118POPC   C1B64543  45.000  29.472   6.295
 5118POPC   C2B64544   0.142  29.250   6.645
 5118POPC   C3B64545   0.043  29.422   7.036
 5118POPC   C4B64546   0.206  29.382   7.463
 5119POPC   NC364547  40.212  32.523   4.947
 5119POPC   PO464548  40.046  32.139   5.471
 5119POPC   GL164549  39.886  32.386   5.770
 5119POPC   GL264550  39.630  32.154   5.794
 5119POPC   C1A64551  40.142  32.457   6.165
 5119POPC   D2A64552  40.376  32.288   6.508
 5119POPC   C3A64553  40.200  32.389   6.900
 5119POPC   C4A64554  40.000  32.293   7.292
 5119POPC   C1B64555  39.650  32.323   6.205
 5119POPC   C2B64556  39.855  32.191   6.555
 5119POPC   C3B64557  39.681  32.174   6.919
 5119POPC   C4B64558  39.471  32.055   7.260
 5120POPC   NC364559   1.331  14.088   5.388
 5120POPC   PO464560   1.643  13.507   5.395
 5120POPC   GL164561   1.431  13.476   5.771
 5120POPC   GL264562   1.198  13.719   5.774
 5120POPC   C1A64563   1.425  13.674   6.204
 5120POPC   D2A64564   1.151  13.685   6.538
 5120POPC   C3A64565   1.295  13.857   6.882
 5120POPC   C4A64566   1.433  13.611   7.203
 5120POPC   C1B64567   0.946  13.453   6.122
 5120POPC   C2B64568   0.700  13.413   6.532
 5120POPC   C3B64569   0.845  13.585   6.951
 5120POPC   C4B64570   0.961  13.742   7.382
 5121POPC   NC364571   1.149   8.704   5.422
 5121POPC   PO464572   1.470   7.994   5.423
 5121POPC   GL164573   1.385   8.108   5.843
 5121POPC   GL264574   1.258   8.447   5.854
 5121POPC   C1A64575   1.364   8.093   6.289
 5121POPC   D2A64576   1.098   7.928   6.601
 5121POPC   C3A64577   1.163   8.005   7.035
 5121POPC   C4A64578   0.961   7.823   7.399
 5121POPC   C1B64579   1.565   8.539   6.165
 5121POPC   C2B64580   1.639   8.515   6.595
 5121POPC   C3B64581   1.408   8.451   6.959
 5121POPC   C4B64582   1.089   8.498   7.233
 5122POPC   NC364583  34.589  36.676   5.147
 5122POPC   PO464584  34.851  37.040   5.715
 5122POPC   GL164585  34.825  36.916   6.096
 5122POPC   GL264586  34.466  36.882   6.016
 5122POPC   C1A64587  34.676  36.928   6.529
 5122POPC   D2A64588  34.310  36.741   6.693
 5122POPC   C3A64589  34.322  36.855   7.112
 5122POPC   C4A64590  34.506  36.680   7.418
 5122POPC   C1B64591  34.517  36.529   6.262
 5122POPC   C2B64592  34.776  36.409   6.583
 5122POPC   C3B64593  34.739  36.569   6.958
 5122POPC   C4B64594  34.882  36.934   7.068
 5123POPC   NC364595   6.098  10.869   5.382
 5123POPC   PO464596   5.761  10.297   5.324
 5123POPC   GL164597   5.895  10.397   5.764
 5123POPC   GL264598   6.029  10.720   5.865
 5123POPC   C1A64599   5.774  10.410   6.212
 5123POPC   D2A64600   5.905  10.438   6.634
 5123POPC   C3A64601   5.679  10.580   6.997
 5123POPC   C4A64602   5.863  10.373   7.334
 5123POPC   C1B64603   5.968  10.914   6.269
 5123POPC   C2B64604   5.824  10.960   6.668
 5123POPC   C3B64605   6.097  10.937   7.026
 5123POPC   C4B64606   6.053  10.811   7.485
 5124POPC   NC364607  42.684  17.514   5.356
 5124POPC   PO464608  43.351  17.546   5.493
 5124POPC   GL164609  43.003  17.458   5.750
 5124POPC   GL264610  42.916  17.143   5.670
 5124POPC   C1A64611  42.844  17.489   6.171
 5124POPC   D2A64612  43.028  17.750   6.488
 5124POPC   C3A64613  43.093  17.645   6.923
 5124POPC   C4A64614  43.275  17.821   7.307
 5124POPC   C1B64615  43.209  17.118   6.080
 5124POPC   C2B64616  43.144  17.227   6.511
 5124POPC   C3B64617  43.033  17.117   6.926
 5124POPC   C4B64618  43.089  17.326   7.335
 5125POPC   NC364619  21.042  39.982   5.427
 5125POPC   PO464620  21.663  40.094   5.215
 5125POPC   GL164621  21.484  39.948   5.691
 5125POPC   GL264622  21.190  40.130   5.880
 5125POPC   C1A64623  21.501  39.843   6.184
 5125POPC   D2A64624  21.470  40.012   6.658
 5125POPC   C3A64625  21.271  39.729   6.978
 5125POPC   C4A64626  21.341  39.659   7.428
 5125POPC   C1B64627  21.223  40.301   6.294
 5125POPC   C2B64628  21.123  40.425   6.712
 5125POPC   C3B64629  21.167  40.299   7.124
 5125POPC   C4B64630  21.209  40.120   7.538
 5126POPC   NC364631  27.963   6.614   5.526
 5126POPC   PO464632  28.545   6.544   5.178
 5126POPC   GL164633  28.483   6.599   5.652
 5126POPC   GL264634  28.280   6.312   5.772
 5126POPC   C1A64635  28.489   6.651   6.130
 5126POPC   D2A64636  28.409   6.939   6.492
 5126POPC   C3A64637  28.572   6.932   6.909
 5126POPC   C4A64638  28.544   6.605   7.195
 5126POPC   C1B64639  28.078   6.305   6.148
 5126POPC   C2B64640  28.089   6.524   6.526
 5126POPC   C3B64641  28.224   6.392   6.886
 5126POPC   C4B64642  28.079   6.412   7.264
 5127POPC   NC364643  29.747  37.638   5.430
 5127POPC   PO464644  30.217  38.159   5.399
 5127POPC   GL164645  30.122  37.809   5.737
 5127POPC   GL264646  29.768  37.781   5.905
 5127POPC   C1A64647  30.211  37.560   6.116
 5127POPC   D2A64648  30.343  37.794   6.476
 5127POPC   C3A64649  30.389  37.578   6.852
 5127POPC   C4A64650  30.275  37.729   7.231
 5127POPC   C1B64651  29.755  37.650   6.321
 5127POPC   C2B64652  29.908  37.422   6.647
 5127POPC   C3B64653  29.679  37.545   7.014
 5127POPC   C4B64654  29.746  37.753   7.387
 5128POPC   NC364655   5.262  15.217   5.383
 5128POPC   PO464656   4.662  15.205   5.691
 5128POPC   GL164657   4.957  15.010   5.951
 5128POPC   GL264658   5.268  14.905   5.778
 5128POPC   C1A64659   4.996  15.324   6.277
 5128POPC   D2A64660   4.988  15.614   6.562
 5128POPC   C3A64661   4.883  15.333   6.857
 5128POPC   C4A64662   4.726  15.378   7.254
 5128POPC   C1B64663   5.450  15.203   6.085
 5128POPC   C2B64664   5.481  15.355   6.510
 5128POPC   C3B64665   5.405  15.155   6.877
 5128POPC   C4B64666   5.171  15.147   7.225
 5129POPC   NC364667  33.806   9.363   5.457
 5129POPC   PO464668  33.443   9.854   5.178
 5129POPC   GL164669  33.698   9.941   5.633
 5129POPC   GL264670  33.956   9.731   5.775
 5129POPC   C1A64671  33.745  10.005   6.131
 5129POPC   D2A64672  33.875   9.825   6.519
 5129POPC   C3A64673  33.545   9.762   6.828
 5129POPC   C4A64674  33.644   9.900   7.228
 5129POPC   C1B64675  33.733   9.476   6.118
 5129POPC   C2B64676  33.790   9.315   6.559
 5129POPC   C3B64677  33.983   9.519   6.949
 5129POPC   C4B64678  33.846   9.433   7.354
 5130POPC   NC364679   3.648  37.137   5.370
 5130POPC   PO464680   3.487  36.488   5.587
 5130POPC   GL164681   3.443  36.818   5.877
 5130POPC   GL264682   3.717  37.033   5.872
 5130POPC   C1A64683   3.596  36.877   6.339
 5130POPC   D2A64684   3.850  36.694   6.701
 5130POPC   C3A64685   3.616  36.730   7.121
 5130POPC   C4A64686   3.291  36.837   7.453
 5130POPC   C1B64687   3.885  37.294   6.213
 5130POPC   C2B64688   3.957  37.236   6.662
 5130POPC   C3B64689   3.806  37.345   7.083
 5130POPC   C4B64690   3.805  37.076   7.461
 5131POPC   NC364691  33.447  21.325   5.395
 5131POPC   PO464692  34.046  20.995   5.386
 5131POPC   GL164693  33.972  21.311   5.757
 5131POPC   GL264694  33.633  21.484   5.843
 5131POPC   C1A64695  33.957  21.310   6.224
 5131POPC   D2A64696  33.757  21.019   6.510
 5131POPC   C3A64697  33.562  21.135   6.932
 5131POPC   C4A64698  33.839  21.173   7.275
 5131POPC   C1B64699  33.490  21.574   6.270
 5131POPC   C2B64700  33.714  21.520   6.663
 5131POPC   C3B64701  33.712  21.641   7.110
 5131POPC   C4B64702  33.586  21.806   7.534
 5132POPC   NC364703  40.745  36.316   5.227
 5132POPC   PO464704  40.756  36.939   5.465
 5132POPC   GL164705  40.582  36.985   5.873
 5132POPC   GL264706  40.758  37.281   5.929
 5132POPC   C1A64707  40.617  36.684   6.234
 5132POPC   D2A64708  40.481  36.433   6.589
 5132POPC   C3A64709  40.433  36.692   6.952
 5132POPC   C4A64710  40.629  36.694   7.337
 5132POPC   C1B64711  41.030  36.993   6.154
 5132POPC   C2B64712  41.065  36.840   6.577
 5132POPC   C3B64713  40.931  36.970   6.985
 5132POPC   C4B64714  41.118  36.916   7.391
 5133POPC   NC364715  14.645  11.706   5.020
 5133POPC   PO464716  14.314  11.247   5.372
 5133POPC   GL164717  14.154  11.235   5.798
 5133POPC   GL264718  14.390  11.042   5.998
 5133POPC   C1A64719  14.184  11.444   6.227
 5133POPC   D2A64720  14.317  11.306   6.655
 5133POPC   C3A64721  14.080  11.582   6.933
 5133POPC   C4A64722  14.039  11.771   7.334
 5133POPC   C1B64723  14.668  11.233   6.272
 5133POPC   C2B64724  14.875  11.171   6.649
 5133POPC   C3B64725  14.691  11.062   7.005
 5133POPC   C4B64726  14.449  11.347   7.180
 5134POPC   NC364727  11.515  31.700   5.356
 5134POPC   PO464728  10.969  31.304   5.260
 5134POPC   GL164729  11.222  31.375   5.630
 5134POPC   GL264730  11.220  31.736   5.767
 5134POPC   C1A64731  11.280  31.304   6.074
 5134POPC   D2A64732  11.242  31.184   6.511
 5134POPC   C3A64733  11.492  31.324   6.874
 5134POPC   C4A64734  11.464  31.381   7.283
 5134POPC   C1B64735  11.356  31.805   6.212
 5134POPC   C2B64736  11.252  31.705   6.647
 5134POPC   C3B64737  11.366  31.839   7.088
 5134POPC   C4B64738  11.358  31.788   7.559
 5135POPC   NC364739  30.052  38.454   5.085
 5135POPC   PO464740  30.650  38.599   5.356
 5135POPC   GL164741  30.665  38.683   5.769
 5135POPC   GL264742  30.439  38.386   5.828
 5135POPC   C1A64743  30.451  38.835   6.132
 5135POPC   D2A64744  30.523  38.989   6.526
 5135POPC   C3A64745  30.496  38.673   6.846
 5135POPC   C4A64746  30.774  38.731   7.169
 5135POPC   C1B64747  30.706  38.373   6.198
 5135POPC   C2B64748  30.703  38.189   6.606
 5135POPC   C3B64749  30.443  38.109   6.926
 5135POPC   C4B64750  30.444  38.354   7.267
 5136POPC   NC364751   0.881   4.615   5.339
 5136POPC   PO464752   1.047   5.326   5.247
 5136POPC   GL164753   1.145   5.041   5.601
 5136POPC   GL264754   0.949   5.250   5.826
 5136POPC   C1A64755   1.151   4.791   6.030
 5136POPC   D2A64756   0.979   4.961   6.463
 5136POPC   C3A64757   1.107   4.882   6.918
 5136POPC   C4A64758   0.908   4.907   7.346
 5136POPC   C1B64759   1.294   5.266   6.118
 5136POPC   C2B64760   1.311   5.419   6.518
 5136POPC   C3B64761   1.403   5.302   6.924
 5136POPC   C4B64762   1.131   5.368   7.259
 5137POPC   NC364763  34.807  26.524   5.254
 5137POPC   PO464764  34.599  27.109   5.091
 5137POPC   GL164765  34.625  26.950   5.537
 5137POPC   GL264766  34.626  27.238   5.767
 5137POPC   C1A64767  34.654  26.759   5.987
 5137POPC   D2A64768  34.766  26.966   6.418
 5137POPC   C3A64769  34.525  26.865   6.814
 5137POPC   C4A64770  34.599  26.674   7.197
 5137POPC   C1B64771  34.258  27.064   5.941
 5137POPC   C2B64772  34.263  26.968   6.344
 5137POPC   C3B64773  34.269  27.268   6.664
 5137POPC   C4B64774  34.209  27.223   7.112
 5138POPC   NC364775  13.905  43.369   5.515
 5138POPC   PO464776  13.295  42.974   5.468
 5138POPC   GL164777  13.627  42.998   5.788
 5138POPC   GL264778  13.523  43.340   5.847
 5138POPC   C1A64779  13.764  43.124   6.231
 5138POPC   D2A64780  13.560  43.067   6.615
 5138POPC   C3A64781  13.804  43.117   6.976
 5138POPC   C4A64782  13.986  42.882   7.286
 5138POPC   C1B64783  13.241  43.268   6.185
 5138POPC   C2B64784  13.105  43.361   6.592
 5138POPC   C3B64785  13.299  43.276   7.003
 5138POPC   C4B64786  13.456  42.981   7.332
 5139POPC   NC364787  17.056  17.547   5.409
 5139POPC   PO464788  17.557  17.134   5.145
 5139POPC   GL164789  17.465  17.307   5.646
 5139POPC   GL264790  17.726  17.215   5.988
 5139POPC   C1A64791  17.525  17.664   5.961
 5139POPC   D2A64792  17.631  17.551   6.400
 5139POPC   C3A64793  17.702  17.822   6.763
 5139POPC   C4A64794  17.591  17.611   7.156
 5139POPC   C1B64795  17.320  17.210   6.141
 5139POPC   C2B64796  17.196  17.043   6.513
 5139POPC   C3B64797  17.140  17.202   6.891
 5139POPC   C4B64798  17.405  17.142   7.239
 5140POPC   NC364799  24.058  36.308   5.659
 5140POPC   PO464800  24.461  35.964   5.204
 5140POPC   GL164801  24.473  35.991   5.690
 5140POPC   GL264802  24.174  35.826   5.847
 5140POPC   C1A64803  24.467  36.149   6.164
 5140POPC   D2A64804  24.604  36.167   6.613
 5140POPC   C3A64805  24.472  36.258   7.042
 5140POPC   C4A64806  24.230  36.279   7.453
 5140POPC   C1B64807  24.189  35.772   6.332
 5140POPC   C2B64808  24.126  35.974   6.717
 5140POPC   C3B64809  24.125  35.890   7.136
 5140POPC   C4B64810  24.141  35.508   7.346
 5141POPC   NC364811  25.263   1.543   5.212
 5141POPC   PO464812  25.088   0.918   5.426
 5141POPC   GL164813  25.186   1.143   5.812
 5141POPC   GL264814  25.436   1.398   5.793
 5141POPC   C1A64815  25.288   1.001   6.245
 5141POPC   D2A64816  25.397   0.691   6.609
 5141POPC   C3A64817  25.172   0.848   6.947
 5141POPC   C4A64818  25.366   1.147   7.212
 5141POPC   C1B64819  25.245   1.526   6.241
 5141POPC   C2B64820  25.096   1.672   6.691
 5141POPC   C3B64821  25.233   1.619   7.146
 5141POPC   C4B64822  25.442   1.528   7.559
 5142POPC   NC364823  41.768  33.367   5.457
 5142POPC   PO464824  41.440  32.752   5.330
 5142POPC   GL164825  41.540  32.768   5.795
 5142POPC   GL264826  41.593  33.067   5.804
 5142POPC   C1A64827  41.521  32.746   6.240
 5142POPC   D2A64828  41.414  32.527   6.616
 5142POPC   C3A64829  41.585  32.778   6.954
 5142POPC   C4A64830  41.938  32.990   7.128
 5142POPC   C1B64831  41.731  33.240   6.158
 5142POPC   C2B64832  41.599  33.162   6.559
 5142POPC   C3B64833  41.613  33.333   6.935
 5142POPC   C4B64834  41.399  33.331   7.294
 5143POPC   NC364835  44.633  28.189   5.325
 5143POPC   PO464836   0.010  28.688   5.621
 5143POPC   GL164837  44.732  28.430   5.810
 5143POPC   GL264838  44.788  28.084   5.809
 5143POPC   C1A64839  44.552  28.474   6.212
 5143POPC   D2A64840  44.676  28.359   6.605
 5143POPC   C3A64841  44.495  28.552   6.955
 5143POPC   C4A64842  44.704  28.578   7.344
 5143POPC   C1B64843  44.677  27.983   6.224
 5143POPC   C2B64844  44.485  27.906   6.636
 5143POPC   C3B64845  44.564  28.047   7.033
 5143POPC   C4B64846  44.344  28.232   7.388
 5144POPC   NC364847   9.712  24.761   5.456
 5144POPC   PO464848   9.953  24.151   5.439
 5144POPC   GL164849   9.724  24.354   5.808
 5144POPC   GL264850   9.909  24.655   5.902
 5144POPC   C1A64851   9.659  24.397   6.282
 5144POPC   D2A64852   9.898  24.264   6.655
 5144POPC   C3A64853   9.723  24.357   7.071
 5144POPC   C4A64854   9.932  24.274   7.428
 5144POPC   C1B64855   9.829  24.875   6.291
 5144POPC   C2B64856   9.765  24.764   6.698
 5144POPC   C3B64857   9.933  24.824   7.077
 5144POPC   C4B64858   9.749  24.739   7.474
 5145POPC   NC364859  29.953  10.778   5.275
 5145POPC   PO464860  30.394  10.226   5.296
 5145POPC   GL164861  30.251  10.528   5.635
 5145POPC   GL264862  29.909  10.481   5.695
 5145POPC   C1A64863  30.240  10.673   6.093
 5145POPC   D2A64864  30.078  10.479   6.493
 5145POPC   C3A64865  30.206  10.557   6.912
 5145POPC   C4A64866  30.345  10.511   7.313
 5145POPC   C1B64867  29.769  10.402   6.101
 5145POPC   C2B64868  29.586  10.649   6.459
 5145POPC   C3B64869  29.659  10.579   6.869
 5145POPC   C4B64870  29.592  10.813   7.265
 5146POPC   NC364871  35.411  17.590   5.399
 5146POPC   PO464872  34.985  17.970   5.623
 5146POPC   GL164873  35.161  17.554   5.849
 5146POPC   GL264874  35.195  17.217   5.725
 5146POPC   C1A64875  35.423  17.321   6.202
 5146POPC   D2A64876  35.606  17.515   6.642
 5146POPC   C3A64877  35.475  17.381   7.056
 5146POPC   C4A64878  35.484  17.404   7.537
 5146POPC   C1B64879  34.967  17.123   6.109
 5146POPC   C2B64880  34.885  17.242   6.526
 5146POPC   C3B64881  35.004  17.192   6.951
 5146POPC   C4B64882  35.040  17.490   7.300
 5147POPC   NC364883   4.755  43.296   5.381
 5147POPC   PO464884   4.362  42.775   5.499
 5147POPC   GL164885   4.455  43.117   5.751
 5147POPC   GL264886   4.776  42.973   5.855
 5147POPC   C1A64887   4.517  43.315   6.151
 5147POPC   D2A64888   4.628  43.148   6.559
 5147POPC   C3A64889   4.271  43.194   6.808
 5147POPC   C4A64890   4.297  43.373   7.197
 5147POPC   C1B64891   4.491  42.789   6.191
 5147POPC   C2B64892   4.440  42.658   6.657
 5147POPC   C3B64893   4.380  42.796   7.101
 5147POPC   C4B64894   4.347  42.674   7.516
 5148POPC   NC364895  23.924   9.839   5.394
 5148POPC   PO464896  23.433  10.055   5.740
 5148POPC   GL164897  23.827   9.921   5.925
 5148POPC   GL264898  23.953   9.621   5.868
 5148POPC   C1A64899  23.886   9.857   6.375
 5148POPC   D2A64900  23.892  10.096   6.777
 5148POPC   C3A64901  23.518   9.969   7.066
 5148POPC   C4A64902  23.574   9.671   7.415
 5148POPC   C1B64903  24.065   9.377   6.221
 5148POPC   C2B64904  23.875   9.395   6.621
 5148POPC   C3B64905  23.868   9.613   6.990
 5148POPC   C4B64906  24.055   9.548   7.383
 5149POPC   NC364907   8.164  24.184   5.343
 5149POPC   PO464908   8.491  24.761   5.517
 5149POPC   GL164909   8.273  24.482   5.765
 5149POPC   GL264910   8.444  24.164   5.811
 5149POPC   C1A64911   8.256  24.527   6.199
 5149POPC   D2A64912   8.377  24.845   6.488
 5149POPC   C3A64913   8.250  24.719   6.879
 5149POPC   C4A64914   8.239  24.864   7.258
 5149POPC   C1B64915   8.662  24.194   6.208
 5149POPC   C2B64916   8.512  24.331   6.616
 5149POPC   C3B64917   8.421  24.259   7.064
 5149POPC   C4B64918   8.051  24.378   7.260
 5150POPC   NC364919  27.265  16.079   5.432
 5150POPC   PO464920  26.554  15.904   5.500
 5150POPC   GL164921  26.865  15.842   5.810
 5150POPC   GL264922  26.999  16.175   5.847
 5150POPC   C1A64923  26.810  15.921   6.265
 5150POPC   D2A64924  26.592  16.050   6.641
 5150POPC   C3A64925  26.748  15.926   7.031
 5150POPC   C4A64926  26.672  16.133   7.418
 5150POPC   C1B64927  27.241  16.194   6.205
 5150POPC   C2B64928  27.067  16.249   6.617
 5150POPC   C3B64929  27.181  16.201   7.044
 5150POPC   C4B64930  27.155  15.941   7.427
 5151POPC   NC364931  34.780  40.178   5.369
 5151POPC   PO464932  34.618  39.538   5.382
 5151POPC   GL164933  34.744  39.796   5.734
 5151POPC   GL264934  34.439  39.706   5.856
 5151POPC   C1A64935  34.594  40.148   6.020
 5151POPC   D2A64936  34.354  40.170   6.406
 5151POPC   C3A64937  34.670  40.234   6.714
 5151POPC   C4A64938  34.711  40.271   7.147
 5151POPC   C1B64939  34.644  39.666   6.255
 5151POPC   C2B64940  34.621  39.515   6.663
 5151POPC   C3B64941  34.614  39.779   7.013
 5151POPC   C4B64942  34.573  39.850   7.442
 5152POPC   NC364943   8.981  12.336   5.402
 5152POPC   PO464944   9.419  11.862   5.565
 5152POPC   GL164945   9.035  11.964   5.772
 5152POPC   GL264946   9.061  12.289   5.904
 5152POPC   C1A64947   8.889  11.925   6.202
 5152POPC   D2A64948   9.100  12.026   6.576
 5152POPC   C3A64949   8.921  12.076   6.979
 5152POPC   C4A64950   8.753  11.755   7.226
 5152POPC   C1B64951   8.806  12.432   6.252
 5152POPC   C2B64952   9.048  12.533   6.638
 5152POPC   C3B64953   9.284  12.446   7.018
 5152POPC   C4B64954   9.388  12.043   7.247
 5153POPC   NC364955  12.946  21.900   5.550
 5153POPC   PO464956  12.682  21.265   5.705
 5153POPC   GL164957  12.658  21.554   6.021
 5153POPC   GL264958  12.994  21.615   5.958
 5153POPC   C1A64959  12.812  21.492   6.442
 5153POPC   D2A64960  13.166  21.282   6.578
 5153POPC   C3A64961  13.089  21.126   7.030
 5153POPC   C4A64962  12.647  21.280   7.181
 5153POPC   C1B64963  13.004  21.926   6.269
 5153POPC   C2B64964  12.969  21.981   6.690
 5153POPC   C3B64965  13.027  21.625   6.970
 5153POPC   C4B64966  12.969  21.617   7.450
 5154POPC   NC364967  32.458   9.151   5.549
 5154POPC   PO464968  31.974   8.834   5.563
 5154POPC   GL164969  32.139   8.828   5.898
 5154POPC   GL264970  32.487   8.712   5.832
 5154POPC   C1A64971  32.094   9.112   6.203
 5154POPC   D2A64972  32.243   9.166   6.587
 5154POPC   C3A64973  32.052   9.104   6.958
 5154POPC   C4A64974  32.234   9.167   7.357
 5154POPC   C1B64975  32.484   8.759   6.275
 5154POPC   C2B64976  32.447   8.574   6.666
 5154POPC   C3B64977  32.346   8.707   7.079
 5154POPC   C4B64978  32.522   8.758   7.486
 5155POPC   NC364979  16.108  37.360   5.519
 5155POPC   PO464980  15.959  36.664   5.479
 5155POPC   GL164981  16.041  36.953   5.817
 5155POPC   GL264982  15.744  37.041   5.852
 5155POPC   C1A64983  16.006  37.176   6.243
 5155POPC   D2A64984  15.996  36.943   6.609
 5155POPC   C3A64985  16.179  37.070   6.982
 5155POPC   C4A64986  16.194  37.184   7.384
 5155POPC   C1B64987  15.717  36.717   6.170
 5155POPC   C2B64988  15.563  36.686   6.605
 5155POPC   C3B64989  15.856  36.580   6.958
 5155POPC   C4B64990  15.883  36.794   7.331
 5156POPC   NC364991  11.455  10.325   5.270
 5156POPC   PO464992  11.714   9.707   5.352
 5156POPC   GL164993  11.409   9.905   5.652
 5156POPC   GL264994  11.561  10.210   5.753
 5156POPC   C1A64995  11.227   9.815   6.093
 5156POPC   D2A64996  11.193   9.569   6.501
 5156POPC   C3A64997  11.248   9.715   6.952
 5156POPC   C4A64998  11.319   9.520   7.380
 5156POPC   C1B64999  11.510  10.228   6.179
 5156POPC   C2B65000  11.486  10.008   6.551
 5156POPC   C3B65001  11.703  10.047   6.936
 5156POPC   C4B65002  11.543   9.995   7.327
 5157POPC   NC365003  12.204  23.144   5.128
 5157POPC   PO465004  11.911  22.595   5.373
 5157POPC   GL165005  12.121  22.794   5.750
 5157POPC   GL265006  12.183  23.153   5.669
 5157POPC   C1A65007  12.258  22.727   6.172
 5157POPC   D2A65008  12.013  22.858   6.541
 5157POPC   C3A65009  12.243  22.784   6.882
 5157POPC   C4A65010  12.193  22.465   7.155
 5157POPC   C1B65011  12.046  23.197   6.114
 5157POPC   C2B65012  12.083  23.364   6.558
 5157POPC   C3B65013  12.101  23.266   7.008
 5157POPC   C4B65014  12.264  23.002   7.365
 5158POPC   NC365015  43.604  14.568   5.453
 5158POPC   PO465016  44.282  14.326   5.445
 5158POPC   GL165017  43.962  14.277   5.746
 5158POPC   GL265018  43.963  14.619   5.854
 5158POPC   C1A65019  43.954  14.181   6.177
 5158POPC   D2A65020  43.821  14.178   6.609
 5158POPC   C3A65021  44.023  14.076   6.973
 5158POPC   C4A65022  43.909  14.120   7.409
 5158POPC   C1B65023  43.660  14.634   6.211
 5158POPC   C2B65024  43.476  14.548   6.636
 5158POPC   C3B65025  43.729  14.524   7.011
 5158POPC   C4B65026  43.957  14.837   7.213
 5159POPC   NC365027   1.550  39.440   5.117
 5159POPC   PO465028   1.952  39.162   5.567
 5159POPC   GL165029   2.050  39.446   5.877
 5159POPC   GL265030   1.781  39.451   6.012
 5159POPC   C1A65031   2.222  39.515   6.288
 5159POPC   D2A65032   2.182  39.287   6.671
 5159POPC   C3A65033   2.001  39.392   7.054
 5159POPC   C4A65034   2.204  39.152   7.324
 5159POPC   C1B65035   1.945  39.069   6.251
 5159POPC   C2B65036   1.741  39.007   6.663
 5159POPC   C3B65037   1.843  38.883   7.067
 5159POPC   C4B65038   1.743  38.995   7.509
 5160POPC   NC365039  44.705   1.677   5.542
 5160POPC   PO465040  44.827   2.336   5.374
 5160POPC   GL165041  44.795   2.179   5.762
 5160POPC   GL265042  44.425   2.186   5.833
 5160POPC   C1A65043  44.777   2.046   6.175
 5160POPC   D2A65044  44.488   2.115   6.504
 5160POPC   C3A65045  44.766   2.015   6.826
 5160POPC   C4A65046  44.780   1.964   7.238
 5160POPC   C1B65047  44.300   1.805   6.077
 5160POPC   C2B65048  44.214   1.637   6.494
 5160POPC   C3B65049  44.282   1.814   6.912
 5160POPC   C4B65050  44.375   1.613   7.318
 5161POPC   NC365051  11.057   7.977   5.364
 5161POPC   PO465052  11.581   8.340   5.329
 5161POPC   GL165053  11.445   8.142   5.710
 5161POPC   GL265054  11.352   7.811   5.753
 5161POPC   C1A65055  11.365   8.227   6.130
 5161POPC   D2A65056  11.304   8.057   6.558
 5161POPC   C3A65057  11.225   8.234   6.975
 5161POPC   C4A65058  11.528   8.112   7.268
 5161POPC   C1B65059  11.065   7.835   6.115
 5161POPC   C2B65060  10.968   7.680   6.525
 5161POPC   C3B65061  11.182   7.711   6.923
 5161POPC   C4B65062  11.271   7.675   7.342
 5162POPC   NC365063  14.054  12.388   5.026
 5162POPC   PO465064  14.655  12.138   5.216
 5162POPC   GL165065  14.513  11.970   5.677
 5162POPC   GL265066  14.564  11.591   5.661
 5162POPC   C1A65067  14.325  11.953   6.139
 5162POPC   D2A65068  14.417  12.168   6.541
 5162POPC   C3A65069  14.242  12.078   6.948
 5162POPC   C4A65070  14.278  12.292   7.347
 5162POPC   C1B65071  14.751  11.679   6.061
 5162POPC   C2B65072  14.603  11.695   6.488
 5162POPC   C3B65073  14.706  11.793   6.893
 5162POPC   C4B65074  14.549  11.827   7.305
 5163POPC   NC365075   7.875  34.039   5.577
 5163POPC   PO465076   8.452  33.730   5.352
 5163POPC   GL165077   8.338  33.854   5.748
 5163POPC   GL265078   8.373  34.204   5.736
 5163POPC   C1A65079   8.205  33.818   6.194
 5163POPC   D2A65080   8.020  33.983   6.588
 5163POPC   C3A65081   8.214  33.781   6.920
 5163POPC   C4A65082   8.091  33.570   7.277
 5163POPC   C1B65083   8.617  34.112   6.119
 5163POPC   C2B65084   8.561  33.985   6.566
 5163POPC   C3B65085   8.626  34.063   7.016
 5163POPC   C4B65086   8.288  34.062   7.331
 5164POPC   NC365087   5.057  18.659   5.586
 5164POPC   PO465088   5.451  19.235   5.391
 5164POPC   GL165089   5.055  19.212   5.703
 5164POPC   GL265090   4.912  18.955   5.970
 5164POPC   C1A65091   4.977  19.432   6.124
 5164POPC   D2A65092   4.950  19.229   6.551
 5164POPC   C3A65093   4.891  19.386   6.978
 5164POPC   C4A65094   4.892  19.101   7.321
 5164POPC   C1B65095   5.264  18.775   6.202
 5164POPC   C2B65096   5.286  18.810   6.635
 5164POPC   C3B65097   4.950  18.768   6.939
 5164POPC   C4B65098   5.015  18.481   7.298
 5165POPC   NC365099   9.940   0.552   5.375
 5165POPC   PO465100   9.457   0.180   5.484
 5165POPC   GL165101   9.516   0.415   5.813
 5165POPC   GL265102   9.821   0.274   5.874
 5165POPC   C1A65103   9.573   0.505   6.270
 5165POPC   D2A65104   9.690   0.788   6.602
 5165POPC   C3A65105   9.803   0.683   7.010
 5165POPC   C4A65106  10.030   0.368   7.137
 5165POPC   C1B65107   9.753   0.039   6.261
 5165POPC   C2B65108   9.873   0.076   6.689
 5165POPC   C3B65109   9.593   0.148   7.021
 5165POPC   C4B65110   9.253   0.004   7.231
 5166POPC   NC365111   0.107  21.340   5.254
 5166POPC   PO465112   0.735  21.569   5.312
 5166POPC   GL165113   0.507  21.492   5.711
 5166POPC   GL265114   0.180  21.649   5.691
 5166POPC   C1A65115   0.653  21.391   6.141
 5166POPC   D2A65116   0.746  21.138   6.523
 5166POPC   C3A65117   0.685  21.369   6.912
 5166POPC   C4A65118   0.535  21.222   7.287
 5166POPC   C1B65119   0.141  21.532   6.136
 5166POPC   C2B65120   0.240  21.219   6.484
 5166POPC   C3B65121   0.175  21.135   6.934
 5166POPC   C4B65122   0.036  21.440   7.273
 5167POPC   NC365123  24.422  15.680   5.404
 5167POPC   PO465124  24.845  16.183   5.462
 5167POPC   GL165125  24.638  16.126   5.868
 5167POPC   GL265126  24.292  15.985   5.823
 5167POPC   C1A65127  24.581  15.873   6.257
 5167POPC   D2A65128  24.560  15.603   6.634
 5167POPC   C3A65129  24.767  15.767   7.020
 5167POPC   C4A65130  24.845  16.212   7.144
 5167POPC   C1B65131  24.080  15.717   6.168
 5167POPC   C2B65132  24.031  15.660   6.636
 5167POPC   C3B65133  24.237  15.851   6.994
 5167POPC   C4B65134  24.263  16.284   7.108
 5168POPC   NC365135  11.710   2.745   5.490
 5168POPC   PO465136  11.034   2.483   5.593
 5168POPC   GL165137  11.035   2.757   5.926
 5168POPC   GL265138  11.412   2.785   5.935
 5168POPC   C1A65139  11.102   2.967   6.326
 5168POPC   D2A65140  11.398   2.742   6.606
 5168POPC   C3A65141  11.214   2.663   7.011
 5168POPC   C4A65142  10.928   2.983   7.209
 5168POPC   C1B65143  11.608   3.067   6.250
 5168POPC   C2B65144  11.565   3.215   6.717
 5168POPC   C3B65145  11.437   3.088   7.181
 5168POPC   C4B65146  11.586   3.075   7.643
 5169POPC   NC365147  38.295  20.430   5.433
 5169POPC   PO465148  38.628  20.961   5.253
 5169POPC   GL165149  38.501  20.836   5.753
 5169POPC   GL265150  38.224  20.589   5.911
 5169POPC   C1A65151  38.537  20.758   6.262
 5169POPC   D2A65152  38.395  20.391   6.539
 5169POPC   C3A65153  38.128  20.436   6.888
 5169POPC   C4A65154  38.243  20.740   7.157
 5169POPC   C1B65155  38.592  20.274   6.090
 5169POPC   C2B65156  38.661  19.950   6.450
 5169POPC   C3B65157  38.817  20.024   6.864
 5169POPC   C4B65158  38.654  20.452   6.984
 5170POPC   NC365159  10.555   4.941   5.434
 5170POPC   PO465160  10.793   5.590   5.493
 5170POPC   GL165161  10.613   5.380   5.859
 5170POPC   GL265162  10.486   5.020   5.934
 5170POPC   C1A65163  10.385   5.422   6.226
 5170POPC   D2A65164  10.381   5.083   6.513
 5170POPC   C3A65165  10.494   5.167   6.934
 5170POPC   C4A65166  10.405   5.378   7.304
 5170POPC   C1B65167  10.759   4.731   6.188
 5170POPC   C2B65168  10.812   4.840   6.628
 5170POPC   C3B65169  10.760   4.767   7.080
 5170POPC   C4B65170  10.526   4.910   7.462
 5171POPC   NC365171   2.115   0.709   5.554
 5171POPC   PO465172   1.823   0.303   5.083
 5171POPC   GL165173   1.823   0.255   5.623
 5171POPC   GL265174   1.594   0.205   5.902
 5171POPC   C1A65175   2.031   0.306   6.101
 5171POPC   D2A65176   1.977   0.172   6.551
 5171POPC   C3A65177   2.044   0.468   6.893
 5171POPC   C4A65178   2.377   0.570   7.185
 5171POPC   C1B65179   1.600   0.484   6.304
 5171POPC   C2B65180   1.450   0.450   6.744
 5171POPC   C3B65181   1.611   0.533   7.166
 5171POPC   C4B65182   1.661   0.363   7.612
 5172POPC   NC365183  21.416   6.111   5.421
 5172POPC   PO465184  20.977   5.589   5.487
 5172POPC   GL165185  21.218   5.838   5.848
 5172POPC   GL265186  21.491   6.148   5.916
 5172POPC   C1A65187  21.213   5.921   6.283
 5172POPC   D2A65188  21.399   5.862   6.676
 5172POPC   C3A65189  21.174   5.942   7.046
 5172POPC   C4A65190  21.282   5.683   7.460
 5172POPC   C1B65191  21.699   5.829   6.156
 5172POPC   C2B65192  21.917   5.775   6.527
 5172POPC   C3B65193  21.823   5.693   6.948
 5172POPC   C4B65194  21.627   5.958   7.232
 5173POPC   NC365195  22.068  33.925   5.394
 5173POPC   PO465196  22.696  34.027   5.609
 5173POPC   GL165197  22.331  33.795   5.837
 5173POPC   GL265198  22.028  34.030   5.895
 5173POPC   C1A65199  22.182  33.763   6.295
 5173POPC   D2A65200  22.198  34.076   6.630
 5173POPC   C3A65201  22.322  33.888   7.013
 5173POPC   C4A65202  22.400  33.482   7.234
 5173POPC   C1B65203  21.782  34.099   6.301
 5173POPC   C2B65204  21.744  34.349   6.650
 5173POPC   C3B65205  21.947  34.257   7.044
 5173POPC   C4B65206  22.124  34.108   7.467
 5174POPC   NC365207   0.007   7.133   5.056
 5174POPC   PO465208   0.611   6.938   5.341
 5174POPC   GL165209   0.371   6.666   5.691
 5174POPC   GL265210   0.139   6.779   5.849
 5174POPC   C1A65211   0.455   6.597   6.175
 5174POPC   D2A65212   0.439   6.784   6.605
 5174POPC   C3A65213   0.499   6.626   7.010
 5174POPC   C4A65214   0.906   6.642   7.187
 5174POPC   C1B65215  44.977   6.870   6.203
 5174POPC   C2B65216  44.951   6.915   6.589
 5174POPC   C3B65217   0.079   6.969   6.966
 5174POPC   C4B65218   0.236   7.051   7.322
 5175POPC   NC365219  13.420  28.855   5.485
 5175POPC   PO465220  13.944  29.241   5.444
 5175POPC   GL165221  13.808  29.008   5.798
 5175POPC   GL265222  13.512  29.230   5.814
 5175POPC   C1A65223  13.641  28.979   6.223
 5175POPC   D2A65224  13.486  28.835   6.597
 5175POPC   C3A65225  13.719  28.733   6.963
 5175POPC   C4A65226  13.287  28.836   7.126
 5175POPC   C1B65227  13.812  29.454   6.098
 5175POPC   C2B65228  13.738  29.417   6.540
 5175POPC   C3B65229  13.657  29.224   6.932
 5175POPC   C4B65230  13.870  29.317   7.300
 5176POPC   NC365231  32.899  34.237   5.369
 5176POPC   PO465232  33.126  34.887   5.330
 5176POPC   GL165233  33.149  34.586   5.712
 5176POPC   GL265234  32.820  34.486   5.814
 5176POPC   C1A65235  33.125  34.599   6.189
 5176POPC   D2A65236  32.843  34.670   6.541
 5176POPC   C3A65237  32.994  34.621   6.988
 5176POPC   C4A65238  33.129  34.822   7.410
 5176POPC   C1B65239  32.743  34.216   6.189
 5176POPC   C2B65240  32.872  34.175   6.641
 5176POPC   C3B65241  32.660  34.235   7.036
 5176POPC   C4B65242  32.835  34.361   7.441
 5177POPC   NC365243  44.956  17.273   5.204
 5177POPC   PO465244  44.498  17.509   5.627
 5177POPC   GL165245  44.715  17.460   5.910
 5177POPC   GL265246  44.813  17.129   5.845
 5177POPC   C1A65247  44.644  17.619   6.293
 5177POPC   D2A65248  44.455  17.551   6.673
 5177POPC   C3A65249  44.734  17.729   6.966
 5177POPC   C4A65250  44.745  17.930   7.313
 5177POPC   C1B65251   0.066  17.285   6.218
 5177POPC   C2B65252  44.983  17.406   6.629
 5177POPC   C3B65253  44.743  17.227   6.960
 5177POPC   C4B65254  45.000  17.398   7.264
 5178POPC   NC365255  29.434  29.005   5.074
 5178POPC   PO465256  29.017  29.527   5.248
 5178POPC   GL165257  28.973  29.311   5.723
 5178POPC   GL265258  29.273  29.026   5.767
 5178POPC   C1A65259  29.147  29.279   6.170
 5178POPC   D2A65260  29.065  29.004   6.528
 5178POPC   C3A65261  29.192  29.145   6.942
 5178POPC   C4A65262  28.988  29.041   7.317
 5178POPC   C1B65263  29.463  28.864   6.215
 5178POPC   C2B65264  29.535  28.822   6.693
 5178POPC   C3B65265  29.541  28.815   7.158
 5178POPC   C4B65266  29.392  28.879   7.567
 5179POPC   NC365267  14.353  42.654   4.979
 5179POPC   PO465268  14.150  42.231   5.426
 5179POPC   GL165269  14.330  42.300   5.825
 5179POPC   GL265270  14.685  42.405   5.843
 5179POPC   C1A65271  14.204  42.231   6.225
 5179POPC   D2A65272  14.366  42.144   6.607
 5179POPC   C3A65273  14.085  42.161   6.971
 5179POPC   C4A65274  14.095  42.342   7.407
 5179POPC   C1B65275  14.586  42.606   6.263
 5179POPC   C2B65276  14.578  42.594   6.720
 5179POPC   C3B65277  14.552  42.363   7.090
 5179POPC   C4B65278  14.579  42.393   7.551
 5180POPC   NC365279  43.017  26.773   5.348
 5180POPC   PO465280  43.603  27.116   5.447
 5180POPC   GL165281  43.351  26.876   5.802
 5180POPC   GL265282  43.306  26.522   5.823
 5180POPC   C1A65283  43.335  26.766   6.282
 5180POPC   D2A65284  43.156  27.022   6.584
 5180POPC   C3A65285  43.161  27.043   7.016
 5180POPC   C4A65286  42.949  27.137   7.344
 5180POPC   C1B65287  43.004  26.390   6.172
 5180POPC   C2B65288  42.923  26.489   6.579
 5180POPC   C3B65289  43.171  26.549   6.899
 5180POPC   C4B65290  43.119  26.601   7.325
 5181POPC   NC365291   8.249   3.923   5.620
 5181POPC   PO465292   8.490   4.491   5.204
 5181POPC   GL165293   8.312   4.422   5.654
 5181POPC   GL265294   8.531   4.274   5.893
 5181POPC   C1A65295   8.052   4.335   6.086
 5181POPC   D2A65296   8.110   4.429   6.519
 5181POPC   C3A65297   8.239   4.244   6.846
 5181POPC   C4A65298   8.151   4.355   7.251
 5181POPC   C1B65299   8.498   4.188   6.320
 5181POPC   C2B65300   8.683   4.052   6.709
 5181POPC   C3B65301   8.537   3.965   7.149
 5181POPC   C4B65302   8.484   4.159   7.566
 5182POPC   NC365303  17.703  36.285   5.498
 5182POPC   PO465304  17.293  35.788   5.478
 5182POPC   GL165305  17.454  36.034   5.870
 5182POPC   GL265306  17.796  36.007   5.946
 5182POPC   C1A65307  17.494  36.173   6.330
 5182POPC   D2A65308  17.412  36.360   6.738
 5182POPC   C3A65309  17.543  36.067   7.090
 5182POPC   C4A65310  17.506  36.079   7.547
 5182POPC   C1B65311  17.828  36.483   6.114
 5182POPC   C2B65312  17.810  36.661   6.557
 5182POPC   C3B65313  17.954  36.497   6.972
 5182POPC   C4B65314  18.105  36.070   7.049
 5183POPC   NC365315   9.560  22.035   5.461
 5183POPC   PO465316   9.804  22.607   5.201
 5183POPC   GL165317   9.793  22.457   5.628
 5183POPC   GL265318   9.631  22.705   5.772
 5183POPC   C1A65319   9.777  22.318   6.093
 5183POPC   D2A65320   9.938  22.328   6.556
 5183POPC   C3A65321   9.751  22.147   6.943
 5183POPC   C4A65322   9.456  21.784   7.006
 5183POPC   C1B65323   9.321  22.584   6.072
 5183POPC   C2B65324   9.508  22.581   6.457
 5183POPC   C3B65325   9.529  22.658   6.868
 5183POPC   C4B65326   9.531  22.476   7.279
 5184POPC   NC365327  40.171  44.129   5.299
 5184POPC   PO465328  40.426  43.548   5.202
 5184POPC   GL165329  40.300  43.740   5.651
 5184POPC   GL265330  40.162  44.088   5.822
 5184POPC   C1A65331  39.981  43.626   5.968
 5184POPC   D2A65332  40.019  43.557   6.391
 5184POPC   C3A65333  39.918  43.684   6.743
 5184POPC   C4A65334  40.208  43.488   7.059
 5184POPC   C1B65335  40.380  43.884   6.210
 5184POPC   C2B65336  40.397  43.754   6.657
 5184POPC   C3B65337  40.188  43.968   7.035
 5184POPC   C4B65338  40.225  43.915   7.400
 5185POPC   NC365339  38.894  28.646   5.484
 5185POPC   PO465340  38.197  28.605   5.498
 5185POPC   GL165341  38.444  28.453   5.818
 5185POPC   GL265342  38.308  28.128   5.790
 5185POPC   C1A65343  38.540  28.622   6.231
 5185POPC   D2A65344  38.751  28.872   6.516
 5185POPC   C3A65345  38.652  28.665   6.897
 5185POPC   C4A65346  38.708  28.314   7.145
 5185POPC   C1B65347  38.213  28.223   6.239
 5185POPC   C2B65348  38.162  28.464   6.606
 5185POPC   C3B65349  38.191  28.373   7.027
 5185POPC   C4B65350  38.306  27.929   7.080
 5186POPC   NC365351   7.820  19.774   5.504
 5186POPC   PO465352   7.196  20.125   5.485
 5186POPC   GL165353   7.429  19.897   5.809
 5186POPC   GL265354   7.422  19.519   5.787
 5186POPC   C1A65355   7.513  19.818   6.252
 5186POPC   D2A65356   7.263  19.728   6.620
 5186POPC   C3A65357   7.446  19.793   6.986
 5186POPC   C4A65358   7.767  19.871   7.240
 5186POPC   C1B65359   7.142  19.432   6.183
 5186POPC   C2B65360   7.066  19.261   6.634
 5186POPC   C3B65361   7.109  19.419   7.059
 5186POPC   C4B65362   7.111  19.733   7.355
 5187POPC   NC365363  11.413  26.538   5.470
 5187POPC   PO465364  10.770  26.811   5.470
 5187POPC   GL165365  11.028  26.898   5.852
 5187POPC   GL265366  11.418  26.898   5.852
 5187POPC   C1A65367  11.000  26.891   6.310
 5187POPC   D2A65368  11.256  26.936   6.675
 5187POPC   C3A65369  11.122  26.787   7.089
 5187POPC   C4A65370  11.146  27.015   7.493
 5187POPC   C1B65371  11.318  26.548   6.145
 5187POPC   C2B65372  11.374  26.447   6.586
 5187POPC   C3B65373  11.622  26.605   6.947
 5187POPC   C4B65374  11.584  26.804   7.348
 5188POPC   NC365375  40.733   4.115   5.169
 5188POPC   PO465376  40.550   4.745   5.355
 5188POPC   GL165377  40.549   4.554   5.737
 5188POPC   GL265378  40.838   4.356   5.629
 5188POPC   C1A65379  40.413   4.511   6.183
 5188POPC   D2A65380  40.399   4.251   6.573
 5188POPC   C3A65381  40.497   4.383   6.970
 5188POPC   C4A65382  40.302   4.570   7.318
 5188POPC   C1B65383  40.708   4.124   5.982
 5188POPC   C2B65384  40.841   4.108   6.390
 5188POPC   C3B65385  40.981   4.160   6.770
 5188POPC   C4B65386  40.885   4.185   7.218
 5189POPC   NC365387   0.973  40.237   5.714
 5189POPC   PO465388   1.068  40.730   5.278
 5189POPC   GL165389   1.215  40.777   5.709
 5189POPC   GL265390   1.421  41.083   5.803
 5189POPC   C1A65391   1.194  40.704   6.157
 5189POPC   D2A65392   1.314  40.533   6.552
 5189POPC   C3A65393   1.005  40.523   6.865
 5189POPC   C4A65394   0.970  40.802   7.216
 5189POPC   C1B65395   1.270  41.204   6.219
 5189POPC   C2B65396   1.173  41.027   6.661
 5189POPC   C3B65397   1.290  41.176   7.077
 5189POPC   C4B65398   1.588  41.195   7.399
 5190POPC   NC365399  37.065   0.025   5.252
 5190POPC   PO465400  37.311  44.448   5.490
 5190POPC   GL165401  37.459  44.611   5.867
 5190POPC   GL265402  37.819  44.553   5.824
 5190POPC   C1A65403  37.341  44.728   6.296
 5190POPC   D2A65404  37.425   0.007   6.655
 5190POPC   C3A65405  37.454  44.808   7.042
 5190POPC   C4A65406  37.614  44.412   7.251
 5190POPC   C1B65407  37.749  44.394   6.245
 5190POPC   C2B65408  37.670  44.497   6.685
 5190POPC   C3B65409  38.004  44.615   6.984
 5190POPC   C4B65410  38.249  44.519   7.368
 5191POPC   NC365411  13.540  16.541   5.345
 5191POPC   PO465412  13.796  17.075   5.576
 5191POPC   GL165413  13.825  16.778   5.901
 5191POPC   GL265414  13.697  16.416   5.822
 5191POPC   C1A65415  13.781  16.958   6.338
 5191POPC   D2A65416  13.476  17.154   6.652
 5191POPC   C3A65417  13.537  17.029   7.061
 5191POPC   C4A65418  13.779  16.708   7.220
 5191POPC   C1B65419  13.623  16.461   6.278
 5191POPC   C2B65420  13.573  16.636   6.713
 5191POPC   C3B65421  13.312  16.568   7.099
 5191POPC   C4B65422  13.461  16.373   7.506
 5192POPC   NC365423  20.625  34.030   5.461
 5192POPC   PO465424  20.784  33.352   5.379
 5192POPC   GL165425  20.605  33.606   5.716
 5192POPC   GL265426  20.933  33.680   5.833
 5192POPC   C1A65427  20.573  33.903   6.115
 5192POPC   D2A65428  20.795  33.800   6.507
 5192POPC   C3A65429  20.642  33.943   6.930
 5192POPC   C4A65430  20.530  34.001   7.358
 5192POPC   C1B65431  21.095  33.463   6.233
 5192POPC   C2B65432  21.023  33.401   6.719
 5192POPC   C3B65433  20.865  33.557   7.165
 5192POPC   C4B65434  20.988  33.591   7.637
 5193POPC   NC365435  39.476  39.591   4.992
 5193POPC   PO465436  39.207  39.164   5.427
 5193POPC   GL165437  39.222  39.150   5.854
 5193POPC   GL265438  39.404  39.426   5.910
 5193POPC   C1A65439  38.998  39.199   6.260
 5193POPC   D2A65440  38.942  39.266   6.721
 5193POPC   C3A65441  39.304  39.159   7.014
 5193POPC   C4A65442  39.302  39.273   7.473
 5193POPC   C1B65443  39.265  39.630   6.257
 5193POPC   C2B65444  39.274  39.638   6.677
 5193POPC   C3B65445  39.097  39.619   7.095
 5193POPC   C4B65446  39.263  39.770   7.467
 5194POPC   NC365447  16.868   4.380   5.432
 5194POPC   PO465448  16.366   4.025   5.662
 5194POPC   GL165449  16.592   4.345   5.860
 5194POPC   GL265450  16.512   4.679   5.713
 5194POPC   C1A65451  16.910   4.333   6.192
 5194POPC   D2A65452  16.868   4.123   6.588
 5194POPC   C3A65453  17.016   4.277   6.968
 5194POPC   C4A65454  16.921   3.968   7.258
 5194POPC   C1B65455  16.604   4.757   6.157
 5194POPC   C2B65456  16.586   4.541   6.583
 5194POPC   C3B65457  16.649   4.649   7.019
 5194POPC   C4B65458  16.789   4.456   7.416
 5195POPC   NC365459   0.003  32.658   5.248
 5195POPC   PO465460  44.468  32.901   5.234
 5195POPC   GL165461  44.585  33.024   5.652
 5195POPC   GL265462  44.795  32.738   5.740
 5195POPC   C1A65463  44.447  33.249   6.043
 5195POPC   D2A65464  44.179  33.142   6.409
 5195POPC   C3A65465  44.231  33.248   6.854
 5195POPC   C4A65466  44.303  33.025   7.260
 5195POPC   C1B65467  44.686  32.817   6.189
 5195POPC   C2B65468  44.677  33.129   6.536
 5195POPC   C3B65469  44.720  33.046   6.974
 5195POPC   C4B65470  44.768  32.839   7.374
 5196POPC   NC365471   6.829  15.821   5.632
 5196POPC   PO465472   6.307  16.162   5.434
 5196POPC   GL165473   6.501  16.162   5.846
 5196POPC   GL265474   6.840  16.327   5.795
 5196POPC   C1A65475   6.550  15.891   6.240
 5196POPC   D2A65476   6.825  15.793   6.607
 5196POPC   C3A65477   6.655  15.977   6.993
 5196POPC   C4A65478   6.365  16.102   7.331
 5196POPC   C1B65479   6.995  16.141   6.198
 5196POPC   C2B65480   6.910  16.304   6.605
 5196POPC   C3B65481   6.990  16.388   7.032
 5196POPC   C4B65482   6.980  16.296   7.477
 5197POPC   NC365483  10.238  13.281   5.449
 5197POPC   PO465484  10.518  12.713   5.309
 5197POPC   GL165485  10.454  12.715   5.750
 5197POPC   GL265486  10.637  12.424   5.831
 5197POPC   C1A65487  10.722  12.815   6.153
 5197POPC   D2A65488  10.761  12.581   6.569
 5197POPC   C3A65489  10.600  12.860   6.906
 5197POPC   C4A65490  10.730  13.163   7.222
 5197POPC   C1B65491  10.384  12.458   6.212
 5197POPC   C2B65492  10.235  12.689   6.567
 5197POPC   C3B65493  10.243  12.480   6.938
 5197POPC   C4B65494  10.495  12.486   7.283
 5198POPC   NC365495  11.585  13.763   5.170
 5198POPC   PO465496  12.060  13.353   5.290
 5198POPC   GL165497  12.140  13.666   5.731
 5198POPC   GL265498  12.122  13.454   5.945
 5198POPC   C1A65499  12.074  13.882   6.213
 5198POPC   D2A65500  11.720  13.897   6.582
 5198POPC   C3A65501  11.859  13.809   7.036
 5198POPC   C4A65502  12.296  13.859   7.178
 5198POPC   C1B65503  12.268  13.415   6.339
 5198POPC   C2B65504  12.238  13.636   6.713
 5198POPC   C3B65505  12.211  13.348   7.060
 5198POPC   C4B65506  12.374  13.104   7.421
 5199POPC   NC365507  18.582  14.140   5.135
 5199POPC   PO465508  18.243  14.706   5.425
 5199POPC   GL165509  18.269  14.538   5.866
 5199POPC   GL265510  18.157  14.211   5.877
 5199POPC   C1A65511  18.263  14.422   6.335
 5199POPC   D2A65512  18.078  14.139   6.629
 5199POPC   C3A65513  18.235  14.200   7.050
 5199POPC   C4A65514  18.280  14.531   7.351
 5199POPC   C1B65515  18.415  13.947   6.208
 5199POPC   C2B65516  18.624  14.114   6.549
 5199POPC   C3B65517  18.806  14.032   6.929
 5199POPC   C4B65518  18.719  14.200   7.294
 5200POPC   NC365519  22.300   5.463   5.489
 5200POPC   PO465520  21.826   5.952   5.265
 5200POPC   GL165521  21.956   5.922   5.714
 5200POPC   GL265522  22.235   6.161   5.754
 5200POPC   C1A65523  22.230   5.758   6.084
 5200POPC   D2A65524  22.432   5.964   6.428
 5200POPC   C3A65525  22.341   5.825   6.842
 5200POPC   C4A65526  22.399   5.879   7.279
 5200POPC   C1B65527  22.032   6.220   6.161
 5200POPC   C2B65528  22.079   6.264   6.582
 5200POPC   C3B65529  22.012   6.180   6.990
 5200POPC   C4B65530  22.007   6.203   7.441
 5201POPC   NC365531  22.244  31.824   5.321
 5201POPC   PO465532  22.148  32.529   5.422
 5201POPC   GL165533  22.089  32.237   5.766
 5201POPC   GL265534  21.855  31.959   5.665
 5201POPC   C1A65535  22.022  32.396   6.201
 5201POPC   D2A65536  22.110  32.711   6.518
 5201POPC   C3A65537  22.267  32.469   6.873
 5201POPC   C4A65538  22.130  32.303   7.292
 5201POPC   C1B65539  21.935  31.880   6.123
 5201POPC   C2B65540  22.176  31.959   6.509
 5201POPC   C3B65541  21.981  31.990   6.914
 5201POPC   C4B65542  21.923  31.810   7.304
 5202POPC   NC365543  39.951  36.049   5.398
 5202POPC   PO465544  39.798  36.699   5.620
 5202POPC   GL165545  40.031  36.377   5.856
 5202POPC   GL265546  39.896  36.015   5.887
 5202POPC   C1A65547  40.117  36.221   6.282
 5202POPC   D2A65548  39.910  36.035   6.663
 5202POPC   C3A65549  40.178  36.239   6.962
 5202POPC   C4A65550  40.243  36.160   7.394
 5202POPC   C1B65551  39.958  35.736   6.249
 5202POPC   C2B65552  40.082  35.503   6.641
 5202POPC   C3B65553  40.150  35.749   7.025
 5202POPC   C4B65554  39.794  36.027   7.243
 5203POPC   NC365555  23.071   8.721   5.403
 5203POPC   PO465556  22.985   9.458   5.290
 5203POPC   GL165557  22.935   9.174   5.676
 5203POPC   GL265558  23.192   8.955   5.851
 5203POPC   C1A65559  22.820   9.155   6.128
 5203POPC   D2A65560  22.730   8.902   6.500
 5203POPC   C3A65561  22.953   9.097   6.827
 5203POPC   C4A65562  22.876   9.241   7.224
 5203POPC   C1B65563  22.959   8.631   6.122
 5203POPC   C2B65564  22.890   8.414   6.550
 5203POPC   C3B65565  22.844   8.622   6.962
 5203POPC   C4B65566  23.209   8.825   7.186
 5204POPC   NC365567  13.264  40.706   5.386
 5204POPC   PO465568  12.632  40.710   5.235
 5204POPC   GL165569  12.844  40.887   5.612
 5204POPC   GL265570  13.002  40.584   5.805
 5204POPC   C1A65571  12.841  41.027   6.046
 5204POPC   D2A65572  12.811  41.247   6.440
 5204POPC   C3A65573  12.767  41.012   6.844
 5204POPC   C4A65574  12.569  40.757   7.177
 5204POPC   C1B65575  13.224  40.590   6.208
 5204POPC   C2B65576  13.130  40.715   6.624
 5204POPC   C3B65577  13.047  40.501   7.001
 5204POPC   C4B65578  13.173  40.537   7.435
 5205POPC   NC365579  25.047  20.165   5.206
 5205POPC   PO465580  25.227  20.788   5.429
 5205POPC   GL165581  25.141  20.734   5.839
 5205POPC   GL265582  25.484  20.708   5.927
 5205POPC   C1A65583  25.139  20.573   6.257
 5205POPC   D2A65584  25.291  20.570   6.635
 5205POPC   C3A65585  25.024  20.782   6.871
 5205POPC   C4A65586  24.862  20.465   7.160
 5205POPC   C1B65587  25.649  20.450   6.247
 5205POPC   C2B65588  25.799  20.609   6.633
 5205POPC   C3B65589  25.581  20.830   6.955
 5205POPC   C4B65590  25.334  20.633   7.236
 5206POPC   NC365591  28.850  29.976   5.309
 5206POPC   PO465592  29.266  30.514   5.256
 5206POPC   GL165593  29.163  30.273   5.698
 5206POPC   GL265594  29.078  29.898   5.763
 5206POPC   C1A65595  29.252  30.133   6.172
 5206POPC   D2A65596  29.294  29.814   6.515
 5206POPC   C3A65597  29.346  29.957   6.928
 5206POPC   C4A65598  29.019  30.070   7.202
 5206POPC   C1B65599  28.919  29.727   6.168
 5206POPC   C2B65600  28.884  29.491   6.548
 5206POPC   C3B65601  28.938  29.602   6.958
 5206POPC   C4B65602  29.065  29.572   7.375
 5207POPC   NC365603   1.029  38.657   5.457
 5207POPC   PO465604   1.302  38.065   5.285
 5207POPC   GL165605   1.176  38.271   5.737
 5207POPC   GL265606   0.854  38.272   5.896
 5207POPC   C1A65607   1.267  38.589   6.101
 5207POPC   D2A65608   1.246  38.815   6.509
 5207POPC   C3A65609   1.357  38.733   6.935
 5207POPC   C4A65610   1.529  38.558   7.340
 5207POPC   C1B65611   1.024  38.184   6.289
 5207POPC   C2B65612   1.289  38.273   6.649
 5207POPC   C3B65613   1.154  38.290   7.096
 5207POPC   C4B65614   1.014  38.023   7.438
 5208POPC   NC365615   9.337  15.324   5.485
 5208POPC   PO465616   8.909  14.798   5.627
 5208POPC   GL165617   8.926  15.201   5.777
 5208POPC   GL265618   8.607  15.275   5.772
 5208POPC   C1A65619   9.020  15.331   6.192
 5208POPC   D2A65620   9.099  15.046   6.555
 5208POPC   C3A65621   9.245  15.218   6.943
 5208POPC   C4A65622   9.021  15.223   7.308
 5208POPC   C1B65623   8.648  14.967   6.170
 5208POPC   C2B65624   8.573  14.899   6.592
 5208POPC   C3B65625   8.727  14.912   7.005
 5208POPC   C4B65626   8.558  14.953   7.415
 5209POPC   NC365627   7.857  22.322   5.351
 5209POPC   PO465628   8.444  21.886   5.388
 5209POPC   GL165629   8.221  22.134   5.694
 5209POPC   GL265630   8.421  22.360   5.841
 5209POPC   C1A65631   8.123  22.051   6.150
 5209POPC   D2A65632   8.263  21.805   6.529
 5209POPC   C3A65633   8.251  22.089   6.885
 5209POPC   C4A65634   8.018  22.344   7.198
 5209POPC   C1B65635   8.255  22.545   6.196
 5209POPC   C2B65636   8.074  22.486   6.602
 5209POPC   C3B65637   8.331  22.642   6.926
 5209POPC   C4B65638   8.485  22.539   7.327
 5210POPC   NC365639  40.403  31.738   5.536
 5210POPC   PO465640  39.785  31.353   5.373
 5210POPC   GL165641  40.050  31.357   5.706
 5210POPC   GL265642  39.937  31.699   5.770
 5210POPC   C1A65643  40.190  31.390   6.139
 5210POPC   D2A65644  39.962  31.282   6.515
 5210POPC   C3A65645  40.175  31.362   6.873
 5210POPC   C4A65646  40.071  31.358   7.289
 5210POPC   C1B65647  40.013  31.921   6.144
 5210POPC   C2B65648  40.182  31.782   6.542
 5210POPC   C3B65649  40.097  31.875   6.963
 5210POPC   C4B65650  39.889  31.810   7.349
 5211POPC   NC365651  28.448  39.658   5.278
 5211POPC   PO465652  28.145  39.061   5.438
 5211POPC   GL165653  28.190  39.247   5.807
 5211POPC   GL265654  28.461  39.443   5.738
 5211POPC   C1A65655  28.238  39.106   6.226
 5211POPC   D2A65656  28.121  39.022   6.620
 5211POPC   C3A65657  28.382  39.163   6.895
 5211POPC   C4A65658  28.569  39.242   7.226
 5211POPC   C1B65659  28.669  39.312   6.078
 5211POPC   C2B65660  28.739  39.223   6.507
 5211POPC   C3B65661  28.778  39.503   6.852
 5211POPC   C4B65662  29.045  39.476   7.218
 5212POPC   NC365663  39.104  29.437   5.290
 5212POPC   PO465664  39.427  28.856   5.423
 5212POPC   GL165665  39.258  29.109   5.711
 5212POPC   GL265666  39.456  29.411   5.704
 5212POPC   C1A65667  39.127  28.955   6.115
 5212POPC   D2A65668  39.310  29.043   6.494
 5212POPC   C3A65669  39.144  28.852   6.848
 5212POPC   C4A65670  39.389  28.895   7.179
 5212POPC   C1B65671  39.273  29.444   6.120
 5212POPC   C2B65672  39.117  29.524   6.533
 5212POPC   C3B65673  39.204  29.358   6.927
 5212POPC   C4B65674  39.487  29.424   7.221
 5213POPC   NC365675   8.280   4.086   5.135
 5213POPC   PO465676   8.371   3.485   5.461
 5213POPC   GL165677   8.161   3.458   5.854
 5213POPC   GL265678   7.836   3.583   5.766
 5213POPC   C1A65679   8.323   3.380   6.296
 5213POPC   D2A65680   8.574   3.477   6.686
 5213POPC   C3A65681   8.301   3.470   7.031
 5213POPC   C4A65682   8.000   3.177   7.207
 5213POPC   C1B65683   7.995   3.790   6.211
 5213POPC   C2B65684   8.137   3.782   6.658
 5213POPC   C3B65685   7.966   3.875   7.115
 5213POPC   C4B65686   7.985   4.002   7.581
 5214POPC   NC365687  14.699  23.423   5.670
 5214POPC   PO465688  14.432  23.070   5.240
 5214POPC   GL165689  14.438  22.940   5.704
 5214POPC   GL265690  14.767  22.928   5.875
 5214POPC   C1A65691  14.251  22.862   6.140
 5214POPC   D2A65692  14.129  23.035   6.562
 5214POPC   C3A65693  14.186  22.781   6.962
 5214POPC   C4A65694  14.259  22.897   7.403
 5214POPC   C1B65695  14.693  23.101   6.300
 5214POPC   C2B65696  14.642  23.024   6.752
 5214POPC   C3B65697  14.622  23.195   7.186
 5214POPC   C4B65698  14.863  23.117   7.585
 5215POPC   NC365699  39.146  43.429   5.171
 5215POPC   PO465700  38.982  42.869   5.525
 5215POPC   GL165701  39.135  43.078   5.877
 5215POPC   GL265702  39.402  42.868   5.937
 5215POPC   C1A65703  39.192  43.117   6.323
 5215POPC   D2A65704  39.533  42.943   6.491
 5215POPC   C3A65705  39.442  42.941   6.891
 5215POPC   C4A65706  39.214  43.186   7.144
 5215POPC   C1B65707  39.050  42.654   6.165
 5215POPC   C2B65708  39.142  42.650   6.576
 5215POPC   C3B65709  39.007  42.695   6.947
 5215POPC   C4B65710  39.175  42.712   7.301
 5216POPC   NC365711  14.012   0.284   5.389
 5216POPC   PO465712  13.364   0.406   5.357
 5216POPC   GL165713  13.605   0.323   5.731
 5216POPC   GL265714  13.875   0.561   5.830
 5216POPC   C1A65715  13.546   0.271   6.165
 5216POPC   D2A65716  13.721   0.423   6.554
 5216POPC   C3A65717  13.432   0.403   6.882
 5216POPC   C4A65718  13.201   0.387   7.243
 5216POPC   C1B65719  14.050   0.202   6.075
 5216POPC   C2B65720  14.111   0.092   6.520
 5216POPC   C3B65721  14.129   0.353   6.889
 5216POPC   C4B65722  13.838   0.426   7.220
 5217POPC   NC365723  33.408  21.988   5.411
 5217POPC   PO465724  32.799  22.253   5.237
 5217POPC   GL165725  32.976  22.077   5.705
 5217POPC   GL265726  33.266  21.862   5.867
 5217POPC   C1A65727  33.071  22.244   6.157
 5217POPC   D2A65728  33.219  22.337   6.572
 5217POPC   C3A65729  32.965  22.196   6.931
 5217POPC   C4A65730  32.732  22.151   7.356
 5217POPC   C1B65731  32.949  21.746   6.158
 5217POPC   C2B65732  33.042  21.844   6.549
 5217POPC   C3B65733  33.238  21.690   6.892
 5217POPC   C4B65734  33.159  21.872   7.276
 5218POPC   NC365735   2.189  34.286   5.410
 5218POPC   PO465736   2.124  34.964   5.483
 5218POPC   GL165737   1.947  34.630   5.716
 5218POPC   GL265738   1.650  34.744   5.872
 5218POPC   C1A65739   2.008  34.424   6.111
 5218POPC   D2A65740   1.832  34.591   6.496
 5218POPC   C3A65741   2.028  34.443   6.858
 5218POPC   C4A65742   2.181  34.548   7.249
 5218POPC   C1B65743   1.986  34.951   6.165
 5218POPC   C2B65744   2.139  35.021   6.612
 5218POPC   C3B65745   2.055  35.032   7.068
 5218POPC   C4B65746   1.750  34.812   7.316
 5219POPC   NC365747   6.573  24.534   5.281
 5219POPC   PO465748   7.225  24.840   5.507
 5219POPC   GL165749   6.868  24.696   5.761
 5219POPC   GL265750   6.826  24.339   5.804
 5219POPC   C1A65751   6.781  24.612   6.229
 5219POPC   D2A65752   6.651  24.415   6.614
 5219POPC   C3A65753   6.707  24.678   7.010
 5219POPC   C4A65754   6.913  24.850   7.385
 5219POPC   C1B65755   6.481  24.206   6.105
 5219POPC   C2B65756   6.232  24.055   6.463
 5219POPC   C3B65757   6.373  24.069   6.870
 5219POPC   C4B65758   6.514  24.278   7.254
 5220POPC   NC365759  42.236  42.153   5.331
 5220POPC   PO465760  42.606  42.665   5.358
 5220POPC   GL165761  42.288  42.584   5.683
 5220POPC   GL265762  42.253  42.242   5.841
 5220POPC   C1A65763  42.280  42.679   6.132
 5220POPC   D2A65764  42.554  42.705   6.508
 5220POPC   C3A65765  42.368  42.460   6.830
 5220POPC   C4A65766  42.200  42.607   7.192
 5220POPC   C1B65767  41.974  41.947   6.069
 5220POPC   C2B65768  41.812  41.919   6.469
 5220POPC   C3B65769  41.950  41.945   6.857
 5220POPC   C4B65770  42.185  42.098   7.178
 5221POPC   NC365771  22.736   2.659   5.502
 5221POPC   PO465772  23.213   3.117   5.388
 5221POPC   GL165773  23.127   2.866   5.776
 5221POPC   GL265774  22.827   3.072   5.808
 5221POPC   C1A65775  23.017   2.545   6.153
 5221POPC   D2A65776  23.224   2.487   6.554
 5221POPC   C3A65777  23.007   2.518   6.941
 5221POPC   C4A65778  23.054   2.562   7.349
 5221POPC   C1B65779  23.008   3.035   6.236
 5221POPC   C2B65780  22.807   2.815   6.566
 5221POPC   C3B65781  22.779   2.960   7.018
 5221POPC   C4B65782  22.953   3.062   7.422
 5222POPC   NC365783  14.089  37.907   5.562
 5222POPC   PO465784  14.756  37.792   5.490
 5222POPC   GL165785  14.504  37.712   5.835
 5222POPC   GL265786  14.232  37.455   5.815
 5222POPC   C1A65787  14.584  37.794   6.252
 5222POPC   D2A65788  14.302  37.741   6.582
 5222POPC   C3A65789  14.444  37.676   6.993
 5222POPC   C4A65790  14.237  37.675   7.400
 5222POPC   C1B65791  14.348  37.335   6.246
 5222POPC   C2B65792  14.302  37.237   6.703
 5222POPC   C3B65793  14.236  37.230   7.139
 5222POPC   C4B65794  14.261  37.178   7.606
 5223POPC   NC365795  36.611   5.424   5.479
 5223POPC   PO465796  35.953   5.158   5.351
 5223POPC   GL165797  35.976   5.165   5.779
 5223POPC   GL265798  36.048   4.823   5.848
 5223POPC   C1A65799  36.185   5.179   6.179
 5223POPC   D2A65800  36.115   4.937   6.538
 5223POPC   C3A65801  36.143   5.172   6.903
 5223POPC   C4A65802  35.992   5.375   7.251
 5223POPC   C1B65803  35.736   4.850   6.186
 5223POPC   C2B65804  35.622   4.763   6.612
 5223POPC   C3B65805  35.874   4.699   6.944
 5223POPC   C4B65806  35.934   4.879   7.299
 5224POPC   NC365807  31.600   9.952   5.545
 5224POPC   PO465808  31.272   9.401   5.535
 5224POPC   GL165809  31.426   9.535   5.899
 5224POPC   GL265810  31.750   9.642   5.942
 5224POPC   C1A65811  31.260   9.688   6.275
 5224POPC   D2A65812  31.186   9.507   6.670
 5224POPC   C3A65813  31.465   9.699   6.961
 5224POPC   C4A65814  31.540   9.876   7.363
 5224POPC   C1B65815  31.678   9.394   6.324
 5224POPC   C2B65816  31.563   9.125   6.647
 5224POPC   C3B65817  31.580   9.230   7.061
 5224POPC   C4B65818  31.854   9.503   7.254
 5225POPC   NC365819  35.071  29.224   5.587
 5225POPC   PO465820  35.701  28.964   5.578
 5225POPC   GL165821  35.562  28.943   5.956
 5225POPC   GL265822  35.378  29.247   6.008
 5225POPC   C1A65823  35.580  28.868   6.385
 5225POPC   D2A65824  35.354  29.148   6.640
 5225POPC   C3A65825  35.503  29.180   7.056
 5225POPC   C4A65826  35.174  29.101   7.337
 5225POPC   C1B65827  35.070  29.456   6.291
 5225POPC   C2B65828  34.952  29.655   6.696
 5225POPC   C3B65829  35.204  29.614   7.070
 5225POPC   C4B65830  35.244  29.573   7.518
 5226POPC   NC365831  17.522  44.673   5.355
 5226POPC   PO465832  16.916  44.599   5.614
 5226POPC   GL165833  17.319  44.566   5.836
 5226POPC   GL265834  17.593  44.318   5.739
 5226POPC   C1A65835  17.417  44.654   6.274
 5226POPC   D2A65836  17.207  44.506   6.656
 5226POPC   C3A65837  17.314  44.808   7.019
 5226POPC   C4A65838  17.404  44.861   7.471
 5226POPC   C1B65839  17.888  44.490   6.065
 5226POPC   C2B65840  18.045  44.592   6.484
 5226POPC   C3B65841  17.954  44.465   6.896
 5226POPC   C4B65842  17.697  44.521   7.234
 5227POPC   NC365843  30.469  36.490   5.307
 5227POPC   PO465844  30.655  35.815   5.435
 5227POPC   GL165845  30.756  36.020   5.803
 5227POPC   GL265846  31.001  35.823   5.934
 5227POPC   C1A65847  30.578  35.971   6.226
 5227POPC   D2A65848  30.449  35.738   6.606
 5227POPC   C3A65849  30.421  36.074   6.864
 5227POPC   C4A65850  30.569  36.182   7.216
 5227POPC   C1B65851  31.093  35.989   6.310
 5227POPC   C2B65852  30.943  36.223   6.644
 5227POPC   C3B65853  30.953  35.944   6.985
 5227POPC   C4B65854  30.960  35.932   7.428
 5228POPC   NC365855  33.284   3.629   5.221
 5228POPC   PO465856  32.837   3.244   5.438
 5228POPC   GL165857  33.022   3.434   5.779
 5228POPC   GL265858  33.206   3.757   5.753
 5228POPC   C1A65859  32.948   3.228   6.153
 5228POPC   D2A65860  32.768   3.063   6.513
 5228POPC   C3A65861  32.717   3.308   6.864
 5228POPC   C4A65862  32.820   3.236   7.276
 5228POPC   C1B65863  33.090   3.732   6.215
 5228POPC   C2B65864  33.134   3.443   6.574
 5228POPC   C3B65865  33.231   3.330   6.992
 5228POPC   C4B65866  33.160   3.743   7.226
 5229POPC   NC365867  20.839  37.843   5.387
 5229POPC   PO465868  20.568  37.315   5.535
 5229POPC   GL165869  20.586  37.676   5.837
 5229POPC   GL265870  20.933  37.713   5.895
 5229POPC   C1A65871  20.526  37.912   6.258
 5229POPC   D2A65872  20.466  37.947   6.721
 5229POPC   C3A65873  20.473  37.533   6.909
 5229POPC   C4A65874  20.221  37.336   7.250
 5229POPC   C1B65875  21.064  37.955   6.245
 5229POPC   C2B65876  20.938  37.802   6.627
 5229POPC   C3B65877  20.971  37.788   7.047
 5229POPC   C4B65878  20.674  37.665   7.357
 5230POPC   NC365879  16.361  27.853   5.403
 5230POPC   PO465880  16.911  27.457   5.194
 5230POPC   GL165881  16.748  27.653   5.637
 5230POPC   GL265882  17.020  27.866   5.674
 5230POPC   C1A65883  16.616  27.508   6.091
 5230POPC   D2A65884  16.519  27.596   6.535
 5230POPC   C3A65885  16.715  27.331   6.864
 5230POPC   C4A65886  16.650  27.546   7.251
 5230POPC   C1B65887  16.980  27.846   6.140
 5230POPC   C2B65888  17.040  27.634   6.555
 5230POPC   C3B65889  17.087  27.679   7.011
 5230POPC   C4B65890  17.106  27.400   7.410
 5231POPC   NC365891  31.001   9.061   5.393
 5231POPC   PO465892  30.579   8.654   5.587
 5231POPC   GL165893  30.691   8.645   5.971
 5231POPC   GL265894  30.819   8.963   5.947
 5231POPC   C1A65895  30.709   8.575   6.409
 5231POPC   D2A65896  30.503   8.800   6.700
 5231POPC   C3A65897  30.701   8.816   7.052
 5231POPC   C4A65898  30.807   9.030   7.370
 5231POPC   C1B65899  30.622   9.114   6.329
 5231POPC   C2B65900  30.736   9.275   6.785
 5231POPC   C3B65901  30.989   9.452   7.170
 5231POPC   C4B65902  30.902   9.402   7.668
 5232POPC   NC365903  32.845  41.461   5.346
 5232POPC   PO465904  33.356  41.939   5.448
 5232POPC   GL165905  33.076  41.697   5.729
 5232POPC   GL265906  32.720  41.864   5.723
 5232POPC   C1A65907  33.058  41.384   6.062
 5232POPC   D2A65908  33.229  41.377   6.480
 5232POPC   C3A65909  33.014  41.362   6.878
 5232POPC   C4A65910  33.294  41.501   7.205
 5232POPC   C1B65911  32.803  41.827   6.162
 5232POPC   C2B65912  32.948  41.811   6.604
 5232POPC   C3B65913  32.926  41.840   7.032
 5232POPC   C4B65914  32.937  41.850   7.435
 5233POPC   NC365915  12.862   3.997   5.409
 5233POPC   PO465916  12.481   4.526   5.461
 5233POPC   GL165917  12.620   4.314   5.770
 5233POPC   GL265918  12.450   3.997   5.715
 5233POPC   C1A65919  12.861   4.389   6.133
 5233POPC   D2A65920  12.993   4.270   6.545
 5233POPC   C3A65921  12.821   4.490   6.902
 5233POPC   C4A65922  13.098   4.727   7.142
 5233POPC   C1B65923  12.681   3.900   6.064
 5233POPC   C2B65924  12.793   3.819   6.464
 5233POPC   C3B65925  12.659   3.983   6.836
 5233POPC   C4B65926  12.389   3.874   7.118
 5234POPC   NC365927  33.712  37.441   5.268
 5234POPC   PO465928  34.249  37.700   5.547
 5234POPC   GL165929  33.882  37.473   5.783
 5234POPC   GL265930  34.099  37.260   5.974
 5234POPC   C1A65931  33.610  37.710   6.146
 5234POPC   D2A65932  33.764  38.002   6.495
 5234POPC   C3A65933  33.537  38.005   6.912
 5234POPC   C4A65934  33.524  37.654   7.184
 5234POPC   C1B65935  34.121  37.638   6.206
 5234POPC   C2B65936  34.233  37.739   6.574
 5234POPC   C3B65937  33.984  37.751   6.905
 5234POPC   C4B65938  34.031  37.732   7.313
 5235POPC   NC365939  20.045  23.626   5.403
 5235POPC   PO465940  19.355  23.476   5.415
 5235POPC   GL165941  19.635  23.721   5.741
 5235POPC   GL265942  19.590  24.077   5.796
 5235POPC   C1A65943  19.704  23.561   6.191
 5235POPC   D2A65944  19.506  23.397   6.597
 5235POPC   C3A65945  19.669  23.592   6.988
 5235POPC   C4A65946  20.035  23.500   7.255
 5235POPC   C1B65947  19.846  24.061   6.208
 5235POPC   C2B65948  19.910  23.858   6.607
 5235POPC   C3B65949  20.077  23.940   6.994
 5235POPC   C4B65950  19.805  24.027   7.345
 5236POPC   NC365951  27.621   3.970   5.413
 5236POPC   PO465952  27.564   4.614   5.360
 5236POPC   GL165953  27.829   4.413   5.677
 5236POPC   GL265954  27.527   4.291   5.810
 5236POPC   C1A65955  28.027   4.305   6.101
 5236POPC   D2A65956  28.030   4.085   6.529
 5236POPC   C3A65957  27.848   4.281   6.897
 5236POPC   C4A65958  27.513   4.570   7.004
 5236POPC   C1B65959  27.554   4.166   6.225
 5236POPC   C2B65960  27.391   4.237   6.611
 5236POPC   C3B65961  27.411   4.014   6.987
 5236POPC   C4B65962  27.391   4.219   7.352
 5237POPC   NC365963  17.985  29.887   5.511
 5237POPC   PO465964  17.330  29.988   5.327
 5237POPC   GL165965  17.489  29.927   5.723
 5237POPC   GL265966  17.683  30.237   5.743
 5237POPC   C1A65967  17.484  29.810   6.155
 5237POPC   D2A65968  17.275  29.856   6.562
 5237POPC   C3A65969  17.433  29.972   6.968
 5237POPC   C4A65970  17.209  29.844   7.351
 5237POPC   C1B65971  17.917  30.084   6.123
 5237POPC   C2B65972  17.772  30.021   6.550
 5237POPC   C3B65973  17.943  30.188   6.930
 5237POPC   C4B65974  17.748  30.139   7.345
 5238POPC   NC365975  40.010   4.063   5.404
 5238POPC   PO465976  39.725   4.645   5.513
 5238POPC   GL165977  39.990   4.373   5.823
 5238POPC   GL265978  39.784   4.047   5.857
 5238POPC   C1A65979  40.196   4.050   6.137
 5238POPC   D2A65980  40.007   3.929   6.541
 5238POPC   C3A65981  40.040   4.152   6.964
 5238POPC   C4A65982  39.949   4.213   7.427
 5238POPC   C1B65983  39.727   4.247   6.268
 5238POPC   C2B65984  39.616   4.300   6.725
 5238POPC   C3B65985  39.758   4.571   7.102
 5238POPC   C4B65986  39.858   4.690   7.549
 5239POPC   NC365987  19.683  17.387   5.455
 5239POPC   PO465988  20.254  17.826   5.352
 5239POPC   GL165989  20.096  17.777   5.816
 5239POPC   GL265990  19.741  17.688   5.859
 5239POPC   C1A65991  20.072  17.616   6.247
 5239POPC   D2A65992  20.259  17.454   6.628
 5239POPC   C3A65993  20.020  17.361   6.963
 5239POPC   C4A65994  19.977  17.724   7.208
 5239POPC   C1B65995  19.541  17.786   6.229
 5239POPC   C2B65996  19.740  17.772   6.632
 5239POPC   C3B65997  19.522  17.694   7.006
 5239POPC   C4B65998  19.596  17.301   7.239
 5240POPC   NC365999  11.120  20.098   5.406
 5240POPC   PO466000  11.262  20.818   5.405
 5240POPC   GL166001  11.139  20.558   5.729
 5240POPC   GL266002  11.412  20.352   5.864
 5240POPC   C1A66003  11.113  20.622   6.181
 5240POPC   D2A66004  11.422  20.631   6.521
 5240POPC   C3A66005  11.292  20.895   6.853
 5240POPC   C4A66006  11.305  20.782   7.282
 5240POPC   C1B66007  11.446  20.156   6.283
 5240POPC   C2B66008  11.620  20.202   6.711
 5240POPC   C3B66009  11.392  20.327   7.094
 5240POPC   C4B66010  11.455  20.163   7.524
 5241POPC   NC366011  30.422  33.252   5.283
 5241POPC   PO466012  30.985  32.881   5.453
 5241POPC   GL166013  30.760  33.110   5.740
 5241POPC   GL266014  30.413  33.039   5.756
 5241POPC   C1A66015  30.739  32.983   6.178
 5241POPC   D2A66016  30.976  32.827   6.532
 5241POPC   C3A66017  30.753  32.913   6.922
 5241POPC   C4A66018  30.884  33.215   7.242
 5241POPC   C1B66019  30.341  33.297   6.146
 5241POPC   C2B66020  30.391  33.088   6.524
 5241POPC   C3B66021  30.236  33.045   6.901
 5241POPC   C4B66022  30.396  33.162   7.264
 5242POPC   NC366023  18.556  11.660   5.450
 5242POPC   PO466024  18.459  11.065   5.166
 5242POPC   GL166025  18.371  11.208   5.668
 5242POPC   GL266026  18.221  11.520   5.815
 5242POPC   C1A66027  18.503  11.234   6.117
 5242POPC   D2A66028  18.591  11.367   6.511
 5242POPC   C3A66029  18.398  11.220   6.885
 5242POPC   C4A66030  18.517  11.242   7.305
 5242POPC   C1B66031  18.335  11.708   6.236
 5242POPC   C2B66032  18.244  11.674   6.695
 5242POPC   C3B66033  18.131  11.578   7.141
 5242POPC   C4B66034  18.019  11.277   7.457
 5243POPC   NC366035  41.174   5.863   5.022
 5243POPC   PO466036  41.828   5.819   5.276
 5243POPC   GL166037  41.698   5.732   5.737
 5243POPC   GL266038  41.799   6.023   5.919
 5243POPC   C1A66039  41.541   5.532   6.154
 5243POPC   D2A66040  41.421   5.435   6.621
 5243POPC   C3A66041  41.603   5.672   7.002
 5243POPC   C4A66042  41.639   5.588   7.482
 5243POPC   C1B66043  41.708   5.989   6.381
 5243POPC   C2B66044  41.589   6.240   6.764
 5243POPC   C3B66045  41.229   6.223   7.055
 5243POPC   C4B66046  41.258   5.892   7.353
 5244POPC   NC366047  36.250  21.329   5.272
 5244POPC   PO466048  35.630  21.523   5.314
 5244POPC   GL166049  35.924  21.333   5.676
 5244POPC   GL266050  36.309  21.261   5.779
 5244POPC   C1A66051  35.975  21.445   6.100
 5244POPC   D2A66052  36.240  21.323   6.412
 5244POPC   C3A66053  35.920  21.320   6.692
 5244POPC   C4A66054  35.905  21.432   7.084
 5244POPC   C1B66055  36.435  21.665   6.055
 5244POPC   C2B66056  36.493  21.770   6.523
 5244POPC   C3B66057  36.331  21.814   6.957
 5244POPC   C4B66058  36.303  21.629   7.377
 5245POPC   NC366059  12.584  15.127   5.451
 5245POPC   PO466060  13.200  15.369   5.294
 5245POPC   GL166061  12.987  15.286   5.734
 5245POPC   GL266062  13.020  14.917   5.800
 5245POPC   C1A66063  12.666  15.172   6.099
 5245POPC   D2A66064  12.725  14.846   6.440
 5245POPC   C3A66065  12.645  14.981   6.873
 5245POPC   C4A66066  12.636  15.296   7.202
 5245POPC   C1B66067  13.143  15.111   6.211
 5245POPC   C2B66068  12.948  15.296   6.574
 5245POPC   C3B66069  13.114  15.183   6.954
 5245POPC   C4B66070  12.995  14.928   7.295
 5246POPC   NC366071   5.629  36.468   5.447
 5246POPC   PO466072   5.965  35.954   5.491
 5246POPC   GL166073   5.814  36.067   5.874
 5246POPC   GL266074   5.786  36.400   6.042
 5246POPC   C1A66075   5.624  35.956   6.252
 5246POPC   D2A66076   5.806  36.218   6.545
 5246POPC   C3A66077   6.124  36.105   6.815
 5246POPC   C4A66078   6.009  36.170   7.226
 5246POPC   C1B66079   6.187  36.481   6.277
 5246POPC   C2B66080   6.350  36.580   6.694
 5246POPC   C3B66081   6.050  36.643   7.042
 5246POPC   C4B66082   5.609  36.544   7.164
 5247POPC   NC366083  32.482  22.813   5.422
 5247POPC   PO466084  31.833  22.816   5.333
 5247POPC   GL166085  32.063  22.782   5.723
 5247POPC   GL266086  32.259  23.067   5.810
 5247POPC   C1A66087  32.117  22.583   6.131
 5247POPC   D2A66088  31.941  22.709   6.526
 5247POPC   C3A66089  32.136  22.830   6.881
 5247POPC   C4A66090  32.152  23.130   7.191
 5247POPC   C1B66091  32.494  22.912   6.186
 5247POPC   C2B66092  32.581  22.739   6.606
 5247POPC   C3B66093  32.624  22.983   6.996
 5247POPC   C4B66094  32.541  22.841   7.418
 5248POPC   NC366095  34.202   8.810   5.524
 5248POPC   PO466096  33.537   8.976   5.405
 5248POPC   GL166097  33.752   8.960   5.788
 5248POPC   GL266098  33.831   8.634   5.795
 5248POPC   C1A66099  34.007   9.010   6.170
 5248POPC   D2A66100  34.214   8.865   6.551
 5248POPC   C3A66101  34.026   9.013   6.914
 5248POPC   C4A66102  34.188   9.064   7.309
 5248POPC   C1B66103  33.644   8.601   6.179
 5248POPC   C2B66104  33.723   8.754   6.549
 5248POPC   C3B66105  33.724   8.596   6.918
 5248POPC   C4B66106  33.614   8.614   7.300
 5249POPC   NC366107  13.901  10.075   5.418
 5249POPC   PO466108  13.849  10.688   5.404
 5249POPC   GL166109  13.861  10.462   5.770
 5249POPC   GL266110  14.096  10.662   5.859
 5249POPC   C1A66111  13.694  10.369   6.185
 5249POPC   D2A66112  13.387  10.428   6.523
 5249POPC   C3A66113  13.504  10.401   6.958
 5249POPC   C4A66114  13.257  10.522   7.308
 5249POPC   C1B66115  14.140  10.607   6.292
 5249POPC   C2B66116  13.967  10.387   6.660
 5249POPC   C3B66117  13.979  10.571   7.070
 5249POPC   C4B66118  13.637  10.847   7.233
 5250POPC   NC366119  21.860   7.961   5.353
 5250POPC   PO466120  21.284   8.207   5.069
 5250POPC   GL166121  21.371   8.146   5.582
 5250POPC   GL266122  21.656   8.178   5.787
 5250POPC   C1A66123  21.270   8.073   6.092
 5250POPC   D2A66124  21.212   8.273   6.538
 5250POPC   C3A66125  21.290   8.111   6.978
 5250POPC   C4A66126  21.443   8.201   7.450
 5250POPC   C1B66127  21.786   8.058   6.172
 5250POPC   C2B66128  21.612   7.956   6.589
 5250POPC   C3B66129  21.787   7.985   6.976
 5250POPC   C4B66130  21.714   7.804   7.330
 5251POPC   NC366131  17.900   5.572   5.221
 5251POPC   PO466132  17.745   6.178   5.373
 5251POPC   GL166133  17.945   5.900   5.708
 5251POPC   GL266134  18.260   6.095   5.851
 5251POPC   C1A66135  18.031   5.739   6.145
 5251POPC   D2A66136  18.127   6.019   6.502
 5251POPC   C3A66137  18.096   5.826   6.908
 5251POPC   C4A66138  18.326   5.494   7.082
 5251POPC   C1B66139  18.541   6.310   6.161
 5251POPC   C2B66140  18.590   6.228   6.604
 5251POPC   C3B66141  18.537   6.081   7.027
 5251POPC   C4B66142  18.591   6.177   7.490
 5252POPC   NC366143   0.798  31.414   5.480
 5252POPC   PO466144   0.269  31.811   5.330
 5252POPC   GL166145   0.322  31.607   5.767
 5252POPC   GL266146   0.434  31.294   5.815
 5252POPC   C1A66147   0.479  31.651   6.234
 5252POPC   D2A66148   0.331  31.783   6.670
 5252POPC   C3A66149   0.597  31.727   7.020
 5252POPC   C4A66150   0.673  31.605   7.469
 5252POPC   C1B66151   0.797  31.252   6.109
 5252POPC   C2B66152   0.954  31.189   6.516
 5252POPC   C3B66153   0.689  31.249   6.832
 5252POPC   C4B66154   0.486  31.248   7.184
 5253POPC   NC366155  27.050   7.009   5.632
 5253POPC   PO466156  26.768   6.489   5.291
 5253POPC   GL166157  26.803   6.553   5.747
 5253POPC   GL266158  26.640   6.845   5.911
 5253POPC   C1A66159  26.701   6.411   6.164
 5253POPC   D2A66160  26.741   6.137   6.484
 5253POPC   C3A66161  26.689   6.306   6.871
 5253POPC   C4A66162  26.761   6.567   7.193
 5253POPC   C1B66163  26.869   6.894   6.270
 5253POPC   C2B66164  26.605   6.741   6.583
 5253POPC   C3B66165  26.479   7.083   6.791
 5253POPC   C4B66166  26.744   7.091   7.146
 5254POPC   NC366167  20.916   8.133   5.323
 5254POPC   PO466168  20.275   8.113   5.267
 5254POPC   GL166169  20.587   8.187   5.715
 5254POPC   GL266170  20.941   8.333   5.797
 5254POPC   C1A66171  20.749   8.088   6.182
 5254POPC   D2A66172  20.877   7.876   6.570
 5254POPC   C3A66173  20.758   8.141   6.894
 5254POPC   C4A66174  20.561   8.073   7.298
 5254POPC   C1B66175  21.000   8.580   6.145
 5254POPC   C2B66176  20.782   8.517   6.523
 5254POPC   C3B66177  20.979   8.644   6.884
 5254POPC   C4B66178  21.001   8.441   7.247
 5255POPC   NC366179  26.214  34.463   5.472
 5255POPC   PO466180  26.573  35.000   5.671
 5255POPC   GL166181  26.322  34.654   5.944
 5255POPC   GL266182  25.943  34.610   5.927
 5255POPC   C1A66183  26.154  34.835   6.329
 5255POPC   D2A66184  25.896  34.879   6.675
 5255POPC   C3A66185  26.199  34.747   6.956
 5255POPC   C4A66186  26.281  34.776   7.357
 5255POPC   C1B66187  25.933  34.371   6.347
 5255POPC   C2B66188  25.946  34.346   6.776
 5255POPC   C3B66189  26.025  34.326   7.213
 5255POPC   C4B66190  25.763  34.383   7.542
 5256POPC   NC366191  14.821  41.661   5.269
 5256POPC   PO466192  15.226  41.152   5.453
 5256POPC   GL166193  15.047  41.474   5.735
 5256POPC   GL266194  15.330  41.674   5.833
 5256POPC   C1A66195  14.988  41.640   6.186
 5256POPC   D2A66196  15.251  41.767   6.569
 5256POPC   C3A66197  15.175  41.603   7.004
 5256POPC   C4A66198  14.791  41.557   7.272
 5256POPC   C1B66199  15.460  42.019   6.151
 5256POPC   C2B66200  15.477  42.222   6.576
 5256POPC   C3B66201  15.363  42.077   7.002
 5256POPC   C4B66202  14.932  42.039   7.172
 5257POPC   NC366203  41.100   9.625   5.322
 5257POPC   PO466204  41.706   9.495   5.230
 5257POPC   GL166205  41.555   9.766   5.627
 5257POPC   GL266206  41.233   9.929   5.719
 5257POPC   C1A66207  41.580   9.835   6.107
 5257POPC   D2A66208  41.542   9.899   6.574
 5257POPC   C3A66209  41.610   9.536   6.881
 5257POPC   C4A66210  41.704   9.529   7.351
 5257POPC   C1B66211  41.050   9.881   6.143
 5257POPC   C2B66212  40.932  10.073   6.499
 5257POPC   C3B66213  41.085   9.871   6.842
 5257POPC   C4B66214  41.262   9.741   7.210
 5258POPC   NC366215   2.931  33.823   5.343
 5258POPC   PO466216   2.272  33.864   5.575
 5258POPC   GL166217   2.606  33.853   5.853
 5258POPC   GL266218   2.971  33.988   5.809
 5258POPC   C1A66219   2.543  33.823   6.294
 5258POPC   D2A66220   2.826  33.708   6.592
 5258POPC   C3A66221   2.737  34.066   6.836
 5258POPC   C4A66222   2.379  34.112   7.106
 5258POPC   C1B66223   3.106  33.935   6.211
 5258POPC   C2B66224   3.228  33.995   6.631
 5258POPC   C3B66225   3.092  33.764   7.033
 5258POPC   C4B66226   2.758  33.861   7.325
 5259POPC   NC366227  41.276  35.033   5.420
 5259POPC   PO466228  41.616  35.627   5.495
 5259POPC   GL166229  41.597  35.285   5.769
 5259POPC   GL266230  41.449  35.511   5.988
 5259POPC   C1A66231  41.680  35.137   6.205
 5259POPC   D2A66232  41.440  35.338   6.520
 5259POPC   C3A66233  41.508  35.173   6.923
 5259POPC   C4A66234  41.635  35.299   7.312
 5259POPC   C1B66235  41.884  35.599   6.084
 5259POPC   C2B66236  41.910  35.547   6.484
 5259POPC   C3B66237  41.945  35.522   6.910
 5259POPC   C4B66238  41.808  35.791   7.228
 5260POPC   NC366239  16.293  19.240   5.520
 5260POPC   PO466240  15.688  19.149   5.225
 5260POPC   GL166241  15.823  18.959   5.697
 5260POPC   GL266242  16.160  18.977   5.918
 5260POPC   C1A66243  15.708  19.055   6.167
 5260POPC   D2A66244  15.619  18.983   6.614
 5260POPC   C3A66245  15.896  19.223   6.864
 5260POPC   C4A66246  16.002  19.048   7.235
 5260POPC   C1B66247  16.331  19.319   6.218
 5260POPC   C2B66248  16.362  19.435   6.661
 5260POPC   C3B66249  16.490  19.233   7.050
 5260POPC   C4B66250  16.359  19.303   7.463
 5261POPC   NC366251  23.104  40.192   5.480
 5261POPC   PO466252  22.545  39.815   5.343
 5261POPC   GL166253  22.661  40.048   5.756
 5261POPC   GL266254  22.596  40.365   5.699
 5261POPC   C1A66255  22.839  39.916   6.222
 5261POPC   D2A66256  23.010  39.807   6.606
 5261POPC   C3A66257  23.303  40.172   6.729
 5261POPC   C4A66258  23.513  40.349   7.099
 5261POPC   C1B66259  22.876  40.390   6.067
 5261POPC   C2B66260  22.841  40.357   6.504
 5261POPC   C3B66261  22.804  40.156   6.880
 5261POPC   C4B66262  22.973  40.333   7.200
 5262POPC   NC366263  20.410  27.944   5.447
 5262POPC   PO466264  20.641  27.247   5.418
 5262POPC   GL166265  20.789  27.403   5.809
 5262POPC   GL266266  20.855  27.736   5.833
 5262POPC   C1A66267  20.581  27.480   6.218
 5262POPC   D2A66268  20.510  27.730   6.603
 5262POPC   C3A66269  20.543  27.475   6.958
 5262POPC   C4A66270  20.814  27.573   7.288
 5262POPC   C1B66271  20.715  27.996   6.188
 5262POPC   C2B66272  20.857  28.122   6.601
 5262POPC   C3B66273  20.879  28.015   7.041
 5262POPC   C4B66274  20.791  28.033   7.516
 5263POPC   NC366275   4.911   1.736   5.046
 5263POPC   PO466276   5.179   1.711   5.674
 5263POPC   GL166277   5.209   2.003   6.012
 5263POPC   GL266278   4.884   2.226   5.910
 5263POPC   C1A66279   5.226   1.926   6.440
 5263POPC   D2A66280   5.086   1.654   6.775
 5263POPC   C3A66281   5.330   1.777   7.154
 5263POPC   C4A66282   5.553   1.821   7.570
 5263POPC   C1B66283   4.765   1.940   6.249
 5263POPC   C2B66284   4.826   2.115   6.688
 5263POPC   C3B66285   4.845   2.002   7.139
 5263POPC   C4B66286   4.646   2.224   7.470
 5264POPC   NC366287  40.271  12.718   5.443
 5264POPC   PO466288  39.752  12.404   5.419
 5264POPC   GL166289  39.931  12.617   5.836
 5264POPC   GL266290  40.274  12.658   5.968
 5264POPC   C1A66291  39.808  12.933   6.188
 5264POPC   D2A66292  39.589  12.978   6.612
 5264POPC   C3A66293  39.727  12.768   6.993
 5264POPC   C4A66294  39.905  12.423   7.237
 5264POPC   C1B66295  40.201  12.719   6.428
 5264POPC   C2B66296  40.151  13.012   6.787
 5264POPC   C3B66297  40.107  12.993   7.238
 5264POPC   C4B66298  40.215  13.149   7.641
 5265POPC   NC366299  44.483  19.757   5.392
 5265POPC   PO466300   0.113  19.939   5.579
 5265POPC   GL166301  44.741  19.788   5.828
 5265POPC   GL266302  44.497  20.084   5.785
 5265POPC   C1A66303  44.691  19.660   6.280
 5265POPC   D2A66304  44.888  19.460   6.647
 5265POPC   C3A66305  44.799  19.719   6.976
 5265POPC   C4A66306  44.367  19.872   6.994
 5265POPC   C1B66307  44.754  20.162   6.159
 5265POPC   C2B66308  44.712  20.094   6.595
 5265POPC   C3B66309  44.822  20.244   6.980
 5265POPC   C4B66310  44.678  20.079   7.315
 5266POPC   NC366311  30.183  34.760   5.423
 5266POPC   PO466312  29.789  34.198   5.394
 5266POPC   GL166313  29.854  34.477   5.755
 5266POPC   GL266314  29.751  34.866   5.723
 5266POPC   C1A66315  30.004  34.306   6.175
 5266POPC   D2A66316  30.226  34.167   6.571
 5266POPC   C3A66317  30.011  34.287   6.964
 5266POPC   C4A66318  29.890  34.513   7.364
 5266POPC   C1B66319  30.044  34.821   6.096
 5266POPC   C2B66320  30.113  34.670   6.531
 5266POPC   C3B66321  30.008  34.788   6.932
 5266POPC   C4B66322  30.226  34.879   7.292
 5267POPC   NC366323   3.967  24.253   5.445
 5267POPC   PO466324   4.421  24.760   5.331
 5267POPC   GL166325   4.438  24.655   5.780
 5267POPC   GL266326   4.366  24.299   5.808
 5267POPC   C1A66327   4.334  24.578   6.230
 5267POPC   D2A66328   4.263  24.295   6.579
 5267POPC   C3A66329   4.298  24.503   6.984
 5267POPC   C4A66330   4.151  24.794   7.339
 5267POPC   C1B66331   4.067  24.051   6.100
 5267POPC   C2B66332   3.867  23.947   6.523
 5267POPC   C3B66333   4.011  24.025   6.942
 5267POPC   C4B66334   4.271  24.135   7.321
 5268POPC   NC366335  29.432  16.965   5.540
 5268POPC   PO466336  29.869  16.642   5.070
 5268POPC   GL166337  29.974  16.628   5.555
 5268POPC   GL266338  30.052  16.964   5.649
 5268POPC   C1A66339  29.967  16.532   6.042
 5268POPC   D2A66340  30.132  16.560   6.504
 5268POPC   C3A66341  29.949  16.512   6.955
 5268POPC   C4A66342  30.107  16.435   7.405
 5268POPC   C1B66343  30.006  17.058   6.079
 5268POPC   C2B66344  30.194  17.069   6.475
 5268POPC   C3B66345  30.121  17.146   6.904
 5268POPC   C4B66346  30.019  16.917   7.255
 5269POPC   NC366347   0.920   2.133   5.370
 5269POPC   PO466348   1.311   1.655   5.474
 5269POPC   GL166349   1.096   1.831   5.769
 5269POPC   GL266350   1.187   2.171   5.788
 5269POPC   C1A66351   1.343   1.830   6.154
 5269POPC   D2A66352   1.467   2.044   6.496
 5269POPC   C3A66353   1.569   1.836   6.853
 5269POPC   C4A66354   1.363   1.739   7.223
 5269POPC   C1B66355   1.293   2.376   6.136
 5269POPC   C2B66356   1.123   2.397   6.559
 5269POPC   C3B66357   1.180   2.226   6.966
 5269POPC   C4B66358   1.315   2.542   7.250
 5270POPC   NC366359  33.096  12.604   5.339
 5270POPC   PO466360  32.630  12.970   5.584
 5270POPC   GL166361  32.910  13.065   5.902
 5270POPC   GL266362  33.096  12.794   5.810
 5270POPC   C1A66363  32.894  12.920   6.343
 5270POPC   D2A66364  32.539  12.760   6.604
 5270POPC   C3A66365  32.588  12.998   6.993
 5270POPC   C4A66366  32.851  13.005   7.355
 5270POPC   C1B66367  33.354  12.896   6.116
 5270POPC   C2B66368  33.386  12.755   6.520
 5270POPC   C3B66369  33.165  12.842   6.871
 5270POPC   C4B66370  33.355  12.888   7.251
 5271POPC   NC366371   7.741  25.905   5.438
 5271POPC   PO466372   7.325  26.455   5.345
 5271POPC   GL166373   7.278  26.212   5.730
 5271POPC   GL266374   7.278  25.837   5.727
 5271POPC   C1A66375   7.556  26.173   6.081
 5271POPC   D2A66376   7.538  26.080   6.518
 5271POPC   C3A66377   7.183  26.244   6.749
 5271POPC   C4A66378   7.224  26.404   7.148
 5271POPC   C1B66379   7.503  25.646   6.079
 5271POPC   C2B66380   7.748  25.476   6.399
 5271POPC   C3B66381   7.680  25.603   6.799
 5271POPC   C4B66382   7.398  25.875   7.067
 5272POPC   NC366383   9.455  32.719   5.466
 5272POPC   PO466384   8.807  33.081   5.391
 5272POPC   GL166385   9.066  32.931   5.750
 5272POPC   GL266386   9.186  33.245   5.913
 5272POPC   C1A66387   9.040  32.703   6.160
 5272POPC   D2A66388   8.769  32.612   6.552
 5272POPC   C3A66389   8.818  32.572   7.001
 5272POPC   C4A66390   9.107  32.787   7.255
 5272POPC   C1B66391   8.809  33.145   6.158
 5272POPC   C2B66392   8.645  33.124   6.555
 5272POPC   C3B66393   8.805  33.076   6.951
 5272POPC   C4B66394   9.019  33.314   7.246
 5273POPC   NC366395   2.816   6.190   5.444
 5273POPC   PO466396   2.538   5.629   5.232
 5273POPC   GL166397   2.721   5.701   5.651
 5273POPC   GL266398   2.434   5.717   5.840
 5273POPC   C1A66399   2.889   5.762   6.106
 5273POPC   D2A66400   2.961   6.087   6.440
 5273POPC   C3A66401   2.918   5.973   6.883
 5273POPC   C4A66402   3.090   5.774   7.233
 5273POPC   C1B66403   2.424   5.546   6.262
 5273POPC   C2B66404   2.655   5.607   6.606
 5273POPC   C3B66405   2.734   5.476   6.989
 5273POPC   C4B66406   2.582   5.781   7.241
 5274POPC   NC366407  31.709   9.218   5.564
 5274POPC   PO466408  31.345   8.627   5.433
 5274POPC   GL166409  31.518   8.737   5.793
 5274POPC   GL266410  31.318   8.998   5.828
 5274POPC   C1A66411  31.647   8.866   6.204
 5274POPC   D2A66412  31.910   8.734   6.556
 5274POPC   C3A66413  31.694   8.724   6.975
 5274POPC   C4A66414  31.889   8.579   7.337
 5274POPC   C1B66415  31.206   9.173   6.210
 5274POPC   C2B66416  31.055   8.976   6.548
 5274POPC   C3B66417  31.148   9.024   6.949
 5274POPC   C4B66418  31.301   8.892   7.339
 5275POPC   NC366419   9.025  27.156   5.249
 5275POPC   PO466420   9.351  26.666   5.024
 5275POPC   GL166421   9.213  26.752   5.510
 5275POPC   GL266422   8.854  26.675   5.607
 5275POPC   C1A66423   9.206  26.791   6.003
 5275POPC   D2A66424   9.019  26.812   6.446
 5275POPC   C3A66425   9.271  26.955   6.788
 5275POPC   C4A66426   9.327  27.092   7.209
 5275POPC   C1B66427   8.714  26.671   6.038
 5275POPC   C2B66428   8.614  26.469   6.450
 5275POPC   C3B66429   8.771  26.457   6.871
 5275POPC   C4B66430   8.988  26.722   7.147
 5276POPC   NC366431  16.111   3.727   5.441
 5276POPC   PO466432  16.156   3.172   5.046
 5276POPC   GL166433  16.060   3.283   5.629
 5276POPC   GL266434  15.735   3.480   5.744
 5276POPC   C1A66435  16.111   3.546   6.078
 5276POPC   D2A66436  15.829   3.770   6.422
 5276POPC   C3A66437  15.953   3.809   6.890
 5276POPC   C4A66438  16.194   3.845   7.302
 5276POPC   C1B66439  15.724   3.223   6.153
 5276POPC   C2B66440  15.488   3.240   6.535
 5276POPC   C3B66441  15.631   3.230   6.976
 5276POPC   C4B66442  15.930   3.410   7.215
 5277POPC   NC366443  30.018   9.898   5.206
 5277POPC   PO466444  30.295   9.538   5.664
 5277POPC   GL166445  30.127   9.968   5.791
 5277POPC   GL266446  29.751   9.990   5.703
 5277POPC   C1A66447  30.002   9.968   6.258
 5277POPC   D2A66448  29.759   9.657   6.533
 5277POPC   C3A66449  29.941   9.634   6.944
 5277POPC   C4A66450  30.138   9.917   7.257
 5277POPC   C1B66451  29.522   9.921   6.125
 5277POPC   C2B66452  29.593  10.136   6.540
 5277POPC   C3B66453  29.916  10.143   6.854
 5277POPC   C4B66454  29.849  10.351   7.282
 5278POPC   NC366455   8.945   4.403   5.272
 5278POPC   PO466456   9.439   4.152   5.518
 5278POPC   GL166457   9.043   4.224   5.751
 5278POPC   GL266458   8.914   4.586   5.755
 5278POPC   C1A66459   8.995   4.134   6.184
 5278POPC   D2A66460   9.199   4.174   6.580
 5278POPC   C3A66461   9.102   4.443   6.919
 5278POPC   C4A66462   8.950   4.244   7.308
 5278POPC   C1B66463   8.823   4.622   6.215
 5278POPC   C2B66464   8.608   4.578   6.627
 5278POPC   C3B66465   8.611   4.513   7.059
 5278POPC   C4B66466   8.871   4.752   7.307
 5279POPC   NC366467  42.354  36.576   5.502
 5279POPC   PO466468  42.373  37.275   5.564
 5279POPC   GL166469  42.148  36.979   5.790
 5279POPC   GL266470  42.441  36.852   5.933
 5279POPC   C1A66471  42.020  36.993   6.218
 5279POPC   D2A66472  42.292  36.960   6.560
 5279POPC   C3A66473  42.182  37.054   6.970
 5279POPC   C4A66474  41.974  36.732   7.206
 5279POPC   C1B66475  42.295  36.519   6.192
 5279POPC   C2B66476  42.426  36.377   6.591
 5279POPC   C3B66477  42.429  36.607   6.945
 5279POPC   C4B66478  42.546  36.869   7.300
 5280POPC   NC366479  24.525   2.793   5.491
 5280POPC   PO466480  24.194   2.153   5.567
 5280POPC   GL166481  24.339   2.495   5.880
 5280POPC   GL266482  24.334   2.897   5.947
 5280POPC   C1A66483  24.585   2.576   6.254
 5280POPC   D2A66484  24.618   2.542   6.683
 5280POPC   C3A66485  24.281   2.669   6.858
 5280POPC   C4A66486  24.273   2.859   7.225
 5280POPC   C1B66487  24.795   2.999   6.050
 5280POPC   C2B66488  24.862   3.041   6.471
 5280POPC   C3B66489  24.676   3.035   6.869
 5280POPC   C4B66490  24.898   3.006   7.227
 5281POPC   NC366491  25.830   7.385   5.440
 5281POPC   PO466492  25.869   8.035   5.343
 5281POPC   GL166493  26.049   7.779   5.753
 5281POPC   GL266494  26.230   7.418   5.770
 5281POPC   C1A66495  25.955   7.725   6.242
 5281POPC   D2A66496  26.170   7.520   6.626
 5281POPC   C3A66497  26.038   7.570   7.035
 5281POPC   C4A66498  25.855   7.435   7.443
 5281POPC   C1B66499  26.129   7.247   6.196
 5281POPC   C2B66500  25.770   7.194   6.530
 5281POPC   C3B66501  25.830   7.083   6.993
 5281POPC   C4B66502  26.228   7.144   7.218
 5282POPC   NC366503  34.455  20.757   5.355
 5282POPC   PO466504  34.876  20.301   5.572
 5282POPC   GL166505  34.667  20.582   5.848
 5282POPC   GL266506  34.494  20.360   5.982
 5282POPC   C1A66507  34.659  20.696   6.320
 5282POPC   D2A66508  34.806  20.906   6.687
 5282POPC   C3A66509  34.637  20.693   7.017
 5282POPC   C4A66510  34.656  20.600   7.449
 5282POPC   C1B66511  34.793  20.187   6.297
 5282POPC   C2B66512  34.767  20.241   6.763
 5282POPC   C3B66513  34.575  20.205   7.149
 5282POPC   C4B66514  34.407  20.165   7.617
 5283POPC   NC366515  26.609  43.963   5.546
 5283POPC   PO466516  26.884  43.623   5.118
 5283POPC   GL166517  27.002  43.630   5.705
 5283POPC   GL266518  26.922  43.934   5.915
 5283POPC   C1A66519  26.871  43.541   6.202
 5283POPC   D2A66520  26.929  43.858   6.519
 5283POPC   C3A66521  26.624  43.811   6.840
 5283POPC   C4A66522  26.681  43.690   7.245
 5283POPC   C1B66523  26.601  44.101   6.155
 5283POPC   C2B66524  26.531  44.231   6.541
 5283POPC   C3B66525  26.418  44.318   6.941
 5283POPC   C4B66526  26.404  44.141   7.345
 5284POPC   NC366527  41.327  26.867   5.289
 5284POPC   PO466528  41.790  26.490   5.535
 5284POPC   GL166529  41.595  26.778   5.766
 5284POPC   GL266530  41.908  26.983   5.844
 5284POPC   C1A66531  41.373  26.707   6.151
 5284POPC   D2A66532  41.539  26.868   6.528
 5284POPC   C3A66533  41.487  26.684   6.907
 5284POPC   C4A66534  41.634  26.840   7.245
 5284POPC   C1B66535  41.893  26.662   6.181
 5284POPC   C2B66536  41.963  26.551   6.589
 5284POPC   C3B66537  41.955  26.460   7.003
 5284POPC   C4B66538  42.010  26.531   7.387
 5285POPC   NC366539   4.123  19.101   5.374
 5285POPC   PO466540   4.604  18.755   5.605
 5285POPC   GL166541   4.473  19.161   5.757
 5285POPC   GL266542   4.108  19.155   5.875
 5285POPC   C1A66543   4.502  19.235   6.188
 5285POPC   D2A66544   4.519  18.930   6.510
 5285POPC   C3A66545   4.485  19.027   6.939
 5285POPC   C4A66546   4.435  19.283   7.302
 5285POPC   C1B66547   4.092  18.817   6.199
 5285POPC   C2B66548   4.034  18.811   6.651
 5285POPC   C3B66549   4.116  18.665   7.068
 5285POPC   C4B66550   4.115  18.901   7.445
 5286POPC   NC366551   5.541  40.012   5.600
 5286POPC   PO466552   4.970  39.944   5.273
 5286POPC   GL166553   4.999  40.090   5.716
 5286POPC   GL266554   4.822  40.427   5.771
 5286POPC   C1A66555   5.159  39.917   6.125
 5286POPC   D2A66556   4.973  39.639   6.450
 5286POPC   C3A66557   5.030  39.822   6.873
 5286POPC   C4A66558   4.852  39.770   7.263
 5286POPC   C1B66559   5.194  40.442   6.063
 5286POPC   C2B66560   5.415  40.261   6.427
 5286POPC   C3B66561   5.368  40.210   6.884
 5286POPC   C4B66562   5.011  40.280   7.170
 5287POPC   NC366563   5.913  19.421   5.454
 5287POPC   PO466564   5.716  20.016   5.279
 5287POPC   GL166565   5.658  19.919   5.721
 5287POPC   GL266566   6.004  19.830   5.791
 5287POPC   C1A66567   5.770  20.022   6.189
 5287POPC   D2A66568   5.707  19.768   6.566
 5287POPC   C3A66569   5.788  19.877   7.000
 5287POPC   C4A66570   5.818  19.806   7.488
 5287POPC   C1B66571   6.104  19.615   6.211
 5287POPC   C2B66572   6.206  19.741   6.669
 5287POPC   C3B66573   6.199  19.604   7.120
 5287POPC   C4B66574   6.311  19.705   7.563
 5288POPC   NC366575  31.709  41.967   5.090
 5288POPC   PO466576  31.232  42.448   5.210
 5288POPC   GL166577  31.523  42.398   5.632
 5288POPC   GL266578  31.645  42.063   5.786
 5288POPC   C1A66579  31.516  42.510   6.099
 5288POPC   D2A66580  31.386  42.369   6.541
 5288POPC   C3A66581  31.674  42.322   6.941
 5288POPC   C4A66582  31.723  42.152   7.350
 5288POPC   C1B66583  31.344  41.982   6.161
 5288POPC   C2B66584  31.080  41.822   6.531
 5288POPC   C3B66585  31.082  41.922   6.965
 5288POPC   C4B66586  31.231  42.275   7.197
 5289POPC   NC366587   9.559  20.964   5.449
 5289POPC   PO466588   9.806  20.218   5.351
 5289POPC   GL166589   9.823  20.427   5.807
 5289POPC   GL266590   9.789  20.796   5.925
 5289POPC   C1A66591   9.946  20.451   6.277
 5289POPC   D2A66592   9.769  20.353   6.703
 5289POPC   C3A66593   9.972  20.471   7.097
 5289POPC   C4A66594  10.147  20.354   7.495
 5289POPC   C1B66595   9.499  20.733   6.333
 5289POPC   C2B66596   9.334  20.605   6.758
 5289POPC   C3B66597   9.427  20.673   7.209
 5289POPC   C4B66598   9.360  20.561   7.668
 5290POPC   NC366599  24.986  30.466   5.570
 5290POPC   PO466600  25.502  30.172   5.406
 5290POPC   GL166601  25.322  29.966   5.770
 5290POPC   GL266602  25.046  29.684   5.847
 5290POPC   C1A66603  25.452  29.880   6.161
 5290POPC   D2A66604  25.429  30.209   6.466
 5290POPC   C3A66605  25.281  30.023   6.854
 5290POPC   C4A66606  25.367  30.128   7.263
 5290POPC   C1B66607  25.128  29.453   6.173
 5290POPC   C2B66608  25.322  29.522   6.537
 5290POPC   C3B66609  25.168  29.526   6.907
 5290POPC   C4B66610  25.014  29.728   7.283
 5291POPC   NC366611  15.901   9.664   5.429
 5291POPC   PO466612  16.302  10.205   5.644
 5291POPC   GL166613  16.198   9.797   5.858
 5291POPC   GL266614  15.959   9.516   5.894
 5291POPC   C1A66615  16.103   9.686   6.316
 5291POPC   D2A66616  15.941   9.812   6.669
 5291POPC   C3A66617  16.223   9.753   7.016
 5291POPC   C4A66618  16.029   9.980   7.344
 5291POPC   C1B66619  15.627   9.429   6.221
 5291POPC   C2B66620  15.662   9.291   6.658
 5291POPC   C3B66621  15.783   9.499   7.060
 5291POPC   C4B66622  15.815   9.352   7.514
 5292POPC   NC366623   4.196  44.098   5.438
 5292POPC   PO466624   4.320  43.472   5.348
 5292POPC   GL166625   4.396  43.721   5.756
 5292POPC   GL266626   4.625  44.007   5.761
 5292POPC   C1A66627   4.309  44.018   6.165
 5292POPC   D2A66628   4.178  44.131   6.635
 5292POPC   C3A66629   4.105  43.883   7.034
 5292POPC   C4A66630   4.260  43.813   7.461
 5292POPC   C1B66631   4.762  43.765   6.115
 5292POPC   C2B66632   4.576  43.717   6.533
 5292POPC   C3B66633   4.616  43.730   6.987
 5292POPC   C4B66634   4.708  43.602   7.396
 5293POPC   NC366635  24.351  37.203   5.395
 5293POPC   PO466636  24.435  36.540   5.511
 5293POPC   GL166637  24.432  36.616   5.922
 5293POPC   GL266638  24.589  36.939   5.926
 5293POPC   C1A66639  24.250  36.667   6.337
 5293POPC   D2A66640  24.062  36.479   6.712
 5293POPC   C3A66641  24.151  36.657   7.117
 5293POPC   C4A66642  24.549  36.697   7.306
 5293POPC   C1B66643  24.477  37.146   6.333
 5293POPC   C2B66644  24.707  37.298   6.719
 5293POPC   C3B66645  24.872  37.035   7.082
 5293POPC   C4B66646  24.727  37.090   7.571
 5294POPC   NC366647  20.869  31.971   5.525
 5294POPC   PO466648  20.219  31.972   5.721
 5294POPC   GL166649  20.521  32.055   5.967
 5294POPC   GL266650  20.451  32.404   5.964
 5294POPC   C1A66651  20.465  31.989   6.391
 5294POPC   D2A66652  20.694  32.130   6.720
 5294POPC   C3A66653  20.721  32.067   7.134
 5294POPC   C4A66654  20.500  32.258   7.477
 5294POPC   C1B66655  20.724  32.504   6.283
 5294POPC   C2B66656  20.999  32.517   6.632
 5294POPC   C3B66657  20.771  32.556   7.029
 5294POPC   C4B66658  20.779  32.718   7.414
 5295POPC   NC366659  21.502  23.869   5.295
 5295POPC   PO466660  20.947  23.591   5.504
 5295POPC   GL166661  21.344  23.667   5.740
 5295POPC   GL266662  21.485  23.995   5.784
 5295POPC   C1A66663  21.551  23.540   6.111
 5295POPC   D2A66664  21.607  23.650   6.542
 5295POPC   C3A66665  21.299  23.523   6.803
 5295POPC   C4A66666  21.240  23.314   7.184
 5295POPC   C1B66667  21.465  24.051   6.214
 5295POPC   C2B66668  21.716  24.175   6.544
 5295POPC   C3B66669  21.781  23.957   6.928
 5295POPC   C4B66670  21.540  23.733   7.206
 5296POPC   NC366671  39.231  16.089   5.290
 5296POPC   PO466672  39.176  15.585   5.712
 5296POPC   GL166673  39.124  15.920   5.954
 5296POPC   GL266674  39.010  16.214   5.745
 5296POPC   C1A66675  39.324  15.918   6.375
 5296POPC   D2A66676  39.607  15.805   6.696
 5296POPC   C3A66677  39.512  15.975   7.080
 5296POPC   C4A66678  39.172  16.000   7.375
 5296POPC   C1B66679  38.942  16.336   6.160
 5296POPC   C2B66680  38.892  16.129   6.537
 5296POPC   C3B66681  39.000  16.163   6.932
 5296POPC   C4B66682  38.881  16.459   7.229
 5297POPC   NC366683   4.149  17.475   5.435
 5297POPC   PO466684   4.641  17.873   5.522
 5297POPC   GL166685   4.529  17.578   5.797
 5297POPC   GL266686   4.316  17.289   5.861
 5297POPC   C1A66687   4.456  17.694   6.202
 5297POPC   D2A66688   4.419  17.931   6.567
 5297POPC   C3A66689   4.571  17.714   6.897
 5297POPC   C4A66690   4.379  17.761   7.251
 5297POPC   C1B66691   4.351  17.203   6.264
 5297POPC   C2B66692   4.266  17.416   6.616
 5297POPC   C3B66693   4.290  17.255   7.000
 5297POPC   C4B66694   4.521  17.288   7.317
 5298POPC   NC366695   0.710   7.396   5.418
 5298POPC   PO466696   0.076   7.437   5.412
 5298POPC   GL166697   0.332   7.479   5.772
 5298POPC   GL266698   0.479   7.162   5.799
 5298POPC   C1A66699   0.658   7.566   6.077
 5298POPC   D2A66700   0.666   7.707   6.485
 5298POPC   C3A66701   0.776   7.642   6.926
 5298POPC   C4A66702   0.533   7.525   7.283
 5298POPC   C1B66703   0.440   7.121   6.225
 5298POPC   C2B66704   0.400   7.289   6.645
 5298POPC   C3B66705   0.604   7.120   6.987
 5298POPC   C4B66706   0.717   7.054   7.432
 5299POPC   NC366707   2.945   0.444   5.490
 5299POPC   PO466708   2.314   0.287   5.521
 5299POPC   GL166709   2.486   0.519   5.863
 5299POPC   GL266710   2.817   0.465   5.972
 5299POPC   C1A66711   2.446   0.515   6.320
 5299POPC   D2A66712   2.526   0.340   6.724
 5299POPC   C3A66713   2.849   0.518   7.019
 5299POPC   C4A66714   2.830   0.585   7.491
 5299POPC   C1B66715   3.134   0.414   6.266
 5299POPC   C2B66716   3.050   0.220   6.634
 5299POPC   C3B66717   3.273   0.153   7.027
 5299POPC   C4B66718   3.097  44.995   7.404
 5300POPC   NC366719  18.200  13.300   5.486
 5300POPC   PO466720  18.168  14.065   5.374
 5300POPC   GL166721  18.045  13.741   5.758
 5300POPC   GL266722  18.026  13.431   5.960
 5300POPC   C1A66723  17.920  13.874   6.196
 5300POPC   D2A66724  18.026  13.601   6.546
 5300POPC   C3A66725  18.375  13.749   6.803
 5300POPC   C4A66726  18.457  13.779   7.234
 5300POPC   C1B66727  18.340  13.235   6.234
 5300POPC   C2B66728  18.266  13.122   6.669
 5300POPC   C3B66729  18.379  13.299   7.080
 5300POPC   C4B66730  18.634  13.367   7.458
 5301POPC   NC366731  12.255   7.058   5.322
 5301POPC   PO466732  12.234   7.701   5.366
 5301POPC   GL166733  12.093   7.466   5.748
 5301POPC   GL266734  12.027   7.128   5.793
 5301POPC   C1A66735  12.110   7.526   6.214
 5301POPC   D2A66736  12.277   7.692   6.607
 5301POPC   C3A66737  12.153   7.528   6.984
 5301POPC   C4A66738  12.229   7.353   7.370
 5301POPC   C1B66739  11.779   7.138   6.218
 5301POPC   C2B66740  11.749   7.272   6.702
 5301POPC   C3B66741  11.882   7.087   7.116
 5301POPC   C4B66742  11.869   7.082   7.598
 5302POPC   NC366743  18.106  22.499   5.403
 5302POPC   PO466744  18.585  21.973   5.346
 5302POPC   GL166745  18.401  22.148   5.735
 5302POPC   GL266746  18.475  22.519   5.753
 5302POPC   C1A66747  18.386  21.973   6.175
 5302POPC   D2A66748  18.163  21.906   6.589
 5302POPC   C3A66749  18.390  21.895   6.976
 5302POPC   C4A66750  18.304  21.989   7.393
 5302POPC   C1B66751  18.199  22.432   6.120
 5302POPC   C2B66752  17.942  22.363   6.474
 5302POPC   C3B66753  18.130  22.378   6.847
 5302POPC   C4B66754  18.038  22.434   7.229
 5303POPC   NC366755  28.941  32.645   5.408
 5303POPC   PO466756  29.257  33.356   5.486
 5303POPC   GL166757  29.156  33.160   5.832
 5303POPC   GL266758  28.817  33.073   5.767
 5303POPC   C1A66759  29.071  32.830   6.136
 5303POPC   D2A66760  28.986  32.643   6.525
 5303POPC   C3A66761  29.062  32.874   6.880
 5303POPC   C4A66762  29.376  32.866   7.202
 5303POPC   C1B66763  28.811  33.282   6.194
 5303POPC   C2B66764  28.901  33.399   6.627
 5303POPC   C3B66765  28.704  33.249   7.029
 5303POPC   C4B66766  28.896  32.980   7.352
 5304POPC   NC366767  10.321   5.587   5.499
 5304POPC   PO466768  10.393   6.221   5.369
 5304POPC   GL166769  10.520   5.986   5.773
 5304POPC   GL266770  10.173   6.004   5.810
 5304POPC   C1A66771  10.746   5.781   6.176
 5304POPC   D2A66772  10.746   5.475   6.582
 5304POPC   C3A66773  10.727   5.664   7.019
 5304POPC   C4A66774  10.627   6.069   7.270
 5304POPC   C1B66775  10.243   5.949   6.233
 5304POPC   C2B66776  10.376   5.850   6.619
 5304POPC   C3B66777  10.184   6.043   6.969
 5304POPC   C4B66778  10.117   6.147   7.390
 5305POPC   NC366779  28.358   6.051   5.275
 5305POPC   PO466780  28.816   5.443   5.388
 5305POPC   GL166781  28.607   5.614   5.767
 5305POPC   GL266782  28.301   5.794   5.749
 5305POPC   C1A66783  28.600   5.747   6.185
 5305POPC   D2A66784  28.445   5.619   6.561
 5305POPC   C3A66785  28.547   5.889   6.905
 5305POPC   C4A66786  28.573   6.103   7.304
 5305POPC   C1B66787  28.099   5.798   6.173
 5305POPC   C2B66788  28.099   5.999   6.594
 5305POPC   C3B66789  28.065   5.920   7.066
 5305POPC   C4B66790  28.093   5.987   7.523
 5306POPC   NC366791   2.541  18.590   5.411
 5306POPC   PO466792   2.509  17.903   5.281
 5306POPC   GL166793   2.724  18.103   5.656
 5306POPC   GL266794   2.949  18.424   5.673
 5306POPC   C1A66795   2.625  18.234   6.089
 5306POPC   D2A66796   2.790  18.054   6.477
 5306POPC   C3A66797   2.653  18.181   6.876
 5306POPC   C4A66798   2.605  18.483   7.194
 5306POPC   C1B66799   3.102  18.419   6.118
 5306POPC   C2B66800   2.952  18.540   6.547
 5306POPC   C3B66801   3.098  18.476   6.982
 5306POPC   C4B66802   2.976  18.155   7.284
 5307POPC   NC366803  44.077  43.641   5.208
 5307POPC   PO466804  43.829  43.019   5.488
 5307POPC   GL166805  44.027  43.119   5.819
 5307POPC   GL266806  44.158  43.413   5.680
 5307POPC   C1A66807  43.973  42.964   6.274
 5307POPC   D2A66808  43.793  42.785   6.693
 5307POPC   C3A66809  43.870  42.964   7.124
 5307POPC   C4A66810  44.251  42.934   7.356
 5307POPC   C1B66811  43.993  43.489   6.137
 5307POPC   C2B66812  43.761  43.368   6.529
 5307POPC   C3B66813  43.866  43.469   6.960
 5307POPC   C4B66814  43.738  43.420   7.397
 5308POPC   NC366815   4.051   2.176   5.469
 5308POPC   PO466816   4.683   1.956   5.397
 5308POPC   GL166817   4.423   2.031   5.805
 5308POPC   GL266818   4.089   1.826   5.840
 5308POPC   C1A66819   4.431   2.315   6.186
 5308POPC   D2A66820   4.202   2.422   6.578
 5308POPC   C3A66821   4.419   2.327   6.947
 5308POPC   C4A66822   4.095   2.328   7.226
 5308POPC   C1B66823   4.049   1.972   6.273
 5308POPC   C2B66824   4.364   1.947   6.553
 5308POPC   C3B66825   4.479   1.768   6.888
 5308POPC   C4B66826   4.321   1.875   7.227
 5309POPC   NC366827  37.231  37.271   5.461
 5309POPC   PO466828  37.910  37.327   5.405
 5309POPC   GL166829  37.755  37.086   5.810
 5309POPC   GL266830  37.421  37.026   5.845
 5309POPC   C1A66831  37.676  36.826   6.221
 5309POPC   D2A66832  37.432  36.709   6.525
 5309POPC   C3A66833  37.596  36.819   6.892
 5309POPC   C4A66834  37.513  36.696   7.297
 5309POPC   C1B66835  37.504  37.289   6.208
 5309POPC   C2B66836  37.692  37.265   6.611
 5309POPC   C3B66837  37.501  37.323   7.037
 5309POPC   C4B66838  37.587  37.345   7.498
 5310POPC   NC366839  10.892  40.872   5.402
 5310POPC   PO466840  11.199  40.346   5.369
 5310POPC   GL166841  11.416  40.479   5.768
 5310POPC   GL266842  11.254  40.796   5.817
 5310POPC   C1A66843  11.552  40.609   6.202
 5310POPC   D2A66844  11.381  40.802   6.587
 5310POPC   C3A66845  11.521  40.672   7.006
 5310POPC   C4A66846  11.424  40.804   7.432
 5310POPC   C1B66847  11.021  40.540   6.116
 5310POPC   C2B66848  10.896  40.612   6.530
 5310POPC   C3B66849  10.776  40.552   6.946
 5310POPC   C4B66850  11.030  40.542   7.279
 5311POPC   NC366851  43.300  16.360   5.431
 5311POPC   PO466852  43.298  15.727   5.509
 5311POPC   GL166853  43.249  15.972   5.863
 5311POPC   GL266854  42.899  15.910   5.900
 5311POPC   C1A66855  43.183  16.121   6.299
 5311POPC   D2A66856  43.357  15.854   6.645
 5311POPC   C3A66857  43.209  15.916   7.058
 5311POPC   C4A66858  43.024  16.267   7.249
 5311POPC   C1B66859  43.012  15.644   6.270
 5311POPC   C2B66860  42.874  15.735   6.691
 5311POPC   C3B66861  42.697  15.893   7.070
 5311POPC   C4B66862  42.500  16.075   7.459
 5312POPC   NC366863  16.132   8.754   5.547
 5312POPC   PO466864  15.746   9.231   5.515
 5312POPC   GL166865  15.830   9.027   5.894
 5312POPC   GL266866  15.511   8.976   6.025
 5312POPC   C1A66867  16.032   9.136   6.305
 5312POPC   D2A66868  16.168   9.317   6.716
 5312POPC   C3A66869  16.100   9.096   7.105
 5312POPC   C4A66870  16.227   8.674   7.229
 5312POPC   C1B66871  15.771   8.696   6.287
 5312POPC   C2B66872  15.883   8.795   6.717
 5312POPC   C3B66873  15.586   8.945   7.037
 5312POPC   C4B66874  15.379   9.299   7.273
 5313POPC   NC366875  40.251  26.630   5.139
 5313POPC   PO466876  40.878  26.755   5.329
 5313POPC   GL166877  40.584  26.699   5.729
 5313POPC   GL266878  40.415  27.033   5.815
 5313POPC   C1A66879  40.701  26.591   6.194
 5313POPC   D2A66880  41.033  26.640   6.532
 5313POPC   C3A66881  41.013  26.860   6.921
 5313POPC   C4A66882  41.122  26.681   7.295
 5313POPC   C1B66883  40.333  26.941   6.247
 5313POPC   C2B66884  40.359  26.639   6.598
 5313POPC   C3B66885  40.602  26.568   6.974
 5313POPC   C4B66886  40.648  26.881   7.306
 5314POPC   NC366887   8.834  23.569   5.308
 5314POPC   PO466888   9.219  24.076   5.500
 5314POPC   GL166889   8.883  23.883   5.749
 5314POPC   GL266890   9.121  23.907   6.020
 5314POPC   C1A66891   8.703  23.684   6.154
 5314POPC   D2A66892   8.963  23.770   6.555
 5314POPC   C3A66893   8.789  23.886   6.960
 5314POPC   C4A66894   8.563  23.556   7.169
 5314POPC   C1B66895   9.431  23.950   6.343
 5314POPC   C2B66896   9.453  24.027   6.766
 5314POPC   C3B66897   9.231  24.116   7.150
 5314POPC   C4B66898   8.924  24.192   7.491
 5315POPC   NC366899  11.436  22.653   5.422
 5315POPC   PO466900  11.094  23.161   5.489
 5315POPC   GL166901  11.271  22.905   5.826
 5315POPC   GL266902  11.643  22.963   5.783
 5315POPC   C1A66903  11.095  22.802   6.222
 5315POPC   D2A66904  11.188  23.150   6.504
 5315POPC   C3A66905  11.047  23.135   6.904
 5315POPC   C4A66906  11.085  22.966   7.304
 5315POPC   C1B66907  11.597  22.965   6.238
 5315POPC   C2B66908  11.446  22.717   6.579
 5315POPC   C3B66909  11.444  22.764   6.987
 5315POPC   C4B66910  11.806  22.842   7.203
 5316POPC   NC366911  29.219   5.628   5.557
 5316POPC   PO466912  28.697   6.135   5.567
 5316POPC   GL166913  28.973   5.950   5.883
 5316POPC   GL266914  29.311   5.994   5.905
 5316POPC   C1A66915  29.095   5.695   6.232
 5316POPC   D2A66916  28.962   5.631   6.617
 5316POPC   C3A66917  29.048   5.956   6.850
 5316POPC   C4A66918  29.016   5.865   7.253
 5316POPC   C1B66919  29.326   6.201   6.262
 5316POPC   C2B66920  29.326   6.361   6.664
 5316POPC   C3B66921  29.453   6.207   7.035
 5316POPC   C4B66922  29.313   6.216   7.464
 5317POPC   NC366923  23.780   5.285   5.396
 5317POPC   PO466924  23.275   4.794   5.390
 5317POPC   GL166925  23.546   4.980   5.736
 5317POPC   GL266926  23.434   5.331   5.804
 5317POPC   C1A66927  23.907   5.100   6.058
 5317POPC   D2A66928  23.852   5.138   6.540
 5317POPC   C3A66929  23.991   5.266   6.981
 5317POPC   C4A66930  23.819   5.217   7.403
 5317POPC   C1B66931  23.430   5.140   6.202
 5317POPC   C2B66932  23.362   5.274   6.584
 5317POPC   C3B66933  23.493   5.134   6.963
 5317POPC   C4B66934  23.312   5.150   7.335
 5318POPC   NC366935  15.662   6.718   5.720
 5318POPC   PO466936  16.091   6.331   5.376
 5318POPC   GL166937  16.127   6.494   5.790
 5318POPC   GL266938  16.126   6.872   5.858
 5318POPC   C1A66939  16.072   6.467   6.240
 5318POPC   D2A66940  16.287   6.592   6.623
 5318POPC   C3A66941  16.004   6.509   6.957
 5318POPC   C4A66942  15.820   6.600   7.356
 5318POPC   C1B66943  16.156   6.977   6.289
 5318POPC   C2B66944  15.958   7.003   6.688
 5318POPC   C3B66945  16.098   7.020   7.100
 5318POPC   C4B66946  16.042   7.011   7.567
 5319POPC   NC366947  29.547  43.213   5.206
 5319POPC   PO466948  30.244  43.032   5.301
 5319POPC   GL166949  29.991  42.874   5.693
 5319POPC   GL266950  29.709  43.134   5.701
 5319POPC   C1A66951  29.787  42.870   6.120
 5319POPC   D2A66952  29.765  43.125   6.475
 5319POPC   C3A66953  29.883  42.909   6.819
 5319POPC   C4A66954  29.971  43.024   7.207
 5319POPC   C1B66955  29.778  43.449   6.057
 5319POPC   C2B66956  29.754  43.644   6.490
 5319POPC   C3B66957  29.881  43.459   6.898
 5319POPC   C4B66958  29.711  43.482   7.300
 5320POPC   NC366959  39.130  13.002   5.317
 5320POPC   PO466960  38.927  12.488   5.733
 5320POPC   GL166961  39.138  12.834   5.820
 5320POPC   GL266962  39.438  12.679   5.860
 5320POPC   C1A66963  39.248  12.972   6.229
 5320POPC   D2A66964  39.040  12.829   6.590
 5320POPC   C3A66965  39.212  12.892   6.984
 5320POPC   C4A66966  39.071  12.832   7.405
 5320POPC   C1B66967  39.547  12.507   6.274
 5320POPC   C2B66968  39.407  12.478   6.717
 5320POPC   C3B66969  39.365  12.431   7.179
 5320POPC   C4B66970  39.548  12.733   7.492
 5321POPC   NC366971  30.701  10.610   5.370
 5321POPC   PO466972  31.303  10.258   5.360
 5321POPC   GL166973  30.960  10.294   5.692
 5321POPC   GL266974  30.623  10.215   5.764
 5321POPC   C1A66975  30.814  10.567   6.070
 5321POPC   D2A66976  30.894  10.694   6.506
 5321POPC   C3A66977  30.712  10.627   6.941
 5321POPC   C4A66978  30.577  10.940   7.214
 5321POPC   C1B66979  30.443  10.207   6.172
 5321POPC   C2B66980  30.557  10.275   6.602
 5321POPC   C3B66981  30.547  10.143   7.042
 5321POPC   C4B66982  30.645  10.174   7.518
 5322POPC   NC366983  33.290  43.145   5.503
 5322POPC   PO466984  33.959  43.246   5.383
 5322POPC   GL166985  33.783  43.315   5.845
 5322POPC   GL266986  33.434  43.352   5.971
 5322POPC   C1A66987  33.996  43.188   6.257
 5322POPC   D2A66988  34.179  43.011   6.644
 5322POPC   C3A66989  34.011  43.206   7.013
 5322POPC   C4A66990  33.601  43.467   7.106
 5322POPC   C1B66991  33.507  43.009   6.324
 5322POPC   C2B66992  33.541  43.056   6.812
 5322POPC   C3B66993  33.695  42.897   7.249
 5322POPC   C4B66994  33.732  42.831   7.732
 5323POPC   NC366995  44.056  31.666   5.476
 5323POPC   PO466996  43.652  31.159   5.506
 5323POPC   GL166997  43.764  31.429   5.828
 5323POPC   GL266998  43.647  31.786   5.766
 5323POPC   C1A66999  44.024  31.431   6.195
 5323POPC   D2A67000  44.195  31.369   6.614
 5323POPC   C3A67001  43.958  31.208   6.937
 5323POPC   C4A67002  43.995  31.303   7.374
 5323POPC   C1B67003  43.620  31.757   6.204
 5323POPC   C2B67004  43.691  31.582   6.604
 5323POPC   C3B67005  43.918  31.703   6.966
 5323POPC   C4B67006  43.689  31.711   7.320
 5324POPC   NC367007  24.406  14.689   5.273
 5324POPC   PO467008  24.321  13.973   5.398
 5324POPC   GL167009  24.448  14.307   5.638
 5324POPC   GL267010  24.188  14.511   5.722
 5324POPC   C1A67011  24.647  14.317   6.017
 5324POPC   D2A67012  24.514  14.364   6.447
 5324POPC   C3A67013  24.768  14.465   6.773
 5324POPC   C4A67014  24.652  14.516   7.192
 5324POPC   C1B67015  24.152  14.188   6.070
 5324POPC   C2B67016  24.051  14.172   6.526
 5324POPC   C3B67017  24.223  14.389   6.924
 5324POPC   C4B67018  24.185  14.719   7.281
 5325POPC   NC367019  16.259   4.355   5.368
 5325POPC   PO467020  15.685   3.996   5.360
 5325POPC   GL167021  15.800   4.204   5.761
 5325POPC   GL267022  16.075   4.405   5.844
 5325POPC   C1A67023  15.654   4.405   6.164
 5325POPC   D2A67024  15.741   4.529   6.569
 5325POPC   C3A67025  15.620   4.217   6.865
 5325POPC   C4A67026  15.830   4.180   7.258
 5325POPC   C1B67027  16.202   4.370   6.271
 5325POPC   C2B67028  16.350   4.052   6.578
 5325POPC   C3B67029  16.500   4.137   6.991
 5325POPC   C4B67030  16.296   4.384   7.300
 5326POPC   NC367031  14.663   0.401   5.366
 5326POPC   PO467032  14.166   0.737   5.409
 5326POPC   GL167033  14.398   0.608   5.780
 5326POPC   GL267034  14.514   0.244   5.833
 5326POPC   C1A67035  14.380   0.577   6.231
 5326POPC   D2A67036  14.467   0.779   6.620
 5326POPC   C3A67037  14.603   0.541   6.965
 5326POPC   C4A67038  14.319   0.659   7.267
 5326POPC   C1B67039  14.753   0.192   6.226
 5326POPC   C2B67040  14.617   0.099   6.659
 5326POPC   C3B67041  14.806   0.037   7.068
 5326POPC   C4B67042  14.872   0.364   7.382
 5327POPC   NC367043  28.563  44.616   5.385
 5327POPC   PO467044  27.967  44.935   5.390
 5327POPC   GL167045  28.176  44.756   5.764
 5327POPC   GL267046  28.146  44.411   5.944
 5327POPC   C1A67047  28.150  44.837   6.205
 5327POPC   D2A67048  28.321  44.622   6.535
 5327POPC   C3A67049  28.186  44.673   6.921
 5327POPC   C4A67050  28.453  44.982   7.096
 5327POPC   C1B67051  28.581  44.536   6.103
 5327POPC   C2B67052  28.782  44.391   6.509
 5327POPC   C3B67053  28.555  44.318   6.888
 5327POPC   C4B67054  28.321  44.331   7.285
 5328POPC   NC367055  23.450   7.023   5.406
 5328POPC   PO467056  23.686   7.678   5.287
 5328POPC   GL167057  23.608   7.482   5.691
 5328POPC   GL267058  23.797   7.196   5.768
 5328POPC   C1A67059  23.720   7.542   6.139
 5328POPC   D2A67060  23.830   7.654   6.556
 5328POPC   C3A67061  23.459   7.583   6.797
 5328POPC   C4A67062  23.406   7.428   7.203
 5328POPC   C1B67063  23.539   7.050   6.096
 5328POPC   C2B67064  23.701   6.979   6.508
 5328POPC   C3B67065  23.724   7.143   6.909
 5328POPC   C4B67066  23.752   7.071   7.344
 5329POPC   NC367067  12.429  22.539   5.458
 5329POPC   PO467068  13.058  22.355   5.566
 5329POPC   GL167069  12.920  22.279   5.927
 5329POPC   GL267070  12.596  22.425   5.921
 5329POPC   C1A67071  12.887  22.493   6.323
 5329POPC   D2A67072  12.762  22.688   6.696
 5329POPC   C3A67073  12.990  22.435   6.982
 5329POPC   C4A67074  13.029  22.066   7.201
 5329POPC   C1B67075  12.542  22.109   6.235
 5329POPC   C2B67076  12.473  21.853   6.602
 5329POPC   C3B67077  12.566  21.877   7.050
 5329POPC   C4B67078  12.603  22.177   7.421
 5330POPC   NC367079  33.893  37.960   5.650
 5330POPC   PO467080  33.978  38.537   5.460
 5330POPC   GL167081  33.654  38.410   5.724
 5330POPC   GL267082  33.928  38.372   5.973
 5330POPC   C1A67083  33.441  38.196   6.076
 5330POPC   D2A67084  33.332  38.294   6.504
 5330POPC   C3A67085  33.672  38.472   6.762
 5330POPC   C4A67086  33.566  38.479   7.196
 5330POPC   C1B67087  34.222  38.180   6.273
 5330POPC   C2B67088  34.242  38.214   6.732
 5330POPC   C3B67089  34.000  38.225   7.098
 5330POPC   C4B67090  34.040  38.576   7.370
 5331POPC   NC367091  11.787  24.001   5.307
 5331POPC   PO467092  12.223  23.557   5.322
 5331POPC   GL167093  12.044  23.681   5.711
 5331POPC   GL267094  12.048  24.051   5.773
 5331POPC   C1A67095  11.906  23.684   6.136
 5331POPC   D2A67096  11.984  23.870   6.536
 5331POPC   C3A67097  11.803  23.698   6.879
 5331POPC   C4A67098  11.750  23.783   7.276
 5331POPC   C1B67099  12.302  24.008   6.168
 5331POPC   C2B67100  12.428  24.101   6.611
 5331POPC   C3B67101  12.184  24.041   7.001
 5331POPC   C4B67102  12.239  23.688   7.276
 5332POPC   NC367103  38.734  31.882   5.385
 5332POPC   PO467104  38.305  31.314   5.219
 5332POPC   GL167105  38.593  31.423   5.610
 5332POPC   GL267106  38.856  31.185   5.720
 5332POPC   C1A67107  38.729  31.533   6.093
 5332POPC   D2A67108  38.827  31.486   6.570
 5332POPC   C3A67109  38.584  31.697   6.942
 5332POPC   C4A67110  38.296  31.604   7.325
 5332POPC   C1B67111  38.463  31.107   5.998
 5332POPC   C2B67112  38.391  31.207   6.449
 5332POPC   C3B67113  38.397  31.205   6.937
 5332POPC   C4B67114  38.258  31.107   7.378
 5333POPC   NC367115  16.041  24.722   5.444
 5333POPC   PO467116  15.939  24.066   5.373
 5333POPC   GL167117  15.814  24.264   5.805
 5333POPC   GL267118  15.775  24.651   5.866
 5333POPC   C1A67119  16.017  24.263   6.245
 5333POPC   D2A67120  16.266  24.173   6.635
 5333POPC   C3A67121  16.084  24.242   7.053
 5333POPC   C4A67122  15.894  24.261   7.514
 5333POPC   C1B67123  15.917  24.768   6.263
 5333POPC   C2B67124  15.868  24.578   6.651
 5333POPC   C3B67125  16.127  24.754   6.924
 5333POPC   C4B67126  16.050  24.912   7.299
 5334POPC   NC367127   1.537   5.234   5.268
 5334POPC   PO467128   2.141   4.904   5.420
 5334POPC   GL167129   2.003   5.189   5.773
 5334POPC   GL267130   1.661   5.228   5.765
 5334POPC   C1A67131   1.892   5.322   6.227
 5334POPC   D2A67132   2.024   5.188   6.648
 5334POPC   C3A67133   1.915   5.273   7.075
 5334POPC   C4A67134   2.015   4.960   7.371
 5334POPC   C1B67135   1.664   4.884   6.085
 5334POPC   C2B67136   1.516   4.949   6.518
 5334POPC   C3B67137   1.668   4.843   6.943
 5334POPC   C4B67138   1.514   5.025   7.350
 5335POPC   NC367139  29.006  13.472   5.418
 5335POPC   PO467140  29.596  13.920   5.341
 5335POPC   GL167141  29.367  13.749   5.712
 5335POPC   GL267142  29.087  13.920   5.899
 5335POPC   C1A67143  29.490  13.798   6.157
 5335POPC   D2A67144  29.718  13.726   6.500
 5335POPC   C3A67145  29.569  13.650   6.902
 5335POPC   C4A67146  29.631  13.653   7.341
 5335POPC   C1B67147  29.056  13.521   6.145
 5335POPC   C2B67148  28.857  13.464   6.558
 5335POPC   C3B67149  28.808  13.581   7.002
 5335POPC   C4B67150  28.746  13.266   7.308
 5336POPC   NC367151   7.330  21.472   5.317
 5336POPC   PO467152   7.775  21.197   5.668
 5336POPC   GL167153   7.526  21.521   5.813
 5336POPC   GL267154   7.224  21.320   5.837
 5336POPC   C1A67155   7.373  21.732   6.190
 5336POPC   D2A67156   7.185  21.587   6.616
 5336POPC   C3A67157   7.408  21.621   7.029
 5336POPC   C4A67158   7.670  21.595   7.442
 5336POPC   C1B67159   7.461  21.228   6.263
 5336POPC   C2B67160   7.517  21.181   6.721
 5336POPC   C3B67161   7.660  21.183   7.144
 5336POPC   C4B67162   7.482  21.078   7.535
 5337POPC   NC367163  15.905  34.775   5.149
 5337POPC   PO467164  16.209  34.279   5.454
 5337POPC   GL167165  16.116  34.619   5.697
 5337POPC   GL267166  15.801  34.549   5.774
 5337POPC   C1A67167  16.153  34.590   6.153
 5337POPC   D2A67168  16.325  34.354   6.498
 5337POPC   C3A67169  16.133  34.499   6.879
 5337POPC   C4A67170  16.243  34.576   7.312
 5337POPC   C1B67171  15.627  34.419   6.162
 5337POPC   C2B67172  15.713  34.565   6.550
 5337POPC   C3B67173  15.660  34.911   6.804
 5337POPC   C4B67174  15.770  34.744   7.194
 5338POPC   NC367175   3.254  39.443   5.447
 5338POPC   PO467176   3.862  39.210   5.236
 5338POPC   GL167177   3.593  39.097   5.619
 5338POPC   GL267178   3.679  39.409   5.764
 5338POPC   C1A67179   3.351  39.161   6.072
 5338POPC   D2A67180   3.310  39.010   6.527
 5338POPC   C3A67181   3.411  39.183   6.938
 5338POPC   C4A67182   3.187  39.106   7.313
 5338POPC   C1B67183   3.851  39.101   6.080
 5338POPC   C2B67184   3.856  39.065   6.540
 5338POPC   C3B67185   3.773  38.809   6.895
 5338POPC   C4B67186   3.692  38.904   7.317
 5339POPC   NC367187  35.575   8.952   5.421
 5339POPC   PO467188  35.186   9.453   5.159
 5339POPC   GL167189  35.167   8.909   5.661
 5339POPC   GL267190  35.130   8.561   5.739
 5339POPC   C1A67191  35.323   9.007   6.129
 5339POPC   D2A67192  35.133   9.253   6.517
 5339POPC   C3A67193  35.085   9.064   6.947
 5339POPC   C4A67194  35.450   9.081   7.240
 5339POPC   C1B67195  35.016   8.623   6.192
 5339POPC   C2B67196  35.061   8.628   6.666
 5339POPC   C3B67197  34.909   8.584   7.098
 5339POPC   C4B67198  35.069   8.815   7.460
 5340POPC   NC367199   0.336  32.240   5.452
 5340POPC   PO467200   0.815  31.833   5.683
 5340POPC   GL167201   0.492  32.056   5.908
 5340POPC   GL267202   0.495  32.385   5.926
 5340POPC   C1A67203   0.210  32.091   6.271
 5340POPC   D2A67204   0.102  32.272   6.687
 5340POPC   C3A67205   0.372  32.211   7.044
 5340POPC   C4A67206   0.262  31.902   7.352
 5340POPC   C1B67207   0.424  32.557   6.336
 5340POPC   C2B67208   0.547  32.648   6.747
 5340POPC   C3B67209   0.670  32.743   7.173
 5340POPC   C4B67210   0.697  32.521   7.569
 5341POPC   NC367211  17.404  34.707   5.467
 5341POPC   PO467212  17.396  34.002   5.439
 5341POPC   GL167213  17.602  34.305   5.753
 5341POPC   GL267214  17.513  34.639   5.950
 5341POPC   C1A67215  17.677  34.228   6.191
 5341POPC   D2A67216  17.449  34.307   6.571
 5341POPC   C3A67217  17.627  34.433   6.982
 5341POPC   C4A67218  17.538  34.253   7.424
 5341POPC   C1B67219  17.740  34.709   6.362
 5341POPC   C2B67220  17.452  34.825   6.658
 5341POPC   C3B67221  17.138  34.737   6.923
 5341POPC   C4B67222  17.345  34.705   7.308
 5342POPC   NC367223  10.326   8.730   5.424
 5342POPC   PO467224  10.614   8.107   5.429
 5342POPC   GL167225  10.647   8.089   5.878
 5342POPC   GL267226  10.946   8.274   5.865
 5342POPC   C1A67227  10.457   8.119   6.315
 5342POPC   D2A67228  10.375   8.435   6.665
 5342POPC   C3A67229  10.122   8.301   7.023
 5342POPC   C4A67230  10.208   8.321   7.471
 5342POPC   C1B67231  10.916   8.331   6.339
 5342POPC   C2B67232  10.789   8.118   6.723
 5342POPC   C3B67233  10.627   8.225   7.117
 5342POPC   C4B67234  10.806   8.394   7.492
 5343POPC   NC367235  29.073  37.259   5.523
 5343POPC   PO467236  29.293  36.648   5.380
 5343POPC   GL167237  29.155  36.766   5.793
 5343POPC   GL267238  29.198  36.407   5.924
 5343POPC   C1A67239  28.984  37.054   6.157
 5343POPC   D2A67240  28.878  37.185   6.582
 5343POPC   C3A67241  28.860  36.940   6.953
 5343POPC   C4A67242  28.946  37.086   7.391
 5343POPC   C1B67243  28.864  36.550   6.154
 5343POPC   C2B67244  28.916  36.610   6.563
 5343POPC   C3B67245  29.098  36.495   6.955
 5343POPC   C4B67246  29.323  36.819   7.171
 5344POPC   NC367247   4.271  39.056   5.410
 5344POPC   PO467248   4.133  39.656   5.736
 5344POPC   GL167249   4.304  39.270   5.884
 5344POPC   GL267250   4.665  39.235   5.952
 5344POPC   C1A67251   4.317  39.059   6.282
 5344POPC   D2A67252   4.375  39.127   6.702
 5344POPC   C3A67253   4.107  39.158   7.025
 5344POPC   C4A67254   4.452  39.054   7.274
 5344POPC   C1B67255   4.483  39.540   6.306
 5344POPC   C2B67256   4.233  39.642   6.701
 5344POPC   C3B67257   4.350  39.590   7.145
 5344POPC   C4B67258   4.537  39.481   7.557
 5345POPC   NC367259   7.442  24.827   5.089
 5345POPC   PO467260   7.487  25.470   5.414
 5345POPC   GL167261   7.485  25.179   5.803
 5345POPC   GL267262   7.134  25.094   5.942
 5345POPC   C1A67263   7.501  25.060   6.258
 5345POPC   D2A67264   7.330  25.254   6.646
 5345POPC   C3A67265   7.403  25.329   7.111
 5345POPC   C4A67266   7.722  25.411   7.438
 5345POPC   C1B67267   7.048  25.426   6.198
 5345POPC   C2B67268   6.819  25.367   6.567
 5345POPC   C3B67269   6.930  25.143   6.936
 5345POPC   C4B67270   6.928  25.348   7.291
 5346POPC   NC367271   6.066  16.539   5.566
 5346POPC   PO467272   5.443  16.785   5.456
 5346POPC   GL167273   5.677  16.779   5.842
 5346POPC   GL267274   5.963  16.998   5.881
 5346POPC   C1A67275   5.719  16.616   6.273
 5346POPC   D2A67276   5.627  16.704   6.710
 5346POPC   C3A67277   5.836  16.552   7.110
 5346POPC   C4A67278   5.828  16.727   7.533
 5346POPC   C1B67279   6.180  16.824   6.277
 5346POPC   C2B67280   6.152  16.782   6.765
 5346POPC   C3B67281   6.232  16.901   7.250
 5346POPC   C4B67282   6.172  17.017   7.753
 5347POPC   NC367283  32.596  27.696   5.457
 5347POPC   PO467284  32.089  27.242   5.480
 5347POPC   GL167285  32.014  27.590   5.820
 5347POPC   GL267286  32.242  27.857   5.783
 5347POPC   C1A67287  32.158  27.742   6.271
 5347POPC   D2A67288  32.338  27.448   6.586
 5347POPC   C3A67289  32.220  27.519   7.013
 5347POPC   C4A67290  32.028  27.380   7.411
 5347POPC   C1B67291  32.570  28.002   6.114
 5347POPC   C2B67292  32.625  27.912   6.581
 5347POPC   C3B67293  32.527  27.946   7.040
 5347POPC   C4B67294  32.526  27.656   7.397
 5348POPC   NC367295   3.929  13.992   5.420
 5348POPC   PO467296   3.400  13.550   5.340
 5348POPC   GL167297   3.515  13.648   5.770
 5348POPC   GL267298   3.403  13.976   5.902
 5348POPC   C1A67299   3.425  13.530   6.214
 5348POPC   D2A67300   3.253  13.848   6.489
 5348POPC   C3A67301   3.440  13.903   6.916
 5348POPC   C4A67302   3.563  13.492   7.075
 5348POPC   C1B67303   3.757  13.903   6.180
 5348POPC   C2B67304   3.796  13.736   6.615
 5348POPC   C3B67305   3.967  13.809   7.065
 5348POPC   C4B67306   3.866  13.960   7.483
 5349POPC   NC367307   6.912  37.555   5.485
 5349POPC   PO467308   7.498  37.805   5.353
 5349POPC   GL167309   7.377  37.582   5.766
 5349POPC   GL267310   7.633  37.383   5.972
 5349POPC   C1A67311   7.134  37.447   6.132
 5349POPC   D2A67312   6.984  37.563   6.574
 5349POPC   C3A67313   7.163  37.470   6.987
 5349POPC   C4A67314   7.256  37.523   7.409
 5349POPC   C1B67315   7.520  37.696   6.316
 5349POPC   C2B67316   7.414  37.825   6.731
 5349POPC   C3B67317   7.638  37.664   7.104
 5349POPC   C4B67318   7.942  37.888   7.304
 5350POPC   NC367319   7.018  23.644   5.374
 5350POPC   PO467320   7.668  23.555   5.273
 5350POPC   GL167321   7.441  23.663   5.713
 5350POPC   GL267322   7.195  23.953   5.751
 5350POPC   C1A67323   7.548  23.832   6.171
 5350POPC   D2A67324   7.678  23.755   6.625
 5350POPC   C3A67325   7.650  24.022   7.022
 5350POPC   C4A67326   7.638  23.878   7.469
 5350POPC   C1B67327   7.062  23.685   6.128
 5350POPC   C2B67328   7.194  23.532   6.561
 5350POPC   C3B67329   7.224  23.710   7.001
 5350POPC   C4B67330   7.007  23.869   7.384
 5351POPC   NC367331  40.823  43.360   5.458
 5351POPC   PO467332  40.485  42.789   5.538
 5351POPC   GL167333  40.863  42.987   5.807
 5351POPC   GL267334  41.158  43.305   5.830
 5351POPC   C1A67335  40.875  43.122   6.222
 5351POPC   D2A67336  40.767  42.930   6.568
 5351POPC   C3A67337  40.923  42.851   6.970
 5351POPC   C4A67338  40.648  43.048   7.245
 5351POPC   C1B67339  41.363  43.257   6.260
 5351POPC   C2B67340  41.159  43.271   6.677
 5351POPC   C3B67341  41.111  43.304   7.127
 5351POPC   C4B67342  41.032  43.187   7.525
 5352POPC   NC367343  42.912  40.866   5.336
 5352POPC   PO467344  43.585  40.668   5.412
 5352POPC   GL167345  43.230  40.869   5.745
 5352POPC   GL267346  42.843  41.061   5.819
 5352POPC   C1A67347  43.208  40.950   6.177
 5352POPC   D2A67348  43.403  40.764   6.545
 5352POPC   C3A67349  43.276  40.812   6.950
 5352POPC   C4A67350  43.410  40.539   7.249
 5352POPC   C1B67351  42.807  40.615   5.960
 5352POPC   C2B67352  43.059  40.463   6.308
 5352POPC   C3B67353  43.120  40.361   6.739
 5352POPC   C4B67354  42.936  40.442   7.127
 5353POPC   NC367355  11.400  21.283   5.392
 5353POPC   PO467356  10.744  21.451   5.355
 5353POPC   GL167357  11.022  21.422   5.733
 5353POPC   GL267358  11.139  21.085   5.833
 5353POPC   C1A67359  11.228  21.495   6.146
 5353POPC   D2A67360  11.332  21.364   6.573
 5353POPC   C3A67361  11.144  21.624   6.868
 5353POPC   C4A67362  11.022  21.803   7.241
 5353POPC   C1B67363  11.453  21.026   6.189
 5353POPC   C2B67364  11.729  21.047   6.581
 5353POPC   C3B67365  11.722  21.238   6.965
 5353POPC   C4B67366  11.355  21.287   7.181
 5354POPC   NC367367  13.188  26.983   5.474
 5354POPC   PO467368  12.518  26.652   5.538
 5354POPC   GL167369  12.780  26.912   5.773
 5354POPC   GL267370  13.019  26.672   5.866
 5354POPC   C1A67371  12.844  27.146   6.158
 5354POPC   D2A67372  12.542  27.031   6.505
 5354POPC   C3A67373  12.675  26.846   6.900
 5354POPC   C4A67374  12.762  26.432   7.059
 5354POPC   C1B67375  13.167  26.754   6.286
 5354POPC   C2B67376  13.122  26.667   6.751
 5354POPC   C3B67377  13.125  26.860   7.180
 5354POPC   C4B67378  13.351  26.826   7.601
 5355POPC   NC367379  25.012   8.817   5.407
 5355POPC   PO467380  25.010   9.534   5.409
 5355POPC   GL167381  24.941   9.208   5.784
 5355POPC   GL267382  25.228   8.949   5.851
 5355POPC   C1A67383  24.871   8.942   6.212
 5355POPC   D2A67384  25.022   8.755   6.632
 5355POPC   C3A67385  25.111   9.057   6.971
 5355POPC   C4A67386  24.986   9.180   7.380
 5355POPC   C1B67387  25.538   9.035   6.196
 5355POPC   C2B67388  25.510   9.102   6.646
 5355POPC   C3B67389  25.631   8.911   7.026
 5355POPC   C4B67390  25.768   8.668   7.367
 5356POPC   NC367391  21.109  24.778   5.155
 5356POPC   PO467392  21.582  24.324   5.259
 5356POPC   GL167393  21.480  24.500   5.683
 5356POPC   GL267394  21.255  24.793   5.689
 5356POPC   C1A67395  21.560  24.576   6.147
 5356POPC   D2A67396  21.676  24.705   6.579
 5356POPC   C3A67397  21.476  24.430   6.918
 5356POPC   C4A67398  21.212  24.036   6.936
 5356POPC   C1B67399  21.088  24.815   6.138
 5356POPC   C2B67400  21.168  24.746   6.607
 5356POPC   C3B67401  21.020  24.615   7.045
 5356POPC   C4B67402  20.944  24.621   7.500
 5357POPC   NC367403  33.311   8.637   5.639
 5357POPC   PO467404  33.036   8.115   5.305
 5357POPC   GL167405  33.063   7.981   5.754
 5357POPC   GL267406  33.149   8.246   5.925
 5357POPC   C1A67407  32.989   7.850   6.211
 5357POPC   D2A67408  33.179   7.825   6.657
 5357POPC   C3A67409  32.988   8.073   7.010
 5357POPC   C4A67410  32.924   7.999   7.466
 5357POPC   C1B67411  33.131   8.533   6.255
 5357POPC   C2B67412  32.985   8.569   6.638
 5357POPC   C3B67413  33.211   8.557   6.987
 5357POPC   C4B67414  33.000   8.532   7.358
 5358POPC   NC367415   8.831  24.362   5.508
 5358POPC   PO467416   9.268  24.874   5.351
 5358POPC   GL167417   9.254  24.613   5.708
 5358POPC   GL267418   8.959  24.817   5.784
 5358POPC   C1A67419   9.159  24.402   6.104
 5358POPC   D2A67420   9.077  24.270   6.517
 5358POPC   C3A67421   9.328  24.527   6.796
 5358POPC   C4A67422   9.257  24.624   7.240
 5358POPC   C1B67423   8.749  24.706   6.150
 5358POPC   C2B67424   8.872  24.721   6.564
 5358POPC   C3B67425   8.859  24.487   6.943
 5358POPC   C4B67426   8.703  24.617   7.286
 5359POPC   NC367427  18.267  34.986   5.477
 5359POPC   PO467428  18.287  35.691   5.529
 5359POPC   GL167429  18.127  35.591   5.908
 5359POPC   GL267430  18.068  35.265   5.862
 5359POPC   C1A67431  18.278  35.602   6.338
 5359POPC   D2A67432  18.338  35.345   6.724
 5359POPC   C3A67433  18.150  35.479   7.105
 5359POPC   C4A67434  18.239  35.480   7.575
 5359POPC   C1B67435  18.023  35.162   6.300
 5359POPC   C2B67436  17.879  35.097   6.741
 5359POPC   C3B67437  18.002  34.843   7.115
 5359POPC   C4B67438  18.193  34.927   7.564
 5360POPC   NC367439  23.309  36.026   5.320
 5360POPC   PO467440  22.628  36.263   5.373
 5360POPC   GL167441  22.817  36.106   5.762
 5360POPC   GL267442  23.141  35.968   5.806
 5360POPC   C1A67443  22.824  36.274   6.180
 5360POPC   D2A67444  23.018  36.406   6.570
 5360POPC   C3A67445  22.821  36.204   6.921
 5360POPC   C4A67446  22.679  36.338   7.316
 5360POPC   C1B67447  23.278  36.017   6.259
 5360POPC   C2B67448  23.281  35.992   6.734
 5360POPC   C3B67449  23.229  35.924   7.178
 5360POPC   C4B67450  23.298  35.728   7.626
 5361POPC   NC367451  14.367   1.185   5.138
 5361POPC   PO467452  14.056   1.498   5.655
 5361POPC   GL167453  14.386   1.248   5.810
 5361POPC   GL267454  14.641   1.446   5.914
 5361POPC   C1A67455  14.359   1.143   6.258
 5361POPC   D2A67456  14.416   1.325   6.671
 5361POPC   C3A67457  14.300   1.138   7.071
 5361POPC   C4A67458  14.447   1.084   7.512
 5361POPC   C1B67459  14.834   1.600   6.252
 5361POPC   C2B67460  14.751   1.689   6.687
 5361POPC   C3B67461  14.671   1.502   7.133
 5361POPC   C4B67462  14.570   1.557   7.618
 5362POPC   NC367463  20.434  29.270   5.388
 5362POPC   PO467464  19.762  29.241   5.336
 5362POPC   GL167465  19.641  29.326   5.793
 5362POPC   GL267466  19.512  29.667   5.904
 5362POPC   C1A67467  19.691  29.029   6.177
 5362POPC   D2A67468  19.883  28.784   6.543
 5362POPC   C3A67469  19.977  28.979   6.959
 5362POPC   C4A67470  20.002  29.294   7.307
 5362POPC   C1B67471  19.753  29.514   6.270
 5362POPC   C2B67472  19.629  29.259   6.667
 5362POPC   C3B67473  19.539  29.174   7.140
 5362POPC   C4B67474  19.511  28.956   7.602
 5363POPC   NC367475  30.199   8.465   5.367
 5363POPC   PO467476  29.758   7.877   5.455
 5363POPC   GL167477  29.877   8.065   5.853
 5363POPC   GL267478  29.968   8.415   5.844
 5363POPC   C1A67479  30.012   8.045   6.290
 5363POPC   D2A67480  30.225   8.297   6.600
 5363POPC   C3A67481  30.260   7.977   6.934
 5363POPC   C4A67482  29.985   7.822   7.230
 5363POPC   C1B67483  29.785   8.493   6.272
 5363POPC   C2B67484  29.710   8.322   6.694
 5363POPC   C3B67485  29.770   8.358   7.161
 5363POPC   C4B67486  29.494   8.589   7.473
 5364POPC   NC367487  23.544  36.771   5.317
 5364POPC   PO467488  23.904  37.325   5.345
 5364POPC   GL167489  23.797  36.986   5.722
 5364POPC   GL267490  24.083  36.997   5.915
 5364POPC   C1A67491  23.738  36.746   6.193
 5364POPC   D2A67492  23.746  36.879   6.692
 5364POPC   C3A67493  23.653  36.710   7.137
 5364POPC   C4A67494  23.878  36.621   7.539
 5364POPC   C1B67495  23.956  37.178   6.325
 5364POPC   C2B67496  24.106  37.238   6.733
 5364POPC   C3B67497  23.949  37.140   7.142
 5364POPC   C4B67498  24.044  37.452   7.505
 5365POPC   NC367499  36.062  17.660   5.383
 5365POPC   PO467500  35.579  17.145   5.411
 5365POPC   GL167501  35.782  17.421   5.776
 5365POPC   GL267502  36.205  17.454   5.839
 5365POPC   C1A67503  35.896  17.531   6.227
 5365POPC   D2A67504  36.218  17.363   6.527
 5365POPC   C3A67505  36.052  17.355   6.916
 5365POPC   C4A67506  35.895  17.593   7.263
 5365POPC   C1B67507  36.319  17.794   6.213
 5365POPC   C2B67508  36.157  17.845   6.674
 5365POPC   C3B67509  36.343  17.763   7.097
 5365POPC   C4B67510  36.278  17.758   7.584
 5366POPC   NC367511  40.664  39.622   5.659
 5366POPC   PO467512  40.635  40.134   5.205
 5366POPC   GL167513  40.667  40.133   5.704
 5366POPC   GL267514  40.996  40.008   5.820
 5366POPC   C1A67515  40.636  40.001   6.194
 5366POPC   D2A67516  40.923  40.156   6.526
 5366POPC   C3A67517  40.858  40.161   6.980
 5366POPC   C4A67518  40.497  40.102   7.254
 5366POPC   C1B67519  41.077  39.726   6.196
 5366POPC   C2B67520  41.048  39.556   6.628
 5366POPC   C3B67521  41.070  39.677   7.077
 5366POPC   C4B67522  41.070  39.614   7.533
 5367POPC   NC367523  25.381  30.581   5.218
 5367POPC   PO467524  24.932  30.973   5.586
 5367POPC   GL167525  25.230  30.837   5.871
 5367POPC   GL267526  25.476  30.564   5.753
 5367POPC   C1A67527  25.147  30.597   6.246
 5367POPC   D2A67528  25.002  30.425   6.649
 5367POPC   C3A67529  25.081  30.639   7.027
 5367POPC   C4A67530  25.121  30.551   7.466
 5367POPC   C1B67531  25.660  30.735   6.146
 5367POPC   C2B67532  25.506  30.766   6.571
 5367POPC   C3B67533  25.531  30.476   6.897
 5367POPC   C4B67534  25.643  30.572   7.291
 5368POPC   NC367535  13.879  36.374   5.375
 5368POPC   PO467536  13.571  35.783   5.385
 5368POPC   GL167537  13.513  36.052   5.755
 5368POPC   GL267538  13.842  36.229   5.865
 5368POPC   C1A67539  13.464  35.992   6.216
 5368POPC   D2A67540  13.609  35.781   6.600
 5368POPC   C3A67541  13.631  36.106   6.918
 5368POPC   C4A67542  13.376  36.410   7.167
 5368POPC   C1B67543  13.802  36.575   6.165
 5368POPC   C2B67544  13.577  36.581   6.547
 5368POPC   C3B67545  13.788  36.587   6.939
 5368POPC   C4B67546  14.083  36.357   7.202
 5369POPC   NC367547  24.500  35.479   5.418
 5369POPC   PO467548  24.892  34.996   5.614
 5369POPC   GL167549  24.763  35.078   5.966
 5369POPC   GL267550  24.448  35.210   5.873
 5369POPC   C1A67551  24.687  35.184   6.369
 5369POPC   D2A67552  24.325  35.344   6.590
 5369POPC   C3A67553  24.441  35.269   7.012
 5369POPC   C4A67554  24.669  35.405   7.394
 5369POPC   C1B67555  24.583  35.600   6.056
 5369POPC   C2B67556  24.682  35.689   6.476
 5369POPC   C3B67557  24.578  35.742   6.911
 5369POPC   C4B67558  24.835  35.893   7.232
 5370POPC   NC367559  10.746  22.002   5.374
 5370POPC   PO467560  11.376  22.202   5.443
 5370POPC   GL167561  11.231  22.348   5.809
 5370POPC   GL267562  11.166  21.972   5.908
 5370POPC   C1A67563  11.333  22.326   6.239
 5370POPC   D2A67564  11.210  21.978   6.494
 5370POPC   C3A67565  11.306  22.099   6.900
 5370POPC   C4A67566  11.139  22.399   7.146
 5370POPC   C1B67567  11.577  21.873   6.161
 5370POPC   C2B67568  11.667  21.759   6.641
 5370POPC   C3B67569  11.636  21.773   7.126
 5370POPC   C4B67570  11.400  22.071   7.432
 5371POPC   NC367571   6.417  11.566   5.479
 5371POPC   PO467572   7.090  11.485   5.686
 5371POPC   GL167573   6.689  11.326   5.868
 5371POPC   GL267574   6.329  11.159   5.789
 5371POPC   C1A67575   6.569  11.517   6.269
 5371POPC   D2A67576   6.609  11.743   6.664
 5371POPC   C3A67577   6.630  11.400   6.948
 5371POPC   C4A67578   6.302  11.373   7.166
 5371POPC   C1B67579   6.457  11.002   6.196
 5371POPC   C2B67580   6.696  11.063   6.558
 5371POPC   C3B67581   6.716  10.886   6.970
 5371POPC   C4B67582   6.541  10.937   7.367
 5372POPC   NC367583  35.912  41.242   5.339
 5372POPC   PO467584  35.285  41.029   5.249
 5372POPC   GL167585  35.466  40.771   5.629
 5372POPC   GL267586  35.630  41.014   5.681
 5372POPC   C1A67587  35.369  40.699   6.119
 5372POPC   D2A67588  35.055  40.578   6.481
 5372POPC   C3A67589  35.070  40.666   6.934
 5372POPC   C4A67590  35.349  40.516   7.224
 5372POPC   C1B67591  35.667  41.125   6.083
 5372POPC   C2B67592  35.457  41.170   6.458
 5372POPC   C3B67593  35.487  41.039   6.885
 5372POPC   C4B67594  35.723  40.909   7.225
 5373POPC   NC367595  15.520  23.871   5.327
 5373POPC   PO467596  14.853  23.597   5.264
 5373POPC   GL167597  15.127  23.698   5.681
 5373POPC   GL267598  15.337  23.983   5.785
 5373POPC   C1A67599  15.104  23.737   6.157
 5373POPC   D2A67600  15.145  23.968   6.556
 5373POPC   C3A67601  15.193  23.697   6.897
 5373POPC   C4A67602  14.979  23.571   7.293
 5373POPC   C1B67603  15.527  24.070   6.193
 5373POPC   C2B67604  15.706  24.076   6.625
 5373POPC   C3B67605  15.583  24.043   7.062
 5373POPC   C4B67606  15.181  24.063   7.253
 5374POPC   NC367607  30.892   7.087   5.338
 5374POPC   PO467608  30.635   7.714   5.440
 5374POPC   GL167609  30.709   7.421   5.736
 5374POPC   GL267610  31.045   7.450   5.685
 5374POPC   C1A67611  30.624   7.527   6.169
 5374POPC   D2A67612  30.643   7.334   6.562
 5374POPC   C3A67613  30.698   7.549   6.937
 5374POPC   C4A67614  30.709   7.249   7.283
 5374POPC   C1B67615  31.149   7.541   6.113
 5374POPC   C2B67616  31.043   7.651   6.532
 5374POPC   C3B67617  31.215   7.573   6.933
 5374POPC   C4B67618  31.031   7.632   7.351
 5375POPC   NC367619  37.030  11.728   5.443
 5375POPC   PO467620  36.581  12.210   5.304
 5375POPC   GL167621  36.723  12.071   5.720
 5375POPC   GL267622  36.592  11.793   5.791
 5375POPC   C1A67623  36.988  11.961   6.137
 5375POPC   D2A67624  37.115  12.147   6.578
 5375POPC   C3A67625  36.975  12.035   7.023
 5375POPC   C4A67626  37.027  12.113   7.505
 5375POPC   C1B67627  36.501  11.861   6.191
 5375POPC   C2B67628  36.615  12.031   6.566
 5375POPC   C3B67629  36.506  11.825   6.942
 5375POPC   C4B67630  36.586  11.933   7.354
 5376POPC   NC367631  26.823  14.370   5.364
 5376POPC   PO467632  27.231  13.875   5.579
 5376POPC   GL167633  27.016  14.229   5.811
 5376POPC   GL267634  26.641  14.250   5.827
 5376POPC   C1A67635  26.911  14.419   6.238
 5376POPC   D2A67636  26.965  14.600   6.670
 5376POPC   C3A67637  26.964  14.398   7.094
 5376POPC   C4A67638  27.079  14.622   7.465
 5376POPC   C1B67639  26.397  14.425   6.126
 5376POPC   C2B67640  26.395  14.595   6.512
 5376POPC   C3B67641  26.514  14.527   6.914
 5376POPC   C4B67642  26.562  14.674   7.317
 5377POPC   NC367643  30.935  27.337   4.969
 5377POPC   PO467644  30.531  27.575   5.404
 5377POPC   GL167645  30.758  27.595   5.786
 5377POPC   GL267646  31.087  27.575   5.689
 5377POPC   C1A67647  30.598  27.430   6.183
 5377POPC   D2A67648  30.397  27.291   6.556
 5377POPC   C3A67649  30.529  27.570   6.871
 5377POPC   C4A67650  30.753  27.570   7.230
 5377POPC   C1B67651  31.079  27.286   6.065
 5377POPC   C2B67652  30.909  27.084   6.419
 5377POPC   C3B67653  30.839  27.147   6.863
 5377POPC   C4B67654  31.024  27.152   7.267
 5378POPC   NC367655  38.769  43.273   5.589
 5378POPC   PO467656  38.245  42.859   5.533
 5378POPC   GL167657  38.362  43.018   5.860
 5378POPC   GL267658  38.631  42.769   5.881
 5378POPC   C1A67659  38.205  43.024   6.290
 5378POPC   D2A67660  38.117  42.789   6.682
 5378POPC   C3A67661  38.371  42.786   7.086
 5378POPC   C4A67662  38.197  42.602   7.528
 5378POPC   C1B67663  38.708  43.037   6.212
 5378POPC   C2B67664  38.667  42.895   6.588
 5378POPC   C3B67665  38.759  43.112   6.910
 5378POPC   C4B67666  38.750  43.038   7.298
 5379POPC   NC367667  11.578  14.276   5.579
 5379POPC   PO467668  11.006  14.417   5.286
 5379POPC   GL167669  11.116  14.423   5.793
 5379POPC   GL267670  11.407  14.627   5.914
 5379POPC   C1A67671  10.996  14.186   6.234
 5379POPC   D2A67672  11.154  13.978   6.659
 5379POPC   C3A67673  11.126  14.135   7.083
 5379POPC   C4A67674  11.017  14.577   7.213
 5379POPC   C1B67675  11.408  14.459   6.351
 5379POPC   C2B67676  11.371  14.492   6.816
 5379POPC   C3B67677  11.544  14.650   7.218
 5379POPC   C4B67678  11.659  14.857   7.625
 5380POPC   NC367679  40.621  38.369   5.562
 5380POPC   PO467680  41.240  38.557   5.436
 5380POPC   GL167681  41.087  38.423   5.827
 5380POPC   GL267682  40.905  38.743   5.803
 5380POPC   C1A67683  40.785  38.436   6.211
 5380POPC   D2A67684  40.591  38.612   6.605
 5380POPC   C3A67685  40.727  38.317   6.911
 5380POPC   C4A67686  41.081  38.295   7.167
 5380POPC   C1B67687  41.168  38.793   6.182
 5380POPC   C2B67688  41.157  38.569   6.584
 5380POPC   C3B67689  40.993  38.759   6.964
 5380POPC   C4B67690  40.600  38.729   7.202
 5381POPC   NC367691  19.656  12.912   5.365
 5381POPC   PO467692  20.210  12.566   5.356
 5381POPC   GL167693  19.925  12.707   5.743
 5381POPC   GL267694  19.587  12.545   5.759
 5381POPC   C1A67695  19.728  12.907   6.143
 5381POPC   D2A67696  19.664  13.121   6.548
 5381POPC   C3A67697  19.792  12.975   6.939
 5381POPC   C4A67698  19.884  13.169   7.333
 5381POPC   C1B67699  19.678  12.408   6.194
 5381POPC   C2B67700  19.501  12.613   6.560
 5381POPC   C3B67701  19.656  12.497   6.951
 5381POPC   C4B67702  19.806  12.613   7.325
 5382POPC   NC367703  15.121   1.836   5.057
 5382POPC   PO467704  14.726   2.167   5.471
 5382POPC   GL167705  14.930   2.156   5.845
 5382POPC   GL267706  15.048   1.826   5.829
 5382POPC   C1A67707  14.836   2.116   6.279
 5382POPC   D2A67708  15.039   2.110   6.669
 5382POPC   C3A67709  14.845   2.031   7.044
 5382POPC   C4A67710  14.884   2.251   7.386
 5382POPC   C1B67711  15.286   1.835   6.199
 5382POPC   C2B67712  15.256   1.648   6.558
 5382POPC   C3B67713  15.320   1.734   6.975
 5382POPC   C4B67714  15.350   2.056   7.225
 5383POPC   NC367715  43.283   5.648   5.127
 5383POPC   PO467716  43.630   6.110   5.442
 5383POPC   GL167717  43.340   5.860   5.698
 5383POPC   GL267718  43.027   5.952   5.597
 5383POPC   C1A67719  43.125   5.684   6.081
 5383POPC   D2A67720  43.250   5.811   6.508
 5383POPC   C3A67721  43.194   5.575   6.903
 5383POPC   C4A67722  43.159   5.810   7.319
 5383POPC   C1B67723  43.006   6.181   6.030
 5383POPC   C2B67724  42.815   6.088   6.439
 5383POPC   C3B67725  42.913   5.996   6.872
 5383POPC   C4B67726  42.768   6.165   7.274
 5384POPC   NC367727  22.109  27.816   5.480
 5384POPC   PO467728  22.498  27.330   5.238
 5384POPC   GL167729  22.482  27.543   5.656
 5384POPC   GL267730  22.314  27.237   5.720
 5384POPC   C1A67731  22.297  27.751   6.097
 5384POPC   D2A67732  22.074  27.615   6.509
 5384POPC   C3A67733  22.279  27.787   6.898
 5384POPC   C4A67734  22.281  28.113   7.226
 5384POPC   C1B67735  22.159  27.262   6.114
 5384POPC   C2B67736  22.256  27.124   6.505
 5384POPC   C3B67737  22.216  27.285   6.891
 5384POPC   C4B67738  22.344  27.459   7.274
 5385POPC   NC367739  28.102  26.861   5.437
 5385POPC   PO467740  27.424  26.893   5.230
 5385POPC   GL167741  27.526  26.950   5.647
 5385POPC   GL267742  27.277  27.144   5.810
 5385POPC   C1A67743  27.611  26.717   6.026
 5385POPC   D2A67744  27.743  26.938   6.375
 5385POPC   C3A67745  27.763  26.907   6.833
 5385POPC   C4A67746  27.810  26.664   7.213
 5385POPC   C1B67747  27.220  27.034   6.228
 5385POPC   C2B67748  27.282  26.827   6.628
 5385POPC   C3B67749  27.269  26.953   7.059
 5385POPC   C4B67750  27.187  26.933   7.518
 5386POPC   NC367751   8.134  36.490   5.345
 5386POPC   PO467752   8.340  35.951   5.215
 5386POPC   GL167753   8.211  36.087   5.661
 5386POPC   GL267754   7.851  36.145   5.620
 5386POPC   C1A67755   8.313  36.066   6.142
 5386POPC   D2A67756   8.088  35.928   6.553
 5386POPC   C3A67757   8.317  35.998   6.952
 5386POPC   C4A67758   8.353  35.812   7.378
 5386POPC   C1B67759   7.835  36.220   6.055
 5386POPC   C2B67760   8.031  36.436   6.405
 5386POPC   C3B67761   7.979  36.365   6.847
 5386POPC   C4B67762   7.925  36.133   7.248
 5387POPC   NC367763  37.547  17.283   5.373
 5387POPC   PO467764  37.957  17.804   5.583
 5387POPC   GL167765  37.926  17.470   5.844
 5387POPC   GL267766  37.588  17.441   5.859
 5387POPC   C1A67767  37.880  17.465   6.296
 5387POPC   D2A67768  37.562  17.498   6.609
 5387POPC   C3A67769  37.729  17.531   7.025
 5387POPC   C4A67770  37.666  17.611   7.453
 5387POPC   C1B67771  37.361  17.144   6.091
 5387POPC   C2B67772  37.337  17.039   6.553
 5387POPC   C3B67773  37.342  17.191   7.006
 5387POPC   C4B67774  37.629  17.096   7.367
 5388POPC   NC367775   9.105  28.169   5.200
 5388POPC   PO467776   8.780  27.549   5.180
 5388POPC   GL167777   8.844  27.473   5.693
 5388POPC   GL267778   8.960  27.155   5.757
 5388POPC   C1A67779   8.737  27.687   6.161
 5388POPC   D2A67780   8.612  27.561   6.636
 5388POPC   C3A67781   8.760  27.746   7.081
 5388POPC   C4A67782   9.109  27.555   7.367
 5388POPC   C1B67783   8.825  27.186   6.154
 5388POPC   C2B67784   9.095  27.415   6.448
 5388POPC   C3B67785   9.088  27.427   6.875
 5388POPC   C4B67786   8.786  27.212   7.180
 5389POPC   NC367787  30.541  19.985   5.670
 5389POPC   PO467788  30.798  19.583   5.228
 5389POPC   GL167789  30.693  19.528   5.752
 5389POPC   GL267790  30.357  19.560   5.896
 5389POPC   C1A67791  30.800  19.782   6.199
 5389POPC   D2A67792  30.644  19.923   6.619
 5389POPC   C3A67793  30.959  20.008   6.927
 5389POPC   C4A67794  31.096  19.643   7.146
 5389POPC   C1B67795  30.281  19.911   6.248
 5389POPC   C2B67796  30.213  20.208   6.608
 5389POPC   C3B67797  30.279  20.025   7.035
 5389POPC   C4B67798  30.291  19.965   7.510
 5390POPC   NC367799  43.076  15.383   5.310
 5390POPC   PO467800  43.155  14.737   5.499
 5390POPC   GL167801  43.290  15.108   5.761
 5390POPC   GL267802  43.058  15.391   5.831
 5390POPC   C1A67803  43.405  15.183   6.216
 5390POPC   D2A67804  43.297  15.045   6.632
 5390POPC   C3A67805  43.184  15.383   6.911
 5390POPC   C4A67806  42.932  15.403   7.266
 5390POPC   C1B67807  42.910  15.073   6.145
 5390POPC   C2B67808  42.781  15.018   6.582
 5390POPC   C3B67809  42.646  15.328   6.862
 5390POPC   C4B67810  42.426  15.504   7.257
 5391POPC   NC367811  25.843   5.686   5.661
 5391POPC   PO467812  26.232   6.214   5.608
 5391POPC   GL167813  26.206   5.904   5.933
 5391POPC   GL267814  26.359   5.575   5.826
 5391POPC   C1A67815  26.043   6.002   6.323
 5391POPC   D2A67816  26.251   6.316   6.560
 5391POPC   C3A67817  26.210   6.120   6.926
 5391POPC   C4A67818  25.994   5.977   7.274
 5391POPC   C1B67819  26.178   5.495   6.244
 5391POPC   C2B67820  25.978   5.539   6.650
 5391POPC   C3B67821  26.193   5.574   7.047
 5391POPC   C4B67822  26.297   5.658   7.509
 5392POPC   NC367823   7.673  29.214   5.356
 5392POPC   PO467824   7.030  28.911   5.183
 5392POPC   GL167825   7.158  28.889   5.674
 5392POPC   GL267826   7.477  29.066   5.807
 5392POPC   C1A67827   7.104  28.966   6.156
 5392POPC   D2A67828   6.991  28.918   6.622
 5392POPC   C3A67829   7.250  29.083   6.980
 5392POPC   C4A67830   7.322  29.158   7.426
 5392POPC   C1B67831   7.568  29.339   6.185
 5392POPC   C2B67832   7.575  29.291   6.642
 5392POPC   C3B67833   7.744  29.197   7.080
 5392POPC   C4B67834   7.764  29.384   7.503
 5393POPC   NC367835  17.394   7.532   5.379
 5393POPC   PO467836  17.940   7.025   5.501
 5393POPC   GL167837  17.635   7.270   5.753
 5393POPC   GL267838  17.640   7.650   5.802
 5393POPC   C1A67839  17.483   7.249   6.150
 5393POPC   D2A67840  17.651   7.249   6.551
 5393POPC   C3A67841  17.417   7.321   6.884
 5393POPC   C4A67842  17.408   7.438   7.299
 5393POPC   C1B67843  17.276   7.707   6.066
 5393POPC   C2B67844  17.264   7.672   6.531
 5393POPC   C3B67845  17.137   7.747   6.999
 5393POPC   C4B67846  17.221   7.885   7.482
 5394POPC   NC367847  29.796   0.852   5.293
 5394POPC   PO467848  29.567   0.243   5.329
 5394POPC   GL167849  29.927   0.393   5.589
 5394POPC   GL267850  29.714   0.582   5.750
 5394POPC   C1A67851  30.106   0.411   6.040
 5394POPC   D2A67852  29.910   0.193   6.403
 5394POPC   C3A67853  29.910   0.317   6.838
 5394POPC   C4A67854  29.650   0.217   7.180
 5394POPC   C1B67855  29.593   0.520   6.166
 5394POPC   C2B67856  29.507   0.572   6.602
 5394POPC   C3B67857  29.563   0.681   7.032
 5394POPC   C4B67858  29.456   0.572   7.491
 5395POPC   NC367859  23.383   9.666   5.499
 5395POPC   PO467860  22.737  10.036   5.426
 5395POPC   GL167861  22.920   9.988   5.841
 5395POPC   GL267862  23.054   9.647   5.892
 5395POPC   C1A67863  23.048   9.964   6.312
 5395POPC   D2A67864  23.100   9.716   6.730
 5395POPC   C3A67865  22.755   9.725   7.049
 5395POPC   C4A67866  22.607   9.613   7.462
 5395POPC   C1B67867  23.327   9.368   6.155
 5395POPC   C2B67868  23.390   9.242   6.603
 5395POPC   C3B67869  23.358   9.357   7.054
 5395POPC   C4B67870  23.360   9.200   7.503
 5396POPC   NC367871  22.354  35.955   5.609
 5396POPC   PO467872  21.906  36.374   5.236
 5396POPC   GL167873  22.000  36.315   5.700
 5396POPC   GL267874  22.172  36.563   5.881
 5396POPC   C1A67875  22.038  36.117   6.155
 5396POPC   D2A67876  21.796  36.130   6.568
 5396POPC   C3A67877  21.873  36.278   6.995
 5396POPC   C4A67878  21.831  35.930   7.285
 5396POPC   C1B67879  22.289  36.546   6.322
 5396POPC   C2B67880  22.350  36.369   6.735
 5396POPC   C3B67881  22.328  36.026   7.048
 5396POPC   C4B67882  22.267  36.097   7.486
 5397POPC   NC367883  33.943  23.085   5.410
 5397POPC   PO467884  33.607  22.447   5.452
 5397POPC   GL167885  33.871  22.677   5.706
 5397POPC   GL267886  33.616  22.927   5.795
 5397POPC   C1A67887  34.043  22.848   6.088
 5397POPC   D2A67888  33.825  22.974   6.456
 5397POPC   C3A67889  33.942  22.909   6.879
 5397POPC   C4A67890  34.006  23.230   7.178
 5397POPC   C1B67891  33.592  22.587   6.122
 5397POPC   C2B67892  33.757  22.463   6.516
 5397POPC   C3B67893  33.574  22.569   6.879
 5397POPC   C4B67894  33.526  22.859   7.171
 5398POPC   NC367895  39.542  37.089   5.592
 5398POPC   PO467896  38.948  36.657   5.599
 5398POPC   GL167897  39.292  36.749   5.894
 5398POPC   GL267898  39.437  36.398   5.842
 5398POPC   C1A67899  39.220  36.924   6.344
 5398POPC   D2A67900  38.953  37.095   6.733
 5398POPC   C3A67901  39.137  37.050   7.132
 5398POPC   C4A67902  39.559  36.935   7.170
 5398POPC   C1B67903  39.152  36.398   6.221
 5398POPC   C2B67904  39.327  36.507   6.621
 5398POPC   C3B67905  39.223  36.558   7.019
 5398POPC   C4B67906  39.453  36.510   7.424
 5399POPC   NC367907  39.521  28.444   5.237
 5399POPC   PO467908  39.070  28.116   5.507
 5399POPC   GL167909  39.078  28.325   5.883
 5399POPC   GL267910  39.281  28.587   5.818
 5399POPC   C1A67911  39.049  28.467   6.316
 5399POPC   D2A67912  39.131  28.198   6.670
 5399POPC   C3A67913  39.229  28.379   7.038
 5399POPC   C4A67914  39.180  28.227   7.427
 5399POPC   C1B67915  39.559  28.646   6.160
 5399POPC   C2B67916  39.492  28.561   6.596
 5399POPC   C3B67917  39.712  28.551   6.978
 5399POPC   C4B67918  39.576  28.519   7.450
 5400POPC   NC367919   4.414   6.252   5.387
 5400POPC   PO467920   4.702   5.702   5.381
 5400POPC   GL167921   4.347   5.735   5.712
 5400POPC   GL267922   4.240   6.090   5.858
 5400POPC   C1A67923   4.172   5.635   6.121
 5400POPC   D2A67924   4.167   5.827   6.536
 5400POPC   C3A67925   4.194   5.611   6.918
 5400POPC   C4A67926   4.235   5.730   7.351
 5400POPC   C1B67927   3.943   6.153   6.217
 5400POPC   C2B67928   3.763   6.264   6.622
 5400POPC   C3B67929   3.946   6.068   6.950
 5400POPC   C4B67930   4.114   6.211   7.288
 5401POPC   NC367931  10.710  30.079   5.502
 5401POPC   PO467932  10.361  29.561   5.487
 5401POPC   GL167933  10.411  29.854   5.848
 5401POPC   GL267934  10.249  30.209   5.739
 5401POPC   C1A67935  10.672  29.756   6.217
 5401POPC   D2A67936  10.905  29.811   6.605
 5401POPC   C3A67937  10.624  29.798   6.930
 5401POPC   C4A67938  10.559  29.572   7.252
 5401POPC   C1B67939  10.466  30.333   6.113
 5401POPC   C2B67940  10.517  30.144   6.512
 5401POPC   C3B67941  10.476  30.277   6.938
 5401POPC   C4B67942  10.906  30.249   7.126
 5402POPC   NC367943   1.622  17.202   5.524
 5402POPC   PO467944   1.958  16.624   5.364
 5402POPC   GL167945   2.050  16.779   5.775
 5402POPC   GL267946   1.716  16.798   5.842
 5402POPC   C1A67947   2.029  16.914   6.223
 5402POPC   D2A67948   1.877  17.054   6.611
 5402POPC   C3A67949   2.095  16.904   6.947
 5402POPC   C4A67950   2.095  16.485   7.129
 5402POPC   C1B67951   1.643  16.545   6.210
 5402POPC   C2B67952   1.503  16.623   6.628
 5402POPC   C3B67953   1.634  16.715   7.057
 5402POPC   C4B67954   1.733  16.531   7.485
 5403POPC   NC367955  23.234  23.733   5.322
 5403POPC   PO467956  22.510  23.518   5.437
 5403POPC   GL167957  22.759  23.753   5.710
 5403POPC   GL267958  22.503  23.952   5.846
 5403POPC   C1A67959  23.045  23.775   6.090
 5403POPC   D2A67960  23.086  23.666   6.533
 5403POPC   C3A67961  23.182  23.897   6.909
 5403POPC   C4A67962  23.228  23.689   7.302
 5403POPC   C1B67963  22.522  23.710   6.231
 5403POPC   C2B67964  22.620  23.800   6.673
 5403POPC   C3B67965  22.720  23.640   7.085
 5403POPC   C4B67966  22.504  23.407   7.416
 5404POPC   NC367967  29.399  34.412   5.269
 5404POPC   PO467968  29.290  35.062   5.332
 5404POPC   GL167969  29.080  34.738   5.617
 5404POPC   GL267970  29.317  34.487   5.764
 5404POPC   C1A67971  28.949  34.686   6.068
 5404POPC   D2A67972  29.168  34.658   6.504
 5404POPC   C3A67973  29.016  34.511   6.901
 5404POPC   C4A67974  28.812  34.666   7.293
 5404POPC   C1B67975  29.545  34.611   6.149
 5404POPC   C2B67976  29.653  34.423   6.550
 5404POPC   C3B67977  29.550  34.566   6.945
 5404POPC   C4B67978  29.375  34.522   7.342
 5405POPC   NC367979  17.962  15.041   5.624
 5405POPC   PO467980  17.401  14.706   5.375
 5405POPC   GL167981  17.437  14.965   5.758
 5405POPC   GL267982  17.315  15.320   5.837
 5405POPC   C1A67983  17.557  14.877   6.193
 5405POPC   D2A67984  17.377  14.894   6.627
 5405POPC   C3A67985  17.692  15.071   6.907
 5405POPC   C4A67986  17.784  15.395   7.220
 5405POPC   C1B67987  17.172  15.331   6.295
 5405POPC   C2B67988  17.297  15.425   6.735
 5405POPC   C3B67989  17.290  15.284   7.179
 5405POPC   C4B67990  17.225  15.537   7.560
 5406POPC   NC367991  15.842  33.272   5.392
 5406POPC   PO467992  16.141  32.782   5.069
 5406POPC   GL167993  16.114  32.917   5.617
 5406POPC   GL267994  16.232  33.220   5.804
 5406POPC   C1A67995  15.854  33.066   6.074
 5406POPC   D2A67996  15.596  32.904   6.446
 5406POPC   C3A67997  15.705  32.966   6.895
 5406POPC   C4A67998  15.890  32.695   7.220
 5406POPC   C1B67999  16.270  33.359   6.243
 5406POPC   C2B68000  16.184  33.418   6.692
 5406POPC   C3B68001  16.225  33.484   7.147
 5406POPC   C4B68002  16.055  33.315   7.525
 5407POPC   NC368003  20.692  23.225   5.303
 5407POPC   PO468004  20.386  23.753   5.131
 5407POPC   GL168005  20.464  23.550   5.663
 5407POPC   GL268006  20.141  23.469   5.872
 5407POPC   C1A68007  20.666  23.494   6.119
 5407POPC   D2A68008  20.892  23.717   6.514
 5407POPC   C3A68009  20.836  23.645   6.983
 5407POPC   C4A68010  20.504  23.735   7.249
 5407POPC   C1B68011  20.227  23.702   6.248
 5407POPC   C2B68012  20.387  23.620   6.687
 5407POPC   C3B68013  20.434  23.301   6.976
 5407POPC   C4B68014  20.356  23.097   7.361
 5408POPC   NC368015  41.537  11.629   5.488
 5408POPC   PO468016  41.955  11.166   5.109
 5408POPC   GL168017  41.541  11.149   5.620
 5408POPC   GL268018  41.691  11.410   5.915
 5408POPC   C1A68019  41.268  11.306   6.091
 5408POPC   D2A68020  41.416  11.260   6.551
 5408POPC   C3A68021  41.319  11.520   6.945
 5408POPC   C4A68022  41.410  11.312   7.347
 5408POPC   C1B68023  41.673  11.683   6.239
 5408POPC   C2B68024  41.826  11.602   6.634
 5408POPC   C3B68025  41.814  11.489   7.035
 5408POPC   C4B68026  41.659  11.742   7.340
 5409POPC   NC368027  30.384  25.426   5.388
 5409POPC   PO468028  29.795  25.102   5.353
 5409POPC   GL168029  29.814  25.137   5.753
 5409POPC   GL268030  30.178  25.039   5.706
 5409POPC   C1A68031  29.697  25.061   6.190
 5409POPC   D2A68032  29.720  25.373   6.541
 5409POPC   C3A68033  29.884  25.234   6.930
 5409POPC   C4A68034  30.049  25.563   7.164
 5409POPC   C1B68035  30.179  25.241   6.096
 5409POPC   C2B68036  30.160  25.042   6.499
 5409POPC   C3B68037  30.466  24.878   6.785
 5409POPC   C4B68038  30.345  25.006   7.185
 5410POPC   NC368039   7.045  28.256   5.577
 5410POPC   PO468040   7.578  28.585   5.241
 5410POPC   GL168041   7.557  28.547   5.717
 5410POPC   GL268042   7.355  28.311   5.958
 5410POPC   C1A68043   7.587  28.697   6.165
 5410POPC   D2A68044   7.498  28.470   6.550
 5410POPC   C3A68045   7.758  28.546   6.898
 5410POPC   C4A68046   7.842  28.284   7.220
 5410POPC   C1B68047   7.021  28.434   6.289
 5410POPC   C2B68048   7.016  28.425   6.745
 5410POPC   C3B68049   7.253  28.591   7.043
 5410POPC   C4B68050   6.987  28.798   7.327
 5411POPC   NC368051  14.852  23.165   5.092
 5411POPC   PO468052  15.259  22.779   5.441
 5411POPC   GL168053  15.293  22.842   5.852
 5411POPC   GL268054  15.204  23.192   5.754
 5411POPC   C1A68055  15.116  22.756   6.284
 5411POPC   D2A68056  15.340  22.831   6.680
 5411POPC   C3A68057  15.172  22.695   7.053
 5411POPC   C4A68058  14.729  22.692   7.137
 5411POPC   C1B68059  15.263  23.233   6.191
 5411POPC   C2B68060  15.079  23.313   6.576
 5411POPC   C3B68061  15.120  23.189   7.002
 5411POPC   C4B68062  15.332  23.048   7.389
 5412POPC   NC368063  33.149  44.132   5.576
 5412POPC   PO468064  32.889  43.468   5.512
 5412POPC   GL168065  32.996  43.705   5.821
 5412POPC   GL268066  32.765  43.977   5.876
 5412POPC   C1A68067  33.090  43.763   6.225
 5412POPC   D2A68068  33.198  43.996   6.581
 5412POPC   C3A68069  33.177  43.697   6.911
 5412POPC   C4A68070  32.980  43.616   7.299
 5412POPC   C1B68071  32.889  44.237   6.218
 5412POPC   C2B68072  32.703  44.178   6.619
 5412POPC   C3B68073  32.902  44.111   6.999
 5412POPC   C4B68074  32.782  44.123   7.407
 5413POPC   NC368075  36.591  24.480   5.462
 5413POPC   PO468076  36.030  24.758   5.461
 5413POPC   GL168077  36.132  24.506   5.816
 5413POPC   GL268078  36.377  24.714   5.898
 5413POPC   C1A68079  36.219  24.494   6.326
 5413POPC   D2A68080  36.238  24.689   6.776
 5413POPC   C3A68081  36.075  24.431   7.097
 5413POPC   C4A68082  36.417  24.149   7.217
 5413POPC   C1B68083  35.943  24.864   6.128
 5413POPC   C2B68084  35.777  24.781   6.570
 5413POPC   C3B68085  35.750  24.927   7.035
 5413POPC   C4B68086  35.803  24.704   7.466
 5414POPC   NC368087  43.287  21.583   5.257
 5414POPC   PO468088  43.848  21.187   5.210
 5414POPC   GL168089  43.568  21.364   5.666
 5414POPC   GL268090  43.182  21.509   5.742
 5414POPC   C1A68091  43.351  21.230   6.122
 5414POPC   D2A68092  43.038  21.251   6.482
 5414POPC   C3A68093  43.242  21.402   6.841
 5414POPC   C4A68094  43.094  21.347   7.247
 5414POPC   C1B68095  42.921  21.627   6.112
 5414POPC   C2B68096  42.960  21.753   6.555
 5414POPC   C3B68097  42.875  21.731   6.966
 5414POPC   C4B68098  42.907  21.827   7.396
 5415POPC   NC368099  27.761  44.526   5.453
 5415POPC   PO468100  27.235  44.930   5.235
 5415POPC   GL168101  27.329  44.780   5.698
 5415POPC   GL268102  27.666  44.808   5.846
 5415POPC   C1A68103  27.274  44.826   6.182
 5415POPC   D2A68104  27.398  44.683   6.612
 5415POPC   C3A68105  27.503  44.918   7.014
 5415POPC   C4A68106  27.626  44.823   7.449
 5415POPC   C1B68107  27.710  44.550   6.190
 5415POPC   C2B68108  27.859  44.413   6.559
 5415POPC   C3B68109  27.719  44.447   6.940
 5415POPC   C4B68110  27.815  44.370   7.308
 5416POPC   NC368111  34.574   0.151   5.481
 5416POPC   PO468112  34.363   0.814   5.307
 5416POPC   GL168113  34.561   0.731   5.702
 5416POPC   GL268114  34.317   0.472   5.811
 5416POPC   C1A68115  34.611   0.735   6.175
 5416POPC   D2A68116  34.351   0.638   6.553
 5416POPC   C3A68117  34.516   0.592   6.991
 5416POPC   C4A68118  34.539   0.767   7.424
 5416POPC   C1B68119  34.474   0.210   6.164
 5416POPC   C2B68120  34.627   0.162   6.598
 5416POPC   C3B68121  34.570   0.077   7.037
 5416POPC   C4B68122  34.738   0.298   7.378
 5417POPC   NC368123   0.811   8.030   5.212
 5417POPC   PO468124   0.137   7.971   5.279
 5417POPC   GL168125   0.366   7.996   5.705
 5417POPC   GL268126   0.676   7.879   5.682
 5417POPC   C1A68127   0.397   8.021   6.165
 5417POPC   D2A68128   0.479   8.152   6.626
 5417POPC   C3A68129   0.267   7.908   6.973
 5417POPC   C4A68130  44.964   8.008   7.315
 5417POPC   C1B68131   0.892   8.076   6.040
 5417POPC   C2B68132   0.952   8.382   6.368
 5417POPC   C3B68133   0.895   8.397   6.793
 5417POPC   C4B68134   0.683   8.161   7.126
 5418POPC   NC368135  34.889  10.543   5.440
 5418POPC   PO468136  35.555  10.534   5.451
 5418POPC   GL168137  35.341  10.457   5.850
 5418POPC   GL268138  35.057  10.229   5.803
 5418POPC   C1A68139  35.309  10.621   6.295
 5418POPC   D2A68140  35.558  10.739   6.669
 5418POPC   C3A68141  35.437  10.921   7.085
 5418POPC   C4A68142  35.345  10.669   7.489
 5418POPC   C1B68143  35.010  10.202   6.244
 5418POPC   C2B68144  35.150  10.300   6.672
 5418POPC   C3B68145  35.081  10.416   7.122
 5418POPC   C4B68146  35.102  10.088   7.441
 5419POPC   NC368147  13.540  23.858   5.434
 5419POPC   PO468148  13.474  23.257   5.460
 5419POPC   GL168149  13.683  23.517   5.803
 5419POPC   GL268150  13.888  23.858   5.816
 5419POPC   C1A68151  13.754  23.594   6.235
 5419POPC   D2A68152  14.019  23.561   6.576
 5419POPC   C3A68153  13.768  23.609   6.954
 5419POPC   C4A68154  13.458  23.539   7.276
 5419POPC   C1B68155  13.668  24.097   6.174
 5419POPC   C2B68156  13.662  23.974   6.615
 5419POPC   C3B68157  13.784  24.123   7.050
 5419POPC   C4B68158  13.870  23.845   7.407
 5420POPC   NC368159  42.141  17.655   5.590
 5420POPC   PO468160  42.450  17.121   5.405
 5420POPC   GL168161  42.486  17.366   5.826
 5420POPC   GL268162  42.203  17.300   5.969
 5420POPC   C1A68163  42.407  17.764   6.160
 5420POPC   D2A68164  42.296  17.902   6.601
 5420POPC   C3A68165  42.559  17.682   6.941
 5420POPC   C4A68166  42.665  17.645   7.376
 5420POPC   C1B68167  42.373  17.332   6.403
 5420POPC   C2B68168  42.145  17.445   6.781
 5420POPC   C3B68169  42.122  17.246   7.180
 5420POPC   C4B68170  41.864  17.004   7.452
 5421POPC   NC368171  31.014  11.354   5.195
 5421POPC   PO468172  30.394  10.998   5.332
 5421POPC   GL168173  30.567  11.147   5.743
 5421POPC   GL268174  30.811  11.439   5.683
 5421POPC   C1A68175  30.609  11.042   6.197
 5421POPC   D2A68176  30.435  10.905   6.604
 5421POPC   C3A68177  30.364  11.249   6.883
 5421POPC   C4A68178  30.677  11.464   7.123
 5421POPC   C1B68179  30.880  11.507   6.135
 5421POPC   C2B68180  30.734  11.409   6.557
 5421POPC   C3B68181  30.894  11.097   6.830
 5421POPC   C4B68182  31.050  11.103   7.233
 5422POPC   NC368183  34.427  29.246   5.440
 5422POPC   PO468184  34.973  29.673   5.542
 5422POPC   GL168185  34.706  29.399   5.913
 5422POPC   GL268186  34.369  29.163   5.937
 5422POPC   C1A68187  34.575  29.279   6.382
 5422POPC   D2A68188  34.318  29.037   6.701
 5422POPC   C3A68189  34.395  29.157   7.113
 5422POPC   C4A68190  34.768  29.371   7.171
 5422POPC   C1B68191  34.284  28.816   6.244
 5422POPC   C2B68192  34.574  28.612   6.581
 5422POPC   C3B68193  34.785  28.854   6.955
 5422POPC   C4B68194  34.728  28.909   7.433
 5423POPC   NC368195   2.826   3.115   5.438
 5423POPC   PO468196   2.675   2.512   5.173
 5423POPC   GL168197   2.687   2.647   5.620
 5423POPC   GL268198   2.442   2.915   5.689
 5423POPC   C1A68199   2.911   2.776   6.022
 5423POPC   D2A68200   2.789   2.725   6.483
 5423POPC   C3A68201   3.000   2.675   6.912
 5423POPC   C4A68202   2.919   2.602   7.345
 5423POPC   C1B68203   2.413   2.894   6.127
 5423POPC   C2B68204   2.379   3.048   6.541
 5423POPC   C3B68205   2.490   2.821   6.900
 5423POPC   C4B68206   2.419   2.784   7.308
 5424POPC   NC368207  13.672   5.322   5.428
 5424POPC   PO468208  13.309   4.735   5.435
 5424POPC   GL168209  13.515   5.008   5.802
 5424POPC   GL268210  13.885   4.935   5.747
 5424POPC   C1A68211  13.679   5.379   6.108
 5424POPC   D2A68212  14.013   5.356   6.458
 5424POPC   C3A68213  13.826   5.221   6.853
 5424POPC   C4A68214  13.586   5.199   7.233
 5424POPC   C1B68215  13.879   4.911   6.196
 5424POPC   C2B68216  13.730   4.767   6.581
 5424POPC   C3B68217  13.580   4.758   6.981
 5424POPC   C4B68218  13.925   4.808   7.243
 5425POPC   NC368219  29.892  14.339   5.284
 5425POPC   PO468220  29.527  14.608   5.751
 5425POPC   GL168221  29.972  14.525   5.774
 5425POPC   GL268222  30.067  14.172   5.757
 5425POPC   C1A68223  30.145  14.623   6.154
 5425POPC   D2A68224  29.785  14.663   6.452
 5425POPC   C3A68225  29.875  14.668   6.898
 5425POPC   C4A68226  30.021  14.575   7.329
 5425POPC   C1B68227  29.839  14.194   6.199
 5425POPC   C2B68228  29.675  14.203   6.654
 5425POPC   C3B68229  29.648  14.179   7.103
 5425POPC   C4B68230  29.879  14.101   7.464
 5426POPC   NC368231  25.159  24.028   5.398
 5426POPC   PO468232  25.083  23.362   5.501
 5426POPC   GL168233  25.268  23.504   5.882
 5426POPC   GL268234  25.419  23.825   5.851
 5426POPC   C1A68235  25.300  23.667   6.317
 5426POPC   D2A68236  25.187  23.419   6.670
 5426POPC   C3A68237  25.210  23.582   7.077
 5426POPC   C4A68238  25.096  23.535   7.487
 5426POPC   C1B68239  25.730  23.984   6.171
 5426POPC   C2B68240  25.804  23.880   6.606
 5426POPC   C3B68241  25.581  23.944   7.006
 5426POPC   C4B68242  25.357  24.012   7.379
 5427POPC   NC368243  12.640  37.975   5.577
 5427POPC   PO468244  13.266  37.701   5.359
 5427POPC   GL168245  13.079  37.635   5.774
 5427POPC   GL268246  12.754  37.515   5.799
 5427POPC   C1A68247  12.908  37.864   6.181
 5427POPC   D2A68248  12.664  37.872   6.582
 5427POPC   C3A68249  12.924  37.850   6.970
 5427POPC   C4A68250  12.831  38.018   7.383
 5427POPC   C1B68251  12.584  37.461   6.211
 5427POPC   C2B68252  12.390  37.418   6.623
 5427POPC   C3B68253  12.578  37.482   7.018
 5427POPC   C4B68254  12.900  37.433   7.300
 5428POPC   NC368255  22.935  26.363   5.517
 5428POPC   PO468256  22.926  25.771   5.478
 5428POPC   GL168257  22.929  25.986   5.872
 5428POPC   GL268258  23.208  26.216   5.927
 5428POPC   C1A68259  22.805  26.063   6.290
 5428POPC   D2A68260  22.552  26.163   6.649
 5428POPC   C3A68261  22.705  25.983   7.048
 5428POPC   C4A68262  22.676  26.199   7.460
 5428POPC   C1B68263  23.264  26.341   6.357
 5428POPC   C2B68264  23.056  26.352   6.770
 5428POPC   C3B68265  23.179  26.186   7.146
 5428POPC   C4B68266  23.423  25.774   7.181
 5429POPC   NC368267  21.034  11.594   5.632
 5429POPC   PO468268  20.592  11.351   5.205
 5429POPC   GL168269  20.665  11.231   5.653
 5429POPC   GL268270  20.397  11.378   5.847
 5429POPC   C1A68271  20.704  11.115   6.132
 5429POPC   D2A68272  20.445  11.245   6.518
 5429POPC   C3A68273  20.605  11.085   6.915
 5429POPC   C4A68274  20.775  11.060   7.367
 5429POPC   C1B68275  20.612  11.606   6.190
 5429POPC   C2B68276  20.555  11.859   6.499
 5429POPC   C3B68277  20.538  11.827   6.913
 5429POPC   C4B68278  20.616  11.514   7.209
 5430POPC   NC368279  33.386   6.050   5.321
 5430POPC   PO468280  32.757   5.794   5.261
 5430POPC   GL168281  32.929   5.918   5.670
 5430POPC   GL268282  32.633   5.911   5.862
 5430POPC   C1A68283  33.102   5.825   6.106
 5430POPC   D2A68284  33.123   5.992   6.550
 5430POPC   C3A68285  33.026   5.779   6.973
 5430POPC   C4A68286  33.286   5.572   7.279
 5430POPC   C1B68287  32.748   6.182   6.219
 5430POPC   C2B68288  32.682   6.235   6.666
 5430POPC   C3B68289  32.777   6.221   7.110
 5430POPC   C4B68290  32.787   6.256   7.594
 5431POPC   NC368291  23.449  26.743   5.470
 5431POPC   PO468292  24.014  26.978   5.357
 5431POPC   GL168293  23.832  26.873   5.778
 5431POPC   GL268294  23.554  27.107   5.842
 5431POPC   C1A68295  23.630  26.752   6.216
 5431POPC   D2A68296  23.696  26.533   6.633
 5431POPC   C3A68297  23.454  26.623   7.015
 5431POPC   C4A68298  23.428  26.961   7.338
 5431POPC   C1B68299  23.932  27.170   6.173
 5431POPC   C2B68300  23.934  27.020   6.605
 5431POPC   C3B68301  23.860  27.067   7.058
 5431POPC   C4B68302  24.071  27.296   7.399
 5432POPC   NC368303  21.973  29.428   5.482
 5432POPC   PO468304  22.469  28.933   5.355
 5432POPC   GL168305  22.356  29.073   5.745
 5432POPC   GL268306  22.405  29.411   5.766
 5432POPC   C1A68307  22.010  29.094   6.041
 5432POPC   D2A68308  21.946  29.340   6.401
 5432POPC   C3A68309  21.985  29.135   6.774
 5432POPC   C4A68310  22.062  29.273   7.159
 5432POPC   C1B68311  22.449  29.313   6.212
 5432POPC   C2B68312  22.422  29.550   6.597
 5432POPC   C3B68313  22.499  29.466   7.027
 5432POPC   C4B68314  22.409  29.625   7.439
 5433POPC   NC368315  44.768  11.495   5.452
 5433POPC   PO468316  44.842  10.856   5.262
 5433POPC   GL168317  44.882  11.031   5.713
 5433POPC   GL268318  44.606  11.242   5.872
 5433POPC   C1A68319   0.005  11.123   6.158
 5433POPC   D2A68320  44.864  11.391   6.524
 5433POPC   C3A68321  44.964  11.197   6.923
 5433POPC   C4A68322  44.954  11.359   7.317
 5433POPC   C1B68323  44.436  11.046   6.274
 5433POPC   C2B68324  44.178  11.025   6.680
 5433POPC   C3B68325  44.259  10.980   7.149
 5433POPC   C4B68326  44.497  11.168   7.510
 5434POPC   NC368327   6.953   2.842   5.473
 5434POPC   PO468328   6.342   2.512   5.421
 5434POPC   GL168329   6.531   2.699   5.805
 5434POPC   GL268330   6.824   2.509   5.828
 5434POPC   C1A68331   6.504   2.965   6.201
 5434POPC   D2A68332   6.778   3.158   6.545
 5434POPC   C3A68333   6.778   2.953   6.937
 5434POPC   C4A68334   6.447   2.785   7.172
 5434POPC   C1B68335   6.975   2.820   6.135
 5434POPC   C2B68336   6.879   2.653   6.525
 5434POPC   C3B68337   6.783   2.434   6.905
 5434POPC   C4B68338   6.884   2.583   7.315
 5435POPC   NC368339  13.627  27.455   4.958
 5435POPC   PO468340  14.130  27.693   5.373
 5435POPC   GL168341  13.849  27.620   5.754
 5435POPC   GL268342  13.481  27.654   5.634
 5435POPC   C1A68343  13.719  27.663   6.219
 5435POPC   D2A68344  13.805  27.369   6.605
 5435POPC   C3A68345  13.864  27.514   7.025
 5435POPC   C4A68346  13.545  27.766   7.237
 5435POPC   C1B68347  13.254  27.536   6.031
 5435POPC   C2B68348  13.287  27.641   6.502
 5435POPC   C3B68349  13.211  27.483   6.945
 5435POPC   C4B68350  13.284  27.311   7.382
 5436POPC   NC368351  24.366  27.173   5.587
 5436POPC   PO468352  24.872  26.786   5.262
 5436POPC   GL168353  24.656  26.717   5.679
 5436POPC   GL268354  24.294  26.648   5.675
 5436POPC   C1A68355  24.678  26.826   6.143
 5436POPC   D2A68356  24.939  26.975   6.501
 5436POPC   C3A68357  24.694  26.771   6.838
 5436POPC   C4A68358  24.533  26.848   7.248
 5436POPC   C1B68359  24.161  26.682   6.148
 5436POPC   C2B68360  24.242  26.602   6.615
 5436POPC   C3B68361  24.068  26.591   7.053
 5436POPC   C4B68362  24.083  26.803   7.476
 5437POPC   NC368363  24.123   1.938   5.163
 5437POPC   PO468364  24.844   1.734   5.321
 5437POPC   GL168365  24.514   1.668   5.668
 5437POPC   GL268366  24.586   1.975   5.828
 5437POPC   C1A68367  24.362   1.591   6.129
 5437POPC   D2A68368  24.552   1.689   6.523
 5437POPC   C3A68369  24.367   1.681   6.932
 5437POPC   C4A68370  24.762   1.803   7.098
 5437POPC   C1B68371  24.423   2.095   6.227
 5437POPC   C2B68372  24.281   2.138   6.644
 5437POPC   C3B68373  24.443   2.205   7.044
 5437POPC   C4B68374  24.680   2.541   7.208
 5438POPC   NC368375  34.414  13.358   5.228
 5438POPC   PO468376  34.704  12.756   5.397
 5438POPC   GL168377  34.502  12.994   5.684
 5438POPC   GL268378  34.240  12.782   5.799
 5438POPC   C1A68379  34.592  13.002   6.129
 5438POPC   D2A68380  34.736  12.832   6.525
 5438POPC   C3A68381  34.634  13.044   6.906
 5438POPC   C4A68382  34.675  12.983   7.335
 5438POPC   C1B68383  34.296  12.573   6.221
 5438POPC   C2B68384  34.315  12.601   6.680
 5438POPC   C3B68385  34.449  12.595   7.115
 5438POPC   C4B68386  34.334  12.571   7.571
 5439POPC   NC368387  11.985  12.858   5.262
 5439POPC   PO468388  12.493  13.159   5.649
 5439POPC   GL168389  12.063  13.010   5.734
 5439POPC   GL268390  11.962  12.666   5.742
 5439POPC   C1A68391  11.902  13.008   6.147
 5439POPC   D2A68392  12.067  12.965   6.568
 5439POPC   C3A68393  11.757  12.894   6.912
 5439POPC   C4A68394  11.928  12.902   7.331
 5439POPC   C1B68395  12.246  12.595   6.093
 5439POPC   C2B68396  12.337  12.425   6.527
 5439POPC   C3B68397  12.177  12.603   6.942
 5439POPC   C4B68398  11.778  12.413   7.140
 5440POPC   NC368399  19.900   6.260   5.457
 5440POPC   PO468400  19.540   6.836   5.489
 5440POPC   GL168401  19.760   6.667   5.833
 5440POPC   GL268402  20.080   6.628   5.782
 5440POPC   C1A68403  19.849   6.457   6.230
 5440POPC   D2A68404  19.615   6.612   6.557
 5440POPC   C3A68405  19.726   6.494   6.943
 5440POPC   C4A68406  19.667   6.848   7.198
 5440POPC   C1B68407  20.167   6.842   6.180
 5440POPC   C2B68408  20.183   6.726   6.580
 5440POPC   C3B68409  20.115   6.854   6.968
 5440POPC   C4B68410  20.067   6.561   7.302
 5441POPC   NC368411  12.748   5.704   5.453
 5441POPC   PO468412  13.030   6.344   5.375
 5441POPC   GL168413  12.893   6.127   5.765
 5441POPC   GL268414  12.565   6.151   5.856
 5441POPC   C1A68415  12.887   5.874   6.181
 5441POPC   D2A68416  12.868   5.571   6.550
 5441POPC   C3A68417  13.025   5.714   6.963
 5441POPC   C4A68418  12.880   5.656   7.428
 5441POPC   C1B68419  12.606   6.288   6.303
 5441POPC   C2B68420  12.813   6.216   6.732
 5441POPC   C3B68421  12.796   6.111   7.179
 5441POPC   C4B68422  12.749   6.125   7.655
 5442POPC   NC368423   6.157  14.771   5.413
 5442POPC   PO468424   5.721  15.295   5.371
 5442POPC   GL168425   5.805  15.047   5.743
 5442POPC   GL268426   6.106  15.220   5.801
 5442POPC   C1A68427   5.890  14.984   6.208
 5442POPC   D2A68428   5.962  15.186   6.632
 5442POPC   C3A68429   5.852  14.898   6.975
 5442POPC   C4A68430   5.746  14.931   7.435
 5442POPC   C1B68431   6.346  15.228   6.200
 5442POPC   C2B68432   6.401  15.491   6.549
 5442POPC   C3B68433   6.274  15.597   6.954
 5442POPC   C4B68434   6.069  15.296   7.194
 5443POPC   NC368435  12.575   3.119   5.484
 5443POPC   PO468436  12.907   2.451   5.461
 5443POPC   GL168437  13.068   2.669   5.835
 5443POPC   GL268438  12.986   2.992   5.800
 5443POPC   C1A68439  13.006   2.730   6.306
 5443POPC   D2A68440  12.827   2.953   6.688
 5443POPC   C3A68441  12.764   2.661   7.068
 5443POPC   C4A68442  12.480   2.289   7.120
 5443POPC   C1B68443  13.237   3.143   6.136
 5443POPC   C2B68444  13.200   3.343   6.536
 5443POPC   C3B68445  13.318   3.268   6.947
 5443POPC   C4B68446  13.021   3.097   7.210
 5444POPC   NC368447  16.212  20.013   5.436
 5444POPC   PO468448  15.915  19.455   5.705
 5444POPC   GL168449  15.859  19.687   6.018
 5444POPC   GL268450  15.975  19.975   5.883
 5444POPC   C1A68451  16.023  19.741   6.393
 5444POPC   D2A68452  15.932  19.755   6.804
 5444POPC   C3A68453  16.190  19.652   7.117
 5444POPC   C4A68454  15.792  19.510   7.312
 5444POPC   C1B68455  15.834  20.211   6.218
 5444POPC   C2B68456  15.889  20.345   6.628
 5444POPC   C3B68457  16.064  20.199   7.001
 5444POPC   C4B68458  15.865  19.997   7.296
 5445POPC   NC368459  23.197  31.627   5.338
 5445POPC   PO468460  22.588  31.240   5.396
 5445POPC   GL168461  22.710  31.321   5.829
 5445POPC   GL268462  23.082  31.462   5.817
 5445POPC   C1A68463  22.856  31.299   6.257
 5445POPC   D2A68464  23.082  31.524   6.551
 5445POPC   C3A68465  22.926  31.376   6.947
 5445POPC   C4A68466  23.169  31.258   7.251
 5445POPC   C1B68467  22.886  31.787   6.081
 5445POPC   C2B68468  22.813  31.987   6.481
 5445POPC   C3B68469  22.917  31.880   6.886
 5445POPC   C4B68470  22.972  31.838   7.293
 5446POPC   NC368471  25.920  31.412   5.358
 5446POPC   PO468472  26.123  31.965   5.532
 5446POPC   GL168473  25.880  31.767   5.799
 5446POPC   GL268474  26.104  31.494   5.822
 5446POPC   C1A68475  25.892  31.647   6.246
 5446POPC   D2A68476  25.748  31.420   6.600
 5446POPC   C3A68477  25.826  31.688   6.926
 5446POPC   C4A68478  25.940  31.570   7.373
 5446POPC   C1B68479  26.406  31.428   6.162
 5446POPC   C2B68480  26.280  31.502   6.571
 5446POPC   C3B68481  26.217  31.374   6.974
 5446POPC   C4B68482  26.379  31.273   7.380
 5447POPC   NC368483  32.153  36.178   5.399
 5447POPC   PO468484  32.723  35.830   5.736
 5447POPC   GL168485  32.281  35.893   5.887
 5447POPC   GL268486  32.233  36.252   5.888
 5447POPC   C1A68487  32.010  36.022   6.279
 5447POPC   D2A68488  31.938  36.304   6.663
 5447POPC   C3A68489  32.054  36.056   7.048
 5447POPC   C4A68490  32.286  35.819   7.341
 5447POPC   C1B68491  32.305  36.483   6.260
 5447POPC   C2B68492  32.461  36.418   6.683
 5447POPC   C3B68493  32.234  36.520   7.065
 5447POPC   C4B68494  32.211  36.342   7.491
 5448POPC   NC368495   2.737  17.107   5.516
 5448POPC   PO468496   2.931  16.482   5.513
 5448POPC   GL168497   2.803  16.694   5.861
 5448POPC   GL268498   3.035  16.976   5.913
 5448POPC   C1A68499   2.487  16.607   6.180
 5448POPC   D2A68500   2.416  16.805   6.575
 5448POPC   C3A68501   2.552  16.681   7.010
 5448POPC   C4A68502   2.642  17.018   7.305
 5448POPC   C1B68503   2.908  16.931   6.344
 5448POPC   C2B68504   2.989  16.735   6.748
 5448POPC   C3B68505   3.026  16.718   7.202
 5448POPC   C4B68506   3.140  17.161   7.242
 5449POPC   NC368507  37.788  30.017   5.629
 5449POPC   PO468508  37.269  29.812   5.192
 5449POPC   GL168509  37.426  29.680   5.643
 5449POPC   GL268510  37.760  29.508   5.730
 5449POPC   C1A68511  37.431  29.698   6.114
 5449POPC   D2A68512  37.334  29.976   6.464
 5449POPC   C3A68513  37.603  30.001   6.823
 5449POPC   C4A68514  37.616  29.965   7.261
 5449POPC   C1B68515  37.915  29.466   6.136
 5449POPC   C2B68516  37.889  29.701   6.528
 5449POPC   C3B68517  37.880  29.604   7.000
 5449POPC   C4B68518  37.958  29.286   7.341
 5450POPC   NC368519  29.418   4.113   5.265
 5450POPC   PO468520  28.878   4.446   5.346
 5450POPC   GL168521  29.085   4.537   5.719
 5450POPC   GL268522  29.406   4.345   5.744
 5450POPC   C1A68523  29.002   4.779   6.098
 5450POPC   D2A68524  29.049   4.858   6.536
 5450POPC   C3A68525  29.016   4.517   6.817
 5450POPC   C4A68526  29.206   4.611   7.195
 5450POPC   C1B68527  29.125   4.196   6.118
 5450POPC   C2B68528  29.158   3.988   6.542
 5450POPC   C3B68529  29.189   4.018   6.979
 5450POPC   C4B68530  28.839   4.171   7.179
 5451POPC   NC368531  10.163  22.240   5.286
 5451POPC   PO468532  10.210  22.734   5.679
 5451POPC   GL168533  10.284  22.361   5.943
 5451POPC   GL268534  10.546  22.131   5.831
 5451POPC   C1A68535  10.418  22.218   6.387
 5451POPC   D2A68536  10.372  22.336   6.835
 5451POPC   C3A68537  10.231  21.977   7.090
 5451POPC   C4A68538  10.019  21.790   7.449
 5451POPC   C1B68539  10.843  22.304   6.123
 5451POPC   C2B68540  10.918  22.406   6.549
 5451POPC   C3B68541  10.810  22.085   6.832
 5451POPC   C4B68542  10.690  22.193   7.220
 5452POPC   NC368543  27.972   8.804   5.410
 5452POPC   PO468544  27.296   8.807   5.572
 5452POPC   GL168545  27.673   8.922   5.810
 5452POPC   GL268546  27.608   9.266   5.875
 5452POPC   C1A68547  27.908   9.005   6.202
 5452POPC   D2A68548  27.753   8.922   6.620
 5452POPC   C3A68549  27.621   8.993   7.008
 5452POPC   C4A68550  27.885   8.845   7.341
 5452POPC   C1B68551  27.404   9.037   6.248
 5452POPC   C2B68552  27.218   8.974   6.650
 5452POPC   C3B68553  27.120   8.872   7.087
 5452POPC   C4B68554  26.928   8.970   7.497
 5453POPC   NC368555  27.124   6.771   5.104
 5453POPC   PO468556  27.600   6.352   5.442
 5453POPC   GL168557  27.640   6.416   5.866
 5453POPC   GL268558  27.425   6.707   5.802
 5453POPC   C1A68559  27.764   6.702   6.184
 5453POPC   D2A68560  27.588   6.727   6.580
 5453POPC   C3A68561  27.670   6.459   6.914
 5453POPC   C4A68562  27.676   6.727   7.243
 5453POPC   C1B68563  27.253   6.539   6.184
 5453POPC   C2B68564  27.091   6.554   6.584
 5453POPC   C3B68565  27.204   6.714   6.990
 5453POPC   C4B68566  27.247   6.465   7.354
 5454POPC   NC368567   2.565   9.561   5.467
 5454POPC   PO468568   2.343  10.188   5.499
 5454POPC   GL168569   2.598   9.990   5.824
 5454POPC   GL268570   2.928   9.927   5.794
 5454POPC   C1A68571   2.630   9.726   6.212
 5454POPC   D2A68572   2.615   9.435   6.567
 5454POPC   C3A68573   2.669   9.553   6.990
 5454POPC   C4A68574   2.897   9.410   7.336
 5454POPC   C1B68575   2.981  10.111   6.224
 5454POPC   C2B68576   2.921  10.004   6.674
 5454POPC   C3B68577   2.991   9.932   7.134
 5454POPC   C4B68578   3.143  10.138   7.576
 5455POPC   NC368579   6.580  20.165   5.500
 5455POPC   PO468580   6.355  19.584   5.507
 5455POPC   GL168581   6.514  19.860   5.890
 5455POPC   GL268582   6.885  19.961   5.910
 5455POPC   C1A68583   6.374  20.035   6.272
 5455POPC   D2A68584   6.405  20.310   6.605
 5455POPC   C3A68585   6.398  20.099   6.986
 5455POPC   C4A68586   6.661  19.943   7.291
 5455POPC   C1B68587   6.834  19.824   6.354
 5455POPC   C2B68588   6.862  20.042   6.760
 5455POPC   C3B68589   7.081  20.218   7.120
 5455POPC   C4B68590   7.053  20.159   7.606
 5456POPC   NC368591  20.822  34.806   5.549
 5456POPC   PO468592  20.301  34.349   5.395
 5456POPC   GL168593  20.486  34.486   5.796
 5456POPC   GL268594  20.301  34.807   5.832
 5456POPC   C1A68595  20.766  34.408   6.179
 5456POPC   D2A68596  20.676  34.287   6.563
 5456POPC   C3A68597  20.853  34.439   6.943
 5456POPC   C4A68598  20.590  34.513   7.274
 5456POPC   C1B68599  20.558  34.861   6.182
 5456POPC   C2B68600  20.493  34.755   6.615
 5456POPC   C3B68601  20.708  34.941   6.936
 5456POPC   C4B68602  20.886  34.935   7.327
 5457POPC   NC368603  15.659  42.858   5.684
 5457POPC   PO468604  16.022  43.320   5.462
 5457POPC   GL168605  15.947  43.219   5.890
 5457POPC   GL268606  16.155  42.915   5.833
 5457POPC   C1A68607  15.736  43.119   6.301
 5457POPC   D2A68608  15.798  43.362   6.681
 5457POPC   C3A68609  16.020  43.442   7.079
 5457POPC   C4A68610  15.882  43.373   7.548
 5457POPC   C1B68611  16.221  42.972   6.280
 5457POPC   C2B68612  16.032  42.840   6.658
 5457POPC   C3B68613  15.851  42.953   7.032
 5457POPC   C4B68614  16.142  43.002   7.309
 5458POPC   NC368615  13.811  31.543   5.432
 5458POPC   PO468616  13.151  31.737   5.543
 5458POPC   GL168617  13.388  31.441   5.750
 5458POPC   GL268618  13.612  31.715   5.849
 5458POPC   C1A68619  13.569  31.269   6.132
 5458POPC   D2A68620  13.778  31.302   6.579
 5458POPC   C3A68621  13.732  31.185   7.060
 5458POPC   C4A68622  13.595  31.188   7.530
 5458POPC   C1B68623  13.884  31.651   6.185
 5458POPC   C2B68624  13.848  31.827   6.590
 5458POPC   C3B68625  13.567  31.660   6.911
 5458POPC   C4B68626  13.718  31.643   7.320
 5459POPC   NC368627  44.418  37.275   5.483
 5459POPC   PO468628  44.843  37.858   5.620
 5459POPC   GL168629  44.498  37.703   5.800
 5459POPC   GL268630  44.579  37.420   5.945
 5459POPC   C1A68631  44.311  37.839   6.154
 5459POPC   D2A68632  44.443  37.957   6.563
 5459POPC   C3A68633  44.388  37.624   6.850
 5459POPC   C4A68634  44.601  37.414   7.189
 5459POPC   C1B68635  44.741  37.606   6.324
 5459POPC   C2B68636  44.964  37.874   6.638
 5459POPC   C3B68637   0.098  37.826   7.068
 5459POPC   C4B68638   0.183  37.368   7.165
 5460POPC   NC368639  17.868  41.696   5.261
 5460POPC   PO468640  17.233  41.653   5.371
 5460POPC   GL168641  17.540  41.643   5.715
 5460POPC   GL268642  17.782  41.903   5.823
 5460POPC   C1A68643  17.446  41.583   6.151
 5460POPC   D2A68644  17.530  41.412   6.558
 5460POPC   C3A68645  17.355  41.568   6.948
 5460POPC   C4A68646  17.477  41.461   7.353
 5460POPC   C1B68647  17.910  41.766   6.268
 5460POPC   C2B68648  17.776  41.840   6.732
 5460POPC   C3B68649  17.681  41.939   7.185
 5460POPC   C4B68650  17.755  41.806   7.610
 5461POPC   NC368651  31.372  36.613   5.300
 5461POPC   PO468652  31.675  37.214   5.501
 5461POPC   GL168653  31.543  36.824   5.780
 5461POPC   GL268654  31.789  36.524   5.813
 5461POPC   C1A68655  31.294  36.846   6.209
 5461POPC   D2A68656  31.131  37.142   6.569
 5461POPC   C3A68657  31.038  36.939   6.969
 5461POPC   C4A68658  31.032  36.516   7.136
 5461POPC   C1B68659  31.810  36.701   6.249
 5461POPC   C2B68660  31.647  36.975   6.607
 5461POPC   C3B68661  31.532  36.801   7.011
 5461POPC   C4B68662  31.754  36.461   7.193
 5462POPC   NC368663  19.593   1.062   5.301
 5462POPC   PO468664  20.191   1.433   5.295
 5462POPC   GL168665  19.862   1.476   5.631
 5462POPC   GL268666  19.734   1.140   5.784
 5462POPC   C1A68667  19.788   1.529   6.090
 5462POPC   D2A68668  19.960   1.397   6.514
 5462POPC   C3A68669  19.692   1.208   6.802
 5462POPC   C4A68670  19.809   1.304   7.197
 5462POPC   C1B68671  20.043   1.058   6.145
 5462POPC   C2B68672  20.084   0.898   6.601
 5462POPC   C3B68673  20.048   0.871   7.068
 5462POPC   C4B68674  20.115   1.032   7.507
 5463POPC   NC368675  12.343  29.772   5.460
 5463POPC   PO468676  12.196  29.083   5.431
 5463POPC   GL168677  12.018  28.993   5.787
 5463POPC   GL268678  11.693  28.879   5.735
 5463POPC   C1A68679  11.984  29.191   6.152
 5463POPC   D2A68680  11.829  29.299   6.525
 5463POPC   C3A68681  12.093  29.132   6.849
 5463POPC   C4A68682  11.959  29.211   7.247
 5463POPC   C1B68683  11.586  28.836   6.175
 5463POPC   C2B68684  11.843  28.781   6.543
 5463POPC   C3B68685  11.777  28.743   6.995
 5463POPC   C4B68686  11.692  28.831   7.415
 5464POPC   NC368687  15.610  31.712   5.153
 5464POPC   PO468688  16.027  31.357   5.638
 5464POPC   GL168689  16.251  31.389   5.994
 5464POPC   GL268690  16.160  31.716   6.104
 5464POPC   C1A68691  16.064  31.207   6.311
 5464POPC   D2A68692  15.687  31.118   6.483
 5464POPC   C3A68693  15.898  31.278   6.811
 5464POPC   C4A68694  15.990  31.126   7.182
 5464POPC   C1B68695  15.726  31.604   6.318
 5464POPC   C2B68696  15.520  31.636   6.735
 5464POPC   C3B68697  15.660  31.551   7.148
 5464POPC   C4B68698  16.087  31.639   7.195
 5465POPC   NC368699  38.444  10.737   5.454
 5465POPC   PO468700  37.809  10.592   5.539
 5465POPC   GL168701  38.155  10.414   5.771
 5465POPC   GL268702  38.437  10.616   5.947
 5465POPC   C1A68703  38.128  10.320   6.190
 5465POPC   D2A68704  38.095  10.311   6.632
 5465POPC   C3A68705  38.446  10.370   6.912
 5465POPC   C4A68706  38.406  10.287   7.359
 5465POPC   C1B68707  38.553  10.571   6.416
 5465POPC   C2B68708  38.679  10.854   6.753
 5465POPC   C3B68709  38.495  10.982   7.145
 5465POPC   C4B68710  38.486  10.781   7.570
 5466POPC   NC368711  19.335  30.189   5.654
 5466POPC   PO468712  18.858  30.542   5.402
 5466POPC   GL168713  18.921  30.826   5.750
 5466POPC   GL268714  19.194  31.087   5.704
 5466POPC   C1A68715  18.692  30.828   6.124
 5466POPC   D2A68716  18.872  30.871   6.510
 5466POPC   C3A68717  18.818  30.599   6.853
 5466POPC   C4A68718  18.789  30.761   7.242
 5466POPC   C1B68719  19.290  30.833   6.107
 5466POPC   C2B68720  19.314  30.606   6.506
 5466POPC   C3B68721  19.289  30.784   6.907
 5466POPC   C4B68722  19.248  30.570   7.290
 5467POPC   NC368723  21.731  13.011   5.342
 5467POPC   PO468724  21.095  12.983   5.230
 5467POPC   GL168725  21.414  12.983   5.727
 5467POPC   GL268726  21.221  12.897   6.109
 5467POPC   C1A68727  21.681  13.012   6.149
 5467POPC   D2A68728  21.485  12.828   6.552
 5467POPC   C3A68729  21.570  13.044   6.958
 5467POPC   C4A68730  21.448  12.954   7.377
 5467POPC   C1B68731  21.120  12.486   6.304
 5467POPC   C2B68732  21.239  12.371   6.704
 5467POPC   C3B68733  21.150  12.701   7.016
 5467POPC   C4B68734  21.043  12.644   7.459
 5468POPC   NC368735  32.504  23.975   5.527
 5468POPC   PO468736  32.413  23.304   5.364
 5468POPC   GL168737  32.113  23.555   5.692
 5468POPC   GL268738  32.252  23.829   5.942
 5468POPC   C1A68739  31.868  23.584   6.130
 5468POPC   D2A68740  32.113  23.658   6.551
 5468POPC   C3A68741  31.926  23.572   6.941
 5468POPC   C4A68742  31.790  23.942   7.170
 5468POPC   C1B68743  32.343  23.410   6.169
 5468POPC   C2B68744  32.373  23.220   6.600
 5468POPC   C3B68745  32.442  23.484   6.969
 5468POPC   C4B68746  32.289  23.927   7.029
 5469POPC   NC368747   7.920  31.560   5.604
 5469POPC   PO468748   8.304  30.959   5.447
 5469POPC   GL168749   8.249  31.180   5.811
 5469POPC   GL268750   7.916  31.163   5.950
 5469POPC   C1A68751   8.456  31.419   6.139
 5469POPC   D2A68752   8.525  31.307   6.564
 5469POPC   C3A68753   8.186  31.472   6.840
 5469POPC   C4A68754   8.069  31.742   7.187
 5469POPC   C1B68755   8.121  31.022   6.288
 5469POPC   C2B68756   8.166  30.952   6.705
 5469POPC   C3B68757   8.440  31.060   7.008
 5469POPC   C4B68758   8.408  31.377   7.304
 5470POPC   NC368759  10.401   3.768   5.391
 5470POPC   PO468760  10.932   3.416   5.504
 5470POPC   GL168761  10.542   3.392   5.710
 5470POPC   GL268762  10.382   3.092   5.677
 5470POPC   C1A68763  10.396   3.528   6.122
 5470POPC   D2A68764  10.607   3.729   6.485
 5470POPC   C3A68765  10.425   3.764   6.881
 5470POPC   C4A68766  10.565   3.891   7.260
 5470POPC   C1B68767  10.630   3.056   6.078
 5470POPC   C2B68768  10.652   3.210   6.472
 5470POPC   C3B68769  10.613   3.276   6.878
 5470POPC   C4B68770  10.399   3.318   7.239
 5471POPC   NC368771  22.128   3.881   5.506
 5471POPC   PO468772  22.325   4.492   5.305
 5471POPC   GL168773  22.126   4.370   5.714
 5471POPC   GL268774  22.457   4.343   5.797
 5471POPC   C1A68775  21.883   4.380   6.151
 5471POPC   D2A68776  21.807   4.213   6.575
 5471POPC   C3A68777  21.844   4.463   6.946
 5471POPC   C4A68778  22.136   4.493   7.282
 5471POPC   C1B68779  22.288   4.090   6.104
 5471POPC   C2B68780  22.288   4.110   6.498
 5471POPC   C3B68781  22.216   4.103   6.910
 5471POPC   C4B68782  22.336   3.993   7.286
 5472POPC   NC368783  10.317  35.736   5.623
 5472POPC   PO468784  10.778  35.272   5.326
 5472POPC   GL168785  10.566  35.284   5.724
 5472POPC   GL268786  10.224  35.274   5.780
 5472POPC   C1A68787  10.630  35.289   6.169
 5472POPC   D2A68788  10.707  35.459   6.585
 5472POPC   C3A68789  10.577  35.307   6.970
 5472POPC   C4A68790  10.421  35.094   7.367
 5472POPC   C1B68791  10.145  35.481   6.204
 5472POPC   C2B68792  10.233  35.626   6.622
 5472POPC   C3B68793  10.100  35.541   7.050
 5472POPC   C4B68794   9.997  35.365   7.464
 5473POPC   NC368795  18.780  26.015   5.587
 5473POPC   PO468796  19.185  26.453   5.239
 5473POPC   GL168797  19.248  26.355   5.703
 5473POPC   GL268798  19.399  26.043   5.703
 5473POPC   C1A68799  19.173  26.336   6.186
 5473POPC   D2A68800  19.036  26.506   6.610
 5473POPC   C3A68801  19.094  26.249   6.954
 5473POPC   C4A68802  18.833  25.894   7.033
 5473POPC   C1B68803  19.480  25.920   6.127
 5473POPC   C2B68804  19.226  25.842   6.481
 5473POPC   C3B68805  19.302  25.755   6.889
 5473POPC   C4B68806  19.511  25.603   7.219
 5474POPC   NC368807  21.374   1.882   5.360
 5474POPC   PO468808  21.898   1.813   5.051
 5474POPC   GL168809  21.791   1.902   5.666
 5474POPC   GL268810  21.419   1.970   5.851
 5474POPC   C1A68811  21.739   2.095   6.192
 5474POPC   D2A68812  21.818   1.926   6.678
 5474POPC   C3A68813  21.599   2.093   7.087
 5474POPC   C4A68814  21.329   1.927   7.453
 5474POPC   C1B68815  21.198   2.176   6.257
 5474POPC   C2B68816  21.040   2.361   6.670
 5474POPC   C3B68817  21.065   2.220   7.126
 5474POPC   C4B68818  20.954   2.261   7.576
 5475POPC   NC368819  16.049   2.852   5.392
 5475POPC   PO468820  15.665   2.220   5.353
 5475POPC   GL168821  15.891   2.438   5.703
 5475POPC   GL268822  15.606   2.580   5.854
 5475POPC   C1A68823  16.040   2.681   6.104
 5475POPC   D2A68824  16.274   2.771   6.515
 5475POPC   C3A68825  16.130   3.016   6.884
 5475POPC   C4A68826  16.170   2.911   7.297
 5475POPC   C1B68827  15.554   2.755   6.299
 5475POPC   C2B68828  15.697   2.773   6.729
 5475POPC   C3B68829  15.703   2.751   7.189
 5475POPC   C4B68830  15.654   2.839   7.622
 5476POPC   NC368831  35.875  12.629   5.442
 5476POPC   PO468832  36.352  13.181   5.381
 5476POPC   GL168833  36.162  12.957   5.761
 5476POPC   GL268834  36.432  12.806   5.927
 5476POPC   C1A68835  35.965  12.741   6.164
 5476POPC   D2A68836  35.808  12.488   6.515
 5476POPC   C3A68837  35.885  12.604   6.944
 5476POPC   C4A68838  35.938  12.987   7.160
 5476POPC   C1B68839  36.333  13.078   6.277
 5476POPC   C2B68840  36.189  12.897   6.652
 5476POPC   C3B68841  36.370  12.746   7.032
 5476POPC   C4B68842  36.299  12.734   7.479
 5477POPC   NC368843   4.976   5.487   5.701
 5477POPC   PO468844   5.302   5.977   5.521
 5477POPC   GL168845   5.097   5.967   5.887
 5477POPC   GL268846   4.758   6.033   5.794
 5477POPC   C1A68847   5.076   5.843   6.316
 5477POPC   D2A68848   4.901   6.074   6.641
 5477POPC   C3A68849   5.242   6.119   6.892
 5477POPC   C4A68850   5.237   5.777   7.193
 5477POPC   C1B68851   4.593   5.882   6.215
 5477POPC   C2B68852   4.636   5.614   6.626
 5477POPC   C3B68853   4.704   5.596   7.119
 5477POPC   C4B68854   4.624   5.511   7.600
 5478POPC   NC368855  25.971  37.209   5.330
 5478POPC   PO468856  26.059  36.626   5.437
 5478POPC   GL168857  26.149  36.817   5.841
 5478POPC   GL268858  26.082  37.182   5.832
 5478POPC   C1A68859  26.034  36.845   6.295
 5478POPC   D2A68860  25.828  37.004   6.703
 5478POPC   C3A68861  25.890  36.790   7.087
 5478POPC   C4A68862  26.055  36.612   7.427
 5478POPC   C1B68863  26.369  37.253   6.181
 5478POPC   C2B68864  26.367  37.064   6.605
 5478POPC   C3B68865  26.184  37.237   7.004
 5478POPC   C4B68866  25.778  37.314   7.217
 5479POPC   NC368867   8.001  12.349   5.598
 5479POPC   PO468868   8.048  12.864   5.127
 5479POPC   GL168869   8.095  12.841   5.596
 5479POPC   GL268870   8.350  12.977   5.791
 5479POPC   C1A68871   7.891  12.830   6.030
 5479POPC   D2A68872   7.846  12.765   6.467
 5479POPC   C3A68873   8.120  12.906   6.755
 5479POPC   C4A68874   7.991  12.895   7.165
 5479POPC   C1B68875   8.337  12.884   6.258
 5479POPC   C2B68876   8.596  12.758   6.598
 5479POPC   C3B68877   8.624  12.514   6.952
 5479POPC   C4B68878   8.461  12.592   7.338
 5480POPC   NC368879  43.368  17.076   5.456
 5480POPC   PO468880  42.929  16.646   5.379
 5480POPC   GL168881  43.149  16.703   5.772
 5480POPC   GL268882  43.009  16.424   5.877
 5480POPC   C1A68883  43.383  16.612   6.170
 5480POPC   D2A68884  43.205  16.706   6.574
 5480POPC   C3A68885  43.322  16.619   7.002
 5480POPC   C4A68886  43.068  16.813   7.333
 5480POPC   C1B68887  42.798  16.475   6.254
 5480POPC   C2B68888  42.858  16.337   6.682
 5480POPC   C3B68889  42.757  16.626   6.999
 5480POPC   C4B68890  42.628  16.577   7.434
 5481POPC   NC368891  37.906  37.807   5.408
 5481POPC   PO468892  37.200  37.738   5.435
 5481POPC   GL168893  37.416  37.596   5.798
 5481POPC   GL268894  37.756  37.601   5.841
 5481POPC   C1A68895  37.379  37.776   6.179
 5481POPC   D2A68896  37.326  37.613   6.579
 5481POPC   C3A68897  37.312  37.821   6.942
 5481POPC   C4A68898  37.184  37.660   7.348
 5481POPC   C1B68899  37.962  37.600   6.221
 5481POPC   C2B68900  38.182  37.646   6.600
 5481POPC   C3B68901  37.908  37.632   6.940
 5481POPC   C4B68902  37.838  37.784   7.336
 5482POPC   NC368903   3.745   2.603   5.119
 5482POPC   PO468904   3.131   2.774   5.325
 5482POPC   GL168905   3.345   3.001   5.679
 5482POPC   GL268906   3.698   2.904   5.552
 5482POPC   C1A68907   3.358   3.035   6.176
 5482POPC   D2A68908   3.387   2.883   6.647
 5482POPC   C3A68909   3.320   3.125   7.056
 5482POPC   C4A68910   3.223   2.973   7.479
 5482POPC   C1B68911   3.722   2.683   5.954
 5482POPC   C2B68912   3.752   2.608   6.415
 5482POPC   C3B68913   3.724   2.504   6.867
 5482POPC   C4B68914   3.619   2.739   7.230
 5483POPC   NC368915  26.310   4.202   5.269
 5483POPC   PO468916  26.233   3.860   5.789
 5483POPC   GL168917  26.087   4.238   5.903
 5483POPC   GL268918  26.412   4.378   5.924
 5483POPC   C1A68919  26.092   4.236   6.345
 5483POPC   D2A68920  25.994   3.874   6.586
 5483POPC   C3A68921  25.970   4.042   6.987
 5483POPC   C4A68922  25.728   4.233   7.313
 5483POPC   C1B68923  26.499   4.620   6.281
 5483POPC   C2B68924  26.330   4.577   6.693
 5483POPC   C3B68925  26.134   4.546   7.111
 5483POPC   C4B68926  26.257   4.792   7.463
 5484POPC   NC368927  31.586  44.247   5.359
 5484POPC   PO468928  31.628  44.904   5.284
 5484POPC   GL168929  31.631  44.636   5.689
 5484POPC   GL268930  31.419  44.803   5.952
 5484POPC   C1A68931  31.715  44.446   6.112
 5484POPC   D2A68932  31.651  44.742   6.471
 5484POPC   C3A68933  31.675  44.599   6.900
 5484POPC   C4A68934  31.484  44.486   7.327
 5484POPC   C1B68935  31.133  44.940   6.291
 5484POPC   C2B68936  31.201   0.048   6.729
 5484POPC   C3B68937  31.398  44.962   7.137
 5484POPC   C4B68938  31.272  44.875   7.564
 5485POPC   NC368939   5.108  42.304   5.263
 5485POPC   PO468940   5.851  42.203   5.296
 5485POPC   GL168941   5.890  42.189   5.760
 5485POPC   GL268942   5.712  42.460   5.978
 5485POPC   C1A68943   6.123  42.213   6.140
 5485POPC   D2A68944   6.261  42.395   6.499
 5485POPC   C3A68945   6.073  42.218   6.854
 5485POPC   C4A68946   6.198  42.239   7.244
 5485POPC   C1B68947   5.404  42.379   6.281
 5485POPC   C2B68948   5.392  42.379   6.694
 5485POPC   C3B68949   5.430  42.610   7.024
 5485POPC   C4B68950   5.684  42.299   7.209
 5486POPC   NC368951   3.753   8.490   5.495
 5486POPC   PO468952   3.155   8.186   5.442
 5486POPC   GL168953   3.397   8.261   5.800
 5486POPC   GL268954   3.664   8.005   5.710
 5486POPC   C1A68955   3.652   8.260   6.176
 5486POPC   D2A68956   3.755   8.522   6.499
 5486POPC   C3A68957   3.873   8.308   6.869
 5486POPC   C4A68958   3.614   8.217   7.219
 5486POPC   C1B68959   3.446   7.802   6.073
 5486POPC   C2B68960   3.505   7.825   6.523
 5486POPC   C3B68961   3.440   7.802   6.985
 5486POPC   C4B68962   3.387   7.811   7.460
 5487POPC   NC368963  25.153  28.615   5.402
 5487POPC   PO468964  25.423  27.964   5.374
 5487POPC   GL168965  25.584  28.275   5.695
 5487POPC   GL268966  25.220  28.302   5.820
 5487POPC   C1A68967  25.575  28.506   6.123
 5487POPC   D2A68968  25.220  28.431   6.438
 5487POPC   C3A68969  25.152  28.585   6.866
 5487POPC   C4A68970  25.400  28.643   7.242
 5487POPC   C1B68971  24.988  28.042   6.127
 5487POPC   C2B68972  24.807  28.127   6.539
 5487POPC   C3B68973  24.968  28.099   6.940
 5487POPC   C4B68974  24.972  28.335   7.300
 5488POPC   NC368975  13.311  39.512   5.002
 5488POPC   PO468976  13.779  39.340   5.446
 5488POPC   GL168977  13.673  39.125   5.819
 5488POPC   GL268978  13.987  39.012   5.930
 5488POPC   C1A68979  13.532  38.976   6.252
 5488POPC   D2A68980  13.573  38.922   6.705
 5488POPC   C3A68981  13.466  39.287   6.946
 5488POPC   C4A68982  13.214  39.274   7.302
 5488POPC   C1B68983  13.931  39.296   6.272
 5488POPC   C2B68984  14.045  39.186   6.700
 5488POPC   C3B68985  13.893  39.053   7.100
 5488POPC   C4B68986  13.858  38.938   7.503
 5489POPC   NC368987  44.683  17.953   5.540
 5489POPC   PO468988  44.464  18.640   5.406
 5489POPC   GL168989  44.494  18.382   5.760
 5489POPC   GL268990  44.295  18.116   5.807
 5489POPC   C1A68991  44.703  18.207   6.153
 5489POPC   D2A68992  44.720  18.049   6.572
 5489POPC   C3A68993  44.866  18.330   6.936
 5489POPC   C4A68994  44.954  18.386   7.370
 5489POPC   C1B68995  44.253  17.965   6.220
 5489POPC   C2B68996  44.225  18.190   6.604
 5489POPC   C3B68997  44.411  18.126   6.971
 5489POPC   C4B68998  44.461  18.358   7.317
 5490POPC   NC368999  38.874  19.629   5.587
 5490POPC   PO469000  39.373  19.929   5.336
 5490POPC   GL169001  39.274  19.999   5.755
 5490POPC   GL269002  39.332  19.652   5.806
 5490POPC   C1A69003  39.101  19.954   6.182
 5490POPC   D2A69004  39.306  19.838   6.566
 5490POPC   C3A69005  39.329  19.999   6.989
 5490POPC   C4A69006  39.377  20.013   7.431
 5490POPC   C1B69007  39.199  19.455   6.192
 5490POPC   C2B69008  38.930  19.499   6.538
 5490POPC   C3B69009  39.104  19.532   6.932
 5490POPC   C4B69010  38.956  19.719   7.297
 5491POPC   NC369011  28.705   6.972   5.102
 5491POPC   PO469012  28.269   7.437   5.402
 5491POPC   GL169013  28.217   7.423   5.814
 5491POPC   GL269014  28.298   7.064   5.848
 5491POPC   C1A69015  28.375   7.547   6.222
 5491POPC   D2A69016  28.347   7.414   6.652
 5491POPC   C3A69017  28.237   7.674   6.987
 5491POPC   C4A69018  28.106   7.605   7.415
 5491POPC   C1B69019  28.040   7.150   6.212
 5491POPC   C2B69020  27.856   7.173   6.589
 5491POPC   C3B69021  28.016   7.222   7.006
 5491POPC   C4B69022  28.148   6.923   7.249
 5492POPC   NC369023   4.684  28.703   5.626
 5492POPC   PO469024   5.249  28.988   5.463
 5492POPC   GL169025   5.055  29.058   5.801
 5492POPC   GL269026   5.060  29.415   5.746
 5492POPC   C1A69027   4.908  28.927   6.193
 5492POPC   D2A69028   5.207  28.977   6.516
 5492POPC   C3A69029   5.072  28.909   6.918
 5492POPC   C4A69030   5.128  28.883   7.323
 5492POPC   C1B69031   5.286  29.358   6.167
 5492POPC   C2B69032   5.150  29.475   6.596
 5492POPC   C3B69033   5.225  29.406   7.031
 5492POPC   C4B69034   5.460  29.266   7.385
 5493POPC   NC369035  34.127   1.530   5.274
 5493POPC   PO469036  33.608   1.112   5.446
 5493POPC   GL169037  33.799   1.224   5.799
 5493POPC   GL269038  33.801   1.555   5.663
 5493POPC   C1A69039  33.669   1.310   6.231
 5493POPC   D2A69040  33.555   1.411   6.674
 5493POPC   C3A69041  33.763   1.214   7.042
 5493POPC   C4A69042  33.780   1.256   7.512
 5493POPC   C1B69043  34.046   1.623   6.013
 5493POPC   C2B69044  33.905   1.740   6.408
 5493POPC   C3B69045  33.953   1.698   6.842
 5493POPC   C4B69046  34.193   1.502   7.165
 5494POPC   NC369047  10.343  23.917   5.474
 5494POPC   PO469048  10.511  23.355   5.142
 5494POPC   GL169049  10.618  23.495   5.645
 5494POPC   GL269050  10.858  23.755   5.678
 5494POPC   C1A69051  10.473  23.702   6.108
 5494POPC   D2A69052  10.376  24.001   6.518
 5494POPC   C3A69053  10.374  23.914   6.986
 5494POPC   C4A69054  10.340  23.529   7.220
 5494POPC   C1B69055  10.943  23.461   6.045
 5494POPC   C2B69056  10.762  23.397   6.433
 5494POPC   C3B69057  10.695  23.531   6.826
 5494POPC   C4B69058  10.847  23.472   7.228
 5495POPC   NC369059  13.125  35.733   5.519
 5495POPC   PO469060  12.558  35.319   5.501
 5495POPC   GL169061  12.729  35.315   5.895
 5495POPC   GL269062  13.028  35.205   5.869
 5495POPC   C1A69063  12.793  35.248   6.328
 5495POPC   D2A69064  12.689  35.398   6.716
 5495POPC   C3A69065  12.745  35.251   7.152
 5495POPC   C4A69066  12.550  35.367   7.542
 5495POPC   C1B69067  13.138  35.584   6.140
 5495POPC   C2B69068  13.081  35.730   6.562
 5495POPC   C3B69069  13.053  35.628   6.985
 5495POPC   C4B69070  13.137  35.450   7.360
 5496POPC   NC369071  21.095  18.835   5.614
 5496POPC   PO469072  21.092  18.224   5.377
 5496POPC   GL169073  21.180  18.097   5.785
 5496POPC   GL269074  21.310  18.420   5.828
 5496POPC   C1A69075  21.310  18.007   6.235
 5496POPC   D2A69076  21.453  17.976   6.701
 5496POPC   C3A69077  21.133  17.941   7.037
 5496POPC   C4A69078  21.171  18.068   7.479
 5496POPC   C1B69079  21.289  18.524   6.249
 5496POPC   C2B69080  21.390  18.486   6.678
 5496POPC   C3B69081  21.181  18.453   7.032
 5496POPC   C4B69082  21.264  18.555   7.462
 5497POPC   NC369083   6.974  30.544   5.434
 5497POPC   PO469084   6.471  30.882   5.432
 5497POPC   GL169085   6.652  30.846   5.819
 5497POPC   GL269086   6.945  31.081   5.798
 5497POPC   C1A69087   6.457  30.832   6.218
 5497POPC   D2A69088   6.634  30.777   6.622
 5497POPC   C3A69089   6.462  30.976   6.993
 5497POPC   C4A69090   6.519  30.695   7.331
 5497POPC   C1B69091   6.966  30.942   6.233
 5497POPC   C2B69092   7.165  30.787   6.610
 5497POPC   C3B69093   6.972  30.858   7.007
 5497POPC   C4B69094   7.032  30.786   7.425
 5498POPC   NC369095   1.610  37.824   5.533
 5498POPC   PO469096   2.231  37.412   5.561
 5498POPC   GL169097   2.052  37.711   5.801
 5498POPC   GL269098   2.174  38.044   5.745
 5498POPC   C1A69099   1.785  37.643   6.178
 5498POPC   D2A69100   1.603  37.786   6.557
 5498POPC   C3A69101   1.666  37.501   6.886
 5498POPC   C4A69102   1.867  37.596   7.241
 5498POPC   C1B69103   2.148  38.021   6.207
 5498POPC   C2B69104   2.361  38.068   6.588
 5498POPC   C3B69105   2.228  37.945   7.009
 5498POPC   C4B69106   2.315  37.787   7.419
 5499POPC   NC369107   9.411  31.126   5.536
 5499POPC   PO469108   9.938  30.678   5.497
 5499POPC   GL169109   9.853  30.535   5.921
 5499POPC   GL269110   9.554  30.751   5.918
 5499POPC   C1A69111   9.741  30.463   6.354
 5499POPC   D2A69112   9.823  30.729   6.702
 5499POPC   C3A69113   9.750  30.626   7.103
 5499POPC   C4A69114  10.089  30.351   7.291
 5499POPC   C1B69115   9.608  30.962   6.286
 5499POPC   C2B69116   9.418  31.034   6.647
 5499POPC   C3B69117   9.244  30.782   6.888
 5499POPC   C4B69118   9.206  30.826   7.311
 5500POPC   NC369119  19.791   8.091   5.362
 5500POPC   PO469120  19.918   8.635   5.686
 5500POPC   GL169121  19.843   8.236   5.848
 5500POPC   GL269122  20.113   8.014   5.791
 5500POPC   C1A69123  19.857   8.126   6.263
 5500POPC   D2A69124  19.753   8.445   6.553
 5500POPC   C3A69125  19.943   8.326   6.921
 5500POPC   C4A69126  20.080   7.939   7.102
 5500POPC   C1B69127  20.302   8.334   6.128
 5500POPC   C2B69128  20.339   8.284   6.591
 5500POPC   C3B69129  20.411   8.487   7.015
 5500POPC   C4B69130  20.172   8.392   7.399
 5501POPC   NC369131  31.994  17.531   5.399
 5501POPC   PO469132  32.711  17.523   5.313
 5501POPC   GL169133  32.443  17.500   5.732
 5501POPC   GL269134  32.096  17.614   5.878
 5501POPC   C1A69135  32.420  17.360   6.183
 5501POPC   D2A69136  32.204  17.503   6.550
 5501POPC   C3A69137  32.132  17.199   6.840
 5501POPC   C4A69138  32.299  17.211   7.241
 5501POPC   C1B69139  32.248  17.874   6.191
 5501POPC   C2B69140  32.275  18.078   6.568
 5501POPC   C3B69141  32.240  17.888   6.973
 5501POPC   C4B69142  31.922  17.587   7.071
 5502POPC   NC369143  16.234  30.982   5.431
 5502POPC   PO469144  15.791  30.424   5.366
 5502POPC   GL169145  15.968  30.658   5.706
 5502POPC   GL269146  16.291  30.539   5.801
 5502POPC   C1A69147  15.842  30.770   6.107
 5502POPC   D2A69148  15.701  30.579   6.476
 5502POPC   C3A69149  15.788  30.779   6.850
 5502POPC   C4A69150  15.709  30.693   7.261
 5502POPC   C1B69151  16.361  30.854   6.085
 5502POPC   C2B69152  16.204  30.744   6.479
 5502POPC   C3B69153  16.293  30.862   6.856
 5502POPC   C4B69154  16.424  30.830   7.234
 5503POPC   NC369155  21.194  23.206   5.574
 5503POPC   PO469156  20.959  22.575   5.733
 5503POPC   GL169157  21.255  22.841   5.924
 5503POPC   GL269158  21.579  22.825   5.746
 5503POPC   C1A69159  21.346  23.096   6.308
 5503POPC   D2A69160  21.390  23.021   6.734
 5503POPC   C3A69161  21.144  22.702   6.892
 5503POPC   C4A69162  21.232  22.783   7.302
 5503POPC   C1B69163  21.787  23.089   6.047
 5503POPC   C2B69164  21.852  23.160   6.481
 5503POPC   C3B69165  21.786  23.318   6.892
 5503POPC   C4B69166  21.664  23.039   7.204
 5504POPC   NC369167  14.349  26.252   5.411
 5504POPC   PO469168  13.999  25.757   5.669
 5504POPC   GL169169  14.278  26.007   5.871
 5504POPC   GL269170  14.620  25.962   5.762
 5504POPC   C1A69171  14.362  25.997   6.295
 5504POPC   D2A69172  14.324  26.283   6.610
 5504POPC   C3A69173  14.459  26.114   6.970
 5504POPC   C4A69174  14.549  26.251   7.368
 5504POPC   C1B69175  14.801  25.790   6.158
 5504POPC   C2B69176  14.811  25.941   6.606
 5504POPC   C3B69177  14.812  25.739   7.028
 5504POPC   C4B69178  14.709  25.780   7.489
 5505POPC   NC369179  17.719  12.205   5.406
 5505POPC   PO469180  17.216  11.741   5.569
 5505POPC   GL169181  17.492  11.953   5.798
 5505POPC   GL269182  17.764  11.744   5.759
 5505POPC   C1A69183  17.494  12.138   6.183
 5505POPC   D2A69184  17.263  12.218   6.536
 5505POPC   C3A69185  17.447  12.286   6.887
 5505POPC   C4A69186  17.302  12.112   7.247
 5505POPC   C1B69187  17.833  11.762   6.225
 5505POPC   C2B69188  17.821  11.996   6.643
 5505POPC   C3B69189  17.739  11.892   7.098
 5505POPC   C4B69190  17.769  11.710   7.532
 5506POPC   NC369191  25.248  42.788   5.390
 5506POPC   PO469192  25.227  42.145   5.375
 5506POPC   GL169193  25.231  42.383   5.752
 5506POPC   GL269194  24.891  42.457   5.685
 5506POPC   C1A69195  25.393  42.468   6.191
 5506POPC   D2A69196  25.443  42.678   6.631
 5506POPC   C3A69197  25.328  42.534   7.081
 5506POPC   C4A69198  25.646  42.450   7.451
 5506POPC   C1B69199  24.869  42.365   6.130
 5506POPC   C2B69200  25.042  42.350   6.549
 5506POPC   C3B69201  24.940  42.160   6.913
 5506POPC   C4B69202  25.196  42.032   7.235
 5507POPC   NC369203  13.460   8.684   5.546
 5507POPC   PO469204  13.821   8.114   5.435
 5507POPC   GL169205  13.717   7.997   5.869
 5507POPC   GL269206  13.388   8.179   5.794
 5507POPC   C1A69207  13.913   8.057   6.284
 5507POPC   D2A69208  13.910   8.325   6.673
 5507POPC   C3A69209  13.685   8.166   7.011
 5507POPC   C4A69210  13.874   8.086   7.395
 5507POPC   C1B69211  13.307   8.042   6.215
 5507POPC   C2B69212  13.151   8.091   6.638
 5507POPC   C3B69213  13.174   7.857   7.018
 5507POPC   C4B69214  13.341   7.923   7.459
 5508POPC   NC369215  32.552  21.874   5.434
 5508POPC   PO469216  32.713  22.513   5.697
 5508POPC   GL169217  32.345  22.238   5.782
 5508POPC   GL269218  31.955  22.281   5.697
 5508POPC   C1A69219  32.439  22.001   6.165
 5508POPC   D2A69220  32.661  22.206   6.517
 5508POPC   C3A69221  32.445  22.184   6.928
 5508POPC   C4A69222  32.240  22.472   7.235
 5508POPC   C1B69223  31.917  22.106   6.123
 5508POPC   C2B69224  32.091  22.131   6.543
 5508POPC   C3B69225  31.947  22.071   6.969
 5508POPC   C4B69226  32.165  21.998   7.380
 5509POPC   NC369227  42.692  19.218   5.405
 5509POPC   PO469228  42.146  19.044   5.246
 5509POPC   GL169229  42.257  18.989   5.663
 5509POPC   GL269230  42.171  19.280   5.832
 5509POPC   C1A69231  42.284  18.819   6.085
 5509POPC   D2A69232  42.106  18.884   6.483
 5509POPC   C3A69233  42.401  18.929   6.795
 5509POPC   C4A69234  42.369  18.859   7.221
 5509POPC   C1B69235  42.393  19.297   6.240
 5509POPC   C2B69236  42.279  19.408   6.670
 5509POPC   C3B69237  42.444  19.342   7.119
 5509POPC   C4B69238  42.464  19.413   7.607
 5510POPC   NC369239   8.383  20.076   5.779
 5510POPC   PO469240   8.887  19.981   5.327
 5510POPC   GL169241   8.863  19.915   5.781
 5510POPC   GL269242   9.138  20.027   5.902
 5510POPC   C1A69243   8.779  20.011   6.269
 5510POPC   D2A69244   8.865  19.796   6.647
 5510POPC   C3A69245   9.013  19.998   7.001
 5510POPC   C4A69246   9.298  20.180   7.306
 5510POPC   C1B69247   9.192  19.701   6.235
 5510POPC   C2B69248   9.303  19.553   6.647
 5510POPC   C3B69249   9.083  19.489   7.026
 5510POPC   C4B69250   8.631  19.622   7.079
 5511POPC   NC369251  16.561  34.711   5.431
 5511POPC   PO469252  16.732  34.116   5.102
 5511POPC   GL169253  16.716  34.242   5.562
 5511POPC   GL269254  17.059  34.320   5.681
 5511POPC   C1A69255  16.620  34.394   6.016
 5511POPC   D2A69256  16.673  34.732   6.359
 5511POPC   C3A69257  16.618  34.651   6.809
 5511POPC   C4A69258  16.771  34.532   7.223
 5511POPC   C1B69259  17.125  34.354   6.132
 5511POPC   C2B69260  16.931  34.290   6.550
 5511POPC   C3B69261  17.126  34.222   6.962
 5511POPC   C4B69262  17.035  34.091   7.351
 5512POPC   NC369263  14.850  17.390   5.501
 5512POPC   PO469264  15.502  17.230   5.540
 5512POPC   GL169265  15.263  17.371   5.882
 5512POPC   GL269266  15.080  17.692   5.865
 5512POPC   C1A69267  15.327  17.592   6.282
 5512POPC   D2A69268  15.196  17.515   6.666
 5512POPC   C3A69269  15.478  17.629   6.974
 5512POPC   C4A69270  15.347  17.493   7.362
 5512POPC   C1B69271  14.853  17.417   6.197
 5512POPC   C2B69272  14.794  17.179   6.602
 5512POPC   C3B69273  14.906  17.329   7.053
 5512POPC   C4B69274  14.862  17.674   7.372
 5513POPC   NC369275   1.980  33.531   5.445
 5513POPC   PO469276   1.607  34.111   5.412
 5513POPC   GL169277   1.771  33.964   5.844
 5513POPC   GL269278   1.989  33.641   5.933
 5513POPC   C1A69279   1.656  33.777   6.272
 5513POPC   D2A69280   2.021  33.647   6.524
 5513POPC   C3A69281   1.991  33.880   6.907
 5513POPC   C4A69282   1.812  34.156   7.222
 5513POPC   C1B69283   2.311  33.382   6.136
 5513POPC   C2B69284   2.458  33.360   6.542
 5513POPC   C3B69285   2.448  33.624   6.919
 5513POPC   C4B69286   2.233  33.591   7.300
 5514POPC   NC369287  39.252  30.385   4.975
 5514POPC   PO469288  39.353  29.853   5.408
 5514POPC   GL169289  39.225  29.872   5.824
 5514POPC   GL269290  38.944  29.616   5.762
 5514POPC   C1A69291  39.408  29.910   6.278
 5514POPC   D2A69292  39.641  29.725   6.673
 5514POPC   C3A69293  39.512  29.933   7.051
 5514POPC   C4A69294  39.099  30.102   7.102
 5514POPC   C1B69295  38.845  29.812   6.162
 5514POPC   C2B69296  38.785  29.910   6.596
 5514POPC   C3B69297  38.817  29.693   6.994
 5514POPC   C4B69298  38.802  29.604   7.432
 5515POPC   NC369299  19.744  10.453   5.399
 5515POPC   PO469300  20.343  10.433   5.514
 5515POPC   GL169301  20.007  10.206   5.797
 5515POPC   GL269302  19.606  10.228   5.828
 5515POPC   C1A69303  19.964  10.382   6.219
 5515POPC   D2A69304  20.158  10.648   6.548
 5515POPC   C3A69305  20.044  10.528   6.959
 5515POPC   C4A69306  19.982  10.710   7.386
 5515POPC   C1B69307  19.462  10.409   6.215
 5515POPC   C2B69308  19.629  10.628   6.616
 5515POPC   C3B69309  19.560  10.668   7.079
 5515POPC   C4B69310  19.449  10.354   7.390
 5516POPC   NC369311  36.874  17.135   5.546
 5516POPC   PO469312  37.233  17.660   5.417
 5516POPC   GL169313  37.116  17.635   5.867
 5516POPC   GL269314  36.777  17.603   5.817
 5516POPC   C1A69315  37.082  17.482   6.324
 5516POPC   D2A69316  36.839  17.077   6.486
 5516POPC   C3A69317  36.602  17.160   6.864
 5516POPC   C4A69318  36.779  17.437   7.165
 5516POPC   C1B69319  36.606  17.395   6.174
 5516POPC   C2B69320  36.658  17.623   6.607
 5516POPC   C3B69321  36.837  17.905   6.941
 5516POPC   C4B69322  36.734  17.942   7.368
 5517POPC   NC369323  20.271   2.781   5.323
 5517POPC   PO469324  19.609   2.581   5.091
 5517POPC   GL169325  19.800   2.598   5.565
 5517POPC   GL269326  19.949   2.902   5.710
 5517POPC   C1A69327  19.857   2.543   6.044
 5517POPC   D2A69328  19.750   2.827   6.438
 5517POPC   C3A69329  19.789   2.711   6.924
 5517POPC   C4A69330  19.969   2.407   7.273
 5517POPC   C1B69331  20.196   2.956   6.119
 5517POPC   C2B69332  20.235   2.982   6.592
 5517POPC   C3B69333  20.047   3.206   6.933
 5517POPC   C4B69334  19.723   3.135   7.258
 5518POPC   NC369335   4.974  31.037   5.502
 5518POPC   PO469336   5.388  30.636   5.221
 5518POPC   GL169337   5.420  30.780   5.662
 5518POPC   GL269338   5.116  30.628   5.789
 5518POPC   C1A69339   5.398  30.821   6.150
 5518POPC   D2A69340   5.284  30.596   6.540
 5518POPC   C3A69341   5.398  30.775   6.957
 5518POPC   C4A69342   5.207  30.624   7.335
 5518POPC   C1B69343   4.861  30.784   6.151
 5518POPC   C2B69344   4.771  30.631   6.550
 5518POPC   C3B69345   4.885  30.742   6.947
 5518POPC   C4B69346   4.717  30.875   7.311
 5519POPC   NC369347  31.514  26.622   5.337
 5519POPC   PO469348  31.203  27.223   5.327
 5519POPC   GL169349  31.377  27.004   5.733
 5519POPC   GL269350  31.507  26.660   5.827
 5519POPC   C1A69351  31.507  27.024   6.194
 5519POPC   D2A69352  31.397  27.246   6.570
 5519POPC   C3A69353  31.347  27.007   6.928
 5519POPC   C4A69354  31.400  26.762   7.339
 5519POPC   C1B69355  31.768  26.584   6.161
 5519POPC   C2B69356  31.659  26.585   6.565
 5519POPC   C3B69357  31.771  26.751   6.949
 5519POPC   C4B69358  31.910  26.889   7.345
 5520POPC   NC369359   2.631  37.307   5.326
 5520POPC   PO469360   3.212  36.973   5.346
 5520POPC   GL169361   2.983  37.060   5.745
 5520POPC   GL269362   2.616  36.954   5.728
 5520POPC   C1A69363   2.969  36.804   6.144
 5520POPC   D2A69364   2.849  36.901   6.558
 5520POPC   C3A69365   3.159  36.929   6.890
 5520POPC   C4A69366   3.061  36.551   7.086
 5520POPC   C1B69367   2.473  37.018   6.163
 5520POPC   C2B69368   2.398  37.144   6.599
 5520POPC   C3B69369   2.722  37.223   6.937
 5520POPC   C4B69370   2.797  36.932   7.270
 5521POPC   NC369371  21.496  20.068   5.259
 5521POPC   PO469372  21.468  19.393   5.213
 5521POPC   GL169373  21.503  19.752   5.653
 5521POPC   GL269374  21.641  20.120   5.747
 5521POPC   C1A69375  21.267  19.992   6.040
 5521POPC   D2A69376  21.422  19.958   6.454
 5521POPC   C3A69377  21.385  19.957   6.905
 5521POPC   C4A69378  21.446  19.913   7.342
 5521POPC   C1B69379  21.753  20.255   6.196
 5521POPC   C2B69380  21.611  20.368   6.678
 5521POPC   C3B69381  21.769  20.243   7.131
 5521POPC   C4B69382  21.766  20.154   7.642
 5522POPC   NC369383   4.570  11.688   5.521
 5522POPC   PO469384   4.597  12.374   5.525
 5522POPC   GL169385   4.416  12.119   5.815
 5522POPC   GL269386   4.663  11.926   5.974
 5522POPC   C1A69387   4.223  12.085   6.219
 5522POPC   D2A69388   4.385  12.085   6.643
 5522POPC   C3A69389   4.182  11.946   7.021
 5522POPC   C4A69390   4.030  12.072   7.443
 5522POPC   C1B69391   4.691  12.312   6.229
 5522POPC   C2B69392   4.675  12.503   6.615
 5522POPC   C3B69393   4.724  12.266   6.992
 5522POPC   C4B69394   4.558  12.087   7.391
 5523POPC   NC369395   6.060  23.071   5.408
 5523POPC   PO469396   5.637  22.530   5.430
 5523POPC   GL169397   5.806  22.726   5.773
 5523POPC   GL269398   5.726  23.086   5.820
 5523POPC   C1A69399   6.018  22.707   6.150
 5523POPC   D2A69400   5.914  22.826   6.573
 5523POPC   C3A69401   5.703  22.761   6.989
 5523POPC   C4A69402   5.990  22.786   7.327
 5523POPC   C1B69403   5.556  22.937   6.212
 5523POPC   C2B69404   5.435  23.021   6.613
 5523POPC   C3B69405   5.759  23.259   6.808
 5523POPC   C4B69406   5.825  23.269   7.228
 5524POPC   NC369407  16.760  36.604   5.584
 5524POPC   PO469408  16.584  37.293   5.494
 5524POPC   GL169409  16.559  37.022   5.831
 5524POPC   GL269410  16.918  37.001   5.895
 5524POPC   C1A69411  16.371  36.828   6.194
 5524POPC   D2A69412  16.502  36.923   6.607
 5524POPC   C3A69413  16.480  36.622   6.921
 5524POPC   C4A69414  16.542  36.797   7.300
 5524POPC   C1B69415  16.862  36.735   6.252
 5524POPC   C2B69416  16.952  36.708   6.675
 5524POPC   C3B69417  16.990  36.955   7.012
 5524POPC   C4B69418  17.073  36.631   7.249
 5525POPC   NC369419  38.693  13.864   5.060
 5525POPC   PO469420  38.426  13.527   5.586
 5525POPC   GL169421  38.331  13.758   5.956
 5525POPC   GL269422  38.597  13.962   5.836
 5525POPC   C1A69423  38.301  13.742   6.406
 5525POPC   D2A69424  38.357  13.531   6.783
 5525POPC   C3A69425  38.115  13.647   7.113
 5525POPC   C4A69426  38.064  13.578   7.509
 5525POPC   C1B69427  38.774  13.731   6.200
 5525POPC   C2B69428  38.795  13.793   6.636
 5525POPC   C3B69429  38.841  13.491   6.947
 5525POPC   C4B69430  38.550  13.415   7.261
 5526POPC   NC369431  44.637   0.680   5.583
 5526POPC   PO469432  44.940   0.139   5.329
 5526POPC   GL169433  44.916   0.278   5.777
 5526POPC   GL269434  44.584   0.265   5.895
 5526POPC   C1A69435  44.914   0.135   6.236
 5526POPC   D2A69436  44.919   0.323   6.654
 5526POPC   C3A69437  44.591   0.125   6.906
 5526POPC   C4A69438  44.552   0.021   7.348
 5526POPC   C1B69439  44.765   0.618   6.198
 5526POPC   C2B69440  44.850   0.858   6.553
 5526POPC   C3B69441  44.686   0.841   6.970
 5526POPC   C4B69442  44.609   0.516   7.225
 5527POPC   NC369443  28.104  18.235   5.234
 5527POPC   PO469444  28.543  17.840   5.087
 5527POPC   GL169445  28.364  17.961   5.600
 5527POPC   GL269446  28.654  18.011   5.854
 5527POPC   C1A69447  28.289  18.322   5.976
 5527POPC   D2A69448  28.354  18.499   6.430
 5527POPC   C3A69449  28.064  18.422   6.822
 5527POPC   C4A69450  28.130  18.331   7.288
 5527POPC   C1B69451  28.501  17.944   6.251
 5527POPC   C2B69452  28.207  18.012   6.563
 5527POPC   C3B69453  28.435  18.096   6.930
 5527POPC   C4B69454  28.590  17.932   7.276
 5528POPC   NC369455  29.403   7.540   5.538
 5528POPC   PO469456  29.129   6.940   5.291
 5528POPC   GL169457  29.079   7.137   5.721
 5528POPC   GL269458  28.745   7.338   5.709
 5528POPC   C1A69459  29.250   7.245   6.168
 5528POPC   D2A69460  29.457   7.111   6.571
 5528POPC   C3A69461  29.226   7.263   6.917
 5528POPC   C4A69462  29.201   7.676   7.097
 5528POPC   C1B69463  28.728   7.152   6.136
 5528POPC   C2B69464  28.849   7.264   6.568
 5528POPC   C3B69465  28.748   7.433   6.992
 5528POPC   C4B69466  28.491   7.301   7.307
 5529POPC   NC369467  24.018   8.851   5.510
 5529POPC   PO469468  23.777   9.406   5.446
 5529POPC   GL169469  23.713   9.151   5.845
 5529POPC   GL269470  23.671   8.775   5.847
 5529POPC   C1A69471  23.735   9.000   6.287
 5529POPC   D2A69472  24.019   8.913   6.616
 5529POPC   C3A69473  23.691   8.901   6.923
 5529POPC   C4A69474  23.787   9.152   7.238
 5529POPC   C1B69475  23.462   8.559   6.155
 5529POPC   C2B69476  23.290   8.730   6.534
 5529POPC   C3B69477  23.317   8.442   6.854
 5529POPC   C4B69478  23.552   8.427   7.207
 5530POPC   NC369479  32.370  10.896   4.832
 5530POPC   PO469480  32.403  11.432   5.262
 5530POPC   GL169481  32.368  11.293   5.697
 5530POPC   GL269482  32.691  11.102   5.726
 5530POPC   C1A69483  32.226  11.405   6.113
 5530POPC   D2A69484  32.112  11.461   6.535
 5530POPC   C3A69485  31.990  11.179   6.838
 5530POPC   C4A69486  32.023  11.349   7.262
 5530POPC   C1B69487  32.508  10.992   6.128
 5530POPC   C2B69488  32.524  11.165   6.549
 5530POPC   C3B69489  32.458  11.272   6.989
 5530POPC   C4B69490  32.563  11.027   7.328
 5531POPC   NC369491  44.728  41.141   5.535
 5531POPC   PO469492  44.626  40.394   5.430
 5531POPC   GL169493  44.741  40.572   5.840
 5531POPC   GL269494   0.095  40.736   5.782
 5531POPC   C1A69495  44.556  40.677   6.263
 5531POPC   D2A69496  44.364  40.666   6.688
 5531POPC   C3A69497  44.643  40.700   7.066
 5531POPC   C4A69498   0.066  40.494   7.144
 5531POPC   C1B69499   0.038  40.869   6.196
 5531POPC   C2B69500  44.914  40.783   6.620
 5531POPC   C3B69501   0.069  40.976   6.963
 5531POPC   C4B69502  44.973  40.947   7.377
 5532POPC   NC369503  21.860   3.132   5.590
 5532POPC   PO469504  22.314   2.697   5.262
 5532POPC   GL169505  22.068   2.655   5.617
 5532POPC   GL269506  22.336   2.849   5.801
 5532POPC   C1A69507  21.985   2.550   6.062
 5532POPC   D2A69508  21.999   2.835   6.432
 5532POPC   C3A69509  21.879   2.736   6.875
 5532POPC   C4A69510  22.026   2.685   7.309
 5532POPC   C1B69511  22.499   3.055   6.206
 5532POPC   C2B69512  22.384   3.138   6.624
 5532POPC   C3B69513  22.271   3.060   7.050
 5532POPC   C4B69514  22.428   3.009   7.459
 5533POPC   NC369515  22.640   9.605   5.582
 5533POPC   PO469516  22.020   9.407   5.550
 5533POPC   GL169517  22.009   9.732   5.837
 5533POPC   GL269518  22.332   9.958   5.812
 5533POPC   C1A69519  21.918   9.580   6.276
 5533POPC   D2A69520  22.028   9.339   6.660
 5533POPC   C3A69521  22.229   9.597   7.006
 5533POPC   C4A69522  21.898   9.780   7.233
 5533POPC   C1B69523  22.114  10.073   6.197
 5533POPC   C2B69524  22.055   9.942   6.630
 5533POPC   C3B69525  22.241  10.094   6.974
 5533POPC   C4B69526  22.332  10.014   7.384
 5534POPC   NC369527   4.228  12.622   5.415
 5534POPC   PO469528   4.501  13.223   5.300
 5534POPC   GL169529   4.483  13.006   5.710
 5534POPC   GL269530   4.684  12.741   5.848
 5534POPC   C1A69531   4.435  13.115   6.161
 5534POPC   D2A69532   4.191  13.053   6.556
 5534POPC   C3A69533   4.418  12.863   6.896
 5534POPC   C4A69534   4.522  12.977   7.321
 5534POPC   C1B69535   4.303  12.620   6.083
 5534POPC   C2B69536   4.146  12.527   6.480
 5534POPC   C3B69537   4.004  12.392   6.865
 5534POPC   C4B69538   4.282  12.450   7.175
 5535POPC   NC369539  29.675  33.069   5.497
 5535POPC   PO469540  30.232  32.815   5.272
 5535POPC   GL169541  29.995  32.742   5.725
 5535POPC   GL269542  29.620  32.800   5.913
 5535POPC   C1A69543  30.041  32.894   6.156
 5535POPC   D2A69544  30.016  32.720   6.544
 5535POPC   C3A69545  29.760  32.857   6.862
 5535POPC   C4A69546  29.900  32.848   7.259
 5535POPC   C1B69547  29.506  33.112   6.197
 5535POPC   C2B69548  29.402  33.150   6.612
 5535POPC   C3B69549  29.710  33.371   6.854
 5535POPC   C4B69550  29.925  33.351   7.196
 5536POPC   NC369551   4.716   0.675   5.438
 5536POPC   PO469552   4.387   0.102   5.503
 5536POPC   GL169553   4.201   0.199   5.872
 5536POPC   GL269554   4.153   0.540   5.774
 5536POPC   C1A69555   4.269   0.315   6.304
 5536POPC   D2A69556   4.236   0.532   6.692
 5536POPC   C3A69557   4.447   0.376   7.012
 5536POPC   C4A69558   4.598  44.966   7.123
 5536POPC   C1B69559   4.273   0.813   6.145
 5536POPC   C2B69560   4.249   1.040   6.544
 5536POPC   C3B69561   4.138   0.956   6.979
 5536POPC   C4B69562   4.385   0.808   7.309
 5537POPC   NC369563   2.726  25.631   5.271
 5537POPC   PO469564   2.885  25.012   5.507
 5537POPC   GL169565   2.701  25.104   5.868
 5537POPC   GL269566   2.894  25.375   5.949
 5537POPC   C1A69567   2.754  25.046   6.288
 5537POPC   D2A69568   3.007  24.913   6.553
 5537POPC   C3A69569   2.825  24.956   6.924
 5537POPC   C4A69570   3.120  25.035   7.247
 5537POPC   C1B69571   2.637  25.551   6.274
 5537POPC   C2B69572   2.667  25.380   6.678
 5537POPC   C3B69573   2.728  25.435   7.093
 5537POPC   C4B69574   2.418  25.369   7.398
 5538POPC   NC369575  37.022  11.136   5.044
 5538POPC   PO469576  36.603  11.549   5.351
 5538POPC   GL169577  36.835  11.363   5.738
 5538POPC   GL269578  36.905  11.033   5.828
 5538POPC   C1A69579  36.811  11.435   6.170
 5538POPC   D2A69580  36.890  11.614   6.561
 5538POPC   C3A69581  36.745  11.373   6.903
 5538POPC   C4A69582  36.905  11.559   7.250
 5538POPC   C1B69583  36.908  10.745   6.177
 5538POPC   C2B69584  37.101  10.718   6.589
 5538POPC   C3B69585  36.935  10.871   6.979
 5538POPC   C4B69586  36.774  11.082   7.369
 5539POPC   NC369587  39.359  26.665   5.190
 5539POPC   PO469588  39.240  26.002   5.378
 5539POPC   GL169589  39.399  26.348   5.639
 5539POPC   GL269590  39.139  26.411   5.871
 5539POPC   C1A69591  39.598  26.282   6.052
 5539POPC   D2A69592  39.471  26.126   6.467
 5539POPC   C3A69593  39.500  26.352   6.840
 5539POPC   C4A69594  39.527  26.163   7.211
 5539POPC   C1B69595  39.114  26.003   6.086
 5539POPC   C2B69596  38.976  25.950   6.512
 5539POPC   C3B69597  39.155  25.940   6.935
 5539POPC   C4B69598  39.023  26.241   7.275
 5540POPC   NC369599  44.153  40.325   5.493
 5540POPC   PO469600  43.540  39.768   5.361
 5540POPC   GL169601  43.699  39.945   5.743
 5540POPC   GL269602  43.785  39.656   5.961
 5540POPC   C1A69603  43.657  40.090   6.174
 5540POPC   D2A69604  43.774  39.888   6.566
 5540POPC   C3A69605  43.544  40.042   6.936
 5540POPC   C4A69606  43.757  40.133   7.302
 5540POPC   C1B69607  44.174  39.731   6.191
 5540POPC   C2B69608  44.344  39.542   6.539
 5540POPC   C3B69609  44.153  39.646   6.870
 5540POPC   C4B69610  44.215  39.958   7.165
 5541POPC   NC369611   8.730  25.883   5.472
 5541POPC   PO469612   8.123  26.205   5.469
 5541POPC   GL169613   8.079  26.052   5.881
 5541POPC   GL269614   8.361  25.827   5.869
 5541POPC   C1A69615   7.969  25.922   6.306
 5541POPC   D2A69616   7.989  26.005   6.771
 5541POPC   C3A69617   7.906  25.845   7.181
 5541POPC   C4A69618   7.728  26.196   7.297
 5541POPC   C1B69619   8.473  25.989   6.302
 5541POPC   C2B69620   8.483  26.060   6.754
 5541POPC   C3B69621   8.412  25.876   7.167
 5541POPC   C4B69622   8.615  25.493   7.361
 5542POPC   NC369623  31.398  13.767   5.455
 5542POPC   PO469624  31.797  13.255   5.521
 5542POPC   GL169625  31.539  13.545   5.882
 5542POPC   GL269626  31.206  13.811   5.913
 5542POPC   C1A69627  31.614  13.705   6.309
 5542POPC   D2A69628  31.642  13.537   6.744
 5542POPC   C3A69629  31.418  13.679   7.142
 5542POPC   C4A69630  31.506  13.651   7.616
 5542POPC   C1B69631  31.135  13.499   6.191
 5542POPC   C2B69632  31.127  13.460   6.606
 5542POPC   C3B69633  31.065  13.319   7.010
 5542POPC   C4B69634  31.026  13.453   7.408
 5543POPC   NC369635   8.800  34.017   5.271
 5543POPC   PO469636   9.437  33.844   5.248
 5543POPC   GL169637   9.235  33.720   5.645
 5543POPC   GL269638   8.872  33.587   5.615
 5543POPC   C1A69639   9.084  33.910   6.023
 5543POPC   D2A69640   9.057  34.116   6.428
 5543POPC   C3A69641   9.061  33.880   6.792
 5543POPC   C4A69642   9.076  33.831   7.219
 5543POPC   C1B69643   8.678  33.603   6.016
 5543POPC   C2B69644   8.848  33.589   6.423
 5543POPC   C3B69645   8.678  33.560   6.842
 5543POPC   C4B69646   8.595  33.610   7.267
 5544POPC   NC369647  30.721   0.253   5.259
 5544POPC   PO469648  30.244   0.715   5.283
 5544POPC   GL169649  30.509   0.533   5.697
 5544POPC   GL269650  30.824   0.251   5.764
 5544POPC   C1A69651  30.701   0.668   6.136
 5544POPC   D2A69652  30.891   0.476   6.531
 5544POPC   C3A69653  30.851   0.592   6.968
 5544POPC   C4A69654  30.921   0.195   7.205
 5544POPC   C1B69655  30.646   0.162   6.186
 5544POPC   C2B69656  30.394   0.315   6.559
 5544POPC   C3B69657  30.407   0.349   7.035
 5544POPC   C4B69658  30.351   0.303   7.474
 5545POPC   NC369659  22.892  42.566   5.640
 5545POPC   PO469660  22.920  43.193   5.453
 5545POPC   GL169661  22.848  43.248   5.882
 5545POPC   GL269662  22.899  43.591   6.024
 5545POPC   C1A69663  22.748  43.080   6.282
 5545POPC   D2A69664  22.812  43.267   6.677
 5545POPC   C3A69665  22.725  43.008   6.985
 5545POPC   C4A69666  22.960  42.823   7.276
 5545POPC   C1B69667  23.182  43.326   6.286
 5545POPC   C2B69668  23.242  43.014   6.608
 5545POPC   C3B69669  23.226  43.192   6.993
 5545POPC   C4B69670  22.903  43.444   7.174
 5546POPC   NC369671  44.019  13.139   5.239
 5546POPC   PO469672  44.028  12.568   5.515
 5546POPC   GL169673  43.946  12.830   5.854
 5546POPC   GL269674  43.689  13.040   5.776
 5546POPC   C1A69675  43.784  12.743   6.271
 5546POPC   D2A69676  43.734  12.484   6.643
 5546POPC   C3A69677  43.770  12.724   6.995
 5546POPC   C4A69678  43.937  12.857   7.380
 5546POPC   C1B69679  43.715  13.249   6.195
 5546POPC   C2B69680  43.648  13.119   6.656
 5546POPC   C3B69681  43.651  13.206   7.111
 5546POPC   C4B69682  43.747  13.292   7.555
 5547POPC   NC369683  31.986  34.086   5.162
 5547POPC   PO469684  32.392  33.619   5.313
 5547POPC   GL169685  32.410  33.825   5.746
 5547POPC   GL269686  32.357  33.517   5.897
 5547POPC   C1A69687  32.309  33.931   6.182
 5547POPC   D2A69688  32.366  34.097   6.583
 5547POPC   C3A69689  32.302  33.815   6.943
 5547POPC   C4A69690  32.156  33.915   7.359
 5547POPC   C1B69691  32.461  33.298   6.295
 5547POPC   C2B69692  32.421  33.338   6.738
 5547POPC   C3B69693  32.535  33.393   7.199
 5547POPC   C4B69694  32.338  33.522   7.635
 5548POPC   NC369695  12.895  11.354   5.327
 5548POPC   PO469696  12.305  11.487   5.153
 5548POPC   GL169697  12.512  11.337   5.660
 5548POPC   GL269698  12.489  10.982   5.700
 5548POPC   C1A69699  12.859  11.421   6.057
 5548POPC   D2A69700  13.150  11.427   6.495
 5548POPC   C3A69701  13.027  11.585   6.950
 5548POPC   C4A69702  12.691  11.459   7.265
 5548POPC   C1B69703  12.725  10.889   6.078
 5548POPC   C2B69704  12.742  11.113   6.448
 5548POPC   C3B69705  12.803  11.114   6.877
 5548POPC   C4B69706  12.761  10.770   7.144
 5549POPC   NC369707  43.024  18.119   5.621
 5549POPC   PO469708  42.788  18.752   5.459
 5549POPC   GL169709  42.959  18.579   5.832
 5549POPC   GL269710  42.644  18.440   5.913
 5549POPC   C1A69711  43.193  18.494   6.216
 5549POPC   D2A69712  43.190  18.329   6.609
 5549POPC   C3A69713  43.223  18.512   6.998
 5549POPC   C4A69714  43.246  18.329   7.411
 5549POPC   C1B69715  42.786  18.165   6.265
 5549POPC   C2B69716  42.750  18.107   6.717
 5549POPC   C3B69717  42.890  18.085   7.125
 5549POPC   C4B69718  42.822  18.093   7.591
 5550POPC   NC369719  41.694  38.655   5.342
 5550POPC   PO469720  41.738  38.036   5.436
 5550POPC   GL169721  41.644  38.387   5.771
 5550POPC   GL269722  41.522  38.753   5.823
 5550POPC   C1A69723  41.536  38.382   6.206
 5550POPC   D2A69724  41.510  38.091   6.539
 5550POPC   C3A69725  41.697  38.145   6.931
 5550POPC   C4A69726  41.535  38.157   7.311
 5550POPC   C1B69727  41.708  38.860   6.249
 5550POPC   C2B69728  41.679  38.611   6.674
 5550POPC   C3B69729  41.524  38.727   7.104
 5550POPC   C4B69730  41.727  38.906   7.485
 5551POPC   NC369731  29.190  36.208   5.466
 5551POPC   PO469732  29.677  35.730   5.482
 5551POPC   GL169733  29.477  35.930   5.813
 5551POPC   GL269734  29.146  35.861   5.856
 5551POPC   C1A69735  29.452  36.073   6.229
 5551POPC   D2A69736  29.213  36.137   6.588
 5551POPC   C3A69737  29.411  36.102   7.018
 5551POPC   C4A69738  29.168  36.135   7.391
 5551POPC   C1B69739  28.881  36.041   6.172
 5551POPC   C2B69740  28.725  35.930   6.566
 5551POPC   C3B69741  28.894  35.989   6.951
 5551POPC   C4B69742  28.898  35.703   7.243
 5552POPC   NC369743  39.989  10.818   5.460
 5552POPC   PO469744  40.094  11.505   5.341
 5552POPC   GL169745  40.067  11.235   5.733
 5552POPC   GL269746  40.387  11.074   5.775
 5552POPC   C1A69747  39.947  11.064   6.147
 5552POPC   D2A69748  39.951  11.348   6.507
 5552POPC   C3A69749  39.896  11.163   6.914
 5552POPC   C4A69750  39.886  11.060   7.367
 5552POPC   C1B69751  40.385  11.338   6.147
 5552POPC   C2B69752  40.474  11.490   6.548
 5552POPC   C3B69753  40.477  11.247   6.929
 5552POPC   C4B69754  40.357  11.208   7.310
 5553POPC   NC369755  29.506  44.180   5.457
 5553POPC   PO469756  29.027  44.597   5.287
 5553POPC   GL169757  29.266  44.677   5.718
 5553POPC   GL269758  29.570  44.913   5.746
 5553POPC   C1A69759  29.170  44.565   6.178
 5553POPC   D2A69760  29.282  44.553   6.624
 5553POPC   C3A69761  29.032  44.458   6.994
 5553POPC   C4A69762  28.745  44.635   7.303
 5553POPC   C1B69763  29.428   0.030   6.182
 5553POPC   C2B69764  29.317   0.078   6.614
 5553POPC   C3B69765  29.363  44.843   7.040
 5553POPC   C4B69766  29.228  44.631   7.445
 5554POPC   NC369767  19.384  42.768   5.493
 5554POPC   PO469768  19.815  42.303   5.274
 5554POPC   GL169769  19.778  42.275   5.785
 5554POPC   GL269770  19.472  42.115   5.953
 5554POPC   C1A69771  19.893  42.181   6.250
 5554POPC   D2A69772  19.608  42.132   6.614
 5554POPC   C3A69773  19.780  42.301   6.993
 5554POPC   C4A69774  20.010  42.141   7.291
 5554POPC   C1B69775  19.511  42.514   6.233
 5554POPC   C2B69776  19.581  42.654   6.688
 5554POPC   C3B69777  19.609  42.787   7.155
 5554POPC   C4B69778  19.632  42.861   7.633
 5555POPC   NC369779   6.921   5.885   5.480
 5555POPC   PO469780   6.297   5.897   5.461
 5555POPC   GL169781   6.529   6.064   5.817
 5555POPC   GL269782   6.879   6.069   5.957
 5555POPC   C1A69783   6.422   5.855   6.179
 5555POPC   D2A69784   6.539   5.632   6.534
 5555POPC   C3A69785   6.880   5.836   6.722
 5555POPC   C4A69786   6.745   5.869   7.140
 5555POPC   C1B69787   6.720   6.219   6.356
 5555POPC   C2B69788   6.445   6.096   6.712
 5555POPC   C3B69789   6.400   6.258   7.118
 5555POPC   C4B69790   6.552   6.233   7.529
 5556POPC   NC369791  40.683   3.377   5.399
 5556POPC   PO469792  41.138   3.937   5.360
 5556POPC   GL169793  41.045   3.738   5.795
 5556POPC   GL269794  40.942   3.377   5.823
 5556POPC   C1A69795  40.762   3.646   6.190
 5556POPC   D2A69796  40.477   3.751   6.490
 5556POPC   C3A69797  40.608   3.864   6.884
 5556POPC   C4A69798  40.961   3.707   7.128
 5556POPC   C1B69799  40.568   3.194   6.053
 5556POPC   C2B69800  40.635   3.110   6.483
 5556POPC   C3B69801  40.701   3.364   6.822
 5556POPC   C4B69802  40.516   3.471   7.222
 5557POPC   NC369803  14.814  31.169   5.420
 5557POPC   PO469804  14.299  31.566   5.366
 5557POPC   GL169805  14.604  31.525   5.754
 5557POPC   GL269806  14.303  31.379   5.948
 5557POPC   C1A69807  14.673  31.552   6.227
 5557POPC   D2A69808  14.273  31.442   6.475
 5557POPC   C3A69809  14.234  31.547   6.909
 5557POPC   C4A69810  14.633  31.504   7.130
 5557POPC   C1B69811  14.541  31.050   6.225
 5557POPC   C2B69812  14.650  30.810   6.641
 5557POPC   C3B69813  14.777  30.968   7.074
 5557POPC   C4B69814  14.546  31.111   7.459
 5558POPC   NC369815  32.849  17.952   5.453
 5558POPC   PO469816  32.519  18.502   5.380
 5558POPC   GL169817  32.890  18.430   5.704
 5558POPC   GL269818  33.087  18.127   5.859
 5558POPC   C1A69819  33.008  18.570   6.136
 5558POPC   D2A69820  33.142  18.651   6.564
 5558POPC   C3A69821  32.907  18.649   6.920
 5558POPC   C4A69822  33.056  18.366   7.229
 5558POPC   C1B69823  33.092  18.067   6.316
 5558POPC   C2B69824  33.221  18.111   6.750
 5558POPC   C3B69825  33.101  17.869   7.117
 5558POPC   C4B69826  33.234  17.966   7.556
 5559POPC   NC369827  37.454  10.878   5.432
 5559POPC   PO469828  37.199  10.165   5.348
 5559POPC   GL169829  37.417  10.350   5.767
 5559POPC   GL269830  37.321  10.685   5.885
 5559POPC   C1A69831  37.610  10.377   6.206
 5559POPC   D2A69832  37.630  10.645   6.593
 5559POPC   C3A69833  37.702  10.426   6.946
 5559POPC   C4A69834  37.554  10.188   7.240
 5559POPC   C1B69835  37.679  10.880   6.135
 5559POPC   C2B69836  38.076  10.789   6.396
 5559POPC   C3B69837  38.093  10.785   6.863
 5559POPC   C4B69838  37.721  10.894   7.145
 5560POPC   NC369839  34.361  16.929   5.286
 5560POPC   PO469840  34.192  17.470   5.587
 5560POPC   GL169841  34.640  17.487   5.722
 5560POPC   GL269842  34.689  17.130   5.671
 5560POPC   C1A69843  34.750  17.605   6.154
 5560POPC   D2A69844  34.475  17.554   6.509
 5560POPC   C3A69845  34.715  17.596   6.870
 5560POPC   C4A69846  34.534  17.466   7.247
 5560POPC   C1B69847  34.468  17.177   6.098
 5560POPC   C2B69848  34.435  17.020   6.481
 5560POPC   C3B69849  34.455  17.133   6.880
 5560POPC   C4B69850  34.259  16.947   7.235
 5561POPC   NC369851  38.362  17.328   5.585
 5561POPC   PO469852  38.618  17.878   5.193
 5561POPC   GL169853  38.487  17.814   5.659
 5561POPC   GL269854  38.816  17.686   5.700
 5561POPC   C1A69855  38.326  17.774   6.123
 5561POPC   D2A69856  38.491  17.665   6.557
 5561POPC   C3A69857  38.242  17.621   6.952
 5561POPC   C4A69858  38.123  17.243   7.229
 5561POPC   C1B69859  38.865  17.660   6.160
 5561POPC   C2B69860  39.009  17.697   6.602
 5561POPC   C3B69861  38.846  17.537   6.977
 5561POPC   C4B69862  38.633  17.743   7.294
 5562POPC   NC369863  32.795  36.862   5.382
 5562POPC   PO469864  33.412  37.160   5.454
 5562POPC   GL169865  33.182  36.952   5.734
 5562POPC   GL269866  32.981  37.176   5.884
 5562POPC   C1A69867  33.250  36.794   6.124
 5562POPC   D2A69868  33.234  36.974   6.525
 5562POPC   C3A69869  33.343  36.732   6.887
 5562POPC   C4A69870  33.112  36.777   7.275
 5562POPC   C1B69871  32.722  37.317   6.198
 5562POPC   C2B69872  32.758  37.376   6.626
 5562POPC   C3B69873  32.978  37.164   6.954
 5562POPC   C4B69874  32.750  37.146   7.369
 5563POPC   NC369875   1.753  13.080   5.566
 5563POPC   PO469876   2.318  12.770   5.379
 5563POPC   GL169877   2.050  12.721   5.800
 5563POPC   GL269878   1.718  12.583   5.835
 5563POPC   C1A69879   1.869  12.911   6.202
 5563POPC   D2A69880   2.135  12.992   6.524
 5563POPC   C3A69881   1.913  13.076   6.877
 5563POPC   C4A69882   2.027  13.072   7.274
 5563POPC   C1B69883   1.591  12.487   6.284
 5563POPC   C2B69884   1.733  12.582   6.729
 5563POPC   C3B69885   1.784  12.618   7.204
 5563POPC   C4B69886   1.912  12.527   7.653
 5564POPC   NC369887  29.900   1.853   5.418
 5564POPC   PO469888  29.961   2.476   5.168
 5564POPC   GL169889  30.022   2.246   5.695
 5564POPC   GL269890  30.086   1.855   5.879
 5564POPC   C1A69891  30.098   2.269   6.162
 5564POPC   D2A69892  30.050   2.069   6.573
 5564POPC   C3A69893  29.785   2.186   6.938
 5564POPC   C4A69894  29.979   2.056   7.311
 5564POPC   C1B69895  29.724   1.916   6.188
 5564POPC   C2B69896  29.585   1.832   6.630
 5564POPC   C3B69897  29.724   1.639   7.043
 5564POPC   C4B69898  29.862   1.573   7.505
 5565POPC   NC369899   4.298  16.580   5.536
 5565POPC   PO469900   4.536  17.198   5.370
 5565POPC   GL169901   4.671  16.933   5.783
 5565POPC   GL269902   4.396  16.778   5.980
 5565POPC   C1A69903   4.780  16.834   6.270
 5565POPC   D2A69904   4.450  16.816   6.584
 5565POPC   C3A69905   4.656  16.752   6.948
 5565POPC   C4A69906   4.570  16.802   7.360
 5565POPC   C1B69907   4.093  16.480   6.163
 5565POPC   C2B69908   3.854  16.404   6.530
 5565POPC   C3B69909   3.945  16.610   6.903
 5565POPC   C4B69910   4.279  16.460   7.152
 5566POPC   NC369911   7.184   9.461   5.136
 5566POPC   PO469912   7.021   8.840   5.386
 5566POPC   GL169913   7.263   9.015   5.756
 5566POPC   GL269914   7.447   8.718   5.878
 5566POPC   C1A69915   7.494   9.111   6.184
 5566POPC   D2A69916   7.443   8.880   6.588
 5566POPC   C3A69917   7.543   9.163   6.948
 5566POPC   C4A69918   7.291   9.192   7.340
 5566POPC   C1B69919   7.820   8.695   6.172
 5566POPC   C2B69920   7.861   8.550   6.608
 5566POPC   C3B69921   7.790   8.682   7.017
 5566POPC   C4B69922   7.363   8.717   7.101
 5567POPC   NC369923  26.277  33.404   5.576
 5567POPC   PO469924  26.002  34.048   5.405
 5567POPC   GL169925  26.111  33.831   5.795
 5567POPC   GL269926  25.989  34.108   5.917
 5567POPC   C1A69927  26.184  33.687   6.250
 5567POPC   D2A69928  26.041  33.865   6.662
 5567POPC   C3A69929  26.196  33.787   7.106
 5567POPC   C4A69930  26.381  33.535   7.475
 5567POPC   C1B69931  25.720  33.917   6.205
 5567POPC   C2B69932  25.548  34.003   6.588
 5567POPC   C3B69933  25.656  33.984   7.005
 5567POPC   C4B69934  25.770  33.900   7.392
 5568POPC   NC369935   3.777  38.777   5.112
 5568POPC   PO469936   3.274  38.362   5.254
 5568POPC   GL169937   3.368  38.488   5.673
 5568POPC   GL269938   3.180  38.779   5.748
 5568POPC   C1A69939   3.596  38.385   6.060
 5568POPC   D2A69940   3.664  38.586   6.451
 5568POPC   C3A69941   3.652  38.312   6.830
 5568POPC   C4A69942   3.527  38.271   7.273
 5568POPC   C1B69943   3.164  38.642   6.192
 5568POPC   C2B69944   3.189  38.520   6.644
 5568POPC   C3B69945   3.306  38.668   7.046
 5568POPC   C4B69946   3.269  38.645   7.518
 5569POPC   NC369947   9.489   5.240   5.219
 5569POPC   PO469948  10.098   4.893   5.390
 5569POPC   GL169949  10.028   5.181   5.730
 5569POPC   GL269950   9.662   5.196   5.809
 5569POPC   C1A69951  10.016   5.062   6.153
 5569POPC   D2A69952   9.868   4.854   6.521
 5569POPC   C3A69953   9.986   5.020   6.873
 5569POPC   C4A69954  10.091   4.948   7.233
 5569POPC   C1B69955   9.556   5.258   6.283
 5569POPC   C2B69956   9.532   5.249   6.748
 5569POPC   C3B69957   9.653   5.288   7.193
 5569POPC   C4B69958   9.499   5.376   7.651
 5570POPC   NC369959   7.669  34.852   5.552
 5570POPC   PO469960   7.288  34.214   5.396
 5570POPC   GL169961   7.404  34.363   5.813
 5570POPC   GL269962   7.266  34.707   5.868
 5570POPC   C1A69963   7.436  34.421   6.292
 5570POPC   D2A69964   7.340  34.757   6.615
 5570POPC   C3A69965   7.349  34.716   7.049
 5570POPC   C4A69966   7.111  34.887   7.366
 5570POPC   C1B69967   7.571  34.922   6.180
 5570POPC   C2B69968   7.846  34.685   6.473
 5570POPC   C3B69969   7.701  34.388   6.779
 5570POPC   C4B69970   7.820  34.568   7.146
 5571POPC   NC369971  12.115  30.957   5.333
 5571POPC   PO469972  12.362  30.234   5.521
 5571POPC   GL169973  12.213  30.611   5.747
 5571POPC   GL269974  12.402  30.907   5.749
 5571POPC   C1A69975  12.023  30.807   6.089
 5571POPC   D2A69976  12.184  30.935   6.472
 5571POPC   C3A69977  12.093  30.692   6.819
 5571POPC   C4A69978  11.968  30.505   7.199
 5571POPC   C1B69979  12.580  30.832   6.145
 5571POPC   C2B69980  12.734  31.002   6.523
 5571POPC   C3B69981  12.497  30.999   6.877
 5571POPC   C4B69982  12.300  30.891   7.247
 5572POPC   NC369983  19.772  39.209   5.297
 5572POPC   PO469984  19.389  39.582   5.607
 5572POPC   GL169985  19.749  39.434   5.865
 5572POPC   GL269986  19.937  39.103   5.822
 5572POPC   C1A69987  19.778  39.380   6.320
 5572POPC   D2A69988  19.600  39.249   6.700
 5572POPC   C3A69989  19.807  39.239   7.086
 5572POPC   C4A69990  19.648  39.536   7.344
 5572POPC   C1B69991  20.208  39.160   6.214
 5572POPC   C2B69992  20.161  39.238   6.695
 5572POPC   C3B69993  20.401  39.087   7.083
 5572POPC   C4B69994  20.346  38.970   7.546
 5573POPC   NC369995  44.906  18.770   5.503
 5573POPC   PO469996  44.654  19.326   5.376
 5573POPC   GL169997  44.555  19.079   5.739
 5573POPC   GL269998  44.256  18.856   5.817
 5573POPC   C1A69999  44.707  19.182   6.122
 5573POPC   D2A70000  44.579  19.057   6.518
 5573POPC   C3A70001  44.899  18.957   6.800
 5573POPC   C4A70002  44.922  19.238   7.146
 5573POPC   C1B70003  44.535  18.708   6.133
 5573POPC   C2B70004  44.603  18.549   6.529
 5573POPC   C3B70005  44.443  18.662   6.897
 5573POPC   C4B70006  44.675  18.811   7.241
 5574POPC   NC370007  11.148  39.291   5.514
 5574POPC   PO470008  11.795  38.991   5.511
 5574POPC   GL170009  11.455  39.030   5.822
 5574POPC   GL270010  11.587  39.341   5.845
 5574POPC   C1A70011  11.118  38.992   6.208
 5574POPC   D2A70012  10.958  39.159   6.673
 5574POPC   C3A70013  11.111  38.938   7.078
 5574POPC   C4A70014  11.527  38.925   7.242
 5574POPC   C1B70015  11.612  39.180   6.277
 5574POPC   C2B70016  11.554  39.403   6.628
 5574POPC   C3B70017  11.404  39.333   6.995
 5574POPC   C4B70018  11.557  39.427   7.395
 5575POPC   NC370019  40.930   2.570   5.436
 5575POPC   PO470020  40.333   3.032   5.422
 5575POPC   GL170021  40.558   2.760   5.735
 5575POPC   GL270022  40.887   2.860   5.841
 5575POPC   C1A70023  40.546   2.684   6.193
 5575POPC   D2A70024  40.742   2.603   6.581
 5575POPC   C3A70025  40.578   2.534   7.010
 5575POPC   C4A70026  40.641   2.738   7.416
 5575POPC   C1B70027  41.066   3.055   6.199
 5575POPC   C2B70028  41.131   2.944   6.618
 5575POPC   C3B70029  40.908   2.918   6.980
 5575POPC   C4B70030  40.952   3.221   7.248
 5576POPC   NC370031  21.061  35.467   5.351
 5576POPC   PO470032  20.445  35.164   5.499
 5576POPC   GL170033  20.620  35.480   5.749
 5576POPC   GL270034  20.341  35.661   5.909
 5576POPC   C1A70035  20.717  35.370   6.153
 5576POPC   D2A70036  20.582  35.234   6.523
 5576POPC   C3A70037  20.481  35.434   6.848
 5576POPC   C4A70038  20.717  35.590   7.182
 5576POPC   C1B70039  20.225  35.250   6.130
 5576POPC   C2B70040  20.083  35.202   6.545
 5576POPC   C3B70041  20.188  35.003   6.945
 5576POPC   C4B70042  20.432  35.178   7.291
 5577POPC   NC370043  21.525  15.858   5.458
 5577POPC   PO470044  20.876  15.780   5.396
 5577POPC   GL170045  21.098  15.825   5.801
 5577POPC   GL270046  20.954  16.112   5.936
 5577POPC   C1A70047  21.432  15.972   6.152
 5577POPC   D2A70048  21.626  16.113   6.572
 5577POPC   C3A70049  21.468  16.006   6.999
 5577POPC   C4A70050  21.258  15.963   7.414
 5577POPC   C1B70051  21.043  16.285   6.319
 5577POPC   C2B70052  21.069  16.132   6.720
 5577POPC   C3B70053  21.121  16.363   7.131
 5577POPC   C4B70054  21.109  16.418   7.599
 5578POPC   NC370055  26.966  25.660   5.370
 5578POPC   PO470056  26.568  25.116   5.554
 5578POPC   GL170057  26.845  25.162   5.881
 5578POPC   GL270058  27.074  25.477   5.852
 5578POPC   C1A70059  26.776  24.959   6.282
 5578POPC   D2A70060  27.002  24.773   6.592
 5578POPC   C3A70061  26.870  25.027   6.894
 5578POPC   C4A70062  26.901  25.119   7.308
 5578POPC   C1B70063  26.933  25.483   6.279
 5578POPC   C2B70064  27.050  25.564   6.695
 5578POPC   C3B70065  26.883  25.589   7.117
 5578POPC   C4B70066  26.836  25.578   7.570
 5579POPC   NC370067   5.484  24.514   5.333
 5579POPC   PO470068   6.093  24.254   5.319
 5579POPC   GL170069   5.767  24.276   5.703
 5579POPC   GL270070   5.654  24.665   5.798
 5579POPC   C1A70071   5.860  24.337   6.168
 5579POPC   D2A70072   6.193  24.577   6.400
 5579POPC   C3A70073   6.220  24.569   6.851
 5579POPC   C4A70074   6.076  24.554   7.276
 5579POPC   C1B70075   5.762  24.840   6.226
 5579POPC   C2B70076   5.715  24.656   6.645
 5579POPC   C3B70077   5.617  24.611   7.082
 5579POPC   C4B70078   5.607  24.580   7.577
 5580POPC   NC370079  28.787  35.145   5.363
 5580POPC   PO470080  28.103  35.358   5.429
 5580POPC   GL170081  28.268  35.413   5.805
 5580POPC   GL270082  28.433  35.140   5.769
 5580POPC   C1A70083  28.146  35.330   6.223
 5580POPC   D2A70084  28.174  35.444   6.643
 5580POPC   C3A70085  28.490  35.450   6.935
 5580POPC   C4A70086  28.404  35.474   7.377
 5580POPC   C1B70087  28.599  35.093   6.158
 5580POPC   C2B70088  28.450  35.014   6.560
 5580POPC   C3B70089  28.772  34.975   6.848
 5580POPC   C4B70090  28.824  35.194   7.229
 5581POPC   NC370091  38.595  11.491   5.479
 5581POPC   PO470092  38.166  11.118   5.317
 5581POPC   GL170093  38.366  11.145   5.778
 5581POPC   GL270094  38.384  11.511   5.933
 5581POPC   C1A70095  38.490  11.052   6.218
 5581POPC   D2A70096  38.335  11.198   6.616
 5581POPC   C3A70097  38.310  11.625   6.763
 5581POPC   C4A70098  38.498  11.525   7.140
 5581POPC   C1B70099  38.794  11.442   6.139
 5581POPC   C2B70100  38.853  11.316   6.554
 5581POPC   C3B70101  38.918  11.294   6.966
 5581POPC   C4B70102  39.081  11.585   7.259
 5582POPC   NC370103  42.489  33.767   5.443
 5582POPC   PO470104  41.947  34.202   5.265
 5582POPC   GL170105  42.054  33.947   5.668
 5582POPC   GL270106  42.328  34.114   5.890
 5582POPC   C1A70107  42.046  33.787   6.128
 5582POPC   D2A70108  42.193  34.084   6.465
 5582POPC   C3A70109  42.228  33.970   6.899
 5582POPC   C4A70110  42.126  33.846   7.314
 5582POPC   C1B70111  42.574  33.800   6.120
 5582POPC   C2B70112  42.478  33.617   6.520
 5582POPC   C3B70113  42.677  33.523   6.895
 5582POPC   C4B70114  42.627  33.802   7.190
 5583POPC   NC370115  33.915  26.293   5.397
 5583POPC   PO470116  33.495  25.946   5.710
 5583POPC   GL170117  33.809  26.193   5.908
 5583POPC   GL270118  34.103  26.039   5.797
 5583POPC   C1A70119  33.931  26.276   6.333
 5583POPC   D2A70120  33.759  25.911   6.564
 5583POPC   C3A70121  33.543  25.972   6.946
 5583POPC   C4A70122  33.546  26.311   7.227
 5583POPC   C1B70123  34.124  25.814   6.184
 5583POPC   C2B70124  34.283  25.965   6.580
 5583POPC   C3B70125  34.029  26.217   6.877
 5583POPC   C4B70126  33.953  25.997   7.244
 5584POPC   NC370127  27.993  16.054   5.446
 5584POPC   PO470128  27.643  16.504   5.170
 5584POPC   GL170129  27.657  16.181   5.754
 5584POPC   GL270130  27.954  16.334   5.872
 5584POPC   C1A70131  27.597  15.852   6.135
 5584POPC   D2A70132  27.275  15.761   6.492
 5584POPC   C3A70133  27.435  15.757   6.933
 5584POPC   C4A70134  27.858  15.692   7.081
 5584POPC   C1B70135  27.778  16.324   6.279
 5584POPC   C2B70136  27.569  16.185   6.633
 5584POPC   C3B70137  27.683  16.233   7.043
 5584POPC   C4B70138  28.010  16.133   7.270
 5585POPC   NC370139   5.187  32.442   5.225
 5585POPC   PO470140   4.890  31.890   5.452
 5585POPC   GL170141   4.921  32.292   5.661
 5585POPC   GL270142   5.287  32.353   5.721
 5585POPC   C1A70143   4.922  32.392   6.115
 5585POPC   D2A70144   5.111  32.261   6.513
 5585POPC   C3A70145   4.929  32.446   6.901
 5585POPC   C4A70146   4.960  32.175   7.266
 5585POPC   C1B70147   5.447  32.402   6.142
 5585POPC   C2B70148   5.432  32.656   6.555
 5585POPC   C3B70149   5.410  32.565   6.997
 5585POPC   C4B70150   5.327  32.449   7.493
 5586POPC   NC370151  27.210   8.382   5.404
 5586POPC   PO470152  27.420   7.784   5.546
 5586POPC   GL170153  27.700   8.085   5.744
 5586POPC   GL270154  27.537   8.410   5.844
 5586POPC   C1A70155  27.769   8.083   6.186
 5586POPC   D2A70156  27.495   8.055   6.532
 5586POPC   C3A70157  27.635   8.111   6.947
 5586POPC   C4A70158  27.958   8.066   7.224
 5586POPC   C1B70159  27.585   8.556   6.294
 5586POPC   C2B70160  27.440   8.530   6.742
 5586POPC   C3B70161  27.483   8.539   7.198
 5586POPC   C4B70162  27.254   8.547   7.599
 5587POPC   NC370163   3.079   2.302   5.257
 5587POPC   PO470164   3.704   2.033   5.207
 5587POPC   GL170165   3.582   1.879   5.627
 5587POPC   GL270166   3.420   1.541   5.648
 5587POPC   C1A70167   3.573   1.999   6.085
 5587POPC   D2A70168   3.600   2.125   6.537
 5587POPC   C3A70169   3.921   1.983   6.844
 5587POPC   C4A70170   3.811   1.887   7.288
 5587POPC   C1B70171   3.328   1.536   6.110
 5587POPC   C2B70172   3.578   1.617   6.488
 5587POPC   C3B70173   3.510   1.564   6.942
 5587POPC   C4B70174   3.074   1.525   7.071
 5588POPC   NC370175  13.807  24.768   5.118
 5588POPC   PO470176  13.691  24.274   5.542
 5588POPC   GL170177  13.633  24.599   5.823
 5588POPC   GL270178  13.935  24.805   5.819
 5588POPC   C1A70179  13.443  24.572   6.238
 5588POPC   D2A70180  13.555  24.456   6.676
 5588POPC   C3A70181  13.357  24.523   7.094
 5588POPC   C4A70182  13.593  24.582   7.483
 5588POPC   C1B70183  13.956  24.547   6.209
 5588POPC   C2B70184  13.976  24.750   6.602
 5588POPC   C3B70185  13.888  24.654   7.026
 5588POPC   C4B70186  14.082  24.613   7.407
 5589POPC   NC370187  18.711   0.952   5.592
 5589POPC   PO470188  18.347   0.478   5.278
 5589POPC   GL170189  18.222   0.406   5.733
 5589POPC   GL270190  18.448   0.619   5.900
 5589POPC   C1A70191  18.073   0.384   6.202
 5589POPC   D2A70192  18.223   0.492   6.641
 5589POPC   C3A70193  18.065   0.280   7.001
 5589POPC   C4A70194  18.149   0.386   7.444
 5589POPC   C1B70195  18.580   0.398   6.274
 5589POPC   C2B70196  18.731   0.351   6.698
 5589POPC   C3B70197  18.559   0.281   7.102
 5589POPC   C4B70198  18.660   0.380   7.544
 5590POPC   NC370199  35.786   0.792   5.090
 5590POPC   PO470200  35.988   0.260   5.482
 5590POPC   GL170201  36.019   0.409   5.870
 5590POPC   GL270202  35.960   0.762   5.818
 5590POPC   C1A70203  35.756   0.488   6.260
 5590POPC   D2A70204  35.780   0.486   6.714
 5590POPC   C3A70205  36.036   0.194   6.947
 5590POPC   C4A70206  36.306  44.924   7.161
 5590POPC   C1B70207  36.234   0.690   6.220
 5590POPC   C2B70208  36.175   0.852   6.632
 5590POPC   C3B70209  36.358   0.936   7.001
 5590POPC   C4B70210  36.213   0.589   7.245
 5591POPC   NC370211  38.092  19.679   5.342
 5591POPC   PO470212  38.680  20.085   5.473
 5591POPC   GL170213  38.325  20.011   5.728
 5591POPC   GL270214  38.391  19.689   5.763
 5591POPC   C1A70215  38.207  19.938   6.163
 5591POPC   D2A70216  38.048  20.025   6.558
 5591POPC   C3A70217  38.307  19.962   6.881
 5591POPC   C4A70218  38.206  19.813   7.262
 5591POPC   C1B70219  38.554  19.539   6.156
 5591POPC   C2B70220  38.396  19.509   6.567
 5591POPC   C3B70221  38.586  19.537   6.944
 5591POPC   C4B70222  38.540  19.392   7.326
 5592POPC   NC370223  40.984  12.171   5.372
 5592POPC   PO470224  41.093  11.530   5.365
 5592POPC   GL170225  41.092  11.824   5.739
 5592POPC   GL270226  40.707  11.953   5.777
 5592POPC   C1A70227  41.039  12.057   6.144
 5592POPC   D2A70228  40.803  11.978   6.525
 5592POPC   C3A70229  40.946  12.172   6.899
 5592POPC   C4A70230  40.750  12.323   7.269
 5592POPC   C1B70231  40.551  12.240   6.162
 5592POPC   C2B70232  40.526  12.386   6.631
 5592POPC   C3B70233  40.348  12.577   7.014
 5592POPC   C4B70234  40.447  12.697   7.480
 5593POPC   NC370235  35.888  15.926   5.161
 5593POPC   PO470236  35.261  15.744   5.441
 5593POPC   GL170237  35.351  16.069   5.754
 5593POPC   GL270238  35.371  15.796   5.960
 5593POPC   C1A70239  35.383  16.233   6.214
 5593POPC   D2A70240  35.216  16.280   6.654
 5593POPC   C3A70241  35.365  15.993   6.978
 5593POPC   C4A70242  35.515  16.102   7.427
 5593POPC   C1B70243  35.036  15.704   6.224
 5593POPC   C2B70244  34.967  15.818   6.619
 5593POPC   C3B70245  34.928  15.625   6.979
 5593POPC   C4B70246  35.174  15.691   7.342
 5594POPC   NC370247   2.917  41.918   5.567
 5594POPC   PO470248   2.522  41.451   5.228
 5594POPC   GL170249   2.554  41.504   5.698
 5594POPC   GL270250   2.898  41.480   5.826
 5594POPC   C1A70251   2.482  41.347   6.160
 5594POPC   D2A70252   2.578  41.283   6.633
 5594POPC   C3A70253   2.993  41.339   6.794
 5594POPC   C4A70254   3.129  41.455   7.191
 5594POPC   C1B70255   2.753  41.793   6.161
 5594POPC   C2B70256   2.815  41.766   6.583
 5594POPC   C3B70257   2.619  41.721   6.955
 5594POPC   C4B70258   2.833  41.856   7.305
 5595POPC   NC370259  35.154  15.278   5.366
 5595POPC   PO470260  35.749  15.302   5.542
 5595POPC   GL170261  35.402  15.090   5.780
 5595POPC   GL270262  35.121  15.319   5.880
 5595POPC   C1A70263  35.277  14.904   6.178
 5595POPC   D2A70264  35.496  14.980   6.599
 5595POPC   C3A70265  35.344  15.107   7.000
 5595POPC   C4A70266  34.985  15.207   7.243
 5595POPC   C1B70267  35.444  15.376   6.221
 5595POPC   C2B70268  35.514  15.578   6.600
 5595POPC   C3B70269  35.726  15.423   6.938
 5595POPC   C4B70270  35.802  15.119   7.277
 5596POPC   NC370271  11.682  36.741   5.509
 5596POPC   PO470272  11.398  37.312   5.475
 5596POPC   GL170273  11.443  37.025   5.876
 5596POPC   GL270274  11.272  36.687   5.861
 5596POPC   C1A70275  11.360  36.926   6.329
 5596POPC   D2A70276  11.554  36.732   6.695
 5596POPC   C3A70277  11.358  36.864   7.070
 5596POPC   C4A70278  11.249  36.784   7.469
 5596POPC   C1B70279  10.963  36.635   6.222
 5596POPC   C2B70280  10.993  36.767   6.693
 5596POPC   C3B70281  10.927  36.579   7.131
 5596POPC   C4B70282  10.841  36.492   7.589
 5597POPC   NC370283  24.413  26.789   5.172
 5597POPC   PO470284  24.449  26.078   5.364
 5597POPC   GL170285  24.513  26.127   5.814
 5597POPC   GL270286  24.188  26.210   5.915
 5597POPC   C1A70287  24.741  26.109   6.245
 5597POPC   D2A70288  24.650  26.246   6.696
 5597POPC   C3A70289  24.720  25.931   7.051
 5597POPC   C4A70290  24.690  25.931   7.530
 5597POPC   C1B70291  24.233  26.178   6.307
 5597POPC   C2B70292  24.013  26.132   6.664
 5597POPC   C3B70293  24.221  26.089   7.034
 5597POPC   C4B70294  24.348  26.283   7.387
 5598POPC   NC370295  26.336   6.667   5.512
 5598POPC   PO470296  25.692   6.955   5.452
 5598POPC   GL170297  26.008   6.933   5.798
 5598POPC   GL270298  25.740   6.971   6.021
 5598POPC   C1A70299  26.230   6.745   6.203
 5598POPC   D2A70300  26.059   6.783   6.632
 5598POPC   C3A70301  26.288   6.653   7.013
 5598POPC   C4A70302  26.220   6.401   7.391
 5598POPC   C1B70303  25.792   6.509   6.123
 5598POPC   C2B70304  25.735   6.353   6.550
 5598POPC   C3B70305  25.821   6.452   6.973
 5598POPC   C4B70306  25.656   6.345   7.339
 5599POPC   NC370307  38.045   2.580   5.363
 5599POPC   PO470308  37.376   2.404   5.456
 5599POPC   GL170309  37.595   2.671   5.750
 5599POPC   GL270310  37.924   2.793   5.822
 5599POPC   C1A70311  37.686   2.533   6.182
 5599POPC   D2A70312  37.706   2.700   6.605
 5599POPC   C3A70313  37.476   2.778   6.979
 5599POPC   C4A70314  37.486   2.516   7.315
 5599POPC   C1B70315  37.950   2.964   6.228
 5599POPC   C2B70316  38.083   3.061   6.625
 5599POPC   C3B70317  37.982   2.842   7.010
 5599POPC   C4B70318  37.750   2.920   7.463
 5600POPC   NC370319   1.833   2.540   5.383
 5600POPC   PO470320   1.985   3.126   5.558
 5600POPC   GL170321   1.957   2.789   5.848
 5600POPC   GL270322   2.194   2.459   5.767
 5600POPC   C1A70323   1.907   2.950   6.285
 5600POPC   D2A70324   1.902   3.163   6.709
 5600POPC   C3A70325   1.977   2.899   7.065
 5600POPC   C4A70326   1.668   2.875   7.369
 5600POPC   C1B70327   2.120   2.478   6.219
 5600POPC   C2B70328   2.077   2.613   6.652
 5600POPC   C3B70329   2.129   2.407   7.065
 5600POPC   C4B70330   2.011   2.511   7.467
 5601POPC   NC370331   5.375  19.691   5.293
 5601POPC   PO470332   4.890  20.060   5.314
 5601POPC   GL170333   5.073  19.975   5.697
 5601POPC   GL270334   4.738  20.012   5.848
 5601POPC   C1A70335   5.264  19.908   6.096
 5601POPC   D2A70336   5.213  19.699   6.497
 5601POPC   C3A70337   5.278  19.918   6.875
 5601POPC   C4A70338   5.279  19.661   7.217
 5601POPC   C1B70339   4.785  19.903   6.283
 5601POPC   C2B70340   4.780  19.838   6.731
 5601POPC   C3B70341   4.824  19.905   7.164
 5601POPC   C4B70342   4.761  20.095   7.568
 5602POPC   NC370343  28.965  41.525   5.123
 5602POPC   PO470344  29.331  41.967   5.511
 5602POPC   GL170345  29.376  41.528   5.630
 5602POPC   GL270346  29.067  41.307   5.682
 5602POPC   C1A70347  29.352  41.499   6.076
 5602POPC   D2A70348  29.190  41.537   6.453
 5602POPC   C3A70349  29.268  41.352   6.816
 5602POPC   C4A70350  29.234  41.442   7.220
 5602POPC   C1B70351  28.942  41.179   6.127
 5602POPC   C2B70352  28.845  41.116   6.564
 5602POPC   C3B70353  28.822  41.199   7.019
 5602POPC   C4B70354  28.852  41.171   7.464
 5603POPC   NC370355   7.377   8.513   5.390
 5603POPC   PO470356   6.878   8.140   5.476
 5603POPC   GL170357   7.223   8.267   5.806
 5603POPC   GL270358   7.549   8.070   5.772
 5603POPC   C1A70359   7.495   8.319   6.205
 5603POPC   D2A70360   7.415   8.307   6.637
 5603POPC   C3A70361   7.501   8.200   7.029
 5603POPC   C4A70362   7.177   8.131   7.360
 5603POPC   C1B70363   7.723   7.852   6.170
 5603POPC   C2B70364   7.836   8.010   6.595
 5603POPC   C3B70365   7.870   7.818   7.004
 5603POPC   C4B70366   7.690   7.923   7.416
 5604POPC   NC370367  27.038  22.018   5.349
 5604POPC   PO470368  26.443  22.143   5.460
 5604POPC   GL170369  26.748  22.242   5.756
 5604POPC   GL270370  27.046  22.082   5.853
 5604POPC   C1A70371  26.706  22.209   6.198
 5604POPC   D2A70372  26.533  21.946   6.501
 5604POPC   C3A70373  26.583  22.124   6.897
 5604POPC   C4A70374  26.595  22.085   7.328
 5604POPC   C1B70375  27.049  21.817   6.247
 5604POPC   C2B70376  26.987  21.835   6.710
 5604POPC   C3B70377  27.074  22.039   7.113
 5604POPC   C4B70378  27.211  21.923   7.560
 5605POPC   NC370379  27.957   0.411   5.342
 5605POPC   PO470380  28.630   0.515   5.285
 5605POPC   GL170381  28.380   0.564   5.673
 5605POPC   GL270382  28.707   0.460   5.837
 5605POPC   C1A70383  28.187   0.665   6.109
 5605POPC   D2A70384  27.980   0.482   6.516
 5605POPC   C3A70385  27.964   0.677   6.941
 5605POPC   C4A70386  28.267   0.818   7.204
 5605POPC   C1B70387  28.485   0.226   6.158
 5605POPC   C2B70388  28.360   0.132   6.587
 5605POPC   C3B70389  28.412   0.435   6.891
 5605POPC   C4B70390  28.621   0.455   7.271
 5606POPC   NC370391  27.272  16.774   5.252
 5606POPC   PO470392  26.658  16.578   5.332
 5606POPC   GL170393  26.844  16.657   5.763
 5606POPC   GL270394  26.721  16.945   5.953
 5606POPC   C1A70395  26.872  16.542   6.214
 5606POPC   D2A70396  26.887  16.755   6.601
 5606POPC   C3A70397  26.766  16.501   6.968
 5606POPC   C4A70398  26.366  16.329   7.064
 5606POPC   C1B70399  26.718  17.183   6.349
 5606POPC   C2B70400  26.911  17.308   6.745
 5606POPC   C3B70401  27.015  16.998   7.026
 5606POPC   C4B70402  26.608  16.959   7.152
 5607POPC   NC370403  17.145  36.118   5.202
 5607POPC   PO470404  16.502  35.942   5.439
 5607POPC   GL170405  16.648  36.130   5.812
 5607POPC   GL270406  16.975  36.119   5.713
 5607POPC   C1A70407  16.529  36.298   6.246
 5607POPC   D2A70408  16.311  36.132   6.644
 5607POPC   C3A70409  16.531  36.112   7.048
 5607POPC   C4A70410  16.706  36.323   7.412
 5607POPC   C1B70411  17.043  36.264   6.129
 5607POPC   C2B70412  16.924  36.221   6.573
 5607POPC   C3B70413  17.034  36.145   7.015
 5607POPC   C4B70414  17.028  35.930   7.410
 5608POPC   NC370415  18.011   3.447   5.095
 5608POPC   PO470416  18.545   3.727   5.377
 5608POPC   GL170417  18.333   3.489   5.758
 5608POPC   GL270418  17.972   3.456   5.761
 5608POPC   C1A70419  18.349   3.431   6.236
 5608POPC   D2A70420  18.558   3.715   6.574
 5608POPC   C3A70421  18.393   3.682   6.985
 5608POPC   C4A70422  18.233   3.297   7.153
 5608POPC   C1B70423  17.930   3.731   6.152
 5608POPC   C2B70424  18.032   3.794   6.625
 5608POPC   C3B70425  17.921   3.815   7.108
 5608POPC   C4B70426  18.111   3.629   7.516
 5609POPC   NC370427  42.758   1.224   5.406
 5609POPC   PO470428  42.192   1.028   5.267
 5609POPC   GL170429  42.314   1.227   5.685
 5609POPC   GL270430  42.513   0.960   5.795
 5609POPC   C1A70431  42.595   1.393   6.061
 5609POPC   D2A70432  42.803   1.273   6.464
 5609POPC   C3A70433  42.499   1.142   6.779
 5609POPC   C4A70434  42.653   1.257   7.162
 5609POPC   C1B70435  42.410   0.966   6.253
 5609POPC   C2B70436  42.254   0.706   6.575
 5609POPC   C3B70437  42.026   0.779   6.925
 5609POPC   C4B70438  42.210   1.029   7.233
 5610POPC   NC370439  30.228  29.703   5.434
 5610POPC   PO470440  29.598  29.953   5.607
 5610POPC   GL170441  29.591  29.787   5.960
 5610POPC   GL270442  29.944  29.671   5.891
 5610POPC   C1A70443  29.750  29.931   6.328
 5610POPC   D2A70444  30.044  30.097   6.611
 5610POPC   C3A70445  29.924  29.859   6.933
 5610POPC   C4A70446  29.682  29.811   7.283
 5610POPC   C1B70447  30.215  29.732   6.245
 5610POPC   C2B70448  30.135  29.495   6.619
 5610POPC   C3B70449  30.341  29.509   7.008
 5610POPC   C4B70450  30.186  29.738   7.356
 5611POPC   NC370451   9.812  31.798   5.310
 5611POPC   PO470452   9.381  31.538   5.725
 5611POPC   GL170453   9.549  31.334   5.979
 5611POPC   GL270454   9.867  31.166   5.822
 5611POPC   C1A70455   9.461  31.477   6.382
 5611POPC   D2A70456   9.507  31.519   6.782
 5611POPC   C3A70457   9.867  31.615   6.985
 5611POPC   C4A70458   9.555  31.470   7.323
 5611POPC   C1B70459   9.964  31.360   6.235
 5611POPC   C2B70460   9.902  31.225   6.639
 5611POPC   C3B70461   9.817  31.121   7.061
 5611POPC   C4B70462  10.023  31.294   7.423
 5612POPC   NC370463  12.635  33.082   5.328
 5612POPC   PO470464  13.165  32.708   5.452
 5612POPC   GL170465  12.920  32.939   5.769
 5612POPC   GL270466  12.630  32.720   5.788
 5612POPC   C1A70467  12.852  33.204   6.160
 5612POPC   D2A70468  12.657  33.276   6.579
 5612POPC   C3A70469  12.913  33.419   6.883
 5612POPC   C4A70470  12.831  33.563   7.286
 5612POPC   C1B70471  12.826  32.685   6.218
 5612POPC   C2B70472  12.646  32.744   6.618
 5612POPC   C3B70473  12.730  32.681   7.063
 5612POPC   C4B70474  12.839  33.053   7.262
 5613POPC   NC370475  25.616   2.920   5.362
 5613POPC   PO470476  24.995   2.605   5.514
 5613POPC   GL170477  25.345   2.721   5.777
 5613POPC   GL270478  25.316   3.059   5.743
 5613POPC   C1A70479  25.301   2.820   6.205
 5613POPC   D2A70480  25.055   2.573   6.430
 5613POPC   C3A70481  25.076   2.717   6.831
 5613POPC   C4A70482  25.187   2.592   7.210
 5613POPC   C1B70483  25.672   3.144   6.026
 5613POPC   C2B70484  25.629   3.155   6.474
 5613POPC   C3B70485  25.575   2.828   6.796
 5613POPC   C4B70486  25.527   2.941   7.229
 5614POPC   NC370487  39.484  35.498   5.052
 5614POPC   PO470488  38.983  35.052   5.319
 5614POPC   GL170489  38.995  35.082   5.731
 5614POPC   GL270490  39.353  35.160   5.835
 5614POPC   C1A70491  38.936  35.267   6.108
 5614POPC   D2A70492  39.251  35.126   6.441
 5614POPC   C3A70493  39.245  35.335   6.818
 5614POPC   C4A70494  39.092  35.332   7.206
 5614POPC   C1B70495  39.367  35.524   6.146
 5614POPC   C2B70496  39.557  35.623   6.538
 5614POPC   C3B70497  39.671  35.607   6.940
 5614POPC   C4B70498  39.501  35.628   7.321
 5615POPC   NC370499  35.590  14.379   5.325
 5615POPC   PO470500  35.003  14.437   5.465
 5615POPC   GL170501  35.301  14.306   5.786
 5615POPC   GL270502  35.564  14.574   5.819
 5615POPC   C1A70503  35.377  14.289   6.243
 5615POPC   D2A70504  35.191  14.142   6.646
 5615POPC   C3A70505  35.268  14.346   7.016
 5615POPC   C4A70506  35.565  14.059   7.198
 5615POPC   C1B70507  35.745  14.692   6.236
 5615POPC   C2B70508  35.638  14.486   6.646
 5615POPC   C3B70509  35.659  14.666   7.058
 5615POPC   C4B70510  35.744  14.611   7.494
 5616POPC   NC370511  28.953   6.514   5.426
 5616POPC   PO470512  29.499   6.167   5.481
 5616POPC   GL170513  29.321   6.502   5.815
 5616POPC   GL270514  28.952   6.457   5.928
 5616POPC   C1A70515  29.242   6.719   6.259
 5616POPC   D2A70516  29.054   6.791   6.705
 5616POPC   C3A70517  29.375   6.773   7.046
 5616POPC   C4A70518  29.422   7.130   7.360
 5616POPC   C1B70519  28.809   6.236   6.311
 5616POPC   C2B70520  28.740   6.365   6.746
 5616POPC   C3B70521  28.993   6.410   7.114
 5616POPC   C4B70522  28.880   6.489   7.548
 5617POPC   NC370523  29.660  35.536   5.072
 5617POPC   PO470524  30.181  35.231   5.425
 5617POPC   GL170525  30.080  35.311   5.830
 5617POPC   GL270526  29.809  35.532   5.925
 5617POPC   C1A70527  30.231  35.581   6.172
 5617POPC   D2A70528  29.904  35.667   6.470
 5617POPC   C3A70529  29.981  35.547   6.883
 5617POPC   C4A70530  29.780  35.498   7.281
 5617POPC   C1B70531  29.735  35.208   6.213
 5617POPC   C2B70532  29.670  34.951   6.554
 5617POPC   C3B70533  29.653  35.138   6.954
 5617POPC   C4B70534  29.659  34.970   7.376
 5618POPC   NC370535  42.946  20.511   5.357
 5618POPC   PO470536  43.226  21.129   5.396
 5618POPC   GL170537  43.257  20.866   5.779
 5618POPC   GL270538  43.127  20.524   5.813
 5618POPC   C1A70539  42.999  20.844   6.188
 5618POPC   D2A70540  42.779  20.784   6.591
 5618POPC   C3A70541  43.058  20.922   6.923
 5618POPC   C4A70542  43.187  20.820   7.327
 5618POPC   C1B70543  42.942  20.343   6.191
 5618POPC   C2B70544  43.118  20.406   6.594
 5618POPC   C3B70545  42.935  20.444   7.002
 5618POPC   C4B70546  42.901  20.168   7.302
 5619POPC   NC370547  26.137  43.691   5.178
 5619POPC   PO470548  26.550  43.503   5.598
 5619POPC   GL170549  26.434  43.632   5.962
 5619POPC   GL270550  26.206  43.860   5.870
 5619POPC   C1A70551  26.371  43.733   6.394
 5619POPC   D2A70552  26.108  43.989   6.645
 5619POPC   C3A70553  26.131  43.855   7.046
 5619POPC   C4A70554  25.949  43.670   7.390
 5619POPC   C1B70555  25.882  43.813   6.194
 5619POPC   C2B70556  25.627  44.064   6.476
 5619POPC   C3B70557  25.641  43.928   6.909
 5619POPC   C4B70558  25.703  44.127   7.301
 5620POPC   NC370559  35.550   0.271   5.303
 5620POPC   PO470560  35.005   0.618   5.452
 5620POPC   GL170561  35.144   0.411   5.796
 5620POPC   GL270562  35.513   0.392   5.785
 5620POPC   C1A70563  35.079   0.435   6.239
 5620POPC   D2A70564  35.268   0.578   6.618
 5620POPC   C3A70565  35.067   0.397   6.964
 5620POPC   C4A70566  35.196   0.532   7.389
 5620POPC   C1B70567  35.466   0.100   6.102
 5620POPC   C2B70568  35.360   0.061   6.538
 5620POPC   C3B70569  35.516   0.116   6.956
 5620POPC   C4B70570  35.688   0.467   7.223
 5621POPC   NC370571   6.769   0.132   5.325
 5621POPC   PO470572   6.596  44.474   5.529
 5621POPC   GL170573   6.716  44.661   5.936
 5621POPC   GL270574   6.769  44.990   5.818
 5621POPC   C1A70575   6.575  44.502   6.361
 5621POPC   D2A70576   6.382  44.284   6.736
 5621POPC   C3A70577   6.539  44.452   7.118
 5621POPC   C4A70578   6.965  44.566   7.174
 5621POPC   C1B70579   6.698   0.143   6.226
 5621POPC   C2B70580   6.679  44.935   6.626
 5621POPC   C3B70581   6.785   0.014   7.078
 5621POPC   C4B70582   6.642  44.818   7.511
 5622POPC   NC370583  18.728  37.767   5.442
 5622POPC   PO470584  19.235  38.127   5.170
 5622POPC   GL170585  19.291  37.906   5.634
 5622POPC   GL270586  19.049  37.643   5.800
 5622POPC   C1A70587  19.336  37.895   6.110
 5622POPC   D2A70588  19.040  37.964   6.440
 5622POPC   C3A70589  19.071  37.913   6.905
 5622POPC   C4A70590  18.983  37.740   7.345
 5622POPC   C1B70591  18.983  37.492   6.232
 5622POPC   C2B70592  19.165  37.460   6.698
 5622POPC   C3B70593  19.405  37.581   7.131
 5622POPC   C4B70594  19.376  37.660   7.637
 5623POPC   NC370595  24.313  42.817   5.501
 5623POPC   PO470596  24.908  43.092   5.428
 5623POPC   GL170597  24.799  42.937   5.843
 5623POPC   GL270598  24.515  43.139   5.857
 5623POPC   C1A70599  24.624  42.890   6.286
 5623POPC   D2A70600  24.636  43.099   6.682
 5623POPC   C3A70601  24.918  42.849   6.969
 5623POPC   C4A70602  24.784  42.511   7.259
 5623POPC   C1B70603  24.175  43.193   6.148
 5623POPC   C2B70604  24.140  43.349   6.561
 5623POPC   C3B70605  24.238  43.317   6.980
 5623POPC   C4B70606  24.466  42.982   7.154
 5624POPC   NC370607  40.107  42.994   5.351
 5624POPC   PO470608  39.489  43.163   5.350
 5624POPC   GL170609  39.808  43.118   5.761
 5624POPC   GL270610  40.037  42.807   5.833
 5624POPC   C1A70611  39.936  43.089   6.232
 5624POPC   D2A70612  40.016  42.771   6.562
 5624POPC   C3A70613  39.904  42.728   6.989
 5624POPC   C4A70614  40.123  43.033   7.199
 5624POPC   C1B70615  40.373  42.805   6.175
 5624POPC   C2B70616  40.458  42.533   6.518
 5624POPC   C3B70617  40.412  42.747   6.896
 5624POPC   C4B70618  40.397  42.628   7.323
 5625POPC   NC370619  44.067  22.540   5.505
 5625POPC   PO470620  43.807  21.926   5.293
 5625POPC   GL170621  44.031  22.020   5.733
 5625POPC   GL270622  43.968  22.334   5.964
 5625POPC   C1A70623  44.073  21.902   6.208
 5625POPC   D2A70624  43.886  22.090   6.584
 5625POPC   C3A70625  44.062  22.028   6.984
 5625POPC   C4A70626  44.121  22.217   7.394
 5625POPC   C1B70627  43.584  22.123   6.163
 5625POPC   C2B70628  43.467  21.785   6.463
 5625POPC   C3B70629  43.562  21.829   6.912
 5625POPC   C4B70630  43.672  21.974   7.347
 5626POPC   NC370631   5.985  40.607   5.586
 5626POPC   PO470632   5.954  39.900   5.448
 5626POPC   GL170633   5.951  40.065   5.893
 5626POPC   GL270634   5.708  40.330   5.980
 5626POPC   C1A70635   5.710  39.871   6.237
 5626POPC   D2A70636   5.439  39.771   6.558
 5626POPC   C3A70637   5.624  39.749   6.909
 5626POPC   C4A70638   5.718  39.982   7.212
 5626POPC   C1B70639   5.927  40.329   6.377
 5626POPC   C2B70640   5.931  40.198   6.811
 5626POPC   C3B70641   6.027  40.390   7.227
 5626POPC   C4B70642   6.288  40.263   7.604
 5627POPC   NC370643  26.976  28.905   5.528
 5627POPC   PO470644  26.535  29.337   5.235
 5627POPC   GL170645  26.581  29.223   5.698
 5627POPC   GL270646  26.701  29.507   5.879
 5627POPC   C1A70647  26.747  29.071   6.138
 5627POPC   D2A70648  26.638  29.094   6.591
 5627POPC   C3A70649  26.672  29.308   7.019
 5627POPC   C4A70650  26.649  29.059   7.422
 5627POPC   C1B70651  27.019  29.553   6.243
 5627POPC   C2B70652  27.139  29.498   6.709
 5627POPC   C3B70653  27.191  29.471   7.167
 5627POPC   C4B70654  27.023  29.366   7.606
 5628POPC   NC370655  35.762  28.501   5.564
 5628POPC   PO470656  35.199  28.116   5.406
 5628POPC   GL170657  35.287  28.371   5.791
 5628POPC   GL270658  35.174  28.711   5.728
 5628POPC   C1A70659  35.412  28.358   6.238
 5628POPC   D2A70660  35.603  28.426   6.663
 5628POPC   C3A70661  35.405  28.225   7.036
 5628POPC   C4A70662  35.521  27.791   7.079
 5628POPC   C1B70663  35.107  28.842   6.170
 5628POPC   C2B70664  35.122  28.662   6.563
 5628POPC   C3B70665  35.285  28.722   6.947
 5628POPC   C4B70666  35.104  28.589   7.311
 5629POPC   NC370667  18.454   4.805   5.545
 5629POPC   PO470668  17.912   5.198   5.483
 5629POPC   GL170669  18.216   5.167   5.821
 5629POPC   GL270670  18.403   5.481   5.871
 5629POPC   C1A70671  18.193   4.980   6.224
 5629POPC   D2A70672  18.245   5.189   6.622
 5629POPC   C3A70673  18.316   4.899   6.949
 5629POPC   C4A70674  18.070   4.817   7.274
 5629POPC   C1B70675  18.625   5.279   6.236
 5629POPC   C2B70676  18.752   5.110   6.662
 5629POPC   C3B70677  18.714   5.166   7.136
 5629POPC   C4B70678  18.478   5.260   7.527
 5630POPC   NC370679  31.792  25.929   5.410
 5630POPC   PO470680  31.343  26.251   5.137
 5630POPC   GL170681  31.392  26.187   5.623
 5630POPC   GL270682  31.402  25.846   5.778
 5630POPC   C1A70683  31.393  26.227   6.105
 5630POPC   D2A70684  31.296  26.175   6.557
 5630POPC   C3A70685  31.428  26.348   6.953
 5630POPC   C4A70686  31.600  26.064   7.247
 5630POPC   C1B70687  31.303  25.579   6.142
 5630POPC   C2B70688  31.332  25.625   6.598
 5630POPC   C3B70689  31.536  25.594   7.006
 5630POPC   C4B70690  31.477  25.593   7.448
 5631POPC   NC370691  15.042  24.758   5.456
 5631POPC   PO470692  14.942  24.116   5.449
 5631POPC   GL170693  14.966  24.377   5.825
 5631POPC   GL270694  15.304  24.489   5.798
 5631POPC   C1A70695  14.915  24.716   6.150
 5631POPC   D2A70696  14.984  25.016   6.497
 5631POPC   C3A70697  14.968  24.829   6.904
 5631POPC   C4A70698  14.851  24.399   6.993
 5631POPC   C1B70699  15.405  24.571   6.217
 5631POPC   C2B70700  15.171  24.493   6.575
 5631POPC   C3B70701  15.351  24.498   6.982
 5631POPC   C4B70702  15.712  24.566   7.167
 5632POPC   NC370703   0.405  33.873   5.290
 5632POPC   PO470704   0.549  33.286   5.486
 5632POPC   GL170705   0.410  33.644   5.746
 5632POPC   GL270706   0.309  34.031   5.755
 5632POPC   C1A70707   0.494  33.758   6.138
 5632POPC   D2A70708   0.724  33.622   6.442
 5632POPC   C3A70709   0.556  33.598   6.841
 5632POPC   C4A70710   0.363  33.738   7.226
 5632POPC   C1B70711   0.128  34.131   6.167
 5632POPC   C2B70712   0.108  33.913   6.549
 5632POPC   C3B70713  44.941  33.986   6.943
 5632POPC   C4B70714   0.086  34.187   7.269
 5633POPC   NC370715  15.916  17.196   5.716
 5633POPC   PO470716  15.881  16.576   5.512
 5633POPC   GL170717  15.812  16.727   5.904
 5633POPC   GL270718  16.166  16.813   5.917
 5633POPC   C1A70719  15.900  16.762   6.358
 5633POPC   D2A70720  15.954  16.513   6.728
 5633POPC   C3A70721  15.699  16.705   7.032
 5633POPC   C4A70722  15.828  16.813   7.399
 5633POPC   C1B70723  16.293  17.145   6.225
 5633POPC   C2B70724  16.155  17.182   6.632
 5633POPC   C3B70725  16.133  16.974   6.998
 5633POPC   C4B70726  16.312  17.099   7.359
 5634POPC   NC370727  19.094  22.370   5.328
 5634POPC   PO470728  19.411  21.779   5.435
 5634POPC   GL170729  19.234  22.122   5.757
 5634POPC   GL270730  18.905  22.247   5.787
 5634POPC   C1A70731  19.223  22.342   6.197
 5634POPC   D2A70732  19.038  22.422   6.641
 5634POPC   C3A70733  18.935  22.030   6.895
 5634POPC   C4A70734  19.203  21.761   7.097
 5634POPC   C1B70735  18.708  22.369   6.194
 5634POPC   C2B70736  18.561  22.235   6.614
 5634POPC   C3B70737  18.595  22.371   7.079
 5634POPC   C4B70738  18.793  22.134   7.415
 5635POPC   NC370739   1.006  30.836   5.296
 5635POPC   PO470740   1.593  31.071   5.407
 5635POPC   GL170741   1.463  30.704   5.719
 5635POPC   GL270742   1.077  30.618   5.745
 5635POPC   C1A70743   1.405  30.471   6.135
 5635POPC   D2A70744   1.562  30.461   6.555
 5635POPC   C3A70745   1.332  30.489   6.955
 5635POPC   C4A70746   1.359  30.824   7.237
 5635POPC   C1B70747   1.022  30.792   6.127
 5635POPC   C2B70748   1.077  30.678   6.540
 5635POPC   C3B70749   0.928  30.801   6.939
 5635POPC   C4B70750   0.910  30.516   7.286
 5636POPC   NC370751  41.096  30.869   5.511
 5636POPC   PO470752  40.501  30.665   5.259
 5636POPC   GL170753  40.609  30.675   5.707
 5636POPC   GL270754  40.447  31.007   5.763
 5636POPC   C1A70755  40.867  30.603   6.108
 5636POPC   D2A70756  41.176  30.603   6.477
 5636POPC   C3A70757  41.026  30.768   6.869
 5636POPC   C4A70758  40.694  30.593   7.085
 5636POPC   C1B70759  40.407  30.866   6.171
 5636POPC   C2B70760  40.627  30.760   6.531
 5636POPC   C3B70761  40.367  30.895   6.803
 5636POPC   C4B70762  40.317  30.939   7.213
 5637POPC   NC370763  38.374  19.014   5.236
 5637POPC   PO470764  38.000  19.379   5.671
 5637POPC   GL170765  38.367  19.179   5.813
 5637POPC   GL270766  38.412  18.867   5.711
 5637POPC   C1A70767  38.334  19.089   6.248
 5637POPC   D2A70768  38.159  18.932   6.595
 5637POPC   C3A70769  38.274  19.090   6.993
 5637POPC   C4A70770  38.103  19.003   7.400
 5637POPC   C1B70771  38.545  18.667   6.039
 5637POPC   C2B70772  38.527  18.593   6.452
 5637POPC   C3B70773  38.598  18.577   6.874
 5637POPC   C4B70774  38.553  18.744   7.277
 5638POPC   NC370775  31.393  31.185   5.132
 5638POPC   PO470776  31.757  31.649   5.431
 5638POPC   GL170777  31.636  31.357   5.692
 5638POPC   GL270778  31.285  31.313   5.774
 5638POPC   C1A70779  31.736  31.351   6.113
 5638POPC   D2A70780  31.511  31.573   6.428
 5638POPC   C3A70781  31.682  31.573   6.829
 5638POPC   C4A70782  31.722  31.791   7.180
 5638POPC   C1B70783  31.149  31.271   6.225
 5638POPC   C2B70784  31.277  31.227   6.721
 5638POPC   C3B70785  31.295  31.325   7.188
 5638POPC   C4B70786  31.093  31.190   7.609
 5639POPC   NC370787  36.981  18.044   5.290
 5639POPC   PO470788  36.440  17.846   5.531
 5639POPC   GL170789  36.709  18.191   5.730
 5639POPC   GL270790  37.068  18.148   5.792
 5639POPC   C1A70791  36.782  18.432   6.137
 5639POPC   D2A70792  36.871  18.231   6.536
 5639POPC   C3A70793  37.029  18.408   6.896
 5639POPC   C4A70794  36.742  18.417   7.180
 5639POPC   C1B70795  37.247  18.132   6.205
 5639POPC   C2B70796  37.255  17.898   6.596
 5639POPC   C3B70797  37.361  17.943   7.018
 5639POPC   C4B70798  37.182  18.185   7.352
 5640POPC   NC370799   1.467  36.156   5.319
 5640POPC   PO470800   0.802  36.590   5.321
 5640POPC   GL170801   0.903  36.374   5.719
 5640POPC   GL270802   1.026  36.046   5.693
 5640POPC   C1A70803   1.263  36.368   6.051
 5640POPC   D2A70804   1.535  36.208   6.413
 5640POPC   C3A70805   1.445  36.333   6.832
 5640POPC   C4A70806   1.391  36.509   7.219
 5640POPC   C1B70807   1.182  35.882   6.082
 5640POPC   C2B70808   1.161  35.881   6.519
 5640POPC   C3B70809   1.016  36.052   6.874
 5640POPC   C4B70810   1.197  36.028   7.250
 5641POPC   NC370811  28.134  21.933   5.067
 5641POPC   PO470812  27.500  22.078   5.306
 5641POPC   GL170813  27.541  22.151   5.745
 5641POPC   GL270814  27.890  22.152   5.837
 5641POPC   C1A70815  27.444  22.155   6.194
 5641POPC   D2A70816  27.395  22.121   6.635
 5641POPC   C3A70817  27.750  22.072   6.916
 5641POPC   C4A70818  27.541  22.202   7.275
 5641POPC   C1B70819  27.807  22.506   6.142
 5641POPC   C2B70820  27.696  22.537   6.605
 5641POPC   C3B70821  27.898  22.535   7.039
 5641POPC   C4B70822  27.911  22.434   7.519
 5642POPC   NC370823  43.902  42.345   5.137
 5642POPC   PO470824  43.830  41.668   5.016
 5642POPC   GL170825  43.703  41.642   5.549
 5642POPC   GL270826  43.992  41.693   5.832
 5642POPC   C1A70827  43.585  41.503   6.038
 5642POPC   D2A70828  43.553  41.245   6.447
 5642POPC   C3A70829  43.648  41.380   6.892
 5642POPC   C4A70830  43.523  41.721   7.186
 5642POPC   C1B70831  44.159  41.840   6.263
 5642POPC   C2B70832  44.100  41.860   6.748
 5642POPC   C3B70833  44.272  41.641   7.140
 5642POPC   C4B70834  44.320  41.350   7.529
 5643POPC   NC370835  36.320  27.353   5.572
 5643POPC   PO470836  35.754  27.451   5.201
 5643POPC   GL170837  35.836  27.553   5.746
 5643POPC   GL270838  36.043  27.342   6.005
 5643POPC   C1A70839  35.989  27.787   6.217
 5643POPC   D2A70840  35.831  27.879   6.670
 5643POPC   C3A70841  36.053  27.709   7.054
 5643POPC   C4A70842  36.268  27.814   7.463
 5643POPC   C1B70843  36.401  27.441   6.266
 5643POPC   C2B70844  36.228  27.381   6.667
 5643POPC   C3B70845  36.372  27.297   7.042
 5643POPC   C4B70846  36.595  27.430   7.360
 5644POPC   NC370847  23.829  33.570   5.702
 5644POPC   PO470848  23.510  34.075   5.376
 5644POPC   GL170849  23.678  34.096   5.802
 5644POPC   GL270850  24.015  33.999   5.862
 5644POPC   C1A70851  23.580  34.016   6.248
 5644POPC   D2A70852  23.661  33.632   6.515
 5644POPC   C3A70853  23.731  33.630   6.976
 5644POPC   C4A70854  23.380  33.584   7.188
 5644POPC   C1B70855  24.104  33.904   6.284
 5644POPC   C2B70856  23.931  34.067   6.653
 5644POPC   C3B70857  23.976  34.056   7.067
 5644POPC   C4B70858  24.027  33.947   7.520
 5645POPC   NC370859  43.402  24.058   5.725
 5645POPC   PO470860  42.936  23.921   5.214
 5645POPC   GL170861  43.027  23.628   5.681
 5645POPC   GL270862  43.408  23.542   5.822
 5645POPC   C1A70863  42.978  23.628   6.201
 5645POPC   D2A70864  43.131  23.657   6.677
 5645POPC   C3A70865  42.910  23.692   7.088
 5645POPC   C4A70866  42.915  23.558   7.557
 5645POPC   C1B70867  43.477  23.692   6.284
 5645POPC   C2B70868  43.480  24.058   6.570
 5645POPC   C3B70869  43.321  24.067   6.996
 5645POPC   C4B70870  43.371  23.747   7.305
 5646POPC   NC370871   5.379  43.261   5.082
 5646POPC   PO470872   5.020  42.760   5.291
 5646POPC   GL170873   5.279  42.922   5.642
 5646POPC   GL270874   5.194  43.266   5.784
 5646POPC   C1A70875   5.433  42.901   6.086
 5646POPC   D2A70876   5.456  42.880   6.549
 5646POPC   C3A70877   5.159  43.043   6.866
 5646POPC   C4A70878   4.766  43.189   7.082
 5646POPC   C1B70879   5.034  43.284   6.243
 5646POPC   C2B70880   5.016  43.497   6.682
 5646POPC   C3B70881   5.168  43.530   7.149
 5646POPC   C4B70882   5.479  43.458   7.496
 5647POPC   NC370883  41.778   5.369   5.384
 5647POPC   PO470884  41.414   4.860   5.306
 5647POPC   GL170885  41.654   4.962   5.669
 5647POPC   GL270886  41.417   5.233   5.730
 5647POPC   C1A70887  41.813   5.096   6.089
 5647POPC   D2A70888  41.669   4.971   6.519
 5647POPC   C3A70889  41.807   5.186   6.887
 5647POPC   C4A70890  41.676   5.128   7.289
 5647POPC   C1B70891  41.314   4.959   6.083
 5647POPC   C2B70892  41.125   4.998   6.488
 5647POPC   C3B70893  41.280   5.026   6.916
 5647POPC   C4B70894  41.240   5.387   7.207
 5648POPC   NC370895  15.531  27.722   5.559
 5648POPC   PO470896  15.403  27.059   5.481
 5648POPC   GL170897  15.209  27.377   5.779
 5648POPC   GL270898  15.064  27.757   5.741
 5648POPC   C1A70899  15.280  27.400   6.233
 5648POPC   D2A70900  15.480  27.454   6.641
 5648POPC   C3A70901  15.240  27.358   6.990
 5648POPC   C4A70902  15.200  27.476   7.435
 5648POPC   C1B70903  15.168  27.893   6.181
 5648POPC   C2B70904  15.164  27.867   6.663
 5648POPC   C3B70905  15.295  27.868   7.098
 5648POPC   C4B70906  15.245  27.982   7.533
 5649POPC   NC370907   0.645  18.410   5.456
 5649POPC   PO470908  44.982  18.320   5.566
 5649POPC   GL170909   0.336  18.232   5.841
 5649POPC   GL270910   0.611  17.955   5.781
 5649POPC   C1A70911   0.388  18.521   6.178
 5649POPC   D2A70912   0.162  18.564   6.576
 5649POPC   C3A70913   0.376  18.409   6.926
 5649POPC   C4A70914   0.481  18.370   7.347
 5649POPC   C1B70915   0.606  18.060   6.249
 5649POPC   C2B70916   0.758  18.132   6.690
 5649POPC   C3B70917   0.743  17.979   7.123
 5649POPC   C4B70918   0.719  17.980   7.593
 5650POPC   NC370919  39.378  44.315   5.482
 5650POPC   PO470920  38.952  43.854   5.358
 5650POPC   GL170921  39.135  43.938   5.800
 5650POPC   GL270922  39.243  44.281   5.969
 5650POPC   C1A70923  39.113  43.702   6.216
 5650POPC   D2A70924  38.854  43.458   6.489
 5650POPC   C3A70925  38.837  43.591   6.883
 5650POPC   C4A70926  38.953  43.569   7.300
 5650POPC   C1B70927  38.850  44.133   6.181
 5650POPC   C2B70928  38.852  44.013   6.609
 5650POPC   C3B70929  38.847  44.051   7.060
 5650POPC   C4B70930  39.044  44.121   7.405
 5651POPC   NC370931   5.636  27.859   5.398
 5651POPC   PO470932   6.120  27.413   5.531
 5651POPC   GL170933   5.789  27.457   5.844
 5651POPC   GL270934   5.755  27.822   5.896
 5651POPC   C1A70935   5.768  27.507   6.300
 5651POPC   D2A70936   5.888  27.736   6.662
 5651POPC   C3A70937   5.679  27.571   7.041
 5651POPC   C4A70938   5.867  27.338   7.392
 5651POPC   C1B70939   6.066  28.026   6.180
 5651POPC   C2B70940   6.226  28.178   6.600
 5651POPC   C3B70941   6.295  27.912   6.939
 5651POPC   C4B70942   6.034  27.830   7.285
 5652POPC   NC370943  23.300  20.292   5.290
 5652POPC   PO470944  22.685  20.645   5.283
 5652POPC   GL170945  22.841  20.622   5.724
 5652POPC   GL270946  22.893  20.314   5.797
 5652POPC   C1A70947  22.747  20.652   6.197
 5652POPC   D2A70948  22.483  20.778   6.560
 5652POPC   C3A70949  22.646  20.668   6.990
 5652POPC   C4A70950  22.976  20.778   7.305
 5652POPC   C1B70951  23.100  20.288   6.245
 5652POPC   C2B70952  23.107  20.503   6.673
 5652POPC   C3B70953  23.178  20.335   7.104
 5652POPC   C4B70954  23.112  20.325   7.548
 5653POPC   NC370955  15.501  36.808   5.481
 5653POPC   PO470956  14.814  37.024   5.381
 5653POPC   GL170957  15.050  36.883   5.772
 5653POPC   GL270958  15.244  37.165   5.853
 5653POPC   C1A70959  15.195  36.716   6.196
 5653POPC   D2A70960  15.138  36.993   6.595
 5653POPC   C3A70961  15.212  36.842   7.012
 5653POPC   C4A70962  14.980  36.858   7.414
 5653POPC   C1B70963  15.465  37.154   6.245
 5653POPC   C2B70964  15.642  37.319   6.612
 5653POPC   C3B70965  15.648  37.135   7.017
 5653POPC   C4B70966  15.439  37.108   7.428
 5654POPC   NC370967  35.030  13.047   5.522
 5654POPC   PO470968  35.694  13.050   5.529
 5654POPC   GL170969  35.466  12.869   5.847
 5654POPC   GL270970  35.153  12.637   5.772
 5654POPC   C1A70971  35.558  13.036   6.264
 5654POPC   D2A70972  35.692  13.000   6.691
 5654POPC   C3A70973  35.465  13.154   7.040
 5654POPC   C4A70974  35.180  13.016   7.358
 5654POPC   C1B70975  35.097  12.784   6.180
 5654POPC   C2B70976  35.316  12.690   6.550
 5654POPC   C3B70977  35.337  12.657   6.984
 5654POPC   C4B70978  34.979  12.538   7.231
 5655POPC   NC370979  21.794  24.819   5.402
 5655POPC   PO470980  22.253  24.328   5.128
 5655POPC   GL170981  22.233  24.539   5.584
 5655POPC   GL270982  22.518  24.482   5.815
 5655POPC   C1A70983  22.078  24.648   6.063
 5655POPC   D2A70984  22.180  24.609   6.558
 5655POPC   C3A70985  21.969  24.585   6.982
 5655POPC   C4A70986  21.808  24.317   7.284
 5655POPC   C1B70987  22.592  24.659   6.260
 5655POPC   C2B70988  22.610  24.834   6.716
 5655POPC   C3B70989  22.457  24.656   7.137
 5655POPC   C4B70990  22.458  24.774   7.623
 5656POPC   NC370991  34.987  30.173   5.590
 5656POPC   PO470992  35.530  29.893   5.251
 5656POPC   GL170993  35.416  29.836   5.736
 5656POPC   GL270994  35.102  29.866   5.969
 5656POPC   C1A70995  35.527  29.702   6.175
 5656POPC   D2A70996  35.471  29.650   6.610
 5656POPC   C3A70997  35.624  29.911   6.929
 5656POPC   C4A70998  35.412  30.013   7.298
 5656POPC   C1B70999  35.136  30.011   6.334
 5656POPC   C2B71000  35.294  30.206   6.640
 5656POPC   C3B71001  35.039  30.232   6.989
 5656POPC   C4B71002  35.025  30.320   7.436
 5657POPC   NC371003  15.851  32.495   5.439
 5657POPC   PO471004  16.016  31.830   5.350
 5657POPC   GL171005  16.024  32.098   5.749
 5657POPC   GL271006  16.219  32.442   5.769
 5657POPC   C1A71007  15.804  32.092   6.176
 5657POPC   D2A71008  15.993  31.946   6.577
 5657POPC   C3A71009  15.840  32.053   6.961
 5657POPC   C4A71010  16.091  32.167   7.278
 5657POPC   C1B71011  15.946  32.572   6.123
 5657POPC   C2B71012  15.869  32.456   6.562
 5657POPC   C3B71013  16.204  32.440   6.855
 5657POPC   C4B71014  16.399  32.573   7.238
 5658POPC   NC371015  10.904   6.111   5.434
 5658POPC   PO471016  11.560   5.794   5.422
 5658POPC   GL171017  11.283   5.810   5.798
 5658POPC   GL271018  11.139   5.501   5.892
 5658POPC   C1A71019  11.293   5.766   6.287
 5658POPC   D2A71020  11.203   5.647   6.734
 5658POPC   C3A71021  11.156   5.988   7.041
 5658POPC   C4A71022  11.505   6.269   7.141
 5658POPC   C1B71023  11.532   5.325   6.137
 5658POPC   C2B71024  11.719   5.287   6.575
 5658POPC   C3B71025  11.636   5.484   6.993
 5658POPC   C4B71026  11.271   5.531   7.240
 5659POPC   NC371027  29.115   0.447   5.309
 5659POPC   PO471028  29.105   1.076   5.634
 5659POPC   GL171029  29.189   0.688   5.863
 5659POPC   GL271030  29.253   0.324   5.780
 5659POPC   C1A71031  29.087   0.446   6.246
 5659POPC   D2A71032  28.823   0.383   6.571
 5659POPC   C3A71033  29.073   0.416   6.896
 5659POPC   C4A71034  29.070   0.643   7.182
 5659POPC   C1B71035  28.948   0.016   5.985
 5659POPC   C2B71036  28.821  44.894   6.412
 5659POPC   C3B71037  28.884  44.927   6.855
 5659POPC   C4B71038  28.984   0.090   7.290
 5660POPC   NC371039  42.228  20.506   5.149
 5660POPC   PO471040  42.617  20.689   5.635
 5660POPC   GL171041  42.251  20.600   5.889
 5660POPC   GL271042  42.131  20.228   5.861
 5660POPC   C1A71043  42.321  20.716   6.320
 5660POPC   D2A71044  42.260  20.506   6.702
 5660POPC   C3A71045  42.474  20.738   7.028
 5660POPC   C4A71046  42.254  21.054   7.267
 5660POPC   C1B71047  42.426  20.217   6.225
 5660POPC   C2B71048  42.651  20.212   6.629
 5660POPC   C3B71049  42.459  20.184   7.054
 5660POPC   C4B71050  42.406  20.419   7.429
 5661POPC   NC371051  40.232  41.343   5.462
 5661POPC   PO471052  40.168  41.948   5.771
 5661POPC   GL171053  40.105  41.567   5.936
 5661POPC   GL271054  39.838  41.409   5.812
 5661POPC   C1A71055  40.138  41.410   6.357
 5661POPC   D2A71056  40.087  41.662   6.730
 5661POPC   C3A71057  40.000  41.448   7.107
 5661POPC   C4A71058  39.767  41.044   7.131
 5661POPC   C1B71059  39.665  41.506   6.209
 5661POPC   C2B71060  39.678  41.373   6.645
 5661POPC   C3B71061  39.480  41.496   7.045
 5661POPC   C4B71062  39.577  41.430   7.463
 5662POPC   NC371063  37.513  20.332   5.420
 5662POPC   PO471064  37.967  20.849   5.424
 5662POPC   GL171065  37.681  20.712   5.746
 5662POPC   GL271066  37.739  20.379   5.876
 5662POPC   C1A71067  37.650  20.786   6.174
 5662POPC   D2A71068  37.915  20.573   6.423
 5662POPC   C3A71069  37.843  20.842   6.753
 5662POPC   C4A71070  37.725  20.707   7.139
 5662POPC   C1B71071  37.379  20.367   6.214
 5662POPC   C2B71072  37.535  20.274   6.658
 5662POPC   C3B71073  37.449  20.253   7.110
 5662POPC   C4B71074  37.416  20.165   7.564
 5663POPC   NC371075  15.503  17.747   5.444
 5663POPC   PO471076  16.199  17.414   5.434
 5663POPC   GL171077  16.109  17.640   5.864
 5663POPC   GL271078  15.732  17.608   5.963
 5663POPC   C1A71079  16.073  17.609   6.343
 5663POPC   D2A71080  16.140  17.802   6.739
 5663POPC   C3A71081  16.203  17.518   7.073
 5663POPC   C4A71082  16.137  17.553   7.534
 5663POPC   C1B71083  15.709  17.260   6.337
 5663POPC   C2B71084  15.665  17.176   6.806
 5663POPC   C3B71085  15.785  17.285   7.261
 5663POPC   C4B71086  15.683  17.337   7.743
 5664POPC   NC371087  29.342  11.821   5.549
 5664POPC   PO471088  28.889  12.385   5.381
 5664POPC   GL171089  28.986  12.400   5.831
 5664POPC   GL271090  29.281  12.160   5.916
 5664POPC   C1A71091  29.082  12.425   6.291
 5664POPC   D2A71092  29.364  12.178   6.569
 5664POPC   C3A71093  29.136  11.970   6.907
 5664POPC   C4A71094  29.051  12.229   7.225
 5664POPC   C1B71095  29.483  11.828   6.197
 5664POPC   C2B71096  29.438  11.660   6.622
 5664POPC   C3B71097  29.539  11.702   7.055
 5664POPC   C4B71098  29.293  11.780   7.423
 5665POPC   NC371099  22.504  43.419   5.368
 5665POPC   PO471100  21.998  43.041   5.306
 5665POPC   GL171101  22.053  42.905   5.729
 5665POPC   GL271102  22.061  43.231   5.863
 5665POPC   C1A71103  22.285  42.879   6.161
 5665POPC   D2A71104  22.360  42.973   6.620
 5665POPC   C3A71105  22.008  43.135   6.909
 5665POPC   C4A71106  21.844  43.015   7.350
 5665POPC   C1B71107  22.388  43.410   6.133
 5665POPC   C2B71108  22.381  43.488   6.578
 5665POPC   C3B71109  22.387  43.476   7.007
 5665POPC   C4B71110  22.032  43.499   7.305
 5666POPC   NC371111  10.239  42.286   5.344
 5666POPC   PO471112  10.724  42.758   5.460
 5666POPC   GL171113  10.672  42.623   5.861
 5666POPC   GL271114  10.392  42.401   5.848
 5666POPC   C1A71115  10.566  42.569   6.298
 5666POPC   D2A71116  10.266  42.463   6.608
 5666POPC   C3A71117  10.484  42.285   6.939
 5666POPC   C4A71118  10.681  42.552   7.217
 5666POPC   C1B71119  10.261  42.126   6.233
 5666POPC   C2B71120  10.062  42.011   6.673
 5666POPC   C3B71121   9.980  42.309   7.047
 5666POPC   C4B71122  10.243  42.364   7.425
 5667POPC   NC371123  34.841  43.813   5.155
 5667POPC   PO471124  34.318  44.083   5.269
 5667POPC   GL171125  34.580  44.141   5.687
 5667POPC   GL271126  34.373  44.260   5.964
 5667POPC   C1A71127  34.757  43.932   6.114
 5667POPC   D2A71128  34.597  43.787   6.545
 5667POPC   C3A71129  34.803  43.858   6.940
 5667POPC   C4A71130  34.719  43.705   7.333
 5667POPC   C1B71131  34.240  43.837   6.167
 5667POPC   C2B71132  34.131  43.577   6.548
 5667POPC   C3B71133  34.024  43.720   6.954
 5667POPC   C4B71134  34.330  43.951   7.127
 5668POPC   NC371135   2.725  28.054   5.404
 5668POPC   PO471136   2.954  27.405   5.506
 5668POPC   GL171137   2.736  27.662   5.805
 5668POPC   GL271138   3.002  27.492   6.001
 5668POPC   C1A71139   2.751  27.844   6.238
 5668POPC   D2A71140   2.651  27.636   6.602
 5668POPC   C3A71141   2.716  27.552   7.025
 5668POPC   C4A71142   2.329  27.449   7.233
 5668POPC   C1B71143   3.109  27.113   6.202
 5668POPC   C2B71144   3.014  27.277   6.610
 5668POPC   C3B71145   3.148  27.314   7.005
 5668POPC   C4B71146   3.198  27.213   7.399
 5669POPC   NC371147  29.279  14.241   5.543
 5669POPC   PO471148  29.401  14.806   5.257
 5669POPC   GL171149  29.045  14.753   5.689
 5669POPC   GL271150  29.097  14.442   5.955
 5669POPC   C1A71151  28.821  14.770   6.166
 5669POPC   D2A71152  28.822  14.498   6.556
 5669POPC   C3A71153  29.185  14.382   6.829
 5669POPC   C4A71154  29.204  14.413   7.276
 5669POPC   C1B71155  29.177  14.181   6.334
 5669POPC   C2B71156  29.160  13.880   6.676
 5669POPC   C3B71157  29.195  13.924   7.137
 5669POPC   C4B71158  29.358  14.028   7.577
 5670POPC   NC371159  29.246  10.147   5.595
 5670POPC   PO471160  29.597   9.678   5.248
 5670POPC   GL171161  29.410   9.600   5.691
 5670POPC   GL271162  29.088   9.700   5.791
 5670POPC   C1A71163  29.389   9.417   6.120
 5670POPC   D2A71164  29.204   9.415   6.535
 5670POPC   C3A71165  29.427   9.511   6.910
 5670POPC   C4A71166  29.521   9.930   7.089
 5670POPC   C1B71167  29.014   9.895   6.233
 5670POPC   C2B71168  28.878   9.811   6.688
 5670POPC   C3B71169  28.997   9.719   7.137
 5670POPC   C4B71170  28.870   9.694   7.607
 5671POPC   NC371171  30.784  28.875   5.499
 5671POPC   PO471172  30.542  29.486   5.681
 5671POPC   GL171173  30.611  29.114   5.917
 5671POPC   GL271174  30.369  28.843   5.850
 5671POPC   C1A71175  30.860  29.065   6.301
 5671POPC   D2A71176  30.911  29.385   6.633
 5671POPC   C3A71177  30.825  29.204   7.028
 5671POPC   C4A71178  30.575  29.267   7.396
 5671POPC   C1B71179  30.404  28.819   6.278
 5671POPC   C2B71180  30.430  29.060   6.674
 5671POPC   C3B71181  30.432  28.879   7.103
 5671POPC   C4B71182  30.442  28.805   7.579
 5672POPC   NC371183   9.843   2.980   5.395
 5672POPC   PO471184   9.614   2.321   5.415
 5672POPC   GL171185   9.520   2.697   5.724
 5672POPC   GL271186   9.835   2.655   5.787
 5672POPC   C1A71187   9.568   2.959   6.153
 5672POPC   D2A71188   9.611   3.212   6.585
 5672POPC   C3A71189   9.611   2.953   6.993
 5672POPC   C4A71190   9.419   2.697   7.352
 5672POPC   C1B71191   9.877   2.549   6.193
 5672POPC   C2B71192   9.859   2.740   6.569
 5672POPC   C3B71193   9.971   2.557   6.936
 5672POPC   C4B71194   9.732   2.340   7.247
 5673POPC   NC371195  33.409  39.935   5.398
 5673POPC   PO471196  32.716  40.075   5.352
 5673POPC   GL171197  32.970  39.941   5.683
 5673POPC   GL271198  33.262  40.136   5.832
 5673POPC   C1A71199  32.890  39.827   6.085
 5673POPC   D2A71200  33.079  39.967   6.446
 5673POPC   C3A71201  32.838  39.810   6.777
 5673POPC   C4A71202  32.893  40.017   7.152
 5673POPC   C1B71203  33.470  40.318   6.199
 5673POPC   C2B71204  33.395  40.516   6.590
 5673POPC   C3B71205  33.252  40.350   6.978
 5673POPC   C4B71206  33.398  40.088   7.298
 5674POPC   NC371207   8.275   9.508   5.211
 5674POPC   PO471208   8.110  10.139   5.362
 5674POPC   GL171209   8.241   9.817   5.676
 5674POPC   GL271210   7.982   9.532   5.720
 5674POPC   C1A71211   8.384   9.584   6.056
 5674POPC   D2A71212   8.320   9.354   6.455
 5674POPC   C3A71213   8.374   9.518   6.865
 5674POPC   C4A71214   8.305   9.688   7.246
 5674POPC   C1B71215   7.877   9.622   6.196
 5674POPC   C2B71216   7.843   9.536   6.683
 5674POPC   C3B71217   7.801   9.599   7.154
 5674POPC   C4B71218   7.890   9.917   7.510
 5675POPC   NC371219   0.544   5.351   5.251
 5675POPC   PO471220   0.381   4.683   5.318
 5675POPC   GL171221   0.579   4.960   5.617
 5675POPC   GL271222   0.378   5.263   5.782
 5675POPC   C1A71223   0.650   4.880   6.054
 5675POPC   D2A71224   0.429   4.932   6.426
 5675POPC   C3A71225   0.577   4.890   6.840
 5675POPC   C4A71226   0.390   5.027   7.229
 5675POPC   C1B71227   0.196   5.357   6.242
 5675POPC   C2B71228   0.293   5.360   6.726
 5675POPC   C3B71229   0.673   5.384   7.025
 5675POPC   C4B71230   0.698   5.354   7.526
 5676POPC   NC371231  39.844  44.993   4.914
 5676POPC   PO471232  39.800  44.383   5.330
 5676POPC   GL171233  39.692  44.572   5.778
 5676POPC   GL271234  39.997  44.617   5.952
 5676POPC   C1A71235  39.577  44.637   6.240
 5676POPC   D2A71236  39.744  44.359   6.557
 5676POPC   C3A71237  40.154  44.192   6.610
 5676POPC   C4A71238  40.541  44.285   7.063
 5676POPC   C1B71239  40.420  44.794   5.860
 5676POPC   C2B71240  40.679  44.980   6.197
 5676POPC   C3B71241  40.836   0.036   6.656
 5676POPC   C4B71242  40.895  44.647   6.928
 5677POPC   NC371243  32.054  15.671   5.470
 5677POPC   PO471244  32.314  16.405   5.324
 5677POPC   GL171245  32.363  16.090   5.630
 5677POPC   GL271246  32.032  16.163   5.772
 5677POPC   C1A71247  32.455  15.993   6.064
 5677POPC   D2A71248  32.375  15.850   6.504
 5677POPC   C3A71249  32.519  15.965   6.906
 5677POPC   C4A71250  32.292  16.133   7.257
 5677POPC   C1B71251  31.957  15.912   6.150
 5677POPC   C2B71252  31.913  15.653   6.505
 5677POPC   C3B71253  31.998  15.874   6.888
 5677POPC   C4B71254  31.808  15.917   7.273
 5678POPC   NC371255  19.734  24.573   5.334
 5678POPC   PO471256  20.068  24.050   5.601
 5678POPC   GL171257  19.958  24.452   5.805
 5678POPC   GL271258  19.599  24.594   5.830
 5678POPC   C1A71259  19.992  24.723   6.162
 5678POPC   D2A71260  19.998  24.828   6.603
 5678POPC   C3A71261  20.147  24.460   6.829
 5678POPC   C4A71262  20.263  24.346   7.233
 5678POPC   C1B71263  19.492  24.412   6.237
 5678POPC   C2B71264  19.685  24.338   6.652
 5678POPC   C3B71265  19.705  24.459   7.102
 5678POPC   C4B71266  19.424  24.346   7.471
 5679POPC   NC371267   4.568  29.531   5.383
 5679POPC   PO471268   4.333  28.871   5.372
 5679POPC   GL171269   4.283  29.113   5.755
 5679POPC   GL271270   4.584  29.241   5.811
 5679POPC   C1A71271   4.373  29.044   6.217
 5679POPC   D2A71272   4.216  29.204   6.597
 5679POPC   C3A71273   4.273  29.021   7.043
 5679POPC   C4A71274   4.126  29.036   7.511
 5679POPC   C1B71275   4.788  29.400   6.215
 5679POPC   C2B71276   4.727  29.166   6.618
 5679POPC   C3B71277   4.730  29.243   7.052
 5679POPC   C4B71278   4.928  29.332   7.451
 5680POPC   NC371279  41.341  20.045   5.164
 5680POPC   PO471280  41.540  19.537   5.545
 5680POPC   GL171281  41.717  19.677   5.905
 5680POPC   GL271282  41.634  20.027   5.836
 5680POPC   C1A71283  41.640  19.665   6.332
 5680POPC   D2A71284  41.230  19.674   6.582
 5680POPC   C3A71285  41.356  19.662   6.986
 5680POPC   C4A71286  41.707  19.729   7.260
 5680POPC   C1B71287  41.797  20.142   6.249
 5680POPC   C2B71288  41.653  20.022   6.667
 5680POPC   C3B71289  41.576  20.169   7.020
 5680POPC   C4B71290  41.960  20.223   7.231
 5681POPC   NC371291  32.549   2.178   5.460
 5681POPC   PO471292  32.008   1.924   5.171
 5681POPC   GL171293  32.145   1.929   5.662
 5681POPC   GL271294  31.894   1.996   5.951
 5681POPC   C1A71295  32.364   1.897   6.099
 5681POPC   D2A71296  32.125   1.727   6.447
 5681POPC   C3A71297  32.146   1.898   6.861
 5681POPC   C4A71298  32.517   1.956   7.133
 5681POPC   C1B71299  32.148   2.377   6.132
 5681POPC   C2B71300  32.277   2.513   6.573
 5681POPC   C3B71301  32.252   2.373   7.020
 5681POPC   C4B71302  32.005   2.113   7.344
 5682POPC   NC371303  10.233   4.454   5.385
 5682POPC   PO471304  10.764   4.126   5.302
 5682POPC   GL171305  10.528   4.173   5.714
 5682POPC   GL271306  10.464   4.516   5.836
 5682POPC   C1A71307  10.418   4.111   6.167
 5682POPC   D2A71308  10.663   4.332   6.500
 5682POPC   C3A71309  10.750   4.224   6.921
 5682POPC   C4A71310  10.841   4.335   7.345
 5682POPC   C1B71311  10.274   4.616   6.284
 5682POPC   C2B71312  10.334   4.642   6.780
 5682POPC   C3B71313  10.358   4.474   7.228
 5682POPC   C4B71314  10.238   4.178   7.562
 5683POPC   NC371315  23.474   0.014   5.406
 5683POPC   PO471316  23.471   0.691   5.422
 5683POPC   GL171317  23.729   0.479   5.773
 5683POPC   GL271318  23.916   0.144   5.819
 5683POPC   C1A71319  23.745   0.425   6.230
 5683POPC   D2A71320  23.505   0.366   6.616
 5683POPC   C3A71321  23.528   0.699   6.899
 5683POPC   C4A71322  23.859   0.809   7.137
 5683POPC   C1B71323  24.164   0.108   6.209
 5683POPC   C2B71324  23.935   0.031   6.612
 5683POPC   C3B71325  23.790   0.184   7.029
 5683POPC   C4B71326  24.006   0.271   7.451
 5684POPC   NC371327  37.311  38.544   5.419
 5684POPC   PO471328  37.943  38.396   5.360
 5684POPC   GL171329  37.700  38.443   5.749
 5684POPC   GL271330  37.507  38.114   5.737
 5684POPC   C1A71331  37.534  38.535   6.179
 5684POPC   D2A71332  37.720  38.455   6.569
 5684POPC   C3A71333  37.905  38.616   6.942
 5684POPC   C4A71334  37.637  38.574   7.296
 5684POPC   C1B71335  37.782  38.073   6.109
 5684POPC   C2B71336  37.737  37.937   6.550
 5684POPC   C3B71337  37.708  38.126   6.965
 5684POPC   C4B71338  37.444  38.119   7.325
 5685POPC   NC371339  42.022  28.281   5.507
 5685POPC   PO471340  42.528  28.696   5.474
 5685POPC   GL171341  42.387  28.489   5.864
 5685POPC   GL271342  42.341  28.119   5.874
 5685POPC   C1A71343  42.367  28.385   6.314
 5685POPC   D2A71344  42.428  28.226   6.711
 5685POPC   C3A71345  42.357  28.506   6.999
 5685POPC   C4A71346  42.591  28.807   7.142
 5685POPC   C1B71347  42.173  27.911   6.260
 5685POPC   C2B71348  42.047  27.889   6.691
 5685POPC   C3B71349  42.079  28.071   7.112
 5685POPC   C4B71350  42.105  27.978   7.573
 5686POPC   NC371351  29.327  44.118   4.975
 5686POPC   PO471352  28.906  43.814   5.302
 5686POPC   GL171353  29.246  43.724   5.650
 5686POPC   GL271354  29.017  43.889   5.829
 5686POPC   C1A71355  29.380  43.748   6.126
 5686POPC   D2A71356  29.191  44.058   6.430
 5686POPC   C3A71357  29.284  44.039   6.885
 5686POPC   C4A71358  29.268  44.063   7.374
 5686POPC   C1B71359  28.919  43.579   6.198
 5686POPC   C2B71360  29.164  43.562   6.632
 5686POPC   C3B71361  29.194  43.597   7.121
 5686POPC   C4B71362  28.858  43.673   7.466
 5687POPC   NC371363  20.124  27.098   5.461
 5687POPC   PO471364  19.922  27.816   5.446
 5687POPC   GL171365  19.899  27.546   5.804
 5687POPC   GL271366  20.277  27.482   5.783
 5687POPC   C1A71367  19.609  27.627   6.185
 5687POPC   D2A71368  19.548  27.793   6.626
 5687POPC   C3A71369  19.695  27.503   6.943
 5687POPC   C4A71370  20.065  27.498   7.169
 5687POPC   C1B71371  20.228  27.829   6.090
 5687POPC   C2B71372  20.022  27.816   6.458
 5687POPC   C3B71373  20.075  27.911   6.880
 5687POPC   C4B71374  20.390  27.879   7.237
 5688POPC   NC371375   8.381  34.895   5.470
 5688POPC   PO471376   7.900  34.485   5.705
 5688POPC   GL171377   8.233  34.619   6.010
 5688POPC   GL271378   8.587  34.675   5.880
 5688POPC   C1A71379   8.291  34.400   6.410
 5688POPC   D2A71380   8.243  34.392   6.862
 5688POPC   C3A71381   8.234  34.839   7.023
 5688POPC   C4A71382   8.081  34.885   7.469
 5688POPC   C1B71383   8.761  34.574   6.276
 5688POPC   C2B71384   8.754  34.445   6.678
 5688POPC   C3B71385   8.701  34.562   7.076
 5688POPC   C4B71386   8.418  34.529   7.375
 5689POPC   NC371387   7.316   7.020   5.628
 5689POPC   PO471388   7.035   6.329   5.537
 5689POPC   GL171389   7.320   6.503   5.832
 5689POPC   GL271390   7.396   6.178   5.938
 5689POPC   C1A71391   7.470   6.726   6.199
 5689POPC   D2A71392   7.485   6.586   6.620
 5689POPC   C3A71393   7.302   6.761   6.963
 5689POPC   C4A71394   7.648   6.866   7.196
 5689POPC   C1B71395   7.228   6.265   6.302
 5689POPC   C2B71396   7.392   6.084   6.661
 5689POPC   C3B71397   7.519   6.262   7.049
 5689POPC   C4B71398   7.347   6.479   7.392
 5690POPC   NC371399  37.667  16.561   5.370
 5690POPC   PO471400  37.981  17.138   5.407
 5690POPC   GL171401  37.726  16.952   5.770
 5690POPC   GL271402  37.736  16.597   5.870
 5690POPC   C1A71403  37.797  16.950   6.252
 5690POPC   D2A71404  37.823  17.068   6.713
 5690POPC   C3A71405  37.575  16.734   6.924
 5690POPC   C4A71406  37.672  16.577   7.325
 5690POPC   C1B71407  37.720  16.321   6.224
 5690POPC   C2B71408  37.587  16.233   6.639
 5690POPC   C3B71409  37.877  16.256   6.986
 5690POPC   C4B71410  37.986  16.176   7.407
 5691POPC   NC371411   2.855  41.108   5.311
 5691POPC   PO471412   2.577  40.483   5.159
 5691POPC   GL171413   2.577  40.598   5.650
 5691POPC   GL271414   2.921  40.616   5.775
 5691POPC   C1A71415   2.632  40.656   6.171
 5691POPC   D2A71416   2.955  40.804   6.521
 5691POPC   C3A71417   2.800  40.877   6.949
 5691POPC   C4A71418   2.645  41.220   7.191
 5691POPC   C1B71419   3.126  40.457   6.159
 5691POPC   C2B71420   3.285  40.400   6.587
 5691POPC   C3B71421   3.159  40.500   7.024
 5691POPC   C4B71422   2.764  40.449   7.263
 5692POPC   NC371423   2.447  35.276   5.560
 5692POPC   PO471424   3.058  35.015   5.479
 5692POPC   GL171425   2.893  35.291   5.818
 5692POPC   GL271426   2.759  35.651   5.748
 5692POPC   C1A71427   2.664  35.263   6.211
 5692POPC   D2A71428   2.813  35.207   6.612
 5692POPC   C3A71429   2.562  35.087   6.942
 5692POPC   C4A71430   2.449  35.296   7.316
 5692POPC   C1B71431   2.616  35.754   6.169
 5692POPC   C2B71432   2.791  35.738   6.562
 5692POPC   C3B71433   2.754  35.612   6.996
 5692POPC   C4B71434   2.773  35.680   7.444
 5693POPC   NC371435  19.417  19.187   5.071
 5693POPC   PO471436  18.997  18.774   5.421
 5693POPC   GL171437  18.961  18.800   5.860
 5693POPC   GL271438  18.968  19.165   5.871
 5693POPC   C1A71439  19.196  18.905   6.251
 5693POPC   D2A71440  19.215  19.150   6.617
 5693POPC   C3A71441  19.225  18.931   7.031
 5693POPC   C4A71442  19.456  18.595   7.247
 5693POPC   C1B71443  18.910  19.428   6.200
 5693POPC   C2B71444  18.761  19.385   6.559
 5693POPC   C3B71445  18.920  19.372   6.964
 5693POPC   C4B71446  18.870  19.523   7.366
 5694POPC   NC371447  37.411  24.438   5.578
 5694POPC   PO471448  37.996  24.796   5.541
 5694POPC   GL171449  37.850  24.523   5.833
 5694POPC   GL271450  37.561  24.702   5.968
 5694POPC   C1A71451  37.904  24.363   6.227
 5694POPC   D2A71452  37.825  24.218   6.607
 5694POPC   C3A71453  37.840  24.440   6.983
 5694POPC   C4A71454  37.623  24.596   7.305
 5694POPC   C1B71455  37.264  24.717   6.258
 5694POPC   C2B71456  37.430  24.581   6.646
 5694POPC   C3B71457  37.186  24.706   6.972
 5694POPC   C4B71458  37.187  24.828   7.362
 5695POPC   NC371459   1.798  31.344   5.088
 5695POPC   PO471460   1.236  31.555   5.342
 5695POPC   GL171461   1.197  31.490   5.802
 5695POPC   GL271462   1.209  31.145   5.802
 5695POPC   C1A71463   1.132  31.631   6.230
 5695POPC   D2A71464   0.878  31.706   6.585
 5695POPC   C3A71465   1.088  31.580   6.952
 5695POPC   C4A71466   1.066  31.239   7.199
 5695POPC   C1B71467   1.389  31.111   6.254
 5695POPC   C2B71468   1.442  31.021   6.700
 5695POPC   C3B71469   1.568  31.271   7.049
 5695POPC   C4B71470   1.514  31.299   7.515
 5696POPC   NC371471  14.907  14.486   5.525
 5696POPC   PO471472  15.537  14.379   5.481
 5696POPC   GL171473  15.282  14.346   5.848
 5696POPC   GL271474  15.306  14.710   5.835
 5696POPC   C1A71475  14.965  14.484   6.194
 5696POPC   D2A71476  15.060  14.470   6.650
 5696POPC   C3A71477  15.127  14.492   7.111
 5696POPC   C4A71478  15.201  14.527   7.567
 5696POPC   C1B71479  15.446  14.596   6.273
 5696POPC   C2B71480  15.533  14.698   6.709
 5696POPC   C3B71481  15.611  14.668   7.148
 5696POPC   C4B71482  15.701  14.664   7.614
 5697POPC   NC371483  31.588  21.608   5.454
 5697POPC   PO471484  31.014  21.154   5.479
 5697POPC   GL171485  31.161  21.484   5.727
 5697POPC   GL271486  31.452  21.309   5.871
 5697POPC   C1A71487  31.118  21.579   6.160
 5697POPC   D2A71488  31.391  21.394   6.466
 5697POPC   C3A71489  31.208  21.328   6.851
 5697POPC   C4A71490  31.368  21.338   7.235
 5697POPC   C1B71491  31.628  21.675   6.098
 5697POPC   C2B71492  31.655  21.840   6.504
 5697POPC   C3B71493  31.570  21.706   6.896
 5697POPC   C4B71494  31.777  21.668   7.265
 5698POPC   NC371495  39.932   2.787   5.458
 5698POPC   PO471496  39.906   2.146   5.600
 5698POPC   GL171497  40.215   2.380   5.887
 5698POPC   GL271498  40.091   2.747   5.926
 5698POPC   C1A71499  40.109   2.451   6.338
 5698POPC   D2A71500  39.746   2.695   6.500
 5698POPC   C3A71501  39.793   2.757   6.931
 5698POPC   C4A71502  40.084   2.600   7.205
 5698POPC   C1B71503  40.142   2.975   6.294
 5698POPC   C2B71504  40.255   2.822   6.695
 5698POPC   C3B71505  40.355   3.019   7.072
 5698POPC   C4B71506  40.163   3.053   7.491
 5699POPC   NC371507  43.019  39.641   5.314
 5699POPC   PO471508  43.064  38.893   5.455
 5699POPC   GL171509  43.047  39.147   5.812
 5699POPC   GL271510  42.825  39.415   5.721
 5699POPC   C1A71511  42.976  39.018   6.225
 5699POPC   D2A71512  43.098  38.915   6.657
 5699POPC   C3A71513  43.034  39.242   6.925
 5699POPC   C4A71514  43.041  39.200   7.339
 5699POPC   C1B71515  42.827  39.585   6.090
 5699POPC   C2B71516  42.875  39.451   6.487
 5699POPC   C3B71517  42.620  39.557   6.832
 5699POPC   C4B71518  42.701  39.555   7.265
 5700POPC   NC371519  25.829   3.743   5.594
 5700POPC   PO471520  26.395   3.503   5.352
 5700POPC   GL171521  26.109   3.373   5.815
 5700POPC   GL271522  25.895   3.603   6.066
 5700POPC   C1A71523  26.169   3.230   6.258
 5700POPC   D2A71524  26.325   3.460   6.627
 5700POPC   C3A71525  26.128   3.539   6.986
 5700POPC   C4A71526  25.907   3.170   7.006
 5700POPC   C1B71527  25.544   3.727   6.289
 5700POPC   C2B71528  25.560   3.635   6.708
 5700POPC   C3B71529  25.632   3.610   7.097
 5700POPC   C4B71530  25.640   3.750   7.474
 5701POPC   NC371531  34.076   7.995   5.586
 5701POPC   PO471532  33.673   7.432   5.501
 5701POPC   GL171533  33.755   7.368   5.895
 5701POPC   GL271534  34.063   7.543   5.858
 5701POPC   C1A71535  33.947   7.192   6.239
 5701POPC   D2A71536  33.927   7.339   6.644
 5701POPC   C3A71537  33.596   7.506   6.866
 5701POPC   C4A71538  33.596   7.178   7.183
 5701POPC   C1B71539  33.941   7.706   6.260
 5701POPC   C2B71540  34.176   7.760   6.651
 5701POPC   C3B71541  34.043   7.675   7.054
 5701POPC   C4B71542  33.699   7.767   7.334
 5702POPC   NC371543   8.497  35.531   5.139
 5702POPC   PO471544   7.983  35.202   5.450
 5702POPC   GL171545   8.234  35.415   5.794
 5702POPC   GL271546   8.488  35.653   5.687
 5702POPC   C1A71547   8.278  35.510   6.260
 5702POPC   D2A71548   8.174  35.332   6.681
 5702POPC   C3A71549   7.998  35.602   7.032
 5702POPC   C4A71550   7.921  35.503   7.511
 5702POPC   C1B71551   8.712  35.737   6.103
 5702POPC   C2B71552   8.605  35.806   6.559
 5702POPC   C3B71553   8.546  35.547   6.945
 5702POPC   C4B71554   8.314  35.296   7.270
 5703POPC   NC371555  34.156  10.543   5.451
 5703POPC   PO471556  34.681  10.119   5.426
 5703POPC   GL171557  34.542  10.374   5.794
 5703POPC   GL271558  34.175  10.269   5.898
 5703POPC   C1A71559  34.768  10.632   6.135
 5703POPC   D2A71560  34.673  10.464   6.553
 5703POPC   C3A71561  34.662  10.678   6.966
 5703POPC   C4A71562  34.958  10.925   7.213
 5703POPC   C1B71563  34.276  10.672   6.130
 5703POPC   C2B71564  34.284  10.792   6.586
 5703POPC   C3B71565  34.181  10.843   7.046
 5703POPC   C4B71566  34.198  10.487   7.329
 5704POPC   NC371567   6.200  39.482   5.335
 5704POPC   PO471568   5.601  39.151   5.300
 5704POPC   GL171569   5.637  39.160   5.740
 5704POPC   GL271570   5.995  39.177   5.700
 5704POPC   C1A71571   5.794  39.144   6.184
 5704POPC   D2A71572   5.829  39.437   6.525
 5704POPC   C3A71573   5.744  39.256   6.920
 5704POPC   C4A71574   5.973  39.277   7.274
 5704POPC   C1B71575   6.284  39.256   6.040
 5704POPC   C2B71576   6.289  39.195   6.491
 5704POPC   C3B71577   6.344  39.308   6.921
 5704POPC   C4B71578   6.469  39.016   7.214
 5705POPC   NC371579   4.512  41.666   5.566
 5705POPC   PO471580   5.110  41.552   5.289
 5705POPC   GL171581   5.088  41.696   5.713
 5705POPC   GL271582   4.968  41.390   5.787
 5705POPC   C1A71583   5.219  41.617   6.159
 5705POPC   D2A71584   5.124  41.411   6.534
 5705POPC   C3A71585   5.157  41.614   6.881
 5705POPC   C4A71586   5.394  41.743   7.204
 5705POPC   C1B71587   4.774  41.289   6.190
 5705POPC   C2B71588   4.683  41.086   6.603
 5705POPC   C3B71589   4.658  41.234   7.011
 5705POPC   C4B71590   4.968  41.403   7.277
 5706POPC   NC371591  28.154  38.436   5.299
 5706POPC   PO471592  27.543  38.330   5.116
 5706POPC   GL171593  27.657  38.407   5.600
 5706POPC   GL271594  27.345  38.306   5.724
 5706POPC   C1A71595  27.904  38.433   6.055
 5706POPC   D2A71596  27.948  38.544   6.536
 5706POPC   C3A71597  28.007  38.246   6.915
 5706POPC   C4A71598  27.881  38.328   7.327
 5706POPC   C1B71599  27.389  38.567   6.077
 5706POPC   C2B71600  27.382  38.560   6.522
 5706POPC   C3B71601  27.580  38.524   6.942
 5706POPC   C4B71602  27.379  38.308   7.268
 5707POPC   NC371603  24.370  25.613   5.286
 5707POPC   PO471604  24.816  25.148   5.336
 5707POPC   GL171605  24.526  25.168   5.713
 5707POPC   GL271606  24.288  25.471   5.772
 5707POPC   C1A71607  24.427  25.123   6.152
 5707POPC   D2A71608  24.444  25.317   6.553
 5707POPC   C3A71609  24.506  25.143   6.985
 5707POPC   C4A71610  24.795  25.174   7.327
 5707POPC   C1B71611  24.438  25.690   6.150
 5707POPC   C2B71612  24.411  25.815   6.599
 5707POPC   C3B71613  24.324  25.607   6.947
 5707POPC   C4B71614  24.429  25.533   7.332
 5708POPC   NC371615   5.597  38.684   5.344
 5708POPC   PO471616   6.137  38.303   5.228
 5708POPC   GL171617   5.901  38.322   5.640
 5708POPC   GL271618   5.876  38.682   5.786
 5708POPC   C1A71619   5.929  38.310   6.118
 5708POPC   D2A71620   5.803  38.565   6.513
 5708POPC   C3A71621   5.847  38.385   6.945
 5708POPC   C4A71622   5.660  38.313   7.365
 5708POPC   C1B71623   6.170  38.760   6.165
 5708POPC   C2B71624   6.304  38.691   6.608
 5708POPC   C3B71625   6.061  38.864   6.926
 5708POPC   C4B71626   5.835  38.786   7.320
 5709POPC   NC371627  36.749  36.932   5.136
 5709POPC   PO471628  37.335  36.778   5.385
 5709POPC   GL171629  37.039  36.691   5.737
 5709POPC   GL271630  36.681  36.773   5.721
 5709POPC   C1A71631  37.045  36.891   6.177
 5709POPC   D2A71632  37.141  37.130   6.580
 5709POPC   C3A71633  37.107  36.949   6.990
 5709POPC   C4A71634  37.142  37.137   7.382
 5709POPC   C1B71635  36.555  37.049   6.083
 5709POPC   C2B71636  36.560  36.923   6.494
 5709POPC   C3B71637  36.607  37.079   6.889
 5709POPC   C4B71638  36.678  36.914   7.281
 5710POPC   NC371639   1.805   6.863   5.428
 5710POPC   PO471640   2.328   6.406   5.368
 5710POPC   GL171641   2.115   6.600   5.731
 5710POPC   GL271642   1.765   6.469   5.741
 5710POPC   C1A71643   1.984   6.687   6.167
 5710POPC   D2A71644   2.152   6.510   6.543
 5710POPC   C3A71645   1.935   6.690   6.888
 5710POPC   C4A71646   2.059   6.605   7.283
 5710POPC   C1B71647   1.755   6.236   6.114
 5710POPC   C2B71648   1.666   6.388   6.509
 5710POPC   C3B71649   1.691   6.233   6.906
 5710POPC   C4B71650   1.814   6.150   7.331
 5711POPC   NC371651  11.491  33.590   5.134
 5711POPC   PO471652  11.036  34.078   5.177
 5711POPC   GL171653  11.213  33.870   5.584
 5711POPC   GL271654  11.552  33.731   5.627
 5711POPC   C1A71655  11.106  33.743   6.029
 5711POPC   D2A71656  10.888  33.738   6.447
 5711POPC   C3A71657  11.116  33.606   6.820
 5711POPC   C4A71658  11.176  33.714   7.258
 5711POPC   C1B71659  11.596  33.922   6.004
 5711POPC   C2B71660  11.633  33.882   6.465
 5711POPC   C3B71661  11.621  33.734   6.890
 5711POPC   C4B71662  11.604  33.994   7.247
 5712POPC   NC371663   4.357  28.392   5.244
 5712POPC   PO471664   3.828  28.662   5.550
 5712POPC   GL171665   4.094  28.656   5.850
 5712POPC   GL271666   4.341  28.407   5.845
 5712POPC   C1A71667   4.110  28.613   6.275
 5712POPC   D2A71668   4.339  28.693   6.623
 5712POPC   C3A71669   4.399  28.281   6.763
 5712POPC   C4A71670   4.333  28.192   7.193
 5712POPC   C1B71671   4.643  28.450   6.224
 5712POPC   C2B71672   4.829  28.611   6.600
 5712POPC   C3B71673   4.670  28.616   7.025
 5712POPC   C4B71674   4.738  28.428   7.413
 5713POPC   NC371675  40.569  18.134   5.541
 5713POPC   PO471676  41.118  18.557   5.432
 5713POPC   GL171677  41.013  18.261   5.773
 5713POPC   GL271678  40.744  18.443   5.914
 5713POPC   C1A71679  40.991  18.025   6.152
 5713POPC   D2A71680  40.879  18.028   6.591
 5713POPC   C3A71681  40.942  18.396   6.856
 5713POPC   C4A71682  41.128  18.500   7.246
 5713POPC   C1B71683  40.513  18.221   6.233
 5713POPC   C2B71684  40.397  18.244   6.662
 5713POPC   C3B71685  40.561  18.127   7.047
 5713POPC   C4B71686  40.686  18.292   7.408
 5714POPC   NC371687  32.789  16.170   5.316
 5714POPC   PO471688  32.697  15.505   5.408
 5714POPC   GL171689  32.791  15.664   5.831
 5714POPC   GL271690  33.091  15.866   5.889
 5714POPC   C1A71691  32.818  15.714   6.297
 5714POPC   D2A71692  32.959  16.021   6.607
 5714POPC   C3A71693  33.021  15.892   7.029
 5714POPC   C4A71694  32.764  15.858   7.387
 5714POPC   C1B71695  33.204  16.226   6.194
 5714POPC   C2B71696  33.285  16.438   6.626
 5714POPC   C3B71697  33.244  16.345   7.110
 5714POPC   C4B71698  33.262  16.316   7.591
 5715POPC   NC371699  24.921   5.365   5.444
 5715POPC   PO471700  24.216   5.139   5.407
 5715POPC   GL171701  24.521   5.146   5.756
 5715POPC   GL271702  24.339   4.879   5.895
 5715POPC   C1A71703  24.654   5.116   6.236
 5715POPC   D2A71704  24.760   5.257   6.703
 5715POPC   C3A71705  24.478   5.165   7.112
 5715POPC   C4A71706  24.286   5.324   7.528
 5715POPC   C1B71707  24.352   4.676   6.259
 5715POPC   C2B71708  24.056   4.676   6.588
 5715POPC   C3B71709  24.151   4.776   7.007
 5715POPC   C4B71710  24.223   4.827   7.428
 5716POPC   NC371711  31.864   0.311   5.294
 5716POPC   PO471712  31.168   0.337   5.349
 5716POPC   GL171713  31.399   0.284   5.764
 5716POPC   GL271714  31.763   0.136   5.755
 5716POPC   C1A71715  31.270   0.431   6.195
 5716POPC   D2A71716  31.390   0.646   6.603
 5716POPC   C3A71717  31.346   0.457   7.025
 5716POPC   C4A71718  31.340   0.370   7.474
 5716POPC   C1B71719  31.715   0.179   6.201
 5716POPC   C2B71720  31.691   0.240   6.641
 5716POPC   C3B71721  31.845   0.525   6.949
 5716POPC   C4B71722  31.853   0.312   7.309
 5717POPC   NC371723  10.221  16.281   5.423
 5717POPC   PO471724   9.689  15.894   5.538
 5717POPC   GL171725   9.940  15.772   5.916
 5717POPC   GL271726  10.092  16.102   5.926
 5717POPC   C1A71727   9.802  15.564   6.338
 5717POPC   D2A71728   9.573  15.668   6.742
 5717POPC   C3A71729   9.819  15.871   7.085
 5717POPC   C4A71730  10.064  15.603   7.353
 5717POPC   C1B71731   9.795  16.090   6.287
 5717POPC   C2B71732   9.592  16.195   6.671
 5717POPC   C3B71733   9.588  16.416   7.033
 5717POPC   C4B71734   9.654  16.324   7.456
 5718POPC   NC371735  10.298  30.982   5.380
 5718POPC   PO471736  10.801  30.529   5.403
 5718POPC   GL171737  10.618  30.744   5.779
 5718POPC   GL271738  10.275  30.836   5.867
 5718POPC   C1A71739  10.656  30.818   6.235
 5718POPC   D2A71740  10.772  30.570   6.596
 5718POPC   C3A71741  10.711  30.722   6.997
 5718POPC   C4A71742  10.739  31.078   7.226
 5718POPC   C1B71743  10.125  30.865   6.280
 5718POPC   C2B71744  10.331  30.934   6.682
 5718POPC   C3B71745  10.240  30.842   7.125
 5718POPC   C4B71746  10.005  30.790   7.501
 5719POPC   NC371747  37.322  39.518   5.557
 5719POPC   PO471748  37.719  40.133   5.511
 5719POPC   GL171749  37.829  40.033   5.901
 5719POPC   GL271750  37.826  39.678   5.885
 5719POPC   C1A71751  37.496  40.000   6.210
 5719POPC   D2A71752  37.432  39.888   6.616
 5719POPC   C3A71753  37.769  39.824   6.851
 5719POPC   C4A71754  37.684  39.968   7.229
 5719POPC   C1B71755  37.716  39.523   6.300
 5719POPC   C2B71756  37.593  39.368   6.715
 5719POPC   C3B71757  37.545  39.478   7.192
 5719POPC   C4B71758  37.601  39.469   7.657
 5720POPC   NC371759  42.587  44.508   5.271
 5720POPC   PO471760  42.327   0.117   5.380
 5720POPC   GL171761  42.315  44.734   5.639
 5720POPC   GL271762  42.257  44.360   5.688
 5720POPC   C1A71763  42.609  44.700   5.997
 5720POPC   D2A71764  42.555  44.984   6.367
 5720POPC   C3A71765  42.521  44.860   6.793
 5720POPC   C4A71766  42.550  44.730   7.252
 5720POPC   C1B71767  42.374  44.273   6.141
 5720POPC   C2B71768  42.358  44.398   6.597
 5720POPC   C3B71769  42.352  44.291   7.054
 5720POPC   C4B71770  42.194  44.451   7.485
 5721POPC   NC371771   1.197  32.011   5.492
 5721POPC   PO471772   1.312  32.667   5.441
 5721POPC   GL171773   1.356  32.416   5.813
 5721POPC   GL271774   1.006  32.321   5.864
 5721POPC   C1A71775   1.399  32.091   6.141
 5721POPC   D2A71776   1.641  32.048   6.517
 5721POPC   C3A71777   1.366  32.001   6.867
 5721POPC   C4A71778   1.332  32.155   7.274
 5721POPC   C1B71779   0.859  32.122   6.250
 5721POPC   C2B71780   0.672  32.178   6.615
 5721POPC   C3B71781   0.890  32.304   6.975
 5721POPC   C4B71782   0.806  32.082   7.327
 5722POPC   NC371783  23.581  22.858   5.334
 5722POPC   PO471784  24.269  22.931   5.163
 5722POPC   GL171785  23.994  22.797   5.635
 5722POPC   GL271786  23.634  22.650   5.787
 5722POPC   C1A71787  23.882  22.977   6.094
 5722POPC   D2A71788  23.590  22.917   6.445
 5722POPC   C3A71789  23.642  23.083   6.887
 5722POPC   C4A71790  23.544  23.276   7.307
 5722POPC   C1B71791  23.835  22.468   6.157
 5722POPC   C2B71792  24.042  22.648   6.517
 5722POPC   C3B71793  23.994  22.688   6.957
 5722POPC   C4B71794  23.686  22.744   7.306
 5723POPC   NC371795  15.215  10.251   5.127
 5723POPC   PO471796  14.919  10.601   5.653
 5723POPC   GL171797  15.079  10.629   6.018
 5723POPC   GL271798  15.377  10.744   5.891
 5723POPC   C1A71799  15.118  10.511   6.429
 5723POPC   D2A71800  14.918  10.641   6.779
 5723POPC   C3A71801  14.934  10.286   7.026
 5723POPC   C4A71802  15.247  10.215   7.324
 5723POPC   C1B71803  15.593  10.520   6.239
 5723POPC   C2B71804  15.758  10.521   6.654
 5723POPC   C3B71805  15.432  10.541   6.973
 5723POPC   C4B71806  15.505  10.745   7.386
 5724POPC   NC371807  43.658  26.628   5.452
 5724POPC   PO471808  44.169  26.980   5.204
 5724POPC   GL171809  44.049  26.921   5.669
 5724POPC   GL271810  44.149  26.591   5.793
 5724POPC   C1A71811  43.786  26.816   6.068
 5724POPC   D2A71812  43.804  26.659   6.492
 5724POPC   C3A71813  43.580  26.829   6.813
 5724POPC   C4A71814  43.640  27.010   7.216
 5724POPC   C1B71815  44.263  26.637   6.258
 5724POPC   C2B71816  44.247  26.527   6.711
 5724POPC   C3B71817  44.020  26.724   7.015
 5724POPC   C4B71818  43.958  26.694   7.470
 5725POPC   NC371819  24.511  19.852   5.265
 5725POPC   PO471820  24.999  19.945   5.628
 5725POPC   GL171821  24.677  19.959   5.894
 5725POPC   GL271822  24.457  19.662   5.960
 5725POPC   C1A71823  24.630  19.987   6.334
 5725POPC   D2A71824  24.356  20.093   6.660
 5725POPC   C3A71825  24.586  20.041   7.022
 5725POPC   C4A71826  24.463  19.765   7.324
 5725POPC   C1B71827  24.310  19.602   6.420
 5725POPC   C2B71828  24.460  19.557   6.845
 5725POPC   C3B71829  24.227  19.346   7.169
 5725POPC   C4B71830  24.237  19.400   7.629
 5726POPC   NC371831  21.402   3.765   5.458
 5726POPC   PO471832  21.411   3.074   5.467
 5726POPC   GL171833  21.252   3.378   5.781
 5726POPC   GL271834  21.575   3.470   5.866
 5726POPC   C1A71835  21.263   3.726   6.131
 5726POPC   D2A71836  21.272   3.839   6.566
 5726POPC   C3A71837  21.427   3.540   6.856
 5726POPC   C4A71838  21.291   3.700   7.245
 5726POPC   C1B71839  21.759   3.802   6.196
 5726POPC   C2B71840  21.875   3.729   6.628
 5726POPC   C3B71841  21.804   3.816   7.064
 5726POPC   C4B71842  21.809   4.115   7.352
 5727POPC   NC371843  41.040  32.824   5.115
 5727POPC   PO471844  40.485  33.049   5.489
 5727POPC   GL171845  40.751  32.977   5.846
 5727POPC   GL271846  41.085  32.974   5.669
 5727POPC   C1A71847  40.714  33.190   6.265
 5727POPC   D2A71848  40.747  33.273   6.692
 5727POPC   C3A71849  40.675  32.964   6.967
 5727POPC   C4A71850  40.503  33.151   7.294
 5727POPC   C1B71851  41.192  33.120   6.101
 5727POPC   C2B71852  41.123  32.951   6.512
 5727POPC   C3B71853  41.168  33.071   6.921
 5727POPC   C4B71854  41.033  32.977   7.335
 5728POPC   NC371855  26.530  36.658   5.392
 5728POPC   PO471856  26.410  37.325   5.282
 5728POPC   GL171857  26.583  37.056   5.715
 5728POPC   GL271858  26.918  36.863   5.806
 5728POPC   C1A71859  26.574  36.799   6.158
 5728POPC   D2A71860  26.895  36.902   6.499
 5728POPC   C3A71861  26.783  37.136   6.881
 5728POPC   C4A71862  26.485  36.842   7.060
 5728POPC   C1B71863  27.023  36.531   6.155
 5728POPC   C2B71864  27.158  36.440   6.599
 5728POPC   C3B71865  27.093  36.729   6.956
 5728POPC   C4B71866  26.904  36.889   7.342
 5729POPC   NC371867  41.982   9.879   5.322
 5729POPC   PO471868  42.647   9.766   5.363
 5729POPC   GL171869  42.660   9.726   5.794
 5729POPC   GL271870  42.520  10.046   5.871
 5729POPC   C1A71871  42.695   9.439   6.160
 5729POPC   D2A71872  42.446   9.378   6.524
 5729POPC   C3A71873  42.614   9.319   6.934
 5729POPC   C4A71874  42.345   9.441   7.305
 5729POPC   C1B71875  42.279   9.783   6.185
 5729POPC   C2B71876  42.013   9.676   6.556
 5729POPC   C3B71877  42.055   9.759   7.014
 5729POPC   C4B71878  42.034   9.892   7.458
 5730POPC   NC371879  33.843  27.945   5.580
 5730POPC   PO471880  34.151  27.404   5.401
 5730POPC   GL171881  33.959  27.494   5.825
 5730POPC   GL271882  33.988  27.818   6.039
 5730POPC   C1A71883  33.948  27.357   6.243
 5730POPC   D2A71884  33.761  27.356   6.597
 5730POPC   C3A71885  33.949  27.614   6.870
 5730POPC   C4A71886  33.862  27.552   7.305
 5730POPC   C1B71887  33.738  27.841   6.405
 5730POPC   C2B71888  33.759  28.112   6.738
 5730POPC   C3B71889  33.761  28.009   7.137
 5730POPC   C4B71890  33.477  27.863   7.458
 5731POPC   NC371891  34.007  40.642   5.447
 5731POPC   PO471892  33.561  41.078   5.616
 5731POPC   GL171893  33.808  40.877   5.875
 5731POPC   GL271894  34.107  41.068   5.779
 5731POPC   C1A71895  33.661  40.847   6.292
 5731POPC   D2A71896  33.529  41.026   6.703
 5731POPC   C3A71897  33.592  40.729   7.021
 5731POPC   C4A71898  33.798  40.411   7.230
 5731POPC   C1B71899  34.194  40.935   6.207
 5731POPC   C2B71900  34.027  41.026   6.601
 5731POPC   C3B71901  34.090  40.837   7.004
 5731POPC   C4B71902  34.219  41.070   7.338
 5732POPC   NC371903   9.388  16.773   5.035
 5732POPC   PO471904   8.856  16.418   5.369
 5732POPC   GL171905   8.852  16.661   5.753
 5732POPC   GL271906   8.682  16.972   5.766
 5732POPC   C1A71907   9.071  16.719   6.138
 5732POPC   D2A71908   9.190  16.505   6.514
 5732POPC   C3A71909   9.089  16.655   6.916
 5732POPC   C4A71910   9.278  16.677   7.315
 5732POPC   C1B71911   8.583  16.836   6.185
 5732POPC   C2B71912   8.600  17.021   6.581
 5732POPC   C3B71913   8.556  16.921   7.022
 5732POPC   C4B71914   8.784  16.734   7.323
 5733POPC   NC371915  20.569  13.962   5.329
 5733POPC   PO471916  20.719  14.620   5.384
 5733POPC   GL171917  20.535  14.342   5.676
 5733POPC   GL271918  20.827  14.218   5.761
 5733POPC   C1A71919  20.396  14.178   6.077
 5733POPC   D2A71920  20.343  14.456   6.413
 5733POPC   C3A71921  20.457  14.365   6.823
 5733POPC   C4A71922  20.578  14.689   7.086
 5733POPC   C1B71923  20.746  14.559   6.092
 5733POPC   C2B71924  20.831  14.617   6.532
 5733POPC   C3B71925  20.981  14.391   6.897
 5733POPC   C4B71926  20.737  14.220   7.236
 5734POPC   NC371927  22.169   7.284   5.140
 5734POPC   PO471928  22.365   7.881   5.317
 5734POPC   GL171929  22.221   7.587   5.656
 5734POPC   GL271930  22.342   7.232   5.666
 5734POPC   C1A71931  22.065   7.399   6.066
 5734POPC   D2A71932  22.154   7.256   6.481
 5734POPC   C3A71933  21.853   7.450   6.790
 5734POPC   C4A71934  21.953   7.371   7.211
 5734POPC   C1B71935  22.508   7.079   6.094
 5734POPC   C2B71936  22.696   7.111   6.521
 5734POPC   C3B71937  22.455   7.220   6.906
 5734POPC   C4B71938  22.362   6.956   7.277
 5735POPC   NC371939  35.678  22.747   5.319
 5735POPC   PO471940  35.213  23.243   5.356
 5735POPC   GL171941  35.359  22.913   5.688
 5735POPC   GL271942  35.226  23.144   5.880
 5735POPC   C1A71943  35.326  22.707   6.131
 5735POPC   D2A71944  35.444  22.843   6.529
 5735POPC   C3A71945  35.275  22.742   6.881
 5735POPC   C4A71946  35.351  22.691   7.268
 5735POPC   C1B71947  35.354  23.277   6.280
 5735POPC   C2B71948  35.202  23.272   6.709
 5735POPC   C3B71949  35.365  23.181   7.107
 5735POPC   C4B71950  35.273  23.181   7.578
 5736POPC   NC371951  44.803   7.698   5.124
 5736POPC   PO471952  44.748   8.234   5.620
 5736POPC   GL171953  44.788   8.542   5.923
 5736POPC   GL271954   0.114   8.431   5.946
 5736POPC   C1A71955  44.590   8.443   6.335
 5736POPC   D2A71956  44.432   8.035   6.518
 5736POPC   C3A71957  44.591   7.940   6.930
 5736POPC   C4A71958  44.473   8.197   7.290
 5736POPC   C1B71959   0.117   8.399   6.353
 5736POPC   C2B71960  44.967   8.283   6.746
 5736POPC   C3B71961  44.866   8.498   7.103
 5736POPC   C4B71962  44.835   8.484   7.544
 5737POPC   NC371963  28.800  20.618   5.336
 5737POPC   PO471964  29.461  20.787   5.268
 5737POPC   GL171965  29.291  20.725   5.718
 5737POPC   GL271966  29.045  20.461   5.786
 5737POPC   C1A71967  29.456  20.506   6.114
 5737POPC   D2A71968  29.441  20.295   6.537
 5737POPC   C3A71969  29.455  20.562   6.937
 5737POPC   C4A71970  29.421  20.463   7.400
 5737POPC   C1B71971  28.965  20.622   6.217
 5737POPC   C2B71972  29.150  20.807   6.592
 5737POPC   C3B71973  28.989  20.800   7.020
 5737POPC   C4B71974  28.772  20.467   7.199
 5738POPC   NC371975  43.645   9.305   5.555
 5738POPC   PO471976  44.037   9.883   5.438
 5738POPC   GL171977  43.784   9.736   5.796
 5738POPC   GL271978  43.518   9.960   5.848
 5738POPC   C1A71979  43.715   9.531   6.224
 5738POPC   D2A71980  44.046   9.642   6.554
 5738POPC   C3A71981  44.009   9.558   7.010
 5738POPC   C4A71982  43.634   9.541   7.254
 5738POPC   C1B71983  43.771  10.032   6.221
 5738POPC   C2B71984  44.026  10.191   6.499
 5738POPC   C3B71985  44.000  10.048   6.879
 5738POPC   C4B71986  43.893   9.999   7.304
 5739POPC   NC371987  28.499  34.187   5.500
 5739POPC   PO471988  28.448  34.839   5.351
 5739POPC   GL171989  28.448  34.638   5.792
 5739POPC   GL271990  28.402  34.320   5.998
 5739POPC   C1A71991  28.174  34.793   6.138
 5739POPC   D2A71992  27.956  34.645   6.509
 5739POPC   C3A71993  28.091  34.796   6.887
 5739POPC   C4A71994  28.382  34.956   7.144
 5739POPC   C1B71995  28.680  34.344   6.335
 5739POPC   C2B71996  28.562  34.532   6.696
 5739POPC   C3B71997  28.397  34.423   7.068
 5739POPC   C4B71998  27.937  34.383   7.140
 5740POPC   NC371999   7.696  37.358   5.413
 5740POPC   PO472000   8.432  37.499   5.529
 5740POPC   GL172001   8.128  37.432   5.830
 5740POPC   GL272002   8.131  37.091   5.859
 5740POPC   C1A72003   8.015  37.582   6.256
 5740POPC   D2A72004   7.919  37.733   6.677
 5740POPC   C3A72005   8.286  37.778   6.937
 5740POPC   C4A72006   8.426  38.082   7.226
 5740POPC   C1B72007   8.382  37.223   6.243
 5740POPC   C2B72008   8.258  37.332   6.666
 5740POPC   C3B72009   8.020  37.314   7.030
 5740POPC   C4B72010   8.222  37.481   7.364
 5741POPC   NC372011  40.935  35.903   5.498
 5741POPC   PO472012  40.319  36.343   5.406
 5741POPC   GL172013  40.606  36.257   5.741
 5741POPC   GL272014  40.838  36.529   5.782
 5741POPC   C1A72015  40.640  36.128   6.180
 5741POPC   D2A72016  40.448  35.831   6.492
 5741POPC   C3A72017  40.671  35.849   6.876
 5741POPC   C4A72018  40.672  36.230   7.103
 5741POPC   C1B72019  41.078  36.451   6.166
 5741POPC   C2B72020  40.995  36.303   6.583
 5741POPC   C3B72021  41.109  36.470   6.975
 5741POPC   C4B72022  41.052  36.424   7.389
 5742POPC   NC372023  19.275  38.412   5.534
 5742POPC   PO472024  19.924  38.240   5.333
 5742POPC   GL172025  19.806  38.486   5.673
 5742POPC   GL272026  19.641  38.221   5.857
 5742POPC   C1A72027  19.745  38.695   6.073
 5742POPC   D2A72028  19.855  38.835   6.479
 5742POPC   C3A72029  19.705  38.509   6.757
 5742POPC   C4A72030  19.731  38.493   7.204
 5742POPC   C1B72031  20.037  38.231   6.096
 5742POPC   C2B72032  20.157  38.324   6.529
 5742POPC   C3B72033  20.085  38.191   6.967
 5742POPC   C4B72034  20.264  37.901   7.207
 5743POPC   NC372035  13.711  25.483   5.456
 5743POPC   PO472036  13.470  24.883   5.424
 5743POPC   GL172037  13.523  25.142   5.803
 5743POPC   GL272038  13.372  25.507   5.842
 5743POPC   C1A72039  13.680  25.018   6.198
 5743POPC   D2A72040  13.504  24.964   6.573
 5743POPC   C3A72041  13.709  25.147   6.882
 5743POPC   C4A72042  13.538  25.020   7.243
 5743POPC   C1B72043  13.396  25.438   6.298
 5743POPC   C2B72044  13.342  25.655   6.707
 5743POPC   C3B72045  13.469  25.538   7.141
 5743POPC   C4B72046  13.823  25.501   7.389
 5744POPC   NC372047  16.362  13.561   5.496
 5744POPC   PO472048  15.724  13.593   5.551
 5744POPC   GL172049  15.976  13.570   5.887
 5744POPC   GL272050  16.040  13.236   5.818
 5744POPC   C1A72051  15.920  13.604   6.329
 5744POPC   D2A72052  15.622  13.638   6.662
 5744POPC   C3A72053  15.773  13.820   7.019
 5744POPC   C4A72054  16.156  13.909   7.163
 5744POPC   C1B72055  16.355  13.327   6.129
 5744POPC   C2B72056  16.356  13.279   6.546
 5744POPC   C3B72057  16.208  13.446   6.921
 5744POPC   C4B72058  16.293  13.258   7.312
 5745POPC   NC372059  18.116  32.736   5.531
 5745POPC   PO472060  18.500  33.200   5.413
 5745POPC   GL172061  18.483  33.015   5.809
 5745POPC   GL272062  18.289  33.204   6.076
 5745POPC   C1A72063  18.455  32.714   6.141
 5745POPC   D2A72064  18.112  32.804   6.449
 5745POPC   C3A72065  18.081  32.719   6.909
 5745POPC   C4A72066  18.301  32.918   7.249
 5745POPC   C1B72067  17.866  33.265   6.282
 5745POPC   C2B72068  17.756  33.451   6.718
 5745POPC   C3B72069  17.972  33.274   7.105
 5745POPC   C4B72070  18.029  33.283   7.558
 5746POPC   NC372071  19.369   5.813   5.111
 5746POPC   PO472072  20.013   5.820   5.352
 5746POPC   GL172073  19.856   5.877   5.800
 5746POPC   GL272074  19.664   6.134   5.887
 5746POPC   C1A72075  20.022   5.977   6.230
 5746POPC   D2A72076  19.879   5.966   6.656
 5746POPC   C3A72077  20.106   6.054   7.021
 5746POPC   C4A72078  19.983   5.910   7.427
 5746POPC   C1B72079  19.504   5.982   6.284
 5746POPC   C2B72080  19.415   6.163   6.707
 5746POPC   C3B72081  19.565   6.032   7.137
 5746POPC   C4B72082  19.568   6.127   7.602
 5747POPC   NC372083   1.918  30.730   5.374
 5747POPC   PO472084   2.424  30.415   5.537
 5747POPC   GL172085   2.225  30.483   5.880
 5747POPC   GL272086   2.098  30.789   5.839
 5747POPC   C1A72087   2.326  30.625   6.290
 5747POPC   D2A72088   2.447  30.941   6.611
 5747POPC   C3A72089   2.283  30.750   6.988
 5747POPC   C4A72090   2.226  30.326   7.117
 5747POPC   C1B72091   1.824  30.764   6.181
 5747POPC   C2B72092   1.934  30.809   6.593
 5747POPC   C3B72093   1.786  30.728   6.977
 5747POPC   C4B72094   1.850  30.952   7.333
 5748POPC   NC372095  33.637  36.632   5.450
 5748POPC   PO472096  34.258  36.936   5.342
 5748POPC   GL172097  34.037  36.801   5.746
 5748POPC   GL272098  33.706  36.950   5.833
 5748POPC   C1A72099  34.012  36.818   6.230
 5748POPC   D2A72100  33.756  36.936   6.552
 5748POPC   C3A72101  33.862  36.837   6.914
 5748POPC   C4A72102  33.781  36.523   7.189
 5748POPC   C1B72103  33.598  37.213   6.160
 5748POPC   C2B72104  33.739  37.439   6.557
 5748POPC   C3B72105  33.507  37.244   6.900
 5748POPC   C4B72106  33.576  37.001   7.283
 5749POPC   NC372107  23.415  32.517   5.366
 5749POPC   PO472108  23.945  32.029   5.461
 5749POPC   GL172109  24.002  32.185   5.844
 5749POPC   GL272110  23.676  32.305   5.841
 5749POPC   C1A72111  23.861  32.063   6.254
 5749POPC   D2A72112  23.837  32.252   6.656
 5749POPC   C3A72113  24.008  32.212   7.077
 5749POPC   C4A72114  23.786  32.184   7.478
 5749POPC   C1B72115  23.653  32.538   6.254
 5749POPC   C2B72116  23.408  32.525   6.683
 5749POPC   C3B72117  23.283  32.698   7.103
 5749POPC   C4B72118  23.436  32.613   7.545
 5750POPC   NC372119  29.391  21.239   5.333
 5750POPC   PO472120  28.694  21.141   5.449
 5750POPC   GL172121  28.932  21.122   5.822
 5750POPC   GL272122  29.243  21.262   5.813
 5750POPC   C1A72123  28.933  21.396   6.195
 5750POPC   D2A72124  28.947  21.291   6.612
 5750POPC   C3A72125  29.105  21.613   6.808
 5750POPC   C4A72126  29.118  21.587   7.229
 5750POPC   C1B72127  29.396  21.039   6.167
 5750POPC   C2B72128  29.477  21.220   6.560
 5750POPC   C3B72129  29.340  21.180   6.974
 5750POPC   C4B72130  29.583  21.399   7.265
 5751POPC   NC372131  35.693   6.453   5.323
 5751POPC   PO472132  35.129   6.913   5.373
 5751POPC   GL172133  35.180   6.683   5.751
 5751POPC   GL272134  35.543   6.698   5.782
 5751POPC   C1A72135  35.230   6.698   6.205
 5751POPC   D2A72136  35.429   6.838   6.562
 5751POPC   C3A72137  35.184   6.762   6.891
 5751POPC   C4A72138  35.032   6.750   7.274
 5751POPC   C1B72139  35.497   6.298   6.021
 5751POPC   C2B72140  35.330   6.138   6.427
 5751POPC   C3B72141  35.373   6.273   6.851
 5751POPC   C4B72142  35.226   6.254   7.258
 5752POPC   NC372143   2.913  17.696   5.200
 5752POPC   PO472144   2.356  17.351   5.410
 5752POPC   GL172145   2.624  17.565   5.732
 5752POPC   GL272146   2.988  17.612   5.694
 5752POPC   C1A72147   2.815  17.420   6.150
 5752POPC   D2A72148   2.680  17.545   6.567
 5752POPC   C3A72149   2.765  17.409   6.983
 5752POPC   C4A72150   2.643  17.735   7.272
 5752POPC   C1B72151   3.046  17.876   6.060
 5752POPC   C2B72152   3.175  17.713   6.472
 5752POPC   C3B72153   3.038  17.825   6.886
 5752POPC   C4B72154   3.154  17.698   7.307
 5753POPC   NC372155  11.871  15.429   5.491
 5753POPC   PO472156  11.848  14.746   5.379
 5753POPC   GL172157  12.175  14.937   5.687
 5753POPC   GL272158  12.214  15.262   5.857
 5753POPC   C1A72159  12.253  14.832   6.128
 5753POPC   D2A72160  12.236  14.978   6.554
 5753POPC   C3A72161  11.970  15.161   6.878
 5753POPC   C4A72162  12.142  15.061   7.281
 5753POPC   C1B72163  12.263  15.435   6.299
 5753POPC   C2B72164  12.403  15.442   6.757
 5753POPC   C3B72165  12.203  15.564   7.181
 5753POPC   C4B72166  12.270  15.767   7.581
 5754POPC   NC372167  32.909  13.313   5.425
 5754POPC   PO472168  33.355  13.908   5.245
 5754POPC   GL172169  33.117  13.752   5.641
 5754POPC   GL272170  33.292  13.431   5.775
 5754POPC   C1A72171  32.858  13.608   6.024
 5754POPC   D2A72172  32.973  13.433   6.415
 5754POPC   C3A72173  32.719  13.477   6.797
 5754POPC   C4A72174  32.730  13.485   7.257
 5754POPC   C1B72175  33.469  13.368   6.216
 5754POPC   C2B72176  33.376  13.250   6.648
 5754POPC   C3B72177  33.169  13.321   7.038
 5754POPC   C4B72178  33.209  13.328   7.497
 5755POPC   NC372179  15.402  16.662   5.510
 5755POPC   PO472180  14.768  16.962   5.665
 5755POPC   GL172181  15.098  16.839   5.917
 5755POPC   GL272182  15.108  16.440   5.867
 5755POPC   C1A72183  15.239  17.041   6.316
 5755POPC   D2A72184  15.200  16.943   6.762
 5755POPC   C3A72185  15.309  17.013   7.182
 5755POPC   C4A72186  15.404  16.961   7.604
 5755POPC   C1B72187  15.416  16.541   6.181
 5755POPC   C2B72188  15.444  16.526   6.615
 5755POPC   C3B72189  15.227  16.499   7.022
 5755POPC   C4B72190  15.418  16.474   7.427
 5756POPC   NC372191  19.235   4.909   5.518
 5756POPC   PO472192  19.338   5.359   5.108
 5756POPC   GL172193  19.101   5.397   5.588
 5756POPC   GL272194  18.820   5.135   5.750
 5756POPC   C1A72195  19.150   5.344   6.079
 5756POPC   D2A72196  19.302   5.045   6.440
 5756POPC   C3A72197  19.219   5.147   6.881
 5756POPC   C4A72198  19.364   5.432   7.211
 5756POPC   C1B72199  18.912   4.854   6.149
 5756POPC   C2B72200  18.999   4.651   6.595
 5756POPC   C3B72201  18.793   4.692   6.995
 5756POPC   C4B72202  18.684   4.779   7.452
 5757POPC   NC372203  37.171  41.876   5.409
 5757POPC   PO472204  37.142  41.213   5.097
 5757POPC   GL172205  37.034  41.318   5.595
 5757POPC   GL272206  36.807  41.561   5.708
 5757POPC   C1A72207  37.047  41.394   6.128
 5757POPC   D2A72208  37.232  41.483   6.575
 5757POPC   C3A72209  37.018  41.567   6.984
 5757POPC   C4A72210  36.705  41.271   7.147
 5757POPC   C1B72211  36.672  41.744   6.116
 5757POPC   C2B72212  36.691  41.573   6.544
 5757POPC   C3B72213  36.521  41.698   6.930
 5757POPC   C4B72214  36.470  41.682   7.354
 5758POPC   NC372215  32.323   0.737   5.240
 5758POPC   PO472216  32.280   0.118   5.500
 5758POPC   GL172217  32.274   0.486   5.738
 5758POPC   GL272218  32.214   0.271   6.011
 5758POPC   C1A72219  32.337   0.723   6.156
 5758POPC   D2A72220  32.120   0.542   6.503
 5758POPC   C3A72221  32.339   0.390   6.860
 5758POPC   C4A72222  32.284   0.600   7.256
 5758POPC   C1B72223  32.538  44.956   6.136
 5758POPC   C2B72224  32.711   0.023   6.558
 5758POPC   C3B72225  32.683  44.981   6.998
 5758POPC   C4B72226  32.351   0.103   7.288
 5759POPC   NC372227  19.426  32.366   5.474
 5759POPC   PO472228  18.868  31.969   5.338
 5759POPC   GL172229  19.038  32.165   5.719
 5759POPC   GL272230  19.260  31.897   5.793
 5759POPC   C1A72231  18.919  32.419   6.107
 5759POPC   D2A72232  18.940  32.236   6.546
 5759POPC   C3A72233  18.808  32.397   6.990
 5759POPC   C4A72234  18.958  32.245   7.427
 5759POPC   C1B72235  19.340  32.132   6.163
 5759POPC   C2B72236  19.456  32.141   6.586
 5759POPC   C3B72237  19.262  32.143   6.986
 5759POPC   C4B72238  19.349  31.938   7.364
 5760POPC   NC372239  11.093  37.529   5.224
 5760POPC   PO472240  11.391  38.112   5.262
 5760POPC   GL172241  11.229  37.973   5.696
 5760POPC   GL272242  11.155  37.618   5.790
 5760POPC   C1A72243  11.216  37.963   6.163
 5760POPC   D2A72244  11.490  37.812   6.497
 5760POPC   C3A72245  11.355  37.844   6.932
 5760POPC   C4A72246  11.058  38.037   7.205
 5760POPC   C1B72247  11.315  37.421   6.190
 5760POPC   C2B72248  11.391  37.314   6.679
 5760POPC   C3B72249  11.433  37.376   7.161
 5760POPC   C4B72250  11.224  37.285   7.587
 5761POPC   NC372251  44.848  10.368   5.308
 5761POPC   PO472252  44.203  10.489   5.432
 5761POPC   GL172253  44.572  10.607   5.674
 5761POPC   GL272254  44.366  10.801   5.828
 5761POPC   C1A72255  44.756  10.651   6.133
 5761POPC   D2A72256  44.833  10.358   6.541
 5761POPC   C3A72257  44.969  10.589   6.936
 5761POPC   C4A72258  44.834  10.834   7.305
 5761POPC   C1B72259  44.289  10.451   6.115
 5761POPC   C2B72260  44.367  10.573   6.516
 5761POPC   C3B72261  44.470  10.568   6.931
 5761POPC   C4B72262  44.266  10.328   7.191
 5762POPC   NC372263   2.697   3.938   5.379
 5762POPC   PO472264   3.046   4.482   5.210
 5762POPC   GL172265   2.855   4.490   5.651
 5762POPC   GL272266   2.593   4.742   5.664
 5762POPC   C1A72267   2.642   4.288   6.043
 5762POPC   D2A72268   2.867   4.115   6.425
 5762POPC   C3A72269   2.821   4.097   6.877
 5762POPC   C4A72270   2.976   4.131   7.277
 5762POPC   C1B72271   2.764   4.793   6.081
 5762POPC   C2B72272   2.640   4.600   6.454
 5762POPC   C3B72273   2.653   4.586   6.868
 5762POPC   C4B72274   2.683   4.543   7.290
 5763POPC   NC372275   1.340  11.658   5.506
 5763POPC   PO472276   1.086  11.007   5.281
 5763POPC   GL172277   1.237  11.155   5.721
 5763POPC   GL272278   0.995  11.404   5.838
 5763POPC   C1A72279   1.195  11.152   6.225
 5763POPC   D2A72280   0.920  11.359   6.566
 5763POPC   C3A72281   1.029  11.204   6.953
 5763POPC   C4A72282   1.489  11.231   7.059
 5763POPC   C1B72283   1.154  11.647   6.191
 5763POPC   C2B72284   1.386  11.635   6.539
 5763POPC   C3B72285   1.260  11.695   6.925
 5763POPC   C4B72286   0.819  11.686   7.025
 5764POPC   NC372287  27.613  14.121   5.466
 5764POPC   PO472288  27.188  14.681   5.402
 5764POPC   GL172289  27.448  14.511   5.755
 5764POPC   GL272290  27.821  14.537   5.821
 5764POPC   C1A72291  27.416  14.241   6.125
 5764POPC   D2A72292  27.439  14.436   6.498
 5764POPC   C3A72293  27.410  14.294   6.888
 5764POPC   C4A72294  27.446  14.647   7.109
 5764POPC   C1B72295  27.905  14.341   6.268
 5764POPC   C2B72296  27.883  14.292   6.747
 5764POPC   C3B72297  27.924  14.451   7.173
 5764POPC   C4B72298  27.887  14.224   7.572
 5765POPC   NC372299  23.957  43.498   5.370
 5765POPC   PO472300  23.443  43.918   5.411
 5765POPC   GL172301  23.650  43.742   5.753
 5765POPC   GL272302  23.954  43.860   5.728
 5765POPC   C1A72303  23.822  43.587   6.134
 5765POPC   D2A72304  23.811  43.817   6.498
 5765POPC   C3A72305  23.841  43.648   6.897
 5765POPC   C4A72306  23.823  43.812   7.293
 5765POPC   C1B72307  24.039  44.120   6.057
 5765POPC   C2B72308  24.097  44.237   6.455
 5765POPC   C3B72309  23.910  44.183   6.849
 5765POPC   C4B72310  23.961  44.299   7.263
 5766POPC   NC372311   5.068  44.246   5.398
 5766POPC   PO472312   5.175  43.576   5.359
 5766POPC   GL172313   5.147  43.787   5.760
 5766POPC   GL272314   5.103  44.128   5.894
 5766POPC   C1A72315   5.273  43.764   6.200
 5766POPC   D2A72316   5.024  44.034   6.460
 5766POPC   C3A72317   5.058  43.972   6.878
 5766POPC   C4A72318   4.977  44.029   7.295
 5766POPC   C1B72319   4.769  44.359   6.127
 5766POPC   C2B72320   4.813  44.558   6.546
 5766POPC   C3B72321   4.894  44.448   6.990
 5766POPC   C4B72322   4.827  44.505   7.467
 5767POPC   NC372323  25.962   9.121   5.327
 5767POPC   PO472324  25.454   8.646   5.286
 5767POPC   GL172325  25.684   8.723   5.751
 5767POPC   GL272326  25.982   8.927   5.839
 5767POPC   C1A72327  25.842   8.597   6.194
 5767POPC   D2A72328  25.944   8.840   6.554
 5767POPC   C3A72329  26.048   8.634   6.903
 5767POPC   C4A72330  26.164   8.905   7.209
 5767POPC   C1B72331  26.305   8.922   6.213
 5767POPC   C2B72332  26.454   8.856   6.678
 5767POPC   C3B72333  26.633   9.013   7.073
 5767POPC   C4B72334  26.470   9.179   7.481
 5768POPC   NC372335  35.321  43.407   5.407
 5768POPC   PO472336  35.487  42.695   5.422
 5768POPC   GL172337  35.379  42.965   5.684
 5768POPC   GL272338  35.652  43.129   5.674
 5768POPC   C1A72339  35.250  43.007   6.077
 5768POPC   D2A72340  35.276  42.776   6.436
 5768POPC   C3A72341  35.129  42.966   6.804
 5768POPC   C4A72342  34.984  42.736   7.148
 5768POPC   C1B72343  35.723  43.283   6.081
 5768POPC   C2B72344  35.500  43.210   6.485
 5768POPC   C3B72345  35.643  43.084   6.903
 5768POPC   C4B72346  35.653  43.311   7.315
 5769POPC   NC372347  42.598  26.023   4.836
 5769POPC   PO472348  42.332  26.072   5.440
 5769POPC   GL172349  42.347  26.049   5.867
 5769POPC   GL272350  42.493  26.339   6.003
 5769POPC   C1A72351  42.079  26.165   6.230
 5769POPC   D2A72352  41.967  26.046   6.634
 5769POPC   C3A72353  42.275  25.814   6.835
 5769POPC   C4A72354  42.087  25.712   7.193
 5769POPC   C1B72355  42.440  26.521   6.395
 5769POPC   C2B72356  42.433  26.398   6.837
 5769POPC   C3B72357  42.339  26.169   7.233
 5769POPC   C4B72358  42.338  26.296   7.708
 5770POPC   NC372359   8.510  15.745   5.297
 5770POPC   PO472360   7.953  15.978   5.354
 5770POPC   GL172361   8.192  16.007   5.720
 5770POPC   GL272362   8.206  15.665   5.754
 5770POPC   C1A72363   8.345  15.957   6.143
 5770POPC   D2A72364   8.407  16.073   6.559
 5770POPC   C3A72365   8.560  15.796   6.835
 5770POPC   C4A72366   8.455  15.903   7.225
 5770POPC   C1B72367   7.933  15.660   6.162
 5770POPC   C2B72368   8.131  15.625   6.558
 5770POPC   C3B72369   8.056  15.763   6.966
 5770POPC   C4B72370   7.972  15.836   7.402
 5771POPC   NC372371   2.811   8.375   5.180
 5771POPC   PO472372   2.572   7.998   5.730
 5771POPC   GL172373   2.593   8.193   6.148
 5771POPC   GL272374   2.819   8.503   6.180
 5771POPC   C1A72375   2.500   8.384   6.541
 5771POPC   D2A72376   2.857   8.446   6.752
 5771POPC   C3A72377   2.952   8.051   6.948
 5771POPC   C4A72378   2.634   8.122   7.222
 5771POPC   C1B72379   3.149   8.226   6.353
 5771POPC   C2B72380   3.365   8.284   6.748
 5771POPC   C3B72381   3.188   8.467   7.138
 5771POPC   C4B72382   3.177   8.271   7.524
 5772POPC   NC372383   5.783  23.983   5.106
 5772POPC   PO472384   5.931  23.491   5.520
 5772POPC   GL172385   5.710  23.674   5.853
 5772POPC   GL272386   5.471  23.468   6.076
 5772POPC   C1A72387   5.807  23.835   6.241
 5772POPC   D2A72388   5.761  23.799   6.668
 5772POPC   C3A72389   5.885  24.182   6.888
 5772POPC   C4A72390   6.062  24.019   7.297
 5772POPC   C1B72391   5.870  23.330   6.293
 5772POPC   C2B72392   6.200  23.513   6.573
 5772POPC   C3B72393   6.135  23.607   6.997
 5772POPC   C4B72394   6.201  23.506   7.451
 5773POPC   NC372395  11.920  11.257   5.071
 5773POPC   PO472396  11.818  11.627   5.654
 5773POPC   GL172397  12.065  11.427   5.927
 5773POPC   GL272398  11.994  11.106   5.789
 5773POPC   C1A72399  12.397  11.494   6.249
 5773POPC   D2A72400  12.583  11.543   6.679
 5773POPC   C3A72401  12.283  11.625   7.004
 5773POPC   C4A72402  11.965  11.424   7.213
 5773POPC   C1B72403  12.222  11.010   6.193
 5773POPC   C2B72404  12.319  10.900   6.643
 5773POPC   C3B72405  12.312  11.037   7.072
 5773POPC   C4B72406  11.990  10.946   7.356
 5774POPC   NC372407  38.686  37.046   5.536
 5774POPC   PO472408  38.252  36.640   5.358
 5774POPC   GL172409  38.229  36.832   5.795
 5774POPC   GL272410  38.251  37.210   5.794
 5774POPC   C1A72411  38.486  36.805   6.218
 5774POPC   D2A72412  38.789  36.629   6.562
 5774POPC   C3A72413  38.674  36.757   7.017
 5774POPC   C4A72414  38.323  36.841   7.327
 5774POPC   C1B72415  38.081  37.113   6.212
 5774POPC   C2B72416  38.044  36.885   6.595
 5774POPC   C3B72417  38.017  37.088   6.990
 5774POPC   C4B72418  38.076  37.332   7.330
 5775POPC   NC372419  34.029   2.497   5.540
 5775POPC   PO472420  33.942   1.970   5.166
 5775POPC   GL172421  33.684   2.046   5.607
 5775POPC   GL272422  33.870   2.153   5.879
 5775POPC   C1A72423  33.541   1.802   6.040
 5775POPC   D2A72424  33.386   1.887   6.492
 5775POPC   C3A72425  33.486   1.953   6.935
 5775POPC   C4A72426  33.643   1.674   7.249
 5775POPC   C1B72427  33.652   2.262   6.241
 5775POPC   C2B72428  33.825   2.183   6.631
 5775POPC   C3B72429  33.905   2.305   7.019
 5775POPC   C4B72430  33.846   2.111   7.429
 5776POPC   NC372431  15.836  39.552   5.132
 5776POPC   PO472432  16.255  39.280   5.596
 5776POPC   GL172433  16.084  39.233   5.959
 5776POPC   GL272434  15.763  39.200   5.805
 5776POPC   C1A72435  15.833  39.400   6.278
 5776POPC   D2A72436  15.656  39.495   6.647
 5776POPC   C3A72437  16.034  39.538   6.889
 5776POPC   C4A72438  16.121  39.279   7.234
 5776POPC   C1B72439  15.697  38.933   6.143
 5776POPC   C2B72440  15.826  38.850   6.546
 5776POPC   C3B72441  15.783  39.059   6.909
 5776POPC   C4B72442  15.812  38.876   7.283
 5777POPC   NC372443   4.134   4.067   5.443
 5777POPC   PO472444   4.549   4.570   5.361
 5777POPC   GL172445   4.473   4.536   5.794
 5777POPC   GL272446   4.548   4.185   5.883
 5777POPC   C1A72447   4.171   4.402   6.132
 5777POPC   D2A72448   4.058   4.467   6.558
 5777POPC   C3A72449   4.162   4.235   6.904
 5777POPC   C4A72450   4.171   4.362   7.317
 5777POPC   C1B72451   4.687   4.431   6.268
 5777POPC   C2B72452   4.578   4.479   6.716
 5777POPC   C3B72453   4.647   4.304   7.119
 5777POPC   C4B72454   4.607   4.280   7.588
 5778POPC   NC372455  30.152  21.257   5.368
 5778POPC   PO472456  29.599  21.659   5.338
 5778POPC   GL172457  29.741  21.407   5.714
 5778POPC   GL272458  29.697  21.040   5.721
 5778POPC   C1A72459  29.734  21.510   6.175
 5778POPC   D2A72460  29.990  21.758   6.477
 5778POPC   C3A72461  29.999  21.566   6.882
 5778POPC   C4A72462  30.075  21.343   7.291
 5778POPC   C1B72463  29.932  21.038   6.129
 5778POPC   C2B72464  30.029  21.186   6.533
 5778POPC   C3B72465  29.836  21.090   6.921
 5778POPC   C4B72466  29.698  20.870   7.251
 5779POPC   NC372467   4.178  26.703   5.377
 5779POPC   PO472468   4.634  27.220   5.383
 5779POPC   GL172469   4.387  27.034   5.781
 5779POPC   GL272470   4.043  26.860   5.859
 5779POPC   C1A72471   4.349  26.877   6.248
 5779POPC   D2A72472   4.248  26.618   6.630
 5779POPC   C3A72473   4.523  26.776   6.951
 5779POPC   C4A72474   4.565  27.190   7.157
 5779POPC   C1B72475   3.913  26.561   6.230
 5779POPC   C2B72476   3.622  26.552   6.574
 5779POPC   C3B72477   3.830  26.773   6.876
 5779POPC   C4B72478   4.091  26.780   7.218
 5780POPC   NC372479  13.260   6.694   5.165
 5780POPC   PO472480  12.674   6.863   5.403
 5780POPC   GL172481  12.805   6.653   5.798
 5780POPC   GL272482  13.187   6.595   5.782
 5780POPC   C1A72483  12.751   6.791   6.245
 5780POPC   D2A72484  12.523   6.665   6.634
 5780POPC   C3A72485  12.701   6.640   7.044
 5780POPC   C4A72486  12.954   6.941   7.251
 5780POPC   C1B72487  13.103   6.380   6.167
 5780POPC   C2B72488  13.113   6.577   6.553
 5780POPC   C3B72489  13.195   6.539   6.963
 5780POPC   C4B72490  13.094   6.453   7.366
 5781POPC   NC372491  29.424  35.372   5.642
 5781POPC   PO472492  28.888  35.734   5.417
 5781POPC   GL172493  28.781  35.510   5.796
 5781POPC   GL272494  28.977  35.200   5.837
 5781POPC   C1A72495  28.919  35.530   6.239
 5781POPC   D2A72496  29.340  35.608   6.449
 5781POPC   C3A72497  29.345  35.600   6.921
 5781POPC   C4A72498  29.292  35.375   7.317
 5781POPC   C1B72499  29.220  35.101   6.229
 5781POPC   C2B72500  29.214  35.151   6.686
 5781POPC   C3B72501  29.220  34.930   7.099
 5781POPC   C4B72502  29.139  34.951   7.587
 5782POPC   NC372503  42.472  31.811   5.515
 5782POPC   PO472504  42.390  32.443   5.302
 5782POPC   GL172505  42.536  32.301   5.748
 5782POPC   GL272506  42.685  32.008   5.914
 5782POPC   C1A72507  42.422  32.405   6.188
 5782POPC   D2A72508  42.277  32.196   6.564
 5782POPC   C3A72509  42.420  32.170   6.971
 5782POPC   C4A72510  42.129  32.180   7.334
 5782POPC   C1B72511  42.672  31.970   6.340
 5782POPC   C2B72512  42.777  31.783   6.698
 5782POPC   C3B72513  42.699  31.758   7.101
 5782POPC   C4B72514  42.626  32.066   7.444
 5783POPC   NC372515  25.937  24.219   5.358
 5783POPC   PO472516  26.428  24.672   5.170
 5783POPC   GL172517  26.293  24.594   5.640
 5783POPC   GL272518  26.454  24.774   5.887
 5783POPC   C1A72519  26.091  24.421   6.043
 5783POPC   D2A72520  26.125  24.285   6.489
 5783POPC   C3A72521  25.790  24.366   6.793
 5783POPC   C4A72522  25.824  24.335   7.252
 5783POPC   C1B72523  26.266  24.889   6.235
 5783POPC   C2B72524  26.044  24.803   6.592
 5783POPC   C3B72525  26.146  24.667   6.968
 5783POPC   C4B72526  26.105  24.799   7.324
 5784POPC   NC372527  43.279   7.331   5.420
 5784POPC   PO472528  42.654   7.375   5.241
 5784POPC   GL172529  42.825   7.423   5.719
 5784POPC   GL272530  43.166   7.576   5.840
 5784POPC   C1A72531  42.974   7.190   6.136
 5784POPC   D2A72532  42.775   7.045   6.546
 5784POPC   C3A72533  43.034   7.124   6.902
 5784POPC   C4A72534  42.904   7.302   7.280
 5784POPC   C1B72535  43.042   7.711   6.235
 5784POPC   C2B72536  43.258   7.820   6.598
 5784POPC   C3B72537  43.568   7.745   6.900
 5784POPC   C4B72538  43.411   7.411   7.159
 5785POPC   NC372539   2.795   8.396   5.694
 5785POPC   PO472540   2.761   9.102   5.376
 5785POPC   GL172541   2.857   8.911   5.762
 5785POPC   GL272542   2.535   8.811   5.823
 5785POPC   C1A72543   2.813   9.008   6.217
 5785POPC   D2A72544   2.620   8.901   6.605
 5785POPC   C3A72545   2.851   9.074   6.919
 5785POPC   C4A72546   3.198   9.002   7.189
 5785POPC   C1B72547   2.336   8.749   6.204
 5785POPC   C2B72548   2.126   8.707   6.632
 5785POPC   C3B72549   2.365   8.704   7.012
 5785POPC   C4B72550   2.744   8.687   7.232
 5786POPC   NC372551  13.529   6.182   5.339
 5786POPC   PO472552  13.259   5.549   5.448
 5786POPC   GL172553  13.348   5.876   5.754
 5786POPC   GL272554  13.709   5.897   5.761
 5786POPC   C1A72555  13.406   5.880   6.205
 5786POPC   D2A72556  13.683   5.745   6.536
 5786POPC   C3A72557  13.548   5.648   6.937
 5786POPC   C4A72558  13.377   5.643   7.336
 5786POPC   C1B72559  13.919   6.024   6.167
 5786POPC   C2B72560  14.113   5.998   6.577
 5786POPC   C3B72561  13.916   6.042   6.986
 5786POPC   C4B72562  14.086   6.327   7.293
 5787POPC   NC372563  22.515  39.573   5.748
 5787POPC   PO472564  22.141  39.140   5.352
 5787POPC   GL172565  22.303  39.079   5.806
 5787POPC   GL272566  21.980  38.993   5.914
 5787POPC   C1A72567  22.230  39.165   6.309
 5787POPC   D2A72568  22.141  39.488   6.659
 5787POPC   C3A72569  22.217  39.384   7.132
 5787POPC   C4A72570  22.520  39.229   7.455
 5787POPC   C1B72571  21.800  38.836   6.295
 5787POPC   C2B72572  21.859  39.051   6.671
 5787POPC   C3B72573  21.884  38.923   7.065
 5787POPC   C4B72574  22.090  38.970   7.429
 5788POPC   NC372575  17.944   6.569   5.573
 5788POPC   PO472576  18.617   6.648   5.520
 5788POPC   GL172577  18.345   6.689   5.876
 5788POPC   GL272578  18.341   7.021   5.937
 5788POPC   C1A72579  18.107   6.547   6.266
 5788POPC   D2A72580  17.818   6.417   6.611
 5788POPC   C3A72581  18.186   6.432   6.891
 5788POPC   C4A72582  18.321   6.596   7.324
 5788POPC   C1B72583  18.076   7.061   6.286
 5788POPC   C2B72584  17.994   6.895   6.679
 5788POPC   C3B72585  18.263   6.961   6.980
 5788POPC   C4B72586  18.614   7.059   7.230
 5789POPC   NC372587   8.731  27.908   5.488
 5789POPC   PO472588   9.073  28.555   5.460
 5789POPC   GL172589   9.087  28.385   5.894
 5789POPC   GL272590   8.966  28.071   5.906
 5789POPC   C1A72591   8.924  28.407   6.313
 5789POPC   D2A72592   8.945  28.630   6.706
 5789POPC   C3A72593   8.820  28.286   6.983
 5789POPC   C4A72594   8.729  28.298   7.405
 5789POPC   C1B72595   9.191  27.931   6.252
 5789POPC   C2B72596   9.021  27.917   6.654
 5789POPC   C3B72597   9.233  27.945   7.037
 5789POPC   C4B72598   9.155  28.047   7.430
 5790POPC   NC372599  22.458  21.446   5.633
 5790POPC   PO472600  21.885  21.243   5.328
 5790POPC   GL172601  21.995  21.269   5.809
 5790POPC   GL272602  22.038  21.649   5.919
 5790POPC   C1A72603  22.221  21.288   6.244
 5790POPC   D2A72604  22.460  21.308   6.622
 5790POPC   C3A72605  22.268  21.047   6.934
 5790POPC   C4A72606  22.060  21.210   7.279
 5790POPC   C1B72607  22.352  21.887   6.213
 5790POPC   C2B72608  22.445  21.863   6.685
 5790POPC   C3B72609  22.135  21.778   7.022
 5790POPC   C4B72610  22.101  21.723   7.454
 5791POPC   NC372611   8.330  27.390   5.222
 5791POPC   PO472612   8.279  28.016   5.526
 5791POPC   GL172613   8.353  27.607   5.709
 5791POPC   GL272614   8.037  27.484   5.660
 5791POPC   C1A72615   8.327  27.374   6.110
 5791POPC   D2A72616   8.148  27.202   6.487
 5791POPC   C3A72617   8.010  27.441   6.817
 5791POPC   C4A72618   8.316  27.467   7.137
 5791POPC   C1B72619   7.945  27.710   6.039
 5791POPC   C2B72620   7.692  27.862   6.367
 5791POPC   C3B72621   7.811  28.014   6.769
 5791POPC   C4B72622   7.867  27.787   7.160
 5792POPC   NC372623  44.134  18.308   5.359
 5792POPC   PO472624  43.453  18.277   5.634
 5792POPC   GL172625  43.855  18.377   5.784
 5792POPC   GL272626  43.809  18.083   5.985
 5792POPC   C1A72627  44.080  18.456   6.168
 5792POPC   D2A72628  43.759  18.375   6.516
 5792POPC   C3A72629  43.810  18.592   6.927
 5792POPC   C4A72630  43.685  18.558   7.381
 5792POPC   C1B72631  43.453  18.005   6.258
 5792POPC   C2B72632  43.465  17.929   6.693
 5792POPC   C3B72633  43.571  18.145   7.042
 5792POPC   C4B72634  43.970  18.180   7.178
 5793POPC   NC372635  40.145  19.119   5.619
 5793POPC   PO472636  39.396  18.933   5.428
 5793POPC   GL172637  39.654  18.974   5.814
 5793POPC   GL272638  39.661  19.300   5.949
 5793POPC   C1A72639  39.861  18.929   6.238
 5793POPC   D2A72640  40.173  19.189   6.497
 5793POPC   C3A72641  40.044  19.268   6.932
 5793POPC   C4A72642  39.876  18.922   7.190
 5793POPC   C1B72643  39.758  19.503   6.322
 5793POPC   C2B72644  39.588  19.446   6.726
 5793POPC   C3B72645  39.651  19.562   7.147
 5793POPC   C4B72646  39.811  19.339   7.510
 5794POPC   NC372647  11.224   4.320   5.354
 5794POPC   PO472648  11.653   3.914   5.710
 5794POPC   GL172649  11.396   4.204   5.970
 5794POPC   GL272650  11.073   4.424   5.857
 5794POPC   C1A72651  11.434   4.274   6.413
 5794POPC   D2A72652  11.147   4.479   6.671
 5794POPC   C3A72653  11.231   4.576   7.089
 5794POPC   C4A72654  11.350   4.396   7.477
 5794POPC   C1B72655  10.934   4.067   6.131
 5794POPC   C2B72656  11.050   3.978   6.559
 5794POPC   C3B72657  11.247   4.071   6.970
 5794POPC   C4B72658  11.105   3.922   7.369
 5795POPC   NC372659  32.718  11.615   5.567
 5795POPC   PO472660  33.123  11.134   5.377
 5795POPC   GL172661  33.181  11.253   5.798
 5795POPC   GL272662  33.086  11.571   5.917
 5795POPC   C1A72663  32.999  11.121   6.174
 5795POPC   D2A72664  33.014  11.270   6.572
 5795POPC   C3A72665  32.887  10.995   6.897
 5795POPC   C4A72666  33.046  11.162   7.261
 5795POPC   C1B72667  32.719  11.553   6.229
 5795POPC   C2B72668  32.572  11.658   6.652
 5795POPC   C3B72669  32.866  11.557   6.972
 5795POPC   C4B72670  32.841  11.662   7.369
 5796POPC   NC372671  13.728   3.599   5.351
 5796POPC   PO472672  13.182   3.149   5.350
 5796POPC   GL172673  13.430   3.422   5.737
 5796POPC   GL272674  13.826   3.394   5.793
 5796POPC   C1A72675  13.589   3.499   6.224
 5796POPC   D2A72676  13.826   3.587   6.621
 5796POPC   C3A72677  13.618   3.875   6.919
 5796POPC   C4A72678  13.349   3.789   7.327
 5796POPC   C1B72679  14.091   3.439   6.174
 5796POPC   C2B72680  14.107   3.130   6.546
 5796POPC   C3B72681  13.920   3.178   6.961
 5796POPC   C4B72682  13.734   3.478   7.185
 5797POPC   NC372683  21.512  21.656   5.387
 5797POPC   PO472684  21.042  21.165   5.580
 5797POPC   GL172685  21.189  21.507   5.791
 5797POPC   GL272686  21.531  21.495   5.880
 5797POPC   C1A72687  21.117  21.579   6.224
 5797POPC   D2A72688  21.118  21.336   6.587
 5797POPC   C3A72689  21.144  21.517   7.019
 5797POPC   C4A72690  21.265  21.492   7.494
 5797POPC   C1B72691  21.722  21.398   6.298
 5797POPC   C2B72692  21.872  21.403   6.765
 5797POPC   C3B72693  21.687  21.550   7.186
 5797POPC   C4B72694  21.757  21.402   7.654
 5798POPC   NC372695  41.526   7.034   5.290
 5798POPC   PO472696  41.461   7.641   5.285
 5798POPC   GL172697  41.604   7.579   5.749
 5798POPC   GL272698  41.677   7.217   5.779
 5798POPC   C1A72699  41.689   7.503   6.243
 5798POPC   D2A72700  41.475   7.670   6.621
 5798POPC   C3A72701  41.580   7.520   7.049
 5798POPC   C4A72702  41.771   7.145   7.259
 5798POPC   C1B72703  41.286   7.277   6.059
 5798POPC   C2B72704  41.267   7.204   6.514
 5798POPC   C3B72705  41.327   7.089   6.964
 5798POPC   C4B72706  41.289   7.227   7.415
 5799POPC   NC372707  31.612   6.743   5.413
 5799POPC   PO472708  30.991   6.626   5.367
 5799POPC   GL172709  31.228   6.470   5.752
 5799POPC   GL272710  31.613   6.425   5.821
 5799POPC   C1A72711  31.305   6.706   6.142
 5799POPC   D2A72712  31.561   6.778   6.446
 5799POPC   C3A72713  31.366   6.739   6.801
 5799POPC   C4A72714  31.465   6.732   7.190
 5799POPC   C1B72715  31.782   6.355   6.251
 5799POPC   C2B72716  31.644   6.308   6.703
 5799POPC   C3B72717  31.837   6.398   7.120
 5799POPC   C4B72718  31.977   6.573   7.511
 5800POPC   NC372719  41.406  44.146   5.417
 5800POPC   PO472720  41.762  43.776   5.088
 5800POPC   GL172721  41.673  43.817   5.678
 5800POPC   GL272722  41.821  44.081   5.839
 5800POPC   C1A72723  41.723  43.567   6.087
 5800POPC   D2A72724  41.809  43.455   6.540
 5800POPC   C3A72725  41.575  43.488   6.940
 5800POPC   C4A72726  41.499  43.623   7.365
 5800POPC   C1B72727  41.500  44.023   6.110
 5800POPC   C2B72728  41.474  44.221   6.473
 5800POPC   C3B72729  41.569  44.023   6.849
 5800POPC   C4B72730  41.435  44.105   7.256
 5801POPC   NC372731  41.107  28.555   5.611
 5801POPC   PO472732  41.639  28.307   5.231
 5801POPC   GL172733  41.521  28.106   5.660
 5801POPC   GL272734  41.792  27.979   5.898
 5801POPC   C1A72735  41.372  28.185   6.123
 5801POPC   D2A72736  41.563  28.024   6.532
 5801POPC   C3A72737  41.509  28.214   6.970
 5801POPC   C4A72738  41.371  28.607   7.257
 5801POPC   C1B72739  41.870  28.315   6.217
 5801POPC   C2B72740  41.954  28.425   6.675
 5801POPC   C3B72741  41.865  28.555   7.117
 5801POPC   C4B72742  41.742  28.306   7.449
 5802POPC   NC372743   4.824  23.764   5.285
 5802POPC   PO472744   4.120  23.806   5.346
 5802POPC   GL172745   4.420  23.800   5.705
 5802POPC   GL272746   4.179  23.586   5.849
 5802POPC   C1A72747   4.493  23.771   6.183
 5802POPC   D2A72748   4.322  23.751   6.619
 5802POPC   C3A72749   4.561  23.983   6.946
 5802POPC   C4A72750   4.648  23.800   7.413
 5802POPC   C1B72751   3.968  23.547   6.196
 5802POPC   C2B72752   3.815  23.381   6.518
 5802POPC   C3B72753   4.048  23.358   6.852
 5802POPC   C4B72754   4.252  23.625   7.142
 5803POPC   NC372755  17.190  23.981   5.106
 5803POPC   PO472756  16.657  23.457   5.026
 5803POPC   GL172757  16.664  23.621   5.623
 5803POPC   GL272758  16.979  23.637   5.846
 5803POPC   C1A72759  16.508  23.721   6.063
 5803POPC   D2A72760  16.646  23.803   6.514
 5803POPC   C3A72761  16.397  23.701   6.895
 5803POPC   C4A72762  16.575  23.728   7.294
 5803POPC   C1B72763  17.012  23.496   6.287
 5803POPC   C2B72764  17.235  23.499   6.701
 5803POPC   C3B72765  17.052  23.700   7.074
 5803POPC   C4B72766  17.077  23.669   7.520
 5804POPC   NC372767  25.104  44.710   5.460
 5804POPC   PO472768  25.744  44.470   5.640
 5804POPC   GL172769  25.423  44.767   5.854
 5804POPC   GL272770  25.090  44.572   5.934
 5804POPC   C1A72771  25.302  44.890   6.275
 5804POPC   D2A72772  25.409  44.554   6.548
 5804POPC   C3A72773  25.500  44.684   6.954
 5804POPC   C4A72774  25.568  44.667   7.384
 5804POPC   C1B72775  24.926  44.535   6.333
 5804POPC   C2B72776  24.949  44.809   6.698
 5804POPC   C3B72777  25.058  44.857   7.125
 5804POPC   C4B72778  24.970  44.439   7.311
 5805POPC   NC372779  33.451  29.418   5.573
 5805POPC   PO472780  33.991  29.110   5.539
 5805POPC   GL172781  33.703  28.935   5.848
 5805POPC   GL272782  33.508  29.192   6.056
 5805POPC   C1A72783  33.745  28.777   6.263
 5805POPC   D2A72784  33.788  29.012   6.632
 5805POPC   C3A72785  33.967  28.889   7.034
 5805POPC   C4A72786  33.809  28.851   7.426
 5805POPC   C1B72787  33.923  29.297   6.186
 5805POPC   C2B72788  34.063  29.448   6.567
 5805POPC   C3B72789  33.874  29.399   6.957
 5805POPC   C4B72790  33.983  29.336   7.371
 5806POPC   NC372791  38.680   9.767   5.384
 5806POPC   PO472792  39.255   9.889   5.362
 5806POPC   GL172793  39.014   9.882   5.772
 5806POPC   GL272794  38.737   9.575   5.845
 5806POPC   C1A72795  39.278  10.061   6.148
 5806POPC   D2A72796  39.576  10.286   6.467
 5806POPC   C3A72797  39.474  10.237   6.898
 5806POPC   C4A72798  39.404   9.885   7.202
 5806POPC   C1B72799  38.856   9.741   6.235
 5806POPC   C2B72800  38.818   9.743   6.676
 5806POPC   C3B72801  38.950   9.546   7.083
 5806POPC   C4B72802  39.320   9.302   7.252
 5807POPC   NC372803  33.322  16.512   5.518
 5807POPC   PO472804  33.933  16.767   5.368
 5807POPC   GL172805  33.803  16.570   5.727
 5807POPC   GL272806  33.614  16.881   5.777
 5807POPC   C1A72807  33.645  16.516   6.158
 5807POPC   D2A72808  33.817  16.667   6.552
 5807POPC   C3A72809  33.697  16.507   6.948
 5807POPC   C4A72810  33.583  16.633   7.378
 5807POPC   C1B72811  33.536  17.050   6.182
 5807POPC   C2B72812  33.460  17.033   6.610
 5807POPC   C3B72813  33.597  17.022   7.021
 5807POPC   C4B72814  33.362  17.079   7.381
 5808POPC   NC372815  20.137  40.112   5.525
 5808POPC   PO472816  19.581  39.968   5.163
 5808POPC   GL172817  19.656  40.004   5.660
 5808POPC   GL272818  19.596  40.288   5.867
 5808POPC   C1A72819  19.743  39.876   6.130
 5808POPC   D2A72820  20.055  39.792   6.504
 5808POPC   C3A72821  19.881  39.779   6.943
 5808POPC   C4A72822  19.605  40.034   7.239
 5808POPC   C1B72823  20.008  40.325   6.143
 5808POPC   C2B72824  20.200  40.300   6.568
 5808POPC   C3B72825  20.056  40.273   7.010
 5808POPC   C4B72826  20.015  40.249   7.462
 5809POPC   NC372827   7.522   6.232   5.453
 5809POPC   PO472828   7.221   5.535   5.439
 5809POPC   GL172829   7.198   5.658   5.849
 5809POPC   GL272830   7.528   5.699   5.842
 5809POPC   C1A72831   7.155   5.767   6.289
 5809POPC   D2A72832   7.349   5.583   6.655
 5809POPC   C3A72833   7.264   5.786   7.056
 5809POPC   C4A72834   7.316   5.535   7.380
 5809POPC   C1B72835   7.660   5.761   6.269
 5809POPC   C2B72836   7.821   5.765   6.713
 5809POPC   C3B72837   7.758   5.802   7.172
 5809POPC   C4B72838   7.537   6.001   7.503
 5810POPC   NC372839  18.410  36.399   5.308
 5810POPC   PO472840  17.909  35.986   5.217
 5810POPC   GL172841  18.190  36.159   5.677
 5810POPC   GL272842  18.492  35.954   5.896
 5810POPC   C1A72843  18.330  36.376   6.085
 5810POPC   D2A72844  18.382  36.102   6.455
 5810POPC   C3A72845  18.516  36.278   6.830
 5810POPC   C4A72846  18.466  36.576   7.170
 5810POPC   C1B72847  18.766  35.714   6.173
 5810POPC   C2B72848  18.708  35.696   6.617
 5810POPC   C3B72849  18.563  35.764   7.030
 5810POPC   C4B72850  18.728  35.649   7.427
 5811POPC   NC372851   0.602  11.962   5.414
 5811POPC   PO472852   0.181  12.503   5.522
 5811POPC   GL172853   0.295  12.152   5.800
 5811POPC   GL272854   0.088  11.869   5.678
 5811POPC   C1A72855   0.552  12.114   6.181
 5811POPC   D2A72856   0.637  12.353   6.574
 5811POPC   C3A72857   0.490  12.107   6.936
 5811POPC   C4A72858   0.640  12.173   7.349
 5811POPC   C1B72859   0.150  11.736   6.118
 5811POPC   C2B72860   0.285  11.836   6.540
 5811POPC   C3B72861   0.072  11.740   6.920
 5811POPC   C4B72862   0.217  11.840   7.311
 5812POPC   NC372863  37.495  24.986   5.512
 5812POPC   PO472864  37.577  25.542   5.218
 5812POPC   GL172865  37.890  25.429   5.656
 5812POPC   GL272866  37.788  25.149   5.884
 5812POPC   C1A72867  38.126  25.369   6.152
 5812POPC   D2A72868  37.877  25.264   6.569
 5812POPC   C3A72869  37.973  25.395   7.002
 5812POPC   C4A72870  38.051  25.705   7.333
 5812POPC   C1B72871  37.496  25.174   6.250
 5812POPC   C2B72872  37.374  25.087   6.632
 5812POPC   C3B72873  37.635  24.966   6.936
 5812POPC   C4B72874  37.627  25.126   7.306
 5813POPC   NC372875  42.191  38.023   5.313
 5813POPC   PO472876  42.411  38.638   5.361
 5813POPC   GL172877  42.339  38.610   5.811
 5813POPC   GL272878  42.682  38.635   5.933
 5813POPC   C1A72879  42.068  38.346   6.099
 5813POPC   D2A72880  42.028  38.159   6.517
 5813POPC   C3A72881  42.149  38.378   6.890
 5813POPC   C4A72882  41.940  38.465   7.301
 5813POPC   C1B72883  42.468  38.556   6.349
 5813POPC   C2B72884  42.143  38.804   6.584
 5813POPC   C3B72885  42.107  38.875   7.045
 5813POPC   C4B72886  42.460  38.612   7.222
 5814POPC   NC372887   9.131  28.965   5.065
 5814POPC   PO472888   8.773  29.397   5.419
 5814POPC   GL172889   9.007  29.259   5.757
 5814POPC   GL272890   9.056  28.908   5.830
 5814POPC   C1A72891   8.911  29.246   6.195
 5814POPC   D2A72892   9.071  29.169   6.585
 5814POPC   C3A72893   9.038  29.446   6.913
 5814POPC   C4A72894   9.101  29.426   7.344
 5814POPC   C1B72895   9.253  28.800   6.246
 5814POPC   C2B72896   9.473  28.855   6.660
 5814POPC   C3B72897   9.217  28.969   7.038
 5814POPC   C4B72898   8.891  28.738   7.230
 5815POPC   NC372899  28.062  37.214   5.546
 5815POPC   PO472900  28.661  37.436   5.610
 5815POPC   GL172901  28.545  37.063   5.877
 5815POPC   GL272902  28.303  36.801   5.760
 5815POPC   C1A72903  28.497  36.883   6.310
 5815POPC   D2A72904  28.195  36.774   6.634
 5815POPC   C3A72905  28.334  36.942   7.006
 5815POPC   C4A72906  28.554  36.774   7.318
 5815POPC   C1B72907  28.052  36.691   6.110
 5815POPC   C2B72908  27.986  36.367   6.384
 5815POPC   C3B72909  28.003  36.325   6.842
 5815POPC   C4B72910  28.142  36.491   7.219
 5816POPC   NC372911  31.387  17.890   5.404
 5816POPC   PO472912  31.524  18.542   5.296
 5816POPC   GL172913  31.375  18.458   5.731
 5816POPC   GL272914  31.539  18.120   5.851
 5816POPC   C1A72915  31.353  18.430   6.202
 5816POPC   D2A72916  31.319  18.070   6.500
 5816POPC   C3A72917  31.317  18.231   6.899
 5816POPC   C4A72918  31.249  18.604   7.077
 5816POPC   C1B72919  31.781  18.113   6.252
 5816POPC   C2B72920  31.805  18.222   6.715
 5816POPC   C3B72921  31.745  18.058   7.146
 5816POPC   C4B72922  31.818  18.016   7.619
 5817POPC   NC372923  17.485  33.549   5.432
 5817POPC   PO472924  18.093  33.822   5.402
 5817POPC   GL172925  17.764  33.798   5.805
 5817POPC   GL272926  17.363  33.862   5.901
 5817POPC   C1A72927  17.681  33.736   6.274
 5817POPC   D2A72928  17.848  33.974   6.635
 5817POPC   C3A72929  17.646  33.924   7.032
 5817POPC   C4A72930  17.558  33.533   7.213
 5817POPC   C1B72931  17.153  33.866   6.279
 5817POPC   C2B72932  17.316  33.806   6.675
 5817POPC   C3B72933  17.104  33.692   7.059
 5817POPC   C4B72934  17.151  33.588   7.527
 5818POPC   NC372935   1.036  19.180   5.376
 5818POPC   PO472936   1.428  18.618   5.439
 5818POPC   GL172937   1.357  18.966   5.735
 5818POPC   GL272938   1.566  19.275   5.747
 5818POPC   C1A72939   1.292  18.990   6.167
 5818POPC   D2A72940   1.502  18.817   6.511
 5818POPC   C3A72941   1.278  18.874   6.894
 5818POPC   C4A72942   0.918  19.055   7.122
 5818POPC   C1B72943   1.479  19.474   6.153
 5818POPC   C2B72944   1.337  19.336   6.565
 5818POPC   C3B72945   1.461  19.399   6.977
 5818POPC   C4B72946   1.373  19.150   7.327
 5819POPC   NC372947  42.844  38.479   5.339
 5819POPC   PO472948  43.111  37.932   5.470
 5819POPC   GL172949  43.243  38.210   5.855
 5819POPC   GL272950  43.193  38.612   5.896
 5819POPC   C1A72951  43.536  38.365   6.186
 5819POPC   D2A72952  43.530  38.646   6.544
 5819POPC   C3A72953  43.291  38.459   6.892
 5819POPC   C4A72954  43.389  38.403   7.337
 5819POPC   C1B72955  43.013  38.503   6.341
 5819POPC   C2B72956  42.777  38.535   6.770
 5819POPC   C3B72957  42.942  38.745   7.151
 5819POPC   C4B72958  43.153  38.776   7.582
 5820POPC   NC372959  12.450  40.254   5.265
 5820POPC   PO472960  12.947  39.771   5.096
 5820POPC   GL172961  12.918  39.941   5.544
 5820POPC   GL272962  12.577  39.951   5.684
 5820POPC   C1A72963  13.024  40.036   6.009
 5820POPC   D2A72964  12.977  40.202   6.455
 5820POPC   C3A72965  13.086  39.966   6.830
 5820POPC   C4A72966  12.993  40.071   7.260
 5820POPC   C1B72967  12.511  40.008   6.135
 5820POPC   C2B72968  12.610  39.820   6.544
 5820POPC   C3B72969  12.583  39.986   6.956
 5820POPC   C4B72970  12.328  40.282   7.158
 5821POPC   NC372971   1.800  18.874   5.470
 5821POPC   PO472972   2.148  19.460   5.391
 5821POPC   GL172973   2.080  19.182   5.756
 5821POPC   GL272974   2.228  18.847   5.769
 5821POPC   C1A72975   1.856  19.012   6.126
 5821POPC   D2A72976   1.829  19.210   6.517
 5821POPC   C3A72977   1.811  19.003   6.888
 5821POPC   C4A72978   2.035  19.060   7.245
 5821POPC   C1B72979   2.231  18.629   6.134
 5821POPC   C2B72980   2.029  18.670   6.513
 5821POPC   C3B72981   2.243  18.706   6.887
 5821POPC   C4B72982   2.092  18.562   7.248
 5822POPC   NC372983  42.554  43.118   5.380
 5822POPC   PO472984  42.043  43.472   5.534
 5822POPC   GL172985  42.259  43.106   5.818
 5822POPC   GL272986  42.643  42.944   5.851
 5822POPC   C1A72987  42.396  43.165   6.261
 5822POPC   D2A72988  42.333  43.538   6.493
 5822POPC   C3A72989  42.186  43.425   6.880
 5822POPC   C4A72990  42.334  43.455   7.268
 5822POPC   C1B72991  42.839  43.335   6.082
 5822POPC   C2B72992  42.851  43.504   6.527
 5822POPC   C3B72993  42.719  43.308   6.925
 5822POPC   C4B72994  42.550  42.983   7.194
 5823POPC   NC372995  33.830  34.103   5.433
 5823POPC   PO472996  34.050  33.534   5.434
 5823POPC   GL172997  33.680  33.705   5.738
 5823POPC   GL272998  33.522  34.053   5.827
 5823POPC   C1A72999  33.602  33.716   6.215
 5823POPC   D2A73000  33.640  33.873   6.669
 5823POPC   C3A73001  33.804  33.547   7.020
 5823POPC   C4A73002  33.949  33.587   7.480
 5823POPC   C1B73003  33.553  34.316   6.212
 5823POPC   C2B73004  33.344  34.407   6.613
 5823POPC   C3B73005  33.305  34.167   6.977
 5823POPC   C4B73006  33.627  33.955   7.282
 5824POPC   NC373007  42.658  12.466   5.505
 5824POPC   PO473008  42.462  11.959   5.073
 5824POPC   GL173009  42.415  12.011   5.590
 5824POPC   GL273010  42.235  12.311   5.784
 5824POPC   C1A73011  42.522  11.987   6.081
 5824POPC   D2A73012  42.622  12.266   6.469
 5824POPC   C3A73013  42.667  12.169   6.914
 5824POPC   C4A73014  42.379  12.112   7.306
 5824POPC   C1B73015  42.276  12.537   6.220
 5824POPC   C2B73016  42.210  12.469   6.711
 5824POPC   C3B73017  42.424  12.575   7.114
 5824POPC   C4B73018  42.434  12.554   7.609
 5825POPC   NC373019   3.410   1.661   5.119
 5825POPC   PO473020   3.421   1.016   5.374
 5825POPC   GL173021   3.552   1.021   5.814
 5825POPC   GL273022   3.916   0.998   5.812
 5825POPC   C1A73023   3.353   1.003   6.247
 5825POPC   D2A73024   3.176   1.251   6.594
 5825POPC   C3A73025   3.131   1.037   6.991
 5825POPC   C4A73026   3.362   1.164   7.378
 5825POPC   C1B73027   3.845   1.141   6.245
 5825POPC   C2B73028   3.730   1.178   6.686
 5825POPC   C3B73029   3.634   0.935   7.022
 5825POPC   C4B73030   3.730   0.811   7.462
 5826POPC   NC373031  20.676  10.096   5.467
 5826POPC   PO473032  20.461   9.427   5.408
 5826POPC   GL173033  20.598   9.678   5.759
 5826POPC   GL273034  20.814   9.457   5.838
 5826POPC   C1A73035  20.768   9.798   6.178
 5826POPC   D2A73036  20.524   9.703   6.520
 5826POPC   C3A73037  20.718   9.749   6.891
 5826POPC   C4A73038  20.482   9.780   7.240
 5826POPC   C1B73039  20.505   9.332   6.149
 5826POPC   C2B73040  20.297   9.252   6.547
 5826POPC   C3B73041  20.311   9.413   6.931
 5826POPC   C4B73042  20.230   9.347   7.349
 5827POPC   NC373043  40.529   9.353   5.340
 5827POPC   PO473044  40.856  10.006   5.360
 5827POPC   GL173045  40.718   9.872   5.737
 5827POPC   GL273046  40.789  10.193   5.853
 5827POPC   C1A73047  40.629   9.586   6.101
 5827POPC   D2A73048  40.819   9.546   6.513
 5827POPC   C3A73049  40.658   9.601   6.948
 5827POPC   C4A73050  40.829   9.452   7.323
 5827POPC   C1B73051  40.480  10.098   6.161
 5827POPC   C2B73052  40.450   9.904   6.554
 5827POPC   C3B73053  40.591  10.121   6.919
 5827POPC   C4B73054  40.824   9.991   7.271
 5828POPC   NC373055  40.322  27.938   5.555
 5828POPC   PO473056  39.979  28.465   5.279
 5828POPC   GL173057  39.904  28.328   5.722
 5828POPC   GL273058  39.585  28.189   5.805
 5828POPC   C1A73059  39.968  28.175   6.159
 5828POPC   D2A73060  40.007  28.422   6.540
 5828POPC   C3A73061  40.118  28.206   6.934
 5828POPC   C4A73062  40.039  28.338   7.370
 5828POPC   C1B73063  39.457  28.146   6.263
 5828POPC   C2B73064  39.652  28.088   6.693
 5828POPC   C3B73065  39.650  28.085   7.145
 5828POPC   C4B73066  39.698  28.006   7.575
 5829POPC   NC373067  21.110  20.741   5.426
 5829POPC   PO473068  21.699  20.478   5.268
 5829POPC   GL173069  21.537  20.637   5.688
 5829POPC   GL273070  21.551  21.003   5.662
 5829POPC   C1A73071  21.317  20.524   6.103
 5829POPC   D2A73072  21.121  20.409   6.514
 5829POPC   C3A73073  21.193  20.626   6.916
 5829POPC   C4A73074  21.156  20.320   7.227
 5829POPC   C1B73075  21.414  21.031   6.100
 5829POPC   C2B73076  21.402  20.876   6.512
 5829POPC   C3B73077  21.448  21.107   6.889
 5829POPC   C4B73078  21.589  21.063   7.283
 5830POPC   NC373079  31.649  27.376   5.457
 5830POPC   PO473080  31.436  27.999   5.434
 5830POPC   GL173081  31.514  27.833   5.853
 5830POPC   GL273082  31.522  27.473   5.922
 5830POPC   C1A73083  31.218  27.752   6.215
 5830POPC   D2A73084  30.981  27.575   6.579
 5830POPC   C3A73085  31.237  27.539   6.972
 5830POPC   C4A73086  31.616  27.742   7.128
 5830POPC   C1B73087  31.737  27.481   6.266
 5830POPC   C2B73088  31.832  27.556   6.675
 5830POPC   C3B73089  31.770  27.274   6.989
 5830POPC   C4B73090  31.530  27.259   7.340
 5831POPC   NC373091  28.595  38.961   5.520
 5831POPC   PO473092  28.613  38.344   5.193
 5831POPC   GL173093  28.402  38.329   5.708
 5831POPC   GL273094  28.320  38.673   5.834
 5831POPC   C1A73095  28.495  38.277   6.157
 5831POPC   D2A73096  28.385  38.238   6.586
 5831POPC   C3A73097  28.616  38.254   6.965
 5831POPC   C4A73098  28.396  38.258   7.351
 5831POPC   C1B73099  28.651  38.785   6.167
 5831POPC   C2B73100  28.611  38.731   6.607
 5831POPC   C3B73101  28.318  38.654   6.919
 5831POPC   C4B73102  28.450  38.752   7.303
 5832POPC   NC373103  43.725   0.570   5.650
 5832POPC   PO473104  44.335   0.372   5.434
 5832POPC   GL173105  44.094   0.289   5.821
 5832POPC   GL273106  44.189   0.669   5.849
 5832POPC   C1A73107  43.790   0.273   6.210
 5832POPC   D2A73108  43.523   0.226   6.559
 5832POPC   C3A73109  43.728   0.235   6.927
 5832POPC   C4A73110  43.708   0.497   7.263
 5832POPC   C1B73111  44.230   0.555   6.263
 5832POPC   C2B73112  43.941   0.626   6.597
 5832POPC   C3B73113  44.117   0.648   6.997
 5832POPC   C4B73114  44.162   0.273   7.191
 5833POPC   NC373115  11.884  43.616   5.540
 5833POPC   PO473116  12.169  44.223   5.453
 5833POPC   GL173117  12.080  43.992   5.832
 5833POPC   GL273118  12.333  43.750   5.866
 5833POPC   C1A73119  11.924  43.772   6.237
 5833POPC   D2A73120  11.781  43.463   6.596
 5833POPC   C3A73121  11.788  43.703   6.991
 5833POPC   C4A73122  12.220  43.849   7.098
 5833POPC   C1B73123  12.404  44.086   6.210
 5833POPC   C2B73124  12.272  44.203   6.647
 5833POPC   C3B73125  12.437  44.315   7.065
 5833POPC   C4B73126  12.392  44.318   7.533
 5834POPC   NC373127  18.410   7.161   5.446
 5834POPC   PO473128  18.469   7.877   5.581
 5834POPC   GL173129  18.467   7.521   5.819
 5834POPC   GL273130  18.118   7.456   5.787
 5834POPC   C1A73131  18.410   7.456   6.242
 5834POPC   D2A73132  18.485   7.240   6.612
 5834POPC   C3A73133  18.446   7.490   6.990
 5834POPC   C4A73134  18.769   7.617   7.262
 5834POPC   C1B73135  17.909   7.536   6.201
 5834POPC   C2B73136  18.055   7.536   6.635
 5834POPC   C3B73137  17.929   7.427   7.060
 5834POPC   C4B73138  18.062   7.609   7.455
 5835POPC   NC373139  17.760   3.060   5.511
 5835POPC   PO473140  17.166   2.766   5.416
 5835POPC   GL173141  17.409   2.788   5.767
 5835POPC   GL273142  17.649   2.536   5.687
 5835POPC   C1A73143  17.369   2.886   6.194
 5835POPC   D2A73144  17.484   3.052   6.600
 5835POPC   C3A73145  17.494   2.975   7.012
 5835POPC   C4A73146  17.272   3.130   7.310
 5835POPC   C1B73147  17.482   2.384   6.091
 5835POPC   C2B73148  17.624   2.547   6.489
 5835POPC   C3B73149  17.499   2.490   6.876
 5835POPC   C4B73150  17.493   2.505   7.286
 5836POPC   NC373151  18.480   9.055   5.504
 5836POPC   PO473152  17.859   8.668   5.618
 5836POPC   GL173153  18.049   9.058   5.831
 5836POPC   GL273154  18.411   9.189   5.969
 5836POPC   C1A73155  18.053   9.077   6.280
 5836POPC   D2A73156  18.143   8.752   6.620
 5836POPC   C3A73157  18.005   8.815   7.044
 5836POPC   C4A73158  17.913   9.125   7.340
 5836POPC   C1B73159  18.428   8.766   6.161
 5836POPC   C2B73160  18.634   8.619   6.530
 5836POPC   C3B73161  18.577   8.666   6.975
 5836POPC   C4B73162  18.370   8.753   7.397
 5837POPC   NC373163  32.756  33.514   5.573
 5837POPC   PO473164  33.260  33.897   5.380
 5837POPC   GL173165  33.027  33.962   5.794
 5837POPC   GL273166  33.153  33.637   5.907
 5837POPC   C1A73167  33.177  33.993   6.262
 5837POPC   D2A73168  33.182  33.638   6.530
 5837POPC   C3A73169  33.299  33.645   6.960
 5837POPC   C4A73170  33.076  33.454   7.260
 5837POPC   C1B73171  32.786  33.682   6.172
 5837POPC   C2B73172  32.682  33.712   6.558
 5837POPC   C3B73173  32.811  33.764   6.964
 5837POPC   C4B73174  32.648  33.857   7.384
 5838POPC   NC373175  35.909   5.887   4.901
 5838POPC   PO473176  36.529   5.838   5.268
 5838POPC   GL173177  36.225   5.962   5.662
 5838POPC   GL273178  35.907   6.185   5.704
 5838POPC   C1A73179  36.192   5.720   6.075
 5838POPC   D2A73180  36.328   5.567   6.492
 5838POPC   C3A73181  36.151   5.694   6.866
 5838POPC   C4A73182  36.142   5.911   7.249
 5838POPC   C1B73183  36.052   6.231   6.107
 5838POPC   C2B73184  36.067   6.046   6.490
 5838POPC   C3B73185  35.872   6.136   6.870
 5838POPC   C4B73186  35.724   6.201   7.274
 5839POPC   NC373187  31.792  11.944   5.408
 5839POPC   PO473188  32.504  11.997   5.395
 5839POPC   GL173189  32.248  11.856   5.749
 5839POPC   GL273190  32.383  12.137   5.904
 5839POPC   C1A73191  32.001  11.856   6.190
 5839POPC   D2A73192  32.089  11.974   6.622
 5839POPC   C3A73193  31.974  11.952   7.060
 5839POPC   C4A73194  32.353  11.770   7.217
 5839POPC   C1B73195  32.499  12.011   6.270
 5839POPC   C2B73196  32.560  12.182   6.638
 5839POPC   C3B73197  32.740  12.039   7.018
 5839POPC   C4B73198  32.695  12.138   7.435
 5840POPC   NC373199  30.879   1.795   5.384
 5840POPC   PO473200  30.461   2.317   5.397
 5840POPC   GL173201  30.549   2.064   5.773
 5840POPC   GL273202  30.856   1.866   5.894
 5840POPC   C1A73203  30.636   2.251   6.170
 5840POPC   D2A73204  30.892   2.399   6.515
 5840POPC   C3A73205  30.733   2.233   6.904
 5840POPC   C4A73206  30.486   2.121   7.290
 5840POPC   C1B73207  30.502   1.756   6.227
 5840POPC   C2B73208  30.477   1.807   6.717
 5840POPC   C3B73209  30.754   1.744   7.098
 5840POPC   C4B73210  30.795   1.746   7.563
 5841POPC   NC373211  43.736  20.833   5.484
 5841POPC   PO473212  44.274  20.295   5.358
 5841POPC   GL173213  44.013  20.439   5.759
 5841POPC   GL273214  43.647  20.441   5.810
 5841POPC   C1A73215  43.913  20.745   6.131
 5841POPC   D2A73216  43.840  21.042   6.462
 5841POPC   C3A73217  43.889  20.830   6.887
 5841POPC   C4A73218  44.235  20.836   7.164
 5841POPC   C1B73219  43.440  20.572   6.202
 5841POPC   C2B73220  43.432  20.787   6.600
 5841POPC   C3B73221  43.458  20.562   6.998
 5841POPC   C4B73222  43.776  20.539   7.349
 5842POPC   NC373223  32.763  25.437   5.321
 5842POPC   PO473224  33.409  25.116   5.263
 5842POPC   GL173225  33.050  25.057   5.570
 5842POPC   GL273226  33.034  25.386   5.749
 5842POPC   C1A73227  32.902  25.007   6.020
 5842POPC   D2A73228  32.875  25.258   6.402
 5842POPC   C3A73229  32.819  25.077   6.779
 5842POPC   C4A73230  32.928  25.157   7.176
 5842POPC   C1B73231  33.175  25.589   6.156
 5842POPC   C2B73232  33.261  25.690   6.601
 5842POPC   C3B73233  33.232  25.591   7.046
 5842POPC   C4B73234  33.251  25.413   7.468
 5843POPC   NC373235  17.625  31.107   5.443
 5843POPC   PO473236  17.259  31.677   5.445
 5843POPC   GL173237  17.451  31.616   5.810
 5843POPC   GL273238  17.792  31.565   5.687
 5843POPC   C1A73239  17.226  31.458   6.180
 5843POPC   D2A73240  17.066  31.212   6.538
 5843POPC   C3A73241  17.211  31.404   6.912
 5843POPC   C4A73242  17.238  31.288   7.342
 5843POPC   C1B73243  17.844  31.326   6.077
 5843POPC   C2B73244  17.641  31.290   6.478
 5843POPC   C3B73245  17.679  31.207   6.900
 5843POPC   C4B73246  17.769  31.411   7.288
 5844POPC   NC373247  19.258  31.613   5.359
 5844POPC   PO473248  18.679  31.334   5.440
 5844POPC   GL173249  18.838  31.449   5.813
 5844POPC   GL273250  18.745  31.761   5.813
 5844POPC   C1A73251  19.047  31.286   6.177
 5844POPC   D2A73252  19.291  31.190   6.540
 5844POPC   C3A73253  18.981  31.209   6.873
 5844POPC   C4A73254  19.141  31.154   7.238
 5844POPC   C1B73255  18.955  31.798   6.200
 5844POPC   C2B73256  19.154  31.706   6.566
 5844POPC   C3B73257  19.255  31.618   6.985
 5844POPC   C4B73258  18.947  31.621   7.317
 5845POPC   NC373259  19.584  33.340   5.637
 5845POPC   PO473260  19.751  32.715   5.498
 5845POPC   GL173261  19.890  32.952   5.825
 5845POPC   GL273262  20.203  32.830   5.826
 5845POPC   C1A73263  19.787  32.983   6.264
 5845POPC   D2A73264  19.639  32.734   6.639
 5845POPC   C3A73265  19.744  32.918   7.069
 5845POPC   C4A73266  19.671  32.851   7.539
 5845POPC   C1B73267  20.327  32.914   6.242
 5845POPC   C2B73268  20.130  32.904   6.661
 5845POPC   C3B73269  20.268  32.873   7.096
 5845POPC   C4B73270  20.079  33.134   7.418
 5846POPC   NC373271  12.939  13.269   5.572
 5846POPC   PO473272  12.792  12.688   5.279
 5846POPC   GL173273  12.850  12.786   5.720
 5846POPC   GL273274  13.196  12.836   5.680
 5846POPC   C1A73275  12.719  12.786   6.176
 5846POPC   D2A73276  12.586  12.858   6.597
 5846POPC   C3A73277  12.689  12.551   6.922
 5846POPC   C4A73278  12.573  12.637   7.322
 5846POPC   C1B73279  13.185  12.983   6.112
 5846POPC   C2B73280  13.095  12.908   6.538
 5846POPC   C3B73281  12.965  12.986   6.946
 5846POPC   C4B73282  13.204  13.174   7.223
 5847POPC   NC373283  13.174  14.203   5.574
 5847POPC   PO473284  12.663  14.673   5.475
 5847POPC   GL173285  12.760  14.440   5.792
 5847POPC   GL273286  12.645  14.091   5.683
 5847POPC   C1A73287  13.005  14.503   6.168
 5847POPC   D2A73288  13.046  14.257   6.535
 5847POPC   C3A73289  12.906  14.514   6.905
 5847POPC   C4A73290  12.937  14.438   7.364
 5847POPC   C1B73291  12.781  14.045   6.113
 5847POPC   C2B73292  12.623  13.810   6.413
 5847POPC   C3B73293  12.771  13.842   6.806
 5847POPC   C4B73294  12.822  13.983   7.195
 5848POPC   NC373295   5.714  12.133   5.225
 5848POPC   PO473296   6.200  11.941   5.650
 5848POPC   GL173297   5.731  11.962   5.765
 5848POPC   GL273298   5.534  12.290   5.696
 5848POPC   C1A73299   5.709  11.888   6.233
 5848POPC   D2A73300   6.090  11.820   6.544
 5848POPC   C3A73301   6.035  11.900   6.991
 5848POPC   C4A73302   5.609  11.909   7.126
 5848POPC   C1B73303   5.847  12.386   6.007
 5848POPC   C2B73304   5.936  12.323   6.427
 5848POPC   C3B73305   5.887  12.418   6.843
 5848POPC   C4B73306   5.809  12.348   7.250
 5849POPC   NC373307  27.845  25.198   5.484
 5849POPC   PO473308  27.213  25.267   5.342
 5849POPC   GL173309  27.353  25.061   5.758
 5849POPC   GL273310  27.593  25.304   5.913
 5849POPC   C1A73311  27.267  25.083   6.233
 5849POPC   D2A73312  27.435  25.005   6.673
 5849POPC   C3A73313  27.312  25.257   6.995
 5849POPC   C4A73314  27.295  25.416   7.381
 5849POPC   C1B73315  27.767  25.224   6.331
 5849POPC   C2B73316  27.719  25.455   6.723
 5849POPC   C3B73317  27.774  25.390   7.166
 5849POPC   C4B73318  27.746  25.662   7.518
 5850POPC   NC373319  20.790   6.628   5.370
 5850POPC   PO473320  20.406   7.087   5.413
 5850POPC   GL173321  20.542   6.821   5.818
 5850POPC   GL273322  20.671   6.476   5.817
 5850POPC   C1A73323  20.614   6.620   6.275
 5850POPC   D2A73324  20.699   6.767   6.671
 5850POPC   C3A73325  20.478   6.491   6.972
 5850POPC   C4A73326  20.430   6.235   7.376
 5850POPC   C1B73327  21.028   6.364   6.029
 5850POPC   C2B73328  21.091   6.383   6.442
 5850POPC   C3B73329  20.995   6.380   6.834
 5850POPC   C4B73330  20.916   6.403   7.224
 5851POPC   NC373331   3.988  20.656   5.030
 5851POPC   PO473332   4.343  20.360   5.502
 5851POPC   GL173333   4.477  20.468   5.904
 5851POPC   GL273334   4.604  20.824   5.879
 5851POPC   C1A73335   4.412  20.291   6.317
 5851POPC   D2A73336   4.375  20.485   6.742
 5851POPC   C3A73337   4.046  20.622   7.059
 5851POPC   C4A73338   3.787  20.430   7.426
 5851POPC   C1B73339   4.553  20.800   6.312
 5851POPC   C2B73340   4.697  20.924   6.688
 5851POPC   C3B73341   4.676  20.747   7.059
 5851POPC   C4B73342   4.526  20.356   7.217
 5852POPC   NC373343   2.087  44.937   5.316
 5852POPC   PO473344   1.707  44.413   5.458
 5852POPC   GL173345   1.940  44.600   5.795
 5852POPC   GL273346   2.128  44.893   5.813
 5852POPC   C1A73347   1.785  44.810   6.181
 5852POPC   D2A73348   1.519  44.884   6.539
 5852POPC   C3A73349   1.797  44.760   6.866
 5852POPC   C4A73350   1.816  44.570   7.286
 5852POPC   C1B73351   2.320  44.893   6.219
 5852POPC   C2B73352   2.377  44.836   6.662
 5852POPC   C3B73353   2.246   0.015   7.032
 5852POPC   C4B73354   1.870   0.099   7.235
 5853POPC   NC373355  25.800  44.001   5.568
 5853POPC   PO473356  25.213  43.864   5.155
 5853POPC   GL173357  25.289  43.895   5.610
 5853POPC   GL273358  25.042  43.684   5.764
 5853POPC   C1A73359  25.225  44.097   6.048
 5853POPC   D2A73360  25.080  44.015   6.482
 5853POPC   C3A73361  25.221  44.214   6.881
 5853POPC   C4A73362  25.217  43.990   7.277
 5853POPC   C1B73363  25.412  43.615   6.056
 5853POPC   C2B73364  25.441  43.593   6.503
 5853POPC   C3B73365  25.216  43.633   6.890
 5853POPC   C4B73366  25.463  43.544   7.264
 5854POPC   NC373367  25.125  18.660   5.295
 5854POPC   PO473368  25.055  18.068   5.384
 5854POPC   GL173369  25.363  18.111   5.718
 5854POPC   GL273370  25.455  18.458   5.726
 5854POPC   C1A73371  25.361  18.028   6.172
 5854POPC   D2A73372  25.464  18.234   6.587
 5854POPC   C3A73373  25.262  18.027   6.974
 5854POPC   C4A73374  25.134  18.076   7.445
 5854POPC   C1B73375  25.536  18.547   6.149
 5854POPC   C2B73376  25.553  18.815   6.513
 5854POPC   C3B73377  25.457  18.899   6.934
 5854POPC   C4B73378  25.702  18.784   7.313
 5855POPC   NC373379  37.824  27.358   5.504
 5855POPC   PO473380  37.387  27.788   5.509
 5855POPC   GL173381  37.278  27.708   5.896
 5855POPC   GL273382  37.417  27.416   6.026
 5855POPC   C1A73383  37.271  27.886   6.275
 5855POPC   D2A73384  37.498  27.695   6.530
 5855POPC   C3A73385  37.330  27.706   6.882
 5855POPC   C4A73386  37.528  27.491   7.199
 5855POPC   C1B73387  37.816  27.356   6.303
 5855POPC   C2B73388  38.017  27.395   6.734
 5855POPC   C3B73389  38.041  27.433   7.196
 5855POPC   C4B73390  38.179  27.214   7.592
 5856POPC   NC373391  19.490   8.741   5.549
 5856POPC   PO473392  18.850   8.801   5.612
 5856POPC   GL173393  19.180   8.883   5.938
 5856POPC   GL273394  19.122   9.248   5.993
 5856POPC   C1A73395  19.264   8.786   6.397
 5856POPC   D2A73396  18.983   8.949   6.755
 5856POPC   C3A73397  19.192   9.184   7.066
 5856POPC   C4A73398  19.231   8.784   7.246
 5856POPC   C1B73399  18.832   9.038   6.275
 5856POPC   C2B73400  18.488   9.141   6.553
 5856POPC   C3B73401  18.394   9.155   6.992
 5856POPC   C4B73402  18.738   9.062   7.260
 5857POPC   NC373403  23.005  44.132   5.365
 5857POPC   PO473404  23.070  44.776   5.382
 5857POPC   GL173405  23.219  44.572   5.780
 5857POPC   GL273406  23.514  44.778   5.874
 5857POPC   C1A73407  23.153  44.557   6.256
 5857POPC   D2A73408  22.943  44.419   6.650
 5857POPC   C3A73409  23.111  44.536   7.038
 5857POPC   C4A73410  22.946  44.334   7.386
 5857POPC   C1B73411  23.513  44.946   6.299
 5857POPC   C2B73412  23.351  44.897   6.741
 5857POPC   C3B73413  23.218   0.109   7.134
 5857POPC   C4B73414  22.776   0.159   7.358
 5858POPC   NC373415  44.947  43.402   5.258
 5858POPC   PO473416   0.146  42.779   5.255
 5858POPC   GL173417  44.964  43.052   5.630
 5858POPC   GL273418  44.631  43.211   5.630
 5858POPC   C1A73419  44.965  43.219   6.064
 5858POPC   D2A73420  44.773  43.248   6.462
 5858POPC   C3A73421  44.815  43.327   6.896
 5858POPC   C4A73422  44.716  43.156   7.289
 5858POPC   C1B73423  44.439  43.178   6.088
 5858POPC   C2B73424  44.273  43.300   6.524
 5858POPC   C3B73425  44.317  43.238   6.965
 5858POPC   C4B73426  44.269  43.430   7.413
 5859POPC   NC373427  11.686  24.937   5.460
 5859POPC   PO473428  11.564  25.506   5.188
 5859POPC   GL173429  11.543  25.375   5.662
 5859POPC   GL273430  11.572  25.703   5.710
 5859POPC   C1A73431  11.386  25.095   6.071
 5859POPC   D2A73432  11.383  24.928   6.506
 5859POPC   C3A73433  11.103  25.096   6.835
 5859POPC   C4A73434  10.887  25.337   7.161
 5859POPC   C1B73435  11.406  25.601   6.100
 5859POPC   C2B73436  11.271  25.451   6.483
 5859POPC   C3B73437  11.316  25.548   6.924
 5859POPC   C4B73438  11.229  25.803   7.261
 5860POPC   NC373439  20.470   5.681   5.369
 5860POPC   PO473440  20.361   6.375   5.421
 5860POPC   GL173441  20.277   6.164   5.828
 5860POPC   GL273442  20.367   5.848   5.826
 5860POPC   C1A73443  20.554   6.095   6.225
 5860POPC   D2A73444  20.813   5.968   6.584
 5860POPC   C3A73445  20.650   6.004   6.992
 5860POPC   C4A73446  20.843   5.957   7.429
 5860POPC   C1B73447  20.341   5.596   6.192
 5860POPC   C2B73448  20.355   5.744   6.603
 5860POPC   C3B73449  20.349   5.570   6.993
 5860POPC   C4B73450  20.424   5.691   7.404
 5861POPC   NC373451  43.229   3.403   5.583
 5861POPC   PO473452  42.766   3.742   5.373
 5861POPC   GL173453  42.823   3.573   5.837
 5861POPC   GL273454  42.590   3.330   5.957
 5861POPC   C1A73455  43.112   3.567   6.237
 5861POPC   D2A73456  43.424   3.455   6.590
 5861POPC   C3A73457  43.367   3.663   7.012
 5861POPC   C4A73458  43.252   3.671   7.475
 5861POPC   C1B73459  42.763   3.185   6.346
 5861POPC   C2B73460  42.920   3.399   6.716
 5861POPC   C3B73461  42.891   3.456   7.148
 5861POPC   C4B73462  42.855   3.043   7.286
 5862POPC   NC373463  24.807  36.304   5.369
 5862POPC   PO473464  25.399  36.006   5.511
 5862POPC   GL173465  25.050  35.977   5.846
 5862POPC   GL273466  24.857  36.301   5.887
 5862POPC   C1A73467  25.020  36.041   6.319
 5862POPC   D2A73468  25.057  35.899   6.770
 5862POPC   C3A73469  25.360  35.971   7.117
 5862POPC   C4A73470  25.223  36.171   7.511
 5862POPC   C1B73471  24.781  36.550   6.294
 5862POPC   C2B73472  24.844  36.584   6.754
 5862POPC   C3B73473  24.991  36.360   7.075
 5862POPC   C4B73474  25.404  36.482   7.156
 5863POPC   NC373475  35.776   7.883   5.396
 5863POPC   PO473476  35.457   8.506   5.330
 5863POPC   GL173477  35.445   8.176   5.656
 5863POPC   GL273478  35.708   8.336   5.819
 5863POPC   C1A73479  35.282   8.172   6.098
 5863POPC   D2A73480  34.955   8.192   6.445
 5863POPC   C3A73481  35.108   8.142   6.868
 5863POPC   C4A73482  35.291   8.270   7.264
 5863POPC   C1B73483  35.807   8.046   6.155
 5863POPC   C2B73484  35.759   8.063   6.577
 5863POPC   C3B73485  35.813   8.254   6.950
 5863POPC   C4B73486  35.749   8.031   7.304
 5864POPC   NC373487   1.889  38.697   5.372
 5864POPC   PO473488   1.673  38.217   5.764
 5864POPC   GL173489   1.780  38.635   5.913
 5864POPC   GL273490   2.146  38.694   5.813
 5864POPC   C1A73491   1.710  38.608   6.360
 5864POPC   D2A73492   1.870  38.269   6.600
 5864POPC   C3A73493   2.009  38.396   6.991
 5864POPC   C4A73494   1.939  38.204   7.382
 5864POPC   C1B73495   2.201  38.546   6.243
 5864POPC   C2B73496   2.187  38.749   6.639
 5864POPC   C3B73497   2.379  38.762   7.040
 5864POPC   C4B73498   2.143  38.663   7.412
 5865POPC   NC373499   2.605  19.586   5.341
 5865POPC   PO473500   2.964  18.889   5.365
 5865POPC   GL173501   2.769  18.928   5.737
 5865POPC   GL273502   2.575  19.164   5.596
 5865POPC   C1A73503   2.722  18.818   6.166
 5865POPC   D2A73504   2.830  19.073   6.543
 5865POPC   C3A73505   2.768  18.874   6.918
 5865POPC   C4A73506   2.544  18.974   7.286
 5865POPC   C1B73507   2.502  19.267   6.036
 5865POPC   C2B73508   2.327  19.083   6.419
 5865POPC   C3B73509   2.362  19.203   6.854
 5865POPC   C4B73510   2.381  19.478   7.213
 5866POPC   NC373511  36.278  37.009   5.498
 5866POPC   PO473512  35.896  36.596   5.236
 5866POPC   GL173513  35.795  36.759   5.711
 5866POPC   GL273514  36.029  37.011   5.924
 5866POPC   C1A73515  35.814  36.642   6.173
 5866POPC   D2A73516  36.035  36.919   6.457
 5866POPC   C3A73517  35.935  36.819   6.887
 5866POPC   C4A73518  36.206  36.765   7.220
 5866POPC   C1B73519  36.013  37.376   6.207
 5866POPC   C2B73520  36.007  37.415   6.673
 5866POPC   C3B73521  36.167  37.261   7.066
 5866POPC   C4B73522  36.294  37.165   7.509
 5867POPC   NC373523  23.385  25.748   5.396
 5867POPC   PO473524  23.089  25.050   5.383
 5867POPC   GL173525  22.948  25.234   5.783
 5867POPC   GL273526  22.833  24.906   5.881
 5867POPC   C1A73527  22.875  25.536   6.154
 5867POPC   D2A73528  22.721  25.634   6.590
 5867POPC   C3A73529  22.633  25.366   6.921
 5867POPC   C4A73530  23.007  25.483   7.117
 5867POPC   C1B73531  23.047  25.060   6.270
 5867POPC   C2B73532  23.037  25.123   6.715
 5867POPC   C3B73533  23.156  25.003   7.119
 5867POPC   C4B73534  23.354  24.753   7.406
 5868POPC   NC373535  11.651   6.264   5.387
 5868POPC   PO473536  12.341   5.962   5.387
 5868POPC   GL173537  12.088   5.958   5.734
 5868POPC   GL273538  12.328   5.686   5.821
 5868POPC   C1A73539  11.858   5.791   6.104
 5868POPC   D2A73540  11.987   5.709   6.551
 5868POPC   C3A73541  11.990   5.889   6.981
 5868POPC   C4A73542  11.955   6.093   7.390
 5868POPC   C1B73543  12.365   5.829   6.211
 5868POPC   C2B73544  12.465   5.880   6.605
 5868POPC   C3B73545  12.510   5.729   6.982
 5868POPC   C4B73546  12.397   5.838   7.385
 5869POPC   NC373547  37.803  41.328   5.204
 5869POPC   PO473548  38.514  41.448   5.331
 5869POPC   GL173549  38.489  41.645   5.699
 5869POPC   GL273550  38.467  41.324   5.886
 5869POPC   C1A73551  38.296  41.793   6.073
 5869POPC   D2A73552  38.083  41.477   6.340
 5869POPC   C3A73553  38.094  41.530   6.797
 5869POPC   C4A73554  38.205  41.688   7.212
 5869POPC   C1B73555  38.743  41.144   6.191
 5869POPC   C2B73556  38.791  41.333   6.597
 5869POPC   C3B73557  38.544  41.325   6.979
 5869POPC   C4B73558  38.664  41.438   7.353
 5870POPC   NC373559  14.972   8.368   5.314
 5870POPC   PO473560  15.217   7.724   5.416
 5870POPC   GL173561  15.105   7.962   5.797
 5870POPC   GL273562  15.134   8.357   5.808
 5870POPC   C1A73563  14.949   8.077   6.205
 5870POPC   D2A73564  14.743   8.308   6.510
 5870POPC   C3A73565  14.782   8.159   6.931
 5870POPC   C4A73566  15.122   7.951   7.108
 5870POPC   C1B73567  15.378   8.340   6.224
 5870POPC   C2B73568  15.230   8.316   6.670
 5870POPC   C3B73569  15.399   8.432   7.080
 5870POPC   C4B73570  15.439   8.504   7.531
 5871POPC   NC373571  15.073  34.223   5.205
 5871POPC   PO473572  15.504  34.707   5.366
 5871POPC   GL173573  15.331  34.719   5.829
 5871POPC   GL273574  15.225  34.349   5.794
 5871POPC   C1A73575  15.282  34.841   6.305
 5871POPC   D2A73576  14.858  34.812   6.551
 5871POPC   C3A73577  14.930  34.634   6.954
 5871POPC   C4A73578  15.247  34.886   7.144
 5871POPC   C1B73579  14.998  34.447   6.190
 5871POPC   C2B73580  15.188  34.382   6.591
 5871POPC   C3B73581  15.421  34.437   6.979
 5871POPC   C4B73582  15.382  34.515   7.452
 5872POPC   NC373583  17.862  35.568   5.399
 5872POPC   PO473584  17.769  34.922   5.250
 5872POPC   GL173585  17.588  35.139   5.694
 5872POPC   GL273586  17.592  35.507   5.826
 5872POPC   C1A73587  17.510  35.142   6.184
 5872POPC   D2A73588  17.358  35.322   6.611
 5872POPC   C3A73589  17.630  35.505   6.938
 5872POPC   C4A73590  17.758  35.240   7.305
 5872POPC   C1B73591  17.531  35.665   6.261
 5872POPC   C2B73592  17.248  35.825   6.618
 5872POPC   C3B73593  17.110  35.614   6.987
 5872POPC   C4B73594  17.237  35.199   7.128
 5873POPC   NC373595  16.011  14.445   5.377
 5873POPC   PO473596  16.624  14.820   5.469
 5873POPC   GL173597  16.282  14.582   5.785
 5873POPC   GL273598  15.864  14.499   5.878
 5873POPC   C1A73599  16.215  14.310   6.154
 5873POPC   D2A73600  15.883  14.404   6.455
 5873POPC   C3A73601  15.904  14.310   6.883
 5873POPC   C4A73602  16.004  14.369   7.308
 5873POPC   C1B73603  15.713  14.105   6.081
 5873POPC   C2B73604  15.446  14.080   6.447
 5873POPC   C3B73605  15.397  14.135   6.886
 5873POPC   C4B73606  15.533  14.197   7.326
 5874POPC   NC373607  11.611  34.398   5.381
 5874POPC   PO473608  12.251  34.584   5.043
 5874POPC   GL173609  12.091  34.583   5.557
 5874POPC   GL273610  11.933  34.270   5.776
 5874POPC   C1A73611  12.046  34.687   6.032
 5874POPC   D2A73612  12.159  34.657   6.464
 5874POPC   C3A73613  12.073  34.783   6.874
 5874POPC   C4A73614  12.326  34.484   7.139
 5874POPC   C1B73615  11.777  34.335   6.248
 5874POPC   C2B73616  11.771  34.367   6.706
 5874POPC   C3B73617  11.791  34.464   7.146
 5874POPC   C4B73618  11.609  34.455   7.546
 5875POPC   NC373619   7.640  16.304   5.476
 5875POPC   PO473620   7.349  16.853   5.184
 5875POPC   GL173621   7.344  16.775   5.702
 5875POPC   GL273622   7.341  16.440   5.878
 5875POPC   C1A73623   7.567  16.857   6.154
 5875POPC   D2A73624   7.715  16.769   6.595
 5875POPC   C3A73625   7.511  16.993   6.971
 5875POPC   C4A73626   7.627  17.204   7.376
 5875POPC   C1B73627   7.104  16.640   6.217
 5875POPC   C2B73628   7.230  16.689   6.622
 5875POPC   C3B73629   7.490  16.469   6.933
 5875POPC   C4B73630   7.467  16.243   7.293
 5876POPC   NC373631   8.339  23.290   5.521
 5876POPC   PO473632   8.233  22.604   5.384
 5876POPC   GL173633   8.148  22.826   5.732
 5876POPC   GL273634   8.494  22.874   5.834
 5876POPC   C1A73635   7.933  22.927   6.111
 5876POPC   D2A73636   8.170  22.976   6.490
 5876POPC   C3A73637   7.936  22.967   6.866
 5876POPC   C4A73638   7.949  22.906   7.302
 5876POPC   C1B73639   8.502  23.190   6.149
 5876POPC   C2B73640   8.614  23.334   6.540
 5876POPC   C3B73641   8.474  23.141   6.882
 5876POPC   C4B73642   8.436  23.045   7.286
 5877POPC   NC373643  26.041  44.781   5.455
 5877POPC   PO473644  26.204  44.107   5.367
 5877POPC   GL173645  26.253  44.361   5.769
 5877POPC   GL273646  26.139  44.708   5.936
 5877POPC   C1A73647  26.124  44.278   6.203
 5877POPC   D2A73648  26.124  44.552   6.555
 5877POPC   C3A73649  25.919  44.397   6.914
 5877POPC   C4A73650  26.046  44.492   7.327
 5877POPC   C1B73651  26.245   0.000   6.282
 5877POPC   C2B73652  26.120   0.067   6.721
 5877POPC   C3B73653  25.906  44.971   7.121
 5877POPC   C4B73654  26.053  44.939   7.557
 5878POPC   NC373655  34.032  38.957   5.637
 5878POPC   PO473656  33.618  39.515   5.362
 5878POPC   GL173657  33.700  39.386   5.768
 5878POPC   GL273658  34.006  39.462   5.872
 5878POPC   C1A73659  33.686  39.268   6.214
 5878POPC   D2A73660  33.824  39.357   6.634
 5878POPC   C3A73661  33.635  39.058   6.933
 5878POPC   C4A73662  33.449  39.274   7.255
 5878POPC   C1B73663  34.128  39.643   6.280
 5878POPC   C2B73664  34.186  39.771   6.710
 5878POPC   C3B73665  34.090  39.547   7.067
 5878POPC   C4B73666  34.032  39.127   7.275
 5879POPC   NC373667  13.397  37.261   5.414
 5879POPC   PO473668  13.857  36.808   5.187
 5879POPC   GL173669  13.698  36.852   5.635
 5879POPC   GL273670  13.947  37.021   5.778
 5879POPC   C1A73671  13.414  36.911   6.046
 5879POPC   D2A73672  13.402  37.103   6.492
 5879POPC   C3A73673  13.351  36.869   6.909
 5879POPC   C4A73674  13.441  37.023   7.317
 5879POPC   C1B73675  13.856  37.111   6.195
 5879POPC   C2B73676  13.891  36.971   6.586
 5879POPC   C3B73677  13.796  37.101   6.963
 5879POPC   C4B73678  13.947  36.862   7.329
 5880POPC   NC373679  25.516  41.781   5.427
 5880POPC   PO473680  24.916  41.496   5.547
 5880POPC   GL173681  25.101  41.860   5.824
 5880POPC   GL273682  25.460  41.941   5.907
 5880POPC   C1A73683  25.116  41.905   6.287
 5880POPC   D2A73684  25.247  41.782   6.719
 5880POPC   C3A73685  25.209  41.371   6.895
 5880POPC   C4A73686  25.142  41.510   7.293
 5880POPC   C1B73687  25.713  41.659   6.204
 5880POPC   C2B73688  25.696  41.517   6.664
 5880POPC   C3B73689  25.656  41.513   7.135
 5880POPC   C4B73690  25.548  41.276   7.513
 5881POPC   NC373691  10.198  11.094   5.396
 5881POPC   PO473692  10.877  10.953   5.587
 5881POPC   GL173693  10.502  11.065   5.808
 5881POPC   GL273694  10.377  11.408   5.858
 5881POPC   C1A73695  10.420  11.052   6.235
 5881POPC   D2A73696  10.761  11.130   6.544
 5881POPC   C3A73697  10.583  11.046   6.947
 5881POPC   C4A73698  10.679  11.227   7.351
 5881POPC   C1B73699  10.500  11.560   6.262
 5881POPC   C2B73700  10.339  11.381   6.641
 5881POPC   C3B73701  10.427  11.522   7.028
 5881POPC   C4B73702  10.294  11.674   7.391
 5882POPC   NC373703  37.222  40.878   5.424
 5882POPC   PO473704  36.608  41.019   5.681
 5882POPC   GL173705  36.938  40.793   5.867
 5882POPC   GL273706  37.250  40.987   5.935
 5882POPC   C1A73707  36.923  40.756   6.327
 5882POPC   D2A73708  36.892  41.019   6.722
 5882POPC   C3A73709  36.709  40.763   7.072
 5882POPC   C4A73710  36.694  40.563   7.485
 5882POPC   C1B73711  37.433  40.845   6.331
 5882POPC   C2B73712  37.347  40.423   6.520
 5882POPC   C3B73713  37.368  40.343   6.944
 5882POPC   C4B73714  37.219  40.739   7.203
 5883POPC   NC373715   5.347   3.119   5.407
 5883POPC   PO473716   5.279   3.831   5.395
 5883POPC   GL173717   5.260   3.712   5.836
 5883POPC   GL273718   5.412   3.422   5.824
 5883POPC   C1A73719   5.054   3.475   6.205
 5883POPC   D2A73720   4.934   3.631   6.609
 5883POPC   C3A73721   4.774   3.405   6.965
 5883POPC   C4A73722   4.793   3.357   7.404
 5883POPC   C1B73723   5.566   3.390   6.225
 5883POPC   C2B73724   5.373   3.360   6.643
 5883POPC   C3B73725   5.271   3.497   7.066
 5883POPC   C4B73726   5.285   3.249   7.457
 5884POPC   NC373727  29.688  12.759   5.581
 5884POPC   PO473728  30.371  12.680   5.425
 5884POPC   GL173729  30.164  12.686   5.810
 5884POPC   GL273730  30.118  13.039   5.745
 5884POPC   C1A73731  29.905  12.663   6.194
 5884POPC   D2A73732  29.661  12.659   6.572
 5884POPC   C3A73733  29.893  12.802   6.914
 5884POPC   C4A73734  29.918  12.536   7.256
 5884POPC   C1B73735  30.180  13.088   6.180
 5884POPC   C2B73736  30.290  12.993   6.590
 5884POPC   C3B73737  30.425  12.825   6.964
 5884POPC   C4B73738  30.199  12.968   7.304
 5885POPC   NC373739  27.201  17.854   5.108
 5885POPC   PO473740  27.278  17.234   5.375
 5885POPC   GL173741  27.418  17.438   5.755
 5885POPC   GL273742  27.620  17.769   5.795
 5885POPC   C1A73743  27.561  17.403   6.154
 5885POPC   D2A73744  27.688  17.522   6.532
 5885POPC   C3A73745  27.326  17.651   6.742
 5885POPC   C4A73746  27.361  17.616   7.195
 5885POPC   C1B73747  27.448  17.898   6.221
 5885POPC   C2B73748  27.680  18.051   6.587
 5885POPC   C3B73749  27.800  18.012   7.024
 5885POPC   C4B73750  27.602  18.125   7.424
 5886POPC   NC373751  32.994  19.983   5.396
 5886POPC   PO473752  32.955  19.330   5.409
 5886POPC   GL173753  32.869  19.603   5.732
 5886POPC   GL273754  33.194  19.713   5.759
 5886POPC   C1A73755  32.934  19.701   6.177
 5886POPC   D2A73756  32.909  19.962   6.528
 5886POPC   C3A73757  32.876  19.752   6.926
 5886POPC   C4A73758  32.973  19.539   7.290
 5886POPC   C1B73759  33.420  19.963   6.083
 5886POPC   C2B73760  33.386  20.190   6.494
 5886POPC   C3B73761  33.266  20.089   6.901
 5886POPC   C4B73762  33.413  19.846   7.242
 5887POPC   NC373763  32.238  30.252   5.371
 5887POPC   PO473764  32.160  29.556   5.377
 5887POPC   GL173765  32.338  29.706   5.766
 5887POPC   GL273766  32.286  30.062   5.845
 5887POPC   C1A73767  32.160  29.681   6.194
 5887POPC   D2A73768  32.165  29.890   6.582
 5887POPC   C3A73769  32.290  29.727   6.948
 5887POPC   C4A73770  32.475  29.908   7.296
 5887POPC   C1B73771  32.227  30.266   6.239
 5887POPC   C2B73772  32.191  30.409   6.653
 5887POPC   C3B73773  32.273  30.321   7.090
 5887POPC   C4B73774  32.149  30.345   7.542
 5888POPC   NC373775  31.206  24.857   5.426
 5888POPC   PO473776  31.489  25.545   5.392
 5888POPC   GL173777  31.295  25.288   5.683
 5888POPC   GL273778  31.596  25.107   5.821
 5888POPC   C1A73779  31.154  25.078   6.075
 5888POPC   D2A73780  31.470  25.096   6.401
 5888POPC   C3A73781  31.354  25.141   6.832
 5888POPC   C4A73782  31.373  25.025   7.279
 5888POPC   C1B73783  31.937  25.031   6.131
 5888POPC   C2B73784  31.939  24.945   6.577
 5888POPC   C3B73785  31.837  25.126   6.975
 5888POPC   C4B73786  31.895  24.894   7.322
 5889POPC   NC373787  37.497  44.044   5.357
 5889POPC   PO473788  38.093  43.847   5.504
 5889POPC   GL173789  37.701  43.779   5.776
 5889POPC   GL273790  37.563  44.102   5.851
 5889POPC   C1A73791  37.450  43.718   6.178
 5889POPC   D2A73792  37.425  43.559   6.618
 5889POPC   C3A73793  37.768  43.637   6.940
 5889POPC   C4A73794  37.704  43.818   7.351
 5889POPC   C1B73795  37.283  44.217   6.161
 5889POPC   C2B73796  37.176  44.029   6.529
 5889POPC   C3B73797  37.384  44.031   6.913
 5889POPC   C4B73798  37.213  43.974   7.290
 5890POPC   NC373799  34.827   7.345   5.440
 5890POPC   PO473800  34.506   7.968   5.368
 5890POPC   GL173801  34.569   7.695   5.780
 5890POPC   GL273802  34.535   7.318   5.848
 5890POPC   C1A73803  34.444   7.576   6.253
 5890POPC   D2A73804  34.436   7.237   6.563
 5890POPC   C3A73805  34.263   7.207   7.011
 5890POPC   C4A73806  34.468   7.466   7.341
 5890POPC   C1B73807  34.896   7.228   6.140
 5890POPC   C2B73808  34.923   7.034   6.553
 5890POPC   C3B73809  34.762   7.116   6.980
 5890POPC   C4B73810  34.866   7.176   7.430
 5891POPC   NC373811   6.696   2.214   5.412
 5891POPC   PO473812   6.738   1.543   5.343
 5891POPC   GL173813   6.671   1.836   5.728
 5891POPC   GL273814   6.318   1.910   5.698
 5891POPC   C1A73815   6.703   2.101   6.122
 5891POPC   D2A73816   6.516   2.115   6.566
 5891POPC   C3A73817   6.727   1.910   6.937
 5891POPC   C4A73818   6.990   2.080   7.236
 5891POPC   C1B73819   6.154   2.032   6.115
 5891POPC   C2B73820   6.107   1.807   6.518
 5891POPC   C3B73821   6.244   1.798   6.938
 5891POPC   C4B73822   6.400   1.971   7.341
 5892POPC   NC373823  25.006   2.145   5.525
 5892POPC   PO473824  25.596   1.779   5.441
 5892POPC   GL173825  25.351   1.905   5.836
 5892POPC   GL273826  25.026   1.693   5.801
 5892POPC   C1A73827  25.395   2.250   6.191
 5892POPC   D2A73828  25.428   2.346   6.659
 5892POPC   C3A73829  25.448   2.001   6.908
 5892POPC   C4A73830  25.664   1.919   7.305
 5892POPC   C1B73831  24.940   1.931   6.186
 5892POPC   C2B73832  24.837   2.109   6.561
 5892POPC   C3B73833  24.975   2.226   6.927
 5892POPC   C4B73834  25.153   2.108   7.309
 5893POPC   NC373835  36.868   5.630   5.020
 5893POPC   PO473836  36.943   5.047   5.428
 5893POPC   GL173837  36.971   5.240   5.799
 5893POPC   GL273838  36.659   5.340   5.981
 5893POPC   C1A73839  37.087   5.052   6.141
 5893POPC   D2A73840  37.017   4.815   6.508
 5893POPC   C3A73841  37.067   5.012   6.900
 5893POPC   C4A73842  37.033   4.877   7.299
 5893POPC   C1B73843  36.713   5.241   6.420
 5893POPC   C2B73844  36.594   4.991   6.764
 5893POPC   C3B73845  36.566   5.062   7.179
 5893POPC   C4B73846  36.481   5.491   7.242
 5894POPC   NC373847  32.069   4.562   5.216
 5894POPC   PO473848  32.273   3.992   5.494
 5894POPC   GL173849  32.240   4.174   5.856
 5894POPC   GL273850  32.338   4.472   5.686
 5894POPC   C1A73851  32.086   4.135   6.284
 5894POPC   D2A73852  31.868   4.181   6.692
 5894POPC   C3A73853  32.086   4.067   7.050
 5894POPC   C4A73854  32.425   4.144   7.289
 5894POPC   C1B73855  32.150   4.617   6.094
 5894POPC   C2B73856  32.123   4.609   6.538
 5894POPC   C3B73857  32.363   4.498   6.908
 5894POPC   C4B73858  32.260   4.667   7.306
 5895POPC   NC373859  22.335  22.258   5.448
 5895POPC   PO473860  21.647  22.120   5.444
 5895POPC   GL173861  21.931  22.167   5.809
 5895POPC   GL273862  22.225  22.402   5.900
 5895POPC   C1A73863  21.923  22.216   6.247
 5895POPC   D2A73864  21.949  21.964   6.571
 5895POPC   C3A73865  22.045  22.255   6.886
 5895POPC   C4A73866  21.934  22.190   7.310
 5895POPC   C1B73867  22.556  22.478   6.176
 5895POPC   C2B73868  22.457  22.381   6.579
 5895POPC   C3B73869  22.515  22.501   6.994
 5895POPC   C4B73870  22.433  22.163   7.240
 5896POPC   NC373871  26.130  22.480   5.564
 5896POPC   PO473872  26.392  23.131   5.528
 5896POPC   GL173873  26.202  22.927   5.874
 5896POPC   GL273874  25.823  23.002   5.883
 5896POPC   C1A73875  26.126  23.083   6.300
 5896POPC   D2A73876  26.043  23.097   6.746
 5896POPC   C3A73877  26.312  22.961   7.082
 5896POPC   C4A73878  26.145  22.807   7.459
 5896POPC   C1B73879  25.873  22.653   6.188
 5896POPC   C2B73880  26.007  22.576   6.639
 5896POPC   C3B73881  25.828  22.713   7.044
 5896POPC   C4B73882  25.453  22.670   7.268
 5897POPC   NC373883   3.688  32.653   5.400
 5897POPC   PO473884   3.391  32.075   5.268
 5897POPC   GL173885   3.326  32.248   5.697
 5897POPC   GL273886   3.156  31.953   5.859
 5897POPC   C1A73887   3.520  32.448   6.102
 5897POPC   D2A73888   3.502  32.645   6.551
 5897POPC   C3A73889   3.681  32.425   6.905
 5897POPC   C4A73890   3.673  32.009   7.078
 5897POPC   C1B73891   3.143  32.139   6.291
 5897POPC   C2B73892   3.258  32.129   6.747
 5897POPC   C3B73893   3.221  32.237   7.189
 5897POPC   C4B73894   3.219  32.258   7.641
 5898POPC   NC373895  22.517  12.742   5.244
 5898POPC   PO473896  22.097  13.236   5.169
 5898POPC   GL173897  22.197  12.999   5.574
 5898POPC   GL273898  22.271  13.232   5.825
 5898POPC   C1A73899  22.122  12.765   5.997
 5898POPC   D2A73900  21.987  12.753   6.469
 5898POPC   C3A73901  22.091  12.749   6.937
 5898POPC   C4A73902  21.873  12.701   7.352
 5898POPC   C1B73903  22.135  13.225   6.266
 5898POPC   C2B73904  22.353  13.081   6.653
 5898POPC   C3B73905  22.330  13.154   7.114
 5898POPC   C4B73906  22.269  12.995   7.540
 5899POPC   NC373907  33.054  37.445   5.471
 5899POPC   PO473908  33.546  37.878   5.365
 5899POPC   GL173909  33.187  37.903   5.702
 5899POPC   GL273910  32.784  37.825   5.688
 5899POPC   C1A73911  33.079  37.716   6.110
 5899POPC   D2A73912  33.235  37.486   6.456
 5899POPC   C3A73913  33.141  37.672   6.840
 5899POPC   C4A73914  33.021  37.566   7.246
 5899POPC   C1B73915  32.588  37.878   6.106
 5899POPC   C2B73916  32.767  37.888   6.542
 5899POPC   C3B73917  32.673  37.848   7.015
 5899POPC   C4B73918  32.877  37.994   7.444
 5900POPC   NC373919  42.404  21.912   5.435
 5900POPC   PO473920  42.668  22.573   5.494
 5900POPC   GL173921  42.381  22.329   5.747
 5900POPC   GL273922  42.583  22.074   5.911
 5900POPC   C1A73923  42.144  22.214   6.142
 5900POPC   D2A73924  42.273  22.275   6.585
 5900POPC   C3A73925  42.107  21.979   6.902
 5900POPC   C4A73926  42.437  21.891   7.149
 5900POPC   C1B73927  42.605  22.446   6.214
 5900POPC   C2B73928  42.840  22.515   6.600
 5900POPC   C3B73929  42.733  22.370   7.018
 5900POPC   C4B73930  42.319  22.386   7.139
 5901POPC   NC373931  23.693   6.280   5.340
 5901POPC   PO473932  23.962   6.921   5.378
 5901POPC   GL173933  23.706   6.681   5.721
 5901POPC   GL273934  23.527   6.336   5.802
 5901POPC   C1A73935  23.775   6.601   6.159
 5901POPC   D2A73936  23.953   6.422   6.540
 5901POPC   C3A73937  23.899   6.649   6.899
 5901POPC   C4A73938  23.755   6.548   7.298
 5901POPC   C1B73939  23.315   6.360   6.170
 5901POPC   C2B73940  23.411   6.568   6.519
 5901POPC   C3B73941  23.410   6.508   6.916
 5901POPC   C4B73942  23.350   6.857   7.158
 5902POPC   NC373943  22.903  28.750   5.318
 5902POPC   PO473944  23.131  28.102   5.182
 5902POPC   GL173945  23.014  28.091   5.663
 5902POPC   GL273946  22.822  28.395   5.740
 5902POPC   C1A73947  23.200  28.227   6.100
 5902POPC   D2A73948  23.243  28.588   6.428
 5902POPC   C3A73949  23.207  28.481   6.897
 5902POPC   C4A73950  23.087  28.117   7.139
 5902POPC   C1B73951  22.755  28.494   6.205
 5902POPC   C2B73952  22.716  28.582   6.680
 5902POPC   C3B73953  22.684  28.457   7.137
 5902POPC   C4B73954  22.678  28.263   7.546
 5903POPC   NC373955  42.060  35.546   5.418
 5903POPC   PO473956  42.340  34.991   5.229
 5903POPC   GL173957  42.422  35.160   5.657
 5903POPC   GL273958  42.487  35.540   5.701
 5903POPC   C1A73959  42.215  35.186   6.071
 5903POPC   D2A73960  42.108  35.073   6.500
 5903POPC   C3A73961  42.333  35.126   6.871
 5903POPC   C4A73962  42.138  35.215   7.272
 5903POPC   C1B73963  42.427  35.638   6.151
 5903POPC   C2B73964  42.380  35.621   6.606
 5903POPC   C3B73965  42.642  35.512   6.947
 5903POPC   C4B73966  42.638  35.257   7.326
 5904POPC   NC373967  13.295  33.193   5.418
 5904POPC   PO473968  13.891  32.828   5.507
 5904POPC   GL173969  13.669  33.065   5.789
 5904POPC   GL273970  13.421  32.862   5.872
 5904POPC   C1A73971  13.777  33.166   6.208
 5904POPC   D2A73972  13.671  32.989   6.593
 5904POPC   C3A73973  13.773  33.190   6.976
 5904POPC   C4A73974  13.763  32.989   7.380
 5904POPC   C1B73975  13.295  33.000   6.233
 5904POPC   C2B73976  13.083  32.992   6.603
 5904POPC   C3B73977  13.278  33.040   6.980
 5904POPC   C4B73978  13.337  33.403   7.189
 5905POPC   NC373979  41.557  10.946   5.153
 5905POPC   PO473980  41.778  10.306   5.359
 5905POPC   GL173981  41.617  10.601   5.661
 5905POPC   GL273982  41.544  10.316   5.832
 5905POPC   C1A73983  41.789  10.689   6.104
 5905POPC   D2A73984  41.670  10.788   6.542
 5905POPC   C3A73985  41.852  10.644   6.945
 5905POPC   C4A73986  41.744  10.885   7.295
 5905POPC   C1B73987  41.337  10.296   6.195
 5905POPC   C2B73988  41.352  10.366   6.603
 5905POPC   C3B73989  41.066  10.375   6.909
 5905POPC   C4B73990  41.304  10.258   7.233
 5906POPC   NC373991  18.185  34.258   5.522
 5906POPC   PO473992  17.961  34.769   5.741
 5906POPC   GL173993  18.403  34.726   5.885
 5906POPC   GL273994  18.614  34.464   5.771
 5906POPC   C1A73995  18.560  34.729   6.280
 5906POPC   D2A73996  18.307  34.844   6.592
 5906POPC   C3A73997  18.522  34.841   6.925
 5906POPC   C4A73998  18.424  34.601   7.244
 5906POPC   C1B73999  18.403  34.258   6.141
 5906POPC   C2B74000  18.220  34.330   6.552
 5906POPC   C3B74001  18.118  34.258   6.992
 5906POPC   C4B74002  18.376  34.089   7.324
 5907POPC   NC374003  33.845  31.400   5.294
 5907POPC   PO474004  33.455  30.843   5.476
 5907POPC   GL174005  33.556  31.282   5.750
 5907POPC   GL274006  33.907  31.468   5.777
 5907POPC   C1A74007  33.604  31.573   6.153
 5907POPC   D2A74008  33.837  31.530   6.540
 5907POPC   C3A74009  33.687  31.490   6.939
 5907POPC   C4A74010  33.599  31.430   7.371
 5907POPC   C1B74011  34.072  31.276   6.150
 5907POPC   C2B74012  34.229  31.078   6.517
 5907POPC   C3B74013  34.170  31.253   6.888
 5907POPC   C4B74014  34.064  31.270   7.257
 5908POPC   NC374015   6.305  42.306   5.305
 5908POPC   PO474016   7.001  42.385   5.349
 5908POPC   GL174017   6.690  42.302   5.666
 5908POPC   GL274018   6.806  42.066   5.918
 5908POPC   C1A74019   6.563  42.477   6.089
 5908POPC   D2A74020   6.737  42.623   6.504
 5908POPC   C3A74021   6.575  42.442   6.892
 5908POPC   C4A74022   6.524  42.606   7.282
 5908POPC   C1B74023   7.049  42.361   6.220
 5908POPC   C2B74024   7.048  42.278   6.716
 5908POPC   C3B74025   6.884  42.076   7.109
 5908POPC   C4B74026   7.087  41.978   7.525
 5909POPC   NC374027   1.019   0.486   5.369
 5909POPC   PO474028   1.626   0.712   5.584
 5909POPC   GL174029   1.254   0.567   5.815
 5909POPC   GL274030   1.009   0.824   5.763
 5909POPC   C1A74031   1.131   0.338   6.203
 5909POPC   D2A74032   0.793   0.226   6.500
 5909POPC   C3A74033   0.904   0.185   6.942
 5909POPC   C4A74034   1.346   0.082   7.130
 5909POPC   C1B74035   1.204   0.902   6.186
 5909POPC   C2B74036   1.387   0.950   6.589
 5909POPC   C3B74037   1.190   0.924   6.991
 5909POPC   C4B74038   1.116   0.575   7.150
 5910POPC   NC374039  14.825  44.778   5.433
 5910POPC   PO474040  15.443  44.553   5.471
 5910POPC   GL174041  15.223  44.749   5.802
 5910POPC   GL274042  14.866  44.759   5.934
 5910POPC   C1A74043  15.265  44.819   6.230
 5910POPC   D2A74044  15.078  44.882   6.609
 5910POPC   C3A74045  15.282  44.702   6.937
 5910POPC   C4A74046  15.186  44.741   7.334
 5910POPC   C1B74047  14.620  44.391   6.097
 5910POPC   C2B74048  14.671  44.217   6.492
 5910POPC   C3B74049  14.814  44.488   6.849
 5910POPC   C4B74050  14.711  44.571   7.254
 5911POPC   NC374051  40.279  23.587   5.349
 5911POPC   PO474052  39.780  24.060   5.363
 5911POPC   GL174053  39.955  23.970   5.786
 5911POPC   GL274054  40.282  23.790   5.817
 5911POPC   C1A74055  40.022  23.921   6.254
 5911POPC   D2A74056  40.043  23.599   6.600
 5911POPC   C3A74057  40.100  23.759   7.062
 5911POPC   C4A74058  40.030  23.642   7.540
 5911POPC   C1B74059  40.247  23.430   6.114
 5911POPC   C2B74060  40.485  23.327   6.487
 5911POPC   C3B74061  40.391  23.373   6.907
 5911POPC   C4B74062  40.477  23.519   7.310
 5912POPC   NC374063  28.442  43.777   5.292
 5912POPC   PO474064  28.180  44.328   5.448
 5912POPC   GL174065  28.199  43.916   5.732
 5912POPC   GL274066  28.533  43.745   5.793
 5912POPC   C1A74067  28.209  43.789   6.175
 5912POPC   D2A74068  28.267  44.120   6.481
 5912POPC   C3A74069  28.112  44.055   6.903
 5912POPC   C4A74070  28.315  43.817   7.268
 5912POPC   C1B74071  28.654  44.025   6.145
 5912POPC   C2B74072  28.703  43.871   6.566
 5912POPC   C3B74073  28.778  43.860   6.979
 5912POPC   C4B74074  28.781  44.135   7.304
 5913POPC   NC374075  40.079  34.273   5.501
 5913POPC   PO474076  39.703  33.669   5.435
 5913POPC   GL174077  39.908  33.721   5.866
 5913POPC   GL274078  39.976  34.078   5.965
 5913POPC   C1A74079  40.005  33.496   6.278
 5913POPC   D2A74080  40.218  33.304   6.641
 5913POPC   C3A74081  40.051  33.411   7.076
 5913POPC   C4A74082  39.737  33.733   7.184
 5913POPC   C1B74083  40.063  34.003   6.404
 5913POPC   C2B74084  40.054  33.999   6.847
 5913POPC   C3B74085  40.282  34.048   7.211
 5913POPC   C4B74086  40.212  34.140   7.631
 5914POPC   NC374087  18.443  44.283   5.372
 5914POPC   PO474088  18.469  43.621   5.342
 5914POPC   GL174089  18.229  43.729   5.721
 5914POPC   GL274090  18.102  44.102   5.731
 5914POPC   C1A74091  18.352  43.793   6.158
 5914POPC   D2A74092  18.330  43.572   6.573
 5914POPC   C3A74093  18.428  43.740   6.975
 5914POPC   C4A74094  18.300  43.761   7.400
 5914POPC   C1B74095  17.879  43.979   6.110
 5914POPC   C2B74096  18.073  44.033   6.507
 5914POPC   C3B74097  17.953  43.941   6.877
 5914POPC   C4B74098  17.907  44.063   7.292
 5915POPC   NC374099  35.113  44.389   5.480
 5915POPC   PO474100  35.774  44.513   5.378
 5915POPC   GL174101  35.495  44.663   5.737
 5915POPC   GL274102  35.224  44.912   5.675
 5915POPC   C1A74103  35.359  44.618   6.192
 5915POPC   D2A74104  35.305  44.409   6.606
 5915POPC   C3A74105  35.426  44.587   7.022
 5915POPC   C4A74106  35.398  44.645   7.480
 5915POPC   C1B74107  34.966  44.951   6.079
 5915POPC   C2B74108  34.941  44.768   6.500
 5915POPC   C3B74109  35.027  44.890   6.908
 5915POPC   C4B74110  35.176   0.048   7.321
 5916POPC   NC374111  11.122  15.683   5.453
 5916POPC   PO474112  10.450  15.898   5.443
 5916POPC   GL174113  10.592  16.064   5.826
 5916POPC   GL274114  10.469  15.743   5.974
 5916POPC   C1A74115  10.485  16.163   6.264
 5916POPC   D2A74116  10.229  15.844   6.438
 5916POPC   C3A74117  10.319  15.755   6.851
 5916POPC   C4A74118  10.332  16.050   7.158
 5916POPC   C1B74119  10.841  15.803   6.264
 5916POPC   C2B74120  10.838  15.840   6.731
 5916POPC   C3B74121  10.819  15.843   7.186
 5916POPC   C4B74122  10.972  15.801   7.658
 5917POPC   NC374123  33.192   6.822   5.321
 5917POPC   PO474124  32.679   6.497   5.557
 5917POPC   GL174125  33.048   6.596   5.773
 5917POPC   GL274126  33.285   6.367   5.700
 5917POPC   C1A74127  33.163   6.744   6.178
 5917POPC   D2A74128  32.956   6.658   6.553
 5917POPC   C3A74129  33.140   6.759   6.924
 5917POPC   C4A74130  32.947   6.654   7.293
 5917POPC   C1B74131  33.389   6.278   6.123
 5917POPC   C2B74132  33.427   6.437   6.540
 5917POPC   C3B74133  33.295   6.270   6.942
 5917POPC   C4B74134  33.226   6.214   7.363
 5918POPC   NC374135  32.731   0.256   5.474
 5918POPC   PO474136  33.434   0.463   5.427
 5918POPC   GL174137  33.135   0.448   5.749
 5918POPC   GL274138  32.987   0.150   5.914
 5918POPC   C1A74139  33.223   0.558   6.142
 5918POPC   D2A74140  33.163   0.277   6.451
 5918POPC   C3A74141  33.188   0.528   6.781
 5918POPC   C4A74142  33.249   0.451   7.179
 5918POPC   C1B74143  32.736   0.416   6.168
 5918POPC   C2B74144  32.679   0.625   6.547
 5918POPC   C3B74145  32.737   0.713   6.972
 5918POPC   C4B74146  32.760   0.402   7.262
 5919POPC   NC374147  26.144  24.999   5.381
 5919POPC   PO474148  25.837  25.584   5.204
 5919POPC   GL174149  26.127  25.467   5.629
 5919POPC   GL274150  26.019  25.187   5.855
 5919POPC   C1A74151  26.399  25.481   6.072
 5919POPC   D2A74152  26.503  25.305   6.533
 5919POPC   C3A74153  26.366  25.144   6.974
 5919POPC   C4A74154  26.450  25.235   7.465
 5919POPC   C1B74155  25.995  25.306   6.311
 5919POPC   C2B74156  25.726  25.194   6.620
 5919POPC   C3B74157  25.782  25.070   7.008
 5919POPC   C4B74158  25.995  25.286   7.288
 5920POPC   NC374159  39.434  17.056   5.447
 5920POPC   PO474160  39.070  16.519   5.255
 5920POPC   GL174161  39.134  16.708   5.696
 5920POPC   GL274162  39.462  16.635   5.799
 5920POPC   C1A74163  39.167  16.801   6.182
 5920POPC   D2A74164  39.038  16.648   6.631
 5920POPC   C3A74165  39.095  16.891   7.032
 5920POPC   C4A74166  39.392  16.940   7.363
 5920POPC   C1B74167  39.447  16.367   6.198
 5920POPC   C2B74168  39.432  16.329   6.689
 5920POPC   C3B74169  39.383  16.463   7.142
 5920POPC   C4B74170  39.378  16.413   7.600
 5921POPC   NC374171  43.679  34.820   5.529
 5921POPC   PO474172  44.222  34.443   5.385
 5921POPC   GL174173  44.094  34.708   5.772
 5921POPC   GL274174  43.883  34.418   5.796
 5921POPC   C1A74175  43.862  34.792   6.162
 5921POPC   D2A74176  43.870  34.562   6.527
 5921POPC   C3A74177  43.881  34.736   6.968
 5921POPC   C4A74178  43.593  34.705   7.327
 5921POPC   C1B74179  44.107  34.218   6.111
 5921POPC   C2B74180  44.117  34.103   6.531
 5921POPC   C3B74181  43.881  34.217   6.890
 5921POPC   C4B74182  44.008  34.294   7.265
 5922POPC   NC374183  38.465   3.908   5.472
 5922POPC   PO474184  38.809   4.458   5.412
 5922POPC   GL174185  38.789   4.220   5.798
 5922POPC   GL274186  38.444   4.138   5.906
 5922POPC   C1A74187  38.773   4.341   6.245
 5922POPC   D2A74188  38.660   4.217   6.653
 5922POPC   C3A74189  38.750   4.339   7.115
 5922POPC   C4A74190  38.947   4.523   7.503
 5922POPC   C1B74191  38.277   4.268   6.270
 5922POPC   C2B74192  38.195   4.444   6.644
 5922POPC   C3B74193  38.290   4.159   6.987
 5922POPC   C4B74194  38.124   3.955   7.301
 5923POPC   NC374195  42.824   0.225   5.389
 5923POPC   PO474196  43.476   0.419   5.302
 5923POPC   GL174197  43.228   0.420   5.687
 5923POPC   GL274198  43.273   0.755   5.800
 5923POPC   C1A74199  43.134   0.389   6.149
 5923POPC   D2A74200  43.025   0.139   6.513
 5923POPC   C3A74201  43.114   0.363   6.895
 5923POPC   C4A74202  42.878   0.361   7.256
 5923POPC   C1B74203  43.407   0.838   6.238
 5923POPC   C2B74204  43.434   0.706   6.677
 5923POPC   C3B74205  43.348   0.797   7.106
 5923POPC   C4B74206  43.363   0.760   7.562
 5924POPC   NC374207  26.606  37.713   5.158
 5924POPC   PO474208  27.079  38.063   5.370
 5924POPC   GL174209  26.933  37.925   5.801
 5924POPC   GL274210  27.057  38.108   6.090
 5924POPC   C1A74211  26.819  37.653   6.190
 5924POPC   D2A74212  27.045  37.400   6.492
 5924POPC   C3A74213  27.163  37.536   6.902
 5924POPC   C4A74214  27.037  37.382   7.266
 5924POPC   C1B74215  27.099  37.970   6.528
 5924POPC   C2B74216  26.747  37.762   6.732
 5924POPC   C3B74217  26.581  37.585   7.097
 5924POPC   C4B74218  26.723  37.795   7.458
 5925POPC   NC374219   5.554  33.904   5.328
 5925POPC   PO474220   4.950  33.809   5.175
 5925POPC   GL174221   5.137  33.816   5.656
 5925POPC   GL274222   5.429  33.647   5.755
 5925POPC   C1A74223   5.063  33.994   6.112
 5925POPC   D2A74224   4.906  33.754   6.516
 5925POPC   C3A74225   4.984  33.926   6.942
 5925POPC   C4A74226   5.304  33.895   7.223
 5925POPC   C1B74227   5.119  33.503   6.077
 5925POPC   C2B74228   5.180  33.278   6.449
 5925POPC   C3B74229   5.240  33.474   6.846
 5925POPC   C4B74230   4.933  33.497   7.188
 5926POPC   NC374231  29.719  18.573   5.378
 5926POPC   PO474232  30.001  17.892   5.328
 5926POPC   GL174233  29.894  18.149   5.679
 5926POPC   GL274234  29.733  17.957   5.931
 5926POPC   C1A74235  29.896  18.454   6.044
 5926POPC   D2A74236  29.708  18.687   6.414
 5926POPC   C3A74237  29.828  18.579   6.849
 5926POPC   C4A74238  29.867  18.455   7.283
 5926POPC   C1B74239  30.061  17.982   6.211
 5926POPC   C2B74240  30.034  18.140   6.597
 5926POPC   C3B74241  30.143  18.105   7.017
 5926POPC   C4B74242  29.831  17.957   7.295
 5927POPC   NC374243  13.778  35.382   5.296
 5927POPC   PO474244  13.108  35.282   5.359
 5927POPC   GL174245  13.479  35.331   5.708
 5927POPC   GL274246  13.529  34.990   5.877
 5927POPC   C1A74247  13.736  35.402   6.135
 5927POPC   D2A74248  13.867  35.293   6.592
 5927POPC   C3A74249  13.525  35.329   6.865
 5927POPC   C4A74250  13.543  35.647   7.110
 5927POPC   C1B74251  13.319  35.131   6.281
 5927POPC   C2B74252  13.104  35.098   6.698
 5927POPC   C3B74253  13.201  34.977   7.122
 5927POPC   C4B74254  13.527  35.135   7.392
 5928POPC   NC374255  31.411   1.354   5.336
 5928POPC   PO474256  31.926   0.991   5.373
 5928POPC   GL174257  31.768   1.313   5.755
 5928POPC   GL274258  31.377   1.300   5.871
 5928POPC   C1A74259  31.715   1.538   6.208
 5928POPC   D2A74260  31.638   1.761   6.672
 5928POPC   C3A74261  31.736   1.706   7.137
 5928POPC   C4A74262  31.686   1.785   7.608
 5928POPC   C1B74263  31.162   0.976   6.198
 5928POPC   C2B74264  31.003   0.969   6.637
 5928POPC   C3B74265  31.255   0.965   7.035
 5928POPC   C4B74266  31.474   1.255   7.362
 5929POPC   NC374267  31.878  25.294   5.434
 5929POPC   PO474268  32.543  24.998   5.335
 5929POPC   GL174269  32.508  25.231   5.724
 5929POPC   GL274270  32.175  25.371   5.821
 5929POPC   C1A74271  32.433  25.189   6.180
 5929POPC   D2A74272  32.351  25.429   6.504
 5929POPC   C3A74273  32.325  25.189   6.838
 5929POPC   C4A74274  32.419  25.303   7.219
 5929POPC   C1B74275  31.843  25.541   6.107
 5929POPC   C2B74276  31.832  25.478   6.560
 5929POPC   C3B74277  32.055  25.617   6.938
 5929POPC   C4B74278  31.951  25.467   7.348
 5930POPC   NC374279  38.064   1.581   5.401
 5930POPC   PO474280  37.394   1.405   5.409
 5930POPC   GL174281  37.481   1.491   5.850
 5930POPC   GL274282  37.763   1.705   5.779
 5930POPC   C1A74283  37.485   1.392   6.324
 5930POPC   D2A74284  37.551   1.381   6.798
 5930POPC   C3A74285  37.700   1.040   7.106
 5930POPC   C4A74286  37.856   0.717   7.406
 5930POPC   C1B74287  37.979   1.583   6.134
 5930POPC   C2B74288  37.866   1.702   6.540
 5930POPC   C3B74289  37.918   1.752   6.966
 5930POPC   C4B74290  37.705   1.514   7.275
 5931POPC   NC374291  10.123  40.605   5.324
 5931POPC   PO474292  10.490  41.055   5.264
 5931POPC   GL174293  10.506  40.801   5.706
 5931POPC   GL274294  10.790  40.996   5.900
 5931POPC   C1A74295  10.515  40.706   6.178
 5931POPC   D2A74296  10.529  40.962   6.568
 5931POPC   C3A74297  10.316  40.790   6.914
 5931POPC   C4A74298  10.291  40.720   7.326
 5931POPC   C1B74299  11.040  41.063   6.289
 5931POPC   C2B74300  10.985  41.106   6.757
 5931POPC   C3B74301  10.744  41.024   7.148
 5931POPC   C4B74302  10.984  41.030   7.530
 5932POPC   NC374303  27.157  17.856   5.618
 5932POPC   PO474304  27.626  18.150   5.202
 5932POPC   GL174305  27.707  18.268   5.627
 5932POPC   GL274306  27.394  18.273   5.795
 5932POPC   C1A74307  27.802  18.256   6.097
 5932POPC   D2A74308  27.779  18.578   6.424
 5932POPC   C3A74309  27.561  18.502   6.810
 5932POPC   C4A74310  27.705  18.615   7.220
 5932POPC   C1B74311  27.322  18.407   6.231
 5932POPC   C2B74312  27.178  18.163   6.579
 5932POPC   C3B74313  27.282  18.094   6.995
 5932POPC   C4B74314  27.211  18.455   7.174
 5933POPC   NC374315   8.846   1.527   5.467
 5933POPC   PO474316   9.359   1.278   5.415
 5933POPC   GL174317   9.138   1.242   5.793
 5933POPC   GL274318   9.233   1.581   5.845
 5933POPC   C1A74319   8.897   1.165   6.188
 5933POPC   D2A74320   8.705   0.929   6.532
 5933POPC   C3A74321   8.897   1.042   6.915
 5933POPC   C4A74322   8.794   1.351   7.217
 5933POPC   C1B74323   9.391   1.352   6.213
 5933POPC   C2B74324   9.246   1.252   6.584
 5933POPC   C3B74325   9.181   1.493   6.917
 5933POPC   C4B74326   9.325   1.452   7.319
 5934POPC   NC374327   5.595   9.976   5.608
 5934POPC   PO474328   5.985   9.488   5.278
 5934POPC   GL174329   5.925   9.607   5.716
 5934POPC   GL274330   6.099   9.918   5.738
 5934POPC   C1A74331   5.791   9.685   6.181
 5934POPC   D2A74332   5.846   9.905   6.586
 5934POPC   C3A74333   5.878   9.669   6.979
 5934POPC   C4A74334   5.819   9.880   7.375
 5934POPC   C1B74335   6.207   9.989   6.182
 5934POPC   C2B74336   6.320  10.110   6.608
 5934POPC   C3B74337   6.142  10.098   7.000
 5934POPC   C4B74338   6.273  10.108   7.424
 5935POPC   NC374339  20.952  37.047   5.548
 5935POPC   PO474340  20.388  36.665   5.480
 5935POPC   GL174341  20.644  36.729   5.801
 5935POPC   GL274342  20.969  36.535   5.723
 5935POPC   C1A74343  20.608  36.998   6.170
 5935POPC   D2A74344  20.579  36.822   6.570
 5935POPC   C3A74345  20.548  37.024   6.942
 5935POPC   C4A74346  20.534  36.916   7.327
 5935POPC   C1B74347  20.993  36.663   6.181
 5935POPC   C2B74348  21.070  36.801   6.624
 5935POPC   C3B74349  20.993  36.775   7.083
 5935POPC   C4B74350  20.992  36.966   7.534
 5936POPC   NC374351   0.164  39.026   5.477
 5936POPC   PO474352   0.842  39.150   5.498
 5936POPC   GL174353   0.608  39.285   5.908
 5936POPC   GL274354   0.264  39.355   5.895
 5936POPC   C1A74355   0.562  39.406   6.346
 5936POPC   D2A74356   0.826  39.098   6.551
 5936POPC   C3A74357   0.791  39.092   6.988
 5936POPC   C4A74358   0.752  39.327   7.391
 5936POPC   C1B74359   0.325  38.991   6.216
 5936POPC   C2B74360   0.343  39.068   6.698
 5936POPC   C3B74361   0.359  39.381   7.071
 5936POPC   C4B74362   0.242  39.304   7.540
 5937POPC   NC374363   1.426  41.047   5.275
 5937POPC   PO474364   2.055  40.840   5.391
 5937POPC   GL174365   2.075  40.716   5.771
 5937POPC   GL274366   1.748  40.694   5.837
 5937POPC   C1A74367   2.193  40.902   6.144
 5937POPC   D2A74368   2.126  41.086   6.533
 5937POPC   C3A74369   2.262  40.878   6.910
 5937POPC   C4A74370   1.933  40.731   7.211
 5937POPC   C1B74371   1.721  40.771   6.295
 5937POPC   C2B74372   1.760  40.709   6.721
 5937POPC   C3B74373   1.456  40.690   7.071
 5937POPC   C4B74374   1.546  40.683   7.523
 5938POPC   NC374375   3.093   3.130   5.005
 5938POPC   PO474376   2.573   3.498   5.300
 5938POPC   GL174377   2.636   3.517   5.749
 5938POPC   GL274378   2.954   3.339   5.877
 5938POPC   C1A74379   2.536   3.705   6.178
 5938POPC   D2A74380   2.340   3.636   6.601
 5938POPC   C3A74381   2.618   3.563   6.930
 5938POPC   C4A74382   2.711   3.710   7.312
 5938POPC   C1B74383   2.814   3.224   6.294
 5938POPC   C2B74384   2.899   3.155   6.741
 5938POPC   C3B74385   2.825   3.117   7.195
 5938POPC   C4B74386   2.930   3.356   7.605
 5939POPC   NC374387  19.401  11.044   5.340
 5939POPC   PO474388  18.880  11.335   5.547
 5939POPC   GL174389  18.952  11.168   5.890
 5939POPC   GL274390  19.290  11.104   5.839
 5939POPC   C1A74391  19.050  11.354   6.263
 5939POPC   D2A74392  19.178  11.524   6.637
 5939POPC   C3A74393  18.879  11.417   6.930
 5939POPC   C4A74394  19.013  11.427   7.305
 5939POPC   C1B74395  19.289  10.897   6.224
 5939POPC   C2B74396  19.394  11.067   6.598
 5939POPC   C3B74397  19.257  11.076   6.993
 5939POPC   C4B74398  19.134  10.880   7.355
 5940POPC   NC374399  18.084  26.499   5.057
 5940POPC   PO474400  18.339  25.937   5.380
 5940POPC   GL174401  18.293  25.913   5.798
 5940POPC   GL274402  17.913  25.928   5.786
 5940POPC   C1A74403  18.518  25.874   6.209
 5940POPC   D2A74404  18.768  26.084   6.532
 5940POPC   C3A74405  18.566  26.308   6.862
 5940POPC   C4A74406  18.326  26.072   7.155
 5940POPC   C1B74407  18.039  26.103   6.201
 5940POPC   C2B74408  18.164  26.001   6.616
 5940POPC   C3B74409  17.874  25.994   6.926
 5940POPC   C4B74410  17.863  26.174   7.320
 5941POPC   NC374411  27.178  26.597   5.512
 5941POPC   PO474412  26.666  26.101   5.415
 5941POPC   GL174413  26.963  25.993   5.747
 5941POPC   GL274414  26.936  26.292   5.822
 5941POPC   C1A74415  27.049  25.980   6.202
 5941POPC   D2A74416  26.767  25.978   6.567
 5941POPC   C3A74417  26.997  26.060   6.956
 5941POPC   C4A74418  26.787  26.058   7.340
 5941POPC   C1B74419  26.665  26.358   6.176
 5941POPC   C2B74420  26.476  26.440   6.559
 5941POPC   C3B74421  26.494  26.261   6.953
 5941POPC   C4B74422  26.554  26.498   7.324
 5942POPC   NC374423  27.477  19.489   5.339
 5942POPC   PO474424  27.913  19.973   5.526
 5942POPC   GL174425  27.575  19.825   5.808
 5942POPC   GL274426  27.625  20.170   5.940
 5942POPC   C1A74427  27.490  19.535   6.227
 5942POPC   D2A74428  27.477  19.411   6.714
 5942POPC   C3A74429  27.464  19.758   7.016
 5942POPC   C4A74430  27.264  19.917   7.392
 5942POPC   C1B74431  27.913  19.876   6.179
 5942POPC   C2B74432  27.813  19.793   6.565
 5942POPC   C3B74433  27.932  19.571   6.849
 5942POPC   C4B74434  27.969  19.763   7.180
 5943POPC   NC374435  17.566   9.523   5.437
 5943POPC   PO474436  17.561  10.244   5.375
 5943POPC   GL174437  17.466   9.932   5.746
 5943POPC   GL274438  17.737   9.645   5.889
 5943POPC   C1A74439  17.331   9.807   6.170
 5943POPC   D2A74440  17.537   9.589   6.531
 5943POPC   C3A74441  17.311   9.617   6.905
 5943POPC   C4A74442  17.239   9.885   7.269
 5943POPC   C1B74443  17.829   9.997   6.133
 5943POPC   C2B74444  17.607  10.094   6.503
 5943POPC   C3B74445  17.642   9.992   6.927
 5943POPC   C4B74446  17.931   9.934   7.234
 5944POPC   NC374447  43.169  22.554   5.449
 5944POPC   PO474448  42.920  21.856   5.405
 5944POPC   GL174449  43.079  22.126   5.787
 5944POPC   GL274450  42.997  22.492   5.908
 5944POPC   C1A74451  43.060  22.146   6.259
 5944POPC   D2A74452  43.299  22.233   6.646
 5944POPC   C3A74453  43.189  22.141   7.074
 5944POPC   C4A74454  43.244  22.187   7.506
 5944POPC   C1B74455  43.294  22.621   6.272
 5944POPC   C2B74456  43.684  22.556   6.556
 5944POPC   C3B74457  43.676  22.394   6.992
 5944POPC   C4B74458  43.382  22.615   7.260
 5945POPC   NC374459  20.388  10.881   5.360
 5945POPC   PO474460  20.928  10.460   5.309
 5945POPC   GL174461  21.020  10.337   5.770
 5945POPC   GL274462  20.702  10.481   5.871
 5945POPC   C1A74463  20.928  10.281   6.260
 5945POPC   D2A74464  20.674  10.495   6.572
 5945POPC   C3A74465  20.575  10.305   6.974
 5945POPC   C4A74466  20.483  10.643   7.225
 5945POPC   C1B74467  20.434  10.188   6.143
 5945POPC   C2B74468  20.269  10.138   6.567
 5945POPC   C3B74469  20.142  10.011   6.965
 5945POPC   C4B74470  20.120  10.217   7.361
 5946POPC   NC374471  43.859  20.106   5.400
 5946POPC   PO474472  44.090  19.534   5.346
 5946POPC   GL174473  44.076  19.760   5.735
 5946POPC   GL274474  43.772  19.921   5.868
 5946POPC   C1A74475  44.231  19.863   6.147
 5946POPC   D2A74476  44.182  20.028   6.552
 5946POPC   C3A74477  43.897  19.771   6.815
 5946POPC   C4A74478  43.730  19.539   7.172
 5946POPC   C1B74479  43.837  20.209   6.204
 5946POPC   C2B74480  43.655  20.298   6.579
 5946POPC   C3B74481  43.867  20.274   6.922
 5946POPC   C4B74482  43.769  20.035   7.253
 5947POPC   NC374483  29.784  32.152   5.114
 5947POPC   PO474484  29.410  32.589   5.496
 5947POPC   GL174485  29.682  32.325   5.763
 5947POPC   GL274486  29.868  32.072   5.627
 5947POPC   C1A74487  29.934  32.383   6.152
 5947POPC   D2A74488  30.134  32.215   6.548
 5947POPC   C3A74489  30.006  32.401   6.946
 5947POPC   C4A74490  30.129  32.226   7.318
 5947POPC   C1B74491  29.756  31.911   6.050
 5947POPC   C2B74492  29.635  32.081   6.461
 5947POPC   C3B74493  29.750  31.969   6.860
 5947POPC   C4B74494  29.735  31.900   7.282
 5948POPC   NC374495  17.005   0.623   5.426
 5948POPC   PO474496  17.403   0.156   5.353
 5948POPC   GL174497  17.532   0.434   5.758
 5948POPC   GL274498  17.383   0.794   5.809
 5948POPC   C1A74499  17.409   0.440   6.227
 5948POPC   D2A74500  17.175   0.521   6.610
 5948POPC   C3A74501  17.352   0.368   6.977
 5948POPC   C4A74502  17.284   0.615   7.333
 5948POPC   C1B74503  17.745   0.800   6.142
 5948POPC   C2B74504  17.728   0.649   6.609
 5948POPC   C3B74505  17.779   0.691   7.086
 5948POPC   C4B74506  17.757   0.752   7.548
 5949POPC   NC374507  33.635   4.078   5.211
 5949POPC   PO474508  34.010   4.525   5.509
 5949POPC   GL174509  33.745   4.387   5.806
 5949POPC   GL274510  33.629   4.068   5.712
 5949POPC   C1A74511  33.855   4.388   6.231
 5949POPC   D2A74512  34.020   4.133   6.543
 5949POPC   C3A74513  34.162   4.306   6.913
 5949POPC   C4A74514  33.964   4.376   7.331
 5949POPC   C1B74515  33.550   3.960   6.133
 5949POPC   C2B74516  33.494   4.106   6.559
 5949POPC   C3B74517  33.656   4.156   7.011
 5949POPC   C4B74518  33.532   4.114   7.492
 5950POPC   NC374519  26.728   2.810   5.214
 5950POPC   PO474520  27.157   2.310   5.363
 5950POPC   GL174521  26.983   2.651   5.661
 5950POPC   GL274522  27.266   2.595   5.842
 5950POPC   C1A74523  26.794   2.873   6.070
 5950POPC   D2A74524  26.800   2.863   6.523
 5950POPC   C3A74525  27.035   2.994   6.891
 5950POPC   C4A74526  26.832   2.911   7.261
 5950POPC   C1B74527  26.984   2.416   6.144
 5950POPC   C2B74528  27.132   2.451   6.547
 5950POPC   C3B74529  26.960   2.480   6.911
 5950POPC   C4B74530  27.173   2.555   7.255
 5951POPC   NC374531  26.987  35.006   5.424
 5951POPC   PO474532  26.730  34.406   5.241
 5951POPC   GL174533  26.732  34.431   5.699
 5951POPC   GL274534  26.524  34.153   5.775
 5951POPC   C1A74535  26.769  34.577   6.157
 5951POPC   D2A74536  26.953  34.651   6.561
 5951POPC   C3A74537  26.769  34.620   6.954
 5951POPC   C4A74538  27.076  34.589   7.245
 5951POPC   C1B74539  26.404  34.182   6.199
 5951POPC   C2B74540  26.418  34.429   6.573
 5951POPC   C3B74541  26.449  34.221   6.963
 5951POPC   C4B74542  26.574  34.344   7.377
 5952POPC   NC374543   3.073  28.708   5.340
 5952POPC   PO474544   2.425  28.422   5.374
 5952POPC   GL174545   2.609  28.503   5.782
 5952POPC   GL274546   2.842  28.214   5.860
 5952POPC   C1A74547   2.388  28.662   6.169
 5952POPC   D2A74548   2.259  28.486   6.566
 5952POPC   C3A74549   2.477  28.539   6.938
 5952POPC   C4A74550   2.843  28.546   7.225
 5952POPC   C1B74551   2.804  28.360   6.260
 5952POPC   C2B74552   2.707  28.185   6.640
 5952POPC   C3B74553   2.889  28.062   7.022
 5952POPC   C4B74554   3.238  28.212   7.250
 5953POPC   NC374555   5.610  43.643   5.552
 5953POPC   PO474556   6.220  43.935   5.417
 5953POPC   GL174557   5.932  44.003   5.764
 5953POPC   GL274558   5.612  44.220   5.795
 5953POPC   C1A74559   5.942  43.777   6.139
 5953POPC   D2A74560   6.071  43.904   6.532
 5953POPC   C3A74561   5.935  43.648   6.875
 5953POPC   C4A74562   5.903  43.770   7.300
 5953POPC   C1B74563   5.649  44.161   6.262
 5953POPC   C2B74564   5.547  43.916   6.618
 5953POPC   C3B74565   5.532  44.016   7.039
 5953POPC   C4B74566   5.475  43.969   7.469
 5954POPC   NC374567  19.262  39.638   5.172
 5954POPC   PO474568  18.930  40.146   5.380
 5954POPC   GL174569  19.130  39.987   5.789
 5954POPC   GL274570  18.908  39.743   6.011
 5954POPC   C1A74571  19.218  40.082   6.244
 5954POPC   D2A74572  19.000  39.835   6.592
 5954POPC   C3A74573  18.783  39.970   6.986
 5954POPC   C4A74574  18.631  39.807   7.366
 5954POPC   C1B74575  19.291  39.571   6.236
 5954POPC   C2B74576  19.510  39.740   6.573
 5954POPC   C3B74577  19.346  39.667   6.956
 5954POPC   C4B74578  19.141  39.719   7.335
 5955POPC   NC374579  34.293   8.343   5.198
 5955POPC   PO474580  33.616   8.350   5.416
 5955POPC   GL174581  33.642   8.176   5.807
 5955POPC   GL274582  33.598   7.849   5.808
 5955POPC   C1A74583  33.933   8.199   6.176
 5955POPC   D2A74584  34.078   8.384   6.515
 5955POPC   C3A74585  33.983   8.176   6.840
 5955POPC   C4A74586  33.928   8.207   7.257
 5955POPC   C1B74587  33.477   7.966   6.229
 5955POPC   C2B74588  33.491   8.264   6.560
 5955POPC   C3B74589  33.503   8.099   6.961
 5955POPC   C4B74590  33.376   8.185   7.335
 5956POPC   NC374591  33.745  17.389   5.612
 5956POPC   PO474592  33.297  17.873   5.398
 5956POPC   GL174593  33.496  17.794   5.856
 5956POPC   GL274594  33.878  17.743   5.951
 5956POPC   C1A74595  33.526  17.604   6.299
 5956POPC   D2A74596  33.585  17.506   6.765
 5956POPC   C3A74597  33.828  17.792   6.977
 5956POPC   C4A74598  34.265  17.799   6.981
 5956POPC   C1B74599  33.986  17.345   6.236
 5956POPC   C2B74600  33.974  17.166   6.656
 5956POPC   C3B74601  34.005  17.337   7.070
 5956POPC   C4B74602  33.858  17.203   7.468
 5957POPC   NC374603  31.419  30.357   5.369
 5957POPC   PO474604  31.379  29.721   5.319
 5957POPC   GL174605  31.499  29.950   5.662
 5957POPC   GL274606  31.844  29.867   5.656
 5957POPC   C1A74607  31.321  30.000   6.083
 5957POPC   D2A74608  31.182  29.848   6.489
 5957POPC   C3A74609  31.351  29.869   6.892
 5957POPC   C4A74610  31.304  29.447   6.994
 5957POPC   C1B74611  31.817  30.041   6.062
 5957POPC   C2B74612  31.680  30.028   6.503
 5957POPC   C3B74613  31.823  30.108   6.912
 5957POPC   C4B74614  31.779  30.457   7.155
 5958POPC   NC374615  18.994  38.676   5.122
 5958POPC   PO474616  18.864  38.202   5.568
 5958POPC   GL174617  18.985  38.309   5.946
 5958POPC   GL274618  18.774  38.622   5.837
 5958POPC   C1A74619  19.315  38.387   6.274
 5958POPC   D2A74620  19.094  38.408   6.669
 5958POPC   C3A74621  19.261  38.381   7.026
 5958POPC   C4A74622  18.966  38.237   7.286
 5958POPC   C1B74623  18.943  38.723   6.234
 5958POPC   C2B74624  18.738  38.776   6.610
 5958POPC   C3B74625  18.684  38.572   6.996
 5958POPC   C4B74626  18.989  38.755   7.239
 5959POPC   NC374627  33.864  32.395   5.397
 5959POPC   PO474628  33.505  31.814   5.330
 5959POPC   GL174629  33.457  32.124   5.653
 5959POPC   GL274630  33.769  31.990   5.799
 5959POPC   C1A74631  33.452  32.206   6.138
 5959POPC   D2A74632  33.475  32.066   6.607
 5959POPC   C3A74633  33.662  32.348   6.960
 5959POPC   C4A74634  33.796  32.299   7.412
 5959POPC   C1B74635  33.917  31.967   6.255
 5959POPC   C2B74636  34.007  32.072   6.700
 5959POPC   C3B74637  34.194  32.320   7.069
 5959POPC   C4B74638  34.340  32.520   7.483
 5960POPC   NC374639  39.718  26.033   5.402
 5960POPC   PO474640  40.348  26.285   5.426
 5960POPC   GL174641  40.077  26.157   5.778
 5960POPC   GL274642  39.949  25.820   5.825
 5960POPC   C1A74643  40.065  26.108   6.220
 5960POPC   D2A74644  39.949  26.313   6.591
 5960POPC   C3A74645  40.190  26.249   6.938
 5960POPC   C4A74646  40.007  26.140   7.322
 5960POPC   C1B74647  39.613  25.743   6.166
 5960POPC   C2B74648  39.669  25.657   6.652
 5960POPC   C3B74649  39.580  25.649   7.126
 5960POPC   C4B74650  39.655  25.809   7.568
 5961POPC   NC374651  42.183   8.455   5.454
 5961POPC   PO474652  42.688   8.864   5.379
 5961POPC   GL174653  42.388   8.937   5.731
 5961POPC   GL274654  42.440   8.637   5.892
 5961POPC   C1A74655  42.040   8.945   6.095
 5961POPC   D2A74656  41.857   9.186   6.486
 5961POPC   C3A74657  42.057   9.250   6.898
 5961POPC   C4A74658  41.938   9.085   7.319
 5961POPC   C1B74659  42.531   8.914   6.253
 5961POPC   C2B74660  42.385   8.894   6.689
 5961POPC   C3B74661  42.380   8.928   7.146
 5961POPC   C4B74662  42.364   8.977   7.594
 5962POPC   NC374663   7.228  26.854   5.162
 5962POPC   PO474664   7.877  27.138   5.308
 5962POPC   GL174665   7.598  26.838   5.603
 5962POPC   GL274666   7.718  26.477   5.664
 5962POPC   C1A74667   7.328  26.745   6.024
 5962POPC   D2A74668   7.083  26.654   6.434
 5962POPC   C3A74669   7.309  26.807   6.824
 5962POPC   C4A74670   7.159  26.940   7.247
 5962POPC   C1B74671   7.816  26.625   6.062
 5962POPC   C2B74672   7.610  26.603   6.452
 5962POPC   C3B74673   7.673  26.441   6.859
 5962POPC   C4B74674   7.647  26.687   7.244
 5963POPC   NC374675  21.437   5.484   5.533
 5963POPC   PO474676  21.305   4.844   5.389
 5963POPC   GL174677  21.365   5.024   5.808
 5963POPC   GL274678  21.111   5.260   5.888
 5963POPC   C1A74679  21.344   4.920   6.267
 5963POPC   D2A74680  21.177   4.950   6.701
 5963POPC   C3A74681  21.486   4.928   7.038
 5963POPC   C4A74682  21.731   5.262   7.270
 5963POPC   C1B74683  21.366   5.432   6.215
 5963POPC   C2B74684  21.545   5.362   6.620
 5963POPC   C3B74685  21.353   5.446   7.003
 5963POPC   C4B74686  21.118   5.189   7.278
 5964POPC   NC374687  37.980  38.849   5.498
 5964POPC   PO474688  37.275  38.997   5.538
 5964POPC   GL174689  37.496  38.930   5.860
 5964POPC   GL274690  37.728  39.175   5.836
 5964POPC   C1A74691  37.438  39.062   6.290
 5964POPC   D2A74692  37.347  38.872   6.681
 5964POPC   C3A74693  37.586  38.994   7.047
 5964POPC   C4A74694  37.827  39.075   7.427
 5964POPC   C1B74695  37.919  38.876   6.148
 5964POPC   C2B74696  38.075  38.898   6.550
 5964POPC   C3B74697  38.058  39.159   6.921
 5964POPC   C4B74698  38.290  39.151   7.293
 5965POPC   NC374699  12.316   0.216   5.445
 5965POPC   PO474700  11.724   0.590   5.421
 5965POPC   GL174701  11.730   0.436   5.835
 5965POPC   GL274702  12.095   0.457   5.842
 5965POPC   C1A74703  11.861   0.231   6.218
 5965POPC   D2A74704  12.138   0.360   6.554
 5965POPC   C3A74705  12.004   0.442   6.960
 5965POPC   C4A74706  11.625   0.450   7.182
 5965POPC   C1B74707  12.324   0.683   6.181
 5965POPC   C2B74708  12.512   0.702   6.598
 5965POPC   C3B74709  12.422   0.830   7.004
 5965POPC   C4B74710  12.316   0.608   7.336
 5966POPC   NC374711  25.454  14.465   5.516
 5966POPC   PO474712  24.836  14.559   5.395
 5966POPC   GL174713  25.037  14.595   5.825
 5966POPC   GL274714  25.134  14.254   5.862
 5966POPC   C1A74715  25.015  14.496   6.316
 5966POPC   D2A74716  25.141  14.138   6.623
 5966POPC   C3A74717  25.142  14.247   7.054
 5966POPC   C4A74718  24.894  14.175   7.444
 5966POPC   C1B74719  25.415  14.207   6.201
 5966POPC   C2B74720  25.559  14.422   6.601
 5966POPC   C3B74721  25.544  14.580   7.043
 5966POPC   C4B74722  25.576  14.311   7.431
 5967POPC   NC374723  17.957  28.274   5.099
 5967POPC   PO474724  17.393  28.226   5.433
 5967POPC   GL174725  17.360  28.526   5.760
 5967POPC   GL274726  17.184  28.276   5.934
 5967POPC   C1A74727  17.353  28.673   6.201
 5967POPC   D2A74728  17.452  28.394   6.553
 5967POPC   C3A74729  17.308  28.470   6.959
 5967POPC   C4A74730  17.349  28.539   7.395
 5967POPC   C1B74731  17.450  28.015   6.208
 5967POPC   C2B74732  17.515  27.835   6.623
 5967POPC   C3B74733  17.584  28.045   7.002
 5967POPC   C4B74734  17.272  28.050   7.330
 5968POPC   NC374735  41.859  21.480   5.328
 5968POPC   PO474736  41.212  21.211   5.451
 5968POPC   GL174737  41.525  21.439   5.756
 5968POPC   GL274738  41.912  21.420   5.841
 5968POPC   C1A74739  41.517  21.525   6.215
 5968POPC   D2A74740  41.229  21.546   6.585
 5968POPC   C3A74741  41.403  21.622   7.003
 5968POPC   C4A74742  41.471  21.443   7.441
 5968POPC   C1B74743  42.001  21.311   6.298
 5968POPC   C2B74744  41.747  21.360   6.704
 5968POPC   C3B74745  41.759  21.169   7.139
 5968POPC   C4B74746  41.892  21.183   7.612
 5969POPC   NC374747  16.057  25.539   5.494
 5969POPC   PO474748  15.670  25.022   5.493
 5969POPC   GL174749  15.874  25.172   5.828
 5969POPC   GL274750  15.689  25.462   5.862
 5969POPC   C1A74751  16.027  25.289   6.234
 5969POPC   D2A74752  16.248  25.128   6.592
 5969POPC   C3A74753  16.084  25.299   6.962
 5969POPC   C4A74754  16.223  25.376   7.351
 5969POPC   C1B74755  15.595  25.567   6.251
 5969POPC   C2B74756  15.668  25.433   6.669
 5969POPC   C3B74757  15.642  25.550   7.109
 5969POPC   C4B74758  15.746  25.281   7.473
 5970POPC   NC374759  43.468   4.724   5.462
 5970POPC   PO474760  43.274   5.381   5.500
 5970POPC   GL174761  43.404   5.259   5.888
 5970POPC   GL274762  43.091   5.081   5.888
 5970POPC   C1A74763  43.322   5.154   6.353
 5970POPC   D2A74764  43.260   4.815   6.693
 5970POPC   C3A74765  43.167   4.978   7.110
 5970POPC   C4A74766  43.288   5.317   7.348
 5970POPC   C1B74767  42.767   5.328   6.130
 5970POPC   C2B74768  42.790   5.576   6.498
 5970POPC   C3B74769  42.661   5.540   6.903
 5970POPC   C4B74770  42.768   5.288   7.237
 5971POPC   NC374771  15.273  22.320   5.421
 5971POPC   PO474772  15.302  21.658   5.247
 5971POPC   GL174773  15.349  21.929   5.716
 5971POPC   GL274774  15.539  22.257   5.840
 5971POPC   C1A74775  15.123  22.261   6.086
 5971POPC   D2A74776  15.282  22.312   6.528
 5971POPC   C3A74777  14.980  22.288   6.862
 5971POPC   C4A74778  14.811  22.201   7.260
 5971POPC   C1B74779  15.519  21.943   6.182
 5971POPC   C2B74780  15.303  21.722   6.492
 5971POPC   C3B74781  15.310  21.901   6.888
 5971POPC   C4B74782  15.383  22.232   7.206
 5972POPC   NC374783  36.466   1.507   5.255
 5972POPC   PO474784  36.889   2.015   5.104
 5972POPC   GL174785  36.882   2.212   5.584
 5972POPC   GL274786  36.621   2.186   5.877
 5972POPC   C1A74787  37.102   2.254   6.042
 5972POPC   D2A74788  37.272   2.421   6.452
 5972POPC   C3A74789  37.302   2.305   6.879
 5972POPC   C4A74790  37.011   2.133   7.179
 5972POPC   C1B74791  36.732   1.979   6.271
 5972POPC   C2B74792  36.845   2.190   6.656
 5972POPC   C3B74793  36.544   2.206   6.976
 5972POPC   C4B74794  36.469   1.816   7.160
 5973POPC   NC374795  29.484  22.897   5.252
 5973POPC   PO474796  28.846  23.076   5.440
 5973POPC   GL174797  29.046  22.929   5.793
 5973POPC   GL274798  29.406  22.973   5.755
 5973POPC   C1A74799  29.087  23.061   6.222
 5973POPC   D2A74800  28.877  23.167   6.633
 5973POPC   C3A74801  29.006  22.965   7.019
 5973POPC   C4A74802  29.223  23.013   7.449
 5973POPC   C1B74803  29.549  22.818   6.146
 5973POPC   C2B74804  29.418  22.914   6.589
 5973POPC   C3B74805  29.430  22.721   6.981
 5973POPC   C4B74806  29.688  22.724   7.324
 5974POPC   NC374807   3.257  19.255   5.438
 5974POPC   PO474808   3.755  18.824   5.292
 5974POPC   GL174809   3.621  18.975   5.678
 5974POPC   GL274810   3.286  18.833   5.775
 5974POPC   C1A74811   3.654  19.097   6.110
 5974POPC   D2A74812   3.509  19.332   6.487
 5974POPC   C3A74813   3.688  19.129   6.872
 5974POPC   C4A74814   3.741  19.217   7.286
 5974POPC   C1B74815   3.221  18.897   6.239
 5974POPC   C2B74816   3.291  18.889   6.684
 5974POPC   C3B74817   3.233  19.009   7.101
 5974POPC   C4B74818   3.028  18.822   7.424
 5975POPC   NC374819  29.082  10.211   5.043
 5975POPC   PO474820  29.477  10.606   5.411
 5975POPC   GL174821  29.398  10.588   5.816
 5975POPC   GL274822  29.041  10.604   5.800
 5975POPC   C1A74823  29.271  10.366   6.193
 5975POPC   D2A74824  29.097  10.282   6.568
 5975POPC   C3A74825  29.163  10.580   6.859
 5975POPC   C4A74826  29.313  10.408   7.214
 5975POPC   C1B74827  28.775  10.436   6.170
 5975POPC   C2B74828  28.673  10.544   6.623
 5975POPC   C3B74829  28.708  10.491   7.077
 5975POPC   C4B74830  28.455  10.614   7.428
 5976POPC   NC374831  18.839  16.053   5.526
 5976POPC   PO474832  18.304  16.256   5.199
 5976POPC   GL174833  18.317  16.190   5.646
 5976POPC   GL274834  18.391  15.855   5.662
 5976POPC   C1A74835  18.254  16.207   6.103
 5976POPC   D2A74836  18.018  15.998   6.439
 5976POPC   C3A74837  18.202  16.034   6.845
 5976POPC   C4A74838  18.249  16.291   7.195
 5976POPC   C1B74839  18.545  15.780   6.082
 5976POPC   C2B74840  18.382  15.628   6.474
 5976POPC   C3B74841  18.539  15.643   6.875
 5976POPC   C4B74842  18.539  15.871   7.241
 5977POPC   NC374843  33.627  18.475   5.380
 5977POPC   PO474844  34.202  18.382   5.648
 5977POPC   GL174845  33.786  18.279   5.848
 5977POPC   GL274846  33.448  18.501   5.848
 5977POPC   C1A74847  33.911  18.158   6.262
 5977POPC   D2A74848  34.154  18.396   6.539
 5977POPC   C3A74849  33.998  18.286   6.911
 5977POPC   C4A74850  34.065  18.129   7.292
 5977POPC   C1B74851  33.483  18.422   6.260
 5977POPC   C2B74852  33.660  18.601   6.610
 5977POPC   C3B74853  33.540  18.489   7.004
 5977POPC   C4B74854  33.547  18.133   7.207
 5978POPC   NC374855   9.860  13.807   5.381
 5978POPC   PO474856   9.806  13.152   5.392
 5978POPC   GL174857   9.799  13.437   5.775
 5978POPC   GL274858   9.508  13.697   5.772
 5978POPC   C1A74859   9.690  13.471   6.240
 5978POPC   D2A74860   9.626  13.340   6.680
 5978POPC   C3A74861   9.915  13.583   6.913
 5978POPC   C4A74862   9.910  13.742   7.307
 5978POPC   C1B74863   9.441  13.918   6.179
 5978POPC   C2B74864   9.600  13.887   6.619
 5978POPC   C3B74865   9.468  13.865   7.074
 5978POPC   C4B74866   9.541  13.961   7.554
 5979POPC   NC374867  12.386  27.939   5.377
 5979POPC   PO474868  12.937  27.519   5.268
 5979POPC   GL174869  12.771  27.666   5.717
 5979POPC   GL274870  12.653  28.025   5.822
 5979POPC   C1A74871  12.802  27.711   6.194
 5979POPC   D2A74872  12.810  27.483   6.576
 5979POPC   C3A74873  12.639  27.689   6.923
 5979POPC   C4A74874  12.773  27.429   7.229
 5979POPC   C1B74875  12.614  28.223   6.257
 5979POPC   C2B74876  12.481  28.212   6.712
 5979POPC   C3B74877  12.563  28.190   7.150
 5979POPC   C4B74878  12.550  27.853   7.437
 5980POPC   NC374879  34.558  38.985   4.841
 5980POPC   PO474880  34.471  39.014   5.509
 5980POPC   GL174881  34.441  39.173   5.896
 5980POPC   GL274882  34.740  39.301   5.925
 5980POPC   C1A74883  34.413  39.183   6.347
 5980POPC   D2A74884  34.277  39.163   6.797
 5980POPC   C3A74885  34.525  39.290   7.167
 5980POPC   C4A74886  34.451  39.074   7.567
 5980POPC   C1B74887  34.865  38.951   6.148
 5980POPC   C2B74888  34.885  39.034   6.566
 5980POPC   C3B74889  34.900  38.899   6.967
 5980POPC   C4B74890  34.925  39.048   7.367
 5981POPC   NC374891  14.591  40.130   5.429
 5981POPC   PO474892  13.922  39.937   5.428
 5981POPC   GL174893  14.249  39.974   5.773
 5981POPC   GL274894  14.401  40.294   5.874
 5981POPC   C1A74895  14.549  39.844   6.106
 5981POPC   D2A74896  14.436  39.583   6.475
 5981POPC   C3A74897  14.384  39.859   6.810
 5981POPC   C4A74898  14.448  39.873   7.222
 5981POPC   C1B74899  14.737  40.316   6.169
 5981POPC   C2B74900  14.607  40.392   6.566
 5981POPC   C3B74901  14.754  40.369   6.949
 5981POPC   C4B74902  14.771  40.225   7.339
 5982POPC   NC374903  17.208  21.456   5.366
 5982POPC   PO474904  16.661  21.177   5.449
 5982POPC   GL174905  16.733  21.165   5.856
 5982POPC   GL274906  16.478  20.907   5.897
 5982POPC   C1A74907  16.814  21.453   6.218
 5982POPC   D2A74908  16.611  21.525   6.627
 5982POPC   C3A74909  16.866  21.515   6.974
 5982POPC   C4A74910  16.899  21.385   7.386
 5982POPC   C1B74911  16.546  21.027   6.325
 5982POPC   C2B74912  16.447  20.995   6.732
 5982POPC   C3B74913  16.534  21.138   7.106
 5982POPC   C4B74914  16.418  21.570   7.201
 5983POPC   NC374915  16.859  41.466   5.172
 5983POPC   PO474916  16.654  41.900   5.600
 5983POPC   GL174917  16.661  41.616   5.902
 5983POPC   GL274918  17.018  41.565   5.846
 5983POPC   C1A74919  16.568  41.520   6.332
 5983POPC   D2A74920  16.559  41.255   6.659
 5983POPC   C3A74921  16.721  41.370   7.047
 5983POPC   C4A74922  16.549  41.430   7.446
 5983POPC   C1B74923  16.988  41.807   6.253
 5983POPC   C2B74924  16.920  41.674   6.669
 5983POPC   C3B74925  16.921  41.846   7.075
 5983POPC   C4B74926  17.028  41.672   7.467
 5984POPC   NC374927  15.701  22.915   5.389
 5984POPC   PO474928  16.246  23.282   5.578
 5984POPC   GL174929  15.911  23.104   5.867
 5984POPC   GL274930  15.809  22.717   5.840
 5984POPC   C1A74931  16.024  23.140   6.322
 5984POPC   D2A74932  16.169  23.231   6.761
 5984POPC   C3A74933  16.162  22.900   7.086
 5984POPC   C4A74934  15.954  22.943   7.495
 5984POPC   C1B74935  15.651  22.779   6.257
 5984POPC   C2B74936  15.860  22.775   6.675
 5984POPC   C3B74937  15.683  22.662   7.066
 5984POPC   C4B74938  15.587  22.616   7.504
 5985POPC   NC374939  17.121  12.208   5.502
 5985POPC   PO474940  16.461  12.167   5.234
 5985POPC   GL174941  16.645  12.184   5.691
 5985POPC   GL274942  16.702  11.906   5.840
 5985POPC   C1A74943  16.920  12.249   6.146
 5985POPC   D2A74944  16.768  12.313   6.615
 5985POPC   C3A74945  16.841  12.213   7.063
 5985POPC   C4A74946  16.950  12.323   7.547
 5985POPC   C1B74947  16.475  12.040   6.261
 5985POPC   C2B74948  16.545  11.860   6.705
 5985POPC   C3B74949  16.418  11.742   7.133
 5985POPC   C4B74950  16.300  11.847   7.559
 5986POPC   NC374951  23.667  24.910   5.390
 5986POPC   PO474952  23.909  25.620   5.381
 5986POPC   GL174953  23.769  25.369   5.735
 5986POPC   GL274954  23.959  25.084   5.896
 5986POPC   C1A74955  23.589  25.361   6.161
 5986POPC   D2A74956  23.317  25.505   6.507
 5986POPC   C3A74957  23.474  25.353   6.895
 5986POPC   C4A74958  23.538  25.275   7.308
 5986POPC   C1B74959  23.981  24.970   6.350
 5986POPC   C2B74960  24.006  25.136   6.768
 5986POPC   C3B74961  24.034  25.236   7.189
 5986POPC   C4B74962  23.945  25.343   7.657
 5987POPC   NC374963   4.335  37.376   5.470
 5987POPC   PO474964   4.653  37.995   5.413
 5987POPC   GL174965   4.397  37.789   5.767
 5987POPC   GL274966   4.538  37.491   5.943
 5987POPC   C1A74967   4.166  37.765   6.182
 5987POPC   D2A74968   3.949  37.751   6.602
 5987POPC   C3A74969   4.224  37.656   6.982
 5987POPC   C4A74970   4.223  37.473   7.414
 5987POPC   C1B74971   4.700  37.705   6.334
 5987POPC   C2B74972   4.705  37.813   6.788
 5987POPC   C3B74973   4.768  37.675   7.220
 5987POPC   C4B74974   4.717  37.358   7.538
 5988POPC   NC374975  31.499  12.772   5.442
 5988POPC   PO474976  31.918  12.280   5.711
 5988POPC   GL174977  31.720  12.662   5.907
 5988POPC   GL274978  31.516  13.019   5.876
 5988POPC   C1A74979  31.453  12.689   6.234
 5988POPC   D2A74980  31.258  12.595   6.566
 5988POPC   C3A74981  31.531  12.574   6.901
 5988POPC   C4A74982  31.357  12.722   7.267
 5988POPC   C1B74983  31.549  13.192   6.293
 5988POPC   C2B74984  31.438  13.057   6.702
 5988POPC   C3B74985  31.557  13.175   7.112
 5988POPC   C4B74986  31.430  13.155   7.546
 5989POPC   NC374987  20.689  30.993   5.423
 5989POPC   PO474988  20.572  31.676   5.317
 5989POPC   GL174989  20.605  31.563   5.774
 5989POPC   GL274990  20.463  31.227   5.838
 5989POPC   C1A74991  20.696  31.538   6.247
 5989POPC   D2A74992  20.867  31.642   6.679
 5989POPC   C3A74993  20.688  31.565   7.091
 5989POPC   C4A74994  20.683  31.759   7.532
 5989POPC   C1B74995  20.354  31.138   6.265
 5989POPC   C2B74996  20.553  31.207   6.666
 5989POPC   C3B74997  20.581  31.070   7.076
 5989POPC   C4B74998  20.809  31.233   7.469
 5990POPC   NC374999   0.001   2.802   5.423
 5990POPC   PO475000   0.604   2.475   5.357
 5990POPC   GL175001   0.329   2.494   5.740
 5990POPC   GL275002   0.346   2.853   5.821
 5990POPC   C1A75003   0.428   2.504   6.209
 5990POPC   D2A75004   0.522   2.825   6.571
 5990POPC   C3A75005   0.418   2.643   6.975
 5990POPC   C4A75006   0.115   2.320   7.076
 5990POPC   C1B75007   0.015   2.766   6.137
 5990POPC   C2B75008   0.047   2.578   6.575
 5990POPC   C3B75009  44.948   2.806   6.952
 5990POPC   C4B75010  44.920   2.939   7.344
 5991POPC   NC375011   2.463  39.483   5.600
 5991POPC   PO475012   2.937  39.088   5.407
 5991POPC   GL175013   2.915  39.247   5.811
 5991POPC   GL275014   2.943  39.606   5.817
 5991POPC   C1A75015   2.855  39.076   6.225
 5991POPC   D2A75016   2.690  39.192   6.618
 5991POPC   C3A75017   2.874  38.967   6.936
 5991POPC   C4A75018   2.845  38.651   7.243
 5991POPC   C1B75019   2.757  39.602   6.221
 5991POPC   C2B75020   2.574  39.707   6.602
 5991POPC   C3B75021   2.535  39.538   6.984
 5991POPC   C4B75022   2.982  39.488   7.035
 5992POPC   NC375023  15.182  33.423   5.454
 5992POPC   PO475024  15.526  32.834   5.531
 5992POPC   GL175025  15.108  32.977   5.751
 5992POPC   GL275026  15.009  33.296   5.903
 5992POPC   C1A75027  14.968  32.865   6.176
 5992POPC   D2A75028  15.139  32.646   6.539
 5992POPC   C3A75029  15.034  32.814   6.920
 5992POPC   C4A75030  15.300  32.816   7.249
 5992POPC   C1B75031  15.324  33.276   6.182
 5992POPC   C2B75032  15.165  33.183   6.575
 5992POPC   C3B75033  15.280  33.285   6.979
 5992POPC   C4B75034  15.057  33.313   7.334
 5993POPC   NC375035  30.171  35.731   5.495
 5993POPC   PO475036  30.054  36.299   5.239
 5993POPC   GL175037  29.895  36.172   5.623
 5993POPC   GL275038  29.648  36.405   5.676
 5993POPC   C1A75039  29.945  35.998   6.059
 5993POPC   D2A75040  30.098  36.149   6.457
 5993POPC   C3A75041  29.906  36.058   6.863
 5993POPC   C4A75042  30.109  35.900   7.254
 5993POPC   C1B75043  29.781  36.462   6.136
 5993POPC   C2B75044  29.635  36.429   6.571
 5993POPC   C3B75045  29.704  36.534   6.980
 5993POPC   C4B75046  30.036  36.397   7.253
 5994POPC   NC375047   2.885  38.619   5.325
 5994POPC   PO475048   2.254  38.370   5.274
 5994POPC   GL175049   2.566  38.372   5.672
 5994POPC   GL275050   2.920  38.219   5.676
 5994POPC   C1A75051   2.689  38.414   6.140
 5994POPC   D2A75052   2.682  38.594   6.578
 5994POPC   C3A75053   2.640  38.303   6.939
 5994POPC   C4A75054   2.477  38.290   7.358
 5994POPC   C1B75055   3.112  38.125   6.106
 5994POPC   C2B75056   2.930  38.085   6.545
 5994POPC   C3B75057   3.134  38.094   6.958
 5994POPC   C4B75058   3.020  38.183   7.371
 5995POPC   NC375059  20.077  35.473   5.526
 5995POPC   PO475060  19.630  34.986   5.515
 5995POPC   GL175061  19.793  35.079   5.888
 5995POPC   GL275062  19.648  35.414   5.847
 5995POPC   C1A75063  19.591  35.183   6.290
 5995POPC   D2A75064  19.643  35.476   6.608
 5995POPC   C3A75065  19.804  35.346   6.968
 5995POPC   C4A75066  19.918  35.200   7.337
 5995POPC   C1B75067  19.891  35.615   6.177
 5995POPC   C2B75068  20.254  35.686   6.435
 5995POPC   C3B75069  20.074  35.782   6.824
 5995POPC   C4B75070  20.185  35.626   7.213
 5996POPC   NC375071  20.698  41.325   5.357
 5996POPC   PO475072  20.154  41.524   5.578
 5996POPC   GL175073  20.435  41.395   5.871
 5996POPC   GL275074  20.723  41.567   5.818
 5996POPC   C1A75075  20.507  41.347   6.310
 5996POPC   D2A75076  20.393  41.496   6.711
 5996POPC   C3A75077  20.655  41.418   7.049
 5996POPC   C4A75078  20.436  41.085   7.169
 5996POPC   C1B75079  20.784  41.767   6.216
 5996POPC   C2B75080  20.845  41.715   6.640
 5996POPC   C3B75081  20.831  41.908   7.049
 5996POPC   C4B75082  20.748  41.776   7.491
 5997POPC   NC375083  26.967  44.548   5.205
 5997POPC   PO475084  26.545   0.036   5.408
 5997POPC   GL175085  26.630  44.751   5.768
 5997POPC   GL275086  26.776  44.422   5.760
 5997POPC   C1A75087  26.570  44.613   6.206
 5997POPC   D2A75088  26.610  44.763   6.648
 5997POPC   C3A75089  26.995  44.782   6.934
 5997POPC   C4A75090  27.266  44.526   7.214
 5997POPC   C1B75091  27.027  44.371   6.177
 5997POPC   C2B75092  26.996  44.358   6.649
 5997POPC   C3B75093  26.900  44.197   7.056
 5997POPC   C4B75094  26.744  44.516   7.297
 5998POPC   NC375095  42.550  23.825   5.465
 5998POPC   PO475096  42.082  23.590   5.674
 5998POPC   GL175097  42.226  23.874   5.913
 5998POPC   GL275098  42.585  23.823   5.958
 5998POPC   C1A75099  42.271  23.789   6.338
 5998POPC   D2A75100  42.602  23.670   6.596
 5998POPC   C3A75101  42.393  23.707   6.954
 5998POPC   C4A75102  42.178  24.038   7.133
 5998POPC   C1B75103  42.524  23.386   6.132
 5998POPC   C2B75104  42.536  23.155   6.508
 5998POPC   C3B75105  42.696  23.257   6.904
 5998POPC   C4B75106  42.554  23.349   7.283
 5999POPC   NC375107  14.202  39.554   5.455
 5999POPC   PO475108  14.424  38.965   5.413
 5999POPC   GL175109  14.485  39.098   5.832
 5999POPC   GL275110  14.337  39.427   5.923
 5999POPC   C1A75111  14.390  39.099   6.300
 5999POPC   D2A75112  14.433  38.837   6.625
 5999POPC   C3A75113  14.389  38.963   7.030
 5999POPC   C4A75114  14.369  39.018   7.478
 5999POPC   C1B75115  14.775  39.384   6.133
 5999POPC   C2B75116  14.916  39.395   6.579
 5999POPC   C3B75117  14.640  39.415   6.948
 5999POPC   C4B75118  14.217  39.437   7.130
 6000POPC   NC375119  18.428  28.817   5.449
 6000POPC   PO475120  17.828  28.839   5.299
 6000POPC   GL175121  18.076  29.130   5.646
 6000POPC   GL275122  18.453  29.264   5.665
 6000POPC   C1A75123  18.200  29.151   6.112
 6000POPC   D2A75124  18.226  28.920   6.503
 6000POPC   C3A75125  18.027  29.121   6.874
 6000POPC   C4A75126  18.205  29.380   7.221
 6000POPC   C1B75127  18.655  29.362   6.080
 6000POPC   C2B75128  18.482  29.494   6.493
 6000POPC   C3B75129  18.587  29.359   6.907
 6000POPC   C4B75130  18.656  29.200   7.372
 6001POPC   NC375131  23.279   1.099   5.463
 6001POPC   PO475132  22.791   1.395   5.217
 6001POPC   GL175133  22.839   1.343   5.694
 6001POPC   GL275134  23.170   1.352   5.917
 6001POPC   C1A75135  22.725   1.200   6.132
 6001POPC   D2A75136  22.823   1.189   6.584
 6001POPC   C3A75137  22.622   1.301   6.962
 6001POPC   C4A75138  22.782   1.092   7.327
 6001POPC   C1B75139  23.057   1.562   6.330
 6001POPC   C2B75140  22.928   1.680   6.759
 6001POPC   C3B75141  23.033   1.546   7.191
 6001POPC   C4B75142  22.853   1.533   7.622
 6002POPC   NC375143  22.387  41.855   5.568
 6002POPC   PO475144  21.989  41.352   5.541
 6002POPC   GL175145  22.051  41.544   5.884
 6002POPC   GL275146  22.367  41.498   5.934
 6002POPC   C1A75147  21.794  41.693   6.199
 6002POPC   D2A75148  21.634  41.520   6.581
 6002POPC   C3A75149  21.776  41.722   6.957
 6002POPC   C4A75150  22.122  41.577   7.192
 6002POPC   C1B75151  22.227  41.429   6.367
 6002POPC   C2B75152  22.419  41.289   6.768
 6002POPC   C3B75153  22.328  41.111   7.182
 6002POPC   C4B75154  22.583  41.428   7.372
 6003POPC   NC375155  27.752  39.339   5.450
 6003POPC   PO475156  27.154  39.056   5.454
 6003POPC   GL175157  27.325  39.167   5.872
 6003POPC   GL275158  27.490  39.500   5.862
 6003POPC   C1A75159  27.369  39.058   6.325
 6003POPC   D2A75160  27.620  38.978   6.704
 6003POPC   C3A75161  27.408  39.034   7.097
 6003POPC   C4A75162  27.488  39.409   7.310
 6003POPC   C1B75163  27.783  39.350   6.166
 6003POPC   C2B75164  27.846  39.459   6.592
 6003POPC   C3B75165  27.896  39.318   7.009
 6003POPC   C4B75166  27.960  38.912   7.178
 6004POPC   NC375167  39.930  24.490   5.237
 6004POPC   PO475168  40.488  24.870   5.325
 6004POPC   GL175169  40.136  24.779   5.643
 6004POPC   GL275170  39.875  24.492   5.742
 6004POPC   C1A75171  40.180  24.714   6.087
 6004POPC   D2A75172  39.915  24.615   6.441
 6004POPC   C3A75173  39.943  24.789   6.853
 6004POPC   C4A75174  40.066  24.595   7.242
 6004POPC   C1B75175  39.670  24.283   6.110
 6004POPC   C2B75176  39.577  24.256   6.567
 6004POPC   C3B75177  39.852  24.256   6.944
 6004POPC   C4B75178  39.946  24.112   7.396
 6005POPC   NC375179   0.387  13.934   5.477
 6005POPC   PO475180   0.996  13.759   5.307
 6005POPC   GL175181   0.712  13.604   5.692
 6005POPC   GL275182   0.545  13.293   5.799
 6005POPC   C1A75183   0.499  13.727   6.107
 6005POPC   D2A75184   0.207  13.828   6.442
 6005POPC   C3A75185   0.352  13.675   6.844
 6005POPC   C4A75186   0.479  13.834   7.234
 6005POPC   C1B75187   0.244  13.289   6.185
 6005POPC   C2B75188   0.077  13.307   6.616
 6005POPC   C3B75189   0.225  13.127   7.006
 6005POPC   C4B75190   0.518  13.318   7.231
 6006POPC   NC375191   4.761   1.484   5.597
 6006POPC   PO475192   4.300   0.915   5.418
 6006POPC   GL175193   4.540   1.033   5.767
 6006POPC   GL275194   4.327   1.314   5.812
 6006POPC   C1A75195   4.655   1.161   6.188
 6006POPC   D2A75196   4.633   1.463   6.516
 6006POPC   C3A75197   4.550   1.260   6.912
 6006POPC   C4A75198   4.442   1.343   7.335
 6006POPC   C1B75199   4.233   1.478   6.198
 6006POPC   C2B75200   4.083   1.535   6.589
 6006POPC   C3B75201   4.058   1.489   6.996
 6006POPC   C4B75202   3.847   1.304   7.283
 6007POPC   NC375203  20.610  21.235   5.451
 6007POPC   PO475204  20.124  21.633   5.467
 6007POPC   GL175205  20.281  21.327   5.860
 6007POPC   GL275206  20.406  20.948   5.810
 6007POPC   C1A75207  20.544  21.323   6.277
 6007POPC   D2A75208  20.700  21.643   6.610
 6007POPC   C3A75209  20.618  21.521   7.046
 6007POPC   C4A75210  20.420  21.132   7.236
 6007POPC   C1B75211  20.768  20.866   6.106
 6007POPC   C2B75212  20.878  20.879   6.541
 6007POPC   C3B75213  20.838  21.060   6.928
 6007POPC   C4B75214  21.086  21.064   7.265
 6008POPC   NC375215  12.650  28.896   5.347
 6008POPC   PO475216  13.181  29.253   5.406
 6008POPC   GL175217  12.980  29.003   5.747
 6008POPC   GL275218  12.588  29.041   5.827
 6008POPC   C1A75219  13.107  29.117   6.152
 6008POPC   D2A75220  13.008  29.408   6.473
 6008POPC   C3A75221  13.159  29.357   6.880
 6008POPC   C4A75222  12.951  29.444   7.250
 6008POPC   C1B75223  12.551  29.198   6.256
 6008POPC   C2B75224  12.593  29.251   6.706
 6008POPC   C3B75225  12.754  29.024   7.034
 6008POPC   C4B75226  12.425  29.057   7.269
 6009POPC   NC375227  36.818  25.137   5.360
 6009POPC   PO475228  37.357  25.385   5.691
 6009POPC   GL175229  37.112  25.084   5.879
 6009POPC   GL275230  36.822  25.303   5.849
 6009POPC   C1A75231  36.961  25.144   6.308
 6009POPC   D2A75232  36.975  25.435   6.644
 6009POPC   C3A75233  37.050  25.212   7.007
 6009POPC   C4A75234  37.154  25.329   7.399
 6009POPC   C1B75235  36.693  25.591   6.217
 6009POPC   C2B75236  36.493  25.660   6.649
 6009POPC   C3B75237  36.580  25.457   7.062
 6009POPC   C4B75238  36.688  25.100   7.334
 6010POPC   NC375239  30.895  26.231   5.086
 6010POPC   PO475240  30.551  25.834   5.582
 6010POPC   GL175241  30.896  25.989   5.815
 6010POPC   GL275242  30.928  26.334   5.825
 6010POPC   C1A75243  30.954  25.954   6.252
 6010POPC   D2A75244  30.831  25.758   6.646
 6010POPC   C3A75245  31.075  25.922   6.981
 6010POPC   C4A75246  30.869  25.911   7.354
 6010POPC   C1B75247  30.703  26.404   6.244
 6010POPC   C2B75248  30.811  26.297   6.698
 6010POPC   C3B75249  30.637  26.293   7.111
 6010POPC   C4B75250  30.626  26.314   7.575
 6011POPC   NC375251  11.003  12.704   5.373
 6011POPC   PO475252  11.547  13.058   5.340
 6011POPC   GL175253  11.521  12.930   5.768
 6011POPC   GL275254  11.441  12.584   5.691
 6011POPC   C1A75255  11.383  13.063   6.213
 6011POPC   D2A75256  11.070  12.994   6.560
 6011POPC   C3A75257  11.244  13.060   6.981
 6011POPC   C4A75258  11.212  13.211   7.404
 6011POPC   C1B75259  11.193  12.591   6.071
 6011POPC   C2B75260  11.352  12.556   6.498
 6011POPC   C3B75261  11.263  12.480   6.927
 6011POPC   C4B75262  10.967  12.671   7.209
 6012POPC   NC375263  14.289  22.354   5.249
 6012POPC   PO475264  14.910  21.995   5.452
 6012POPC   GL175265  14.534  22.129   5.704
 6012POPC   GL275266  14.230  21.902   5.631
 6012POPC   C1A75267  14.510  22.339   6.134
 6012POPC   D2A75268  14.665  22.534   6.526
 6012POPC   C3A75269  14.464  22.319   6.880
 6012POPC   C4A75270  14.325  22.382   7.295
 6012POPC   C1B75271  14.310  21.850   6.076
 6012POPC   C2B75272  14.279  21.985   6.517
 6012POPC   C3B75273  14.217  21.837   6.935
 6012POPC   C4B75274  14.411  21.877   7.302
 6013POPC   NC375275  17.615   2.191   5.293
 6013POPC   PO475276  17.188   1.766   5.437
 6013POPC   GL175277  17.492   1.800   5.808
 6013POPC   GL275278  17.795   2.040   5.810
 6013POPC   C1A75279  17.398   1.862   6.262
 6013POPC   D2A75280  17.645   2.042   6.618
 6013POPC   C3A75281  17.436   2.018   7.039
 6013POPC   C4A75282  17.194   1.947   7.417
 6013POPC   C1B75283  17.970   2.274   6.203
 6013POPC   C2B75284  18.074   2.304   6.680
 6013POPC   C3B75285  17.907   2.227   7.110
 6013POPC   C4B75286  17.695   2.046   7.477
 6014POPC   NC375287  36.895  42.609   5.306
 6014POPC   PO475288  36.700  41.988   5.456
 6014POPC   GL175289  36.720  42.296   5.729
 6014POPC   GL275290  37.096  42.328   5.703
 6014POPC   C1A75291  36.521  42.301   6.148
 6014POPC   D2A75292  36.479  42.060   6.545
 6014POPC   C3A75293  36.804  42.117   6.890
 6014POPC   C4A75294  36.845  42.025   7.336
 6014POPC   C1B75295  36.950  42.619   6.056
 6014POPC   C2B75296  36.996  42.694   6.498
 6014POPC   C3B75297  37.105  42.523   6.886
 6014POPC   C4B75298  36.926  42.541   7.300
 6015POPC   NC375299  34.971  13.975   5.468
 6015POPC   PO475300  35.687  13.928   5.370
 6015POPC   GL175301  35.382  13.780   5.702
 6015POPC   GL275302  35.320  13.408   5.778
 6015POPC   C1A75303  35.380  13.765   6.165
 6015POPC   D2A75304  35.128  13.661   6.540
 6015POPC   C3A75305  35.380  13.648   6.903
 6015POPC   C4A75306  35.374  13.561   7.342
 6015POPC   C1B75307  35.126  13.290   6.195
 6015POPC   C2B75308  35.107  13.170   6.663
 6015POPC   C3B75309  34.968  13.389   7.074
 6015POPC   C4B75310  34.934  13.437   7.555
 6016POPC   NC375311   0.464  28.793   5.662
 6016POPC   PO475312   0.927  28.500   5.256
 6016POPC   GL175313   0.651  28.268   5.654
 6016POPC   GL275314   0.274  28.261   5.753
 6016POPC   C1A75315   0.603  28.244   6.133
 6016POPC   D2A75316   0.491  28.056   6.514
 6016POPC   C3A75317   0.567  28.253   6.913
 6016POPC   C4A75318   0.725  28.201   7.321
 6016POPC   C1B75319   0.079  28.385   6.185
 6016POPC   C2B75320   0.179  28.466   6.592
 6016POPC   C3B75321   0.035  28.351   6.972
 6016POPC   C4B75322   0.247  28.484   7.318
 6017POPC   NC375323  29.754  24.650   5.403
 6017POPC   PO475324  30.250  24.212   5.387
 6017POPC   GL175325  30.035  24.327   5.791
 6017POPC   GL275326  29.871  24.646   5.889
 6017POPC   C1A75327  29.839  24.262   6.228
 6017POPC   D2A75328  29.781  24.065   6.632
 6017POPC   C3A75329  30.021  24.170   6.976
 6017POPC   C4A75330  29.874  24.132   7.407
 6017POPC   C1B75331  30.240  24.645   6.153
 6017POPC   C2B75332  30.170  24.510   6.574
 6017POPC   C3B75333  29.983  24.703   6.940
 6017POPC   C4B75334  30.131  24.547   7.326
 6018POPC   NC375335   5.702   3.829   5.592
 6018POPC   PO475336   6.060   4.224   5.112
 6018POPC   GL175337   5.893   4.361   5.637
 6018POPC   GL275338   5.820   4.118   5.976
 6018POPC   C1A75339   5.715   4.595   6.064
 6018POPC   D2A75340   5.728   4.769   6.521
 6018POPC   C3A75341   5.759   4.508   6.910
 6018POPC   C4A75342   6.040   4.427   7.229
 6018POPC   C1B75343   5.486   3.911   6.262
 6018POPC   C2B75344   5.408   3.874   6.729
 6018POPC   C3B75345   5.485   3.996   7.179
 6018POPC   C4B75346   5.525   4.032   7.671
 6019POPC   NC375347  19.555  14.541   5.592
 6019POPC   PO475348  20.119  14.152   5.442
 6019POPC   GL175349  19.991  14.349   5.771
 6019POPC   GL275350  19.708  14.094   5.805
 6019POPC   C1A75351  19.868  14.404   6.190
 6019POPC   D2A75352  19.967  14.139   6.527
 6019POPC   C3A75353  19.951  14.466   6.821
 6019POPC   C4A75354  20.114  14.515   7.225
 6019POPC   C1B75355  19.511  14.031   6.236
 6019POPC   C2B75356  19.497  14.181   6.692
 6019POPC   C3B75357  19.598  14.278   7.133
 6019POPC   C4B75358  19.652  14.120   7.530
 6020POPC   NC375359  29.264   2.388   5.276
 6020POPC   PO475360  29.463   1.780   5.548
 6020POPC   GL175361  29.344   2.040   5.862
 6020POPC   GL275362  29.023   1.944   5.942
 6020POPC   C1A75363  29.266   2.174   6.308
 6020POPC   D2A75364  29.079   1.923   6.634
 6020POPC   C3A75365  29.238   2.071   7.005
 6020POPC   C4A75366  29.489   1.967   7.366
 6020POPC   C1B75367  28.809   1.679   6.278
 6020POPC   C2B75368  28.805   1.396   6.666
 6020POPC   C3B75369  28.692   1.574   7.065
 6020POPC   C4B75370  28.918   1.856   7.340
 6021POPC   NC375371  11.097   1.955   5.501
 6021POPC   PO475372  11.648   1.464   5.453
 6021POPC   GL175373  11.595   1.808   5.774
 6021POPC   GL275374  11.283   1.715   5.937
 6021POPC   C1A75375  11.514   2.021   6.238
 6021POPC   D2A75376  11.160   1.958   6.587
 6021POPC   C3A75377  11.301   1.941   7.031
 6021POPC   C4A75378  11.543   2.286   7.230
 6021POPC   C1B75379  10.963   1.615   6.252
 6021POPC   C2B75380  11.012   1.454   6.678
 6021POPC   C3B75381  10.919   1.567   7.088
 6021POPC   C4B75382  11.107   1.759   7.491
 6022POPC   NC375383   4.745  42.518   5.582
 6022POPC   PO475384   5.426  42.332   5.591
 6022POPC   GL175385   5.091  42.217   5.803
 6022POPC   GL275386   5.073  42.546   5.949
 6022POPC   C1A75387   4.901  42.014   6.144
 6022POPC   D2A75388   5.109  41.961   6.524
 6022POPC   C3A75389   5.011  42.100   6.927
 6022POPC   C4A75390   5.158  42.266   7.290
 6022POPC   C1B75391   4.988  42.743   6.341
 6022POPC   C2B75392   4.935  42.587   6.750
 6022POPC   C3B75393   4.912  42.702   7.167
 6022POPC   C4B75394   4.945  42.732   7.577
 6023POPC   NC375395  34.498  25.090   5.435
 6023POPC   PO475396  34.804  25.634   5.374
 6023POPC   GL175397  34.704  25.407   5.778
 6023POPC   GL275398  34.368  25.454   5.891
 6023POPC   C1A75399  34.763  25.225   6.182
 6023POPC   D2A75400  34.634  24.942   6.493
 6023POPC   C3A75401  34.716  25.075   6.892
 6023POPC   C4A75402  34.492  25.117   7.267
 6023POPC   C1B75403  34.237  25.315   6.309
 6023POPC   C2B75404  34.213  25.138   6.732
 6023POPC   C3B75405  33.985  25.101   7.125
 6023POPC   C4B75406  34.086  25.162   7.581
 6024POPC   NC375407  25.235  12.254   5.532
 6024POPC   PO475408  25.334  12.914   5.372
 6024POPC   GL175409  25.282  12.742   5.771
 6024POPC   GL275410  24.999  12.614   5.899
 6024POPC   C1A75411  25.241  12.977   6.172
 6024POPC   D2A75412  25.111  13.058   6.602
 6024POPC   C3A75413  25.399  13.002   6.935
 6024POPC   C4A75414  25.391  13.193   7.307
 6024POPC   C1B75415  24.840  12.423   6.265
 6024POPC   C2B75416  24.880  12.423   6.716
 6024POPC   C3B75417  24.948  12.712   7.018
 6024POPC   C4B75418  25.237  12.713   7.353
 6025POPC   NC375419   1.763  14.752   5.336
 6025POPC   PO475420   1.055  14.469   5.437
 6025POPC   GL175421   1.133  14.247   5.830
 6025POPC   GL275422   1.491  14.257   5.855
 6025POPC   C1A75423   0.946  13.978   6.161
 6025POPC   D2A75424   0.703  13.951   6.563
 6025POPC   C3A75425   0.863  14.097   6.985
 6025POPC   C4A75426   1.233  14.181   7.281
 6025POPC   C1B75427   1.391  14.198   6.277
 6025POPC   C2B75428   1.113  14.297   6.578
 6025POPC   C3B75429   1.099  14.569   6.924
 6025POPC   C4B75430   1.297  14.689   7.289
 6026POPC   NC375431  32.635   3.702   5.550
 6026POPC   PO475432  32.017   3.462   5.420
 6026POPC   GL175433  32.209   3.551   5.796
 6026POPC   GL275434  32.492   3.301   5.852
 6026POPC   C1A75435  32.006   3.618   6.181
 6026POPC   D2A75436  32.086   3.726   6.593
 6026POPC   C3A75437  32.063   3.416   6.869
 6026POPC   C4A75438  32.298   3.270   7.169
 6026POPC   C1B75439  32.465   3.409   6.270
 6026POPC   C2B75440  32.626   3.701   6.537
 6026POPC   C3B75441  32.463   3.750   6.932
 6026POPC   C4B75442  32.624   3.692   7.286
 6027POPC   NC375443  34.289  23.938   5.414
 6027POPC   PO475444  34.941  24.067   5.491
 6027POPC   GL175445  34.686  23.849   5.771
 6027POPC   GL275446  34.508  23.541   5.649
 6027POPC   C1A75447  34.613  23.934   6.199
 6027POPC   D2A75448  34.600  24.096   6.602
 6027POPC   C3A75449  34.559  23.804   6.953
 6027POPC   C4A75450  34.772  23.906   7.344
 6027POPC   C1B75451  34.464  23.418   6.074
 6027POPC   C2B75452  34.450  23.518   6.503
 6027POPC   C3B75453  34.681  23.340   6.844
 6027POPC   C4B75454  34.513  23.334   7.240
 6028POPC   NC375455   7.902   7.802   5.498
 6028POPC   PO475456   8.466   7.350   5.403
 6028POPC   GL175457   8.145   7.397   5.716
 6028POPC   GL275458   7.925   7.103   5.727
 6028POPC   C1A75459   8.173   7.540   6.139
 6028POPC   D2A75460   8.322   7.264   6.499
 6028POPC   C3A75461   8.190   7.333   6.936
 6028POPC   C4A75462   8.332   7.486   7.345
 6028POPC   C1B75463   7.799   7.201   6.151
 6028POPC   C2B75464   7.850   7.478   6.541
 6028POPC   C3B75465   7.665   7.340   6.906
 6028POPC   C4B75466   7.794   7.386   7.293
 6029POPC   NC375467   1.899  10.110   5.291
 6029POPC   PO475468   2.108   9.419   5.394
 6029POPC   GL175469   1.908   9.581   5.759
 6029POPC   GL275470   2.213   9.668   5.870
 6029POPC   C1A75471   1.874   9.475   6.212
 6029POPC   D2A75472   2.090   9.657   6.591
 6029POPC   C3A75473   1.848   9.642   6.977
 6029POPC   C4A75474   1.883  10.012   7.224
 6029POPC   C1B75475   2.205  10.010   6.174
 6029POPC   C2B75476   2.417  10.055   6.566
 6029POPC   C3B75477   2.340   9.926   7.006
 6029POPC   C4B75478   2.230   9.603   7.319
 6030POPC   NC375479  15.295   4.267   5.621
 6030POPC   PO475480  14.926   4.623   5.187
 6030POPC   GL175481  14.836   4.559   5.687
 6030POPC   GL275482  14.803   4.185   5.817
 6030POPC   C1A75483  15.027   4.591   6.156
 6030POPC   D2A75484  15.268   4.733   6.549
 6030POPC   C3A75485  15.167   4.574   6.957
 6030POPC   C4A75486  15.399   4.428   7.272
 6030POPC   C1B75487  15.085   4.054   6.189
 6030POPC   C2B75488  15.171   4.222   6.590
 6030POPC   C3B75489  15.108   4.071   7.026
 6030POPC   C4B75490  15.113   4.021   7.485
 6031POPC   NC375491   0.589  21.973   5.134
 6031POPC   PO475492   0.303  22.450   5.508
 6031POPC   GL175493   0.381  22.255   5.876
 6031POPC   GL275494   0.563  22.005   5.690
 6031POPC   C1A75495   0.417  22.398   6.320
 6031POPC   D2A75496   0.235  22.498   6.730
 6031POPC   C3A75497   0.404  22.212   7.039
 6031POPC   C4A75498   0.402  21.752   7.146
 6031POPC   C1B75499   0.605  21.910   6.161
 6031POPC   C2B75500   0.611  21.965   6.625
 6031POPC   C3B75501   0.855  21.908   7.020
 6031POPC   C4B75502   0.826  21.810   7.495
 6032POPC   NC375503  36.405   9.448   5.596
 6032POPC   PO475504  36.022   8.958   5.254
 6032POPC   GL175505  35.999   8.774   5.682
 6032POPC   GL275506  36.255   9.002   5.872
 6032POPC   C1A75507  35.876   8.811   6.145
 6032POPC   D2A75508  36.161   8.898   6.513
 6032POPC   C3A75509  35.938   8.885   6.924
 6032POPC   C4A75510  36.048   8.920   7.357
 6032POPC   C1B75511  36.219   9.338   6.252
 6032POPC   C2B75512  36.191   9.367   6.746
 6032POPC   C3B75513  35.904   9.360   7.144
 6032POPC   C4B75514  35.712   9.325   7.596
 6033POPC   NC375515  20.253  14.685   5.397
 6033POPC   PO475516  20.508  15.371   5.488
 6033POPC   GL175517  20.588  15.005   5.786
 6033POPC   GL275518  20.969  14.885   5.772
 6033POPC   C1A75519  20.409  14.952   6.240
 6033POPC   D2A75520  20.277  14.880   6.694
 6033POPC   C3A75521  20.414  15.164   7.028
 6033POPC   C4A75522  20.774  15.411   7.136
 6033POPC   C1B75523  20.901  15.088   6.195
 6033POPC   C2B75524  20.763  15.112   6.637
 6033POPC   C3B75525  21.002  14.945   6.984
 6033POPC   C4B75526  21.036  14.646   7.330
 6034POPC   NC375527  34.927  22.905   5.389
 6034POPC   PO475528  34.364  22.658   5.459
 6034POPC   GL175529  34.551  22.744   5.852
 6034POPC   GL275530  34.897  22.722   5.876
 6034POPC   C1A75531  34.483  22.718   6.296
 6034POPC   D2A75532  34.349  23.005   6.596
 6034POPC   C3A75533  34.423  22.876   7.030
 6034POPC   C4A75534  34.493  22.819   7.468
 6034POPC   C1B75535  34.893  23.021   6.245
 6034POPC   C2B75536  34.848  22.907   6.675
 6034POPC   C3B75537  34.901  22.963   7.138
 6034POPC   C4B75538  34.862  22.517   7.167
 6035POPC   NC375539  30.971  25.712   5.374
 6035POPC   PO475540  30.714  25.009   5.415
 6035POPC   GL175541  30.671  25.140   5.840
 6035POPC   GL275542  30.839  25.470   5.866
 6035POPC   C1A75543  30.638  25.166   6.298
 6035POPC   D2A75544  30.954  25.271   6.527
 6035POPC   C3A75545  30.865  25.204   6.939
 6035POPC   C4A75546  31.062  25.446   7.229
 6035POPC   C1B75547  30.548  25.644   6.188
 6035POPC   C2B75548  30.224  25.570   6.494
 6035POPC   C3B75549  30.393  25.388   6.825
 6035POPC   C4B75550  30.568  25.519   7.198
 6036POPC   NC375551  25.308  22.092   5.351
 6036POPC   PO475552  25.715  22.684   5.499
 6036POPC   GL175553  25.643  22.322   5.792
 6036POPC   GL275554  25.539  21.951   5.786
 6036POPC   C1A75555  25.697  22.155   6.210
 6036POPC   D2A75556  25.473  22.101   6.564
 6036POPC   C3A75557  25.359  22.434   6.819
 6036POPC   C4A75558  25.132  22.290   7.179
 6036POPC   C1B75559  25.195  22.165   6.079
 6036POPC   C2B75560  24.964  22.288   6.490
 6036POPC   C3B75561  24.820  22.042   6.862
 6036POPC   C4B75562  24.819  21.882   7.285
 6037POPC   NC375563   2.435  24.925   5.467
 6037POPC   PO475564   2.861  24.439   5.212
 6037POPC   GL175565   2.771  24.544   5.677
 6037POPC   GL275566   2.750  24.220   5.857
 6037POPC   C1A75567   2.931  24.595   6.122
 6037POPC   D2A75568   2.961  24.266   6.441
 6037POPC   C3A75569   3.052  24.443   6.841
 6037POPC   C4A75570   2.856  24.558   7.220
 6037POPC   C1B75571   2.467  24.210   6.207
 6037POPC   C2B75572   2.444  24.111   6.629
 6037POPC   C3B75573   2.704  24.102   6.977
 6037POPC   C4B75574   2.555  24.124   7.372
 6038POPC   NC375575  31.794   3.948   5.462
 6038POPC   PO475576  31.259   3.414   5.417
 6038POPC   GL175577  31.442   3.676   5.731
 6038POPC   GL275578  31.126   3.848   5.827
 6038POPC   C1A75579  31.587   3.913   6.136
 6038POPC   D2A75580  31.575   3.702   6.551
 6038POPC   C3A75581  31.701   3.754   6.985
 6038POPC   C4A75582  31.631   3.878   7.416
 6038POPC   C1B75583  31.227   3.559   6.164
 6038POPC   C2B75584  31.246   3.320   6.539
 6038POPC   C3B75585  31.269   3.481   6.977
 6038POPC   C4B75586  31.296   3.257   7.378
 6039POPC   NC375587  11.542  11.044   5.445
 6039POPC   PO475588  11.099  10.576   5.154
 6039POPC   GL175589  11.208  10.575   5.638
 6039POPC   GL275590  11.061  10.277   5.786
 6039POPC   C1A75591  11.324  10.691   6.081
 6039POPC   D2A75592  11.263  10.524   6.534
 6039POPC   C3A75593  11.434  10.676   6.945
 6039POPC   C4A75594  11.557  10.708   7.392
 6039POPC   C1B75595  10.939  10.242   6.219
 6039POPC   C2B75596  10.967  10.073   6.636
 6039POPC   C3B75597  11.217  10.218   6.968
 6039POPC   C4B75598  11.169  10.406   7.354
 6040POPC   NC375599  18.322  37.233   5.403
 6040POPC   PO475600  18.002  36.648   5.450
 6040POPC   GL175601  18.209  36.802   5.810
 6040POPC   GL275602  18.574  36.764   5.801
 6040POPC   C1A75603  18.170  36.869   6.258
 6040POPC   D2A75604  18.317  36.783   6.684
 6040POPC   C3A75605  18.145  36.982   7.046
 6040POPC   C4A75606  17.855  36.908   7.405
 6040POPC   C1B75607  18.616  37.095   6.136
 6040POPC   C2B75608  18.763  37.157   6.554
 6040POPC   C3B75609  18.722  36.974   6.954
 6040POPC   C4B75610  18.574  37.127   7.342
 6041POPC   NC375611  14.614  25.287   5.400
 6041POPC   PO475612  13.969  25.179   5.220
 6041POPC   GL175613  14.149  25.255   5.662
 6041POPC   GL275614  14.417  25.496   5.800
 6041POPC   C1A75615  14.107  25.272   6.132
 6041POPC   D2A75616  14.278  25.166   6.537
 6041POPC   C3A75617  14.170  25.388   6.914
 6041POPC   C4A75618  14.098  25.093   7.222
 6041POPC   C1B75619  14.625  25.268   6.132
 6041POPC   C2B75620  14.703  25.437   6.544
 6041POPC   C3B75621  14.673  25.244   6.928
 6041POPC   C4B75622  14.516  25.362   7.304
 6042POPC   NC375623  42.557  27.485   5.500
 6042POPC   PO475624  42.029  27.829   5.477
 6042POPC   GL175625  42.182  27.624   5.820
 6042POPC   GL275626  42.529  27.654   5.984
 6042POPC   C1A75627  42.052  27.422   6.151
 6042POPC   D2A75628  42.332  27.477   6.496
 6042POPC   C3A75629  42.158  27.411   6.886
 6042POPC   C4A75630  42.521  27.269   7.090
 6042POPC   C1B75631  42.700  27.968   6.284
 6042POPC   C2B75632  42.816  27.921   6.710
 6042POPC   C3B75633  42.504  27.782   6.996
 6042POPC   C4B75634  42.538  27.688   7.440
 6043POPC   NC375635   6.055  35.518   5.406
 6043POPC   PO475636   5.720  34.987   5.419
 6043POPC   GL175637   5.722  35.162   5.810
 6043POPC   GL275638   5.743  35.532   5.823
 6043POPC   C1A75639   5.791  35.118   6.223
 6043POPC   D2A75640   6.026  35.182   6.567
 6043POPC   C3A75641   5.856  34.956   6.877
 6043POPC   C4A75642   5.781  35.164   7.247
 6043POPC   C1B75643   6.013  35.579   6.185
 6043POPC   C2B75644   5.895  35.679   6.613
 6043POPC   C3B75645   5.939  35.640   7.060
 6043POPC   C4B75646   5.669  35.831   7.363
 6044POPC   NC375647  44.183  41.698   5.361
 6044POPC   PO475648  44.816  41.548   5.323
 6044POPC   GL175649  44.642  41.592   5.771
 6044POPC   GL275650  44.464  41.900   5.787
 6044POPC   C1A75651  44.581  41.389   6.218
 6044POPC   D2A75652  44.764  41.275   6.648
 6044POPC   C3A75653  44.662  41.273   7.109
 6044POPC   C4A75654   0.001  41.443   7.388
 6044POPC   C1B75655  44.682  41.882   6.201
 6044POPC   C2B75656  44.592  41.765   6.640
 6044POPC   C3B75657  44.763  41.777   7.071
 6044POPC   C4B75658  44.623  41.780   7.544
 6045POPC   NC375659  11.976  32.546   5.625
 6045POPC   PO475660  11.479  32.161   5.326
 6045POPC   GL175661  11.630  32.094   5.795
 6045POPC   GL275662  11.808  32.378   6.060
 6045POPC   C1A75663  11.854  31.874   6.140
 6045POPC   D2A75664  12.016  32.122   6.456
 6045POPC   C3A75665  12.139  32.003   6.805
 6045POPC   C4A75666  12.141  32.093   7.243
 6045POPC   C1B75667  12.219  32.549   6.313
 6045POPC   C2B75668  12.243  32.504   6.781
 6045POPC   C3B75669  12.241  32.585   7.229
 6045POPC   C4B75670  12.403  32.804   7.603
 6046POPC   NC375671   7.845  17.166   5.535
 6046POPC   PO475672   8.507  17.263   5.343
 6046POPC   GL175673   8.301  17.303   5.742
 6046POPC   GL275674   8.144  17.565   5.847
 6046POPC   C1A75675   8.392  17.309   6.188
 6046POPC   D2A75676   8.187  17.345   6.588
 6046POPC   C3A75677   8.506  17.414   6.888
 6046POPC   C4A75678   8.346  17.378   7.263
 6046POPC   C1B75679   8.133  17.769   6.228
 6046POPC   C2B75680   7.969  17.815   6.611
 6046POPC   C3B75681   8.179  17.779   6.980
 6046POPC   C4B75682   7.980  17.732   7.361
 6047POPC   NC375683  17.002  18.546   5.393
 6047POPC   PO475684  16.500  18.173   5.117
 6047POPC   GL175685  16.528  18.297   5.598
 6047POPC   GL275686  16.838  18.276   5.777
 6047POPC   C1A75687  16.432  18.390   6.065
 6047POPC   D2A75688  16.575  18.471   6.507
 6047POPC   C3A75689  16.375  18.258   6.847
 6047POPC   C4A75690  16.529  18.401   7.215
 6047POPC   C1B75691  16.840  18.080   6.149
 6047POPC   C2B75692  16.749  17.984   6.553
 6047POPC   C3B75693  16.887  18.205   6.898
 6047POPC   C4B75694  17.002  18.064   7.271
 6048POPC   NC375695  24.343   0.004   5.525
 6048POPC   PO475696  24.751  44.424   5.530
 6048POPC   GL175697  24.489  44.540   5.880
 6048POPC   GL275698  24.659  44.848   5.900
 6048POPC   C1A75699  24.417  44.662   6.335
 6048POPC   D2A75700  24.221  44.633   6.756
 6048POPC   C3A75701  24.465  44.426   7.073
 6048POPC   C4A75702  24.463  44.403   7.507
 6048POPC   C1B75703  24.778   0.055   6.270
 6048POPC   C2B75704  24.523   0.156   6.636
 6048POPC   C3B75705  24.529  44.992   7.064
 6048POPC   C4B75706  24.680  44.844   7.457
 6049POPC   NC375707  14.960  11.871   5.455
 6049POPC   PO475708  15.597  11.880   5.430
 6049POPC   GL175709  15.325  11.984   5.793
 6049POPC   GL275710  15.212  12.321   5.815
 6049POPC   C1A75711  15.086  12.045   6.196
 6049POPC   D2A75712  14.948  12.164   6.587
 6049POPC   C3A75713  15.243  12.046   6.888
 6049POPC   C4A75714  15.050  11.979   7.259
 6049POPC   C1B75715  15.390  12.503   6.231
 6049POPC   C2B75716  15.264  12.572   6.691
 6049POPC   C3B75717  15.155  12.484   7.162
 6049POPC   C4B75718  15.148  12.509   7.631
 6050POPC   NC375719  28.603   9.407   5.397
 6050POPC   PO475720  28.858  10.018   5.390
 6050POPC   GL175721  28.672   9.995   5.851
 6050POPC   GL275722  28.562   9.653   5.840
 6050POPC   C1A75723  28.492   9.820   6.323
 6050POPC   D2A75724  28.120   9.706   6.644
 6050POPC   C3A75725  28.119   9.741   7.103
 6050POPC   C4A75726  28.513   9.794   7.269
 6050POPC   C1B75727  28.827   9.438   6.133
 6050POPC   C2B75728  28.704   9.320   6.526
 6050POPC   C3B75729  28.521   9.461   6.891
 6050POPC   C4B75730  28.475   9.294   7.304
 6051POPC   NC375731  43.775  37.455   5.223
 6051POPC   PO475732  44.096  36.857   5.330
 6051POPC   GL175733  43.952  36.910   5.727
 6051POPC   GL275734  43.645  37.096   5.808
 6051POPC   C1A75735  44.124  36.906   6.113
 6051POPC   D2A75736  44.242  36.770   6.514
 6051POPC   C3A75737  44.331  37.087   6.816
 6051POPC   C4A75738  44.083  36.904   7.128
 6051POPC   C1B75739  43.675  37.239   6.260
 6051POPC   C2B75740  43.810  37.122   6.680
 6051POPC   C3B75741  43.590  37.102   7.076
 6051POPC   C4B75742  43.590  37.298   7.471
 6052POPC   NC375743   4.487  33.776   5.173
 6052POPC   PO475744   4.796  33.354   5.542
 6052POPC   GL175745   4.626  33.764   5.695
 6052POPC   GL275746   4.263  33.812   5.696
 6052POPC   C1A75747   4.564  33.840   6.138
 6052POPC   D2A75748   4.392  33.583   6.492
 6052POPC   C3A75749   4.508  33.724   6.912
 6052POPC   C4A75750   4.560  34.146   7.136
 6052POPC   C1B75751   4.089  33.995   6.094
 6052POPC   C2B75752   4.221  34.055   6.534
 6052POPC   C3B75753   4.093  34.035   6.968
 6052POPC   C4B75754   3.913  33.987   7.367
 6053POPC   NC375755  12.641  20.826   5.592
 6053POPC   PO475756  13.036  20.371   5.430
 6053POPC   GL175757  12.993  20.560   5.846
 6053POPC   GL275758  13.070  20.944   5.877
 6053POPC   C1A75759  12.857  20.429   6.243
 6053POPC   D2A75760  12.977  20.581   6.651
 6053POPC   C3A75761  12.950  20.282   6.980
 6053POPC   C4A75762  13.167  20.189   7.410
 6053POPC   C1B75763  12.835  20.962   6.276
 6053POPC   C2B75764  12.705  21.038   6.690
 6053POPC   C3B75765  12.698  20.787   7.035
 6053POPC   C4B75766  12.974  20.663   7.329
 6054POPC   NC375767  12.633  44.277   5.579
 6054POPC   PO475768  12.902  44.902   5.487
 6054POPC   GL175769  12.882  44.674   5.846
 6054POPC   GL275770  13.109  44.393   5.768
 6054POPC   C1A75771  12.926  44.929   6.214
 6054POPC   D2A75772  13.000  44.754   6.591
 6054POPC   C3A75773  13.029   0.032   6.904
 6054POPC   C4A75774  13.051  44.892   7.296
 6054POPC   C1B75775  12.942  44.208   6.157
 6054POPC   C2B75776  12.791  44.257   6.561
 6054POPC   C3B75777  12.949  44.369   6.961
 6054POPC   C4B75778  12.867  44.433   7.384
 6055POPC   NC375779  30.191  43.972   5.286
 6055POPC   PO475780  29.545  43.744   5.229
 6055POPC   GL175781  29.759  43.839   5.725
 6055POPC   GL275782  30.112  43.964   5.883
 6055POPC   C1A75783  29.715  44.115   6.150
 6055POPC   D2A75784  29.693  44.246   6.589
 6055POPC   C3A75785  29.797  43.969   6.936
 6055POPC   C4A75786  29.800  43.986   7.391
 6055POPC   C1B75787  30.193  44.310   6.229
 6055POPC   C2B75788  30.236  44.292   6.716
 6055POPC   C3B75789  30.251  44.083   7.147
 6055POPC   C4B75790  30.194  43.613   7.309
 6056POPC   NC375791  32.724  18.931   5.366
 6056POPC   PO475792  33.393  18.865   5.478
 6056POPC   GL175793  33.063  18.920   5.766
 6056POPC   GL275794  33.185  19.194   5.832
 6056POPC   C1A75795  32.909  19.081   6.217
 6056POPC   D2A75796  32.946  19.378   6.563
 6056POPC   C3A75797  32.997  19.167   6.925
 6056POPC   C4A75798  32.804  19.054   7.279
 6056POPC   C1B75799  33.404  18.937   6.149
 6056POPC   C2B75800  33.380  19.089   6.545
 6056POPC   C3B75801  33.512  18.993   6.915
 6056POPC   C4B75802  33.279  18.843   7.229
 6057POPC   NC375803  42.847   4.165   5.189
 6057POPC   PO475804  42.993   4.706   5.507
 6057POPC   GL175805  43.023   4.409   5.862
 6057POPC   GL275806  42.805   4.081   5.806
 6057POPC   C1A75807  43.072   4.394   6.321
 6057POPC   D2A75808  43.263   4.294   6.717
 6057POPC   C3A75809  43.159   4.456   7.102
 6057POPC   C4A75810  43.342   4.198   7.447
 6057POPC   C1B75811  42.705   3.887   6.233
 6057POPC   C2B75812  42.953   3.896   6.628
 6057POPC   C3B75813  42.973   3.975   7.080
 6057POPC   C4B75814  42.803   3.884   7.487
 6058POPC   NC375815  26.600  27.336   5.397
 6058POPC   PO475816  27.072  27.810   5.360
 6058POPC   GL175817  26.950  27.545   5.703
 6058POPC   GL275818  26.635  27.600   5.875
 6058POPC   C1A75819  27.068  27.506   6.132
 6058POPC   D2A75820  26.969  27.397   6.543
 6058POPC   C3A75821  27.041  27.639   6.914
 6058POPC   C4A75822  26.839  27.684   7.308
 6058POPC   C1B75823  26.556  27.644   6.334
 6058POPC   C2B75824  26.510  27.482   6.780
 6058POPC   C3B75825  26.456  27.356   7.233
 6058POPC   C4B75826  26.321  27.219   7.700
 6059POPC   NC375827  36.755  18.684   5.511
 6059POPC   PO475828  37.089  19.262   5.406
 6059POPC   GL175829  37.015  19.068   5.754
 6059POPC   GL275830  36.667  19.195   5.785
 6059POPC   C1A75831  37.198  18.777   6.061
 6059POPC   D2A75832  37.094  18.696   6.476
 6059POPC   C3A75833  37.171  18.926   6.849
 6059POPC   C4A75834  36.829  18.915   7.123
 6059POPC   C1B75835  36.754  19.021   6.215
 6059POPC   C2B75836  36.746  19.171   6.656
 6059POPC   C3B75837  36.804  19.409   7.053
 6059POPC   C4B75838  36.537  19.264   7.422
 6060POPC   NC375839  32.688   5.335   5.355
 6060POPC   PO475840  33.163   4.895   5.485
 6060POPC   GL175841  32.837   5.015   5.778
 6060POPC   GL275842  32.822   5.391   5.845
 6060POPC   C1A75843  32.923   5.060   6.230
 6060POPC   D2A75844  32.810   5.217   6.644
 6060POPC   C3A75845  33.118   5.176   6.964
 6060POPC   C4A75846  33.109   4.900   7.311
 6060POPC   C1B75847  32.666   5.556   6.228
 6060POPC   C2B75848  32.647   5.720   6.619
 6060POPC   C3B75849  32.554   5.494   6.993
 6060POPC   C4B75850  32.838   5.364   7.346
 6061POPC   NC375851   3.118  20.221   5.222
 6061POPC   PO475852   2.500  20.096   5.294
 6061POPC   GL175853   2.760  19.917   5.702
 6061POPC   GL275854   2.884  19.538   5.779
 6061POPC   C1A75855   2.720  19.841   6.177
 6061POPC   D2A75856   2.625  20.097   6.562
 6061POPC   C3A75857   2.628  19.883   6.956
 6061POPC   C4A75858   2.993  19.847   7.161
 6061POPC   C1B75859   3.036  19.399   6.189
 6061POPC   C2B75860   3.046  19.555   6.640
 6061POPC   C3B75861   2.856  19.371   7.027
 6061POPC   C4B75862   2.796  19.360   7.488
 6062POPC   NC375863  31.631  10.951   5.503
 6062POPC   PO475864  31.418  11.565   5.372
 6062POPC   GL175865  31.503  11.416   5.801
 6062POPC   GL275866  31.249  11.173   5.898
 6062POPC   C1A75867  31.700  11.267   6.214
 6062POPC   D2A75868  31.638  10.945   6.543
 6062POPC   C3A75869  31.480  11.079   6.918
 6062POPC   C4A75870  31.532  11.202   7.314
 6062POPC   C1B75871  31.187  11.157   6.367
 6062POPC   C2B75872  31.229  11.453   6.691
 6062POPC   C3B75873  31.173  11.593   7.105
 6062POPC   C4B75874  31.185  11.496   7.560
 6063POPC   NC375875  19.973  34.688   5.433
 6063POPC   PO475876  19.467  34.304   5.334
 6063POPC   GL175877  19.636  34.475   5.766
 6063POPC   GL275878  19.977  34.409   5.863
 6063POPC   C1A75879  19.691  34.664   6.227
 6063POPC   D2A75880  19.733  34.877   6.679
 6063POPC   C3A75881  19.782  34.649   7.054
 6063POPC   C4A75882  19.381  34.455   7.102
 6063POPC   C1B75883  20.216  34.476   6.276
 6063POPC   C2B75884  20.151  34.401   6.749
 6063POPC   C3B75885  20.133  34.298   7.198
 6063POPC   C4B75886  20.246  34.335   7.666
 6064POPC   NC375887   3.009  29.521   5.362
 6064POPC   PO475888   2.733  28.952   5.540
 6064POPC   GL175889   2.818  29.261   5.810
 6064POPC   GL275890   2.484  29.409   5.719
 6064POPC   C1A75891   2.740  29.047   6.203
 6064POPC   D2A75892   2.732  28.763   6.559
 6064POPC   C3A75893   2.781  28.996   6.936
 6064POPC   C4A75894   2.971  29.207   7.281
 6064POPC   C1B75895   2.537  29.522   6.146
 6064POPC   C2B75896   2.666  29.375   6.570
 6064POPC   C3B75897   2.626  29.559   6.918
 6064POPC   C4B75898   2.569  29.524   7.312
 6065POPC   NC375899  44.255   4.120   5.588
 6065POPC   PO475900  43.643   4.221   5.398
 6065POPC   GL175901  43.786   4.431   5.800
 6065POPC   GL275902  43.657   4.774   5.927
 6065POPC   C1A75903  43.966   4.316   6.205
 6065POPC   D2A75904  44.145   4.070   6.541
 6065POPC   C3A75905  44.200   4.273   6.939
 6065POPC   C4A75906  44.148   4.445   7.337
 6065POPC   C1B75907  43.550   4.590   6.312
 6065POPC   C2B75908  43.758   4.421   6.676
 6065POPC   C3B75909  43.689   4.446   7.093
 6065POPC   C4B75910  43.651   4.855   7.225
 6066POPC   NC375911  14.500   3.935   5.429
 6066POPC   PO475912  14.152   3.390   5.371
 6066POPC   GL175913  14.368   3.296   5.768
 6066POPC   GL275914  14.486   3.624   5.859
 6066POPC   C1A75915  14.520   3.165   6.172
 6066POPC   D2A75916  14.478   3.469   6.506
 6066POPC   C3A75917  14.426   3.317   6.901
 6066POPC   C4A75918  14.230   3.541   7.185
 6066POPC   C1B75919  14.622   3.869   6.200
 6066POPC   C2B75920  14.806   3.855   6.636
 6066POPC   C3B75921  14.715   3.738   7.065
 6066POPC   C4B75922  14.637   3.840   7.503
 6067POPC   NC375923  21.332  29.098   5.285
 6067POPC   PO475924  21.343  29.711   5.166
 6067POPC   GL175925  21.285  29.372   5.682
 6067POPC   GL275926  21.162  29.031   5.815
 6067POPC   C1A75927  21.433  29.336   6.157
 6067POPC   D2A75928  21.493  29.505   6.579
 6067POPC   C3A75929  21.354  29.377   6.964
 6067POPC   C4A75930  21.587  29.388   7.333
 6067POPC   C1B75931  21.162  28.936   6.288
 6067POPC   C2B75932  21.499  28.973   6.602
 6067POPC   C3B75933  21.581  28.921   7.037
 6067POPC   C4B75934  21.247  28.995   7.316
 6068POPC   NC375935   9.429   8.077   5.343
 6068POPC   PO475936   9.800   8.687   5.387
 6068POPC   GL175937   9.750   8.503   5.827
 6068POPC   GL275938   9.571   8.169   5.819
 6068POPC   C1A75939   9.998   8.158   6.090
 6068POPC   D2A75940   9.986   7.922   6.512
 6068POPC   C3A75941   9.687   8.062   6.853
 6068POPC   C4A75942   9.729   8.072   7.297
 6068POPC   C1B75943   9.531   8.162   6.282
 6068POPC   C2B75944   9.780   8.458   6.536
 6068POPC   C3B75945   9.626   8.623   6.919
 6068POPC   C4B75946   9.783   8.585   7.312
 6069POPC   NC375947  13.804  26.517   5.478
 6069POPC   PO475948  13.637  27.138   5.333
 6069POPC   GL175949  13.574  27.162   5.762
 6069POPC   GL275950  13.512  26.818   5.842
 6069POPC   C1A75951  13.567  27.173   6.208
 6069POPC   D2A75952  13.326  27.132   6.589
 6069POPC   C3A75953  13.550  27.072   6.972
 6069POPC   C4A75954  13.635  26.681   7.183
 6069POPC   C1B75955  13.681  26.690   6.249
 6069POPC   C2B75956  13.610  26.644   6.662
 6069POPC   C3B75957  13.855  26.344   6.879
 6069POPC   C4B75958  14.052  26.277   7.246
 6070POPC   NC375959  33.904  43.882   5.297
 6070POPC   PO475960  33.247  43.839   5.220
 6070POPC   GL175961  33.547  43.837   5.675
 6070POPC   GL275962  33.920  44.002   5.788
 6070POPC   C1A75963  33.563  43.910   6.153
 6070POPC   D2A75964  33.637  43.730   6.590
 6070POPC   C3A75965  33.590  43.996   6.970
 6070POPC   C4A75966  33.310  44.019   7.312
 6070POPC   C1B75967  33.931  44.252   6.201
 6070POPC   C2B75968  34.067  44.132   6.631
 6070POPC   C3B75969  34.002  44.321   7.047
 6070POPC   C4B75970  34.180  44.252   7.504
 6071POPC   NC375971   0.276  10.902   5.096
 6071POPC   PO475972   0.261  11.414   5.471
 6071POPC   GL175973   0.529  11.601   5.775
 6071POPC   GL275974   0.471  11.270   5.922
 6071POPC   C1A75975   0.646  11.617   6.214
 6071POPC   D2A75976   0.379  11.346   6.437
 6071POPC   C3A75977   0.444  11.392   6.823
 6071POPC   C4A75978   0.445  11.419   7.217
 6071POPC   C1B75979   0.699  11.017   6.227
 6071POPC   C2B75980   0.627  10.936   6.673
 6071POPC   C3B75981   0.535  10.943   7.104
 6071POPC   C4B75982   0.299  11.014   7.489
 6072POPC   NC375983   0.582  20.460   5.216
 6072POPC   PO475984   0.323  20.930   5.628
 6072POPC   GL175985   0.367  20.549   5.843
 6072POPC   GL275986   0.679  20.428   5.725
 6072POPC   C1A75987   0.303  20.423   6.271
 6072POPC   D2A75988   0.220  20.695   6.640
 6072POPC   C3A75989   0.212  20.571   7.086
 6072POPC   C4A75990   0.108  20.885   7.401
 6072POPC   C1B75991   0.790  20.681   6.119
 6072POPC   C2B75992   0.790  20.627   6.581
 6072POPC   C3B75993   0.647  20.828   6.963
 6072POPC   C4B75994   0.596  20.709   7.415
 6073POPC   NC375995  43.423   6.509   5.582
 6073POPC   PO475996  42.968   6.981   5.493
 6073POPC   GL175997  43.032   6.732   5.848
 6073POPC   GL275998  43.358   6.863   5.966
 6073POPC   C1A75999  42.991   6.667   6.281
 6073POPC   D2A76000  43.314   6.852   6.546
 6073POPC   C3A76001  43.417   6.745   6.985
 6073POPC   C4A76002  43.129   6.806   7.309
 6073POPC   C1B76003  43.447   6.457   6.218
 6073POPC   C2B76004  43.241   6.334   6.588
 6073POPC   C3B76005  43.007   6.482   6.925
 6073POPC   C4B76006  43.253   6.315   7.261
 6074POPC   NC376007  17.400   8.611   5.497
 6074POPC   PO476008  17.619   7.966   5.399
 6074POPC   GL176009  17.541   8.165   5.803
 6074POPC   GL276010  17.515   8.494   5.972
 6074POPC   C1A76011  17.647   8.038   6.208
 6074POPC   D2A76012  17.538   8.153   6.606
 6074POPC   C3A76013  17.638   7.821   6.856
 6074POPC   C4A76014  17.665   7.862   7.253
 6074POPC   C1B76015  17.406   8.659   6.370
 6074POPC   C2B76016  17.631   8.666   6.746
 6074POPC   C3B76017  17.743   8.334   7.046
 6074POPC   C4B76018  17.297   8.225   7.108
 6075POPC   NC376019  16.013  28.567   5.326
 6075POPC   PO476020  15.900  27.923   5.382
 6075POPC   GL176021  16.062  28.176   5.702
 6075POPC   GL276022  15.852  28.484   5.797
 6075POPC   C1A76023  16.011  28.122   6.147
 6075POPC   D2A76024  15.892  28.438   6.439
 6075POPC   C3A76025  15.879  28.393   6.895
 6075POPC   C4A76026  15.746  28.114   7.229
 6075POPC   C1B76027  16.245  28.562   6.035
 6075POPC   C2B76028  16.405  28.620   6.471
 6075POPC   C3B76029  16.404  28.421   6.890
 6075POPC   C4B76030  16.189  28.430   7.301
 6076POPC   NC376031  26.723  19.570   5.439
 6076POPC   PO476032  27.127  20.078   5.307
 6076POPC   GL176033  26.920  19.973   5.712
 6076POPC   GL276034  26.548  19.937   5.761
 6076POPC   C1A76035  26.908  19.812   6.152
 6076POPC   D2A76036  27.139  19.758   6.550
 6076POPC   C3A76037  26.926  19.726   6.940
 6076POPC   C4A76038  26.789  20.078   7.185
 6076POPC   C1B76039  26.391  19.806   6.162
 6076POPC   C2B76040  26.538  19.854   6.594
 6076POPC   C3B76041  26.366  19.852   7.021
 6076POPC   C4B76042  26.365  19.924   7.490
 6077POPC   NC376043  24.345  13.490   5.439
 6077POPC   PO476044  23.613  13.646   5.395
 6077POPC   GL176045  23.706  13.620   5.808
 6077POPC   GL276046  23.996  13.377   5.840
 6077POPC   C1A76047  23.520  13.812   6.209
 6077POPC   D2A76048  23.676  13.840   6.659
 6077POPC   C3A76049  23.519  13.537   6.968
 6077POPC   C4A76050  23.517  13.447   7.421
 6077POPC   C1B76051  24.013  13.682   6.206
 6077POPC   C2B76052  24.218  13.687   6.591
 6077POPC   C3B76053  24.120  13.870   6.943
 6077POPC   C4B76054  23.939  13.665   7.262
 6078POPC   NC376055   5.259  16.302   5.548
 6078POPC   PO476056   4.931  15.715   5.329
 6078POPC   GL176057   5.097  15.829   5.738
 6078POPC   GL276058   5.135  15.499   5.826
 6078POPC   C1A76059   4.916  15.962   6.152
 6078POPC   D2A76060   4.644  16.010   6.519
 6078POPC   C3A76061   4.894  16.047   6.910
 6078POPC   C4A76062   5.084  16.073   7.325
 6078POPC   C1B76063   5.365  15.730   6.192
 6078POPC   C2B76064   5.406  15.883   6.657
 6078POPC   C3B76065   5.233  15.657   7.015
 6078POPC   C4B76066   5.167  15.606   7.440
 6079POPC   NC376067  17.846  29.281   5.134
 6079POPC   PO476068  18.299  29.779   5.192
 6079POPC   GL176069  18.434  29.779   5.683
 6079POPC   GL276070  18.149  29.606   5.883
 6079POPC   C1A76071  18.477  29.880   6.148
 6079POPC   D2A76072  18.277  30.038   6.536
 6079POPC   C3A76073  18.396  29.886   6.947
 6079POPC   C4A76074  18.614  29.714   7.296
 6079POPC   C1B76075  17.995  29.605   6.290
 6079POPC   C2B76076  18.023  29.599   6.714
 6079POPC   C3B76077  17.879  29.720   7.076
 6079POPC   C4B76078  18.132  29.833   7.422
 6080POPC   NC376079  22.449  13.447   5.384
 6080POPC   PO476080  21.784  13.385   5.630
 6080POPC   GL176081  21.979  13.649   5.944
 6080POPC   GL276082  22.327  13.752   5.839
 6080POPC   C1A76083  22.155  13.802   6.318
 6080POPC   D2A76084  22.204  13.562   6.653
 6080POPC   C3A76085  21.927  13.493   6.985
 6080POPC   C4A76086  21.841  13.295   7.376
 6080POPC   C1B76087  22.560  13.492   6.177
 6080POPC   C2B76088  22.704  13.488   6.614
 6080POPC   C3B76089  22.516  13.625   7.035
 6080POPC   C4B76090  22.681  13.425   7.372
 6081POPC   NC376091   1.023  37.034   5.356
 6081POPC   PO476092   1.622  36.679   5.346
 6081POPC   GL176093   1.291  36.745   5.701
 6081POPC   GL276094   0.940  36.883   5.815
 6081POPC   C1A76095   1.344  36.858   6.142
 6081POPC   D2A76096   1.562  36.729   6.492
 6081POPC   C3A76097   1.394  36.866   6.862
 6081POPC   C4A76098   1.511  37.002   7.271
 6081POPC   C1B76099   0.842  36.655   6.175
 6081POPC   C2B76100   1.041  36.458   6.523
 6081POPC   C3B76101   0.969  36.566   6.947
 6081POPC   C4B76102   0.909  36.431   7.362
 6082POPC   NC376103  39.673  18.574   5.491
 6082POPC   PO476104  40.244  18.461   5.625
 6082POPC   GL176105  40.094  18.158   5.893
 6082POPC   GL276106  39.736  18.146   5.823
 6082POPC   C1A76107  40.014  18.306   6.322
 6082POPC   D2A76108  40.088  18.670   6.645
 6082POPC   C3A76109  40.259  18.570   7.064
 6082POPC   C4A76110  40.089  18.353   7.407
 6082POPC   C1B76111  39.544  18.406   6.178
 6082POPC   C2B76112  39.615  18.472   6.626
 6082POPC   C3B76113  39.714  18.446   7.047
 6082POPC   C4B76114  39.599  18.132   7.310
 6083POPC   NC376115  30.279  42.555   5.278
 6083POPC   PO476116  29.669  42.336   5.071
 6083POPC   GL176117  29.708  42.419   5.585
 6083POPC   GL276118  30.017  42.338   5.749
 6083POPC   C1A76119  29.620  42.379   6.061
 6083POPC   D2A76120  29.857  42.453   6.472
 6083POPC   C3A76121  29.753  42.271   6.913
 6083POPC   C4A76122  29.774  42.544   7.295
 6083POPC   C1B76123  30.213  42.173   6.155
 6083POPC   C2B76124  30.351  42.353   6.547
 6083POPC   C3B76125  30.198  42.512   6.918
 6083POPC   C4B76126  30.181  42.256   7.250
 6084POPC   NC376127   1.045  22.892   5.256
 6084POPC   PO476128   1.560  23.187   5.607
 6084POPC   GL176129   1.190  23.065   5.819
 6084POPC   GL276130   1.133  22.748   5.879
 6084POPC   C1A76131   1.152  23.158   6.254
 6084POPC   D2A76132   1.334  23.059   6.667
 6084POPC   C3A76133   1.106  22.817   6.965
 6084POPC   C4A76134   0.935  22.892   7.327
 6084POPC   C1B76135   1.386  22.688   6.218
 6084POPC   C2B76136   1.331  22.544   6.593
 6084POPC   C3B76137   1.562  22.617   6.926
 6084POPC   C4B76138   1.567  22.956   7.159
 6085POPC   NC376139  22.476  15.448   5.516
 6085POPC   PO476140  21.816  15.494   5.387
 6085POPC   GL176141  21.952  15.762   5.759
 6085POPC   GL276142  22.311  15.857   5.785
 6085POPC   C1A76143  21.975  15.987   6.178
 6085POPC   D2A76144  22.208  16.028   6.583
 6085POPC   C3A76145  21.980  16.074   6.975
 6085POPC   C4A76146  21.802  15.917   7.368
 6085POPC   C1B76147  22.344  15.606   6.161
 6085POPC   C2B76148  22.504  15.584   6.577
 6085POPC   C3B76149  22.278  15.601   6.941
 6085POPC   C4B76150  22.274  15.798   7.328
 6086POPC   NC376151  17.105  10.375   5.411
 6086POPC   PO476152  16.476  10.309   5.139
 6086POPC   GL176153  16.620  10.591   5.548
 6086POPC   GL276154  16.770  10.358   5.777
 6086POPC   C1A76155  16.549  10.721   6.029
 6086POPC   D2A76156  16.802  10.716   6.448
 6086POPC   C3A76157  16.662  10.470   6.807
 6086POPC   C4A76158  16.497  10.599   7.246
 6086POPC   C1B76159  16.736  10.268   6.199
 6086POPC   C2B76160  16.958  10.019   6.471
 6086POPC   C3B76161  17.154  10.148   6.832
 6086POPC   C4B76162  16.910  10.264   7.195
 6087POPC   NC376163  44.115  24.209   5.040
 6087POPC   PO476164  43.859  23.809   5.496
 6087POPC   GL176165  43.978  23.631   5.873
 6087POPC   GL276166  43.825  23.894   5.995
 6087POPC   C1A76167  43.944  23.498   6.320
 6087POPC   D2A76168  43.792  23.682   6.727
 6087POPC   C3A76169  43.741  23.433   7.101
 6087POPC   C4A76170  43.867  23.428   7.536
 6087POPC   C1B76171  44.165  24.020   6.234
 6087POPC   C2B76172  44.228  24.274   6.576
 6087POPC   C3B76173  44.208  24.110   6.992
 6087POPC   C4B76174  43.827  23.936   7.196
 6088POPC   NC376175  20.529  24.025   5.468
 6088POPC   PO476176  20.658  24.706   5.268
 6088POPC   GL176177  20.539  24.720   5.728
 6088POPC   GL276178  20.727  24.420   5.836
 6088POPC   C1A76179  20.558  24.756   6.210
 6088POPC   D2A76180  20.665  24.565   6.626
 6088POPC   C3A76181  20.516  24.752   7.013
 6088POPC   C4A76182  20.441  24.806   7.456
 6088POPC   C1B76183  20.380  24.275   6.140
 6088POPC   C2B76184  20.384  24.106   6.556
 6088POPC   C3B76185  20.623  24.139   6.937
 6088POPC   C4B76186  20.859  24.127   7.316
 6089POPC   NC376187   5.338  41.151   5.434
 6089POPC   PO476188   5.549  40.472   5.513
 6089POPC   GL176189   5.574  40.815   5.838
 6089POPC   GL276190   5.880  40.975   5.961
 6089POPC   C1A76191   5.598  40.727   6.289
 6089POPC   D2A76192   5.647  40.607   6.730
 6089POPC   C3A76193   5.753  40.853   7.092
 6089POPC   C4A76194   6.112  41.028   7.277
 6089POPC   C1B76195   6.079  40.838   6.369
 6089POPC   C2B76196   6.157  40.685   6.803
 6089POPC   C3B76197   6.449  40.677   7.158
 6089POPC   C4B76198   6.469  40.746   7.594
 6090POPC   NC376199   9.674   7.164   5.017
 6090POPC   PO476200   9.704   7.693   5.444
 6090POPC   GL176201   9.927   7.662   5.856
 6090POPC   GL276202  10.178   7.383   5.840
 6090POPC   C1A76203   9.736   7.536   6.256
 6090POPC   D2A76204   9.580   7.599   6.673
 6090POPC   C3A76205   9.634   7.277   6.968
 6090POPC   C4A76206  10.004   7.057   7.165
 6090POPC   C1B76207  10.210   7.354   6.291
 6090POPC   C2B76208  10.041   7.382   6.684
 6090POPC   C3B76209  10.007   7.665   7.020
 6090POPC   C4B76210  10.296   7.860   7.293
 6091POPC   NC376211  39.489  21.998   5.399
 6091POPC   PO476212  39.377  22.579   5.573
 6091POPC   GL176213  39.382  22.262   5.891
 6091POPC   GL276214  39.202  21.953   5.818
 6091POPC   C1A76215  39.171  22.176   6.277
 6091POPC   D2A76216  39.081  21.980   6.669
 6091POPC   C3A76217  39.017  22.221   7.041
 6091POPC   C4A76218  38.918  22.100   7.434
 6091POPC   C1B76219  39.426  21.757   6.167
 6091POPC   C2B76220  39.639  21.951   6.503
 6091POPC   C3B76221  39.526  22.101   6.913
 6091POPC   C4B76222  39.280  21.801   7.143
 6092POPC   NC376223  31.349   5.787   5.287
 6092POPC   PO476224  31.111   5.129   5.540
 6092POPC   GL176225  31.220   5.543   5.794
 6092POPC   GL276226  31.341   5.919   5.799
 6092POPC   C1A76227  31.211   5.691   6.241
 6092POPC   D2A76228  31.122   5.885   6.688
 6092POPC   C3A76229  31.287   5.631   7.058
 6092POPC   C4A76230  31.664   5.570   7.374
 6092POPC   C1B76231  31.302   6.189   6.187
 6092POPC   C2B76232  31.104   6.383   6.548
 6092POPC   C3B76233  31.152   6.322   7.022
 6092POPC   C4B76234  31.409   6.055   7.295
 6093POPC   NC376235  16.278  43.716   5.446
 6093POPC   PO476236  15.630  43.929   5.362
 6093POPC   GL176237  15.814  43.724   5.730
 6093POPC   GL276238  16.018  43.988   5.819
 6093POPC   C1A76239  15.808  43.636   6.185
 6093POPC   D2A76240  16.050  43.795   6.540
 6093POPC   C3A76241  15.930  43.936   6.931
 6093POPC   C4A76242  15.692  43.803   7.280
 6093POPC   C1B76243  15.882  44.169   6.186
 6093POPC   C2B76244  15.691  44.412   6.496
 6093POPC   C3B76245  15.513  44.244   6.877
 6093POPC   C4B76246  15.554  44.393   7.267
 6094POPC   NC376247  12.556   6.405   5.397
 6094POPC   PO476248  11.894   6.761   5.383
 6094POPC   GL176249  11.912   6.637   5.785
 6094POPC   GL276250  12.215   6.506   5.745
 6094POPC   C1A76251  12.183   6.795   6.159
 6094POPC   D2A76252  12.163   7.026   6.536
 6094POPC   C3A76253  12.044   6.721   6.805
 6094POPC   C4A76254  11.949   6.538   7.172
 6094POPC   C1B76255  12.116   6.276   6.123
 6094POPC   C2B76256  12.118   6.256   6.567
 6094POPC   C3B76257  12.344   6.261   6.955
 6094POPC   C4B76258  12.390   6.357   7.379
 6095POPC   NC376259  14.778   7.633   5.544
 6095POPC   PO476260  14.098   7.483   5.336
 6095POPC   GL176261  14.353   7.373   5.681
 6095POPC   GL276262  14.322   7.694   5.777
 6095POPC   C1A76263  14.532   7.249   6.090
 6095POPC   D2A76264  14.827   7.097   6.449
 6095POPC   C3A76265  14.673   7.155   6.889
 6095POPC   C4A76266  14.333   7.215   7.197
 6095POPC   C1B76267  14.143   7.593   6.164
 6095POPC   C2B76268  14.339   7.467   6.547
 6095POPC   C3B76269  14.111   7.588   6.898
 6095POPC   C4B76270  14.134   7.660   7.319
 6096POPC   NC376271  44.769  13.557   5.246
 6096POPC   PO476272  44.880  12.897   5.141
 6096POPC   GL176273  44.806  12.874   5.641
 6096POPC   GL276274  44.475  12.735   5.755
 6096POPC   C1A76275  44.760  13.098   6.051
 6096POPC   D2A76276  44.623  13.093   6.490
 6096POPC   C3A76277  44.873  12.855   6.760
 6096POPC   C4A76278  44.872  12.757   7.166
 6096POPC   C1B76279  44.314  12.808   6.200
 6096POPC   C2B76280  44.183  12.749   6.649
 6096POPC   C3B76281  44.360  12.833   7.049
 6096POPC   C4B76282  44.457  12.900   7.494
 6097POPC   NC376283  22.679  25.403   5.373
 6097POPC   PO476284  22.106  25.123   5.552
 6097POPC   GL176285  22.429  25.218   5.823
 6097POPC   GL276286  22.425  25.565   5.878
 6097POPC   C1A76287  22.514  25.190   6.273
 6097POPC   D2A76288  22.238  25.339   6.591
 6097POPC   C3A76289  22.013  25.076   6.847
 6097POPC   C4A76290  22.220  25.101   7.233
 6097POPC   C1B76291  22.012  25.429   6.136
 6097POPC   C2B76292  21.816  25.645   6.524
 6097POPC   C3B76293  21.810  25.533   6.992
 6097POPC   C4B76294  21.951  25.571   7.426
 6098POPC   NC376295  24.551   9.479   5.378
 6098POPC   PO476296  24.479   8.794   5.406
 6098POPC   GL176297  24.489   8.953   5.784
 6098POPC   GL276298  24.290   9.242   5.762
 6098POPC   C1A76299  24.342   8.886   6.181
 6098POPC   D2A76300  24.492   8.697   6.564
 6098POPC   C3A76301  24.611   8.934   6.936
 6098POPC   C4A76302  24.277   8.867   7.230
 6098POPC   C1B76303  24.565   9.347   6.121
 6098POPC   C2B76304  24.455   9.217   6.545
 6098POPC   C3B76305  24.258   9.293   6.953
 6098POPC   C4B76306  24.490   9.325   7.335
 6099POPC   NC376307   3.002  36.602   5.518
 6099POPC   PO476308   2.893  35.996   5.377
 6099POPC   GL176309   2.804  36.181   5.767
 6099POPC   GL276310   2.480  36.145   5.886
 6099POPC   C1A76311   2.902  36.172   6.200
 6099POPC   D2A76312   2.896  36.390   6.582
 6099POPC   C3A76313   2.828  36.126   6.896
 6099POPC   C4A76314   2.997  36.081   7.275
 6099POPC   C1B76315   2.199  36.048   6.208
 6099POPC   C2B76316   2.334  36.007   6.639
 6099POPC   C3B76317   2.360  36.059   7.089
 6099POPC   C4B76318   2.573  36.429   7.236
 6100POPC   NC376319  37.684  35.705   5.528
 6100POPC   PO476320  37.518  35.057   5.634
 6100POPC   GL176321  37.533  35.363   5.941
 6100POPC   GL276322  37.794  35.609   6.004
 6100POPC   C1A76323  37.512  35.319   6.381
 6100POPC   D2A76324  37.770  35.243   6.751
 6100POPC   C3A76325  37.751  35.480   7.112
 6100POPC   C4A76326  37.441  35.565   7.391
 6100POPC   C1B76327  38.017  35.372   6.277
 6100POPC   C2B76328  38.253  35.238   6.620
 6100POPC   C3B76329  38.182  35.058   7.039
 6100POPC   C4B76330  38.070  35.105   7.481
 6101POPC   NC376331   1.890  23.418   5.357
 6101POPC   PO476332   2.092  24.067   5.463
 6101POPC   GL176333   1.964  23.979   5.866
 6101POPC   GL276334   1.960  23.598   5.865
 6101POPC   C1A76335   2.044  23.925   6.321
 6101POPC   D2A76336   1.900  24.133   6.707
 6101POPC   C3A76337   2.123  24.022   7.072
 6101POPC   C4A76338   1.807  23.872   7.346
 6101POPC   C1B76339   1.849  23.288   6.205
 6101POPC   C2B76340   1.793  23.260   6.646
 6101POPC   C3B76341   1.680  23.440   7.017
 6101POPC   C4B76342   2.049  23.451   7.145
 6102POPC   NC376343   5.258  34.930   5.545
 6102POPC   PO476344   4.859  35.495   5.390
 6102POPC   GL176345   4.886  35.281   5.789
 6102POPC   GL276346   5.234  35.321   5.877
 6102POPC   C1A76347   4.906  35.218   6.255
 6102POPC   D2A76348   5.030  35.432   6.637
 6102POPC   C3A76349   4.933  35.238   7.023
 6102POPC   C4A76350   4.970  35.444   7.389
 6102POPC   C1B76351   5.410  35.458   6.266
 6102POPC   C2B76352   5.528  35.304   6.673
 6102POPC   C3B76353   5.405  35.473   7.070
 6102POPC   C4B76354   5.445  35.417   7.521
 6103POPC   NC376355  26.717  39.183   5.396
 6103POPC   PO476356  26.413  39.723   5.533
 6103POPC   GL176357  26.640  39.412   5.843
 6103POPC   GL276358  26.533  39.037   5.860
 6103POPC   C1A76359  26.888  39.253   6.209
 6103POPC   D2A76360  27.061  39.409   6.631
 6103POPC   C3A76361  26.779  39.605   6.943
 6103POPC   C4A76362  26.716  39.797   7.372
 6103POPC   C1B76363  26.504  38.912   6.301
 6103POPC   C2B76364  26.582  39.175   6.652
 6103POPC   C3B76365  26.772  39.040   7.017
 6103POPC   C4B76366  26.703  38.977   7.487
 6104POPC   NC376367  40.755  43.601   4.889
 6104POPC   PO476368  41.177  43.716   5.428
 6104POPC   GL176369  41.048  43.815   5.871
 6104POPC   GL276370  40.736  43.606   5.936
 6104POPC   C1A76371  41.020  44.109   6.262
 6104POPC   D2A76372  41.082  44.177   6.777
 6104POPC   C3A76373  41.135  43.793   7.019
 6104POPC   C4A76374  40.998  43.685   7.460
 6104POPC   C1B76375  40.404  43.334   6.137
 6104POPC   C2B76376  40.342  43.205   6.587
 6104POPC   C3B76377  40.666  43.374   6.870
 6104POPC   C4B76378  40.649  43.782   7.106
 6105POPC   NC376379  29.288  42.420   5.309
 6105POPC   PO476380  28.742  42.019   5.273
 6105POPC   GL176381  28.803  42.297   5.674
 6105POPC   GL276382  29.140  42.335   5.823
 6105POPC   C1A76383  28.744  42.257   6.167
 6105POPC   D2A76384  28.884  42.087   6.598
 6105POPC   C3A76385  28.906  42.278   7.011
 6105POPC   C4A76386  29.300  42.458   7.136
 6105POPC   C1B76387  29.232  42.023   6.189
 6105POPC   C2B76388  29.445  41.955   6.600
 6105POPC   C3B76389  29.377  41.917   7.056
 6105POPC   C4B76390  29.578  42.079   7.428
 6106POPC   NC376391   0.260  12.945   5.409
 6106POPC   PO476392   0.920  12.930   5.330
 6106POPC   GL176393   0.674  12.791   5.745
 6106POPC   GL276394   0.293  12.843   5.897
 6106POPC   C1A76395   0.683  12.973   6.190
 6106POPC   D2A76396   0.434  12.925   6.565
 6106POPC   C3A76397   0.722  12.931   6.907
 6106POPC   C4A76398   0.790  12.663   7.277
 6106POPC   C1B76399   0.280  12.544   6.224
 6106POPC   C2B76400   0.134  12.418   6.628
 6106POPC   C3B76401   0.325  12.594   6.990
 6106POPC   C4B76402   0.268  12.515   7.415
 6107POPC   NC376403  15.369  25.462   5.471
 6107POPC   PO476404  14.965  25.095   5.167
 6107POPC   GL176405  15.006  25.183   5.710
 6107POPC   GL276406  15.301  25.013   5.836
 6107POPC   C1A76407  15.121  25.391   6.133
 6107POPC   D2A76408  15.185  25.578   6.560
 6107POPC   C3A76409  15.183  25.326   6.922
 6107POPC   C4A76410  15.143  25.475   7.338
 6107POPC   C1B76411  15.514  25.071   6.210
 6107POPC   C2B76412  15.485  24.934   6.624
 6107POPC   C3B76413  15.609  25.036   7.023
 6107POPC   C4B76414  15.371  24.915   7.374
 6108POPC   NC376415  38.177  29.109   5.471
 6108POPC   PO476416  38.831  29.064   5.296
 6108POPC   GL176417  38.754  29.130   5.749
 6108POPC   GL276418  38.471  28.971   5.862
 6108POPC   C1A76419  38.775  29.300   6.202
 6108POPC   D2A76420  38.625  29.359   6.645
 6108POPC   C3A76421  38.739  29.154   7.032
 6108POPC   C4A76422  38.566  29.159   7.435
 6108POPC   C1B76423  38.304  29.117   6.254
 6108POPC   C2B76424  38.245  28.970   6.675
 6108POPC   C3B76425  38.244  28.915   7.113
 6108POPC   C4B76426  38.454  28.668   7.398
 6109POPC   NC376427  29.371  32.120   5.419
 6109POPC   PO476428  28.707  32.220   5.357
 6109POPC   GL176429  28.843  32.024   5.741
 6109POPC   GL276430  29.144  32.199   5.848
 6109POPC   C1A76431  28.912  31.868   6.156
 6109POPC   D2A76432  29.119  32.104   6.463
 6109POPC   C3A76433  29.246  31.901   6.803
 6109POPC   C4A76434  29.230  32.045   7.197
 6109POPC   C1B76435  29.370  32.414   6.147
 6109POPC   C2B76436  29.505  32.610   6.491
 6109POPC   C3B76437  29.445  32.430   6.902
 6109POPC   C4B76438  29.631  32.397   7.321
 6110POPC   NC376439  18.073  43.355   5.333
 6110POPC   PO476440  18.412  42.744   5.440
 6110POPC   GL176441  18.371  43.110   5.683
 6110POPC   GL276442  18.208  42.878   5.876
 6110POPC   C1A76443  18.320  43.285   6.136
 6110POPC   D2A76444  18.218  43.065   6.560
 6110POPC   C3A76445  18.273  43.253   7.016
 6110POPC   C4A76446  18.208  43.261   7.511
 6110POPC   C1B76447  17.927  42.843   6.153
 6110POPC   C2B76448  17.925  42.639   6.532
 6110POPC   C3B76449  17.957  42.818   6.931
 6110POPC   C4B76450  17.813  43.072   7.230
 6111POPC   NC376451   4.835  24.585   5.451
 6111POPC   PO476452   5.378  24.058   5.346
 6111POPC   GL176453   5.223  24.384   5.727
 6111POPC   GL276454   4.903  24.431   5.931
 6111POPC   C1A76455   5.338  24.456   6.171
 6111POPC   D2A76456   5.039  24.339   6.495
 6111POPC   C3A76457   5.291  24.272   6.854
 6111POPC   C4A76458   5.280  24.309   7.301
 6111POPC   C1B76459   4.802  24.786   6.170
 6111POPC   C2B76460   4.678  24.733   6.594
 6111POPC   C3B76461   4.855  24.578   6.985
 6111POPC   C4B76462   4.771  24.284   7.318
 6112POPC   NC376463  25.615  33.802   5.553
 6112POPC   PO476464  24.997  33.437   5.480
 6112POPC   GL176465  25.054  33.713   5.841
 6112POPC   GL276466  25.246  34.030   5.830
 6112POPC   C1A76467  25.257  33.698   6.238
 6112POPC   D2A76468  25.102  33.786   6.640
 6112POPC   C3A76469  25.224  33.671   7.027
 6112POPC   C4A76470  24.956  33.591   7.382
 6112POPC   C1B76471  25.191  34.208   6.242
 6112POPC   C2B76472  24.968  34.273   6.612
 6112POPC   C3B76473  25.184  34.196   6.994
 6112POPC   C4B76474  25.296  34.009   7.392
 6113POPC   NC376475  40.747  21.147   5.340
 6113POPC   PO476476  40.588  21.781   5.515
 6113POPC   GL176477  40.686  21.410   5.817
 6113POPC   GL276478  40.588  21.021   5.820
 6113POPC   C1A76479  40.811  21.502   6.243
 6113POPC   D2A76480  40.679  21.689   6.619
 6113POPC   C3A76481  40.865  21.535   6.972
 6113POPC   C4A76482  41.149  21.200   7.125
 6113POPC   C1B76483  40.777  20.988   6.231
 6113POPC   C2B76484  40.910  21.149   6.641
 6113POPC   C3B76485  40.690  20.988   6.990
 6113POPC   C4B76486  40.397  20.900   7.298
 6114POPC   NC376487   5.516   8.412   5.319
 6114POPC   PO476488   4.854   8.224   5.282
 6114POPC   GL176489   5.126   8.210   5.639
 6114POPC   GL276490   5.109   7.855   5.727
 6114POPC   C1A76491   5.129   8.321   6.096
 6114POPC   D2A76492   4.799   8.283   6.427
 6114POPC   C3A76493   4.866   8.363   6.898
 6114POPC   C4A76494   5.260   8.466   7.141
 6114POPC   C1B76495   4.986   7.832   6.164
 6114POPC   C2B76496   5.191   7.974   6.552
 6114POPC   C3B76497   5.315   7.781   6.918
 6114POPC   C4B76498   5.167   7.956   7.258
 6115POPC   NC376499   0.304   9.183   5.379
 6115POPC   PO476500   0.675   8.517   5.375
 6115POPC   GL176501   0.693   8.883   5.634
 6115POPC   GL276502   0.356   8.823   5.735
 6115POPC   C1A76503   0.691   9.094   6.041
 6115POPC   D2A76504   0.626   9.208   6.469
 6115POPC   C3A76505   0.460   9.067   6.860
 6115POPC   C4A76506   0.547   9.209   7.258
 6115POPC   C1B76507   0.577   8.587   6.081
 6115POPC   C2B76508   0.539   8.661   6.532
 6115POPC   C3B76509   0.391   8.566   6.964
 6115POPC   C4B76510   0.208   8.818   7.309
 6116POPC   NC376511  35.088  38.201   5.164
 6116POPC   PO476512  35.787  38.360   5.250
 6116POPC   GL176513  35.595  38.249   5.675
 6116POPC   GL276514  35.241  38.369   5.729
 6116POPC   C1A76515  35.663  38.342   6.128
 6116POPC   D2A76516  35.591  38.449   6.564
 6116POPC   C3A76517  35.522  38.172   6.898
 6116POPC   C4A76518  35.441  37.958   7.264
 6116POPC   C1B76519  35.183  38.510   6.190
 6116POPC   C2B76520  35.101  38.547   6.638
 6116POPC   C3B76521  35.181  38.496   7.083
 6116POPC   C4B76522  34.875  38.546   7.390
 6117POPC   NC376523  40.026  27.446   5.013
 6117POPC   PO476524  39.871  27.961   5.367
 6117POPC   GL176525  39.911  27.789   5.804
 6117POPC   GL276526  39.783  27.491   5.831
 6117POPC   C1A76527  40.210  27.672   6.170
 6117POPC   D2A76528  40.389  27.918   6.536
 6117POPC   C3A76529  40.399  27.735   6.966
 6117POPC   C4A76530  40.095  27.817   7.308
 6117POPC   C1B76531  39.724  27.706   6.290
 6117POPC   C2B76532  39.821  27.595   6.726
 6117POPC   C3B76533  39.849  27.200   6.945
 6117POPC   C4B76534  39.774  27.020   7.354
 6118POPC   NC376535  16.436  43.127   5.341
 6118POPC   PO476536  17.008  43.354   5.621
 6118POPC   GL176537  16.690  43.083   5.793
 6118POPC   GL276538  16.439  43.337   5.798
 6118POPC   C1A76539  16.640  42.748   6.117
 6118POPC   D2A76540  16.737  42.686   6.572
 6118POPC   C3A76541  16.490  42.916   6.919
 6118POPC   C4A76542  16.555  43.310   7.189
 6118POPC   C1B76543  16.300  43.482   6.209
 6118POPC   C2B76544  16.410  43.428   6.659
 6118POPC   C3B76545  16.829  43.564   6.824
 6118POPC   C4B76546  16.948  43.720   7.211
 6119POPC   NC376547  40.348  42.331   5.568
 6119POPC   PO476548  41.104  42.076   5.445
 6119POPC   GL176549  40.851  42.344   5.744
 6119POPC   GL276550  40.643  42.112   5.944
 6119POPC   C1A76551  40.829  42.559   6.156
 6119POPC   D2A76552  40.974  42.472   6.596
 6119POPC   C3A76553  40.698  42.341   6.950
 6119POPC   C4A76554  40.834  42.393   7.349
 6119POPC   C1B76555  40.971  42.049   6.266
 6119POPC   C2B76556  40.935  41.968   6.711
 6119POPC   C3B76557  40.929  41.916   7.157
 6119POPC   C4B76558  40.804  41.978   7.631
 6120POPC   NC376559  34.981   3.383   5.481
 6120POPC   PO476560  34.295   3.569   5.452
 6120POPC   GL176561  34.381   3.587   5.853
 6120POPC   GL276562  34.661   3.844   5.814
 6120POPC   C1A76563  34.364   3.258   6.187
 6120POPC   D2A76564  34.537   3.326   6.579
 6120POPC   C3A76565  34.368   3.205   6.967
 6120POPC   C4A76566  34.398   3.061   7.386
 6120POPC   C1B76567  34.719   3.673   6.220
 6120POPC   C2B76568  34.967   3.582   6.567
 6120POPC   C3B76569  34.767   3.558   6.972
 6120POPC   C4B76570  34.689   3.713   7.383
 6121POPC   NC376571   2.088  41.374   5.434
 6121POPC   PO476572   2.486  41.947   5.427
 6121POPC   GL176573   2.125  41.867   5.717
 6121POPC   GL276574   2.058  41.556   5.906
 6121POPC   C1A76575   2.047  41.979   6.189
 6121POPC   D2A76576   2.306  41.732   6.479
 6121POPC   C3A76577   2.141  41.535   6.833
 6121POPC   C4A76578   1.990  41.746   7.185
 6121POPC   C1B76579   1.807  41.240   6.118
 6121POPC   C2B76580   1.643  41.235   6.557
 6121POPC   C3B76581   1.807  41.151   6.949
 6121POPC   C4B76582   2.120  41.223   7.248
 6122POPC   NC376583  31.965  33.701   5.527
 6122POPC   PO476584  31.508  34.045   5.121
 6122POPC   GL176585  31.454  33.849   5.630
 6122POPC   GL276586  31.663  33.948   5.908
 6122POPC   C1A76587  31.318  33.645   6.088
 6122POPC   D2A76588  31.351  33.788   6.548
 6122POPC   C3A76589  31.168  33.597   6.928
 6122POPC   C4A76590  31.337  33.780   7.296
 6122POPC   C1B76591  31.809  33.806   6.260
 6122POPC   C2B76592  31.868  33.953   6.659
 6122POPC   C3B76593  31.769  33.841   7.054
 6122POPC   C4B76594  31.801  33.566   7.443
 6123POPC   NC376595  16.819  40.480   5.611
 6123POPC   PO476596  16.937  41.074   5.384
 6123POPC   GL176597  16.756  41.103   5.806
 6123POPC   GL276598  16.416  40.933   5.786
 6123POPC   C1A76599  16.923  41.167   6.257
 6123POPC   D2A76600  17.076  41.185   6.710
 6123POPC   C3A76601  17.045  40.845   7.022
 6123POPC   C4A76602  16.915  40.448   7.194
 6123POPC   C1B76603  16.600  40.760   6.179
 6123POPC   C2B76604  16.727  40.770   6.610
 6123POPC   C3B76605  16.495  40.570   6.925
 6123POPC   C4B76606  16.149  40.615   7.205
 6124POPC   NC376607   0.896  17.615   5.217
 6124POPC   PO476608   1.585  17.533   5.180
 6124POPC   GL176609   1.248  17.568   5.621
 6124POPC   GL276610   0.899  17.411   5.712
 6124POPC   C1A76611   1.260  17.646   6.129
 6124POPC   D2A76612   1.205  17.820   6.595
 6124POPC   C3A76613   1.345  17.618   6.988
 6124POPC   C4A76614   1.407  17.479   7.436
 6124POPC   C1B76615   0.945  17.247   6.165
 6124POPC   C2B76616   0.964  17.371   6.581
 6124POPC   C3B76617   0.840  17.214   6.974
 6124POPC   C4B76618   0.936  17.012   7.374
 6125POPC   NC376619   3.823  30.060   5.577
 6125POPC   PO476620   3.166  29.919   5.580
 6125POPC   GL176621   3.430  29.776   5.915
 6125POPC   GL276622   3.587  30.118   6.030
 6125POPC   C1A76623   3.510  29.729   6.359
 6125POPC   D2A76624   3.664  30.071   6.600
 6125POPC   C3A76625   3.493  30.149   7.000
 6125POPC   C4A76626   3.509  29.855   7.362
 6125POPC   C1B76627   3.958  29.910   6.202
 6125POPC   C2B76628   4.006  29.684   6.583
 6125POPC   C3B76629   3.880  29.806   6.990
 6125POPC   C4B76630   3.947  30.164   7.250
 6126POPC   NC376631  29.669  13.488   5.190
 6126POPC   PO476632  30.365  13.540   5.243
 6126POPC   GL176633  30.026  13.656   5.577
 6126POPC   GL276634  29.774  13.422   5.702
 6126POPC   C1A76635  30.041  13.749   6.041
 6126POPC   D2A76636  30.207  13.551   6.419
 6126POPC   C3A76637  30.101  13.741   6.822
 6126POPC   C4A76638  30.180  13.759   7.247
 6126POPC   C1B76639  29.762  13.358   6.161
 6126POPC   C2B76640  29.845  13.233   6.620
 6126POPC   C3B76641  29.941  13.325   7.078
 6126POPC   C4B76642  30.050  13.382   7.563
 6127POPC   NC376643  22.448  20.250   5.456
 6127POPC   PO476644  23.048  19.950   5.435
 6127POPC   GL176645  23.123  19.867   5.859
 6127POPC   GL276646  22.743  19.816   5.850
 6127POPC   C1A76647  23.008  19.756   6.288
 6127POPC   D2A76648  22.663  19.784   6.605
 6127POPC   C3A76649  22.803  19.660   7.002
 6127POPC   C4A76650  23.193  19.814   7.195
 6127POPC   C1B76651  22.635  20.102   6.173
 6127POPC   C2B76652  22.645  20.288   6.580
 6127POPC   C3B76653  22.709  20.158   7.021
 6127POPC   C4B76654  22.723  19.948   7.425
 6128POPC   NC376655   5.257  23.637   5.596
 6128POPC   PO476656   4.804  24.140   5.534
 6128POPC   GL176657   4.941  23.908   5.881
 6128POPC   GL276658   5.297  23.967   5.984
 6128POPC   C1A76659   4.976  23.577   6.194
 6128POPC   D2A76660   4.827  23.726   6.568
 6128POPC   C3A76661   4.872  23.581   6.940
 6128POPC   C4A76662   5.058  23.893   7.131
 6128POPC   C1B76663   5.316  23.901   6.409
 6128POPC   C2B76664   5.307  23.513   6.617
 6128POPC   C3B76665   5.390  23.516   7.025
 6128POPC   C4B76666   5.566  23.904   7.134
 6129POPC   NC376667  34.791  28.264   5.566
 6129POPC   PO476668  34.702  28.927   5.622
 6129POPC   GL176669  34.692  28.662   5.944
 6129POPC   GL276670  34.438  28.442   5.941
 6129POPC   C1A76671  34.893  28.366   6.202
 6129POPC   D2A76672  34.829  28.154   6.563
 6129POPC   C3A76673  34.905  28.350   6.915
 6129POPC   C4A76674  34.602  28.464   7.234
 6129POPC   C1B76675  34.451  28.072   6.195
 6129POPC   C2B76676  34.313  28.098   6.609
 6129POPC   C3B76677  34.521  28.023   6.978
 6129POPC   C4B76678  34.273  27.812   7.212
 6130POPC   NC376679  17.831  14.496   5.296
 6130POPC   PO476680  17.292  14.209   5.539
 6130POPC   GL176681  17.396  14.463   5.860
 6130POPC   GL276682  17.736  14.536   5.781
 6130POPC   C1A76683  17.296  14.374   6.275
 6130POPC   D2A76684  17.556  14.127   6.547
 6130POPC   C3A76685  17.397  14.369   6.870
 6130POPC   C4A76686  17.365  14.315   7.276
 6130POPC   C1B76687  17.792  14.391   6.174
 6130POPC   C2B76688  17.795  14.581   6.573
 6130POPC   C3B76689  17.858  14.560   7.017
 6130POPC   C4B76690  17.591  14.747   7.306
 6131POPC   NC376691  34.946   9.097   5.275
 6131POPC   PO476692  34.453   8.774   5.129
 6131POPC   GL176693  34.648   8.949   5.634
 6131POPC   GL276694  34.652   8.675   5.844
 6131POPC   C1A76695  34.540   9.079   6.113
 6131POPC   D2A76696  34.714   8.967   6.531
 6131POPC   C3A76697  34.559   8.974   6.953
 6131POPC   C4A76698  34.709   9.211   7.321
 6131POPC   C1B76699  34.523   8.558   6.277
 6131POPC   C2B76700  34.540   8.479   6.736
 6131POPC   C3B76701  34.234   8.577   7.073
 6131POPC   C4B76702  34.072   8.614   7.534
 6132POPC   NC376703   0.432  19.620   5.525
 6132POPC   PO476704   0.598  19.004   5.450
 6132POPC   GL176705   0.280  19.043   5.812
 6132POPC   GL276706   0.329  19.377   5.999
 6132POPC   C1A76707   0.151  18.978   6.262
 6132POPC   D2A76708   0.336  19.193   6.590
 6132POPC   C3A76709   0.453  18.937   6.906
 6132POPC   C4A76710   0.200  18.797   7.221
 6132POPC   C1B76711   0.672  19.094   6.190
 6132POPC   C2B76712   0.871  19.121   6.603
 6132POPC   C3B76713   0.691  19.443   6.865
 6132POPC   C4B76714   0.292  19.545   7.008
 6133POPC   NC376715  38.585  35.283   5.433
 6133POPC   PO476716  37.840  35.339   5.307
 6133POPC   GL176717  38.115  35.258   5.756
 6133POPC   GL276718  38.318  35.538   5.841
 6133POPC   C1A76719  38.436  35.122   6.138
 6133POPC   D2A76720  38.739  35.096   6.535
 6133POPC   C3A76721  38.658  35.228   6.966
 6133POPC   C4A76722  38.598  35.026   7.395
 6133POPC   C1B76723  38.505  35.629   6.254
 6133POPC   C2B76724  38.499  35.670   6.701
 6133POPC   C3B76725  38.257  35.566   7.034
 6133POPC   C4B76726  38.385  35.494   7.454
 6134POPC   NC376727  43.572  38.728   5.538
 6134POPC   PO476728  43.872  38.096   5.608
 6134POPC   GL176729  43.973  38.484   5.801
 6134POPC   GL276730  44.146  38.304   6.023
 6134POPC   C1A76731  43.932  38.729   6.205
 6134POPC   D2A76732  44.056  38.540   6.599
 6134POPC   C3A76733  43.801  38.520   6.975
 6134POPC   C4A76734  43.850  38.740   7.348
 6134POPC   C1B76735  43.946  38.106   6.373
 6134POPC   C2B76736  44.036  38.071   6.818
 6134POPC   C3B76737  44.252  38.280   7.160
 6134POPC   C4B76738  44.329  38.104   7.597
 6135POPC   NC376739   6.963  18.388   5.365
 6135POPC   PO476740   6.495  18.023   5.314
 6135POPC   GL176741   6.525  18.248   5.703
 6135POPC   GL276742   6.487  18.613   5.592
 6135POPC   C1A76743   6.390  18.173   6.162
 6135POPC   D2A76744   6.358  18.365   6.582
 6135POPC   C3A76745   6.526  18.175   6.936
 6135POPC   C4A76746   6.363  18.249   7.350
 6135POPC   C1B76747   6.517  18.659   6.029
 6135POPC   C2B76748   6.788  18.512   6.378
 6135POPC   C3B76749   6.764  18.621   6.832
 6135POPC   C4B76750   6.789  18.495   7.269
 6136POPC   NC376751  23.538  42.590   5.364
 6136POPC   PO476752  23.911  43.057   5.491
 6136POPC   GL176753  23.625  42.982   5.783
 6136POPC   GL276754  23.290  42.942   5.703
 6136POPC   C1A76755  23.635  43.101   6.182
 6136POPC   D2A76756  23.645  43.310   6.539
 6136POPC   C3A76757  23.768  43.117   6.905
 6136POPC   C4A76758  23.684  43.308   7.278
 6136POPC   C1B76759  23.196  42.827   6.135
 6136POPC   C2B76760  23.248  42.503   6.457
 6136POPC   C3B76761  23.237  42.585   6.901
 6136POPC   C4B76762  23.476  42.824   7.222
 6137POPC   NC376763  33.309   7.718   5.382
 6137POPC   PO476764  32.881   7.165   5.335
 6137POPC   GL176765  32.884   7.492   5.664
 6137POPC   GL276766  33.219   7.501   5.858
 6137POPC   C1A76767  32.694   7.460   6.094
 6137POPC   D2A76768  32.898   7.423   6.518
 6137POPC   C3A76769  32.748   7.591   6.931
 6137POPC   C4A76770  32.743   7.273   7.270
 6137POPC   C1B76771  33.421   7.437   6.280
 6137POPC   C2B76772  33.362   7.117   6.603
 6137POPC   C3B76773  33.150   7.270   6.967
 6137POPC   C4B76774  33.217   7.650   7.212
 6138POPC   NC376775  30.412   1.137   5.304
 6138POPC   PO476776  30.980   1.385   5.192
 6138POPC   GL176777  30.836   1.354   5.641
 6138POPC   GL276778  30.497   1.510   5.727
 6138POPC   C1A76779  30.877   1.392   6.095
 6138POPC   D2A76780  30.774   1.425   6.540
 6138POPC   C3A76781  31.083   1.427   6.883
 6138POPC   C4A76782  30.948   1.295   7.300
 6138POPC   C1B76783  30.379   1.221   6.099
 6138POPC   C2B76784  30.485   0.986   6.501
 6138POPC   C3B76785  30.595   1.096   6.941
 6138POPC   C4B76786  30.438   0.937   7.326
 6139POPC   NC376787  19.427  12.111   5.386
 6139POPC   PO476788  18.766  12.083   5.323
 6139POPC   GL176789  19.014  11.964   5.662
 6139POPC   GL276790  19.125  12.279   5.777
 6139POPC   C1A76791  19.083  11.888   6.106
 6139POPC   D2A76792  18.806  11.824   6.439
 6139POPC   C3A76793  18.913  11.919   6.853
 6139POPC   C4A76794  19.052  11.969   7.265
 6139POPC   C1B76795  19.179  12.440   6.165
 6139POPC   C2B76796  19.221  12.187   6.523
 6139POPC   C3B76797  19.177  12.357   6.925
 6139POPC   C4B76798  19.310  12.424   7.332
 6140POPC   NC376799  23.741  40.951   5.338
 6140POPC   PO476800  23.648  40.304   5.461
 6140POPC   GL176801  23.825  40.657   5.749
 6140POPC   GL276802  23.872  41.042   5.825
 6140POPC   C1A76803  23.827  40.660   6.191
 6140POPC   D2A76804  23.815  40.910   6.541
 6140POPC   C3A76805  23.617  40.808   6.897
 6140POPC   C4A76806  23.939  40.715   7.175
 6140POPC   C1B76807  23.560  41.146   6.165
 6140POPC   C2B76808  23.616  41.360   6.590
 6140POPC   C3B76809  23.879  41.234   6.962
 6140POPC   C4B76810  23.607  41.123   7.305
 6141POPC   NC376811  27.388   5.861   5.426
 6141POPC   PO476812  27.993   5.721   5.313
 6141POPC   GL176813  27.790   5.671   5.744
 6141POPC   GL276814  27.455   5.503   5.789
 6141POPC   C1A76815  27.610   5.933   6.089
 6141POPC   D2A76816  27.645   6.226   6.436
 6141POPC   C3A76817  27.632   5.951   6.814
 6141POPC   C4A76818  27.574   5.922   7.271
 6141POPC   C1B76819  27.242   5.529   6.197
 6141POPC   C2B76820  27.404   5.514   6.642
 6141POPC   C3B76821  27.244   5.550   7.086
 6141POPC   C4B76822  27.334   5.579   7.579
 6142POPC   NC376823  42.005   4.631   5.412
 6142POPC   PO476824  42.394   4.185   5.096
 6142POPC   GL176825  42.340   4.266   5.588
 6142POPC   GL276826  42.535   4.500   5.762
 6142POPC   C1A76827  42.122   4.416   6.018
 6142POPC   D2A76828  42.131   4.628   6.442
 6142POPC   C3A76829  42.230   4.433   6.847
 6142POPC   C4A76830  42.038   4.349   7.242
 6142POPC   C1B76831  42.569   4.372   6.234
 6142POPC   C2B76832  42.716   4.358   6.690
 6142POPC   C3B76833  42.631   4.340   7.158
 6142POPC   C4B76834  42.870   4.384   7.531
 6143POPC   NC376835  38.616  42.608   5.383
 6143POPC   PO476836  38.060  42.463   5.047
 6143POPC   GL176837  38.185  42.340   5.538
 6143POPC   GL276838  38.540  42.168   5.649
 6143POPC   C1A76839  38.260  42.351   6.036
 6143POPC   D2A76840  38.324  42.106   6.453
 6143POPC   C3A76841  38.352  42.345   6.827
 6143POPC   C4A76842  38.287  42.206   7.233
 6143POPC   C1B76843  38.760  42.210   6.069
 6143POPC   C2B76844  38.750  42.364   6.494
 6143POPC   C3B76845  38.842  42.238   6.925
 6143POPC   C4B76846  38.713  42.484   7.310
 6144POPC   NC376847  36.487  11.099   5.480
 6144POPC   PO476848  35.932  11.461   5.448
 6144POPC   GL176849  36.155  11.533   5.802
 6144POPC   GL276850  36.373  11.307   5.936
 6144POPC   C1A76851  36.062  11.616   6.225
 6144POPC   D2A76852  36.364  11.484   6.522
 6144POPC   C3A76853  36.172  11.403   6.888
 6144POPC   C4A76854  36.268  11.523   7.297
 6144POPC   C1B76855  36.021  11.101   6.122
 6144POPC   C2B76856  36.077  10.902   6.536
 6144POPC   C3B76857  35.942  10.935   6.922
 6144POPC   C4B76858  35.903  11.146   7.275
 6145POPC   NC376859  14.019   7.035   5.419
 6145POPC   PO476860  13.680   6.550   5.087
 6145POPC   GL176861  13.764   6.557   5.569
 6145POPC   GL276862  13.795   6.800   5.809
 6145POPC   C1A76863  13.589   6.353   5.964
 6145POPC   D2A76864  13.560   6.337   6.410
 6145POPC   C3A76865  13.316   6.089   6.690
 6145POPC   C4A76866  13.392   6.105   7.127
 6145POPC   C1B76867  13.516   6.831   6.162
 6145POPC   C2B76868  13.563   6.828   6.601
 6145POPC   C3B76869  13.388   7.000   6.948
 6145POPC   C4B76870  13.448   6.950   7.329
 6146POPC   NC376871   9.922  29.416   5.477
 6146POPC   PO476872   9.549  28.790   5.260
 6146POPC   GL176873   9.554  29.044   5.690
 6146POPC   GL276874   9.496  29.420   5.752
 6146POPC   C1A76875   9.705  29.039   6.156
 6146POPC   D2A76876   9.971  29.154   6.531
 6146POPC   C3A76877   9.866  29.002   6.970
 6146POPC   C4A76878   9.617  28.818   7.300
 6146POPC   C1B76879   9.659  29.551   6.182
 6146POPC   C2B76880   9.536  29.429   6.618
 6146POPC   C3B76881   9.540  29.383   7.060
 6146POPC   C4B76882   9.620  29.673   7.374
 6147POPC   NC376883   1.248  34.410   5.307
 6147POPC   PO476884   1.287  35.050   5.378
 6147POPC   GL176885   1.136  34.705   5.710
 6147POPC   GL276886   1.288  34.333   5.801
 6147POPC   C1A76887   1.000  34.607   6.126
 6147POPC   D2A76888   1.151  34.459   6.507
 6147POPC   C3A76889   0.847  34.463   6.786
 6147POPC   C4A76890   0.992  34.520   7.166
 6147POPC   C1B76891   1.514  34.283   6.184
 6147POPC   C2B76892   1.573  34.177   6.632
 6147POPC   C3B76893   1.514  34.480   6.970
 6147POPC   C4B76894   1.430  34.433   7.422
 6148POPC   NC376895  25.816  26.039   5.270
 6148POPC   PO476896  26.051  26.679   5.300
 6148POPC   GL176897  25.953  26.373   5.686
 6148POPC   GL276898  25.729  26.094   5.766
 6148POPC   C1A76899  26.063  26.305   6.145
 6148POPC   D2A76900  26.173  26.017   6.487
 6148POPC   C3A76901  25.995  26.114   6.883
 6148POPC   C4A76902  26.072  26.397   7.211
 6148POPC   C1B76903  25.849  25.815   6.100
 6148POPC   C2B76904  25.746  25.717   6.516
 6148POPC   C3B76905  25.937  25.589   6.879
 6148POPC   C4B76906  25.856  25.787   7.263
 6149POPC   NC376907   3.824  28.196   5.573
 6149POPC   PO476908   3.162  28.233   5.353
 6149POPC   GL176909   3.341  28.364   5.798
 6149POPC   GL276910   3.384  28.732   5.857
 6149POPC   C1A76911   3.294  28.468   6.291
 6149POPC   D2A76912   3.151  28.548   6.752
 6149POPC   C3A76913   3.525  28.541   7.009
 6149POPC   C4A76914   3.744  28.132   7.153
 6149POPC   C1B76915   3.643  28.853   6.259
 6149POPC   C2B76916   3.850  28.817   6.687
 6149POPC   C3B76917   4.028  28.578   7.069
 6149POPC   C4B76918   3.773  28.606   7.478
 6150POPC   NC376919  15.476  21.291   5.483
 6150POPC   PO476920  14.852  21.097   5.434
 6150POPC   GL176921  15.069  21.174   5.833
 6150POPC   GL276922  15.076  21.504   5.756
 6150POPC   C1A76923  15.025  21.324   6.285
 6150POPC   D2A76924  14.950  21.435   6.742
 6150POPC   C3A76925  15.152  21.250   7.066
 6150POPC   C4A76926  15.534  21.008   7.066
 6150POPC   C1B76927  14.973  21.789   6.089
 6150POPC   C2B76928  14.822  22.023   6.454
 6150POPC   C3B76929  14.716  21.860   6.864
 6150POPC   C4B76930  14.974  21.718   7.212
 6151POPC   NC376931  31.139  20.720   5.352
 6151POPC   PO476932  31.762  20.697   5.435
 6151POPC   GL176933  31.502  20.671   5.820
 6151POPC   GL276934  31.568  20.284   5.883
 6151POPC   C1A76935  31.368  20.915   6.224
 6151POPC   D2A76936  31.546  20.925   6.668
 6151POPC   C3A76937  31.339  20.846   7.086
 6151POPC   C4A76938  31.438  20.796   7.550
 6151POPC   C1B76939  31.240  20.411   6.207
 6151POPC   C2B76940  31.253  20.462   6.679
 6151POPC   C3B76941  31.365  20.342   7.131
 6151POPC   C4B76942  31.765  20.483   7.310
 6152POPC   NC376943  24.214  29.908   5.423
 6152POPC   PO476944  24.852  30.016   5.526
 6152POPC   GL176945  24.558  29.911   5.828
 6152POPC   GL276946  24.469  29.584   5.736
 6152POPC   C1A76947  24.697  29.754   6.215
 6152POPC   D2A76948  24.782  29.526   6.567
 6152POPC   C3A76949  24.713  29.829   6.892
 6152POPC   C4A76950  24.853  30.191   7.163
 6152POPC   C1B76951  24.292  29.463   6.128
 6152POPC   C2B76952  24.281  29.627   6.517
 6152POPC   C3B76953  24.257  29.523   6.904
 6152POPC   C4B76954  24.400  29.661   7.269
 6153POPC   NC376955  29.293  12.509   5.220
 6153POPC   PO476956  29.468  13.120   5.379
 6153POPC   GL176957  29.203  12.910   5.721
 6153POPC   GL276958  29.387  12.663   5.960
 6153POPC   C1A76959  28.990  12.987   6.122
 6153POPC   D2A76960  29.079  12.867   6.541
 6153POPC   C3A76961  28.927  13.060   6.884
 6153POPC   C4A76962  28.888  12.746   7.190
 6153POPC   C1B76963  29.473  12.979   6.230
 6153POPC   C2B76964  29.353  13.299   6.552
 6153POPC   C3B76965  29.451  13.149   6.994
 6153POPC   C4B76966  29.687  12.966   7.374
 6154POPC   NC376967  10.492   6.680   5.327
 6154POPC   PO476968  11.030   6.809   5.662
 6154POPC   GL176969  10.703   6.477   5.766
 6154POPC   GL276970  10.311   6.517   5.775
 6154POPC   C1A76971  10.579   6.334   6.189
 6154POPC   D2A76972  10.482   6.584   6.578
 6154POPC   C3A76973  10.621   6.534   7.018
 6154POPC   C4A76974  10.638   6.913   7.252
 6154POPC   C1B76975  10.056   6.427   6.123
 6154POPC   C2B76976  10.016   6.364   6.569
 6154POPC   C3B76977  10.119   6.564   6.984
 6154POPC   C4B76978  10.241   6.636   7.426
 6155POPC   NC376979   8.587   4.873   5.445
 6155POPC   PO476980   8.212   5.398   5.437
 6155POPC   GL176981   8.293   5.216   5.780
 6155POPC   GL276982   8.149   4.893   5.761
 6155POPC   C1A76983   8.133   5.211   6.182
 6155POPC   D2A76984   7.843   5.291   6.485
 6155POPC   C3A76985   8.050   5.327   6.882
 6155POPC   C4A76986   7.860   5.318   7.280
 6155POPC   C1B76987   8.321   4.744   6.166
 6155POPC   C2B76988   8.213   4.909   6.585
 6155POPC   C3B76989   8.236   4.844   7.020
 6155POPC   C4B76990   8.344   5.150   7.303
 6156POPC   NC376991  39.406  25.208   5.335
 6156POPC   PO476992  38.744  24.868   5.423
 6156POPC   GL176993  38.918  25.065   5.797
 6156POPC   GL276994  39.280  25.104   5.807
 6156POPC   C1A76995  39.019  25.469   6.040
 6156POPC   D2A76996  39.207  25.510   6.442
 6156POPC   C3A76997  39.052  25.217   6.735
 6156POPC   C4A76998  38.991  25.466   7.106
 6156POPC   C1B76999  39.511  25.212   6.167
 6156POPC   C2B77000  39.568  25.144   6.626
 6156POPC   C3B77001  39.438  25.138   7.054
 6156POPC   C4B77002  39.696  24.945   7.320
 6157POPC   NC377003  27.295  27.346   5.339
 6157POPC   PO477004  27.862  27.778   5.391
 6157POPC   GL177005  27.656  27.507   5.709
 6157POPC   GL277006  27.410  27.727   5.788
 6157POPC   C1A77007  27.587  27.403   6.174
 6157POPC   D2A77008  27.451  27.289   6.599
 6157POPC   C3A77009  27.546  27.471   6.940
 6157POPC   C4A77010  27.658  27.697   7.283
 6157POPC   C1B77011  27.698  27.904   6.123
 6157POPC   C2B77012  27.869  27.862   6.561
 6157POPC   C3B77013  27.975  27.965   6.988
 6157POPC   C4B77014  27.741  28.187   7.307
 6158POPC   NC377015  27.440  30.924   5.459
 6158POPC   PO477016  27.894  30.460   5.487
 6158POPC   GL177017  27.702  30.653   5.817
 6158POPC   GL277018  27.368  30.516   5.767
 6158POPC   C1A77019  27.521  30.912   6.164
 6158POPC   D2A77020  27.645  31.158   6.537
 6158POPC   C3A77021  27.620  30.906   6.929
 6158POPC   C4A77022  27.208  30.736   7.069
 6158POPC   C1B77023  27.464  30.385   6.179
 6158POPC   C2B77024  27.374  30.514   6.599
 6158POPC   C3B77025  27.580  30.380   6.982
 6158POPC   C4B77026  27.581  30.554   7.373
 6159POPC   NC377027  34.804   1.919   5.283
 6159POPC   PO477028  35.117   1.469   5.650
 6159POPC   GL177029  34.867   1.809   5.782
 6159POPC   GL277030  34.481   1.805   5.727
 6159POPC   C1A77031  34.785   1.841   6.197
 6159POPC   D2A77032  34.906   1.770   6.596
 6159POPC   C3A77033  34.788   2.138   6.801
 6159POPC   C4A77034  34.770   2.178   7.206
 6159POPC   C1B77035  34.312   2.039   6.128
 6159POPC   C2B77036  34.347   1.955   6.579
 6159POPC   C3B77037  34.325   1.993   7.027
 6159POPC   C4B77038  34.310   2.308   7.333
 6160POPC   NC377039  12.468  13.530   5.386
 6160POPC   PO477040  13.041  13.750   5.533
 6160POPC   GL177041  12.988  13.638   5.923
 6160POPC   GL277042  12.634  13.582   5.916
 6160POPC   C1A77043  13.132  13.705   6.333
 6160POPC   D2A77044  13.183  13.420   6.672
 6160POPC   C3A77045  13.208  13.660   7.042
 6160POPC   C4A77046  13.096  13.645   7.461
 6160POPC   C1B77047  12.782  13.312   6.278
 6160POPC   C2B77048  12.665  13.347   6.710
 6160POPC   C3B77049  12.738  13.423   7.144
 6160POPC   C4B77050  12.828  13.240   7.568
 6161POPC   NC377051   1.622  18.197   5.432
 6161POPC   PO477052   0.920  18.064   5.335
 6161POPC   GL177053   1.142  18.119   5.758
 6161POPC   GL277054   1.300  18.462   5.897
 6161POPC   C1A77055   1.117  18.145   6.227
 6161POPC   D2A77056   1.185  18.412   6.599
 6161POPC   C3A77057   1.231  18.169   6.984
 6161POPC   C4A77058   1.235  17.952   7.393
 6161POPC   C1B77059   0.916  18.613   6.142
 6161POPC   C2B77060   0.710  18.637   6.563
 6161POPC   C3B77061   0.853  18.562   6.999
 6161POPC   C4B77062   0.984  18.384   7.388
 6162POPC   NC377063  26.656   3.792   5.603
 6162POPC   PO477064  26.865   3.146   5.488
 6162POPC   GL177065  26.719   3.349   5.842
 6162POPC   GL277066  27.005   3.571   5.909
 6162POPC   C1A77067  26.644   3.534   6.251
 6162POPC   D2A77068  26.846   3.396   6.638
 6162POPC   C3A77069  26.625   3.376   7.030
 6162POPC   C4A77070  26.539   3.740   7.266
 6162POPC   C1B77071  27.129   3.717   6.325
 6162POPC   C2B77072  26.993   3.917   6.672
 6162POPC   C3B77073  27.002   3.713   7.043
 6162POPC   C4B77074  27.242   3.743   7.415
 6163POPC   NC377075  25.404  32.983   5.328
 6163POPC   PO477076  24.735  32.637   5.388
 6163POPC   GL177077  24.964  32.739   5.792
 6163POPC   GL277078  25.190  33.035   5.800
 6163POPC   C1A77079  25.106  32.781   6.243
 6163POPC   D2A77080  25.218  32.912   6.656
 6163POPC   C3A77081  25.248  32.708   7.054
 6163POPC   C4A77082  25.262  32.622   7.501
 6163POPC   C1B77083  25.425  33.206   6.171
 6163POPC   C2B77084  25.419  33.372   6.604
 6163POPC   C3B77085  25.443  33.224   7.024
 6163POPC   C4B77086  25.806  33.429   7.202
 6164POPC   NC377087  44.735  36.330   5.439
 6164POPC   PO477088  44.928  37.034   5.518
 6164POPC   GL177089  44.588  36.918   5.839
 6164POPC   GL277090  44.394  36.595   5.767
 6164POPC   C1A77091  44.601  37.068   6.304
 6164POPC   D2A77092  44.818  37.254   6.699
 6164POPC   C3A77093  44.820  36.990   7.064
 6164POPC   C4A77094  44.979  36.611   7.159
 6164POPC   C1B77095  44.663  36.534   6.191
 6164POPC   C2B77096  44.734  36.698   6.632
 6164POPC   C3B77097  44.482  36.606   6.969
 6164POPC   C4B77098  44.344  36.499   7.361
 6165POPC   NC377099  39.105   2.753   4.896
 6165POPC   PO477100  38.821   2.516   5.442
 6165POPC   GL177101  39.105   2.442   5.791
 6165POPC   GL277102  38.893   2.175   5.934
 6165POPC   C1A77103  39.226   2.625   6.209
 6165POPC   D2A77104  39.245   2.602   6.669
 6165POPC   C3A77105  39.345   2.987   6.880
 6165POPC   C4A77106  39.143   3.162   7.219
 6165POPC   C1B77107  39.016   2.169   6.386
 6165POPC   C2B77108  38.891   2.233   6.823
 6165POPC   C3B77109  39.204   2.289   7.141
 6165POPC   C4B77110  39.389   2.671   7.297
 6166POPC   NC377111  32.137  37.167   5.536
 6166POPC   PO477112  32.421  36.569   5.398
 6166POPC   GL177113  32.277  36.749   5.794
 6166POPC   GL277114  32.530  36.947   5.810
 6166POPC   C1A77115  32.250  36.999   6.221
 6166POPC   D2A77116  32.156  36.822   6.630
 6166POPC   C3A77117  32.018  36.990   7.010
 6166POPC   C4A77118  32.259  37.007   7.373
 6166POPC   C1B77119  32.736  36.790   6.133
 6166POPC   C2B77120  32.712  36.865   6.556
 6166POPC   C3B77121  32.576  36.864   6.965
 6166POPC   C4B77122  32.619  36.649   7.354
 6167POPC   NC377123  39.377  19.366   5.262
 6167POPC   PO477124  38.785  19.189   5.411
 6167POPC   GL177125  39.121  19.170   5.768
 6167POPC   GL277126  38.904  18.968   5.874
 6167POPC   C1A77127  39.328  18.969   6.196
 6167POPC   D2A77128  39.201  19.060   6.640
 6167POPC   C3A77129  39.400  19.072   7.045
 6167POPC   C4A77130  39.268  19.324   7.370
 6167POPC   C1B77131  38.831  19.062   6.273
 6167POPC   C2B77132  38.679  19.063   6.682
 6167POPC   C3B77133  38.872  19.103   7.087
 6167POPC   C4B77134  38.992  18.928   7.503
 6168POPC   NC377135   5.006  12.571   5.454
 6168POPC   PO477136   5.312  11.955   5.374
 6168POPC   GL177137   5.122  11.960   5.761
 6168POPC   GL277138   5.036  12.291   5.871
 6168POPC   C1A77139   5.117  11.835   6.206
 6168POPC   D2A77140   4.909  11.974   6.593
 6168POPC   C3A77141   5.109  11.910   7.004
 6168POPC   C4A77142   4.969  11.777   7.415
 6168POPC   C1B77143   5.364  12.282   6.209
 6168POPC   C2B77144   5.456  12.154   6.661
 6168POPC   C3B77145   5.321  12.373   7.064
 6168POPC   C4B77146   4.964  12.426   7.397
 6169POPC   NC377147  43.298   0.849   5.255
 6169POPC   PO477148  43.128   1.531   5.431
 6169POPC   GL177149  43.313   1.280   5.755
 6169POPC   GL277150  42.998   1.185   5.841
 6169POPC   C1A77151  43.273   1.357   6.224
 6169POPC   D2A77152  43.362   1.207   6.624
 6169POPC   C3A77153  43.142   1.351   6.975
 6169POPC   C4A77154  43.241   1.244   7.371
 6169POPC   C1B77155  42.904   0.888   6.127
 6169POPC   C2B77156  42.951   0.739   6.517
 6169POPC   C3B77157  42.928   0.900   6.882
 6169POPC   C4B77158  42.898   0.859   7.333
 6170POPC   NC377159  33.155  10.765   5.112
 6170POPC   PO477160  33.695  10.665   5.426
 6170POPC   GL177161  33.806  10.646   5.849
 6170POPC   GL277162  33.571  10.386   5.872
 6170POPC   C1A77163  33.849  10.506   6.304
 6170POPC   D2A77164  34.174  10.270   6.521
 6170POPC   C3A77165  34.001  10.172   6.930
 6170POPC   C4A77166  33.709  10.433   7.160
 6170POPC   C1B77167  33.376  10.364   6.283
 6170POPC   C2B77168  33.505  10.278   6.702
 6170POPC   C3B77169  33.255  10.208   7.093
 6170POPC   C4B77170  33.379  10.209   7.525
 6171POPC   NC377171  15.365  35.124   5.497
 6171POPC   PO477172  14.933  35.525   5.426
 6171POPC   GL177173  14.911  35.279   5.787
 6171POPC   GL277174  15.246  35.237   5.973
 6171POPC   C1A77175  14.796  35.279   6.200
 6171POPC   D2A77176  15.086  35.290   6.505
 6171POPC   C3A77177  14.961  35.233   6.898
 6171POPC   C4A77178  15.253  35.392   7.191
 6171POPC   C1B77179  15.637  35.439   6.077
 6171POPC   C2B77180  15.804  35.400   6.480
 6171POPC   C3B77181  15.608  35.471   6.848
 6171POPC   C4B77182  15.654  35.690   7.265
 6172POPC   NC377183  44.808  30.780   5.511
 6172POPC   PO477184  44.201  30.407   5.549
 6172POPC   GL177185  44.418  30.683   5.848
 6172POPC   GL277186  44.714  30.453   5.882
 6172POPC   C1A77187  44.718  30.853   6.181
 6172POPC   D2A77188  44.800  30.644   6.582
 6172POPC   C3A77189  44.919  30.868   6.971
 6172POPC   C4A77190  44.732  31.016   7.345
 6172POPC   C1B77191  44.490  30.353   6.250
 6172POPC   C2B77192  44.379  30.317   6.688
 6172POPC   C3B77193  44.576  30.472   7.055
 6172POPC   C4B77194  44.411  30.472   7.476
 6173POPC   NC377195  26.564   6.070   5.340
 6173POPC   PO477196  26.999   5.616   5.325
 6173POPC   GL177197  26.972   5.749   5.760
 6173POPC   GL277198  26.694   5.988   5.830
 6173POPC   C1A77199  27.106   6.047   6.099
 6173POPC   D2A77200  27.217   5.962   6.508
 6173POPC   C3A77201  27.188   6.176   6.902
 6173POPC   C4A77202  27.048   5.997   7.252
 6173POPC   C1B77203  26.714   5.684   6.202
 6173POPC   C2B77204  26.710   5.654   6.659
 6173POPC   C3B77205  26.700   5.649   7.103
 6173POPC   C4B77206  26.545   6.035   7.286
 6174POPC   NC377207  44.344   2.392   5.368
 6174POPC   PO477208  44.579   3.031   5.424
 6174POPC   GL177209  44.635   2.678   5.740
 6174POPC   GL277210  44.342   2.714   5.783
 6174POPC   C1A77211  44.568   2.537   6.189
 6174POPC   D2A77212  44.586   2.788   6.549
 6174POPC   C3A77213  44.582   2.486   6.863
 6174POPC   C4A77214  44.655   2.493   7.289
 6174POPC   C1B77215  44.241   2.963   6.163
 6174POPC   C2B77216  44.180   3.103   6.598
 6174POPC   C3B77217  44.236   2.846   6.979
 6174POPC   C4B77218  44.386   2.912   7.406
 6175POPC   NC377219  30.611   9.833   5.457
 6175POPC   PO477220  30.605   9.249   5.253
 6175POPC   GL177221  30.796   9.426   5.708
 6175POPC   GL277222  30.998   9.780   5.769
 6175POPC   C1A77223  30.766   9.562   6.160
 6175POPC   D2A77224  30.682   9.761   6.564
 6175POPC   C3A77225  30.459   9.653   6.944
 6175POPC   C4A77226  30.597   9.711   7.357
 6175POPC   C1B77227  30.938  10.059   6.144
 6175POPC   C2B77228  31.064  10.083   6.563
 6175POPC   C3B77229  31.006   9.930   6.959
 6175POPC   C4B77230  31.018  10.280   7.194
 6176POPC   NC377231  38.966  40.236   5.561
 6176POPC   PO477232  39.600  39.905   5.357
 6176POPC   GL177233  39.364  39.922   5.754
 6176POPC   GL277234  39.018  39.769   5.798
 6176POPC   C1A77235  39.334  40.118   6.160
 6176POPC   D2A77236  39.105  40.148   6.548
 6176POPC   C3A77237  39.295  40.082   6.939
 6176POPC   C4A77238  39.284  40.264   7.334
 6176POPC   C1B77239  38.817  39.898   6.188
 6176POPC   C2B77240  38.769  39.770   6.615
 6176POPC   C3B77241  38.750  39.981   7.010
 6176POPC   C4B77242  38.831  40.017   7.472
 6177POPC   NC377243  33.191   0.887   5.489
 6177POPC   PO477244  32.662   1.043   5.129
 6177POPC   GL177245  32.930   1.304   5.505
 6177POPC   GL277246  32.763   1.210   5.770
 6177POPC   C1A77247  33.185   1.318   6.004
 6177POPC   D2A77248  33.274   1.010   6.409
 6177POPC   C3A77249  33.261   1.032   6.893
 6177POPC   C4A77250  33.282   1.303   7.265
 6177POPC   C1B77251  32.803   0.978   6.176
 6177POPC   C2B77252  32.793   1.124   6.619
 6177POPC   C3B77253  32.802   1.217   7.063
 6177POPC   C4B77254  32.498   1.052   7.369
 6178POPC   NC377255   7.347   4.340   5.388
 6178POPC   PO477256   7.865   3.923   5.342
 6178POPC   GL177257   7.784   4.275   5.647
 6178POPC   GL277258   7.698   4.060   5.872
 6178POPC   C1A77259   7.456   4.490   6.016
 6178POPC   D2A77260   7.226   4.449   6.467
 6178POPC   C3A77261   7.299   4.525   6.965
 6178POPC   C4A77262   7.154   4.217   7.335
 6178POPC   C1B77263   7.611   4.122   6.306
 6178POPC   C2B77264   7.749   4.109   6.659
 6178POPC   C3B77265   7.763   4.358   6.935
 6178POPC   C4B77266   7.653   4.297   7.312
 6179POPC   NC377267  13.458  18.412   5.459
 6179POPC   PO477268  14.100  18.195   5.300
 6179POPC   GL177269  13.886  18.241   5.739
 6179POPC   GL277270  13.760  18.595   5.850
 6179POPC   C1A77271  14.006  18.242   6.200
 6179POPC   D2A77272  13.778  18.173   6.582
 6179POPC   C3A77273  13.737  18.110   7.017
 6179POPC   C4A77274  13.766  18.486   7.177
 6179POPC   C1B77275  13.509  18.402   6.187
 6179POPC   C2B77276  13.268  18.163   6.526
 6179POPC   C3B77277  13.233  18.005   6.962
 6179POPC   C4B77278  13.255  18.196   7.362
 6180POPC   NC377279   6.807  42.791   5.488
 6180POPC   PO477280   7.460  42.925   5.360
 6180POPC   GL177281   7.461  43.144   5.752
 6180POPC   GL277282   7.703  43.404   5.673
 6180POPC   C1A77283   7.274  43.231   6.149
 6180POPC   D2A77284   7.103  43.021   6.514
 6180POPC   C3A77285   7.239  43.180   6.915
 6180POPC   C4A77286   7.063  43.022   7.296
 6180POPC   C1B77287   7.689  43.516   6.120
 6180POPC   C2B77288   7.831  43.420   6.564
 6180POPC   C3B77289   7.710  43.523   6.981
 6180POPC   C4B77290   7.551  43.268   7.312
 6181POPC   NC377291  36.244  38.502   5.278
 6181POPC   PO477292  36.929  38.560   5.152
 6181POPC   GL177293  36.882  38.369   5.621
 6181POPC   GL277294  36.602  38.532   5.734
 6181POPC   C1A77295  37.114  38.265   6.052
 6181POPC   D2A77296  37.270  38.153   6.491
 6181POPC   C3A77297  37.273  38.386   6.868
 6181POPC   C4A77298  37.015  38.336   7.208
 6181POPC   C1B77299  36.925  38.733   6.058
 6181POPC   C2B77300  36.949  38.581   6.495
 6181POPC   C3B77301  36.695  38.523   6.878
 6181POPC   C4B77302  36.604  38.780   7.208
 6182POPC   NC377303  30.268  11.459   5.435
 6182POPC   PO477304  29.615  11.418   5.405
 6182POPC   GL177305  29.886  11.289   5.725
 6182POPC   GL277306  30.049  10.996   5.715
 6182POPC   C1A77307  30.134  11.329   6.094
 6182POPC   D2A77308  29.933  11.605   6.358
 6182POPC   C3A77309  29.880  11.450   6.750
 6182POPC   C4A77310  29.964  11.424   7.170
 6182POPC   C1B77311  29.783  10.919   6.056
 6182POPC   C2B77312  29.964  10.993   6.462
 6182POPC   C3B77313  29.934  10.982   6.891
 6182POPC   C4B77314  30.078  10.927   7.278
 6183POPC   NC377315  27.789  29.016   5.430
 6183POPC   PO477316  27.153  29.336   5.612
 6183POPC   GL177317  27.539  29.282   5.804
 6183POPC   GL277318  27.702  29.592   5.747
 6183POPC   C1A77319  27.622  28.955   6.101
 6183POPC   D2A77320  27.487  28.792   6.497
 6183POPC   C3A77321  27.429  29.036   6.855
 6183POPC   C4A77322  27.679  28.918   7.196
 6183POPC   C1B77323  27.832  29.508   6.179
 6183POPC   C2B77324  27.671  29.491   6.613
 6183POPC   C3B77325  27.706  29.414   7.058
 6183POPC   C4B77326  27.594  29.374   7.481
 6184POPC   NC377327  20.159   4.762   5.520
 6184POPC   PO477328  19.912   4.049   5.434
 6184POPC   GL177329  19.670   4.149   5.790
 6184POPC   GL277330  19.871   4.436   5.828
 6184POPC   C1A77331  19.510   4.319   6.184
 6184POPC   D2A77332  19.688   4.616   6.484
 6184POPC   C3A77333  19.498   4.680   6.885
 6184POPC   C4A77334  19.648   4.592   7.340
 6184POPC   C1B77335  20.033   4.263   6.195
 6184POPC   C2B77336  20.149   4.401   6.600
 6184POPC   C3B77337  20.005   4.597   6.970
 6184POPC   C4B77338  20.172   4.429   7.346
 6185POPC   NC377339  40.670  30.248   5.369
 6185POPC   PO477340  40.968  29.606   5.306
 6185POPC   GL177341  40.713  29.843   5.688
 6185POPC   GL277342  40.871  30.182   5.816
 6185POPC   C1A77343  40.590  29.973   6.168
 6185POPC   D2A77344  40.747  30.235   6.525
 6185POPC   C3A77345  40.567  30.108   6.890
 6185POPC   C4A77346  40.427  30.093   7.283
 6185POPC   C1B77347  41.118  30.152   6.197
 6185POPC   C2B77348  41.216  29.874   6.507
 6185POPC   C3B77349  41.149  30.030   6.892
 6185POPC   C4B77350  40.889  29.873   7.187
 6186POPC   NC377351  10.615  34.109   5.357
 6186POPC   PO477352  10.110  33.755   5.402
 6186POPC   GL177353  10.366  33.853   5.775
 6186POPC   GL277354  10.404  33.505   5.887
 6186POPC   C1A77355  10.539  34.024   6.191
 6186POPC   D2A77356  10.423  33.974   6.670
 6186POPC   C3A77357  10.773  33.958   7.008
 6186POPC   C4A77358  10.840  34.047   7.481
 6186POPC   C1B77359  10.370  33.550   6.325
 6186POPC   C2B77360  10.544  33.442   6.684
 6186POPC   C3B77361  10.514  33.489   7.087
 6186POPC   C4B77362  10.710  33.573   7.464
 6187POPC   NC377363   4.183  22.397   5.321
 6187POPC   PO477364   4.243  21.864   5.634
 6187POPC   GL177365   4.188  22.268   5.818
 6187POPC   GL277366   4.512  22.398   5.735
 6187POPC   C1A77367   4.089  22.438   6.214
 6187POPC   D2A77368   4.040  22.123   6.518
 6187POPC   C3A77369   4.240  22.105   6.897
 6187POPC   C4A77370   4.302  22.475   7.116
 6187POPC   C1B77371   4.587  22.289   6.177
 6187POPC   C2B77372   4.530  22.450   6.597
 6187POPC   C3B77373   4.763  22.301   6.946
 6187POPC   C4B77374   4.613  22.015   7.236
 6188POPC   NC377375   2.669  31.105   5.443
 6188POPC   PO477376   3.037  31.624   5.471
 6188POPC   GL177377   2.793  31.511   5.799
 6188POPC   GL277378   2.459  31.562   5.741
 6188POPC   C1A77379   2.683  31.335   6.200
 6188POPC   D2A77380   2.918  31.194   6.550
 6188POPC   C3A77381   2.696  31.345   6.869
 6188POPC   C4A77382   2.812  31.460   7.264
 6188POPC   C1B77383   2.244  31.682   6.144
 6188POPC   C2B77384   2.369  31.605   6.585
 6188POPC   C3B77385   2.385  31.685   7.057
 6188POPC   C4B77386   2.425  31.625   7.552
 6189POPC   NC377387   5.612  21.394   5.336
 6189POPC   PO477388   6.161  21.563   5.669
 6189POPC   GL177389   5.940  21.425   5.946
 6189POPC   GL277390   5.757  21.212   5.781
 6189POPC   C1A77391   5.871  21.564   6.328
 6189POPC   D2A77392   5.855  21.344   6.676
 6189POPC   C3A77393   6.132  21.477   6.964
 6189POPC   C4A77394   6.016  21.609   7.365
 6189POPC   C1B77395   5.550  20.921   6.021
 6189POPC   C2B77396   5.540  20.981   6.461
 6189POPC   C3B77397   5.712  20.894   6.858
 6189POPC   C4B77398   5.765  21.212   7.196
 6190POPC   NC377399  11.893  42.655   5.637
 6190POPC   PO477400  12.385  42.314   5.307
 6190POPC   GL177401  12.260  42.348   5.765
 6190POPC   GL277402  11.960  42.165   5.820
 6190POPC   C1A77403  12.103  42.442   6.217
 6190POPC   D2A77404  11.898  42.495   6.602
 6190POPC   C3A77405  12.111  42.356   6.960
 6190POPC   C4A77406  12.237  42.577   7.283
 6190POPC   C1B77407  11.739  42.063   6.222
 6190POPC   C2B77408  11.695  41.910   6.657
 6190POPC   C3B77409  11.710  42.033   7.087
 6190POPC   C4B77410  12.001  42.055   7.429
 6191POPC   NC377411  23.002  31.049   5.476
 6191POPC   PO477412  22.493  30.628   5.458
 6191POPC   GL177413  22.815  30.648   5.805
 6191POPC   GL277414  23.189  30.641   5.755
 6191POPC   C1A77415  22.892  30.789   6.244
 6191POPC   D2A77416  23.072  30.978   6.618
 6191POPC   C3A77417  22.945  30.828   7.031
 6191POPC   C4A77418  22.851  30.930   7.493
 6191POPC   C1B77419  23.216  30.421   6.155
 6191POPC   C2B77420  23.089  30.362   6.586
 6191POPC   C3B77421  23.204  30.368   7.017
 6191POPC   C4B77422  22.957  30.453   7.380
 6192POPC   NC377423   9.205  11.378   5.522
 6192POPC   PO477424   9.194  10.785   5.729
 6192POPC   GL177425   8.953  11.120   5.957
 6192POPC   GL277426   8.885  11.497   5.917
 6192POPC   C1A77427   8.877  11.272   6.364
 6192POPC   D2A77428   8.768  11.611   6.611
 6192POPC   C3A77429   8.820  11.340   6.920
 6192POPC   C4A77430   8.924  11.284   7.338
 6192POPC   C1B77431   9.252  11.579   6.155
 6192POPC   C2B77432   9.302  11.504   6.561
 6192POPC   C3B77433   9.219  11.650   6.955
 6192POPC   C4B77434   9.385  11.477   7.317
 6193POPC   NC377435   2.857  30.257   5.442
 6193POPC   PO477436   3.096  30.898   5.387
 6193POPC   GL177437   2.822  30.737   5.770
 6193POPC   GL277438   2.766  30.399   5.918
 6193POPC   C1A77439   2.812  30.811   6.232
 6193POPC   D2A77440   2.957  30.692   6.670
 6193POPC   C3A77441   2.954  30.962   7.037
 6193POPC   C4A77442   2.558  31.025   7.292
 6193POPC   C1B77443   2.790  30.312   6.349
 6193POPC   C2B77444   2.543  30.408   6.717
 6193POPC   C3B77445   2.715  30.509   7.151
 6193POPC   C4B77446   2.729  30.351   7.605
 6194POPC   NC377447  41.845  26.037   5.495
 6194POPC   PO477448  41.197  25.807   5.350
 6194POPC   GL177449  41.143  25.830   5.748
 6194POPC   GL277450  41.380  26.097   5.774
 6194POPC   C1A77451  41.260  25.682   6.155
 6194POPC   D2A77452  41.471  25.838   6.508
 6194POPC   C3A77453  41.279  25.756   6.909
 6194POPC   C4A77454  41.540  25.799   7.265
 6194POPC   C1B77455  41.567  26.220   6.145
 6194POPC   C2B77456  41.500  26.346   6.537
 6194POPC   C3B77457  41.562  26.174   6.933
 6194POPC   C4B77458  41.518  26.351   7.351
 6195POPC   NC377459  36.335   2.183   5.468
 6195POPC   PO477460  35.996   1.594   5.265
 6195POPC   GL177461  35.894   1.728   5.722
 6195POPC   GL277462  36.057   2.027   5.862
 6195POPC   C1A77463  35.920   1.697   6.219
 6195POPC   D2A77464  36.256   1.764   6.517
 6195POPC   C3A77465  36.057   1.902   6.877
 6195POPC   C4A77466  35.943   1.865   7.270
 6195POPC   C1B77467  35.690   2.153   6.144
 6195POPC   C2B77468  35.758   2.192   6.598
 6195POPC   C3B77469  35.634   2.230   7.067
 6195POPC   C4B77470  35.681   2.181   7.567
 6196POPC   NC377471  28.774  18.120   5.374
 6196POPC   PO477472  29.464  18.166   5.302
 6196POPC   GL177473  29.396  18.281   5.722
 6196POPC   GL277474  29.058  18.319   5.772
 6196POPC   C1A77475  29.408  18.272   6.190
 6196POPC   D2A77476  29.302  18.425   6.610
 6196POPC   C3A77477  29.426  18.297   7.037
 6196POPC   C4A77478  29.281  18.533   7.395
 6196POPC   C1B77479  28.821  18.404   6.151
 6196POPC   C2B77480  28.799  18.238   6.565
 6196POPC   C3B77481  28.911  18.368   6.958
 6196POPC   C4B77482  28.652  18.497   7.244
 6197POPC   NC377483  32.205  31.714   5.378
 6197POPC   PO477484  31.897  31.039   5.297
 6197POPC   GL177485  32.014  31.021   5.757
 6197POPC   GL277486  32.173  31.332   5.696
 6197POPC   C1A77487  32.253  31.157   6.144
 6197POPC   D2A77488  32.392  31.412   6.487
 6197POPC   C3A77489  32.184  31.331   6.865
 6197POPC   C4A77490  32.381  31.164   7.228
 6197POPC   C1B77491  32.151  31.649   6.043
 6197POPC   C2B77492  31.999  31.719   6.448
 6197POPC   C3B77493  32.136  31.859   6.834
 6197POPC   C4B77494  32.215  31.690   7.217
 6198POPC   NC377495  33.078  32.582   5.360
 6198POPC   PO477496  32.638  32.120   5.486
 6198POPC   GL177497  32.905  32.046   5.839
 6198POPC   GL277498  33.026  32.356   5.860
 6198POPC   C1A77499  32.973  32.103   6.295
 6198POPC   D2A77500  33.013  32.358   6.659
 6198POPC   C3A77501  33.064  32.024   6.960
 6198POPC   C4A77502  33.481  31.890   7.163
 6198POPC   C1B77503  32.754  32.608   6.171
 6198POPC   C2B77504  32.623  32.826   6.546
 6198POPC   C3B77505  32.550  32.513   6.846
 6198POPC   C4B77506  32.824  32.462   7.160
 6199POPC   NC377507  34.076  35.774   5.155
 6199POPC   PO477508  33.663  36.164   5.568
 6199POPC   GL177509  33.603  36.446   5.919
 6199POPC   GL277510  33.921  36.377   6.012
 6199POPC   C1A77511  33.577  36.503   6.369
 6199POPC   D2A77512  33.829  36.362   6.684
 6199POPC   C3A77513  33.547  36.110   6.903
 6199POPC   C4A77514  33.319  36.292   7.216
 6199POPC   C1B77515  33.771  36.023   6.253
 6199POPC   C2B77516  33.995  35.754   6.536
 6199POPC   C3B77517  34.020  35.929   6.929
 6199POPC   C4B77518  33.819  36.058   7.356
 6200POPC   NC377519  38.879  41.740   5.350
 6200POPC   PO477520  39.561  41.502   5.411
 6200POPC   GL177521  39.310  41.549   5.806
 6200POPC   GL277522  38.975  41.410   5.762
 6200POPC   C1A77523  39.183  41.403   6.247
 6200POPC   D2A77524  39.228  41.630   6.616
 6200POPC   C3A77525  38.969  41.632   6.982
 6200POPC   C4A77526  39.128  41.688   7.424
 6200POPC   C1B77527  38.799  41.682   6.089
 6200POPC   C2B77528  38.775  41.849   6.500
 6200POPC   C3B77529  38.527  41.851   6.873
 6200POPC   C4B77530  38.702  41.940   7.308
 6201POPC   NC377531   6.086  15.744   5.485
 6201POPC   PO477532   5.709  16.255   5.652
 6201POPC   GL177533   5.748  15.925   5.905
 6201POPC   GL277534   5.656  15.583   5.786
 6201POPC   C1A77535   5.722  16.088   6.314
 6201POPC   D2A77536   5.915  16.289   6.660
 6201POPC   C3A77537   5.948  16.040   7.019
 6201POPC   C4A77538   5.577  15.951   7.236
 6201POPC   C1B77539   5.882  15.510   6.180
 6201POPC   C2B77540   5.918  15.701   6.579
 6201POPC   C3B77541   5.732  15.568   6.932
 6201POPC   C4B77542   5.592  15.390   7.309
 6202POPC   NC377543  18.730  19.178   5.418
 6202POPC   PO477544  18.122  18.902   5.406
 6202POPC   GL177545  18.186  18.870   5.813
 6202POPC   GL277546  18.485  18.976   5.847
 6202POPC   C1A77547  18.106  18.992   6.213
 6202POPC   D2A77548  18.300  19.109   6.575
 6202POPC   C3A77549  18.070  19.087   6.909
 6202POPC   C4A77550  18.291  19.184   7.267
 6202POPC   C1B77551  18.670  18.945   6.269
 6202POPC   C2B77552  18.755  18.908   6.735
 6202POPC   C3B77553  18.736  18.956   7.201
 6202POPC   C4B77554  18.501  18.807   7.579
 6203POPC   NC377555  31.500  24.185   5.482
 6203POPC   PO477556  31.698  24.838   5.362
 6203POPC   GL177557  31.702  24.602   5.738
 6203POPC   GL277558  31.363  24.622   5.840
 6203POPC   C1A77559  31.712  24.582   6.210
 6203POPC   D2A77560  31.514  24.463   6.580
 6203POPC   C3A77561  31.559  24.675   6.937
 6203POPC   C4A77562  31.665  24.432   7.262
 6203POPC   C1B77563  31.208  24.398   6.181
 6203POPC   C2B77564  31.146  24.106   6.554
 6203POPC   C3B77565  31.234  24.244   6.989
 6203POPC   C4B77566  31.173  24.512   7.376
 6204POPC   NC377567  42.691  24.467   5.488
 6204POPC   PO477568  42.019  24.290   5.364
 6204POPC   GL177569  42.264  24.370   5.756
 6204POPC   GL277570  42.423  24.705   5.873
 6204POPC   C1A77571  42.380  24.288   6.201
 6204POPC   D2A77572  42.245  24.192   6.646
 6204POPC   C3A77573  42.295  24.489   6.978
 6204POPC   C4A77574  42.456  24.444   7.418
 6204POPC   C1B77575  42.534  24.956   6.284
 6204POPC   C2B77576  42.483  24.893   6.740
 6204POPC   C3B77577  42.757  24.691   7.063
 6204POPC   C4B77578  42.865  24.775   7.510
 6205POPC   NC377579   0.985  27.208   5.538
 6205POPC   PO477580   1.426  27.771   5.471
 6205POPC   GL177581   1.330  27.525   5.859
 6205POPC   GL277582   0.992  27.439   5.983
 6205POPC   C1A77583   1.320  27.490   6.335
 6205POPC   D2A77584   1.180  27.277   6.722
 6205POPC   C3A77585   1.273  27.579   7.012
 6205POPC   C4A77586   1.581  27.920   7.052
 6205POPC   C1B77587   0.787  27.436   6.391
 6205POPC   C2B77588   0.765  27.721   6.772
 6205POPC   C3B77589   0.807  27.694   7.195
 6205POPC   C4B77590   0.896  27.260   7.171
 6206POPC   NC377591   2.032  32.538   5.335
 6206POPC   PO477592   1.673  32.021   5.519
 6206POPC   GL177593   1.983  32.156   5.819
 6206POPC   GL277594   1.895  32.479   5.852
 6206POPC   C1A77595   2.142  32.265   6.256
 6206POPC   D2A77596   2.167  32.073   6.671
 6206POPC   C3A77597   2.308  32.178   7.082
 6206POPC   C4A77598   2.068  31.930   7.378
 6206POPC   C1B77599   1.672  32.534   6.253
 6206POPC   C2B77600   1.840  32.498   6.669
 6206POPC   C3B77601   1.802  32.252   7.054
 6206POPC   C4B77602   1.769  32.319   7.506
 6207POPC   NC377603  27.331  32.357   5.171
 6207POPC   PO477604  27.567  32.358   5.780
 6207POPC   GL177605  27.799  32.323   6.095
 6207POPC   GL277606  27.935  32.022   5.982
 6207POPC   C1A77607  27.709  32.418   6.507
 6207POPC   D2A77608  27.360  32.511   6.744
 6207POPC   C3A77609  27.522  32.444   7.146
 6207POPC   C4A77610  27.885  32.143   7.161
 6207POPC   C1B77611  27.691  31.904   6.331
 6207POPC   C2B77612  27.757  31.839   6.727
 6207POPC   C3B77613  27.459  31.982   6.949
 6207POPC   C4B77614  27.179  31.787   7.161
 6208POPC   NC377615  21.038  42.249   5.185
 6208POPC   PO477616  21.631  42.112   5.351
 6208POPC   GL177617  21.510  42.173   5.767
 6208POPC   GL277618  21.714  42.495   5.782
 6208POPC   C1A77619  21.610  42.180   6.207
 6208POPC   D2A77620  21.516  42.373   6.610
 6208POPC   C3A77621  21.392  42.160   7.005
 6208POPC   C4A77622  21.575  42.179   7.430
 6208POPC   C1B77623  21.757  42.798   6.137
 6208POPC   C2B77624  21.881  42.744   6.571
 6208POPC   C3B77625  21.666  42.698   6.980
 6208POPC   C4B77626  21.352  42.608   7.295
 6209POPC   NC377627  37.149  27.364   5.526
 6209POPC   PO477628  36.633  27.761   5.563
 6209POPC   GL177629  36.778  27.487   5.862
 6209POPC   GL277630  36.815  27.818   6.053
 6209POPC   C1A77631  36.948  27.345   6.235
 6209POPC   D2A77632  36.846  27.620   6.564
 6209POPC   C3A77633  36.902  27.419   6.932
 6209POPC   C4A77634  37.047  27.600   7.280
 6209POPC   C1B77635  36.476  28.007   6.246
 6209POPC   C2B77636  36.358  27.876   6.643
 6209POPC   C3B77637  36.580  27.805   7.016
 6209POPC   C4B77638  36.738  27.983   7.392
 6210POPC   NC377639  34.552  41.991   5.426
 6210POPC   PO477640  34.875  41.353   5.608
 6210POPC   GL177641  34.558  41.578   5.791
 6210POPC   GL277642  34.786  41.839   5.838
 6210POPC   C1A77643  34.413  41.435   6.177
 6210POPC   D2A77644  34.515  41.201   6.539
 6210POPC   C3A77645  34.286  41.326   6.903
 6210POPC   C4A77646  34.142  41.575   7.261
 6210POPC   C1B77647  34.761  42.045   6.215
 6210POPC   C2B77648  34.671  41.996   6.659
 6210POPC   C3B77649  34.635  41.875   7.112
 6210POPC   C4B77650  34.646  41.434   7.229
 6211POPC   NC377651   1.652  32.876   5.659
 6211POPC   PO477652   2.234  32.969   5.344
 6211POPC   GL177653   2.080  33.111   5.777
 6211POPC   GL277654   2.281  32.814   5.825
 6211POPC   C1A77655   1.811  33.236   6.202
 6211POPC   D2A77656   1.609  33.358   6.626
 6211POPC   C3A77657   1.927  33.369   6.958
 6211POPC   C4A77658   2.350  33.133   7.000
 6211POPC   C1B77659   2.137  32.800   6.232
 6211POPC   C2B77660   2.039  33.001   6.611
 6211POPC   C3B77661   1.922  32.857   7.032
 6211POPC   C4B77662   1.613  32.763   7.293
 6212POPC   NC377663  39.408  34.027   5.292
 6212POPC   PO477664  38.914  33.765   5.139
 6212POPC   GL177665  39.164  33.829   5.681
 6212POPC   GL277666  39.491  34.033   5.777
 6212POPC   C1A77667  39.196  33.833   6.142
 6212POPC   D2A77668  39.566  33.780   6.410
 6212POPC   C3A77669  39.422  33.602   6.800
 6212POPC   C4A77670  39.235  33.626   7.225
 6212POPC   C1B77671  39.502  34.276   6.141
 6212POPC   C2B77672  39.271  34.212   6.501
 6212POPC   C3B77673  39.530  34.116   6.834
 6212POPC   C4B77674  39.348  34.128   7.195
 6213POPC   NC377675  21.246   2.841   5.108
 6213POPC   PO477676  21.558   2.307   5.478
 6213POPC   GL177677  21.562   2.670   5.789
 6213POPC   GL277678  21.241   2.850   5.886
 6213POPC   C1A77679  21.517   2.616   6.255
 6213POPC   D2A77680  21.555   2.381   6.625
 6213POPC   C3A77681  21.386   2.588   6.969
 6213POPC   C4A77682  21.513   2.577   7.359
 6213POPC   C1B77683  21.361   3.109   6.221
 6213POPC   C2B77684  21.444   3.017   6.670
 6213POPC   C3B77685  21.349   3.083   7.125
 6213POPC   C4B77686  21.014   3.252   7.372
 6214POPC   NC377687  39.759  21.037   5.449
 6214POPC   PO477688  39.891  20.422   5.281
 6214POPC   GL177689  40.060  20.587   5.701
 6214POPC   GL277690  40.128  20.241   5.841
 6214POPC   C1A77691  40.062  20.916   6.048
 6214POPC   D2A77692  39.964  20.973   6.492
 6214POPC   C3A77693  40.079  20.909   6.913
 6214POPC   C4A77694  39.894  20.862   7.358
 6214POPC   C1B77695  40.179  20.211   6.288
 6214POPC   C2B77696  39.902  20.454   6.535
 6214POPC   C3B77697  39.796  20.477   6.950
 6214POPC   C4B77698  40.137  20.437   7.217
 6215POPC   NC377699  42.266  18.604   5.336
 6215POPC   PO477700  42.524  17.926   5.518
 6215POPC   GL177701  42.219  18.118   5.817
 6215POPC   GL277702  42.105  18.466   5.787
 6215POPC   C1A77703  42.276  18.264   6.229
 6215POPC   D2A77704  42.484  18.515   6.514
 6215POPC   C3A77705  42.417  18.416   6.942
 6215POPC   C4A77706  42.400  18.097   7.252
 6215POPC   C1B77707  41.856  18.539   6.142
 6215POPC   C2B77708  41.911  18.376   6.565
 6215POPC   C3B77709  41.942  18.618   6.922
 6215POPC   C4B77710  42.065  18.488   7.317
 6216POPC   NC377711  38.521  33.546   5.216
 6216POPC   PO477712  38.815  34.123   5.513
 6216POPC   GL177713  38.447  33.914   5.732
 6216POPC   GL277714  38.409  33.590   5.690
 6216POPC   C1A77715  38.273  33.732   6.131
 6216POPC   D2A77716  38.375  33.919   6.450
 6216POPC   C3A77717  38.383  33.767   6.840
 6216POPC   C4A77718  38.225  33.669   7.244
 6216POPC   C1B77719  38.758  33.595   5.982
 6216POPC   C2B77720  38.777  33.583   6.417
 6216POPC   C3B77721  38.900  33.583   6.822
 6216POPC   C4B77722  38.737  33.681   7.207
 6217POPC   NC377723  12.240  21.334   5.664
 6217POPC   PO477724  11.729  21.612   5.414
 6217POPC   GL177725  11.725  21.351   5.817
 6217POPC   GL277726  11.695  20.986   5.743
 6217POPC   C1A77727  11.870  21.446   6.268
 6217POPC   D2A77728  12.111  21.489   6.675
 6217POPC   C3A77729  12.147  21.513   7.123
 6217POPC   C4A77730  12.428  21.644   7.480
 6217POPC   C1B77731  11.961  20.951   6.143
 6217POPC   C2B77732  12.233  21.031   6.491
 6217POPC   C3B77733  12.236  21.036   6.925
 6217POPC   C4B77734  12.041  20.996   7.304
 6218POPC   NC377735   6.787  35.123   5.612
 6218POPC   PO477736   6.486  35.663   5.341
 6218POPC   GL177737   6.439  35.483   5.772
 6218POPC   GL277738   6.236  35.174   5.759
 6218POPC   C1A77739   6.621  35.493   6.211
 6218POPC   D2A77740   6.417  35.667   6.577
 6218POPC   C3A77741   6.658  35.573   6.935
 6218POPC   C4A77742   6.828  35.287   7.229
 6218POPC   C1B77743   6.339  35.054   6.181
 6218POPC   C2B77744   6.530  35.157   6.607
 6218POPC   C3B77745   6.321  35.203   7.007
 6218POPC   C4B77746   6.200  34.880   7.240
 6219POPC   NC377747  26.644  42.440   5.494
 6219POPC   PO477748  27.253  42.794   5.535
 6219POPC   GL177749  26.984  42.511   5.866
 6219POPC   GL277750  26.594  42.560   5.985
 6219POPC   C1A77751  26.887  42.268   6.286
 6219POPC   D2A77752  26.666  42.504   6.637
 6219POPC   C3A77753  26.668  42.450   7.099
 6219POPC   C4A77754  26.992  42.477   7.402
 6219POPC   C1B77755  26.346  42.283   6.296
 6219POPC   C2B77756  26.527  41.994   6.607
 6219POPC   C3B77757  26.469  41.973   7.048
 6219POPC   C4B77758  26.527  42.102   7.479
 6220POPC   NC377759  16.663  23.190   5.416
 6220POPC   PO477760  17.113  22.784   5.585
 6220POPC   GL177761  17.008  23.104   5.914
 6220POPC   GL277762  16.648  23.218   5.942
 6220POPC   C1A77763  16.901  22.980   6.363
 6220POPC   D2A77764  16.542  22.874   6.677
 6220POPC   C3A77765  16.720  22.753   7.063
 6220POPC   C4A77766  16.958  22.381   7.156
 6220POPC   C1B77767  16.518  23.317   6.371
 6220POPC   C2B77768  16.749  23.339   6.751
 6220POPC   C3B77769  16.562  23.245   7.115
 6220POPC   C4B77770  16.202  23.351   7.321
 6221POPC   NC377771  32.417  10.122   5.314
 6221POPC   PO477772  32.028   9.583   5.498
 6221POPC   GL177773  32.252   9.688   5.859
 6221POPC   GL277774  32.135  10.015   5.762
 6221POPC   C1A77775  32.149   9.619   6.319
 6221POPC   D2A77776  31.957   9.581   6.748
 6221POPC   C3A77777  32.312   9.634   7.084
 6221POPC   C4A77778  32.490   9.617   7.514
 6221POPC   C1B77779  31.960  10.067   6.168
 6221POPC   C2B77780  32.072  10.091   6.628
 6221POPC   C3B77781  31.940  10.005   7.058
 6221POPC   C4B77782  32.053   9.909   7.499
 6222POPC   NC377783  29.858   3.619   5.472
 6222POPC   PO477784  29.873   4.348   5.342
 6222POPC   GL177785  29.943   4.459   5.743
 6222POPC   GL277786  29.889   4.112   5.853
 6222POPC   C1A77787  30.088   4.559   6.157
 6222POPC   D2A77788  30.054   4.323   6.537
 6222POPC   C3A77789  30.087   4.563   6.903
 6222POPC   C4A77790  30.101   4.317   7.251
 6222POPC   C1B77791  29.637   4.270   6.225
 6222POPC   C2B77792  29.512   4.381   6.681
 6222POPC   C3B77793  29.607   4.269   7.135
 6222POPC   C4B77794  29.716   4.331   7.593
 6223POPC   NC377795  37.584  19.514   5.473
 6223POPC   PO477796  37.936  20.122   5.375
 6223POPC   GL177797  37.825  19.876   5.774
 6223POPC   GL277798  37.643  19.583   5.960
 6223POPC   C1A77799  37.700  19.992   6.209
 6223POPC   D2A77800  37.573  19.766   6.568
 6223POPC   C3A77801  37.764  19.869   6.944
 6223POPC   C4A77802  37.548  19.767   7.263
 6223POPC   C1B77803  37.940  19.504   6.308
 6223POPC   C2B77804  37.909  19.384   6.737
 6223POPC   C3B77805  37.913  19.419   7.170
 6223POPC   C4B77806  37.698  19.376   7.548
 6224POPC   NC377807  42.970  14.318   5.442
 6224POPC   PO477808  42.680  13.670   5.482
 6224POPC   GL177809  42.884  14.011   5.832
 6224POPC   GL277810  43.241  14.264   5.856
 6224POPC   C1A77811  42.933  14.230   6.247
 6224POPC   D2A77812  42.819  14.111   6.646
 6224POPC   C3A77813  42.896  14.421   6.950
 6224POPC   C4A77814  43.243  14.528   7.173
 6224POPC   C1B77815  43.449  14.165   6.250
 6224POPC   C2B77816  43.336  14.004   6.676
 6224POPC   C3B77817  43.496  14.063   7.098
 6224POPC   C4B77818  43.392  14.195   7.543
 6225POPC   NC377819  20.063  15.467   5.546
 6225POPC   PO477820  19.751  14.867   5.339
 6225POPC   GL177821  19.770  15.075   5.740
 6225POPC   GL277822  19.994  14.862   5.908
 6225POPC   C1A77823  19.834  15.341   6.138
 6225POPC   D2A77824  20.123  15.407   6.490
 6225POPC   C3A77825  19.903  15.468   6.861
 6225POPC   C4A77826  20.042  15.423   7.261
 6225POPC   C1B77827  19.589  14.868   6.173
 6225POPC   C2B77828  19.486  14.684   6.571
 6225POPC   C3B77829  19.544  14.780   6.965
 6225POPC   C4B77830  19.914  14.973   7.057
 6226POPC   NC377831   3.368  18.580   5.306
 6226POPC   PO477832   3.178  18.014   5.397
 6226POPC   GL177833   3.409  18.222   5.741
 6226POPC   GL277834   3.721  18.352   5.628
 6226POPC   C1A77835   3.510  18.103   6.189
 6226POPC   D2A77836   3.320  18.182   6.592
 6226POPC   C3A77837   3.512  18.004   6.951
 6226POPC   C4A77838   3.470  18.267   7.276
 6226POPC   C1B77839   3.659  18.580   6.006
 6226POPC   C2B77840   3.620  18.579   6.430
 6226POPC   C3B77841   3.635  18.530   6.871
 6226POPC   C4B77842   3.631  18.737   7.267
 6227POPC   NC377843   6.989  32.128   5.434
 6227POPC   PO477844   6.392  32.549   5.466
 6227POPC   GL177845   6.562  32.420   5.841
 6227POPC   GL277846   6.589  32.078   5.845
 6227POPC   C1A77847   6.710  32.368   6.259
 6227POPC   D2A77848   6.968  32.234   6.593
 6227POPC   C3A77849   6.894  32.461   6.962
 6227POPC   C4A77850   6.756  32.405   7.368
 6227POPC   C1B77851   6.687  31.842   6.220
 6227POPC   C2B77852   6.737  31.750   6.652
 6227POPC   C3B77853   6.650  31.898   7.095
 6227POPC   C4B77854   6.356  31.947   7.451
 6228POPC   NC377855  22.140  35.969   5.115
 6228POPC   PO477856  22.343  35.329   5.306
 6228POPC   GL177857  22.313  35.398   5.760
 6228POPC   GL277858  22.561  35.099   5.779
 6228POPC   C1A77859  22.019  35.530   6.137
 6228POPC   D2A77860  21.940  35.334   6.561
 6228POPC   C3A77861  21.977  35.535   6.964
 6228POPC   C4A77862  22.082  35.154   7.229
 6228POPC   C1B77863  22.402  35.203   6.225
 6228POPC   C2B77864  22.382  35.564   6.568
 6228POPC   C3B77865  22.468  35.479   7.014
 6228POPC   C4B77866  22.569  35.229   7.373
 6229POPC   NC377867   1.765   0.758   5.140
 6229POPC   PO477868   2.183   1.264   5.180
 6229POPC   GL177869   2.058   1.236   5.635
 6229POPC   GL277870   1.809   1.463   5.776
 6229POPC   C1A77871   2.067   1.086   6.095
 6229POPC   D2A77872   2.029   0.805   6.488
 6229POPC   C3A77873   2.120   0.978   6.921
 6229POPC   C4A77874   2.195   1.241   7.274
 6229POPC   C1B77875   1.978   1.595   6.163
 6229POPC   C2B77876   2.118   1.373   6.529
 6229POPC   C3B77877   1.932   1.465   6.909
 6229POPC   C4B77878   1.872   1.681   7.286
 6230POPC   NC377879  13.559  32.504   5.549
 6230POPC   PO477880  13.880  32.009   5.488
 6230POPC   GL177881  13.961  32.356   5.787
 6230POPC   GL277882  13.886  32.142   6.047
 6230POPC   C1A77883  13.832  32.627   6.166
 6230POPC   D2A77884  13.808  32.391   6.553
 6230POPC   C3A77885  13.773  32.639   6.966
 6230POPC   C4A77886  13.840  32.491   7.385
 6230POPC   C1B77887  13.495  32.020   6.230
 6230POPC   C2B77888  13.355  32.064   6.630
 6230POPC   C3B77889  13.578  32.168   6.971
 6230POPC   C4B77890  13.492  32.105   7.363
 6231POPC   NC377891  21.850  14.792   5.654
 6231POPC   PO477892  22.468  14.834   5.270
 6231POPC   GL177893  22.273  14.532   5.671
 6231POPC   GL277894  22.479  14.576   5.907
 6231POPC   C1A77895  22.062  14.295   6.099
 6231POPC   D2A77896  21.835  14.144   6.523
 6231POPC   C3A77897  22.096  14.005   6.882
 6231POPC   C4A77898  22.113  13.868   7.309
 6231POPC   C1B77899  22.366  14.674   6.329
 6231POPC   C2B77900  22.453  14.516   6.741
 6231POPC   C3B77901  22.408  14.583   7.169
 6231POPC   C4B77902  22.278  14.320   7.498
 6232POPC   NC377903  18.897  21.605   5.388
 6232POPC   PO477904  19.342  21.160   5.225
 6232POPC   GL177905  19.313  21.316   5.687
 6232POPC   GL277906  19.134  21.623   5.839
 6232POPC   C1A77907  19.413  21.350   6.153
 6232POPC   D2A77908  19.189  21.519   6.521
 6232POPC   C3A77909  19.341  21.297   6.885
 6232POPC   C4A77910  19.109  21.096   7.198
 6232POPC   C1B77911  18.925  21.876   6.174
 6232POPC   C2B77912  18.672  21.732   6.536
 6232POPC   C3B77913  18.670  21.464   6.903
 6232POPC   C4B77914  18.763  21.606   7.289
 6233POPC   NC377915  11.127  30.844   5.230
 6233POPC   PO477916  11.749  30.666   5.336
 6233POPC   GL177917  11.531  30.739   5.757
 6233POPC   GL277918  11.155  30.847   5.754
 6233POPC   C1A77919  11.533  30.884   6.203
 6233POPC   D2A77920  11.689  30.928   6.642
 6233POPC   C3A77921  11.644  30.886   7.138
 6233POPC   C4A77922  11.560  30.571   7.519
 6233POPC   C1B77923  11.129  30.562   6.123
 6233POPC   C2B77924  11.272  30.623   6.553
 6233POPC   C3B77925  11.194  30.866   6.911
 6233POPC   C4B77926  11.120  30.687   7.297
 6234POPC   NC377927   9.336   9.794   5.365
 6234POPC   PO477928   8.662   9.673   5.408
 6234POPC   GL177929   8.802   9.839   5.790
 6234POPC   GL277930   9.158   9.895   5.841
 6234POPC   C1A77931   8.712   9.962   6.200
 6234POPC   D2A77932   8.717   9.733   6.555
 6234POPC   C3A77933   8.603   9.976   6.890
 6234POPC   C4A77934   8.761   9.922   7.271
 6234POPC   C1B77935   9.161   9.738   6.255
 6234POPC   C2B77936   9.231   9.608   6.683
 6234POPC   C3B77937   9.236   9.879   7.055
 6234POPC   C4B77938   9.213  10.185   7.387
 6235POPC   NC377939  10.943  43.952   5.586
 6235POPC   PO477940  11.632  44.048   5.538
 6235POPC   GL177941  11.387  43.845   5.840
 6235POPC   GL277942  11.232  43.500   5.801
 6235POPC   C1A77943  11.285  44.012   6.231
 6235POPC   D2A77944  11.515  43.901   6.586
 6235POPC   C3A77945  11.388  44.096   6.934
 6235POPC   C4A77946  10.985  44.136   7.092
 6235POPC   C1B77947  11.401  43.502   6.230
 6235POPC   C2B77948  11.272  43.411   6.665
 6235POPC   C3B77949  11.187  43.624   7.079
 6235POPC   C4B77950  11.465  43.663   7.442
 6236POPC   NC377951   6.385  12.363   5.627
 6236POPC   PO477952   6.749  11.840   5.259
 6236POPC   GL177953   6.733  11.971   5.738
 6236POPC   GL277954   6.816  12.349   5.892
 6236POPC   C1A77955   6.839  11.960   6.209
 6236POPC   D2A77956   7.050  12.200   6.568
 6236POPC   C3A77957   6.848  12.156   6.978
 6236POPC   C4A77958   6.655  11.834   7.203
 6236POPC   C1B77959   6.556  12.377   6.337
 6236POPC   C2B77960   6.384  12.283   6.804
 6236POPC   C3B77961   6.312  12.206   7.303
 6236POPC   C4B77962   6.379  12.148   7.808
 6237POPC   NC377963   5.783  42.623   5.506
 6237POPC   PO477964   5.799  43.297   5.312
 6237POPC   GL177965   5.951  43.272   5.744
 6237POPC   GL277966   5.997  42.926   5.864
 6237POPC   C1A77967   5.780  43.279   6.181
 6237POPC   D2A77968   5.908  43.183   6.599
 6237POPC   C3A77969   5.681  43.147   6.978
 6237POPC   C4A77970   5.961  43.259   7.315
 6237POPC   C1B77971   5.952  42.774   6.286
 6237POPC   C2B77972   5.883  42.670   6.711
 6237POPC   C3B77973   6.085  42.742   7.064
 6237POPC   C4B77974   5.793  42.784   7.329
 6238POPC   NC377975   7.019  33.852   5.525
 6238POPC   PO477976   6.441  33.850   5.172
 6238POPC   GL177977   6.499  33.863   5.687
 6238POPC   GL277978   6.776  33.813   5.941
 6238POPC   C1A77979   6.353  33.617   6.093
 6238POPC   D2A77980   6.546  33.488   6.484
 6238POPC   C3A77981   6.392  33.603   6.881
 6238POPC   C4A77982   6.526  33.480   7.278
 6238POPC   C1B77983   6.665  33.966   6.326
 6238POPC   C2B77984   6.840  33.854   6.710
 6238POPC   C3B77985   6.742  33.932   7.135
 6238POPC   C4B77986   6.526  34.209   7.410
 6239POPC   NC377987  17.118  25.227   5.650
 6239POPC   PO477988  17.783  25.111   5.472
 6239POPC   GL177989  17.654  25.135   5.837
 6239POPC   GL277990  17.612  25.482   5.874
 6239POPC   C1A77991  17.807  25.163   6.237
 6239POPC   D2A77992  17.818  25.509   6.563
 6239POPC   C3A77993  17.757  25.293   6.925
 6239POPC   C4A77994  17.606  25.041   7.227
 6239POPC   C1B77995  17.395  25.437   6.268
 6239POPC   C2B77996  17.340  25.146   6.594
 6239POPC   C3B77997  17.166  25.193   6.992
 6239POPC   C4B77998  17.345  25.446   7.313
 6240POPC   NC377999  42.864   5.143   5.405
 6240POPC   PO478000  42.133   5.085   5.446
 6240POPC   GL178001  42.227   4.914   5.812
 6240POPC   GL278002  42.578   4.993   5.790
 6240POPC   C1A78003  42.312   5.064   6.225
 6240POPC   D2A78004  42.353   5.313   6.569
 6240POPC   C3A78005  42.324   5.120   6.989
 6240POPC   C4A78006  42.138   4.871   7.350
 6240POPC   C1B78007  42.774   4.825   6.177
 6240POPC   C2B78008  42.790   5.023   6.585
 6240POPC   C3B78009  42.721   4.803   6.962
 6240POPC   C4B78010  42.644   4.811   7.398
 6241POPC   NC378011  22.036   2.185   5.321
 6241POPC   PO478012  22.570   1.787   5.563
 6241POPC   GL178013  22.310   2.001   5.839
 6241POPC   GL278014  22.408   2.341   5.852
 6241POPC   C1A78015  22.222   2.044   6.286
 6241POPC   D2A78016  22.055   2.346   6.547
 6241POPC   C3A78017  22.099   2.272   6.988
 6241POPC   C4A78018  22.126   1.943   7.258
 6241POPC   C1B78019  22.447   2.555   6.287
 6241POPC   C2B78020  22.397   2.635   6.768
 6241POPC   C3B78021  22.514   2.545   7.192
 6241POPC   C4B78022  22.305   2.318   7.541
 6242POPC   NC378023  43.594  41.132   5.481
 6242POPC   PO478024  44.239  41.299   5.604
 6242POPC   GL178025  43.987  40.915   5.750
 6242POPC   GL278026  44.187  40.629   5.909
 6242POPC   C1A78027  43.728  40.837   6.130
 6242POPC   D2A78028  43.905  40.877   6.555
 6242POPC   C3A78029  43.792  40.863   6.992
 6242POPC   C4A78030  44.171  40.968   7.208
 6242POPC   C1B78031  44.031  40.432   6.312
 6242POPC   C2B78032  43.909  40.395   6.765
 6242POPC   C3B78033  44.188  40.453   7.123
 6242POPC   C4B78034  44.251  40.292   7.558
 6243POPC   NC378035  29.827  41.988   5.328
 6243POPC   PO478036  30.078  41.425   5.126
 6243POPC   GL178037  29.916  41.515   5.582
 6243POPC   GL278038  30.058  41.815   5.763
 6243POPC   C1A78039  29.838  41.379   6.041
 6243POPC   D2A78040  29.702  41.510   6.459
 6243POPC   C3A78041  29.767  41.397   6.858
 6243POPC   C4A78042  29.670  41.195   7.212
 6243POPC   C1B78043  29.787  41.894   6.135
 6243POPC   C2B78044  29.986  41.950   6.557
 6243POPC   C3B78045  30.190  41.869   6.932
 6243POPC   C4B78046  29.892  41.771   7.192
 6244POPC   NC378047   3.878  11.078   5.462
 6244POPC   PO478048   3.355  11.563   5.365
 6244POPC   GL178049   3.226  11.341   5.738
 6244POPC   GL278050   3.559  11.207   5.847
 6244POPC   C1A78051   3.248  11.473   6.171
 6244POPC   D2A78052   3.513  11.592   6.517
 6244POPC   C3A78053   3.583  11.343   6.851
 6244POPC   C4A78054   3.316  11.411   7.191
 6244POPC   C1B78055   3.653  11.140   6.285
 6244POPC   C2B78056   3.464  10.891   6.593
 6244POPC   C3B78057   3.329  10.909   7.006
 6244POPC   C4B78058   3.648  11.012   7.239
 6245POPC   NC378059   6.027   7.925   5.267
 6245POPC   PO478060   5.791   7.300   5.344
 6245POPC   GL178061   5.872   7.559   5.712
 6245POPC   GL278062   5.580   7.701   5.885
 6245POPC   C1A78063   5.886   7.402   6.161
 6245POPC   D2A78064   5.994   7.271   6.585
 6245POPC   C3A78065   5.782   7.125   6.922
 6245POPC   C4A78066   5.822   7.328   7.317
 6245POPC   C1B78067   5.434   7.626   6.265
 6245POPC   C2B78068   5.696   7.687   6.568
 6245POPC   C3B78069   5.839   7.684   6.961
 6245POPC   C4B78070   5.653   7.821   7.369
 6246POPC   NC378071   0.579  42.633   5.160
 6246POPC   PO478072   0.247  42.140   5.376
 6246POPC   GL178073   0.361  42.468   5.660
 6246POPC   GL278074   0.027  42.559   5.763
 6246POPC   C1A78075   0.539  42.446   6.101
 6246POPC   D2A78076   0.729  42.376   6.532
 6246POPC   C3A78077   0.531  42.557   6.913
 6246POPC   C4A78078   0.694  42.453   7.318
 6246POPC   C1B78079   0.034  42.289   6.114
 6246POPC   C2B78080   0.208  42.285   6.529
 6246POPC   C3B78081   0.025  42.382   6.921
 6246POPC   C4B78082   0.195  42.404   7.296
 6247POPC   NC378083  32.142  24.837   5.171
 6247POPC   PO478084  32.495  24.288   5.208
 6247POPC   GL178085  32.380  24.508   5.592
 6247POPC   GL278086  32.173  24.826   5.685
 6247POPC   C1A78087  32.122  24.362   5.964
 6247POPC   D2A78088  32.156  24.144   6.388
 6247POPC   C3A78089  31.973  24.303   6.804
 6247POPC   C4A78090  32.160  24.416   7.210
 6247POPC   C1B78091  32.486  24.713   6.034
 6247POPC   C2B78092  32.500  24.793   6.492
 6247POPC   C3B78093  32.500  24.716   6.943
 6247POPC   C4B78094  32.502  24.832   7.375
 6248POPC   NC378095   5.704   4.882   5.378
 6248POPC   PO478096   5.569   5.414   4.974
 6248POPC   GL178097   5.685   5.394   5.519
 6248POPC   GL278098   6.047   5.474   5.660
 6248POPC   C1A78099   5.726   5.327   6.054
 6248POPC   D2A78100   5.597   5.268   6.557
 6248POPC   C3A78101   5.891   5.060   6.930
 6248POPC   C4A78102   5.852   4.862   7.378
 6248POPC   C1B78103   6.252   5.381   6.084
 6248POPC   C2B78104   6.120   5.339   6.542
 6248POPC   C3B78105   6.212   5.476   6.988
 6248POPC   C4B78106   6.168   5.267   7.411
 6249POPC   NC378107  44.706  14.664   5.412
 6249POPC   PO478108  44.942  13.998   5.363
 6249POPC   GL178109  44.790  14.242   5.764
 6249POPC   GL278110  44.441  14.379   5.926
 6249POPC   C1A78111  44.845  14.308   6.210
 6249POPC   D2A78112  44.664  14.488   6.557
 6249POPC   C3A78113  44.915  14.483   6.895
 6249POPC   C4A78114  44.779  14.543   7.280
 6249POPC   C1B78115  44.209  14.585   6.314
 6249POPC   C2B78116  44.192  14.533   6.779
 6249POPC   C3B78117  44.277  14.449   7.225
 6249POPC   C4B78118  44.456  14.131   7.482
 6250POPC   NC378119   2.441  14.418   5.409
 6250POPC   PO478120   1.772  14.289   5.423
 6250POPC   GL178121   2.078  14.250   5.737
 6250POPC   GL278122   2.054  14.593   5.783
 6250POPC   C1A78123   2.264  14.309   6.161
 6250POPC   D2A78124   2.093  14.448   6.565
 6250POPC   C3A78125   2.320  14.496   6.925
 6250POPC   C4A78126   2.173  14.340   7.291
 6250POPC   C1B78127   1.787  14.529   6.169
 6250POPC   C2B78128   1.588  14.597   6.594
 6250POPC   C3B78129   1.688  14.503   7.027
 6250POPC   C4B78130   1.690  14.366   7.492
 6251POPC   NC378131   4.802  44.892   5.485
 6251POPC   PO478132   5.425  44.541   5.430
 6251POPC   GL178133   5.146  44.623   5.761
 6251POPC   GL278134   5.426  44.778   5.921
 6251POPC   C1A78135   4.974  44.853   6.118
 6251POPC   D2A78136   5.250   0.059   6.396
 6251POPC   C3A78137   5.187  44.875   6.765
 6251POPC   C4A78138   5.101  44.855   7.190
 6251POPC   C1B78139   5.263  44.472   6.246
 6251POPC   C2B78140   5.325  44.379   6.672
 6251POPC   C3B78141   5.488  44.552   7.016
 6251POPC   C4B78142   5.313  44.409   7.315
 6252POPC   NC378143  36.557   3.843   5.411
 6252POPC   PO478144  36.878   3.208   5.400
 6252POPC   GL178145  36.863   3.515   5.769
 6252POPC   GL278146  37.156   3.736   5.732
 6252POPC   C1A78147  36.729   3.480   6.246
 6252POPC   D2A78148  36.561   3.617   6.680
 6252POPC   C3A78149  36.826   3.502   7.053
 6252POPC   C4A78150  37.131   3.144   7.072
 6252POPC   C1B78151  37.227   3.609   6.144
 6252POPC   C2B78152  37.167   3.449   6.556
 6252POPC   C3B78153  37.319   3.599   6.932
 6252POPC   C4B78154  37.164   3.834   7.273
 6253POPC   NC378155  44.330  38.109   5.539
 6253POPC   PO478156  44.822  38.690   5.506
 6253POPC   GL178157  44.572  38.509   5.803
 6253POPC   GL278158  44.430  38.752   6.023
 6253POPC   C1A78159  44.617  38.297   6.210
 6253POPC   D2A78160  44.550  38.461   6.641
 6253POPC   C3A78161  44.741  38.220   6.955
 6253POPC   C4A78162  44.610  37.922   7.219
 6253POPC   C1B78163  44.841  38.752   6.317
 6253POPC   C2B78164  44.949  38.755   6.774
 6253POPC   C3B78165  44.672  38.695   7.102
 6253POPC   C4B78166  44.258  38.772   7.031
 6254POPC   NC378167  39.720  17.776   5.363
 6254POPC   PO478168  40.357  17.693   5.493
 6254POPC   GL178169  40.116  17.393   5.780
 6254POPC   GL278170  39.782  17.483   5.802
 6254POPC   C1A78171  40.007  17.207   6.193
 6254POPC   D2A78172  40.149  17.358   6.587
 6254POPC   C3A78173  39.857  17.322   6.931
 6254POPC   C4A78174  39.836  17.174   7.380
 6254POPC   C1B78175  40.054  17.718   6.164
 6254POPC   C2B78176  39.986  17.878   6.590
 6254POPC   C3B78177  40.058  18.035   7.006
 6254POPC   C4B78178  40.298  17.868   7.393
 6255POPC   NC378179  31.544  10.516   5.065
 6255POPC   PO478180  31.177  10.967   5.370
 6255POPC   GL178181  31.272  10.683   5.736
 6255POPC   GL278182  31.568  10.456   5.765
 6255POPC   C1A78183  31.324  10.694   6.182
 6255POPC   D2A78184  31.350  10.497   6.575
 6255POPC   C3A78185  31.213  10.667   6.933
 6255POPC   C4A78186  31.344  10.717   7.340
 6255POPC   C1B78187  31.448  10.185   6.146
 6255POPC   C2B78188  31.570  10.017   6.561
 6255POPC   C3B78189  31.470  10.205   6.976
 6255POPC   C4B78190  31.692  10.355   7.354
 6256POPC   NC378191   1.011  25.846   5.522
 6256POPC   PO478192   1.520  26.245   5.214
 6256POPC   GL178193   1.357  26.238   5.675
 6256POPC   GL278194   1.370  25.945   5.876
 6256POPC   C1A78195   1.357  26.412   6.145
 6256POPC   D2A78196   1.429  26.228   6.579
 6256POPC   C3A78197   1.182  26.259   6.986
 6256POPC   C4A78198   1.340  26.230   7.419
 6256POPC   C1B78199   1.444  25.691   6.231
 6256POPC   C2B78200   1.189  25.767   6.560
 6256POPC   C3B78201   0.976  25.689   6.912
 6256POPC   C4B78202   1.047  25.782   7.305
 6257POPC   NC378203   7.148   0.922   5.628
 6257POPC   PO478204   6.527   0.957   5.298
 6257POPC   GL178205   6.606   1.024   5.757
 6257POPC   GL278206   6.594   1.350   5.804
 6257POPC   C1A78207   6.479   1.130   6.234
 6257POPC   D2A78208   6.399   0.983   6.658
 6257POPC   C3A78209   6.324   1.300   6.972
 6257POPC   C4A78210   6.478   1.456   7.317
 6257POPC   C1B78211   6.494   1.636   6.164
 6257POPC   C2B78212   6.544   1.537   6.581
 6257POPC   C3B78213   6.823   1.360   6.874
 6257POPC   C4B78214   7.002   1.534   7.214
 6258POPC   NC378215  18.590  15.125   5.303
 6258POPC   PO478216  18.053  15.490   5.511
 6258POPC   GL178217  18.446  15.353   5.766
 6258POPC   GL278218  18.436  15.020   5.828
 6258POPC   C1A78219  18.679  15.276   6.193
 6258POPC   D2A78220  18.578  15.172   6.640
 6258POPC   C3A78221  18.166  15.310   6.855
 6258POPC   C4A78222  18.324  15.400   7.285
 6258POPC   C1B78223  18.279  14.926   6.263
 6258POPC   C2B78224  18.230  14.799   6.719
 6258POPC   C3B78225  18.415  14.943   7.093
 6258POPC   C4B78226  18.035  14.976   7.289
 6259POPC   NC378227  33.283  10.216   5.462
 6259POPC   PO478228  32.741  10.561   5.143
 6259POPC   GL178229  33.047  10.651   5.591
 6259POPC   GL278230  33.297  10.771   5.705
 6259POPC   C1A78231  32.982  10.621   6.070
 6259POPC   D2A78232  32.764  10.711   6.462
 6259POPC   C3A78233  32.892  10.465   6.803
 6259POPC   C4A78234  32.766  10.555   7.211
 6259POPC   C1B78235  33.442  10.861   6.121
 6259POPC   C2B78236  33.269  10.809   6.522
 6259POPC   C3B78237  33.322  10.708   6.929
 6259POPC   C4B78238  33.262  10.668   7.337
 6260POPC   NC378239   8.948   3.439   5.455
 6260POPC   PO478240   8.647   4.059   5.437
 6260POPC   GL178241   8.691   3.765   5.814
 6260POPC   GL278242   8.667   3.378   5.878
 6260POPC   C1A78243   8.694   3.731   6.260
 6260POPC   D2A78244   9.033   3.687   6.562
 6260POPC   C3A78245   9.029   3.819   6.997
 6260POPC   C4A78246   8.795   3.516   7.207
 6260POPC   C1B78247   8.941   3.281   6.223
 6260POPC   C2B78248   9.001   3.159   6.644
 6260POPC   C3B78249   8.693   3.059   6.967
 6260POPC   C4B78250   8.499   3.149   7.366
 6261POPC   NC378251   2.509   2.165   5.406
 6261POPC   PO478252   3.014   1.783   5.378
 6261POPC   GL178253   2.756   1.842   5.728
 6261POPC   GL278254   2.847   2.186   5.793
 6261POPC   C1A78255   2.811   1.820   6.175
 6261POPC   D2A78256   3.031   1.749   6.557
 6261POPC   C3A78257   2.751   1.873   6.883
 6261POPC   C4A78258   2.895   1.970   7.294
 6261POPC   C1B78259   2.613   2.364   6.150
 6261POPC   C2B78260   2.488   2.310   6.611
 6261POPC   C3B78261   2.613   2.331   7.058
 6261POPC   C4B78262   2.516   2.342   7.528
 6262POPC   NC378263  17.157  42.912   5.560
 6262POPC   PO478264  17.627  43.288   5.218
 6262POPC   GL178265  17.559  43.290   5.670
 6262POPC   GL278266  17.897  43.314   5.836
 6262POPC   C1A78267  17.491  43.136   6.110
 6262POPC   D2A78268  17.643  43.043   6.530
 6262POPC   C3A78269  17.443  43.158   6.887
 6262POPC   C4A78270  17.300  43.010   7.257
 6262POPC   C1B78271  17.880  43.448   6.289
 6262POPC   C2B78272  17.871  43.439   6.758
 6262POPC   C3B78273  17.877  43.559   7.191
 6262POPC   C4B78274  17.710  43.430   7.581
 6263POPC   NC378275  31.438  32.722   5.495
 6263POPC   PO478276  31.636  33.406   5.378
 6263POPC   GL178277  31.352  33.218   5.697
 6263POPC   GL278278  31.614  33.017   5.864
 6263POPC   C1A78279  31.220  33.136   6.144
 6263POPC   D2A78280  31.412  33.257   6.530
 6263POPC   C3A78281  31.261  33.092   6.910
 6263POPC   C4A78282  31.381  33.265   7.300
 6263POPC   C1B78283  31.690  32.876   6.283
 6263POPC   C2B78284  31.611  32.775   6.702
 6263POPC   C3B78285  31.750  32.922   7.087
 6263POPC   C4B78286  31.820  32.645   7.392
 6264POPC   NC378287   3.371  23.741   5.390
 6264POPC   PO478288   3.346  23.175   5.289
 6264POPC   GL178289   3.574  23.383   5.716
 6264POPC   GL278290   3.700  23.765   5.804
 6264POPC   C1A78291   3.442  23.535   6.172
 6264POPC   D2A78292   3.328  23.521   6.616
 6264POPC   C3A78293   3.643  23.649   6.928
 6264POPC   C4A78294   3.818  23.403   7.290
 6264POPC   C1B78295   3.505  24.050   6.180
 6264POPC   C2B78296   3.373  24.051   6.649
 6264POPC   C3B78297   3.485  24.092   7.090
 6264POPC   C4B78298   3.804  23.908   7.387
 6265POPC   NC378299   2.510  44.113   5.283
 6265POPC   PO478300   3.127  44.262   5.389
 6265POPC   GL178301   2.900  44.012   5.704
 6265POPC   GL278302   2.597  43.844   5.719
 6265POPC   C1A78303   2.969  43.936   6.144
 6265POPC   D2A78304   3.041  43.736   6.540
 6265POPC   C3A78305   2.935  43.865   6.918
 6265POPC   C4A78306   2.876  44.094   7.270
 6265POPC   C1B78307   2.499  43.750   6.157
 6265POPC   C2B78308   2.534  43.643   6.612
 6265POPC   C3B78309   2.414  43.850   6.991
 6265POPC   C4B78310   2.373  43.917   7.428
 6266POPC   NC378311  35.937   4.694   5.368
 6266POPC   PO478312  36.453   4.298   5.454
 6266POPC   GL178313  36.450   4.495   5.872
 6266POPC   GL278314  36.599   4.842   5.864
 6266POPC   C1A78315  36.133   4.476   6.243
 6266POPC   D2A78316  35.883   4.323   6.595
 6266POPC   C3A78317  36.058   4.215   7.003
 6266POPC   C4A78318  36.268   3.908   7.204
 6266POPC   C1B78319  36.536   4.765   6.315
 6266POPC   C2B78320  36.350   4.553   6.743
 6266POPC   C3B78321  36.340   4.579   7.213
 6266POPC   C4B78322  36.157   4.619   7.678
 6267POPC   NC378323   0.047  38.270   5.537
 6267POPC   PO478324   0.708  38.314   5.414
 6267POPC   GL178325   0.453  38.529   5.694
 6267POPC   GL278326   0.621  38.788   5.796
 6267POPC   C1A78327   0.266  38.506   6.100
 6267POPC   D2A78328   0.351  38.569   6.515
 6267POPC   C3A78329   0.244  38.282   6.824
 6267POPC   C4A78330   0.148  38.492   7.193
 6267POPC   C1B78331   0.773  38.697   6.203
 6267POPC   C2B78332   0.839  38.538   6.611
 6267POPC   C3B78333   0.650  38.559   6.984
 6267POPC   C4B78334   0.917  38.694   7.260
 6268POPC   NC378335   1.854  25.720   5.289
 6268POPC   PO478336   2.298  26.140   5.507
 6268POPC   GL178337   1.877  26.054   5.726
 6268POPC   GL278338   1.810  25.687   5.808
 6268POPC   C1A78339   1.758  26.077   6.176
 6268POPC   D2A78340   1.793  25.857   6.608
 6268POPC   C3A78341   1.698  26.087   7.013
 6268POPC   C4A78342   1.862  26.321   7.382
 6268POPC   C1B78343   2.116  25.700   6.141
 6268POPC   C2B78344   2.179  25.508   6.553
 6268POPC   C3B78345   2.327  25.694   6.921
 6268POPC   C4B78346   2.135  25.884   7.260
 6269POPC   NC378347   5.426  11.575   5.612
 6269POPC   PO478348   5.936  11.295   5.350
 6269POPC   GL178349   5.914  11.463   5.754
 6269POPC   GL278350   5.741  11.162   5.863
 6269POPC   C1A78351   6.079  11.422   6.177
 6269POPC   D2A78352   6.212  11.301   6.609
 6269POPC   C3A78353   5.873  11.414   6.911
 6269POPC   C4A78354   5.846  11.524   7.365
 6269POPC   C1B78355   5.478  10.904   6.154
 6269POPC   C2B78356   5.298  11.038   6.542
 6269POPC   C3B78357   5.386  11.074   6.930
 6269POPC   C4B78358   5.664  11.058   7.227
 6270POPC   NC378359   7.312  18.915   5.559
 6270POPC   PO478360   7.825  19.316   5.360
 6270POPC   GL178361   7.828  19.085   5.745
 6270POPC   GL278362   7.791  18.722   5.774
 6270POPC   C1A78363   7.856  19.117   6.189
 6270POPC   D2A78364   7.590  19.351   6.474
 6270POPC   C3A78365   7.585  19.291   6.912
 6270POPC   C4A78366   7.375  18.979   7.143
 6270POPC   C1B78367   7.625  18.672   6.225
 6270POPC   C2B78368   7.593  18.826   6.671
 6270POPC   C3B78369   7.736  18.638   7.073
 6270POPC   C4B78370   7.770  18.602   7.524
 6271POPC   NC378371  24.428  11.855   5.252
 6271POPC   PO478372  24.771  12.380   5.525
 6271POPC   GL178373  24.579  12.175   5.852
 6271POPC   GL278374  24.368  11.914   5.759
 6271POPC   C1A78375  24.643  11.946   6.222
 6271POPC   D2A78376  24.482  12.135   6.576
 6271POPC   C3A78377  24.561  12.001   6.974
 6271POPC   C4A78378  24.754  12.177   7.317
 6271POPC   C1B78379  24.147  11.994   6.181
 6271POPC   C2B78380  23.965  12.113   6.579
 6271POPC   C3B78381  24.059  12.065   6.985
 6271POPC   C4B78382  24.181  11.730   7.276
 6272POPC   NC378383   1.266  28.771   5.478
 6272POPC   PO478384   1.224  29.455   5.227
 6272POPC   GL178385   0.901  29.507   5.573
 6272POPC   GL278386   1.043  29.240   5.767
 6272POPC   C1A78387   0.840  29.638   6.049
 6272POPC   D2A78388   0.819  29.603   6.530
 6272POPC   C3A78389   1.070  29.309   6.803
 6272POPC   C4A78390   1.002  29.040   7.181
 6272POPC   C1B78391   1.200  29.269   6.196
 6272POPC   C2B78392   1.326  28.937   6.504
 6272POPC   C3B78393   1.462  28.904   6.933
 6272POPC   C4B78394   1.463  29.277   7.145
 6273POPC   NC378395  36.413   9.389   5.094
 6273POPC   PO478396  35.950   9.780   5.439
 6273POPC   GL178397  36.088   9.886   5.806
 6273POPC   GL278398  36.388  10.051   5.721
 6273POPC   C1A78399  36.023  10.062   6.209
 6273POPC   D2A78400  35.968   9.800   6.571
 6273POPC   C3A78401  35.887   9.870   6.993
 6273POPC   C4A78402  35.541   9.711   7.202
 6273POPC   C1B78403  36.457   9.813   6.120
 6273POPC   C2B78404  36.451   9.946   6.510
 6273POPC   C3B78405  36.370   9.993   6.903
 6273POPC   C4B78406  36.329   9.647   7.161
 6274POPC   NC378407  27.772  35.629   5.621
 6274POPC   PO478408  27.488  35.050   5.340
 6274POPC   GL178409  27.486  35.243   5.741
 6274POPC   GL278410  27.822  35.156   5.829
 6274POPC   C1A78411  27.390  35.506   6.141
 6274POPC   D2A78412  27.279  35.305   6.541
 6274POPC   C3A78413  27.400  35.471   6.950
 6274POPC   C4A78414  27.511  35.297   7.350
 6274POPC   C1B78415  27.691  35.097   6.236
 6274POPC   C2B78416  27.769  35.139   6.664
 6274POPC   C3B78417  27.942  35.240   7.073
 6274POPC   C4B78418  28.059  35.097   7.489
 6275POPC   NC378419  14.452  15.226   5.300
 6275POPC   PO478420  14.478  14.624   5.568
 6275POPC   GL178421  14.581  15.011   5.760
 6275POPC   GL278422  14.357  15.315   5.814
 6275POPC   C1A78423  14.589  15.034   6.194
 6275POPC   D2A78424  14.753  14.877   6.568
 6275POPC   C3A78425  14.669  15.076   6.956
 6275POPC   C4A78426  14.823  14.839   7.315
 6275POPC   C1B78427  14.327  15.470   6.250
 6275POPC   C2B78428  14.277  15.165   6.598
 6275POPC   C3B78429  14.155  15.104   7.020
 6275POPC   C4B78430  14.333  15.448   7.217
 6276POPC   NC378431   1.168   3.868   5.342
 6276POPC   PO478432   1.378   4.562   5.370
 6276POPC   GL178433   1.111   4.288   5.662
 6276POPC   GL278434   1.333   4.046   5.803
 6276POPC   C1A78435   0.998   4.286   6.107
 6276POPC   D2A78436   1.198   4.493   6.466
 6276POPC   C3A78437   1.109   4.367   6.891
 6276POPC   C4A78438   1.386   4.521   7.229
 6276POPC   C1B78439   1.357   3.888   6.208
 6276POPC   C2B78440   1.461   4.064   6.573
 6276POPC   C3B78441   1.503   3.980   6.970
 6276POPC   C4B78442   1.229   4.020   7.247
 6277POPC   NC378443  20.664  18.048   5.249
 6277POPC   PO478444  20.649  18.743   5.403
 6277POPC   GL178445  20.771  18.456   5.757
 6277POPC   GL278446  20.663  18.112   5.746
 6277POPC   C1A78447  20.843  18.279   6.186
 6277POPC   D2A78448  20.977  18.159   6.590
 6277POPC   C3A78449  20.710  18.218   6.921
 6277POPC   C4A78450  20.768  18.425   7.319
 6277POPC   C1B78451  20.410  18.002   6.107
 6277POPC   C2B78452  20.209  18.024   6.524
 6277POPC   C3B78453  20.300  17.927   6.900
 6277POPC   C4B78454  20.272  18.162   7.268
 6278POPC   NC378455   5.420   0.925   5.392
 6278POPC   PO478456   5.090   0.302   5.422
 6278POPC   GL178457   5.115   0.577   5.756
 6278POPC   GL278458   5.228   0.292   5.937
 6278POPC   C1A78459   4.996   0.777   6.157
 6278POPC   D2A78460   4.666   0.700   6.477
 6278POPC   C3A78461   4.756   0.775   6.915
 6278POPC   C4A78462   5.171   0.722   7.114
 6278POPC   C1B78463   4.784   0.311   6.130
 6278POPC   C2B78464   4.720   0.154   6.565
 6278POPC   C3B78465   4.942   0.292   6.946
 6278POPC   C4B78466   4.802   0.464   7.355
 6279POPC   NC378467  15.305   9.304   5.429
 6279POPC   PO478468  14.850   8.799   5.404
 6279POPC   GL178469  15.072   8.931   5.756
 6279POPC   GL278470  14.968   9.280   5.809
 6279POPC   C1A78471  15.069   8.747   6.168
 6279POPC   D2A78472  15.336   8.847   6.527
 6279POPC   C3A78473  15.080   8.789   6.874
 6279POPC   C4A78474  15.139   8.849   7.282
 6279POPC   C1B78475  15.111   9.253   6.238
 6279POPC   C2B78476  14.923   9.235   6.658
 6279POPC   C3B78477  14.911   9.344   7.109
 6279POPC   C4B78478  14.958   9.248   7.571
 6280POPC   NC378479  19.597  30.784   5.366
 6280POPC   PO478480  20.241  30.883   5.510
 6280POPC   GL178481  19.930  30.755   5.815
 6280POPC   GL278482  19.695  31.010   5.816
 6280POPC   C1A78483  19.718  30.542   6.170
 6280POPC   D2A78484  19.849  30.375   6.586
 6280POPC   C3A78485  19.642  30.142   6.903
 6280POPC   C4A78486  19.628  30.237   7.335
 6280POPC   C1B78487  19.740  31.110   6.248
 6280POPC   C2B78488  19.747  30.870   6.625
 6280POPC   C3B78489  19.760  30.665   7.043
 6280POPC   C4B78490  19.585  30.962   7.354
 6281POPC   NC378491  30.817  21.652   5.367
 6281POPC   PO478492  30.529  21.151   5.130
 6281POPC   GL178493  30.567  21.330   5.663
 6281POPC   GL278494  30.691  21.648   5.854
 6281POPC   C1A78495  30.732  21.205   6.094
 6281POPC   D2A78496  30.561  21.205   6.527
 6281POPC   C3A78497  30.705  21.341   6.943
 6281POPC   C4A78498  30.555  21.237   7.364
 6281POPC   C1B78499  30.440  21.622   6.232
 6281POPC   C2B78500  30.478  21.740   6.677
 6281POPC   C3B78501  30.403  21.721   7.131
 6281POPC   C4B78502  30.364  21.661   7.585
 6282POPC   NC378503   4.451  30.317   5.344
 6282POPC   PO478504   4.141  29.711   5.495
 6282POPC   GL178505   4.391  29.957   5.740
 6282POPC   GL278506   4.636  29.741   5.850
 6282POPC   C1A78507   4.453  30.080   6.174
 6282POPC   D2A78508   4.252  30.195   6.537
 6282POPC   C3A78509   4.340  30.043   6.916
 6282POPC   C4A78510   4.393  29.952   7.339
 6282POPC   C1B78511   4.337  29.580   6.170
 6282POPC   C2B78512   4.507  29.644   6.604
 6282POPC   C3B78513   4.315  29.537   7.004
 6282POPC   C4B78514   4.428  29.455   7.424
 6283POPC   NC378515  20.440  15.781   5.270
 6283POPC   PO478516  20.239  16.331   5.563
 6283POPC   GL178517  20.422  16.104   5.885
 6283POPC   GL278518  20.543  15.786   5.793
 6283POPC   C1A78519  20.587  16.032   6.271
 6283POPC   D2A78520  20.565  16.295   6.608
 6283POPC   C3A78521  20.658  16.097   6.996
 6283POPC   C4A78522  20.665  16.312   7.363
 6283POPC   C1B78523  20.557  15.507   6.165
 6283POPC   C2B78524  20.606  15.605   6.610
 6283POPC   C3B78525  20.367  15.674   6.967
 6283POPC   C4B78526  20.275  15.930   7.291
 6284POPC   NC378527  36.708   7.992   5.050
 6284POPC   PO478528  36.769   7.392   5.409
 6284POPC   GL178529  36.844   7.459   5.813
 6284POPC   GL278530  36.541   7.392   5.918
 6284POPC   C1A78531  36.950   7.746   6.138
 6284POPC   D2A78532  37.106   7.598   6.523
 6284POPC   C3A78533  36.930   7.232   6.660
 6284POPC   C4A78534  36.655   7.281   6.994
 6284POPC   C1B78535  36.569   7.491   6.349
 6284POPC   C2B78536  36.288   7.423   6.629
 6284POPC   C3B78537  36.167   7.263   6.968
 6284POPC   C4B78538  36.256   7.312   7.372
 6285POPC   NC378539   7.660  13.681   5.385
 6285POPC   PO478540   7.157  13.251   5.363
 6285POPC   GL178541   7.318  13.595   5.734
 6285POPC   GL278542   7.650  13.833   5.839
 6285POPC   C1A78543   7.369  13.596   6.182
 6285POPC   D2A78544   7.481  13.353   6.527
 6285POPC   C3A78545   7.414  13.448   6.894
 6285POPC   C4A78546   7.166  13.431   7.232
 6285POPC   C1B78547   7.877  13.741   6.187
 6285POPC   C2B78548   7.740  13.785   6.595
 6285POPC   C3B78549   7.418  13.947   6.826
 6285POPC   C4B78550   7.511  13.804   7.223
 6286POPC   NC378551  26.235  20.267   5.550
 6286POPC   PO478552  26.263  19.585   5.405
 6286POPC   GL178553  26.005  19.695   5.756
 6286POPC   GL278554  25.974  20.029   5.916
 6286POPC   C1A78555  25.973  19.489   6.151
 6286POPC   D2A78556  26.083  19.617   6.550
 6286POPC   C3A78557  25.877  19.694   6.924
 6286POPC   C4A78558  25.888  19.929   7.315
 6286POPC   C1B78559  25.994  20.087   6.369
 6286POPC   C2B78560  26.023  20.168   6.793
 6286POPC   C3B78561  25.837  20.396   7.108
 6286POPC   C4B78562  25.680  20.379   7.501
 6287POPC   NC378563  26.733  17.031   5.429
 6287POPC   PO478564  26.725  17.771   5.416
 6287POPC   GL178565  26.878  17.469   5.776
 6287POPC   GL278566  26.557  17.377   5.755
 6287POPC   C1A78567  27.046  17.556   6.244
 6287POPC   D2A78568  26.813  17.791   6.603
 6287POPC   C3A78569  26.883  17.747   7.043
 6287POPC   C4A78570  26.878  17.392   7.297
 6287POPC   C1B78571  26.537  17.632   6.145
 6287POPC   C2B78572  26.364  17.535   6.541
 6287POPC   C3B78573  26.463  17.458   6.942
 6287POPC   C4B78574  26.317  17.358   7.306
 6288POPC   NC378575  42.314   3.807   5.332
 6288POPC   PO478576  41.912   3.307   5.438
 6288POPC   GL178577  42.116   3.488   5.837
 6288POPC   GL278578  42.347   3.784   5.828
 6288POPC   C1A78579  42.301   3.546   6.298
 6288POPC   D2A78580  42.097   3.467   6.686
 6288POPC   C3A78581  42.358   3.478   7.053
 6288POPC   C4A78582  42.501   3.461   7.493
 6288POPC   C1B78583  42.042   3.932   6.115
 6288POPC   C2B78584  42.244   4.050   6.495
 6288POPC   C3B78585  42.474   3.938   6.864
 6288POPC   C4B78586  42.335   3.935   7.298
 6289POPC   NC378587   5.736  17.164   5.419
 6289POPC   PO478588   5.941  17.830   5.443
 6289POPC   GL178589   5.867  17.532   5.803
 6289POPC   GL278590   5.520  17.372   5.850
 6289POPC   C1A78591   5.826  17.540   6.272
 6289POPC   D2A78592   5.975  17.692   6.676
 6289POPC   C3A78593   5.814  17.651   7.075
 6289POPC   C4A78594   6.078  17.843   7.372
 6289POPC   C1B78595   5.311  17.428   6.268
 6289POPC   C2B78596   5.533  17.349   6.665
 6289POPC   C3B78597   5.802  17.132   6.940
 6289POPC   C4B78598   5.841  17.208   7.370
 6290POPC   NC378599  25.194   4.447   5.390
 6290POPC   PO478600  25.879   4.338   5.411
 6290POPC   GL178601  25.566   4.379   5.771
 6290POPC   GL278602  25.294   4.645   5.835
 6290POPC   C1A78603  25.381   4.235   6.164
 6290POPC   D2A78604  25.595   4.191   6.551
 6290POPC   C3A78605  25.442   4.089   6.929
 6290POPC   C4A78606  25.242   4.032   7.317
 6290POPC   C1B78607  25.456   4.742   6.220
 6290POPC   C2B78608  25.289   4.652   6.614
 6290POPC   C3B78609  25.130   4.506   7.007
 6290POPC   C4B78610  25.307   4.530   7.398
 6291POPC   NC378611  23.713  30.741   5.330
 6291POPC   PO478612  24.128  31.249   5.525
 6291POPC   GL178613  23.762  30.962   5.775
 6291POPC   GL278614  23.712  30.568   5.786
 6291POPC   C1A78615  23.472  30.877   6.136
 6291POPC   D2A78616  23.471  30.674   6.552
 6291POPC   C3A78617  23.468  30.871   6.942
 6291POPC   C4A78618  23.811  30.954   7.275
 6291POPC   C1B78619  23.737  30.404   6.158
 6291POPC   C2B78620  23.590  30.193   6.476
 6291POPC   C3B78621  23.811  30.360   6.808
 6291POPC   C4B78622  23.680  30.487   7.170
 6292POPC   NC378623  37.897  12.194   5.618
 6292POPC   PO478624  37.489  11.794   5.356
 6292POPC   GL178625  37.583  11.771   5.788
 6292POPC   GL278626  37.901  11.690   5.906
 6292POPC   C1A78627  37.524  11.971   6.201
 6292POPC   D2A78628  37.631  12.209   6.572
 6292POPC   C3A78629  37.492  12.058   6.965
 6292POPC   C4A78630  37.510  12.243   7.391
 6292POPC   C1B78631  38.069  11.974   6.248
 6292POPC   C2B78632  38.129  12.318   6.567
 6292POPC   C3B78633  37.983  12.211   6.968
 6292POPC   C4B78634  37.906  11.805   7.150
 6293POPC   NC378635  31.284  41.246   5.637
 6293POPC   PO478636  31.796  41.662   5.465
 6293POPC   GL178637  31.639  41.532   5.885
 6293POPC   GL278638  31.903  41.360   6.098
 6293POPC   C1A78639  31.375  41.445   6.296
 6293POPC   D2A78640  31.090  41.271   6.648
 6293POPC   C3A78641  31.134  41.395   7.092
 6293POPC   C4A78642  31.082  41.410   7.548
 6293POPC   C1B78643  31.781  41.748   6.308
 6293POPC   C2B78644  31.585  41.914   6.649
 6293POPC   C3B78645  31.557  41.737   7.042
 6293POPC   C4B78646  31.649  41.316   7.166
 6294POPC   NC378647  37.455  15.737   5.466
 6294POPC   PO478648  37.945  16.154   5.351
 6294POPC   GL178649  37.740  16.058   5.779
 6294POPC   GL278650  37.392  16.189   5.796
 6294POPC   C1A78651  37.615  15.831   6.198
 6294POPC   D2A78652  37.496  15.685   6.633
 6294POPC   C3A78653  37.540  15.883   7.073
 6294POPC   C4A78654  37.670  15.810   7.531
 6294POPC   C1B78655  37.205  16.122   6.219
 6294POPC   C2B78656  37.107  16.031   6.653
 6294POPC   C3B78657  37.237  16.291   7.035
 6294POPC   C4B78658  37.344  16.228   7.484
 6295POPC   NC378659  11.449   1.022   5.480
 6295POPC   PO478660  10.969   1.493   5.618
 6295POPC   GL178661  11.196   1.208   5.877
 6295POPC   GL278662  11.583   1.263   5.903
 6295POPC   C1A78663  11.292   1.239   6.290
 6295POPC   D2A78664  11.551   1.085   6.556
 6295POPC   C3A78665  11.305   1.080   6.904
 6295POPC   C4A78666  11.387   0.928   7.302
 6295POPC   C1B78667  11.713   1.545   6.183
 6295POPC   C2B78668  11.532   1.609   6.556
 6295POPC   C3B78669  11.653   1.469   6.907
 6295POPC   C4B78670  11.377   1.432   7.239
 6296POPC   NC378671  25.552   8.249   5.059
 6296POPC   PO478672  25.051   8.341   5.483
 6296POPC   GL178673  25.043   8.025   5.803
 6296POPC   GL278674  25.232   8.247   5.985
 6296POPC   C1A78675  24.955   7.952   6.276
 6296POPC   D2A78676  25.152   8.237   6.605
 6296POPC   C3A78677  25.089   8.250   7.047
 6296POPC   C4A78678  25.195   7.904   7.324
 6296POPC   C1B78679  25.323   8.574   6.241
 6296POPC   C2B78680  25.535   8.569   6.637
 6296POPC   C3B78681  25.626   8.338   6.999
 6296POPC   C4B78682  25.521   8.256   7.444
 6297POPC   NC378683  17.500   6.550   5.224
 6297POPC   PO478684  17.316   7.081   5.360
 6297POPC   GL178685  17.490   6.777   5.714
 6297POPC   GL278686  17.227   6.668   5.983
 6297POPC   C1A78687  17.666   6.775   6.160
 6297POPC   D2A78688  17.348   6.846   6.484
 6297POPC   C3A78689  17.501   6.794   6.883
 6297POPC   C4A78690  17.662   7.016   7.238
 6297POPC   C1B78691  17.350   6.373   6.288
 6297POPC   C2B78692  17.242   6.254   6.687
 6297POPC   C3B78693  17.077   6.510   7.012
 6297POPC   C4B78694  17.335   6.621   7.360
 6298POPC   NC378695  25.817  12.864   5.295
 6298POPC   PO478696  25.692  12.272   5.502
 6298POPC   GL178697  25.806  12.661   5.784
 6298POPC   GL278698  25.690  13.042   5.760
 6298POPC   C1A78699  26.061  12.639   6.192
 6298POPC   D2A78700  26.034  12.468   6.616
 6298POPC   C3A78701  25.987  12.674   7.025
 6298POPC   C4A78702  26.120  12.613   7.481
 6298POPC   C1B78703  25.743  13.020   6.206
 6298POPC   C2B78704  25.978  13.002   6.600
 6298POPC   C3B78705  25.889  13.179   7.004
 6298POPC   C4B78706  25.885  13.060   7.411
 6299POPC   NC378707  24.719  33.841   5.466
 6299POPC   PO478708  24.076  33.621   5.293
 6299POPC   GL178709  24.340  33.579   5.735
 6299POPC   GL278710  24.495  33.828   5.919
 6299POPC   C1A78711  24.347  33.448   6.235
 6299POPC   D2A78712  24.137  33.517   6.668
 6299POPC   C3A78713  24.309  33.679   7.074
 6299POPC   C4A78714  24.473  33.701   7.499
 6299POPC   C1B78715  24.747  33.790   6.255
 6299POPC   C2B78716  24.613  33.718   6.666
 6299POPC   C3B78717  24.753  33.932   7.060
 6299POPC   C4B78718  24.823  34.083   7.492
 6300POPC   NC378719   5.424  30.183   5.385
 6300POPC   PO478720   4.819  29.821   5.113
 6300POPC   GL178721   5.004  29.896   5.533
 6300POPC   GL278722   4.850  30.198   5.696
 6300POPC   C1A78723   5.130  29.845   6.011
 6300POPC   D2A78724   5.315  30.052   6.418
 6300POPC   C3A78725   5.188  29.922   6.855
 6300POPC   C4A78726   4.803  29.741   7.054
 6300POPC   C1B78727   4.910  30.282   6.169
 6300POPC   C2B78728   4.768  30.125   6.608
 6300POPC   C3B78729   4.797  30.247   7.066
 6300POPC   C4B78730   5.130  30.119   7.348
 6301POPC   NC378731  21.047  25.841   5.295
 6301POPC   PO478732  21.698  25.997   5.287
 6301POPC   GL178733  21.641  26.027   5.708
 6301POPC   GL278734  21.276  26.074   5.753
 6301POPC   C1A78735  21.614  26.199   6.128
 6301POPC   D2A78736  21.434  26.095   6.526
 6301POPC   C3A78737  21.415  26.179   6.969
 6301POPC   C4A78738  21.699  25.995   7.259
 6301POPC   C1B78739  21.080  25.983   6.149
 6301POPC   C2B78740  20.916  25.971   6.601
 6301POPC   C3B78741  20.877  25.811   7.045
 6301POPC   C4B78742  21.204  25.869   7.376
 6302POPC   NC378743   2.197  29.992   5.452
 6302POPC   PO478744   2.763  29.889   5.190
 6302POPC   GL178745   2.628  29.901   5.700
 6302POPC   GL278746   2.870  29.887   5.981
 6302POPC   C1A78747   2.418  30.059   6.110
 6302POPC   D2A78748   2.556  29.888   6.503
 6302POPC   C3A78749   2.844  30.022   6.814
 6302POPC   C4A78750   2.607  30.012   7.201
 6302POPC   C1B78751   3.018  29.622   6.307
 6302POPC   C2B78752   3.139  29.530   6.751
 6302POPC   C3B78753   3.048  29.719   7.169
 6302POPC   C4B78754   3.087  30.147   7.310
 6303POPC   NC378755  36.549   7.801   5.546
 6303POPC   PO478756  36.933   8.315   5.300
 6303POPC   GL178757  36.965   8.326   5.794
 6303POPC   GL278758  36.623   8.278   5.800
 6303POPC   C1A78759  37.074   8.222   6.293
 6303POPC   D2A78760  37.141   8.055   6.766
 6303POPC   C3A78761  37.230   8.434   7.059
 6303POPC   C4A78762  36.957   8.770   7.086
 6303POPC   C1B78763  36.661   8.500   6.203
 6303POPC   C2B78764  36.654   8.290   6.597
 6303POPC   C3B78765  36.740   8.277   7.027
 6303POPC   C4B78766  36.722   7.947   7.314
 6304POPC   NC378767  25.449  35.535   5.484
 6304POPC   PO478768  24.834  35.255   5.172
 6304POPC   GL178769  24.979  35.471   5.663
 6304POPC   GL278770  25.287  35.213   5.831
 6304POPC   C1A78771  25.071  35.536   6.142
 6304POPC   D2A78772  25.126  35.429   6.579
 6304POPC   C3A78773  24.963  35.279   6.958
 6304POPC   C4A78774  25.173  35.513   7.286
 6304POPC   C1B78775  25.203  35.040   6.245
 6304POPC   C2B78776  25.391  34.998   6.658
 6304POPC   C3B78777  25.460  35.113   7.083
 6304POPC   C4B78778  25.895  35.092   7.204
 6305POPC   NC378779   9.173   2.470   5.416
 6305POPC   PO478780   9.318   3.162   5.442
 6305POPC   GL178781   9.078   3.004   5.804
 6305POPC   GL278782   8.810   2.730   5.767
 6305POPC   C1A78783   9.073   2.772   6.205
 6305POPC   D2A78784   8.984   2.580   6.582
 6305POPC   C3A78785   9.121   2.757   6.942
 6305POPC   C4A78786   9.163   3.143   7.145
 6305POPC   C1B78787   8.610   2.493   6.134
 6305POPC   C2B78788   8.599   2.270   6.540
 6305POPC   C3B78789   8.601   2.512   6.935
 6305POPC   C4B78790   8.772   2.692   7.309
 6306POPC   NC378791  12.255  11.739   5.527
 6306POPC   PO478792  11.994  12.356   5.326
 6306POPC   GL178793  12.068  12.167   5.714
 6306POPC   GL278794  11.750  12.170   5.836
 6306POPC   C1A78795  12.269  12.075   6.114
 6306POPC   D2A78796  12.201  11.879   6.532
 6306POPC   C3A78797  12.137  12.104   6.909
 6306POPC   C4A78798  12.233  12.254   7.318
 6306POPC   C1B78799  11.784  12.035   6.248
 6306POPC   C2B78800  11.637  12.125   6.653
 6306POPC   C3B78801  11.716  11.815   6.941
 6306POPC   C4B78802  11.863  11.899   7.322
 6307POPC   NC378803  26.992  43.186   5.296
 6307POPC   PO478804  26.379  42.769   5.244
 6307POPC   GL178805  26.634  42.949   5.642
 6307POPC   GL278806  26.943  43.119   5.796
 6307POPC   C1A78807  26.543  43.088   6.113
 6307POPC   D2A78808  26.520  43.263   6.558
 6307POPC   C3A78809  26.686  42.981   6.915
 6307POPC   C4A78810  26.701  42.898   7.388
 6307POPC   C1B78811  27.297  43.336   6.043
 6307POPC   C2B78812  27.345  43.446   6.491
 6307POPC   C3B78813  26.992  43.386   6.766
 6307POPC   C4B78814  26.998  43.281   7.210
 6308POPC   NC378815   8.698  36.074   5.475
 6308POPC   PO478816   9.289  35.823   5.467
 6308POPC   GL178817   9.111  35.920   5.832
 6308POPC   GL278818   8.906  36.204   5.937
 6308POPC   C1A78819   9.310  35.901   6.207
 6308POPC   D2A78820   9.307  35.689   6.566
 6308POPC   C3A78821   9.038  35.915   6.830
 6308POPC   C4A78822   8.785  36.144   7.102
 6308POPC   C1B78823   8.855  36.243   6.404
 6308POPC   C2B78824   8.514  36.415   6.694
 6308POPC   C3B78825   8.381  36.486   7.135
 6308POPC   C4B78826   8.509  36.277   7.521
 6309POPC   NC378827   0.200  25.985   4.954
 6309POPC   PO478828   0.594  26.035   5.530
 6309POPC   GL178829   0.264  26.039   5.788
 6309POPC   GL278830   0.012  26.297   5.741
 6309POPC   C1A78831   0.360  25.852   6.161
 6309POPC   D2A78832   0.670  25.794   6.467
 6309POPC   C3A78833   0.487  25.804   6.833
 6309POPC   C4A78834   0.593  25.978   7.188
 6309POPC   C1B78835   0.109  26.318   6.188
 6309POPC   C2B78836   0.151  26.103   6.558
 6309POPC   C3B78837   0.205  26.228   6.947
 6309POPC   C4B78838   0.018  26.184   7.278
 6310POPC   NC378839  43.685  17.876   5.534
 6310POPC   PO478840  44.281  17.868   5.316
 6310POPC   GL178841  44.061  17.669   5.786
 6310POPC   GL278842  43.810  17.390   5.758
 6310POPC   C1A78843  43.838  17.624   6.232
 6310POPC   D2A78844  43.597  17.442   6.629
 6310POPC   C3A78845  43.709  17.648   7.046
 6310POPC   C4A78846  44.157  17.676   7.070
 6310POPC   C1B78847  43.970  17.111   6.128
 6310POPC   C2B78848  44.239  16.967   6.520
 6310POPC   C3B78849  44.212  17.105   6.970
 6310POPC   C4B78850  43.815  17.182   7.197
 6311POPC   NC378851  41.350  28.652   5.016
 6311POPC   PO478852  41.664  28.914   5.499
 6311POPC   GL178853  41.590  29.274   5.754
 6311POPC   GL278854  41.204  29.270   5.690
 6311POPC   C1A78855  41.931  29.407   6.076
 6311POPC   D2A78856  42.122  29.332   6.524
 6311POPC   C3A78857  41.814  29.341   6.892
 6311POPC   C4A78858  41.661  29.062   7.244
 6311POPC   C1B78859  41.196  29.134   6.118
 6311POPC   C2B78860  41.225  29.346   6.531
 6311POPC   C3B78861  41.111  29.500   6.914
 6311POPC   C4B78862  41.199  29.301   7.306
 6312POPC   NC378863  14.636  38.567   5.471
 6312POPC   PO478864  14.000  38.366   5.492
 6312POPC   GL178865  14.222  38.561   5.797
 6312POPC   GL278866  14.394  38.233   5.856
 6312POPC   C1A78867  14.506  38.644   6.134
 6312POPC   D2A78868  14.683  38.407   6.482
 6312POPC   C3A78869  14.481  38.417   6.904
 6312POPC   C4A78870  14.660  38.615   7.264
 6312POPC   C1B78871  14.194  38.246   6.281
 6312POPC   C2B78872  14.004  38.142   6.696
 6312POPC   C3B78873  14.135  38.102   7.140
 6312POPC   C4B78874  14.138  38.138   7.629
 6313POPC   NC378875  12.907  43.323   5.457
 6313POPC   PO478876  12.305  42.827   5.478
 6313POPC   GL178877  12.648  42.999   5.773
 6313POPC   GL278878  12.649  43.344   5.881
 6313POPC   C1A78879  12.925  42.831   6.091
 6313POPC   D2A78880  12.892  42.651   6.510
 6313POPC   C3A78881  12.952  42.909   6.853
 6313POPC   C4A78882  12.963  43.001   7.281
 6313POPC   C1B78883  12.387  43.334   6.229
 6313POPC   C2B78884  12.547  43.210   6.629
 6313POPC   C3B78885  12.767  43.395   6.957
 6313POPC   C4B78886  12.960  43.533   7.299
 6314POPC   NC378887   5.180  40.371   5.253
 6314POPC   PO478888   4.828  40.997   5.342
 6314POPC   GL178889   4.720  40.947   5.779
 6314POPC   GL278890   5.075  40.884   5.803
 6314POPC   C1A78891   4.815  40.778   6.212
 6314POPC   D2A78892   5.151  40.694   6.511
 6314POPC   C3A78893   5.190  40.709   6.936
 6314POPC   C4A78894   4.980  40.895   7.220
 6314POPC   C1B78895   5.256  41.078   6.176
 6314POPC   C2B78896   5.471  41.079   6.647
 6314POPC   C3B78897   5.376  41.188   7.077
 6314POPC   C4B78898   5.399  40.963   7.493
 6315POPC   NC378899   0.382  26.422   5.404
 6315POPC   PO478900   0.556  27.051   5.455
 6315POPC   GL178901   0.361  26.956   5.843
 6315POPC   GL278902   0.414  26.597   5.906
 6315POPC   C1A78903   0.529  26.928   6.289
 6315POPC   D2A78904   0.709  27.018   6.683
 6315POPC   C3A78905   0.459  26.905   7.033
 6315POPC   C4A78906   0.629  26.941   7.439
 6315POPC   C1B78907   0.596  26.401   6.319
 6315POPC   C2B78908   0.682  26.306   6.775
 6315POPC   C3B78909   0.614  26.465   7.216
 6315POPC   C4B78910   0.250  26.599   7.436
 6316POPC   NC378911  29.619  27.007   5.474
 6316POPC   PO478912  30.140  26.656   5.469
 6316POPC   GL178913  29.826  26.519   5.736
 6316POPC   GL278914  29.569  26.725   5.889
 6316POPC   C1A78915  29.825  26.390   6.177
 6316POPC   D2A78916  30.188  26.482   6.404
 6316POPC   C3A78917  30.200  26.431   6.833
 6316POPC   C4A78918  30.240  26.558   7.258
 6316POPC   C1B78919  29.886  26.925   6.151
 6316POPC   C2B78920  29.999  26.936   6.584
 6316POPC   C3B78921  29.823  26.785   6.987
 6316POPC   C4B78922  29.537  26.969   7.330
 6317POPC   NC378923   2.618  22.342   5.563
 6317POPC   PO478924   2.919  21.760   5.416
 6317POPC   GL178925   2.891  22.003   5.838
 6317POPC   GL278926   2.889  22.395   5.984
 6317POPC   C1A78927   2.714  21.961   6.246
 6317POPC   D2A78928   2.774  22.193   6.612
 6317POPC   C3A78929   2.735  21.901   6.974
 6317POPC   C4A78930   2.821  21.949   7.404
 6317POPC   C1B78931   2.487  22.438   6.221
 6317POPC   C2B78932   2.367  22.592   6.627
 6317POPC   C3B78933   2.465  22.332   6.980
 6317POPC   C4B78934   2.446  22.333   7.405
 6318POPC   NC378935  16.339   0.962   5.630
 6318POPC   PO478936  16.949   1.098   5.408
 6318POPC   GL178937  16.788   1.171   5.823
 6318POPC   GL278938  16.825   0.834   5.866
 6318POPC   C1A78939  16.584   1.083   6.248
 6318POPC   D2A78940  16.356   1.053   6.656
 6318POPC   C3A78941  16.510   1.348   6.931
 6318POPC   C4A78942  16.630   1.352   7.333
 6318POPC   C1B78943  17.051   0.819   6.213
 6318POPC   C2B78944  16.955   1.020   6.597
 6318POPC   C3B78945  16.994   1.176   6.988
 6318POPC   C4B78946  16.924   0.954   7.329
 6319POPC   NC378947   5.638  20.464   5.342
 6319POPC   PO478948   5.927  21.033   5.324
 6319POPC   GL178949   5.956  20.732   5.761
 6319POPC   GL278950   5.891  20.371   5.785
 6319POPC   C1A78951   5.876  20.583   6.251
 6319POPC   D2A78952   5.900  20.276   6.622
 6319POPC   C3A78953   6.057  20.496   6.998
 6319POPC   C4A78954   5.838  20.732   7.323
 6319POPC   C1B78955   5.456  20.389   6.018
 6319POPC   C2B78956   5.381  20.247   6.479
 6319POPC   C3B78957   5.499  20.407   6.928
 6319POPC   C4B78958   5.715  20.259   7.308
 6320POPC   NC378959   0.924  24.506   5.648
 6320POPC   PO478960   0.429  24.172   5.304
 6320POPC   GL178961   0.412  24.382   5.727
 6320POPC   GL278962   0.631  24.249   5.983
 6320POPC   C1A78963   0.411  24.703   6.093
 6320POPC   D2A78964   0.487  24.860   6.536
 6320POPC   C3A78965   0.131  24.810   6.844
 6320POPC   C4A78966  44.988  24.742   7.276
 6320POPC   C1B78967   0.642  24.353   6.412
 6320POPC   C2B78968   0.557  24.165   6.811
 6320POPC   C3B78969   0.404  24.443   7.107
 6320POPC   C4B78970   0.631  24.802   7.255
 6321POPC   NC378971  30.555  18.993   5.393
 6321POPC   PO478972  31.083  19.271   5.618
 6321POPC   GL178973  30.862  18.957   5.822
 6321POPC   GL278974  30.503  19.046   5.891
 6321POPC   C1A78975  30.796  18.791   6.207
 6321POPC   D2A78976  30.515  18.933   6.503
 6321POPC   C3A78977  30.662  18.882   6.872
 6321POPC   C4A78978  30.845  18.847   7.243
 6321POPC   C1B78979  30.667  19.306   6.215
 6321POPC   C2B78980  30.713  19.411   6.666
 6321POPC   C3B78981  30.692  19.330   7.100
 6321POPC   C4B78982  30.462  19.134   7.447
 6322POPC   NC378983  13.188  34.821   5.510
 6322POPC   PO478984  13.672  34.517   5.050
 6322POPC   GL178985  13.677  34.553   5.594
 6322POPC   GL278986  13.983  34.704   5.860
 6322POPC   C1A78987  13.618  34.461   6.077
 6322POPC   D2A78988  13.913  34.407   6.458
 6322POPC   C3A78989  13.677  34.388   6.852
 6322POPC   C4A78990  13.364  34.428   7.170
 6322POPC   C1B78991  13.917  34.905   6.240
 6322POPC   C2B78992  13.619  34.841   6.575
 6322POPC   C3B78993  13.728  34.882   6.990
 6322POPC   C4B78994  13.765  34.684   7.364
 6323POPC   NC378995  23.462   4.274   5.450
 6323POPC   PO478996  24.130   4.298   5.543
 6323POPC   GL178997  24.131   4.356   5.930
 6323POPC   GL278998  23.759   4.351   5.919
 6323POPC   C1A78999  24.043   4.234   6.335
 6323POPC   D2A79000  23.686   4.287   6.566
 6323POPC   C3A79001  23.607   4.113   6.961
 6323POPC   C4A79002  23.772   4.205   7.324
 6323POPC   C1B79003  23.665   4.671   6.195
 6323POPC   C2B79004  23.492   4.762   6.582
 6323POPC   C3B79005  23.682   4.625   6.955
 6323POPC   C4B79006  23.700   4.729   7.380
 6324POPC   NC379007  44.568  28.884   5.639
 6324POPC   PO479008  44.556  29.571   5.504
 6324POPC   GL179009  44.662  29.415   5.883
 6324POPC   GL279010  44.928  29.172   5.847
 6324POPC   C1A79011  44.558  29.195   6.262
 6324POPC   D2A79012  44.640  29.293   6.699
 6324POPC   C3A79013  44.411  29.102   7.029
 6324POPC   C4A79014  44.434  29.200   7.457
 6324POPC   C1B79015   0.054  28.960   6.208
 6324POPC   C2B79016  44.822  28.834   6.530
 6324POPC   C3B79017  44.914  28.853   6.934
 6324POPC   C4B79018  44.873  29.045   7.304
 6325POPC   NC379019  19.746  28.263   5.407
 6325POPC   PO479020  20.296  28.396   5.322
 6325POPC   GL179021  20.090  28.199   5.767
 6325POPC   GL279022  19.698  28.030   5.855
 6325POPC   C1A79023  19.954  28.285   6.199
 6325POPC   D2A79024  19.789  28.265   6.606
 6325POPC   C3A79025  19.975  28.448   6.948
 6325POPC   C4A79026  19.982  28.208   7.284
 6325POPC   C1B79027  19.446  28.260   6.199
 6325POPC   C2B79028  19.285  28.225   6.653
 6325POPC   C3B79029  19.489  28.230   7.065
 6325POPC   C4B79030  19.547  28.660   7.177
 6326POPC   NC379031   3.515  35.119   5.446
 6326POPC   PO479032   3.628  35.688   5.008
 6326POPC   GL179033   3.628  35.688   5.511
 6326POPC   GL279034   3.277  35.638   5.642
 6326POPC   C1A79035   3.684  35.573   5.982
 6326POPC   D2A79036   3.925  35.621   6.399
 6326POPC   C3A79037   3.679  35.518   6.786
 6326POPC   C4A79038   3.632  35.275   7.194
 6326POPC   C1B79039   3.137  35.671   6.094
 6326POPC   C2B79040   3.247  35.502   6.489
 6326POPC   C3B79041   3.247  35.252   6.860
 6326POPC   C4B79042   3.132  35.371   7.244
 6327POPC   NC379043  41.766   1.183   5.285
 6327POPC   PO479044  41.772   0.504   5.483
 6327POPC   GL179045  41.781   0.961   5.784
 6327POPC   GL279046  41.809   1.360   5.759
 6327POPC   C1A79047  41.610   1.192   6.237
 6327POPC   D2A79048  41.429   1.417   6.663
 6327POPC   C3A79049  41.387   1.136   7.050
 6327POPC   C4A79050  41.702   0.897   7.297
 6327POPC   C1B79051  42.078   1.382   6.139
 6327POPC   C2B79052  42.032   1.187   6.561
 6327POPC   C3B79053  41.864   1.293   6.963
 6327POPC   C4B79054  41.870   1.349   7.422
 6328POPC   NC379055  21.828  30.117   5.644
 6328POPC   PO479056  22.320  29.749   5.377
 6328POPC   GL179057  22.361  29.912   5.785
 6328POPC   GL279058  22.329  30.233   5.760
 6328POPC   C1A79059  22.160  29.733   6.136
 6328POPC   D2A79060  21.825  29.857   6.419
 6328POPC   C3A79061  21.922  29.664   6.830
 6328POPC   C4A79062  21.926  29.774   7.271
 6328POPC   C1B79063  22.166  30.236   6.171
 6328POPC   C2B79064  22.279  30.057   6.537
 6328POPC   C3B79065  22.338  29.948   6.947
 6328POPC   C4B79066  22.170  30.278   7.165
 6329POPC   NC379067  27.845   4.963   5.417
 6329POPC   PO479068  27.238   5.061   5.641
 6329POPC   GL179069  27.552   4.832   5.839
 6329POPC   GL279070  27.796   5.098   5.908
 6329POPC   C1A79071  27.634   4.691   6.241
 6329POPC   D2A79072  27.721   5.022   6.545
 6329POPC   C3A79073  27.458   5.071   6.899
 6329POPC   C4A79074  27.483   5.161   7.324
 6329POPC   C1B79075  27.754   5.420   6.211
 6329POPC   C2B79076  27.912   5.530   6.607
 6329POPC   C3B79077  27.761   5.487   7.029
 6329POPC   C4B79078  27.864   5.521   7.459
 6330POPC   NC379079  44.075   3.148   5.438
 6330POPC   PO479080  43.865   2.465   5.288
 6330POPC   GL179081  43.887   2.543   5.690
 6330POPC   GL279082  43.863   2.869   5.807
 6330POPC   C1A79083  44.059   2.442   6.112
 6330POPC   D2A79084  44.110   2.586   6.542
 6330POPC   C3A79085  44.108   2.338   6.929
 6330POPC   C4A79086  43.990   2.488   7.320
 6330POPC   C1B79087  43.741   2.839   6.245
 6330POPC   C2B79088  43.708   2.957   6.697
 6330POPC   C3B79089  43.744   2.924   7.168
 6330POPC   C4B79090  43.922   3.052   7.589
 6331POPC   NC379091  26.449  32.258   5.432
 6331POPC   PO479092  27.102  31.973   5.327
 6331POPC   GL179093  27.084  32.155   5.750
 6331POPC   GL279094  26.847  32.437   5.701
 6331POPC   C1A79095  27.191  32.065   6.218
 6331POPC   D2A79096  27.061  31.942   6.620
 6331POPC   C3A79097  27.010  32.226   6.959
 6331POPC   C4A79098  26.765  32.069   7.212
 6331POPC   C1B79099  26.732  32.275   6.110
 6331POPC   C2B79100  26.789  32.399   6.522
 6331POPC   C3B79101  26.532  32.395   6.866
 6331POPC   C4B79102  26.315  32.281   7.237
 6332POPC   NC379103  22.718   6.839   5.487
 6332POPC   PO479104  23.243   6.440   5.397
 6332POPC   GL179105  23.176   6.734   5.761
 6332POPC   GL279106  22.907   6.508   5.871
 6332POPC   C1A79107  23.059   6.867   6.206
 6332POPC   D2A79108  22.924   6.648   6.591
 6332POPC   C3A79109  22.722   6.791   6.941
 6332POPC   C4A79110  22.893   6.877   7.334
 6332POPC   C1B79111  22.829   6.259   6.266
 6332POPC   C2B79112  23.030   6.160   6.661
 6332POPC   C3B79113  22.956   6.369   7.075
 6332POPC   C4B79114  23.192   6.439   7.456
 6333POPC   NC379115  26.828  23.140   5.286
 6333POPC   PO479116  26.923  22.480   5.282
 6333POPC   GL179117  26.691  22.734   5.635
 6333POPC   GL279118  26.857  23.069   5.787
 6333POPC   C1A79119  26.697  22.733   6.116
 6333POPC   D2A79120  26.768  23.062   6.457
 6333POPC   C3A79121  26.822  22.920   6.903
 6333POPC   C4A79122  26.666  22.587   7.158
 6333POPC   C1B79123  27.108  23.285   6.130
 6333POPC   C2B79124  27.259  23.239   6.565
 6333POPC   C3B79125  27.329  23.077   6.977
 6333POPC   C4B79126  27.086  22.962   7.352
 6334POPC   NC379127  19.881  41.891   5.467
 6334POPC   PO479128  19.550  41.375   5.591
 6334POPC   GL179129  19.766  41.666   5.916
 6334POPC   GL279130  20.113  41.875   5.919
 6334POPC   C1A79131  19.723  41.692   6.354
 6334POPC   D2A79132  19.883  41.445   6.694
 6334POPC   C3A79133  19.839  41.621   7.110
 6334POPC   C4A79134  19.553  41.902   7.277
 6334POPC   C1B79135  20.225  41.786   6.323
 6334POPC   C2B79136  20.084  41.921   6.745
 6334POPC   C3B79137  20.333  41.814   7.112
 6334POPC   C4B79138  20.210  41.736   7.528
 6335POPC   NC379139   7.213  31.427   5.469
 6335POPC   PO479140   6.594  31.778   5.438
 6335POPC   GL179141   6.745  31.562   5.774
 6335POPC   GL279142   7.014  31.746   5.815
 6335POPC   C1A79143   6.580  31.328   6.123
 6335POPC   D2A79144   6.442  31.251   6.537
 6335POPC   C3A79145   6.353  31.500   6.887
 6335POPC   C4A79146   6.388  31.460   7.319
 6335POPC   C1B79147   7.063  31.454   6.197
 6335POPC   C2B79148   6.969  31.279   6.622
 6335POPC   C3B79149   6.855  31.381   7.048
 6335POPC   C4B79150   6.859  31.574   7.448
 6336POPC   NC379151  31.674  14.747   5.501
 6336POPC   PO479152  31.766  14.050   5.453
 6336POPC   GL179153  31.614  14.110   5.855
 6336POPC   GL279154  31.485  14.444   5.860
 6336POPC   C1A79155  31.488  14.197   6.303
 6336POPC   D2A79156  31.314  13.965   6.661
 6336POPC   C3A79157  31.323  14.180   7.053
 6336POPC   C4A79158  31.606  14.129   7.410
 6336POPC   C1B79159  31.230  14.624   6.176
 6336POPC   C2B79160  31.092  14.680   6.575
 6336POPC   C3B79161  30.948  14.764   6.964
 6336POPC   C4B79162  31.284  14.663   7.233
 6337POPC   NC379163  34.272  21.486   5.378
 6337POPC   PO479164  34.812  21.061   5.223
 6337POPC   GL179165  34.477  21.152   5.663
 6337POPC   GL279166  34.470  21.034   5.985
 6337POPC   C1A79167  34.402  21.530   6.023
 6337POPC   D2A79168  34.628  21.762   6.395
 6337POPC   C3A79169  34.577  21.568   6.838
 6337POPC   C4A79170  34.228  21.644   7.125
 6337POPC   C1B79171  34.414  21.184   6.417
 6337POPC   C2B79172  34.152  21.248   6.778
 6337POPC   C3B79173  34.400  21.154   7.126
 6337POPC   C4B79174  34.814  21.058   7.317
 6338POPC   NC379175  27.430  18.573   5.260
 6338POPC   PO479176  27.760  19.137   5.182
 6338POPC   GL179177  27.869  18.943   5.597
 6338POPC   GL279178  27.567  18.768   5.727
 6338POPC   C1A79179  27.941  18.903   6.058
 6338POPC   D2A79180  27.795  19.140   6.430
 6338POPC   C3A79181  27.776  19.009   6.881
 6338POPC   C4A79182  27.640  19.301   7.209
 6338POPC   C1B79183  27.398  18.928   6.127
 6338POPC   C2B79184  27.371  18.909   6.571
 6338POPC   C3B79185  27.271  18.960   7.025
 6338POPC   C4B79186  27.302  18.843   7.477
 6339POPC   NC379187   2.308  37.803   5.301
 6339POPC   PO479188   2.939  37.660   5.335
 6339POPC   GL179189   2.644  37.761   5.695
 6339POPC   GL279190   2.625  37.451   5.885
 6339POPC   C1A79191   2.639  37.883   6.158
 6339POPC   D2A79192   2.642  37.620   6.567
 6339POPC   C3A79193   2.711  37.776   6.983
 6339POPC   C4A79194   2.888  37.654   7.368
 6339POPC   C1B79195   2.284  37.503   6.213
 6339POPC   C2B79196   2.114  37.602   6.618
 6339POPC   C3B79197   2.272  37.432   7.005
 6339POPC   C4B79198   2.491  37.309   7.393
 6340POPC   NC379199  44.396   9.577   5.521
 6340POPC   PO479200  44.942   9.929   5.492
 6340POPC   GL179201  44.673   9.912   5.811
 6340POPC   GL279202  44.390  10.112   5.724
 6340POPC   C1A79203  44.737   9.651   6.174
 6340POPC   D2A79204  44.950   9.790   6.538
 6340POPC   C3A79205  44.814   9.607   6.901
 6340POPC   C4A79206  44.886   9.747   7.256
 6340POPC   C1B79207  44.263   9.914   6.119
 6340POPC   C2B79208  44.473   9.962   6.514
 6340POPC   C3B79209  44.600  10.061   6.912
 6340POPC   C4B79210  44.393   9.822   7.231
 6341POPC   NC379211  20.344   1.818   5.503
 6341POPC   PO479212  20.992   1.963   5.579
 6341POPC   GL179213  20.654   2.075   5.833
 6341POPC   GL279214  20.563   1.735   5.963
 6341POPC   C1A79215  20.520   2.153   6.259
 6341POPC   D2A79216  20.716   1.979   6.614
 6341POPC   C3A79217  20.574   2.088   7.011
 6341POPC   C4A79218  20.712   1.856   7.368
 6341POPC   C1B79219  20.392   1.648   6.387
 6341POPC   C2B79220  20.167   1.855   6.736
 6341POPC   C3B79221  20.169   1.695   7.176
 6341POPC   C4B79222  20.455   1.372   7.368
 6342POPC   NC379223  18.048  23.482   5.232
 6342POPC   PO479224  18.421  22.943   5.380
 6342POPC   GL179225  18.354  23.056   5.778
 6342POPC   GL279226  18.089  22.830   5.858
 6342POPC   C1A79227  18.474  22.927   6.174
 6342POPC   D2A79228  18.414  22.693   6.506
 6342POPC   C3A79229  18.496  22.841   6.871
 6342POPC   C4A79230  18.342  22.865   7.258
 6342POPC   C1B79231  17.969  22.860   6.303
 6342POPC   C2B79232  17.977  22.861   6.751
 6342POPC   C3B79233  17.802  22.915   7.145
 6342POPC   C4B79234  17.903  23.260   7.417
 6343POPC   NC379235  43.318  36.833   5.445
 6343POPC   PO479236  42.742  36.610   5.253
 6343POPC   GL179237  42.895  36.634   5.716
 6343POPC   GL279238  43.239  36.626   5.905
 6343POPC   C1A79239  42.810  36.585   6.181
 6343POPC   D2A79240  42.776  36.827   6.583
 6343POPC   C3A79241  42.930  36.700   7.001
 6343POPC   C4A79242  42.902  36.537   7.426
 6343POPC   C1B79243  43.203  36.972   6.200
 6343POPC   C2B79244  43.246  37.040   6.657
 6343POPC   C3B79245  43.060  37.185   7.034
 6343POPC   C4B79246  43.150  37.006   7.431
 6344POPC   NC379247  23.576  34.517   5.503
 6344POPC   PO479248  22.930  34.778   5.425
 6344POPC   GL179249  22.996  34.760   5.869
 6344POPC   GL279250  23.324  34.867   5.790
 6344POPC   C1A79251  22.725  34.754   6.275
 6344POPC   D2A79252  22.621  34.449   6.623
 6344POPC   C3A79253  22.893  34.517   6.985
 6344POPC   C4A79254  22.853  34.531   7.427
 6344POPC   C1B79255  23.396  35.011   6.204
 6344POPC   C2B79256  23.154  34.931   6.545
 6344POPC   C3B79257  23.273  34.839   6.939
 6344POPC   C4B79258  23.145  34.923   7.323
 6345POPC   NC379259  12.717  42.650   5.411
 6345POPC   PO479260  13.152  42.170   5.453
 6345POPC   GL179261  13.054  42.415   5.755
 6345POPC   GL279262  12.750  42.247   5.771
 6345POPC   C1A79263  13.105  42.336   6.176
 6345POPC   D2A79264  13.161  42.124   6.550
 6345POPC   C3A79265  13.056  42.381   6.916
 6345POPC   C4A79266  13.177  42.502   7.325
 6345POPC   C1B79267  12.602  42.358   6.157
 6345POPC   C2B79268  12.647  42.197   6.559
 6345POPC   C3B79269  12.719  41.991   6.917
 6345POPC   C4B79270  12.623  42.277   7.193
 6346POPC   NC379271  36.595  35.528   5.368
 6346POPC   PO479272  36.032  35.699   5.658
 6346POPC   GL179273  36.152  35.377   5.924
 6346POPC   GL279274  36.468  35.189   5.786
 6346POPC   C1A79275  36.068  35.397   6.378
 6346POPC   D2A79276  36.374  35.450   6.708
 6346POPC   C3A79277  36.200  35.402   7.123
 6346POPC   C4A79278  35.948  35.244   7.432
 6346POPC   C1B79279  36.385  35.021   6.227
 6346POPC   C2B79280  36.168  34.969   6.674
 6346POPC   C3B79281  36.135  34.863   7.136
 6346POPC   C4B79282  36.076  34.775   7.616
 6347POPC   NC379283  35.201  18.390   5.517
 6347POPC   PO479284  35.681  18.599   5.972
 6347POPC   GL179285  35.414  18.279   5.959
 6347POPC   GL279286  35.478  17.995   5.752
 6347POPC   C1A79287  35.121  18.149   6.230
 6347POPC   D2A79288  35.023  18.208   6.634
 6347POPC   C3A79289  35.316  18.349   6.908
 6347POPC   C4A79290  35.191  18.531   7.259
 6347POPC   C1B79291  35.476  17.806   6.144
 6347POPC   C2B79292  35.159  17.698   6.475
 6347POPC   C3B79293  35.203  17.796   6.906
 6347POPC   C4B79294  35.265  18.016   7.295
 6348POPC   NC379295  13.861  17.498   5.404
 6348POPC   PO479296  13.456  17.972   5.539
 6348POPC   GL179297  13.581  17.567   5.813
 6348POPC   GL279298  13.952  17.450   5.910
 6348POPC   C1A79299  13.570  17.454   6.248
 6348POPC   D2A79300  13.545  17.716   6.624
 6348POPC   C3A79301  13.478  17.533   7.018
 6348POPC   C4A79302  13.206  17.340   7.338
 6348POPC   C1B79303  14.016  17.714   6.310
 6348POPC   C2B79304  14.033  17.761   6.773
 6348POPC   C3B79305  13.936  17.682   7.213
 6348POPC   C4B79306  13.960  17.749   7.669
 6349POPC   NC379307  19.285  18.346   5.402
 6349POPC   PO479308  18.730  18.099   5.557
 6349POPC   GL179309  19.033  18.278   5.845
 6349POPC   GL279310  19.397  18.089   5.814
 6349POPC   C1A79311  18.926  18.462   6.269
 6349POPC   D2A79312  19.161  18.582   6.652
 6349POPC   C3A79313  18.917  18.506   7.016
 6349POPC   C4A79314  18.778  18.226   7.295
 6349POPC   C1B79315  19.416  18.312   6.200
 6349POPC   C2B79316  19.371  18.117   6.596
 6349POPC   C3B79317  19.304  18.165   7.009
 6349POPC   C4B79318  19.260  18.171   7.439
 6350POPC   NC379319  26.718  18.737   5.441
 6350POPC   PO479320  27.073  19.261   5.452
 6350POPC   GL179321  26.954  19.004   5.837
 6350POPC   GL279322  27.061  18.654   5.809
 6350POPC   C1A79323  26.897  19.066   6.292
 6350POPC   D2A79324  27.010  19.260   6.665
 6350POPC   C3A79325  26.786  19.220   7.013
 6350POPC   C4A79326  26.463  19.049   7.297
 6350POPC   C1B79327  26.847  18.581   6.194
 6350POPC   C2B79328  26.959  18.644   6.641
 6350POPC   C3B79329  26.796  18.727   7.043
 6350POPC   C4B79330  26.828  18.656   7.475
 6351POPC   NC379331  24.219  42.130   4.949
 6351POPC   PO479332  23.557  42.152   5.182
 6351POPC   GL179333  23.749  42.246   5.683
 6351POPC   GL279334  23.930  42.554   5.736
 6351POPC   C1A79335  23.811  42.079   6.113
 6351POPC   D2A79336  23.823  42.256   6.533
 6351POPC   C3A79337  23.554  42.153   6.900
 6351POPC   C4A79338  23.455  42.316   7.277
 6351POPC   C1B79339  23.657  42.583   6.112
 6351POPC   C2B79340  23.687  42.751   6.548
 6351POPC   C3B79341  23.810  42.582   6.944
 6351POPC   C4B79342  23.990  42.786   7.283
 6352POPC   NC379343  22.294  10.279   5.417
 6352POPC   PO479344  22.349  10.958   5.446
 6352POPC   GL179345  22.183  10.850   5.797
 6352POPC   GL279346  21.917  10.661   5.626
 6352POPC   C1A79347  22.392  10.692   6.159
 6352POPC   D2A79348  22.331  10.471   6.535
 6352POPC   C3A79349  22.525  10.669   6.860
 6352POPC   C4A79350  22.290  10.556   7.194
 6352POPC   C1B79351  21.894  10.535   6.075
 6352POPC   C2B79352  21.830  10.377   6.489
 6352POPC   C3B79353  21.905  10.442   6.880
 6352POPC   C4B79354  21.874  10.285   7.305
 6353POPC   NC379355  42.434  30.989   5.280
 6353POPC   PO479356  42.251  30.361   5.482
 6353POPC   GL179357  42.219  30.534   5.879
 6353POPC   GL279358  42.444  30.816   5.806
 6353POPC   C1A79359  42.133  30.640   6.328
 6353POPC   D2A79360  42.185  30.957   6.661
 6353POPC   C3A79361  42.141  30.851   7.107
 6353POPC   C4A79362  42.120  30.872   7.594
 6353POPC   C1B79363  42.631  30.726   6.222
 6353POPC   C2B79364  42.561  30.630   6.675
 6353POPC   C3B79365  42.647  30.727   7.131
 6353POPC   C4B79366  42.625  30.658   7.600
 6354POPC   NC379367  39.227  11.358   5.447
 6354POPC   PO479368  39.528  10.835   5.533
 6354POPC   GL179369  39.507  11.113   5.879
 6354POPC   GL279370  39.159  11.164   5.918
 6354POPC   C1A79371  39.460  11.253   6.338
 6354POPC   D2A79372  39.351  11.472   6.735
 6354POPC   C3A79373  39.468  11.304   7.155
 6354POPC   C4A79374  39.556  11.482   7.601
 6354POPC   C1B79375  39.002  10.933   6.256
 6354POPC   C2B79376  39.205  10.929   6.660
 6354POPC   C3B79377  39.202  10.880   7.083
 6354POPC   C4B79378  38.945  11.032   7.398
 6355POPC   NC379379  21.832  37.707   5.384
 6355POPC   PO479380  21.254  37.909   5.569
 6355POPC   GL179381  21.500  37.591   5.795
 6355POPC   GL279382  21.303  37.283   5.835
 6355POPC   C1A79383  21.550  37.446   6.236
 6355POPC   D2A79384  21.334  37.495   6.637
 6355POPC   C3A79385  21.424  37.546   7.064
 6355POPC   C4A79386  21.472  37.917   7.301
 6355POPC   C1B79387  21.037  37.323   6.230
 6355POPC   C2B79388  20.880  37.280   6.665
 6355POPC   C3B79389  20.954  37.284   7.119
 6355POPC   C4B79390  21.115  37.478   7.489
 6356POPC   NC379391   4.500  32.903   5.467
 6356POPC   PO479392   3.862  33.110   5.282
 6356POPC   GL179393   4.054  33.120   5.721
 6356POPC   GL279394   4.365  33.323   5.848
 6356POPC   C1A79395   4.146  32.972   6.151
 6356POPC   D2A79396   4.367  33.034   6.523
 6356POPC   C3A79397   4.236  33.260   6.874
 6356POPC   C4A79398   4.155  32.981   7.178
 6356POPC   C1B79399   4.688  33.278   6.220
 6356POPC   C2B79400   4.750  33.287   6.715
 6356POPC   C3B79401   4.632  32.930   6.982
 6356POPC   C4B79402   4.573  32.809   7.412
 6357POPC   NC379403   9.406  22.868   5.348
 6357POPC   PO479404   8.757  23.129   5.424
 6357POPC   GL179405   9.023  22.900   5.727
 6357POPC   GL279406   8.908  22.559   5.741
 6357POPC   C1A79407   9.006  22.997   6.172
 6357POPC   D2A79408   9.185  22.964   6.582
 6357POPC   C3A79409   9.013  23.261   6.870
 6357POPC   C4A79410   8.932  23.153   7.279
 6357POPC   C1B79411   8.779  22.543   6.151
 6357POPC   C2B79412   8.664  22.791   6.521
 6357POPC   C3B79413   8.832  22.781   6.937
 6357POPC   C4B79414   9.023  22.586   7.277
 6358POPC   NC379415  35.079  29.933   5.150
 6358POPC   PO479416  34.558  29.595   5.165
 6358POPC   GL179417  34.527  29.832   5.677
 6358POPC   GL279418  34.268  29.626   5.723
 6358POPC   C1A79419  34.633  30.051   6.141
 6358POPC   D2A79420  34.673  30.255   6.598
 6358POPC   C3A79421  34.434  30.141   6.953
 6358POPC   C4A79422  34.729  29.877   7.153
 6358POPC   C1B79423  34.301  29.664   6.160
 6358POPC   C2B79424  34.442  29.780   6.587
 6358POPC   C3B79425  34.301  29.651   7.028
 6358POPC   C4B79426  34.411  29.598   7.489
 6359W        W79427  43.494  13.886  11.899
 6360W        W79428  33.099  22.780   2.787
 6361W        W79429  15.789  36.039  11.626
 6362W        W79430  23.080  24.652   0.335
 6363W        W79431  17.165   4.248   4.386
 6364W        W79432  18.930   5.191  13.665
 6365W        W79433  32.648  37.041   4.167
 6366W        W79434   9.768   6.414  12.023
 6367W        W79435  41.512  22.506   1.436
 6368W        W79436  26.655  20.765   1.429
 6369W        W79437  40.494  23.447   0.354
 6370W        W79438   1.478  13.664   4.292
 6371W        W79439  33.986  27.795   4.606
 6372W        W79440  24.091  27.948   3.058
 6373W        W79441   9.022   2.291   0.097
 6374W        W79442  27.211  13.815   3.690
 6375W        W79443  11.673  37.875   3.641
 6376W        W79444  18.720   8.814  13.316
 6377W        W79445  29.104  39.486  13.372
 6378W        W79446  18.329  32.464  13.803
 6379W        W79447  39.283  29.638   1.281
 6380W        W79448  43.446   6.293   2.312
 6381W        W79449  22.181   7.144  12.132
 6382W        W79450  19.322   7.775  14.416
 6383W        W79451  17.288   2.195  10.534
 6384W        W79452  13.575   0.834  10.574
 6385W        W79453  11.194  42.549   2.941
 6386W        W79454  42.008  22.644   0.333
 6387W        W79455   0.425  37.069  13.559
 6388W        W79456  20.531  41.246  13.857
 6389W        W79457  28.497   3.381  14.238
 6390W        W79458   8.348  20.748   5.065
 6391W        W79459  28.522  31.984   3.412
 6392W        W79460   4.854  28.690   4.694
 6393W        W79461  41.044  44.790   0.274
 6394W        W79462   1.909  37.527  14.465
 6395W        W79463  10.360  38.893   1.401
 6396W        W79464  44.038  38.455   5.247
 6397W        W79465  34.405  11.614  10.325
 6398W        W79466  22.595  43.039   0.187
 6399W        W79467  39.521  14.298   3.788
 6400W        W79468  36.115  43.488  11.332
 6401W        W79469   4.939  25.096  14.822
 6402W        W79470  14.308  30.615   2.451
 6403W        W79471  18.737  27.273   2.652
 6404W        W79472  39.603   6.669   2.605
 6405W        W79473   2.047  10.689  14.882
 6406W        W79474  38.398   9.776   4.627
 6407W        W79475  22.550  20.631   2.187
 6408W        W79476  42.906  21.269  11.187
 6409W        W79477  40.334  40.370   4.234
 6410W        W79478  14.444  22.876   3.179
 6411W        W79479  28.599  40.523  13.906
 6412W        W79480  28.610  17.635   1.320
 6413W        W79481  14.667  28.084   1.701
 6414W        W79482  20.750  40.393   3.833
 6415W        W79483   5.986  13.881  12.362
 6416W        W79484  43.689  43.920  13.858
 6417W        W79485  41.787   6.904  10.671
 6418W        W79486  26.920   9.620  14.401
 6419W        W79487  30.101  34.556   3.037
 6420W        W79488  27.516  36.778   5.019
 6421W        W79489   7.596  15.628   4.407
 6422W        W79490  21.747  30.695   1.822
 6423W        W79491  42.024  22.656   3.753
 6424W        W79492  40.429  20.599   4.013
 6425W        W79493  11.370   4.242  10.658
 6426W        W79494  35.351  38.302  14.080
 6427W        W79495  33.361   8.193  12.784
 6428W        W79496  23.185  31.079   4.111
 6429W        W79497  39.620  39.974   0.378
 6430W        W79498  13.706  22.765  12.493
 6431W        W79499  26.633   3.555  13.108
 6432W        W79500  31.290  27.604   3.905
 6433W        W79501   7.022  13.823  10.931
 6434W        W79502   8.457  44.966  13.537
 6435W        W79503  34.536  31.664  10.735
 6436W        W79504  42.225  42.401   0.302
 6437W        W79505  24.273  11.395   2.753
 6438W        W79506  17.915   1.439   1.424
 6439W        W79507   8.019  29.067   1.737
 6440W        W79508  21.095  15.983   0.275
 6441W        W79509  31.590  16.528  11.114
 6442W        W79510  40.007  34.147   0.850
 6443W        W79511  13.715  29.902  14.813
 6444W        W79512  31.363   9.267   0.037
 6445W        W79513   4.169  41.355  12.138
 6446W        W79514  26.659  34.677  13.900
 6447W        W79515  22.938  42.933   3.692
 6448W        W79516   0.976   5.692   1.786
 6449W        W79517  13.091   2.993  13.435
 6450W        W79518   6.359  18.777  11.963
 6451W        W79519  15.121  13.534   3.403
 6452W        W79520  40.961  16.634  14.308
 6453W        W79521  21.899  30.169   0.680
 6454W        W79522  42.344  33.153  13.379
 6455W        W79523  41.190   3.218  13.064
 6456W        W79524  33.541  34.633  14.775
 6457W        W79525  35.389  40.896   3.773
 6458W        W79526  36.514  11.300   3.942
 6459W        W79527  27.131   0.480  11.797
 6460W        W79528  34.654  36.887   2.553
 6461W        W79529  21.628  27.573   4.312
 6462W        W79530   1.410   3.256   2.265
 6463W        W79531  13.850   2.997  14.466
 6464W        W79532   9.640  18.206  14.784
 6465W        W79533  29.591  31.159  12.977
 6466W        W79534  34.223  21.168  12.151
 6467W        W79535  32.451  17.816  10.469
 6468W        W79536  18.056  15.619   1.301
 6469W        W79537  19.754  38.277   0.547
 6470W        W79538   7.981  14.048  11.090
 6471W        W79539  28.671  42.297   4.734
 6472W        W79540  33.892  17.076   2.752
 6473W        W79541  35.585  19.259   2.787
 6474W        W79542  27.750  10.801  13.809
 6475W        W79543   9.233  22.117  13.497
 6476W        W79544  21.319  37.852  13.823
 6477W        W79545  27.584  25.189   2.288
 6478W        W79546  39.921   3.796  11.948
 6479W        W79547  39.077  44.925  10.290
 6480W        W79548  26.143  15.535   2.852
 6481W        W79549  20.667   5.723  11.945
 6482W        W79550  11.916  39.426   2.544
 6483W        W79551  17.676  11.725  12.917
 6484W        W79552   9.834  43.862  13.755
 6485W        W79553  38.570   4.711   3.126
 6486W        W79554  17.103  30.482   4.482
 6487W        W79555  34.671  39.766  12.504
 6488W        W79556  23.123  39.980   3.181
 6489W        W79557  37.392  32.021  12.055
 6490W        W79558  22.371  35.865  12.411
 6491W        W79559  12.834  29.752  11.930
 6492W        W79560  28.562  32.370   3.068
 6493W        W79561  27.192  15.286   4.531
 6494W        W79562   2.393  19.756  11.480
 6495W        W79563  33.554   4.662  12.058
 6496W        W79564  43.426  20.487  12.860
 6497W        W79565  22.083   1.600  11.074
 6498W        W79566  31.533  14.228  13.359
 6499W        W79567  27.868  43.841   0.617
 6500W        W79568  42.374  27.606   3.243
 6501W        W79569  18.248  35.867   4.307
 6502W        W79570  32.472   0.795   0.473
 6503W        W79571   7.622   3.452   1.508
 6504W        W79572  23.611   4.373  12.275
 6505W        W79573  28.716  41.900   2.208
 6506W        W79574  19.113  28.353   2.147
 6507W        W79575  31.924  44.710  14.921
 6508W        W79576  41.007  40.290   2.121
 6509W        W79577  44.129   1.466   4.675
 6510W        W79578  38.805  30.890   1.629
 6511W        W79579  19.796   9.107  11.630
 6512W        W79580  12.275  19.656   2.553
 6513W        W79581  39.217  25.179   1.167
 6514W        W79582  24.089  34.553  11.860
 6515W        W79583   0.313  36.332   3.265
 6516W        W79584  34.471  14.133   2.346
 6517W        W79585  11.847  31.339  10.633
 6518W        W79586  41.441   8.193  10.839
 6519W        W79587  39.078  34.283   4.075
 6520W        W79588  34.895  17.723   4.130
 6521W        W79589  43.533  27.857  11.489
 6522W        W79590   8.875  44.827  13.884
 6523W        W79591  10.269  24.782  11.071
 6524W        W79592  41.536  20.935   2.492
 6525W        W79593  42.511  17.826   1.541
 6526W        W79594  11.303  23.547  13.891
 6527W        W79595  27.944   2.554  14.538
 6528W        W79596  31.007   6.548   0.989
 6529W        W79597  15.963  33.653   4.507
 6530W        W79598  11.211   9.288  12.554
 6531W        W79599   5.134   4.875   5.139
 6532W        W79600   6.286  42.135   0.872
 6533W        W79601  16.898   3.320  13.649
 6534W        W79602  37.204  14.553   3.629
 6535W        W79603  16.539  36.775   2.290
 6536W        W79604  27.414  31.328  13.827
 6537W        W79605   8.961  12.330  13.987
 6538W        W79606   1.136  41.093  11.988
 6539W        W79607  34.556   6.196   3.643
 6540W        W79608   3.296  34.255   4.940
 6541W        W79609  26.285   7.287  11.158
 6542W        W79610  27.801   5.313   4.136
 6543W        W79611   0.324  20.286   3.530
 6544W        W79612  11.322  28.551  12.061
 6545W        W79613  31.965  31.908  14.827
 6546W        W79614  38.349  44.547  12.841
 6547W        W79615  29.089   0.982  12.928
 6548W        W79616  40.610  28.580  13.486
 6549W        W79617  19.514  29.440  13.010
 6550W        W79618  25.354  15.754  14.744
 6551W        W79619  17.972  17.416  11.156
 6552W        W79620  10.676  32.580   3.649
 6553W        W79621   9.897  40.509   3.265
 6554W        W79622  21.070  20.045   0.755
 6555W        W79623  34.154  26.128   0.341
 6556W        W79624  11.151  37.992   3.822
 6557W        W79625  15.390  31.893  11.040
 6558W        W79626  36.982  24.549  11.243
 6559W        W79627  16.166   1.066   1.792
 6560W        W79628  32.769  37.993  14.353
 6561W        W79629  32.381  37.019  12.939
 6562W        W79630  15.853   1.319  14.787
 6563W        W79631  31.882  19.275  11.168
 6564W        W79632   1.298  15.928  13.834
 6565W        W79633  35.675  39.573   1.352
 6566W        W79634  23.610  26.486  14.107
 6567W        W79635  12.998  21.107  11.213
 6568W        W79636  39.841  28.499   2.904
 6569W        W79637   5.442  16.365   1.374
 6570W        W79638  28.035  17.981  11.926
 6571W        W79639  36.312  44.007   0.469
 6572W        W79640  29.596   8.285   3.611
 6573W        W79641  25.516  34.352   3.243
 6574W        W79642  18.200  34.955  13.021
 6575W        W79643  10.458  35.131  11.198
 6576W        W79644  25.061  39.167   4.548
 6577W        W79645   8.000   8.670   2.359
 6578W        W79646  33.113  19.596  10.767
 6579W        W79647   8.450   0.839  13.680
 6580W        W79648  35.165   7.347  12.444
 6581W        W79649  12.011  17.945  10.659
 6582W        W79650  16.960  35.131  10.374
 6583W        W79651   5.161  12.640  12.935
 6584W        W79652   5.695  34.146   4.194
 6585W        W79653  14.706  18.849   1.268
 6586W        W79654  34.491  43.562  13.933
 6587W        W79655  39.774  43.263  12.604
 6588W        W79656  36.030   2.476  13.843
 6589W        W79657   7.394  30.431  12.844
 6590W        W79658  15.559   7.911   4.110
 6591W        W79659   3.231  36.356   4.323
 6592W        W79660  28.888  37.135  13.890
 6593W        W79661  43.389  39.870   1.666
 6594W        W79662  21.758  37.866   3.085
 6595W        W79663  24.773  23.201   1.206
 6596W        W79664  19.463  10.155  10.580
 6597W        W79665  30.052  32.414  12.601
 6598W        W79666  28.553  20.142  12.022
 6599W        W79667  18.134   1.926   2.807
 6600W        W79668   1.289  31.685   0.411
 6601W        W79669   2.398  23.762   1.173
 6602W        W79670  31.393   1.237  13.496
 6603W        W79671   1.877  33.285   4.559
 6604W        W79672  23.730  17.135   4.055
 6605W        W79673  21.744   1.399  13.380
 6606W        W79674  16.702  17.010  10.636
 6607W        W79675  33.137  27.258  14.515
 6608W        W79676  27.610  18.666  14.288
 6609W        W79677   8.368  13.654   1.516
 6610W        W79678  25.544  40.518   1.329
 6611W        W79679  14.276  26.425  12.936
 6612W        W79680  14.705  35.535   2.737
 6613W        W79681  34.181  38.006  14.977
 6614W        W79682  20.108  37.002   0.815
 6615W        W79683  37.114  21.118  10.998
 6616W        W79684   8.908   6.028   2.714
 6617W        W79685  32.635  10.452   0.417
 6618W        W79686  36.936  24.645   1.364
 6619W        W79687  30.774   8.474   2.812
 6620W        W79688  30.240  26.077   1.472
 6621W        W79689  28.510  29.749   0.752
 6622W        W79690   4.444  10.772  12.363
 6623W        W79691   9.568  27.216   2.927
 6624W        W79692  21.751  33.293   3.765
 6625W        W79693   8.386   9.116  11.166
 6626W        W79694   3.295   0.142  14.079
 6627W        W79695  12.353  43.795  13.385
 6628W        W79696  39.483   8.891   1.274
 6629W        W79697  26.704   2.711  14.298
 6630W        W79698  36.292  16.184  13.994
 6631W        W79699  16.324   6.707   3.180
 6632W        W79700  21.451  41.262  10.687
 6633W        W79701  17.747   7.197  13.402
 6634W        W79702   9.292  28.783   1.814
 6635W        W79703  15.760  38.587  14.946
 6636W        W79704  41.397  22.317   3.269
 6637W        W79705  42.138   5.870   2.921
 6638W        W79706   4.938  27.093  14.977
 6639W        W79707  22.748   3.925   1.782
 6640W        W79708  30.469   8.760   2.481
 6641W        W79709  24.154   1.397  12.620
 6642W        W79710  12.341  34.409   1.306
 6643W        W79711  32.544  31.817   0.304
 6644W        W79712  36.011   7.264   1.240
 6645W        W79713  19.111  43.775  11.073
 6646W        W79714   8.821   1.059  11.546
 6647W        W79715  39.914  20.263   0.874
 6648W        W79716   5.303  16.690  14.628
 6649W        W79717  38.726  18.562  10.980
 6650W        W79718   1.358  20.805   4.559
 6651W        W79719  13.958   4.649  11.553
 6652W        W79720  40.993   3.732  11.068
 6653W        W79721  40.794  42.884  10.736
 6654W        W79722   7.948  21.273  14.992
 6655W        W79723   2.972  24.782  11.557
 6656W        W79724  32.062  10.724  10.814
 6657W        W79725  10.883   4.336  13.479
 6658W        W79726  18.238  35.377  10.914
 6659W        W79727  12.867  14.125  12.116
 6660W        W79728  21.830  34.615  14.926
 6661W        W79729  34.981  35.360   0.921
 6662W        W79730  41.506  14.433  14.409
 6663W        W79731   1.803   1.695  12.623
 6664W        W79732   7.760  11.110  11.175
 6665W        W79733   7.543  36.677  13.914
 6666W        W79734   1.149  17.064  12.159
 6667W        W79735   6.701  16.048  14.111
 6668W        W79736  22.171   0.526   3.263
 6669W        W79737   8.196  14.676  11.067
 6670W        W79738  40.963  11.213   0.295
 6671W        W79739  10.617   9.376   2.692
 6672W        W79740   7.310  23.684  10.732
 6673W        W79741  10.179  11.225  13.576
 6674W        W79742  19.199  39.508   1.721
 6675W        W79743  15.653  38.340   3.278
 6676W        W79744  33.627  40.540   0.394
 6677W        W79745  39.074   6.921  13.052
 6678W        W79746  25.500  39.391   3.908
 6679W        W79747  16.592   3.100   0.991
 6680W        W79748  43.687   6.494   1.842
 6681W        W79749  32.914  30.545   3.789
 6682W        W79750  42.357   1.171   2.470
 6683W        W79751   1.564  21.240   3.756
 6684W        W79752   4.651   2.432   3.073
 6685W        W79753  33.766  26.607  12.686
 6686W        W79754  16.562  38.832  13.292
 6687W        W79755  16.159  23.241  12.500
 6688W        W79756  38.660  11.571   4.944
 6689W        W79757  21.278  17.491  11.460
 6690W        W79758   1.354   9.817   4.163
 6691W        W79759  42.904   5.204  10.765
 6692W        W79760   9.336  19.015  11.613
 6693W        W79761  41.703  28.520   2.801
 6694W        W79762  20.872  43.738   2.847
 6695W        W79763  18.441   8.345   1.961
 6696W        W79764  17.252  26.779   4.522
 6697W        W79765  22.545  37.841  14.963
 6698W        W79766  44.846   8.863   1.448
 6699W        W79767  32.972  29.700   2.156
 6700W        W79768  27.645  34.090  11.267
 6701W        W79769  20.764  39.530  11.049
 6702W        W79770   3.445   1.006   1.511
 6703W        W79771   9.443  14.908  13.898
 6704W        W79772  10.929  14.543  14.835
 6705W        W79773  29.555   3.126  12.557
 6706W        W79774  16.371  32.998   3.262
 6707W        W79775  21.471  39.957   0.287
 6708W        W79776  33.609  19.706  13.307
 6709W        W79777  11.069  20.760  14.409
 6710W        W79778   3.345  30.463   4.616
 6711W        W79779  41.047  38.077   0.926
 6712W        W79780   0.293  17.083  11.665
 6713W        W79781  22.992  12.367  13.984
 6714W        W79782  24.939  18.162   3.684
 6715W        W79783   6.832  33.174  13.807
 6716W        W79784  12.824  41.508   2.564
 6717W        W79785  41.852   9.812   3.424
 6718W        W79786   3.460  20.647  14.386
 6719W        W79787  29.829  28.516  13.831
 6720W        W79788  44.515  13.299  11.532
 6721W        W79789  22.994  16.519  10.279
 6722W        W79790  27.088   4.697  14.690
 6723W        W79791  10.228  30.153   2.150
 6724W        W79792  24.263  19.627  12.792
 6725W        W79793  11.551  33.166  11.851
 6726W        W79794  15.138   2.654   2.189
 6727W        W79795  43.529  22.777  13.474
 6728W        W79796  35.753  42.624   0.419
 6729W        W79797   5.254   5.845  14.324
 6730W        W79798  38.991  25.133   2.426
 6731W        W79799  35.994  20.098   0.874
 6732W        W79800  25.646   5.659  12.563
 6733W        W79801   1.825  25.333   3.921
 6734W        W79802  41.264  20.685   3.422
 6735W        W79803  30.562  38.906   1.322
 6736W        W79804  27.119   8.866   2.579
 6737W        W79805  11.859  22.343  14.840
 6738W        W79806  37.564   1.763  14.852
 6739W        W79807  16.783   8.549   1.371
 6740W        W79808   7.292  36.319  14.228
 6741W        W79809  37.643  13.246   1.221
 6742W        W79810   5.843  43.908  14.943
 6743W        W79811  43.464  18.268  12.032
 6744W        W79812  14.949  16.056  12.015
 6745W        W79813  16.538  41.613   4.785
 6746W        W79814  27.600  20.707  14.407
 6747W        W79815  27.035   1.065   0.518
 6748W        W79816  28.183  24.141   1.562
 6749W        W79817  12.728   7.731   3.921
 6750W        W79818  27.585  27.817   2.284
 6751W        W79819  15.313  36.875  10.734
 6752W        W79820   1.474  22.985  11.497
 6753W        W79821   1.978  40.854   3.351
 6754W        W79822  10.668  11.355  14.799
 6755W        W79823  13.122  18.299  12.360
 6756W        W79824  44.282  16.108   3.826
 6757W        W79825   7.383  14.936  13.606
 6758W        W79826   8.340   2.396   3.178
 6759W        W79827  11.948   5.702  10.568
 6760W        W79828  43.355   5.373  10.399
 6761W        W79829  33.624  36.555   2.717
 6762W        W79830  18.057  12.906  11.926
 6763W        W79831   8.802  15.791  14.662
 6764W        W79832  20.196  16.082   0.852
 6765W        W79833  28.997  36.978  12.419
 6766W        W79834  25.981   2.582  12.100
 6767W        W79835   4.500  28.673   2.097
 6768W        W79836  41.835  32.372   2.325
 6769W        W79837  17.281  11.485   2.809
 6770W        W79838  33.135  43.873  10.783
 6771W        W79839   7.888   7.085  10.613
 6772W        W79840  14.856  11.022  13.484
 6773W        W79841  26.284   8.942   0.763
 6774W        W79842  29.112  11.136   1.487
 6775W        W79843   1.810  41.283  14.067
 6776W        W79844   0.476  19.553  12.828
 6777W        W79845  36.835  14.099   4.224
 6778W        W79846  36.151  31.038   0.908
 6779W        W79847   8.045  35.906   0.459
 6780W        W79848  19.672  42.931   3.806
 6781W        W79849  12.755  12.923   2.916
 6782W        W79850  17.492  38.445   4.320
 6783W        W79851   3.466  30.486  12.473
 6784W        W79852  18.318  18.628  13.827
 6785W        W79853  40.159  31.118  11.960
 6786W        W79854  31.093  23.017  14.370
 6787W        W79855  12.152  15.024  14.794
 6788W        W79856  15.153  25.068  14.947
 6789W        W79857  23.974  36.985   3.318
 6790W        W79858  10.682  20.365   3.688
 6791W        W79859  34.762  22.385  11.697
 6792W        W79860   3.310   6.462   1.712
 6793W        W79861   2.857  16.676   3.970
 6794W        W79862  39.989  19.993   1.314
 6795W        W79863   8.401  41.519  12.582
 6796W        W79864  22.040   1.782  14.893
 6797W        W79865   1.375   6.952   1.718
 6798W        W79866  31.482   0.354  13.576
 6799W        W79867  15.264  31.185   3.471
 6800W        W79868  24.503  35.404  12.395
 6801W        W79869  44.454  12.041   2.658
 6802W        W79870  40.040  35.917   2.329
 6803W        W79871  28.266  30.258   3.363
 6804W        W79872  10.210  18.070   1.486
 6805W        W79873  18.823  15.768   0.594
 6806W        W79874  10.108  17.333  14.786
 6807W        W79875   1.794  35.769   2.368
 6808W        W79876  17.265  21.909  12.499
 6809W        W79877   1.332  41.568  11.952
 6810W        W79878  37.449  12.542  14.421
 6811W        W79879  36.582   7.233  14.291
 6812W        W79880   6.276  44.514   1.018
 6813W        W79881   2.775  14.541  14.510
 6814W        W79882  40.906  16.736   4.312
 6815W        W79883  27.422  32.445   3.587
 6816W        W79884   9.147  25.521   3.297
 6817W        W79885  15.874  28.859  13.543
 6818W        W79886  29.489  33.347   3.285
 6819W        W79887  44.708  41.930  12.570
 6820W        W79888   6.916   6.310  14.327
 6821W        W79889  15.110  41.577  13.555
 6822W        W79890  23.303  16.158   4.406
 6823W        W79891  17.809   9.175  11.511
 6824W        W79892  19.685  21.920  12.771
 6825W        W79893   7.005   1.848  12.530
 6826W        W79894  24.001  20.418  13.298
 6827W        W79895   9.601   9.023  11.468
 6828W        W79896  27.831  18.660  14.937
 6829W        W79897  24.721   6.897   1.433
 6830W        W79898  10.616  17.081  12.991
 6831W        W79899  21.511  16.595  14.018
 6832W        W79900  18.554  42.505  12.442
 6833W        W79901  25.735  44.318   0.360
 6834W        W79902   6.444  28.221  10.370
 6835W        W79903  35.111  40.350  11.883
 6836W        W79904   4.448  24.454  12.030
 6837W        W79905  23.122  43.326  10.986
 6838W        W79906  15.323  42.357  13.903
 6839W        W79907  36.316  33.482  12.610
 6840W        W79908  23.297  15.761   3.724
 6841W        W79909  30.601  41.024   1.171
 6842W        W79910  31.385  40.205  11.100
 6843W        W79911  30.006  43.825  14.267
 6844W        W79912  43.010   6.752  14.408
 6845W        W79913  15.182  38.730   1.190
 6846W        W79914  35.437   9.701   3.729
 6847W        W79915   9.895  13.664   1.225
 6848W        W79916  35.621  39.382  12.583
 6849W        W79917  18.112   1.227  11.317
 6850W        W79918   9.139  14.744   3.211
 6851W        W79919  33.350  14.513   0.480
 6852W        W79920  16.596  43.016   2.111
 6853W        W79921  31.369  13.668  14.549
 6854W        W79922  40.696   5.786  13.745
 6855W        W79923  12.348  21.315   4.170
 6856W        W79924  18.656  35.785  12.353
 6857W        W79925  27.598  30.164   1.342
 6858W        W79926  36.577  38.762  13.553
 6859W        W79927  21.775  12.235  11.215
 6860W        W79928  19.250  41.007   1.900
 6861W        W79929  25.571  19.870   4.834
 6862W        W79930  40.986   1.401   0.369
 6863W        W79931  12.268  43.702   3.812
 6864W        W79932  34.599  31.386   1.895
 6865W        W79933  36.140  39.136   4.317
 6866W        W79934  19.942   9.852   3.206
 6867W        W79935  12.338  30.223  14.309
 6868W        W79936  10.754  31.512   0.361
 6869W        W79937  36.596   3.879   0.933
 6870W        W79938  40.568  34.816  10.406
 6871W        W79939  11.268  43.616  14.015
 6872W        W79940   9.764  44.201  13.304
 6873W        W79941  43.167   9.341   4.600
 6874W        W79942  41.106  40.325   2.653
 6875W        W79943  24.208   9.174  12.000
 6876W        W79944   5.567   9.702   3.188
 6877W        W79945   7.110  17.129   4.806
 6878W        W79946  11.673  15.138   4.116
 6879W        W79947  34.405   9.364   2.770
 6880W        W79948  21.225   3.414   1.480
 6881W        W79949  31.956  42.546  12.783
 6882W        W79950  21.015  24.450  10.937
 6883W        W79951   3.344  31.221  10.654
 6884W        W79952  27.580  34.202   2.210
 6885W        W79953  24.461  26.970  10.670
 6886W        W79954   9.111  28.862  10.715
 6887W        W79955  38.476  13.877   0.656
 6888W        W79956  24.710  36.634   2.895
 6889W        W79957  25.875  31.718  13.357
 6890W        W79958  31.344  35.673   3.385
 6891W        W79959  17.279  18.711   2.666
 6892W        W79960  39.043  29.886  14.939
 6893W        W79961   2.338   7.876   0.027
 6894W        W79962  14.959  35.848  12.870
 6895W        W79963   1.909  22.356  11.903
 6896W        W79964  36.356  44.579   1.343
 6897W        W79965  10.749  21.188  14.437
 6898W        W79966  11.806  25.078   1.195
 6899W        W79967   8.990   1.021  12.485
 6900W        W79968   7.236   3.255  11.005
 6901W        W79969   0.914   2.695  12.384
 6902W        W79970  24.011   0.934  11.414
 6903W        W79971  29.712  12.258   0.378
 6904W        W79972   2.229  37.631  14.904
 6905W        W79973   1.565  18.735   0.900
 6906W        W79974  44.962  32.852  11.339
 6907W        W79975  24.133  35.205   4.122
 6908W        W79976  44.942  15.542   2.199
 6909W        W79977  40.149   0.572  11.644
 6910W        W79978  24.161   2.386   1.080
 6911W        W79979  26.979   5.651  14.376
 6912W        W79980  35.450  31.863  10.235
 6913W        W79981  10.369  41.144  12.384
 6914W        W79982  25.152  34.601  10.622
 6915W        W79983   7.701  11.048   4.726
 6916W        W79984  41.586  12.481   0.702
 6917W        W79985  44.446  28.726  12.136
 6918W        W79986  35.202  32.087   4.147
 6919W        W79987  35.141   0.721  10.587
 6920W        W79988   0.770   4.059  13.830
 6921W        W79989  31.664  40.722   0.291
 6922W        W79990  10.772  12.274  12.862
 6923W        W79991   9.530  32.556   4.731
 6924W        W79992  35.938  12.803  14.650
 6925W        W79993  24.536  32.503  12.430
 6926W        W79994  31.216  34.045  13.837
 6927W        W79995   6.450  15.498  10.657
 6928W        W79996  11.765  19.005  14.907
 6929W        W79997  30.394   3.413  10.793
 6930W        W79998  18.284  12.746   4.032
 6931W        W79999  41.814  38.406   0.689
 6932W        W80000  30.820  44.382  10.384
 6933W        W80001  33.483  13.178   0.806
 6934W        W80002  29.523  21.550  10.747
 6935W        W80003  43.441  30.651  12.006
 6936W        W80004   1.715  21.326   1.765
 6937W        W80005   5.365  41.073   3.820
 6938W        W80006  30.614   6.930   4.551
 6939W        W80007  35.962   7.756  10.898
 6940W        W80008  29.522  22.018   2.136
 6941W        W80009  17.670  12.879   1.474
 6942W        W80010  38.225  13.593   2.768
 6943W        W80011  10.771  38.033   0.388
 6944W        W80012  26.545  13.804   1.909
 6945W        W80013  29.295   2.572   1.846
 6946W        W80014  25.563  17.238  10.778
 6947W        W80015  20.311   6.209   1.615
 6948W        W80016  13.115  21.604  13.811
 6949W        W80017   5.363   9.368  13.072
 6950W        W80018   4.231  13.398  13.549
 6951W        W80019  32.952  33.483  14.856
 6952W        W80020  31.565  17.329   0.430
 6953W        W80021  31.417  19.172   4.652
 6954W        W80022  26.982   1.090   1.445
 6955W        W80023  18.717  32.958   0.834
 6956W        W80024   8.436  38.475   4.546
 6957W        W80025  17.416  37.119   1.340
 6958W        W80026   5.704  35.579  12.988
 6959W        W80027   8.962   9.256   3.666
 6960W        W80028  13.353  26.727   4.520
 6961W        W80029   9.365  25.608   2.823
 6962W        W80030   7.822   3.333  11.100
 6963W        W80031  36.075  36.005   4.267
 6964W        W80032   4.791  10.429   4.132
 6965W        W80033  16.790  23.060   0.243
 6966W        W80034  37.143  26.702   3.234
 6967W        W80035  10.261  23.537  14.415
 6968W        W80036  17.518  44.553   0.260
 6969W        W80037  41.786  30.394   0.968
 6970W        W80038   3.721  20.957  12.939
 6971W        W80039  38.150  15.734  14.281
 6972W        W80040   2.918  26.177  14.884
 6973W        W80041  44.018   9.082   0.914
 6974W        W80042  37.849   6.316  12.631
 6975W        W80043  27.567  33.854   3.199
 6976W        W80044  39.838  38.626   1.797
 6977W        W80045  33.622  19.282  12.997
 6978W        W80046  42.603  18.476   3.246
 6979W        W80047  43.644  40.915   0.458
 6980W        W80048  13.371  36.840   4.811
 6981W        W80049   5.734  18.064   0.019
 6982W        W80050  20.989  33.559  14.448
 6983W        W80051   5.235  34.845   4.835
 6984W        W80052  37.930   7.641   1.359
 6985W        W80053  42.228  32.876  11.366
 6986W        W80054  17.418  14.363   4.536
 6987W        W80055  15.184  11.332   0.949
 6988W        W80056  39.004  18.433  10.574
 6989W        W80057  11.101  11.887   1.780
 6990W        W80058   5.769  15.135   0.924
 6991W        W80059   6.802  17.084   1.447
 6992W        W80060  16.171  23.279   5.067
 6993W        W80061  32.383  38.252   2.763
 6994W        W80062  35.120  34.167   5.050
 6995W        W80063   5.080   7.104  11.727
 6996W        W80064  19.646   9.795  13.371
 6997W        W80065  20.134  36.992  11.544
 6998W        W80066  21.001  40.346  14.006
 6999W        W80067   6.905  18.161  11.162
 7000W        W80068  35.903   5.363   3.297
 7001W        W80069  13.188  12.368   5.187
 7002W        W80070  38.595  23.850   3.040
 7003W        W80071  38.501   5.742   3.985
 7004W        W80072  44.498  30.511   2.244
 7005W        W80073  25.595  44.927   3.118
 7006W        W80074  39.204   9.896  11.456
 7007W        W80075  20.442  42.635   0.448
 7008W        W80076  20.207  12.565   1.350
 7009W        W80077  40.062  29.075   4.147
 7010W        W80078   4.413  36.507  12.426
 7011W        W80079  13.363   8.706   4.521
 7012W        W80080  40.640  44.519   0.460
 7013W        W80081  14.154  25.754   1.486
 7014W        W80082  31.962  35.541   0.181
 7015W        W80083  12.354  24.432   4.176
 7016W        W80084   4.791   2.361   4.027
 7017W        W80085  39.991  15.872  13.735
 7018W        W80086  17.326  26.444  12.388
 7019W        W80087  41.920  26.827  12.030
 7020W        W80088  14.811  37.430  13.384
 7021W        W80089  21.779  39.806   3.149
 7022W        W80090   6.632  20.919   2.780
 7023W        W80091  43.909  15.503   3.222
 7024W        W80092  42.467  20.544   3.110
 7025W        W80093  31.163  35.713   2.567
 7026W        W80094  38.336  33.028  11.269
 7027W        W80095   3.432  38.445  10.731
 7028W        W80096  35.547  24.998  11.004
 7029W        W80097  18.769  15.376  12.555
 7030W        W80098   7.809   4.616  11.653
 7031W        W80099  23.647  21.773  12.011
 7032W        W80100   7.820  36.505   0.912
 7033W        W80101  44.384  31.893  12.497
 7034W        W80102  16.866  16.538   4.543
 7035W        W80103  21.046   5.060   4.958
 7036W        W80104  25.136   4.464  12.824
 7037W        W80105   7.821  33.949   2.305
 7038W        W80106  14.829  29.240  10.473
 7039W        W80107  35.576  40.288  14.397
 7040W        W80108   3.300  39.670   0.240
 7041W        W80109  10.569   5.916   4.063
 7042W        W80110  30.416  37.923  14.738
 7043W        W80111   3.721  24.931  13.279
 7044W        W80112  26.856  34.019   3.517
 7045W        W80113  11.046  24.592   0.520
 7046W        W80114  30.949  18.819  14.987
 7047W        W80115  37.429  11.831   4.654
 7048W        W80116  29.119  35.089   1.183
 7049W        W80117  12.019  32.396   1.419
 7050W        W80118  38.043  24.672   1.475
 7051W        W80119   0.871  28.592  10.516
 7052W        W80120  40.941  32.430   1.665
 7053W        W80121  24.705  23.441  13.345
 7054W        W80122   0.585  32.816   0.961
 7055W        W80123  34.014  25.801   0.780
 7056W        W80124   8.253  33.930  12.729
 7057W        W80125  12.968  32.874  11.975
 7058W        W80126  31.575  39.741   0.266
 7059W        W80127  36.469  40.473   0.820
 7060W        W80128  33.603   0.860  12.481
 7061W        W80129  33.548  16.189  14.912
 7062W        W80130  41.987  32.487   0.454
 7063W        W80131  31.347  43.572  13.231
 7064W        W80132  33.817   9.251  14.437
 7065W        W80133  33.582  17.759  11.848
 7066W        W80134   9.115  27.425   4.242
 7067W        W80135  25.170  26.965   1.316
 7068W        W80136  35.993  33.184   1.438
 7069W        W80137  38.548   0.832   0.796
 7070W        W80138  38.732  27.777  14.812
 7071W        W80139  44.068  15.738   2.313
 7072W        W80140  26.447  29.970  12.115
 7073W        W80141  35.520  32.378  11.888
 7074W        W80142  33.447  39.316   4.581
 7075W        W80143  19.767  40.266  12.171
 7076W        W80144   0.329  34.314  12.828
 7077W        W80145   3.303  19.741   1.871
 7078W        W80146  28.780  12.279  12.425
 7079W        W80147  23.284  28.341  11.620
 7080W        W80148  15.318  39.520   4.585
 7081W        W80149  31.658  33.379  13.482
 7082W        W80150  12.610  37.271   1.668
 7083W        W80151  28.383  22.484   4.353
 7084W        W80152  37.503  36.416   4.109
 7085W        W80153  29.410  11.045  14.980
 7086W        W80154   3.238   7.288   4.235
 7087W        W80155  29.147  22.227  11.122
 7088W        W80156  33.459   2.804   3.325
 7089W        W80157  38.801   2.889   0.431
 7090W        W80158  17.837  10.217  11.674
 7091W        W80159  11.290   4.919  11.265
 7092W        W80160   4.334  42.516   2.561
 7093W        W80161  25.215  32.579  14.153
 7094W        W80162  20.253   7.107  13.777
 7095W        W80163  32.455   1.173   3.777
 7096W        W80164  34.820  42.504   4.614
 7097W        W80165  21.936  42.787   3.639
 7098W        W80166  28.015  34.132   4.322
 7099W        W80167  30.120  14.102   1.812
 7100W        W80168   8.887  44.303   3.084
 7101W        W80169  42.772  37.648  10.300
 7102W        W80170  41.913  12.556  11.513
 7103W        W80171  28.997  33.799   2.531
 7104W        W80172  32.968  11.124   4.460
 7105W        W80173  44.515  13.079  13.875
 7106W        W80174  14.118  35.670  14.919
 7107W        W80175  19.016   0.387   3.318
 7108W        W80176  18.693  24.612   1.894
 7109W        W80177  41.084  36.390  14.319
 7110W        W80178   5.853  15.024  12.285
 7111W        W80179  14.053  12.646  11.237
 7112W        W80180  29.582   5.333   3.797
 7113W        W80181  25.219   6.622  11.882
 7114W        W80182  28.395   0.374   3.142
 7115W        W80183  26.753  13.121   1.167
 7116W        W80184   0.353  22.963  10.883
 7117W        W80185  23.255  16.528  13.542
 7118W        W80186  18.285  42.028  14.925
 7119W        W80187  44.448   2.419   1.739
 7120W        W80188  17.579   2.940  10.418
 7121W        W80189  19.210  27.179  12.422
 7122W        W80190   6.730  34.749  11.643
 7123W        W80191  34.342   8.444  11.171
 7124W        W80192  32.030  13.014  12.817
 7125W        W80193  25.176  25.161  12.317
 7126W        W80194  43.380  20.679   0.671
 7127W        W80195  16.097  11.100   0.401
 7128W        W80196  37.468  24.319  14.537
 7129W        W80197  37.915  41.342   4.669
 7130W        W80198  27.761  11.770  13.633
 7131W        W80199   3.441  25.521   0.250
 7132W        W80200  23.085  35.504  11.860
 7133W        W80201  10.563  28.953   4.785
 7134W        W80202  37.907  14.940   0.425
 7135W        W80203   6.935  26.954   0.991
 7136W        W80204  23.172  12.921  11.035
 7137W        W80205  34.339  34.488  12.518
 7138W        W80206  34.829  12.540  11.328
 7139W        W80207  38.433  38.980  10.505
 7140W        W80208  37.589  16.783  12.474
 7141W        W80209  42.324  25.417   2.333
 7142W        W80210  19.883  13.864  12.116
 7143W        W80211  17.386  13.154   0.484
 7144W        W80212  16.220  12.161   3.538
 7145W        W80213  38.663  40.977  12.966
 7146W        W80214  44.440  23.133   0.287
 7147W        W80215   6.963  39.271  13.051
 7148W        W80216  30.322   8.176   0.813
 7149W        W80217  24.152  26.469  14.025
 7150W        W80218  42.670   7.884  13.509
 7151W        W80219  12.301  31.619  14.276
 7152W        W80220  30.975   9.230   4.884
 7153W        W80221  35.544  36.898   3.614
 7154W        W80222  20.587  42.862  11.737
 7155W        W80223  11.377  10.305   2.371
 7156W        W80224   5.190  26.963   3.383
 7157W        W80225  27.818  31.186   4.267
 7158W        W80226  20.572   5.268  11.706
 7159W        W80227  43.639  28.942  12.213
 7160W        W80228   4.799  31.415   4.212
 7161W        W80229  34.978  17.207   4.113
 7162W        W80230  15.866   8.715   1.296
 7163W        W80231  24.251   7.981   5.008
 7164W        W80232  28.169  31.129   3.898
 7165W        W80233  10.652  23.692  14.689
 7166W        W80234  11.134  44.472  14.310
 7167W        W80235  12.385  24.393   1.360
 7168W        W80236  15.045  15.507   3.080
 7169W        W80237  16.779  41.099   4.672
 7170W        W80238   2.959  15.720   3.697
 7171W        W80239  10.196   4.638  12.753
 7172W        W80240  17.694  26.572   9.981
 7173W        W80241  25.698  44.839   0.329
 7174W        W80242  24.528  26.750  13.713
 7175W        W80243  13.258  33.401   2.865
 7176W        W80244  15.820  22.816   1.067
 7177W        W80245  25.576  40.737  14.566
 7178W        W80246   4.468  20.653   2.402
 7179W        W80247  36.387   8.069  14.502
 7180W        W80248  28.047  12.942  11.067
 7181W        W80249  20.704  22.776   4.553
 7182W        W80250  26.464   8.793   1.310
 7183W        W80251   9.500   0.727   0.913
 7184W        W80252  29.939   8.613  13.537
 7185W        W80253  24.642  22.114  13.073
 7186W        W80254  41.312  36.967   1.790
 7187W        W80255  42.200  22.981   0.928
 7188W        W80256  31.060  17.390  11.077
 7189W        W80257  20.281   4.892   2.356
 7190W        W80258  25.353  33.903  11.111
 7191W        W80259   9.811   5.365   3.157
 7192W        W80260   1.275  15.627   0.265
 7193W        W80261  34.316  16.425  11.578
 7194W        W80262  40.731  37.901   4.136
 7195W        W80263  23.905   9.246   4.083
 7196W        W80264   9.519  26.413   0.381
 7197W        W80265  11.810  13.351   3.126
 7198W        W80266   4.988  31.715   4.590
 7199W        W80267  37.495  11.994   0.663
 7200W        W80268  24.709  37.064  11.553
 7201W        W80269   3.629  10.328  12.545
 7202W        W80270  10.885  32.596  11.663
 7203W        W80271   7.710   6.410  12.923
 7204W        W80272  26.939  18.728   4.806
 7205W        W80273  39.377  40.079  13.977
 7206W        W80274  27.039  32.691  11.169
 7207W        W80275  37.193  41.558   3.175
 7208W        W80276   7.121  11.760  12.496
 7209W        W80277  26.408   1.180  11.989
 7210W        W80278  43.024  40.396  11.774
 7211W        W80279  39.026   8.152  14.234
 7212W        W80280   7.892  20.353   4.673
 7213W        W80281  11.380  16.654  10.954
 7214W        W80282   5.210   6.495   0.680
 7215W        W80283  15.501   7.721   1.113
 7216W        W80284   2.199  14.767   2.872
 7217W        W80285   2.900   9.903   2.621
 7218W        W80286  44.791  29.520   2.668
 7219W        W80287  15.614  26.218   1.728
 7220W        W80288   1.908  14.377   0.804
 7221W        W80289  10.671  34.317   0.691
 7222W        W80290  38.403  19.247  12.424
 7223W        W80291  41.565  34.040  14.847
 7224W        W80292   6.126  15.639  14.450
 7225W        W80293   6.815  33.892  11.225
 7226W        W80294  12.696  13.716   0.453
 7227W        W80295   6.346  43.265  14.965
 7228W        W80296   7.651  13.568  13.455
 7229W        W80297  13.862   5.305   0.058
 7230W        W80298  21.733  39.528   0.226
 7231W        W80299  38.970  20.245  13.370
 7232W        W80300  11.217  14.997  14.343
 7233W        W80301  35.005  39.496   3.669
 7234W        W80302  14.380  20.693   4.791
 7235W        W80303  27.756  10.629   1.462
 7236W        W80304  31.984   3.132  13.825
 7237W        W80305  14.679  26.713   0.219
 7238W        W80306  13.094  35.434  14.509
 7239W        W80307  32.425  24.723  12.852
 7240W        W80308  12.267  17.364   1.925
 7241W        W80309  13.941  24.411   0.573
 7242W        W80310  22.068  43.324   1.056
 7243W        W80311  10.109  39.031  12.663
 7244W        W80312   4.760  12.011  10.739
 7245W        W80313  39.525  39.045   0.801
 7246W        W80314  42.099  42.497  12.998
 7247W        W80315   2.423  10.260   4.452
 7248W        W80316  27.591  22.576   2.736
 7249W        W80317  26.963  19.306  11.137
 7250W        W80318  13.703   3.310   1.770
 7251W        W80319  35.909  14.745  11.149
 7252W        W80320  43.896  44.042   1.700
 7253W        W80321  32.141  15.211   4.043
 7254W        W80322  30.958  35.407   2.131
 7255W        W80323  17.282  41.802   1.660
 7256W        W80324  28.453  14.317   2.772
 7257W        W80325  34.765  19.078  12.945
 7258W        W80326   0.413   9.927  10.390
 7259W        W80327  18.023  13.354  11.108
 7260W        W80328  27.564  16.782   2.839
 7261W        W80329  27.630  19.133  13.235
 7262W        W80330  17.719  43.549  13.149
 7263W        W80331  43.442  41.387  13.943
 7264W        W80332   2.977  22.953   3.290
 7265W        W80333  25.903   9.883  12.072
 7266W        W80334  39.824  37.482  14.059
 7267W        W80335  33.084  30.348  14.338
 7268W        W80336   2.192   3.659   2.168
 7269W        W80337  43.309  26.160   4.619
 7270W        W80338  23.484  33.146  10.795
 7271W        W80339   7.290  40.433  14.793
 7272W        W80340  38.844  37.963  10.455
 7273W        W80341  41.610   5.318  11.528
 7274W        W80342  44.004  43.400  13.044
 7275W        W80343  38.880  30.644   1.188
 7276W        W80344  28.214  21.607   4.149
 7277W        W80345  10.788  24.679   0.947
 7278W        W80346  37.829  19.513  13.968
 7279W        W80347  13.112  19.766   0.409
 7280W        W80348   5.388   0.877   3.272
 7281W        W80349  18.091  32.395   1.371
 7282W        W80350  44.768  24.564   0.794
 7283W        W80351  25.010  27.282   0.915
 7284W        W80352  15.206  34.314  10.767
 7285W        W80353  34.527  39.971   2.189
 7286W        W80354  14.752  42.173  12.166
 7287W        W80355  20.618  14.819  10.721
 7288W        W80356  25.164  10.668   2.593
 7289W        W80357  25.897  12.145   0.927
 7290W        W80358  37.164  26.544  11.587
 7291W        W80359   6.326   3.357   4.625
 7292W        W80360   0.226  41.320  11.196
 7293W        W80361  16.228  37.882   3.599
 7294W        W80362   9.291  15.765   3.558
 7295W        W80363   7.218  37.035   2.733
 7296W        W80364   7.837  37.588  11.951
 7297W        W80365  17.584  13.082  12.954
 7298W        W80366  41.693  11.590  11.683
 7299W        W80367   0.516  23.116   3.226
 7300W        W80368  21.145  24.963  12.016
 7301W        W80369  11.813  19.000   3.624
 7302W        W80370  43.758  41.970   0.805
 7303W        W80371  15.528  15.628  13.102
 7304W        W80372  18.616  23.884   2.688
 7305W        W80373  22.032  27.659   4.620
 7306W        W80374  41.377  38.950   1.629
 7307W        W80375  40.894  27.446  13.024
 7308W        W80376  22.562  18.135  11.660
 7309W        W80377  23.831  39.419   3.185
 7310W        W80378  21.083   6.437  13.399
 7311W        W80379  33.569  14.015   2.364
 7312W        W80380  25.926   4.449   4.636
 7313W        W80381  36.711   9.715   1.989
 7314W        W80382  15.080  17.565  10.681
 7315W        W80383  36.042  10.262  12.956
 7316W        W80384   3.464  39.219   2.858
 7317W        W80385  19.890   7.788   1.752
 7318W        W80386  11.889  11.824  10.485
 7319W        W80387  24.721  33.251  11.565
 7320W        W80388   0.537  25.474  11.467
 7321W        W80389  38.231  10.830  10.325
 7322W        W80390   9.857  11.402  11.182
 7323W        W80391  11.382  39.831  10.813
 7324W        W80392   6.450   7.061   0.836
 7325W        W80393  41.986  33.017  14.298
 7326W        W80394  41.227  32.872  11.057
 7327W        W80395  31.905   9.116   2.072
 7328W        W80396  30.018  10.056  13.422
 7329W        W80397   7.223  18.113  14.548
 7330W        W80398  18.682  12.369  14.377
 7331W        W80399   5.281  19.301  10.668
 7332W        W80400  43.252   7.907  13.147
 7333W        W80401  30.633  14.168   1.732
 7334W        W80402  18.466   7.296   4.919
 7335W        W80403  26.050  12.299   2.690
 7336W        W80404  30.703  32.349  14.296
 7337W        W80405  15.612  27.098  14.438
 7338W        W80406   2.492   0.536  14.820
 7339W        W80407  40.262  15.653  12.890
 7340W        W80408  31.446  18.333   1.249
 7341W        W80409   1.255  37.983  14.841
 7342W        W80410  18.607  20.972  13.735
 7343W        W80411  37.324  35.531  10.663
 7344W        W80412   8.869  27.659  12.080
 7345W        W80413  23.470  11.354  10.901
 7346W        W80414  33.290   9.487   0.681
 7347W        W80415  22.514   4.615  14.762
 7348W        W80416   6.481  12.675  13.292
 7349W        W80417  27.437  10.263   1.701
 7350W        W80418  35.872  25.075  11.930
 7351W        W80419  38.534  23.650   1.246
 7352W        W80420  22.517   6.260  13.868
 7353W        W80421  20.304  16.094   2.737
 7354W        W80422  33.378  38.783  11.981
 7355W        W80423  11.628  27.010  13.033
 7356W        W80424   9.731   0.269  13.298
 7357W        W80425  37.340   2.738   4.661
 7358W        W80426  32.505  27.194   2.513
 7359W        W80427  12.990  17.367  10.075
 7360W        W80428   3.897  43.450   3.457
 7361W        W80429  30.422  36.209   4.883
 7362W        W80430   9.194  16.635  11.514
 7363W        W80431  22.503  30.718  13.428
 7364W        W80432   0.461  22.677   4.670
 7365W        W80433  25.466  44.287   2.658
 7366W        W80434  36.395  31.397  14.307
 7367W        W80435  39.786  33.096   0.757
 7368W        W80436  18.618  17.793   1.185
 7369W        W80437  11.233  18.708  10.784
 7370W        W80438  13.254  30.811  10.393
 7371W        W80439  17.111  13.124  11.455
 7372W        W80440  22.576  16.971   3.196
 7373W        W80441  19.263  23.116   3.590
 7374W        W80442  15.107  34.051  11.201
 7375W        W80443   6.664  36.910  10.852
 7376W        W80444  13.367  26.015   0.855
 7377W        W80445  19.115  29.838   3.640
 7378W        W80446  22.397  38.499   3.287
 7379W        W80447  39.885   3.260   1.348
 7380W        W80448  21.336  15.326   2.773
 7381W        W80449  32.387  36.721  13.862
 7382W        W80450  20.735   4.819  10.901
 7383W        W80451   5.736  34.612  13.025
 7384W        W80452  23.173  14.234  14.449
 7385W        W80453  17.143  16.767  12.135
 7386W        W80454  11.126  12.434   4.233
 7387W        W80455  19.741   6.824   1.334
 7388W        W80456   0.910  40.550  13.146
 7389W        W80457  13.005  14.597   3.623
 7390W        W80458  37.116  10.412  10.866
 7391W        W80459  30.831  27.611  13.009
 7392W        W80460  33.494  10.660  13.062
 7393W        W80461  12.639  22.093   0.299
 7394W        W80462   4.880  34.615  13.892
 7395W        W80463   1.428   8.477   1.954
 7396W        W80464  32.864  14.723  13.540
 7397W        W80465   7.008  38.406   2.158
 7398W        W80466  42.301   9.818   0.742
 7399W        W80467  31.401  26.571  14.322
 7400W        W80468  20.041  24.091   4.759
 7401W        W80469  13.771   8.377  11.827
 7402W        W80470   4.695   3.832  12.912
 7403W        W80471  44.739  31.397  13.777
 7404W        W80472   9.041  10.200  11.983
 7405W        W80473  20.203  26.685  13.091
 7406W        W80474  16.157  16.392   1.755
 7407W        W80475  36.198  19.678   2.794
 7408W        W80476  31.027   7.387  12.619
 7409W        W80477  23.725  28.629   1.267
 7410W        W80478  16.710  30.148   3.286
 7411W        W80479  10.469   6.343  12.579
 7412W        W80480   8.726   3.943  10.979
 7413W        W80481  30.521  23.037  11.592
 7414W        W80482  31.668  38.203  11.243
 7415W        W80483  27.810  44.455   0.775
 7416W        W80484  27.607  42.868   0.711
 7417W        W80485  26.399  43.080   3.604
 7418W        W80486  12.809  11.760  14.277
 7419W        W80487  23.839  11.477   0.148
 7420W        W80488   6.932  10.222   1.869
 7421W        W80489   9.156  11.248   3.618
 7422W        W80490  23.698  25.053   2.087
 7423W        W80491   0.911  22.739  10.451
 7424W        W80492  43.055  32.954  12.394
 7425W        W80493   7.922  40.843  11.508
 7426W        W80494  26.916  30.573  14.835
 7427W        W80495  15.181  25.224   3.707
 7428W        W80496  14.818  31.487   1.885
 7429W        W80497  21.673  10.506  14.768
 7430W        W80498  15.928  20.420   9.918
 7431W        W80499  21.047  30.401   3.666
 7432W        W80500  18.844   1.844  11.147
 7433W        W80501  33.579  44.725   2.784
 7434W        W80502  32.964  11.092   1.858
 7435W        W80503  30.581  44.739   0.032
 7436W        W80504  10.476  30.938  14.332
 7437W        W80505  27.490  19.813  13.574
 7438W        W80506  38.934  34.706   3.123
 7439W        W80507   6.854  23.589   3.699
 7440W        W80508  43.865  12.618   4.196
 7441W        W80509  21.274  36.111  10.782
 7442W        W80510  23.263  33.764   1.226
 7443W        W80511   6.764  13.238  11.145
 7444W        W80512  44.322  23.787   3.318
 7445W        W80513  17.797  37.847   3.278
 7446W        W80514  43.295  28.696  11.924
 7447W        W80515  40.993  17.180   0.760
 7448W        W80516  21.589  19.780  12.557
 7449W        W80517  11.153  29.452   4.159
 7450W        W80518  19.308  33.951   2.475
 7451W        W80519  27.059  18.136   3.433
 7452W        W80520  11.828  20.541   1.393
 7453W        W80521  40.597  12.391   3.250
 7454W        W80522  17.703   8.014   2.347
 7455W        W80523   7.373  37.581  11.569
 7456W        W80524  25.181  13.788  12.813
 7457W        W80525  16.301  17.316  14.930
 7458W        W80526  12.768  17.069  11.684
 7459W        W80527   8.170  33.193  13.727
 7460W        W80528  44.800  35.925   0.560
 7461W        W80529  33.633  31.505  10.255
 7462W        W80530  44.319  32.588  11.526
 7463W        W80531  36.441  14.588  14.382
 7464W        W80532  30.299  17.552  11.322
 7465W        W80533   1.073  24.756  11.224
 7466W        W80534  38.363  36.832   3.102
 7467W        W80535  10.152  22.254  14.358
 7468W        W80536  40.907  30.021   0.924
 7469W        W80537  43.464  35.560   3.657
 7470W        W80538  43.790  34.914   1.793
 7471W        W80539  10.947  29.024  11.448
 7472W        W80540  26.952  29.986  11.143
 7473W        W80541  28.021  21.520   3.266
 7474W        W80542  37.088   4.923  13.028
 7475W        W80543  41.066   2.737  12.034
 7476W        W80544  31.078  10.085   9.790
 7477W        W80545  12.750  31.865   1.922
 7478W        W80546  34.594  16.517   2.336
 7479W        W80547  25.996  40.520  12.689
 7480W        W80548  38.186  18.068  12.339
 7481W        W80549   6.732  16.284   1.827
 7482W        W80550  44.424  17.419   5.123
 7483W        W80551  17.144  32.054  14.969
 7484W        W80552  34.105  39.395  11.681
 7485W        W80553  29.496   0.474  13.782
 7486W        W80554  44.515  44.858   1.073
 7487W        W80555  42.032   1.720   1.730
 7488W        W80556  34.490  34.404   4.999
 7489W        W80557  38.789  25.014  12.532
 7490W        W80558  10.133  41.293  14.194
 7491W        W80559   6.683   5.542   2.845
 7492W        W80560   0.441  15.575   0.164
 7493W        W80561  32.630   2.690   2.256
 7494W        W80562  33.351  19.349   4.588
 7495W        W80563  44.496  37.559  13.967
 7496W        W80564  32.456  31.129  12.440
 7497W        W80565   3.503  34.113  14.475
 7498W        W80566  16.888  36.869   1.339
 7499W        W80567  15.857  30.937  11.443
 7500W        W80568   5.171  31.527  11.570
 7501W        W80569   6.490  10.838   2.239
 7502W        W80570  41.392  37.417   2.473
 7503W        W80571   4.168  13.166   0.901
 7504W        W80572  34.338   0.834   1.849
 7505W        W80573   6.863  12.402  13.026
 7506W        W80574  30.977   6.957   3.028
 7507W        W80575  27.019  20.839   4.109
 7508W        W80576  18.092  33.074  13.648
 7509W        W80577   2.446   3.978  13.532
 7510W        W80578   6.656   0.498  13.624
 7511W        W80579  18.554  18.558  14.370
 7512W        W80580  12.610  14.311  10.334
 7513W        W80581  34.831  34.631  12.531
 7514W        W80582  15.671  20.730   1.763
 7515W        W80583  31.657   5.797  14.463
 7516W        W80584   7.154  18.274  12.089
 7517W        W80585  23.737  34.215   3.764
 7518W        W80586   8.779   8.331  11.336
 7519W        W80587   0.021  34.134  14.894
 7520W        W80588  17.574  15.307  13.417
 7521W        W80589   2.425  11.125   1.520
 7522W        W80590   3.701  43.720  11.517
 7523W        W80591  16.113  38.946  13.561
 7524W        W80592  39.822  36.988   0.356
 7525W        W80593   1.988  37.276  13.067
 7526W        W80594  27.331  30.482   0.962
 7527W        W80595  34.369   4.311   2.734
 7528W        W80596  27.441  16.665   0.255
 7529W        W80597  43.082  32.607   1.962
 7530W        W80598  16.230  25.568  13.975
 7531W        W80599  12.579  21.039  12.930
 7532W        W80600  18.530  26.071   3.680
 7533W        W80601  22.824   8.131  11.552
 7534W        W80602  20.144  23.557  12.263
 7535W        W80603  29.009   1.643  12.194
 7536W        W80604   9.164   6.708  11.530
 7537W        W80605  23.172  17.045  12.453
 7538W        W80606   6.709  34.339   0.907
 7539W        W80607  42.912  35.146   4.104
 7540W        W80608  18.662  36.725  13.881
 7541W        W80609   5.650  20.068  10.681
 7542W        W80610   9.405  33.127  13.982
 7543W        W80611  39.489   2.047   5.050
 7544W        W80612  36.268  12.591  11.117
 7545W        W80613   7.187  32.890  12.361
 7546W        W80614   5.729  30.369  13.389
 7547W        W80615  20.724  20.371   1.005
 7548W        W80616  18.224  27.479   4.772
 7549W        W80617  34.180  43.003   3.315
 7550W        W80618  40.321  39.546  14.875
 7551W        W80619  34.072  32.989  12.882
 7552W        W80620   4.399   4.797   0.277
 7553W        W80621  40.313  41.598   3.228
 7554W        W80622  12.240   3.704   4.624
 7555W        W80623  15.944   9.804  12.031
 7556W        W80624   8.691  42.630  14.704
 7557W        W80625  35.186  20.158  11.686
 7558W        W80626  35.654   0.267   2.903
 7559W        W80627  20.350  34.376   0.243
 7560W        W80628  36.581   7.168   2.343
 7561W        W80629   8.680   8.888   3.369
 7562W        W80630  32.633  35.482   2.833
 7563W        W80631  29.060  24.665   3.705
 7564W        W80632  30.374  29.501   4.545
 7565W        W80633  35.988   7.368  13.678
 7566W        W80634  36.828  23.512   4.248
 7567W        W80635  13.045   6.891  13.767
 7568W        W80636  17.367  41.510   2.625
 7569W        W80637  10.924  33.384  14.833
 7570W        W80638  26.370  26.651  14.419
 7571W        W80639  33.311   0.887  14.491
 7572W        W80640  21.779  24.592   0.918
 7573W        W80641  26.567   9.314  13.325
 7574W        W80642  31.317  21.714  12.949
 7575W        W80643   4.722  10.176   1.403
 7576W        W80644  19.138  39.768  13.161
 7577W        W80645   0.707  13.374  14.572
 7578W        W80646  17.126  18.062   1.494
 7579W        W80647  23.249  30.044  10.734
 7580W        W80648   9.454  11.740  14.551
 7581W        W80649  42.762  38.997   2.796
 7582W        W80650   8.122  18.704   0.188
 7583W        W80651  17.044  31.206   0.433
 7584W        W80652  41.608  39.540   0.259
 7585W        W80653  11.274  18.760   0.231
 7586W        W80654  25.119  42.799   4.372
 7587W        W80655  26.730  19.608   4.664
 7588W        W80656  41.596  32.169   3.026
 7589W        W80657  39.061   3.790   1.693
 7590W        W80658   7.139  41.203   3.729
 7591W        W80659  33.007  25.970   2.648
 7592W        W80660  39.458  13.640  11.061
 7593W        W80661  38.328  25.862  13.466
 7594W        W80662  19.851  41.179   2.885
 7595W        W80663  25.198  28.167  12.039
 7596W        W80664  28.031  22.048  13.819
 7597W        W80665  23.957   1.837  11.184
 7598W        W80666  33.579  34.015   0.745
 7599W        W80667  24.636   2.876   0.878
 7600W        W80668  12.184  26.481  11.067
 7601W        W80669  16.443  32.492  13.897
 7602W        W80670  23.634  23.346   2.350
 7603W        W80671   3.025   5.377  12.017
 7604W        W80672   0.070  40.749  13.291
 7605W        W80673  43.708  23.104   4.957
 7606W        W80674  27.524  16.695  10.608
 7607W        W80675  24.020  19.732   1.936
 7608W        W80676  37.944  37.532  12.749
 7609W        W80677   5.634  28.582  14.108
 7610W        W80678  32.371  35.657   3.235
 7611W        W80679   6.164  30.898  13.772
 7612W        W80680  24.112   0.840  11.899
 7613W        W80681  14.967  10.955  12.603
 7614W        W80682   3.954  33.996   0.810
 7615W        W80683  35.094  29.534   0.844
 7616W        W80684   8.276  39.428  11.130
 7617W        W80685  33.790  17.500   1.816
 7618W        W80686   5.303  31.902   1.234
 7619W        W80687   7.244  19.030  11.473
 7620W        W80688  40.944   8.374   4.709
 7621W        W80689  22.042  34.873   3.076
 7622W        W80690  24.074  44.356   4.554
 7623W        W80691   8.668  36.754  11.214
 7624W        W80692  39.626  10.917   1.723
 7625W        W80693  23.000  21.147  10.675
 7626W        W80694   4.937  29.707  13.478
 7627W        W80695  41.513  40.877   4.938
 7628W        W80696  28.068  30.663   2.675
 7629W        W80697  20.549  39.349  11.462
 7630W        W80698  19.278  15.283  12.861
 7631W        W80699  26.612  23.544  10.773
 7632W        W80700  35.411  12.562  13.371
 7633W        W80701  31.019  43.791   2.326
 7634W        W80702  15.809  20.557   2.264
 7635W        W80703  15.178   8.425  13.061
 7636W        W80704  41.362  26.925   3.313
 7637W        W80705  15.338  18.175  14.551
 7638W        W80706  17.536   0.719   1.676
 7639W        W80707  40.459   3.603   3.701
 7640W        W80708  24.445  36.305  11.701
 7641W        W80709  31.598  37.480  13.007
 7642W        W80710   9.777  15.829   3.347
 7643W        W80711  29.965  32.577  13.081
 7644W        W80712  10.649  23.736  12.795
 7645W        W80713  14.581  43.041  12.642
 7646W        W80714  13.885   3.507   4.088
 7647W        W80715  21.306  20.723  10.633
 7648W        W80716  18.713  39.025  12.052
 7649W        W80717   6.850   8.699  11.845
 7650W        W80718  18.066  21.045   4.568
 7651W        W80719  29.652  13.879   3.164
 7652W        W80720  16.785  27.803  12.911
 7653W        W80721  23.466  31.949   1.890
 7654W        W80722   1.911  39.951  11.176
 7655W        W80723   8.454  21.211  14.986
 7656W        W80724   5.199  30.539   2.850
 7657W        W80725  30.960  11.318   1.460
 7658W        W80726  37.172   8.899   3.433
 7659W        W80727  19.256  10.028  12.078
 7660W        W80728  15.832  43.421   4.124
 7661W        W80729  17.077  36.839   2.266
 7662W        W80730  30.896  16.581   2.234
 7663W        W80731  26.265  19.167   2.385
 7664W        W80732   7.087  17.617  13.204
 7665W        W80733  25.196  23.182  10.743
 7666W        W80734  17.591  37.516  10.260
 7667W        W80735  14.865  35.110  12.960
 7668W        W80736  42.280  37.919   4.271
 7669W        W80737   0.917  39.270   2.187
 7670W        W80738   5.968   9.240   3.181
 7671W        W80739  26.416  35.492  12.383
 7672W        W80740  33.015  34.118  12.077
 7673W        W80741  24.593  29.385  13.859
 7674W        W80742  28.313   4.220  11.584
 7675W        W80743  37.325   1.873  12.495
 7676W        W80744  10.124  13.760   0.473
 7677W        W80745  10.271  34.613  14.805
 7678W        W80746  31.563  32.362  12.429
 7679W        W80747  44.551  35.111   1.396
 7680W        W80748  28.121  43.484   2.663
 7681W        W80749  27.761   7.902  14.160
 7682W        W80750  13.541  25.345   2.744
 7683W        W80751  42.531  25.443  13.831
 7684W        W80752  41.811  24.013   1.407
 7685W        W80753  28.690  12.880   4.245
 7686W        W80754  20.296  37.848   4.303
 7687W        W80755  26.905  31.343  11.838
 7688W        W80756  35.264   1.826  14.931
 7689W        W80757  21.225  31.576  12.461
 7690W        W80758  34.612  23.161   1.419
 7691W        W80759  44.265   3.453   1.820
 7692W        W80760  32.674  28.405   0.952
 7693W        W80761  29.027  32.571   4.791
 7694W        W80762  40.285  10.327  14.347
 7695W        W80763   7.552  41.071   2.398
 7696W        W80764  38.874  16.833   2.224
 7697W        W80765   9.687  14.599  12.045
 7698W        W80766  32.425  14.244   3.165
 7699W        W80767  26.753  19.515   3.833
 7700W        W80768   8.244  41.597  11.154
 7701W        W80769  12.328  32.922  10.776
 7702W        W80770   2.306  10.179   4.968
 7703W        W80771  40.592  17.114   1.617
 7704W        W80772   7.571   1.913   2.557
 7705W        W80773  11.755  38.381   3.620
 7706W        W80774  26.333  41.569   2.854
 7707W        W80775  37.959  18.222  10.622
 7708W        W80776  27.727  14.735  14.467
 7709W        W80777  25.991  37.315   1.819
 7710W        W80778   0.769  40.938   4.040
 7711W        W80779  17.210  36.804   0.924
 7712W        W80780  11.735   4.302   4.375
 7713W        W80781  19.038  23.002  13.448
 7714W        W80782  28.725  17.590  12.554
 7715W        W80783   0.394  36.189   0.850
 7716W        W80784  28.214  14.696   3.190
 7717W        W80785  24.241  31.620  13.797
 7718W        W80786   6.349   5.447  14.873
 7719W        W80787  43.729  38.720   2.888
 7720W        W80788  40.510  29.038  10.719
 7721W        W80789  23.077  15.197   3.177
 7722W        W80790  36.583  12.339  11.421
 7723W        W80791  17.249  42.337  14.736
 7724W        W80792  40.717  36.949  11.009
 7725W        W80793  25.965  35.858   3.652
 7726W        W80794  13.423  19.579   1.665
 7727W        W80795  30.144  29.027  14.985
 7728W        W80796  41.619  23.996   0.950
 7729W        W80797  33.746  38.282   5.087
 7730W        W80798  44.979   1.475  13.909
 7731W        W80799  41.444  28.795  10.355
 7732W        W80800  40.339  23.181   0.788
 7733W        W80801  20.679   6.222  12.090
 7734W        W80802  33.431   7.772   0.630
 7735W        W80803  37.834  17.114  10.687
 7736W        W80804   5.946  16.027   2.186
 7737W        W80805   6.532  43.817  13.119
 7738W        W80806  38.255  39.431  12.598
 7739W        W80807  13.111  12.241   2.712
 7740W        W80808  11.673  23.012   5.104
 7741W        W80809  24.027   3.059  11.574
 7742W        W80810  25.438  34.935   1.283
 7743W        W80811   9.088  44.250   2.139
 7744W        W80812   0.779  38.600  10.355
 7745W        W80813  11.690  23.437  13.527
 7746W        W80814  14.701  18.067  13.941
 7747W        W80815  10.932   7.903  14.304
 7748W        W80816   1.380   8.087   3.274
 7749W        W80817  33.545  18.833   0.889
 7750W        W80818  43.851   4.131  13.436
 7751W        W80819  41.917  30.541   3.712
 7752W        W80820  23.941   5.861   0.217
 7753W        W80821  16.514  44.186  11.018
 7754W        W80822  24.447  29.883  11.197
 7755W        W80823  38.739   8.997   0.671
 7756W        W80824  39.284  19.585   4.416
 7757W        W80825  15.209  31.781   4.580
 7758W        W80826  26.986  15.842   3.730
 7759W        W80827   7.425  13.938   4.406
 7760W        W80828  44.214  10.102   2.668
 7761W        W80829  32.163  26.714  11.517
 7762W        W80830  34.577  22.496  11.185
 7763W        W80831  35.611   6.435  11.946
 7764W        W80832   1.267  35.057   2.690
 7765W        W80833   3.752  17.700  11.384
 7766W        W80834  43.417  25.539  10.743
 7767W        W80835  14.659  24.005  12.799
 7768W        W80836  32.060  39.277   0.692
 7769W        W80837  42.369   3.171   1.287
 7770W        W80838   5.308  23.753  12.818
 7771W        W80839   4.891  17.765  14.592
 7772W        W80840  34.580  39.357   3.400
 7773W        W80841  27.150  42.060  10.750
 7774W        W80842  11.198  22.844   4.786
 7775W        W80843  23.157  30.431   0.937
 7776W        W80844   7.842  31.667  10.892
 7777W        W80845  28.552  10.471   0.253
 7778W        W80846   7.342  36.058  12.473
 7779W        W80847   2.392   9.808  11.060
 7780W        W80848  42.418  26.831  11.108
 7781W        W80849  30.003   5.050  10.013
 7782W        W80850  25.951  26.433  13.830
 7783W        W80851   6.740  31.897   1.909
 7784W        W80852  35.936  27.049   4.153
 7785W        W80853  19.782  31.090  13.571
 7786W        W80854   2.775  35.635   0.268
 7787W        W80855  41.459  42.605   4.970
 7788W        W80856  10.421  35.690  12.015
 7789W        W80857  20.786  21.260  14.037
 7790W        W80858  44.251  12.844  13.488
 7791W        W80859  17.222   7.947   2.641
 7792W        W80860  21.189  28.555   3.300
 7793W        W80861  14.668  24.212  10.615
 7794W        W80862  16.075  11.141  12.012
 7795W        W80863  42.000  21.159  11.042
 7796W        W80864  15.600  43.246  13.995
 7797W        W80865   3.131  21.370  14.957
 7798W        W80866  28.463   7.707   3.695
 7799W        W80867  36.339  15.738   2.201
 7800W        W80868  37.468  34.429   2.387
 7801W        W80869  21.033  37.190  12.112
 7802W        W80870  40.913  20.185   4.870
 7803W        W80871   0.860  16.131  12.188
 7804W        W80872  35.915  10.607  12.571
 7805W        W80873  24.927  18.335  12.873
 7806W        W80874  23.023  14.393  13.976
 7807W        W80875   4.862  30.959  10.625
 7808W        W80876   8.641  31.178  11.850
 7809W        W80877  34.414   9.871  11.225
 7810W        W80878   5.222   6.954   1.900
 7811W        W80879  41.342  21.191  13.330
 7812W        W80880  31.569  32.186   0.910
 7813W        W80881  12.586  18.012   0.161
 7814W        W80882   4.900  11.339  13.978
 7815W        W80883  23.979   6.665   0.723
 7816W        W80884   3.688   2.810  11.901
 7817W        W80885  40.674  21.905   0.289
 7818W        W80886  38.033  15.066  12.038
 7819W        W80887  17.203  22.281   3.702
 7820W        W80888  18.740  29.238   2.216
 7821W        W80889  19.402  12.100   2.929
 7822W        W80890  35.729  37.524  12.107
 7823W        W80891  42.416   7.385   4.366
 7824W        W80892  18.536  14.974  14.349
 7825W        W80893   9.889  19.047   3.363
 7826W        W80894   0.129  31.959   0.744
 7827W        W80895  23.155  27.943   2.468
 7828W        W80896   1.287  34.800  14.825
 7829W        W80897  26.543  32.064   1.936
 7830W        W80898   7.638  33.422   4.967
 7831W        W80899  26.544   8.724   0.365
 7832W        W80900  40.039   5.181   2.169
 7833W        W80901  30.525   0.542  14.538
 7834W        W80902  16.940  12.284  12.941
 7835W        W80903  35.408  10.348   1.364
 7836W        W80904   7.458  11.940   2.310
 7837W        W80905  14.617  12.217   3.166
 7838W        W80906  26.556  18.714   4.437
 7839W        W80907  11.811  22.764  13.856
 7840W        W80908  21.589   8.502   3.192
 7841W        W80909  22.215   6.554   2.536
 7842W        W80910  38.906  24.210   2.846
 7843W        W80911   7.654  22.231  12.455
 7844W        W80912  36.550   3.619   2.290
 7845W        W80913  27.877  19.821   0.385
 7846W        W80914  12.769  10.408   3.267
 7847W        W80915  37.578  21.995  11.914
 7848W        W80916  20.923   3.845   3.767
 7849W        W80917  31.527   6.644   3.325
 7850W        W80918  28.423  38.108   3.138
 7851W        W80919  11.754  22.261  13.952
 7852W        W80920   5.625  30.643   0.674
 7853W        W80921   0.353  27.179   0.311
 7854W        W80922  18.594   0.697  11.692
 7855W        W80923  13.178  34.353   4.953
 7856W        W80924   8.353   5.906  14.003
 7857W        W80925   4.883   3.364  11.027
 7858W        W80926  20.843  20.721  10.914
 7859W        W80927  38.316  38.387   1.905
 7860W        W80928  35.713  20.956   4.845
 7861W        W80929   4.734  32.608  14.123
 7862W        W80930  10.581  14.187  10.956
 7863W        W80931  24.206  11.322  11.573
 7864W        W80932  40.629   3.258  11.092
 7865W        W80933  30.957  28.921   3.365
 7866W        W80934  18.977  15.632  10.323
 7867W        W80935  21.996  14.250  12.694
 7868W        W80936   7.788  40.061  10.863
 7869W        W80937   8.478  34.142  11.924
 7870W        W80938   4.826  11.596   0.383
 7871W        W80939  31.073  15.865   1.934
 7872W        W80940  20.292  35.421  14.781
 7873W        W80941   1.552   0.388   0.823
 7874W        W80942   0.483  28.507   0.976
 7875W        W80943  12.406  41.582   2.857
 7876W        W80944  38.557  15.637  11.181
 7877W        W80945  43.886   3.270  11.584
 7878W        W80946   3.290  23.406   2.688
 7879W        W80947  17.293  33.896   0.756
 7880W        W80948  41.075  34.039  10.466
 7881W        W80949   8.643  44.374   4.679
 7882W        W80950  37.980   9.480   4.504
 7883W        W80951   8.818   4.828   4.984
 7884W        W80952  26.828  10.441  13.964
 7885W        W80953  22.562  37.123  11.391
 7886W        W80954  18.021  35.585   3.061
 7887W        W80955   7.208  27.954  12.364
 7888W        W80956   8.285   0.565   0.762
 7889W        W80957  39.170  27.974  12.544
 7890W        W80958  17.515  36.677  11.476
 7891W        W80959  19.637  19.342   3.782
 7892W        W80960  19.426  42.991  14.887
 7893W        W80961  34.077  36.763   0.420
 7894W        W80962   4.787  35.072   4.574
 7895W        W80963   0.392  14.900  14.358
 7896W        W80964  42.981   5.893   2.341
 7897W        W80965  24.676  24.598   1.456
 7898W        W80966  18.890  41.532   0.921
 7899W        W80967  38.415  41.695   3.957
 7900W        W80968   2.516   9.771   1.265
 7901W        W80969  11.039   7.519  10.962
 7902W        W80970   2.256  41.754   0.811
 7903W        W80971  39.905   3.717  14.772
 7904W        W80972  42.370  20.704  12.427
 7905W        W80973   3.811  24.212   4.794
 7906W        W80974  19.472  11.212  13.987
 7907W        W80975   8.050  30.841  11.112
 7908W        W80976  44.468  39.932   4.183
 7909W        W80977  18.303   9.328  13.943
 7910W        W80978  25.215   8.413   0.480
 7911W        W80979  35.021  18.770  10.715
 7912W        W80980  11.490  29.636   1.894
 7913W        W80981   9.704  20.991   4.594
 7914W        W80982   1.768  16.738   0.243
 7915W        W80983  42.436  20.507   1.043
 7916W        W80984   7.424   7.193   3.071
 7917W        W80985   4.473   7.855  12.046
 7918W        W80986  13.780  43.137   1.302
 7919W        W80987  39.899  37.932   2.930
 7920W        W80988   1.351  15.805   4.127
 7921W        W80989  30.234  37.195  14.356
 7922W        W80990  34.331  36.053  14.047
 7923W        W80991  15.512  28.974   0.624
 7924W        W80992  40.006  18.768   2.350
 7925W        W80993  36.056  20.507   1.781
 7926W        W80994  27.838  29.251   4.713
 7927W        W80995  14.545   0.885  12.537
 7928W        W80996  25.413  15.546   1.396
 7929W        W80997  43.472   6.260  11.559
 7930W        W80998  11.853  41.702  14.343
 7931W        W80999   2.756   4.557   2.355
 7932W        W81000  36.463  29.003   0.909
 7933W        W81001  44.339  24.509   4.075
 7934W        W81002  25.417  40.775   0.400
 7935W        W81003  28.591  13.543   1.336
 7936W        W81004  26.215  13.434  14.806
 7937W        W81005  13.312  23.235   1.460
 7938W        W81006  32.394  44.423  10.683
 7939W        W81007   9.714   1.194  13.793
 7940W        W81008  23.494  30.388   3.202
 7941W        W81009   7.941  35.286  13.820
 7942W        W81010   4.368  13.392   3.095
 7943W        W81011  25.386   0.780   0.334
 7944W        W81012  16.142  17.323   2.866
 7945W        W81013   4.486  24.712   4.242
 7946W        W81014  38.089  24.383  13.808
 7947W        W81015  43.671  37.122   3.869
 7948W        W81016  33.487  14.312  13.031
 7949W        W81017  11.343  30.178   1.322
 7950W        W81018  29.522  10.676  13.641
 7951W        W81019  35.330  22.003   0.303
 7952W        W81020  17.219  20.586  10.366
 7953W        W81021   5.147  38.632   3.238
 7954W        W81022   7.822  37.555  14.806
 7955W        W81023  15.712  43.393   2.104
 7956W        W81024  32.943  21.806  13.516
 7957W        W81025  15.884   2.356   4.244
 7958W        W81026  22.750  44.216   1.822
 7959W        W81027  33.007  24.197  12.673
 7960W        W81028   1.680  21.004   0.901
 7961W        W81029  15.309  35.031  14.776
 7962W        W81030   1.857  40.510  11.091
 7963W        W81031  13.580  16.338  13.818
 7964W        W81032  40.802  11.753   2.291
 7965W        W81033  42.698  43.686  13.183
 7966W        W81034  32.127  31.934   3.590
 7967W        W81035   4.196  13.838  10.684
 7968W        W81036  26.049  24.106  12.840
 7969W        W81037  38.424   8.622  10.456
 7970W        W81038  44.846   1.353   1.699
 7971W        W81039   7.127   2.649  14.485
 7972W        W81040  34.502  37.838   4.902
 7973W        W81041  10.143   3.492  12.021
 7974W        W81042  36.001  20.287  11.600
 7975W        W81043  27.115  14.346  10.768
 7976W        W81044  20.757   4.796  13.894
 7977W        W81045   5.089  32.617   0.027
 7978W        W81046  14.982  43.838  12.736
 7979W        W81047  36.428  16.209   2.410
 7980W        W81048  44.341  40.348  12.147
 7981W        W81049  16.282  12.095  10.885
 7982W        W81050  17.029  34.475  14.444
 7983W        W81051   0.253  19.870   2.812
 7984W        W81052  12.575  19.885  12.230
 7985W        W81053  39.451  27.929   1.884
 7986W        W81054   2.246   6.808  12.398
 7987W        W81055  17.573  20.345   1.239
 7988W        W81056  31.780  10.217  11.696
 7989W        W81057   6.740  40.689  11.557
 7990W        W81058  34.324  25.534  12.535
 7991W        W81059  17.994  22.023  12.203
 7992W        W81060  44.283   2.391   2.292
 7993W        W81061  19.699  39.505   1.371
 7994W        W81062  38.890   8.004  10.064
 7995W        W81063  23.408  10.242   0.140
 7996W        W81064   2.216  17.916   4.027
 7997W        W81065  26.984   9.023  11.148
 7998W        W81066  40.465  28.104   1.471
 7999W        W81067   4.752  10.304  13.521
 8000W        W81068  40.309  15.770   4.649
 8001W        W81069  11.040  33.369  11.956
 8002W        W81070  36.656   0.269  10.549
 8003W        W81071  35.659  20.306  14.017
 8004W        W81072  41.061   7.731   2.626
 8005W        W81073  19.133  28.493   4.186
 8006W        W81074  44.854   1.609  14.884
 8007W        W81075  17.657  41.019  12.139
 8008W        W81076  18.897  19.247  11.018
 8009W        W81077  15.113  40.260   2.766
 8010W        W81078  10.894  11.830  10.711
 8011W        W81079  17.175  41.484  10.147
 8012W        W81080  28.310   9.603  12.407
 8013W        W81081  30.013  39.094   1.967
 8014W        W81082  43.963  17.264  12.561
 8015W        W81083  30.731  39.320  14.043
 8016W        W81084   6.133  18.641   2.309
 8017W        W81085  38.883  30.507  14.230
 8018W        W81086  25.906  44.765  12.944
 8019W        W81087  41.582  17.369  13.448
 8020W        W81088   1.206  24.030   2.813
 8021W        W81089   9.766  15.376   4.270
 8022W        W81090  40.684  30.012   1.467
 8023W        W81091  22.462  18.689  14.347
 8024W        W81092  33.817   8.801   4.080
 8025W        W81093  36.034  11.087   3.680
 8026W        W81094   6.843  21.783  12.851
 8027W        W81095  29.094   0.277   2.454
 8028W        W81096  37.941  15.735   4.121
 8029W        W81097  11.285  27.600   0.927
 8030W        W81098   8.252  14.432   2.204
 8031W        W81099  19.160  25.574  10.767
 8032W        W81100  17.031  27.601  11.649
 8033W        W81101  42.253  41.561  12.957
 8034W        W81102  29.841  44.992  14.885
 8035W        W81103  44.978   9.445   3.610
 8036W        W81104   5.971   8.729  11.655
 8037W        W81105  24.698  41.450   2.361
 8038W        W81106  13.418  44.348   2.278
 8039W        W81107   3.324  28.083   0.136
 8040W        W81108  19.569  23.555  10.324
 8041W        W81109  42.741  23.613   2.453
 8042W        W81110  35.119  25.754  11.216
 8043W        W81111  14.818  28.047  14.742
 8044W        W81112  43.468  28.548   2.183
 8045W        W81113  33.797  31.923   1.411
 8046W        W81114  39.307  21.139   0.906
 8047W        W81115   5.005  13.501  11.045
 8048W        W81116  21.797  27.061   0.015
 8049W        W81117  12.687  43.725   3.288
 8050W        W81118   1.589   4.278   0.604
 8051W        W81119  31.966  35.319   2.350
 8052W        W81120  42.669  39.384  14.706
 8053W        W81121   7.441  34.558   0.471
 8054W        W81122  18.237  24.825  11.170
 8055W        W81123  30.942  33.034  10.760
 8056W        W81124   1.619  32.835   4.545
 8057W        W81125  39.388  20.520   1.791
 8058W        W81126  33.276  11.302  10.713
 8059W        W81127   8.251  16.779  13.118
 8060W        W81128   1.981   7.178  13.450
 8061W        W81129  37.141  35.520   1.653
 8062W        W81130  24.028   7.731  11.193
 8063W        W81131  37.286  41.023  10.750
 8064W        W81132  42.822  18.154  14.751
 8065W        W81133  32.209  37.457   0.912
 8066W        W81134  12.495  32.281   1.272
 8067W        W81135  39.129  42.891   0.735
 8068W        W81136  30.691   5.268   2.310
 8069W        W81137  16.190   4.863   4.561
 8070W        W81138   7.891  14.353  11.488
 8071W        W81139   6.316   1.494  11.137
 8072W        W81140  15.534   6.470  12.020
 8073W        W81141  11.536  33.369   4.257
 8074W        W81142  12.772  16.307  11.978
 8075W        W81143  12.851  12.428   3.119
 8076W        W81144  32.982  28.545  11.155
 8077W        W81145  28.368   2.587  11.149
 8078W        W81146  24.445  21.621  13.322
 8079W        W81147  42.040  38.736  12.612
 8080W        W81148  18.572  26.023   1.551
 8081W        W81149  34.719  29.139  10.710
 8082W        W81150  41.707  26.541   0.280
 8083W        W81151  44.968  31.854  11.285
 8084W        W81152  14.142   8.668   0.973
 8085W        W81153  18.756  41.917   2.587
 8086W        W81154  35.474  33.715  11.947
 8087W        W81155  17.552  16.240  10.988
 8088W        W81156  41.360  26.527   2.243
 8089W        W81157  28.902  44.615   0.784
 8090W        W81158  10.854  34.454   2.224
 8091W        W81159  35.377  35.801  13.083
 8092W        W81160  40.425  32.114   3.872
 8093W        W81161  20.635  22.237  14.955
 8094W        W81162   3.830  31.958   0.190
 8095W        W81163   9.559  26.299  10.753
 8096W        W81164  15.234   2.965   1.258
 8097W        W81165   8.665  14.534   3.056
 8098W        W81166  40.078  41.891   2.789
 8099W        W81167   7.131  18.714   2.485
 8100W        W81168  35.419  43.761   1.816
 8101W        W81169   8.792  22.879   4.355
 8102W        W81170   1.707   1.542  13.515
 8103W        W81171  39.926  31.543  14.413
 8104W        W81172  38.400   1.348  12.905
 8105W        W81173  10.795  20.071  10.325
 8106W        W81174  42.029  33.683  10.293
 8107W        W81175   3.741  44.412   4.380
 8108W        W81176  27.173   8.801  12.506
 8109W        W81177   8.339  29.214   3.294
 8110W        W81178  15.085  29.474  13.263
 8111W        W81179  18.175  26.450  14.982
 8112W        W81180  13.537  14.704  12.004
 8113W        W81181  20.527  28.018   2.110
 8114W        W81182  40.088  44.925   4.448
 8115W        W81183  12.751  25.013  11.505
 8116W        W81184  18.994   2.863   1.658
 8117W        W81185  15.159   6.162   1.706
 8118W        W81186  17.704  34.757  12.905
 8119W        W81187  17.027   8.127   4.044
 8120W        W81188  34.547  11.139  10.563
 8121W        W81189   6.138  27.022   3.643
 8122W        W81190  17.062  39.703  12.573
 8123W        W81191  26.535  21.314   5.274
 8124W        W81192   2.500  35.602  14.612
 8125W        W81193  15.889  17.144  14.572
 8126W        W81194  11.671  28.379  14.461
 8127W        W81195  16.679  23.301  12.435
 8128W        W81196  10.343  37.939  13.486
 8129W        W81197   7.449  28.850   2.978
 8130W        W81198  39.025  39.578   2.180
 8131W        W81199  31.541  19.994  14.211
 8132W        W81200  22.585  17.027  13.067
 8133W        W81201  11.991   2.120   4.186
 8134W        W81202  30.158  26.237   0.423
 8135W        W81203  43.529  39.876   0.618
 8136W        W81204  38.617  32.479   2.198
 8137W        W81205  22.973  32.418   3.624
 8138W        W81206   2.794   8.305   1.899
 8139W        W81207   9.399  18.603  10.484
 8140W        W81208  34.099   9.857   4.122
 8141W        W81209  37.336  31.176   3.466
 8142W        W81210  31.779  10.297   0.310
 8143W        W81211  18.539  14.039   2.014
 8144W        W81212  41.207   6.884  13.546
 8145W        W81213  31.381  10.911   2.198
 8146W        W81214   8.318  22.070   4.190
 8147W        W81215  37.508  12.326   2.827
 8148W        W81216  34.503  10.101  13.041
 8149W        W81217  26.398  27.990  12.931
 8150W        W81218  41.111  43.437   4.564
 8151W        W81219  10.028  36.975  11.426
 8152W        W81220  10.249  36.502  11.669
 8153W        W81221  34.983  15.028   0.879
 8154W        W81222   1.131  20.271   3.238
 8155W        W81223   4.369  26.701   0.803
 8156W        W81224  11.135  42.035   1.685
 8157W        W81225   0.019  44.937  12.507
 8158W        W81226  18.649  32.870  12.408
 8159W        W81227   0.204  13.759   4.719
 8160W        W81228  20.757  19.343  13.525
 8161W        W81229  26.206  25.077  12.539
 8162W        W81230  37.491  33.915   3.715
 8163W        W81231  31.364  44.669  11.059
 8164W        W81232   1.411  27.375  12.459
 8165W        W81233  29.921   4.028   0.660
 8166W        W81234  25.297  33.063   2.659
 8167W        W81235   9.706   4.734   4.521
 8168W        W81236  22.214   7.285  14.442
 8169W        W81237  23.980   4.748  14.341
 8170W        W81238   6.431  11.137  13.905
 8171W        W81239  31.630   6.793   4.651
 8172W        W81240   0.526   7.305   2.632
 8173W        W81241   3.673   6.005   0.867
 8174W        W81242   3.236  16.186  14.799
 8175W        W81243  27.453  35.305  14.007
 8176W        W81244   9.454  19.170   2.410
 8177W        W81245  11.269  16.530   3.646
 8178W        W81246  15.785  31.618  10.685
 8179W        W81247  27.131  32.560  13.955
 8180W        W81248  17.712   1.455   2.249
 8181W        W81249   9.342  18.119  12.433
 8182W        W81250   3.386  33.836  14.912
 8183W        W81251  33.627  13.038  12.597
 8184W        W81252  13.816   0.283   3.223
 8185W        W81253  38.392  32.106  13.027
 8186W        W81254  28.609  44.672   0.368
 8187W        W81255  34.057  13.133   0.391
 8188W        W81256  14.818  20.285   1.519
 8189W        W81257  40.969  19.814  14.547
 8190W        W81258   5.326  28.405   3.766
 8191W        W81259  13.330  27.577  14.212
 8192W        W81260  32.710  40.071  13.656
 8193W        W81261  14.236   3.657  10.758
 8194W        W81262  22.040  23.492   1.730
 8195W        W81263  23.058  19.527  13.041
 8196W        W81264  26.882   3.430   1.331
 8197W        W81265  29.161  20.313   4.578
 8198W        W81266   7.531  33.403  10.284
 8199W        W81267  10.208  27.974   1.502
 8200W        W81268  32.579  37.161  11.569
 8201W        W81269   7.388   0.877  10.609
 8202W        W81270  30.177  16.327  12.940
 8203W        W81271   3.133   5.827   4.517
 8204W        W81272  20.159  22.526  13.760
 8205W        W81273  35.948   6.934  13.405
 8206W        W81274   2.940  38.910   4.861
 8207W        W81275  14.284  17.291   4.350
 8208W        W81276  31.078  41.074  14.581
 8209W        W81277  29.690  38.414  13.664
 8210W        W81278   6.296   9.075   2.220
 8211W        W81279  39.463  38.563   3.716
 8212W        W81280  14.237  24.714   0.885
 8213W        W81281   6.038  41.000  11.697
 8214W        W81282  21.470  29.157  12.539
 8215W        W81283  19.337   7.678   1.881
 8216W        W81284  17.050  13.653   1.210
 8217W        W81285  10.051   0.041   2.684
 8218W        W81286  20.023  21.685  13.332
 8219W        W81287  19.810  39.480  10.227
 8220W        W81288  17.653   7.630  14.896
 8221W        W81289  36.264  33.152  13.098
 8222W        W81290  11.426  29.587   4.558
 8223W        W81291  25.430  20.668   3.154
 8224W        W81292  30.392  34.286  12.456
 8225W        W81293  41.857  36.868   0.942
 8226W        W81294  23.111  36.303   1.486
 8227W        W81295  12.809  10.702   4.497
 8228W        W81296  37.753  19.736   1.782
 8229W        W81297  29.892   2.463   1.230
 8230W        W81298  41.525   3.924   0.873
 8231W        W81299  12.790  27.268  13.475
 8232W        W81300  21.768   9.670   3.566
 8233W        W81301  42.422  21.976  11.006
 8234W        W81302  23.973  13.882   0.315
 8235W        W81303  17.966  33.632   3.760
 8236W        W81304   0.814  28.173  14.781
 8237W        W81305  29.122  29.133   1.405
 8238W        W81306  33.016   3.198   3.937
 8239W        W81307   1.877  26.507  12.484
 8240W        W81308  33.047   3.178   4.439
 8241W        W81309  31.820  42.163   2.833
 8242W        W81310  15.110   7.881   4.889
 8243W        W81311  12.736  12.626  12.659
 8244W        W81312  39.556  35.651   4.578
 8245W        W81313  21.605  41.175  14.786
 8246W        W81314  29.552  10.138   0.498
 8247W        W81315  24.756  38.891  10.091
 8248W        W81316   7.273   9.073   2.221
 8249W        W81317  41.822  30.325  11.927
 8250W        W81318  13.738  13.668  11.147
 8251W        W81319  16.838  39.152   0.720
 8252W        W81320  12.275  40.357  13.533
 8253W        W81321  13.637   0.546  14.610
 8254W        W81322  35.505  38.597   3.772
 8255W        W81323  15.853  18.383  11.206
 8256W        W81324  10.625  37.996   3.789
 8257W        W81325   1.294  43.564   0.069
 8258W        W81326  31.618   7.799   4.505
 8259W        W81327   1.397  24.654   4.253
 8260W        W81328  21.095  41.291   2.845
 8261W        W81329  24.994   2.688   4.129
 8262W        W81330  21.435  29.602  10.744
 8263W        W81331  25.142   6.134   1.213
 8264W        W81332  13.170  32.470  12.227
 8265W        W81333   4.818   7.219   9.832
 8266W        W81334  26.564  16.542  11.209
 8267W        W81335  43.929   0.142   4.663
 8268W        W81336  12.788  30.380   4.636
 8269W        W81337   0.046  22.444  13.367
 8270W        W81338  26.692  14.034   2.369
 8271W        W81339  36.760  37.355  12.222
 8272W        W81340  18.334  13.681  10.868
 8273W        W81341  18.064  18.053   1.466
 8274W        W81342  14.144  23.066   4.826
 8275W        W81343   7.962  27.552   3.420
 8276W        W81344  39.402  18.491  13.341
 8277W        W81345  26.522  26.255   4.242
 8278W        W81346  14.742  37.535   0.742
 8279W        W81347   2.724  15.817  11.199
 8280W        W81348  25.702  36.913  13.480
 8281W        W81349  42.290  15.165   2.311
 8282W        W81350  19.115  19.354   2.153
 8283W        W81351  31.290  35.153  14.442
 8284W        W81352  38.664   4.734   4.085
 8285W        W81353  39.135   4.222   2.866
 8286W        W81354  43.806  36.048  10.636
 8287W        W81355  12.218   0.081  13.829
 8288W        W81356  15.163  11.802  13.006
 8289W        W81357  44.772  24.323   2.890
 8290W        W81358  21.140   6.324  12.884
 8291W        W81359  28.965  42.777  12.925
 8292W        W81360  20.045  20.028  12.027
 8293W        W81361   3.470   6.426   4.067
 8294W        W81362  28.114  28.876  11.190
 8295W        W81363  10.393  36.973   3.333
 8296W        W81364  12.179  36.465  14.557
 8297W        W81365  23.966  24.506   1.941
 8298W        W81366   0.863   0.077  14.554
 8299W        W81367  25.944  17.212   2.132
 8300W        W81368  19.222  16.939   1.977
 8301W        W81369   7.681  11.547   2.805
 8302W        W81370  33.792   8.114  13.060
 8303W        W81371   3.758  24.628   0.005
 8304W        W81372  30.280  24.953  14.543
 8305W        W81373  29.293  41.680   1.002
 8306W        W81374   8.177  13.750   2.014
 8307W        W81375  42.521  28.665  13.266
 8308W        W81376  25.503  12.818  10.902
 8309W        W81377  42.397  41.882  12.588
 8310W        W81378  23.184  34.633  11.904
 8311W        W81379  41.592  26.295   2.636
 8312W        W81380  32.623  14.176   2.684
 8313W        W81381  36.326  22.062  10.688
 8314W        W81382  29.547  20.323   0.819
 8315W        W81383  18.854   9.122  14.431
 8316W        W81384   5.302   3.189  13.489
 8317W        W81385   9.855  24.196  13.007
 8318W        W81386  31.239  35.986   4.750
 8319W        W81387  10.922   4.391   2.316
 8320W        W81388  28.413  40.368  14.804
 8321W        W81389   6.446  23.559  12.883
 8322W        W81390  12.124  36.904   3.752
 8323W        W81391   5.206  39.926  13.363
 8324W        W81392  27.106   8.414   4.371
 8325W        W81393  21.643  34.796   0.391
 8326W        W81394   9.007  32.635   4.625
 8327W        W81395  29.830  22.894   2.169
 8328W        W81396  44.373  41.414   2.062
 8329W        W81397  23.450   1.511  12.053
 8330W        W81398   9.756   6.426   1.022
 8331W        W81399  30.907  33.367   1.973
 8332W        W81400  25.526  28.987  11.433
 8333W        W81401  14.591  19.174  12.164
 8334W        W81402  44.780  17.809   2.161
 8335W        W81403  15.350  21.248   0.691
 8336W        W81404   5.347  14.825   0.911
 8337W        W81405  14.376  10.708  11.239
 8338W        W81406  26.709   3.985   2.206
 8339W        W81407  10.604  23.220  12.871
 8340W        W81408  34.779  33.522  12.984
 8341W        W81409  31.434  29.080   1.013
 8342W        W81410  15.718  21.110  10.684
 8343W        W81411  14.715  27.698  13.864
 8344W        W81412  30.157   1.230   4.533
 8345W        W81413  10.581  35.700  12.603
 8346W        W81414  34.324   1.960  10.679
 8347W        W81415   0.212   0.842  11.441
 8348W        W81416   6.637  10.720   2.728
 8349W        W81417   2.470   2.894   1.799
 8350W        W81418  28.519  22.216   2.161
 8351W        W81419  32.993   3.378  13.904
 8352W        W81420  32.423  16.304   4.695
 8353W        W81421  32.951  14.060  12.989
 8354W        W81422   4.323  36.357  13.778
 8355W        W81423   7.938  42.486   3.768
 8356W        W81424  13.291  24.576   1.797
 8357W        W81425   6.934  25.086   0.855
 8358W        W81426  13.908  10.515  11.295
 8359W        W81427  40.676  40.472   1.750
 8360W        W81428  40.025  15.443   3.625
 8361W        W81429  40.119  18.250  10.294
 8362W        W81430  31.187  13.099   4.642
 8363W        W81431  21.677  15.756   1.929
 8364W        W81432  41.040  22.495   4.628
 8365W        W81433  17.792  32.833  11.150
 8366W        W81434  36.862  39.364   3.748
 8367W        W81435  18.679  36.802  12.410
 8368W        W81436  13.076   5.885   1.434
 8369W        W81437   6.312   0.999   0.896
 8370W        W81438  23.810  31.941   2.727
 8371W        W81439  36.817  20.361  10.854
 8372W        W81440   1.867   1.836  13.999
 8373W        W81441   6.249  43.902   0.929
 8374W        W81442  17.746  15.261   3.202
 8375W        W81443   0.357   1.314   3.977
 8376W        W81444  16.063  23.124   2.882
 8377W        W81445  40.695   8.281  13.269
 8378W        W81446  41.863   2.375   5.032
 8379W        W81447  40.539   2.425  12.890
 8380W        W81448   6.925  22.507  12.114
 8381W        W81449  15.879  41.709   2.347
 8382W        W81450  15.615  11.895  13.854
 8383W        W81451  13.451  30.142   2.471
 8384W        W81452  26.523  20.301  13.957
 8385W        W81453  35.519   6.808  11.179
 8386W        W81454   0.476  16.346  13.824
 8387W        W81455  32.375  35.645   4.136
 8388W        W81456  39.064  10.206   1.713
 8389W        W81457  28.454  39.503   0.434
 8390W        W81458  30.740  11.591  11.972
 8391W        W81459  10.957   7.251  14.834
 8392W        W81460  14.071  40.901   4.276
 8393W        W81461  35.569  31.139   5.070
 8394W        W81462  24.758  31.420   2.428
 8395W        W81463   7.693  42.801  14.340
 8396W        W81464   9.658  21.501   3.817
 8397W        W81465  35.398  36.931  11.853
 8398W        W81466  44.091  42.765   2.742
 8399W        W81467  43.314  18.203  12.873
 8400W        W81468  34.452  44.464  13.518
 8401W        W81469  12.094  35.583   2.777
 8402W        W81470  32.374  12.591   2.226
 8403W        W81471  39.602  36.453  11.888
 8404W        W81472  30.469  37.055   1.466
 8405W        W81473  32.362  36.570   3.249
 8406W        W81474   7.607  11.944  13.979
 8407W        W81475  10.240  44.858  11.717
 8408W        W81476  16.361  28.607   4.588
 8409W        W81477  18.682  12.766  12.582
 8410W        W81478   5.374  24.151   1.770
 8411W        W81479  32.859   5.798   1.705
 8412W        W81480  12.097  44.844   1.764
 8413W        W81481   0.555  40.358   1.897
 8414W        W81482  37.079  41.336   0.054
 8415W        W81483  34.648  12.051  12.952
 8416W        W81484  42.346  36.174  12.029
 8417W        W81485  40.826  24.104   4.632
 8418W        W81486  18.632   3.801  10.750
 8419W        W81487  29.100  12.728  13.990
 8420W        W81488  39.943  12.011  14.780
 8421W        W81489  42.908  25.636  13.519
 8422W        W81490  33.445  36.975  11.140
 8423W        W81491  15.991  39.519  14.263
 8424W        W81492  30.365   9.403  11.400
 8425W        W81493   5.136  13.545  13.885
 8426W        W81494  26.085  41.836  13.091
 8427W        W81495  12.051   2.453  10.734
 8428W        W81496  36.362  31.935  11.976
 8429W        W81497  21.797  20.818   4.395
 8430W        W81498  20.975  29.427   1.388
 8431W        W81499   2.444  19.673  13.019
 8432W        W81500  15.654  15.212  11.237
 8433W        W81501  18.895   7.413  10.269
 8434W        W81502  33.053   0.141   1.556
 8435W        W81503  40.361  40.236  14.373
 8436W        W81504   2.746   1.840   4.953
 8437W        W81505  28.409  32.167   4.267
 8438W        W81506  36.793  37.970  10.713
 8439W        W81507  22.532  30.227   4.145
 8440W        W81508   4.320  16.625   2.396
 8441W        W81509  25.898   8.777  10.351
 8442W        W81510  21.645  29.027   2.684
 8443W        W81511  40.023  23.541   4.336
 8444W        W81512   5.357   1.518   2.707
 8445W        W81513  26.991  33.255  13.004
 8446W        W81514   6.340  43.725  13.585
 8447W        W81515  40.369  14.694   3.584
 8448W        W81516  28.777  25.699  13.938
 8449W        W81517  42.297   1.495  11.182
 8450W        W81518   2.945  19.660  13.153
 8451W        W81519   4.282  30.956   1.795
 8452W        W81520  39.822   3.044  13.444
 8453W        W81521  19.782  41.598   5.033
 8454W        W81522   1.727  28.314  12.853
 8455W        W81523  20.784  32.606   3.344
 8456W        W81524  17.520  42.918  11.679
 8457W        W81525   3.441  34.036   3.177
 8458W        W81526  16.358  32.474  14.919
 8459W        W81527  16.836  28.440   3.525
 8460W        W81528   4.981  42.783   0.948
 8461W        W81529  31.597  23.289   4.244
 8462W        W81530  21.781   2.214  14.778
 8463W        W81531  34.070  37.977   2.988
 8464W        W81532   3.649  15.122  12.962
 8465W        W81533   7.182  29.175   0.662
 8466W        W81534  12.579   5.499  14.538
 8467W        W81535  28.796  28.527  13.917
 8468W        W81536  22.432  40.466  11.597
 8469W        W81537  42.306  42.934   4.082
 8470W        W81538   3.720  24.381  14.345
 8471W        W81539   1.452  15.646  10.610
 8472W        W81540   5.313  26.501   3.636
 8473W        W81541  20.577  12.121   2.401
 8474W        W81542  31.971  26.044  12.156
 8475W        W81543   2.193  36.445   0.455
 8476W        W81544  30.674   8.304   1.265
 8477W        W81545  17.147  40.803   3.324
 8478W        W81546  38.490  27.888  11.616
 8479W        W81547  19.183  27.226   4.507
 8480W        W81548  16.466  11.777   4.632
 8481W        W81549  28.558  20.027  13.983
 8482W        W81550  28.352  21.150   5.080
 8483W        W81551  35.626   6.945   1.475
 8484W        W81552   9.829  28.832  10.973
 8485W        W81553  39.221  13.858   5.003
 8486W        W81554   8.038  35.093  12.630
 8487W        W81555  27.138   2.393   3.813
 8488W        W81556  24.619  28.088  12.523
 8489W        W81557   8.992  34.587  10.870
 8490W        W81558  44.779  15.087   0.955
 8491W        W81559  25.752  22.166   4.290
 8492W        W81560  16.371  41.683   1.668
 8493W        W81561   5.764   0.768  14.029
 8494W        W81562  23.886  26.515   4.297
 8495W        W81563   2.866  36.410  13.354
 8496W        W81564  16.777  15.536  13.523
 8497W        W81565   8.639  21.711   3.259
 8498W        W81566  38.881   6.362  13.772
 8499W        W81567  37.000  43.332   1.735
 8500W        W81568  41.175  12.756   0.520
 8501W        W81569  38.755  25.909   3.287
 8502W        W81570  23.232  37.049   0.719
 8503W        W81571  43.973  31.200   1.008
 8504W        W81572  41.308  22.720   0.978
 8505W        W81573   5.620  26.679  11.523
 8506W        W81574  42.951  30.407   0.367
 8507W        W81575   3.177  43.896  13.352
 8508W        W81576  28.393   4.437   0.837
 8509W        W81577  15.132  24.975  11.635
 8510W        W81578   3.299  28.380   1.492
 8511W        W81579   1.804  41.597   4.024
 8512W        W81580   5.240   1.523   1.674
 8513W        W81581  29.456  43.034   2.852
 8514W        W81582  13.313  43.435  13.034
 8515W        W81583  39.873  18.048  14.087
 8516W        W81584  41.324  12.539   4.740
 8517W        W81585  41.406   1.626   4.192
 8518W        W81586  33.777  43.911   1.780
 8519W        W81587  30.462   2.949   1.889
 8520W        W81588  30.317  29.521   3.763
 8521W        W81589   5.891  32.434   0.942
 8522W        W81590  19.046  41.927  14.982
 8523W        W81591  32.428   9.670  10.731
 8524W        W81592  25.802  32.357   1.447
 8525W        W81593   5.658  20.057  12.833
 8526W        W81594  11.762  40.298   1.806
 8527W        W81595  41.241  42.510   1.314
 8528W        W81596  19.238  18.024   1.658
 8529W        W81597  13.316  32.331  14.236
 8530W        W81598  27.665   3.913   3.937
 8531W        W81599  39.213  34.155  11.143
 8532W        W81600   2.952  24.207  14.932
 8533W        W81601  20.588   6.143  11.582
 8534W        W81602   9.662  11.367   0.734
 8535W        W81603  25.931   5.957  13.504
 8536W        W81604  14.579   4.820  10.750
 8537W        W81605  40.250  43.887  11.241
 8538W        W81606  12.372  32.793   1.456
 8539W        W81607  22.117   2.142   4.160
 8540W        W81608  30.261  31.891   0.396
 8541W        W81609  27.001  29.718  10.693
 8542W        W81610  30.628  43.169   4.338
 8543W        W81611  24.145   2.211   3.841
 8544W        W81612  12.317   0.885   1.036
 8545W        W81613  12.652  20.476   4.461
 8546W        W81614  44.936  12.164  12.541
 8547W        W81615  12.464  17.837   1.915
 8548W        W81616  34.078  12.631   0.210
 8549W        W81617   7.238  15.023   0.878
 8550W        W81618  20.000  28.330   0.243
 8551W        W81619  27.662   8.812  10.745
 8552W        W81620   2.175  27.970   3.216
 8553W        W81621  35.574   2.341   0.989
 8554W        W81622  35.564  31.546   2.899
 8555W        W81623  24.140  38.393  14.235
 8556W        W81624  17.086  43.966   2.933
 8557W        W81625  16.020  14.847  11.218
 8558W        W81626  35.800  24.534  13.529
 8559W        W81627  28.232  34.472   1.734
 8560W        W81628  23.256  16.634   9.847
 8561W        W81629  33.516  14.782  10.531
 8562W        W81630   8.132   3.846   1.939
 8563W        W81631  18.718  16.202  10.919
 8564W        W81632  21.634  14.835  11.547
 8565W        W81633  12.741  25.772  11.177
 8566W        W81634  19.692  13.182   1.291
 8567W        W81635  40.283  16.887   0.292
 8568W        W81636  23.887  20.914  11.569
 8569W        W81637  44.228  22.375   4.183
 8570W        W81638  22.661  31.561   4.660
 8571W        W81639  43.712   2.325   4.254
 8572W        W81640  11.279  38.389   2.903
 8573W        W81641   4.099  41.109  12.609
 8574W        W81642  44.968   1.366  12.105
 8575W        W81643  35.977   4.445   3.135
 8576W        W81644   3.943  19.780  11.667
 8577W        W81645  14.783  34.624  10.738
 8578W        W81646  39.171  43.966   4.176
 8579W        W81647   9.581  26.220   3.680
 8580W        W81648   0.159  11.104  11.128
 8581W        W81649  32.986  23.033   1.765
 8582W        W81650  39.312  23.288   2.809
 8583W        W81651  43.566  33.567   4.292
 8584W        W81652   0.953  37.623  13.956
 8585W        W81653  11.445  17.307   2.627
 8586W        W81654   1.928  11.702   3.250
 8587W        W81655  14.504   0.385  11.192
 8588W        W81656  42.722  23.617  11.484
 8589W        W81657  15.903  38.316   1.028
 8590W        W81658  24.519  44.403   4.894
 8591W        W81659  13.818  12.549  11.702
 8592W        W81660  29.629  31.979  13.864
 8593W        W81661  25.180   6.224   4.973
 8594W        W81662   1.918  18.701  14.878
 8595W        W81663   4.869  10.163   3.691
 8596W        W81664   7.166  43.910   2.275
 8597W        W81665  23.179  19.024  12.106
 8598W        W81666  35.206  38.649  13.698
 8599W        W81667  13.891  22.021  12.120
 8600W        W81668  10.702  28.153   9.944
 8601W        W81669  29.977   8.611   2.331
 8602W        W81670   9.443   0.769  12.494
 8603W        W81671  28.564   1.687  11.934
 8604W        W81672  40.269  41.288  13.575
 8605W        W81673   8.645  39.831   4.572
 8606W        W81674   8.601  18.334   2.311
 8607W        W81675  33.900   1.555   0.670
 8608W        W81676  34.018  42.383   2.087
 8609W        W81677   6.807  29.393  10.569
 8610W        W81678   2.448  29.662   0.963
 8611W        W81679  13.285  22.565   1.899
 8612W        W81680  32.070  21.232  12.258
 8613W        W81681  14.705   1.010   0.410
 8614W        W81682   1.419   5.434   0.469
 8615W        W81683  20.061  11.560   1.454
 8616W        W81684  28.404  32.929  13.906
 8617W        W81685   3.414   3.317  13.149
 8618W        W81686  22.965  14.459  12.603
 8619W        W81687  23.230  11.366   1.415
 8620W        W81688  43.805  13.244  14.803
 8621W        W81689  30.715  18.806   4.941
 8622W        W81690  23.106  27.289   1.762
 8623W        W81691  20.877   1.393  12.571
 8624W        W81692  28.571  23.231   2.443
 8625W        W81693   2.006  40.799  14.840
 8626W        W81694  35.634  23.210   5.061
 8627W        W81695  36.094  13.460   3.232
 8628W        W81696  20.611  23.739   3.381
 8629W        W81697  43.473  20.272  10.695
 8630W        W81698  41.846   2.108   2.509
 8631W        W81699  11.336   1.034  14.759
 8632W        W81700   5.389  33.098  13.342
 8633W        W81701  38.047   9.805   0.056
 8634W        W81702  17.563  26.354  11.682
 8635W        W81703   2.219  14.378  13.795
 8636W        W81704  26.470  13.740   0.188
 8637W        W81705  23.588  33.320  11.826
 8638W        W81706  29.988  30.465  14.977
 8639W        W81707  35.896  40.843  13.425
 8640W        W81708   7.250  39.041  12.173
 8641W        W81709  28.390  42.277   2.376
 8642W        W81710  23.659  28.717  12.472
 8643W        W81711  35.142  39.322  12.945
 8644W        W81712   9.876  39.402   3.590
 8645W        W81713  13.167  22.219   2.821
 8646W        W81714  11.398  24.063   1.253
 8647W        W81715  13.591  35.021  11.926
 8648W        W81716  13.705  17.041   0.894
 8649W        W81717  22.027   3.163   4.223
 8650W        W81718  41.748  32.984  12.950
 8651W        W81719  17.099   2.591   4.552
 8652W        W81720   8.247  22.908   3.064
 8653W        W81721  35.022  34.858   4.138
 8654W        W81722  16.072  30.093   1.754
 8655W        W81723  30.542   8.149   3.657
 8656W        W81724  44.492   8.311   4.678
 8657W        W81725   9.392  12.383   3.642
 8658W        W81726  23.382  14.595   0.015
 8659W        W81727   3.640   7.962  12.932
 8660W        W81728  18.324  28.375   4.739
 8661W        W81729  23.740  12.122   1.643
 8662W        W81730  34.058  23.232   3.054
 8663W        W81731  44.611  21.146   5.217
 8664W        W81732   1.814  27.277  13.071
 8665W        W81733  19.530  38.224   4.078
 8666W        W81734  34.159   6.768  10.729
 8667W        W81735  43.780  12.641   3.617
 8668W        W81736   9.640  42.486   0.388
 8669W        W81737  22.539  39.905  13.998
 8670W        W81738  16.308  40.221   1.277
 8671W        W81739  35.305   9.737  11.282
 8672W        W81740  14.350  41.878  14.570
 8673W        W81741  24.245  17.347  12.963
 8674W        W81742  36.934   8.128  11.125
 8675W        W81743  23.046  28.608  12.023
 8676W        W81744  43.317   0.301   3.163
 8677W        W81745  20.759  37.777   1.431
 8678W        W81746  38.850  44.843  10.738
 8679W        W81747  18.592  22.479   5.216
 8680W        W81748  44.266  23.862  10.242
 8681W        W81749  27.691  32.458  11.559
 8682W        W81750  42.777  27.954  12.045
 8683W        W81751   8.198   5.452   2.664
 8684W        W81752  23.641  31.044   3.774
 8685W        W81753  39.833   1.792  13.964
 8686W        W81754  42.033   6.668  13.351
 8687W        W81755  41.216   8.726   5.471
 8688W        W81756   3.934  36.914   4.139
 8689W        W81757   9.881   6.227  13.055
 8690W        W81758   6.182  23.699   0.075
 8691W        W81759  39.578  41.912   2.725
 8692W        W81760  40.524  25.710   2.901
 8693W        W81761  34.127  11.871  13.890
 8694W        W81762  31.563  36.392  14.226
 8695W        W81763  18.358  43.264   2.639
 8696W        W81764  41.249  32.620  13.939
 8697W        W81765  43.014  18.753   1.260
 8698W        W81766   8.230  33.868   4.219
 8699W        W81767  22.177  21.734  13.851
 8700W        W81768  21.507  20.533   3.692
 8701W        W81769   1.338  42.109  12.858
 8702W        W81770   5.138  36.246  14.266
 8703W        W81771  18.703  39.528   1.843
 8704W        W81772  42.337   2.254   0.048
 8705W        W81773  41.123  40.110  14.445
 8706W        W81774  29.290  17.692   4.687
 8707W        W81775  19.362  41.456   0.704
 8708W        W81776  34.097   9.986   2.363
 8709W        W81777  42.055  23.585   1.237
 8710W        W81778   2.588  29.338   3.346
 8711W        W81779  37.593  27.046   0.450
 8712W        W81780  12.515  38.930   4.285
 8713W        W81781  37.736  21.156   2.986
 8714W        W81782  13.938  41.978  12.483
 8715W        W81783  24.614  36.028  12.495
 8716W        W81784  39.057   9.218   1.576
 8717W        W81785  31.547   3.905   1.846
 8718W        W81786  40.973   7.624  11.947
 8719W        W81787  20.288  15.733   4.015
 8720W        W81788   5.711   0.722   2.420
 8721W        W81789  14.239  24.509  11.615
 8722W        W81790  40.406  31.793  11.450
 8723W        W81791  20.239  14.552   4.258
 8724W        W81792  26.400  36.514   4.176
 8725W        W81793  14.287  43.581   3.708
 8726W        W81794  34.082  35.498   3.331
 8727W        W81795  14.732  15.611  10.763
 8728W        W81796  40.282  30.857  14.229
 8729W        W81797  17.223  35.759  10.637
 8730W        W81798  14.708  41.126  10.680
 8731W        W81799  32.854  42.931   3.739
 8732W        W81800  31.663  17.664  14.813
 8733W        W81801   7.344   9.787   4.498
 8734W        W81802  35.822  14.194  12.911
 8735W        W81803  40.349   1.319  13.450
 8736W        W81804  17.648   7.216   3.409
 8737W        W81805  41.801  26.094  10.775
 8738W        W81806  40.682   5.897  12.459
 8739W        W81807   8.341  38.998   4.561
 8740W        W81808  39.277  16.334  11.643
 8741W        W81809  34.838  15.558  11.124
 8742W        W81810  18.482  40.707   2.792
 8743W        W81811  29.488  14.737  11.500
 8744W        W81812  42.481  19.697   1.925
 8745W        W81813   9.757  34.910  13.141
 8746W        W81814  21.251  44.058   4.111
 8747W        W81815   0.990  36.613   4.543
 8748W        W81816   3.294   5.323  12.969
 8749W        W81817   4.283  11.011  13.884
 8750W        W81818  29.757  44.064   1.229
 8751W        W81819  19.120  29.942   4.633
 8752W        W81820  22.957   5.540   1.027
 8753W        W81821  34.452  16.020   1.434
 8754W        W81822  12.921  38.132   4.496
 8755W        W81823  27.929  27.973   2.641
 8756W        W81824  23.542   3.664   1.362
 8757W        W81825  19.717   7.136   4.117
 8758W        W81826  33.308  31.981  13.624
 8759W        W81827   0.036  14.006  14.394
 8760W        W81828  25.881  26.000  12.079
 8761W        W81829  18.505  19.760   2.930
 8762W        W81830  12.414  39.935   1.441
 8763W        W81831  12.625  17.650  14.393
 8764W        W81832  42.473  30.515   3.239
 8765W        W81833  28.931  24.215   2.801
 8766W        W81834  29.318  13.618   1.692
 8767W        W81835  31.615  33.165   2.233
 8768W        W81836   1.005  17.625   1.221
 8769W        W81837  30.171   5.658  13.609
 8770W        W81838  18.084  15.562  11.421
 8771W        W81839  42.392   3.453   0.847
 8772W        W81840  34.178   2.936  14.553
 8773W        W81841  26.180  41.994   1.982
 8774W        W81842  27.691  39.553  14.468
 8775W        W81843  20.623   0.812   1.729
 8776W        W81844  10.422  10.863   3.213
 8777W        W81845   3.964   5.141   2.116
 8778W        W81846   1.735  11.287  14.729
 8779W        W81847  28.274  37.606  14.327
 8780W        W81848   3.468   0.475   4.039
 8781W        W81849  32.993   1.411  11.560
 8782W        W81850  16.484  43.413   3.251
 8783W        W81851  40.531   9.761  11.541
 8784W        W81852  29.035   3.744  10.675
 8785W        W81853  12.139   9.242   3.163
 8786W        W81854  17.684  39.443   4.352
 8787W        W81855   7.134  26.185  12.514
 8788W        W81856   1.376  37.916  13.905
 8789W        W81857   6.872  26.015  12.936
 8790W        W81858  23.545  28.259   2.249
 8791W        W81859  26.211  40.184  10.926
 8792W        W81860  27.592  29.487  13.482
 8793W        W81861  34.675   2.467  14.235
 8794W        W81862  29.971  21.267  10.623
 8795W        W81863  38.625  27.415   0.164
 8796W        W81864  23.139   1.722   1.855
 8797W        W81865   1.388   5.448   1.379
 8798W        W81866  17.125  28.183  14.285
 8799W        W81867  14.514  23.582  11.180
 8800W        W81868  20.179  32.947   2.859
 8801W        W81869  39.883  29.044   1.600
 8802W        W81870   3.961   0.565  14.978
 8803W        W81871  28.057   8.527   0.703
 8804W        W81872  39.498  29.334  13.079
 8805W        W81873  29.747  44.459  14.257
 8806W        W81874  39.608  26.453  11.022
 8807W        W81875  24.700  29.437  11.219
 8808W        W81876  17.837  32.764  11.837
 8809W        W81877  15.162  43.874   1.493
 8810W        W81878   0.244  35.428  12.939
 8811W        W81879  21.627  39.496  11.332
 8812W        W81880  36.249  12.266   4.382
 8813W        W81881  19.041  13.848   3.214
 8814W        W81882   0.016  31.788   0.233
 8815W        W81883  36.388  26.650  10.937
 8816W        W81884  12.381  33.473   3.159
 8817W        W81885  17.259  31.626  13.336
 8818W        W81886  23.725  40.341   4.329
 8819W        W81887  29.126  39.990   2.605
 8820W        W81888  38.589  38.614  13.832
 8821W        W81889  25.203  44.640   2.382
 8822W        W81890  24.503  11.845  10.410
 8823W        W81891  43.755  36.389   4.106
 8824W        W81892  16.142  22.518  10.335
 8825W        W81893  43.054  28.563   0.923
 8826W        W81894  28.554   3.141   3.462
 8827W        W81895  12.287   9.176   2.320
 8828W        W81896  15.221  39.554   2.181
 8829W        W81897  19.700  39.787  11.522
 8830W        W81898  43.529  32.475   1.747
 8831W        W81899  24.971  24.339   5.018
 8832W        W81900  38.598  41.038   3.336
 8833W        W81901   2.859  26.057  10.799
 8834W        W81902  30.639  44.964   2.449
 8835W        W81903  22.737   7.932   3.147
 8836W        W81904   9.553  39.413  12.046
 8837W        W81905   4.285  29.851   3.447
 8838W        W81906  33.527   1.901   0.524
 8839W        W81907  16.059  41.273   2.123
 8840W        W81908   7.492  14.753   4.338
 8841W        W81909   5.457  33.899   2.886
 8842W        W81910  29.862  37.084  13.118
 8843W        W81911  33.823   9.365   1.863
 8844W        W81912  38.466  36.162  12.925
 8845W        W81913  11.809  22.649  10.816
 8846W        W81914  29.386  11.571   1.586
 8847W        W81915  30.782  30.194   1.888
 8848W        W81916  17.679  41.103  11.614
 8849W        W81917  34.081  40.359  11.649
 8850W        W81918   3.177  42.324  13.842
 8851W        W81919  25.184  44.596  11.185
 8852W        W81920  43.308  15.290  11.864
 8853W        W81921  13.620   6.583   3.723
 8854W        W81922  29.637  39.557  12.830
 8855W        W81923  43.265  35.682  12.091
 8856W        W81924  26.591  11.703   4.055
 8857W        W81925  36.966   5.295  11.453
 8858W        W81926  38.056  38.017  12.071
 8859W        W81927  11.021  22.091   1.726
 8860W        W81928  42.315   0.946   4.278
 8861W        W81929  38.151  24.256   2.337
 8862W        W81930  17.428   2.501   3.304
 8863W        W81931  38.153  35.643  13.462
 8864W        W81932  23.144  26.575  13.860
 8865W        W81933  28.659  19.986   1.710
 8866W        W81934  20.606  29.675  14.584
 8867W        W81935  25.254  20.805  10.527
 8868W        W81936  38.789  36.967   0.511
 8869W        W81937   2.766  25.436   1.907
 8870W        W81938  31.135  28.875  11.570
 8871W        W81939   0.758  38.153   4.356
 8872W        W81940   7.423  32.151  14.417
 8873W        W81941  34.482  10.664   2.314
 8874W        W81942  21.985  41.244   4.598
 8875W        W81943  38.188  28.643  14.972
 8876W        W81944  12.315  12.727  10.754
 8877W        W81945  44.038   5.308  13.163
 8878W        W81946  32.021  10.409  14.822
 8879W        W81947   7.035  18.788   1.250
 8880W        W81948   7.018  31.908  14.239
 8881W        W81949  24.080   2.034   2.996
 8882W        W81950   7.360  33.919   3.818
 8883W        W81951   4.924  35.022   2.847
 8884W        W81952  23.359  43.469   0.876
 8885W        W81953  35.914  38.909  12.510
 8886W        W81954  17.128  23.436  11.597
 8887W        W81955   4.345  12.852  10.979
 8888W        W81956  38.590  31.022  11.384
 8889W        W81957  21.271   7.321   4.871
 8890W        W81958  21.550  26.232   2.258
 8891W        W81959   8.076  40.432   1.912
 8892W        W81960  28.887  25.499   1.057
 8893W        W81961  15.877  15.865   4.352
 8894W        W81962  27.706  10.992  14.272
 8895W        W81963  27.023  15.454   2.292
 8896W        W81964  31.664  15.682  13.464
 8897W        W81965  37.430  10.992   0.431
 8898W        W81966   6.807  13.882  13.040
 8899W        W81967   6.222  32.249  10.725
 8900W        W81968  37.251   7.972   5.017
 8901W        W81969  14.595  14.791  13.863
 8902W        W81970  10.094  30.987   4.071
 8903W        W81971  21.032  40.835   4.655
 8904W        W81972  30.793  13.582  14.510
 8905W        W81973  16.376  21.753   2.766
 8906W        W81974  13.684  37.495  14.348
 8907W        W81975   6.355  38.946  14.227
 8908W        W81976   2.490  18.276   2.458
 8909W        W81977   5.914  11.163  13.879
 8910W        W81978  17.307   0.419  12.298
 8911W        W81979  14.836   1.858   0.959
 8912W        W81980  31.630  35.622   0.842
 8913W        W81981  19.075  18.073   1.160
 8914W        W81982   6.131  30.935  12.527
 8915W        W81983  14.702  17.855   3.180
 8916W        W81984  17.982  25.048  14.864
 8917W        W81985  30.535  19.576   3.168
 8918W        W81986  37.174  25.264  13.008
 8919W        W81987  19.499  32.448  10.595
 8920W        W81988  27.941  23.522   3.605
 8921W        W81989  34.906  21.636  12.961
 8922W        W81990   7.257  24.191   2.764
 8923W        W81991   0.888   6.702   1.526
 8924W        W81992   7.770   0.540  11.222
 8925W        W81993  31.217  15.396   1.034
 8926W        W81994  29.193  32.061   0.543
 8927W        W81995  25.038  43.875   0.482
 8928W        W81996  41.945  36.546  12.191
 8929W        W81997  25.591  28.894   2.792
 8930W        W81998  31.452   9.309   1.052
 8931W        W81999  36.620  15.187  11.096
 8932W        W82000  41.992  39.060  14.422
 8933W        W82001  12.835  10.019   0.429
 8934W        W82002  13.837   0.082  13.482
 8935W        W82003  38.959   5.481  12.091
 8936W        W82004  35.823   1.305   3.903
 8937W        W82005  42.057  14.223   3.687
 8938W        W82006  11.725  13.554   2.646
 8939W        W82007   7.600  13.730   3.272
 8940W        W82008  34.169  27.935  13.037
 8941W        W82009  39.042  25.682   1.255
 8942W        W82010  27.717   2.924   3.155
 8943W        W82011  11.572  22.101  13.490
 8944W        W82012  29.279   5.964  13.398
 8945W        W82013  21.622  14.296   0.420
 8946W        W82014  10.196  41.275  12.994
 8947W        W82015  34.283  18.114   4.697
 8948W        W82016  42.221  10.354   9.815
 8949W        W82017   3.512   2.794   1.749
 8950W        W82018  36.293  13.771   1.900
 8951W        W82019   8.949  20.362  10.753
 8952W        W82020  12.199  43.981  10.441
 8953W        W82021  18.475  28.557   2.857
 8954W        W82022  43.906  37.902   1.501
 8955W        W82023  38.716  23.997  14.886
 8956W        W82024  22.669  25.433   0.823
 8957W        W82025  12.806   8.733   1.725
 8958W        W82026  26.745  10.801  13.047
 8959W        W82027  35.913  37.092   0.416
 8960W        W82028  33.720  28.332   2.884
 8961W        W82029   9.845  29.565  14.852
 8962W        W82030   5.676  25.553  12.067
 8963W        W82031  11.430  14.713   2.280
 8964W        W82032  22.600   1.963   4.109
 8965W        W82033  39.120   5.933  13.959
 8966W        W82034   2.741  17.841   4.076
 8967W        W82035  16.506  10.249   4.525
 8968W        W82036   1.986  14.845  13.594
 8969W        W82037   2.960  44.403  13.668
 8970W        W82038  33.412  35.986   2.901
 8971W        W82039  34.760   5.755   0.475
 8972W        W82040  25.904  10.767  10.345
 8973W        W82041   1.407   8.001  12.466
 8974W        W82042  29.024  13.995  13.273
 8975W        W82043   1.875   1.000  11.032
 8976W        W82044   0.158  25.461  12.395
 8977W        W82045   7.270  14.422  13.568
 8978W        W82046  10.540  29.662   0.948
 8979W        W82047   4.731  27.656  13.824
 8980W        W82048  32.106   1.708   2.867
 8981W        W82049   3.266  39.881  11.010
 8982W        W82050  30.120  27.452  11.993
 8983W        W82051   3.460  43.971  14.866
 8984W        W82052  10.881  36.473  11.551
 8985W        W82053  18.628  39.080   3.305
 8986W        W82054  32.551  23.788  14.981
 8987W        W82055  40.516  13.832   1.316
 8988W        W82056  14.607   1.941   3.730
 8989W        W82057   2.078  17.054  11.293
 8990W        W82058  11.368  10.330   1.420
 8991W        W82059  21.211  17.029  14.429
 8992W        W82060  39.558  10.416  13.283
 8993W        W82061  17.063  11.246   0.522
 8994W        W82062  37.553   7.103   3.117
 8995W        W82063   7.221  26.965   2.875
 8996W        W82064  32.514  25.464  14.209
 8997W        W82065   9.059   6.969   0.456
 8998W        W82066  26.653   1.488  10.628
 8999W        W82067  26.981  36.395   0.713
 9000W        W82068  30.205   6.103  13.340
 9001W        W82069  14.133  13.289  13.916
 9002W        W82070  19.123   9.199   4.528
 9003W        W82071  20.783  35.456  14.969
 9004W        W82072  13.293  32.041   2.237
 9005W        W82073  25.147  37.359  11.583
 9006W        W82074  15.113  30.443  14.900
 9007W        W82075  30.682  10.177   3.310
 9008W        W82076   0.065  38.834   3.700
 9009W        W82077  41.383  20.508   2.274
 9010W        W82078   6.197  24.633  10.398
 9011W        W82079  35.942  26.709  10.708
 9012W        W82080  28.978   4.611   2.520
 9013W        W82081  41.862   0.682  12.098
 9014W        W82082  11.085  11.366  13.585
 9015W        W82083  39.977  37.870   3.930
 9016W        W82084   5.666  12.829   4.779
 9017W        W82085   3.294   7.484  12.165
 9018W        W82086  17.323   1.393   4.727
 9019W        W82087  18.164  44.711   4.018
 9020W        W82088  18.699  19.155   4.635
 9021W        W82089  30.693   7.464   0.532
 9022W        W82090  11.016  41.281  10.221
 9023W        W82091  30.829  30.126   1.001
 9024W        W82092  24.575  30.171   0.539
 9025W        W82093   3.413  43.683   4.793
 9026W        W82094  25.967  44.358   2.664
 9027W        W82095  14.100  43.488  14.963
 9028W        W82096  23.066  27.487  12.432
 9029W        W82097   1.782  39.138   0.403
 9030W        W82098  10.189  28.629   1.774
 9031W        W82099   0.205  33.847  11.173
 9032W        W82100  27.604  20.460  10.703
 9033W        W82101   5.972   7.395   2.157
 9034W        W82102  15.795  43.266   0.340
 9035W        W82103   9.054   3.861   4.548
 9036W        W82104  12.826  13.952   4.923
 9037W        W82105  40.459  15.384   1.257
 9038W        W82106  42.420  28.576  12.427
 9039W        W82107   3.730  13.422  13.371
 9040W        W82108   6.565  40.879  11.089
 9041W        W82109  16.714   3.047  10.750
 9042W        W82110  26.670  19.021  13.452
 9043W        W82111  24.158   7.411   0.398
 9044W        W82112  18.600  16.514  14.524
 9045W        W82113  44.241  31.003  14.397
 9046W        W82114  30.115  25.788   4.009
 9047W        W82115  13.820  25.403   2.315
 9048W        W82116   1.437  40.245  14.719
 9049W        W82117  28.972  25.225   3.739
 9050W        W82118   9.256  12.901  12.463
 9051W        W82119  31.563  35.613   2.888
 9052W        W82120  16.162   5.908  11.135
 9053W        W82121   4.477  19.163  11.967
 9054W        W82122  23.112  24.685   4.607
 9055W        W82123  35.438  17.031   3.652
 9056W        W82124  35.693  41.420   0.464
 9057W        W82125  29.539  44.999   0.297
 9058W        W82126  21.625  44.824   2.244
 9059W        W82127  44.534  24.851  11.859
 9060W        W82128  36.302  13.096  11.257
 9061W        W82129  33.054  35.580  10.647
 9062W        W82130  42.436  24.566  11.182
 9063W        W82131  18.706  28.890   1.785
 9064W        W82132   8.160  38.246  10.320
 9065W        W82133  39.557   2.841  11.849
 9066W        W82134  33.353  13.659   4.636
 9067W        W82135  28.120  29.704   0.141
 9068W        W82136  31.132  18.314   3.191
 9069W        W82137  34.994  39.518   3.140
 9070W        W82138  26.464  43.532   2.646
 9071W        W82139  41.486   6.397   0.347
 9072W        W82140  43.215  28.797   1.793
 9073W        W82141  16.900  41.407  14.057
 9074W        W82142  18.275  32.394  10.419
 9075W        W82143  10.934  23.041  12.503
 9076W        W82144  18.424  29.250   5.135
 9077W        W82145  37.832   1.898  12.490
 9078W        W82146  40.533  19.711  12.579
 9079W        W82147   9.772   2.919  12.814
 9080W        W82148  13.127  29.076  14.778
 9081W        W82149  26.093  35.143   1.438
 9082W        W82150  30.891  30.370  14.781
 9083W        W82151  33.582  25.494   1.168
 9084W        W82152  39.319  34.981  11.691
 9085W        W82153   8.110  24.216  13.442
 9086W        W82154  14.754  12.849   0.262
 9087W        W82155   9.184   9.086  11.155
 9088W        W82156  29.171  14.596  11.901
 9089W        W82157  29.148   3.772   2.227
 9090W        W82158   0.690   4.254  10.226
 9091W        W82159  34.887   7.326   4.383
 9092W        W82160  13.736  28.571   2.068
 9093W        W82161  17.723  25.956  11.949
 9094W        W82162  26.981  31.688   3.731
 9095W        W82163  44.888  38.408  10.859
 9096W        W82164  20.948   4.109  14.975
 9097W        W82165  22.143  42.852  10.911
 9098W        W82166  40.203  40.279   1.840
 9099W        W82167  29.066  21.887  14.461
 9100W        W82168  30.061  21.949   0.234
 9101W        W82169  34.932  29.553   1.504
 9102W        W82170  10.702  43.838  13.340
 9103W        W82171   8.288  28.121   1.533
 9104W        W82172  24.421  17.725   1.151
 9105W        W82173  33.538   8.412   3.654
 9106W        W82174  29.968  23.332   1.390
 9107W        W82175   5.481  29.974   2.640
 9108W        W82176  33.419  13.643   3.745
 9109W        W82177   1.380  39.429   2.410
 9110W        W82178   1.210   5.219   2.677
 9111W        W82179   8.795  21.651   2.275
 9112W        W82180  36.870  41.958   3.178
 9113W        W82181  31.147   9.364   3.156
 9114W        W82182  10.136   6.828  11.517
 9115W        W82183  13.738  25.993   4.556
 9116W        W82184  10.744   6.350   1.321
 9117W        W82185  24.461   3.329  12.084
 9118W        W82186  44.983  17.368  11.016
 9119W        W82187  15.342   6.743  12.940
 9120W        W82188  38.832   7.853  13.247
 9121W        W82189  26.455  31.062  11.917
 9122W        W82190  33.354  22.060  10.632
 9123W        W82191  16.151  22.911  14.906
 9124W        W82192  25.724   9.256   1.844
 9125W        W82193  10.642   2.479   1.460
 9126W        W82194  38.190   1.525   1.817
 9127W        W82195  37.907  29.591  10.620
 9128W        W82196   7.229   5.252   4.156
 9129W        W82197   9.823  41.229   1.411
 9130W        W82198  20.225   0.306  13.127
 9131W        W82199  19.280  23.562   2.311
 9132W        W82200  40.961  43.868  11.444
 9133W        W82201  24.936   4.701  11.569
 9134W        W82202  35.386  29.490   1.266
 9135W        W82203  43.360  12.705  14.499
 9136W        W82204  36.352   8.407   3.136
 9137W        W82205  36.281   6.053   1.872
 9138W        W82206  30.928  40.083  11.406
 9139W        W82207  24.107   4.369  12.952
 9140W        W82208  15.355  26.274  14.831
 9141W        W82209  32.132  30.559   0.757
 9142W        W82210  11.783   2.980  14.611
 9143W        W82211   5.523  33.894   1.629
 9144W        W82212  25.611  37.026   3.956
 9145W        W82213  17.199  18.570  12.324
 9146W        W82214  24.889   7.782  13.764
 9147W        W82215   4.862  23.183  13.363
 9148W        W82216  11.094  12.071  13.820
 9149W        W82217   8.465   0.179   4.651
 9150W        W82218   6.929   3.244   3.016
 9151W        W82219  14.273  23.075  12.967
 9152W        W82220   8.396  11.273   2.729
 9153W        W82221  10.390  15.206  11.167
 9154W        W82222  33.546   9.674   3.197
 9155W        W82223  26.935  32.112   0.507
 9156W        W82224  10.214  15.312   1.266
 9157W        W82225  31.641  18.814  11.171
 9158W        W82226   0.868  16.923  12.768
 9159W        W82227  17.916  14.380  11.075
 9160W        W82228  25.707  28.921   4.687
 9161W        W82229   2.815  41.843   3.260
 9162W        W82230  33.894  17.257  11.230
 9163W        W82231  39.500  24.511   2.266
 9164W        W82232  30.954  16.844   1.764
 9165W        W82233  20.772  28.433   1.939
 9166W        W82234  39.588  31.125   1.487
 9167W        W82235  29.468   3.545   0.440
 9168W        W82236  40.602  42.439  13.907
 9169W        W82237  32.551   0.028   4.179
 9170W        W82238  14.301  14.836  13.423
 9171W        W82239   1.370  29.067  10.400
 9172W        W82240  13.536  14.103   0.799
 9173W        W82241  41.841  12.668   1.811
 9174W        W82242  29.340   2.831  10.997
 9175W        W82243  39.956  41.213   1.835
 9176W        W82244   4.906   2.665  14.061
 9177W        W82245  25.428  20.048   4.390
 9178W        W82246  37.947   5.697   5.079
 9179W        W82247   2.857   1.564  12.297
 9180W        W82248  20.738  41.776  11.130
 9181W        W82249  21.493   0.574   1.599
 9182W        W82250  34.858  11.632   4.967
 9183W        W82251   1.020  28.987   0.255
 9184W        W82252  23.268  32.001  11.624
 9185W        W82253   6.787  31.505  10.750
 9186W        W82254  36.504  22.754  12.759
 9187W        W82255   0.804   2.581  13.282
 9188W        W82256  31.107  20.707   2.281
 9189W        W82257  12.201   7.981   1.786
 9190W        W82258  39.901   4.967  10.640
 9191W        W82259  30.129  12.378   4.618
 9192W        W82260   2.963  21.360  13.813
 9193W        W82261  44.383  13.074  10.770
 9194W        W82262  22.116  37.551  14.636
 9195W        W82263  22.550  21.460   1.536
 9196W        W82264  17.970   5.370  10.547
 9197W        W82265   4.178  27.002  12.905
 9198W        W82266  33.416  31.162  12.613
 9199W        W82267  32.117   9.728   4.832
 9200W        W82268   1.562  33.667   3.368
 9201W        W82269  39.584  28.540  14.363
 9202W        W82270   6.701  26.894  12.959
 9203W        W82271  41.611   7.273  10.360
 9204W        W82272  27.754  36.529   0.438
 9205W        W82273  24.413  39.748   4.778
 9206W        W82274  44.254  43.004   3.719
 9207W        W82275  18.526  19.032  14.142
 9208W        W82276  27.480  25.997   1.874
 9209W        W82277  29.473  29.484  11.540
 9210W        W82278   2.661  35.009   2.025
 9211W        W82279  37.497  33.884   2.439
 9212W        W82280  36.424  27.619   0.180
 9213W        W82281  11.437  14.612   1.342
 9214W        W82282  30.405  43.252  12.951
 9215W        W82283  44.651   8.182   5.136
 9216W        W82284  33.519  15.021  10.985
 9217W        W82285   7.738   7.064  11.671
 9218W        W82286  17.250   0.465   3.705
 9219W        W82287  28.360  44.881  12.899
 9220W        W82288  40.470  21.708   0.822
 9221W        W82289  27.730   6.680  11.319
 9222W        W82290  38.388  40.623  12.417
 9223W        W82291  31.467  34.647  14.433
 9224W        W82292   6.762  43.408   3.819
 9225W        W82293  29.501  23.519  13.383
 9226W        W82294   3.320  21.698  14.599
 9227W        W82295  30.080   2.213   3.707
 9228W        W82296  11.253  37.898  14.997
 9229W        W82297  10.083  34.363  11.467
 9230W        W82298  21.220  17.175   1.923
 9231W        W82299  38.496  41.506  15.000
 9232W        W82300  36.559   5.189   0.333
 9233W        W82301  17.660  33.329  11.176
 9234W        W82302  24.388  27.312  12.992
 9235W        W82303  12.766  33.361   0.931
 9236W        W82304  34.001   5.711   4.164
 9237W        W82305  36.615   1.370   3.329
 9238W        W82306  21.326  32.640   3.333
 9239W        W82307   6.259  26.667  10.425
 9240W        W82308  13.974  22.483   3.255
 9241W        W82309   0.996  15.176  12.657
 9242W        W82310  43.323  41.095  14.774
 9243W        W82311  24.685  41.180   3.831
 9244W        W82312  39.795  38.353  14.363
 9245W        W82313  27.038  36.302   1.218
 9246W        W82314   9.206   5.459  13.905
 9247W        W82315  20.544  44.571  12.796
 9248W        W82316  15.663  31.385  11.584
 9249W        W82317   9.707  10.816  14.030
 9250W        W82318  34.657  12.216   1.758
 9251W        W82319   2.235  37.289  13.531
 9252W        W82320  43.265  39.039   1.447
 9253W        W82321  10.611  43.930  12.041
 9254W        W82322  13.610  16.694  13.424
 9255W        W82323  40.416  40.044  12.460
 9256W        W82324  33.853   0.540   1.257
 9257W        W82325  33.636   6.151  12.946
 9258W        W82326  10.840   9.710   4.385
 9259W        W82327  33.068   5.459  11.582
 9260W        W82328  27.317  36.940  14.914
 9261W        W82329   7.270   6.698  12.905
 9262W        W82330  13.147  40.814   0.403
 9263W        W82331  27.646  29.647   4.997
 9264W        W82332  29.193  29.612  13.377
 9265W        W82333  36.380  25.057   4.523
 9266W        W82334  18.712  20.134  10.445
 9267W        W82335  10.748  20.556  11.166
 9268W        W82336  17.633  42.018   1.996
 9269W        W82337  26.937   2.240   4.257
 9270W        W82338   2.842   6.014   3.597
 9271W        W82339   4.646  21.302  13.809
 9272W        W82340  41.983  42.020  11.865
 9273W        W82341   1.877   1.882   3.354
 9274W        W82342  10.921  22.950   1.260
 9275W        W82343   2.281  20.261   0.996
 9276W        W82344  34.154  43.396   3.685
 9277W        W82345  27.402   7.802  11.574
 9278W        W82346   3.608  11.864   2.542
 9279W        W82347  19.466  15.660  14.242
 9280W        W82348  40.909  43.532  13.021
 9281W        W82349  40.548   1.569   1.742
 9282W        W82350   1.619  26.552   1.331
 9283W        W82351  12.820  33.513  11.698
 9284W        W82352  31.936   3.194  12.505
 9285W        W82353  11.315   0.993   2.148
 9286W        W82354   5.288  43.202   0.863
 9287W        W82355  42.408  37.548   2.735
 9288W        W82356  14.993  18.465   1.011
 9289W        W82357  28.447  43.827   0.267
 9290W        W82358   4.947  35.536   1.401
 9291W        W82359  19.321  32.494  13.947
 9292W        W82360  25.485  29.868   3.603
 9293W        W82361  28.175  41.289   2.176
 9294W        W82362  30.525  28.275   0.271
 9295W        W82363   7.729  21.186   3.097
 9296W        W82364  27.683  26.160  11.995
 9297W        W82365  35.946  40.467   1.893
 9298W        W82366  31.523  33.900   4.081
 9299W        W82367  19.742  13.875   0.474
 9300W        W82368   8.304  10.480  12.374
 9301W        W82369   6.319   8.765  14.361
 9302W        W82370  31.929  42.049  10.739
 9303W        W82371  25.443  28.470   2.422
 9304W        W82372  44.174  19.431  13.170
 9305W        W82373  29.512  36.617  11.864
 9306W        W82374  15.157  37.070   2.454
 9307W        W82375   9.082  15.734  12.495
 9308W        W82376  41.430  32.388  13.522
 9309W        W82377  34.084  21.456   2.168
 9310W        W82378  19.620  38.961  12.336
 9311W        W82379  19.372  27.924   3.057
 9312W        W82380  19.190  42.055  10.631
 9313W        W82381  31.357  37.020  12.043
 9314W        W82382  33.814   4.979   3.651
 9315W        W82383  16.635  14.153   0.906
 9316W        W82384  37.102  28.698  10.609
 9317W        W82385  16.459   4.360  14.901
 9318W        W82386  39.369   3.720  11.945
 9319W        W82387  34.850  19.238   2.403
 9320W        W82388  27.612   4.504  12.608
 9321W        W82389  37.163  21.348  11.437
 9322W        W82390  30.894  11.359  11.530
 9323W        W82391  38.073  40.323   3.701
 9324W        W82392  23.648  14.326  11.512
 9325W        W82393  34.674  43.518   3.503
 9326W        W82394  13.022  27.363   3.208
 9327W        W82395  30.113   6.774   3.682
 9328W        W82396  17.625  23.922   1.387
 9329W        W82397  14.125  28.773   1.745
 9330W        W82398  18.570   5.890  12.493
 9331W        W82399  40.739  32.618  10.617
 9332W        W82400  19.164   6.608  12.177
 9333W        W82401   7.236  12.154   1.173
 9334W        W82402   2.465  41.458   2.323
 9335W        W82403  27.454  35.402   0.792
 9336W        W82404  33.566  38.007   4.327
 9337W        W82405  20.126  42.549  13.990
 9338W        W82406  42.494  33.739   1.325
 9339W        W82407  34.458  42.507  13.960
 9340W        W82408  37.358  31.190  10.790
 9341W        W82409  14.073   3.897   1.244
 9342W        W82410  22.174  21.731   4.046
 9343W        W82411  22.546  12.109  14.021
 9344W        W82412  13.981   1.168   0.128
 9345W        W82413  11.181  41.025  11.073
 9346W        W82414  40.629   7.223   4.667
 9347W        W82415  26.623  35.894  13.630
 9348W        W82416  30.088  33.753  14.290
 9349W        W82417  18.508  29.680  14.863
 9350W        W82418  34.003  41.238  13.875
 9351W        W82419  29.935   0.751   4.632
 9352W        W82420  39.807  39.941  11.932
 9353W        W82421  25.736  34.362  13.859
 9354W        W82422   0.990  41.330   1.098
 9355W        W82423   3.915  44.512  11.157
 9356W        W82424  31.325  27.612   3.389
 9357W        W82425  14.199  33.161  14.892
 9358W        W82426  19.281  34.946   3.298
 9359W        W82427  44.242  41.810  13.889
 9360W        W82428   8.154  18.886   4.104
 9361W        W82429  15.652   4.340  13.075
 9362W        W82430  36.654   1.323  14.852
 9363W        W82431   4.439  16.189  14.326
 9364W        W82432  40.370  17.043  11.860
 9365W        W82433   8.273  17.210  12.808
 9366W        W82434   0.211  27.128   3.171
 9367W        W82435  15.864  44.759  13.555
 9368W        W82436  25.944  14.427  13.064
 9369W        W82437  22.240  39.407   0.293
 9370W        W82438  39.407  16.515  10.439
 9371W        W82439  30.450   6.578  12.524
 9372W        W82440  41.071   7.510   4.801
 9373W        W82441  40.921  15.405  12.185
 9374W        W82442  30.689  40.899  12.339
 9375W        W82443  12.590  14.264   0.368
 9376W        W82444   9.250   6.962  13.907
 9377W        W82445  23.202  11.874   2.165
 9378W        W82446   2.349  32.607  13.751
 9379W        W82447   0.709  12.349  10.712
 9380W        W82448  18.017  30.711   1.695
 9381W        W82449  19.499  18.106  12.477
 9382W        W82450   2.657  15.374   3.985
 9383W        W82451  35.728  30.565  12.662
 9384W        W82452  44.655  17.774  14.341
 9385W        W82453  20.652  34.709   4.540
 9386W        W82454  40.020  28.912   1.114
 9387W        W82455   1.952  22.659  12.997
 9388W        W82456  27.398   2.334  11.370
 9389W        W82457   7.272   7.235  11.583
 9390W        W82458  41.931   5.310  13.495
 9391W        W82459  40.476  30.327  10.942
 9392W        W82460   1.522   0.993  13.776
 9393W        W82461  15.376  19.668  13.570
 9394W        W82462  15.747   5.755   4.241
 9395W        W82463   1.262  37.872   3.516
 9396W        W82464  33.923  38.870  11.296
 9397W        W82465  39.469   6.237  14.931
 9398W        W82466  23.923  24.545  14.032
 9399W        W82467   9.391  37.849  14.314
 9400W        W82468  43.288  13.397   1.148
 9401W        W82469  24.620  27.557   3.693
 9402W        W82470  34.683  38.821  13.376
 9403W        W82471  41.129  34.024   4.670
 9404W        W82472  26.642  31.914  12.486
 9405W        W82473  31.497  19.036  14.828
 9406W        W82474   9.283  24.245   0.905
 9407W        W82475   0.745  10.594   0.487
 9408W        W82476   0.089  19.090   1.707
 9409W        W82477  44.192   4.045   3.647
 9410W        W82478   0.413  30.348   1.068
 9411W        W82479   9.742  22.717  13.084
 9412W        W82480  37.545  32.611   9.734
 9413W        W82481  36.974  34.961   3.725
 9414W        W82482  17.086   9.477  13.054
 9415W        W82483  29.025  22.855  11.120
 9416W        W82484  39.534  12.175  11.030
 9417W        W82485  12.036  23.523   2.332
 9418W        W82486  28.338  29.216  13.484
 9419W        W82487  15.252  15.588   0.811
 9420W        W82488  22.258  11.780  10.713
 9421W        W82489  36.499   7.272   1.446
 9422W        W82490  21.307  27.588  14.358
 9423W        W82491  21.228   3.851  14.353
 9424W        W82492  24.100  43.766  10.644
 9425W        W82493  40.491  35.988   4.211
 9426W        W82494  18.191  32.868  14.134
 9427W        W82495  26.257   1.284   2.708
 9428W        W82496   2.394   6.442   0.479
 9429W        W82497  38.059  12.611  11.516
 9430W        W82498  36.309  31.513   5.518
 9431W        W82499  42.259  39.121   2.697
 9432W        W82500  35.278   7.274  11.032
 9433W        W82501   2.916  29.486  12.215
 9434W        W82502  39.408  17.788   1.411
 9435W        W82503  44.182  42.237  13.009
 9436W        W82504  42.815  38.499  11.460
 9437W        W82505  20.438  28.307  11.538
 9438W        W82506   8.632  39.413   1.187
 9439W        W82507  22.996  37.093  14.778
 9440W        W82508  36.112   5.803   0.790
 9441W        W82509  43.507  32.079  13.992
 9442W        W82510  32.955  38.948  14.099
 9443W        W82511   6.686  43.848  11.482
 9444W        W82512  13.525  32.016   4.187
 9445W        W82513   3.704  19.679   2.741
 9446W        W82514   6.679  38.036   0.034
 9447W        W82515   9.583  26.981   0.887
 9448W        W82516  16.510  31.787  12.947
 9449W        W82517  39.821   1.731   1.320
 9450W        W82518  40.042  22.513   0.291
 9451W        W82519  14.776   1.413   1.789
 9452W        W82520  36.201  30.826   4.344
 9453W        W82521  20.823  37.416  13.971
 9454W        W82522  38.008  22.170  14.507
 9455W        W82523  14.689   7.407   3.405
 9456W        W82524   0.380  24.066   3.230
 9457W        W82525  21.673  23.544  10.977
 9458W        W82526  36.405  20.105   0.542
 9459W        W82527  29.700  38.297   1.046
 9460W        W82528  39.433  26.934  13.555
 9461W        W82529  24.688   8.833  12.454
 9462W        W82530  23.699  13.173  11.158
 9463W        W82531   0.038  30.027   0.160
 9464W        W82532  38.012  15.405   0.702
 9465W        W82533  21.967  27.177   4.806
 9466W        W82534  11.090  13.654   3.711
 9467W        W82535  15.145  41.258  13.996
 9468W        W82536  29.601  43.254  13.496
 9469W        W82537   9.290  30.558  14.898
 9470W        W82538  26.519  31.861  11.209
 9471W        W82539  36.601  32.188  12.460
 9472W        W82540  14.379  17.724   3.579
 9473W        W82541  16.712  11.843   2.086
 9474W        W82542  12.677  34.020   4.941
 9475W        W82543  24.035  34.967  10.332
 9476W        W82544  13.878  29.620  12.598
 9477W        W82545   0.854  39.409   3.607
 9478W        W82546  13.311   1.769   4.982
 9479W        W82547   6.124  21.498   4.452
 9480W        W82548  43.075  19.823  12.087
 9481W        W82549  23.502  10.318   2.422
 9482W        W82550  21.175  38.403  13.099
 9483W        W82551   6.758   6.277  13.851
 9484W        W82552  27.596  25.425  12.535
 9485W        W82553  15.632  22.082   0.295
 9486W        W82554  19.721  24.020   5.235
 9487W        W82555  31.096  36.287   0.763
 9488W        W82556  23.422  38.823  13.056
 9489W        W82557  10.845  15.657  10.691
 9490W        W82558  21.606   5.500  14.020
 9491W        W82559  19.182   7.204   1.663
 9492W        W82560   9.238  16.767   2.004
 9493W        W82561  16.141  16.315  11.611
 9494W        W82562  25.545   6.791  12.236
 9495W        W82563  19.481  37.995  11.454
 9496W        W82564  24.460  25.110   4.462
 9497W        W82565  34.154  33.341  14.375
 9498W        W82566  37.511  10.828  13.921
 9499W        W82567  24.976  25.649   0.046
 9500W        W82568  16.566  26.559   3.764
 9501W        W82569   3.993  39.322   1.226
 9502W        W82570  11.904  24.740  11.794
 9503W        W82571   2.424  12.845  14.121
 9504W        W82572  14.384   8.554  12.575
 9505W        W82573  32.467  15.287  11.749
 9506W        W82574  12.367  11.358   0.500
 9507W        W82575  13.692  38.501  14.299
 9508W        W82576  17.324  24.667   3.228
 9509W        W82577  15.233  23.533   3.985
 9510W        W82578   2.245  38.924   1.564
 9511W        W82579   8.930  32.401   0.058
 9512W        W82580   2.967  38.636   0.206
 9513W        W82581   1.789  38.669  11.386
 9514W        W82582  33.042   2.375   0.933
 9515W        W82583   5.166  32.871  13.794
 9516W        W82584  34.468   5.774   4.403
 9517W        W82585  25.912  17.160  13.364
 9518W        W82586  40.042  29.425   1.260
 9519W        W82587  21.129   9.260  11.912
 9520W        W82588   8.109  18.107  13.040
 9521W        W82589  42.963  13.532  13.998
 9522W        W82590  19.722  12.648  10.858
 9523W        W82591   0.320  24.373   2.801
 9524W        W82592  17.180  21.496  10.707
 9525W        W82593  10.836   3.751  11.838
 9526W        W82594  43.236   7.707  11.299
 9527W        W82595  41.325  11.449  14.997
 9528W        W82596  41.431  42.479   2.799
 9529W        W82597  35.855  35.133   4.438
 9530W        W82598   6.286  29.473   3.631
 9531W        W82599  26.347  18.611   3.480
 9532W        W82600  15.092  16.553  13.044
 9533W        W82601   4.277  36.366   1.873
 9534W        W82602  35.642  37.700  13.463
 9535W        W82603  12.644   2.730   0.717
 9536W        W82604  44.556  31.618   0.056
 9537W        W82605  23.117  35.260   3.191
 9538W        W82606  40.956  38.628  12.882
 9539W        W82607  29.358  36.889  14.032
 9540W        W82608  22.300   9.603   3.555
 9541W        W82609  42.924   3.778  11.163
 9542W        W82610  26.841  21.597   0.483
 9543W        W82611  23.472   5.192  13.965
 9544W        W82612  37.755   7.647  10.768
 9545W        W82613   8.163  36.506   3.186
 9546W        W82614  39.623  10.658  11.138
 9547W        W82615  34.144   3.314   2.790
 9548W        W82616  21.284   6.266   1.933
 9549W        W82617  22.945  33.660  14.440
 9550W        W82618   8.433  28.293  14.842
 9551W        W82619  43.375   1.842   0.272
 9552W        W82620  23.027   5.479  10.591
 9553W        W82621  25.078  35.398  14.848
 9554W        W82622  20.623  16.701   1.723
 9555W        W82623  30.009  15.609   1.685
 9556W        W82624   6.275  37.499  10.298
 9557W        W82625   4.760  30.001   3.367
 9558W        W82626   9.572   9.368  12.296
 9559W        W82627  22.159   9.817   4.288
 9560W        W82628  34.603  44.297   2.789
 9561W        W82629  13.556  21.613  12.108
 9562W        W82630  33.516   8.012   4.010
 9563W        W82631  18.074  14.331  11.983
 9564W        W82632  15.812   7.358  10.310
 9565W        W82633  24.116  15.125   0.601
 9566W        W82634  26.719  35.164  11.201
 9567W        W82635  38.303  43.674   4.177
 9568W        W82636  35.573   6.394  14.265
 9569W        W82637  22.771  43.709   4.194
 9570W        W82638  12.851  39.480   3.160
 9571W        W82639  31.810  37.109   3.866
 9572W        W82640  28.377  27.006   4.552
 9573W        W82641  22.013  27.661  11.661
 9574W        W82642  13.598  44.911  12.102
 9575W        W82643  25.811  26.303  11.043
 9576W        W82644   8.173  42.342   1.932
 9577W        W82645  24.558  18.165   3.228
 9578W        W82646   8.927  20.989  11.289
 9579W        W82647  38.823  19.502  11.629
 9580W        W82648   4.435   5.572  12.303
 9581W        W82649  23.691  35.355   1.038
 9582W        W82650  27.525  41.898   1.430
 9583W        W82651  21.659   1.043  10.720
 9584W        W82652  11.588  37.595   5.036
 9585W        W82653  15.417  35.562  12.123
 9586W        W82654   1.804  13.706  10.670
 9587W        W82655   4.779   5.775   3.731
 9588W        W82656  14.773  12.091  13.960
 9589W        W82657  31.701  13.269  14.458
 9590W        W82658  44.838   0.541   1.742
 9591W        W82659  10.443  44.526   4.163
 9592W        W82660  31.930  31.175   2.826
 9593W        W82661  43.349  18.712   0.740
 9594W        W82662  23.491  43.056  10.677
 9595W        W82663   2.921  39.358   2.198
 9596W        W82664  33.373   1.359  14.855
 9597W        W82665  17.262  15.093  12.147
 9598W        W82666  19.005   4.615  12.507
 9599W        W82667  40.083   4.480   0.255
 9600W        W82668  41.742  38.022   4.138
 9601W        W82669  18.909  25.557   4.822
 9602W        W82670  13.143   7.117  12.390
 9603W        W82671  15.809  40.366   4.090
 9604W        W82672  35.003   9.787   1.486
 9605W        W82673  32.821   8.320  14.387
 9606W        W82674  36.061  14.377   0.276
 9607W        W82675   2.218  29.503  11.457
 9608W        W82676  12.497   2.295   4.194
 9609W        W82677   6.775   7.665   0.379
 9610W        W82678  14.796  29.684  11.155
 9611W        W82679  39.808  16.571   0.128
 9612W        W82680  19.185   4.785   3.684
 9613W        W82681  13.698  41.533   1.684
 9614W        W82682  29.586  35.009  11.618
 9615W        W82683   0.513  11.226  13.416
 9616W        W82684   7.659  18.486  12.275
 9617W        W82685  34.067  18.500   1.694
 9618W        W82686  17.678  24.720  13.791
 9619W        W82687  20.750  23.528   2.662
 9620W        W82688  29.869  37.122  10.697
 9621W        W82689  22.493  40.158   1.782
 9622W        W82690   5.069  23.611   2.545
 9623W        W82691  16.111  37.972  13.364
 9624W        W82692  26.182  38.337   1.816
 9625W        W82693  39.961  35.049  12.044
 9626W        W82694  15.223  35.482   4.374
 9627W        W82695  29.156  39.837   3.107
 9628W        W82696  24.669  38.411   1.851
 9629W        W82697  33.204  30.984   0.881
 9630W        W82698  30.110  35.167   4.647
 9631W        W82699  13.286  21.800   2.226
 9632W        W82700  41.298  13.180   1.338
 9633W        W82701  18.662  22.704   2.206
 9634W        W82702  21.131   9.726   4.139
 9635W        W82703  24.303  33.515   4.523
 9636W        W82704  14.971  17.143  11.367
 9637W        W82705  23.617  42.262   3.606
 9638W        W82706  15.194   7.393   4.649
 9639W        W82707  18.818  35.041   2.398
 9640W        W82708   9.711  34.840  13.672
 9641W        W82709   8.654  36.177   2.771
 9642W        W82710  19.782  22.990  11.131
 9643W        W82711  35.279   5.648  11.999
 9644W        W82712   0.379  23.649  11.225
 9645W        W82713  21.529  11.634  11.315
 9646W        W82714  17.625  23.099   0.797
 9647W        W82715   8.416  34.374   1.152
 9648W        W82716  20.677  33.918   2.833
 9649W        W82717  32.912   8.909  13.050
 9650W        W82718  18.043  19.681   4.895
 9651W        W82719  20.923  41.215  10.609
 9652W        W82720  19.453   6.019  10.967
 9653W        W82721  22.765   4.108  10.551
 9654W        W82722  34.598  24.584   1.769
 9655W        W82723   2.047  42.571   1.948
 9656W        W82724  31.138  38.040   4.016
 9657W        W82725  22.925  32.425   1.233
 9658W        W82726  16.117  36.411   1.229
 9659W        W82727  13.782  23.164   0.665
 9660W        W82728  28.060  20.295  12.039
 9661W        W82729  24.007  24.535  11.278
 9662W        W82730  34.510  35.622  14.897
 9663W        W82731   8.833  12.577  12.521
 9664W        W82732   5.807  21.352  13.083
 9665W        W82733  38.798  25.193   4.105
 9666W        W82734   3.709  10.763   4.572
 9667W        W82735   7.758  43.298   1.650
 9668W        W82736  26.798   9.710   4.096
 9669W        W82737  17.067  18.688  11.854
 9670W        W82738  19.217  28.649   0.317
 9671W        W82739  25.678   5.743   1.302
 9672W        W82740  19.760   0.960   2.179
 9673W        W82741   0.300  38.891  13.097
 9674W        W82742  23.565  36.580  12.788
 9675W        W82743   6.270  20.139  13.023
 9676W        W82744  27.133   0.420  13.124
 9677W        W82745  14.507  39.534   3.372
 9678W        W82746  30.312   1.303  11.548
 9679W        W82747  14.123   7.729  14.860
 9680W        W82748  19.522  30.711  10.374
 9681W        W82749  33.381   7.816  12.426
 9682W        W82750   8.520  34.417  10.698
 9683W        W82751  15.052  14.703  14.095
 9684W        W82752   4.308  28.444  12.671
 9685W        W82753   1.664  42.248   3.353
 9686W        W82754  35.427  36.949   2.583
 9687W        W82755  28.056  17.474  12.193
 9688W        W82756  35.007  43.042  14.466
 9689W        W82757  10.715   9.177   0.780
 9690W        W82758   5.224  35.962   1.218
 9691W        W82759   7.288  37.883  14.392
 9692W        W82760  30.137   2.313  14.777
 9693W        W82761  26.865  14.184  11.191
 9694W        W82762  21.209  37.909   1.687
 9695W        W82763  18.117  11.365   4.284
 9696W        W82764  31.968  40.416  12.601
 9697W        W82765  30.507  34.763   4.559
 9698W        W82766   0.148  29.788  13.377
 9699W        W82767  11.882  30.843  10.796
 9700W        W82768  32.630   1.005   4.258
 9701W        W82769  38.537  41.815  10.993
 9702W        W82770  16.455  22.828  12.563
 9703W        W82771  38.989  42.696   1.244
 9704W        W82772  42.842  44.689  14.866
 9705W        W82773  15.538  39.044   4.552
 9706W        W82774  16.062  42.047  10.724
 9707W        W82775   5.298  29.646   2.203
 9708W        W82776  14.198  26.496   0.220
 9709W        W82777  25.099   3.771  11.241
 9710W        W82778  33.675  25.419   0.660
 9711W        W82779  39.003  31.840   4.090
 9712W        W82780  42.622  41.384  11.224
 9713W        W82781  32.208   2.850  12.867
 9714W        W82782  36.041  16.553   2.281
 9715W        W82783   2.361  21.547   4.715
 9716W        W82784   0.969  29.906   2.931
 9717W        W82785   3.918  33.303   2.334
 9718W        W82786  43.297  18.186   4.611
 9719W        W82787  20.570  14.084  11.159
 9720W        W82788   9.494  26.847  13.298
 9721W        W82789  12.418  22.806   4.010
 9722W        W82790  28.714  32.417  13.236
 9723W        W82791  33.914  24.685   4.910
 9724W        W82792  15.519  39.781  11.507
 9725W        W82793   9.249   1.072   3.528
 9726W        W82794   2.199  26.694  10.649
 9727W        W82795  31.371  25.994  13.520
 9728W        W82796  36.459  37.636   1.640
 9729W        W82797  29.181  34.566   0.450
 9730W        W82798   2.329  31.934  12.523
 9731W        W82799  43.381   5.233  12.577
 9732W        W82800   8.653   4.768   2.258
 9733W        W82801   0.421  24.520  10.687
 9734W        W82802  21.584  20.607   3.187
 9735W        W82803  31.429  39.202  11.075
 9736W        W82804   0.525  36.206   3.777
 9737W        W82805  41.314  12.302   4.216
 9738W        W82806   2.452  43.715  14.037
 9739W        W82807  43.978  29.904   1.359
 9740W        W82808  29.417  23.746  12.707
 9741W        W82809  15.111   2.251   3.775
 9742W        W82810   5.838  34.415   3.721
 9743W        W82811   9.853   2.834   4.117
 9744W        W82812   4.435  31.613   4.562
 9745W        W82813  37.136  40.698   1.513
 9746W        W82814  11.561  28.165  10.013
 9747W        W82815  18.111  13.865   2.210
 9748W        W82816  26.926  43.366   3.362
 9749W        W82817  42.771  24.282  10.938
 9750W        W82818  24.396   2.533  10.859
 9751W        W82819  31.953  36.307   2.281
 9752W        W82820   0.959   6.742  12.902
 9753W        W82821  39.022  35.180   2.894
 9754W        W82822  30.301  38.311  14.431
 9755W        W82823  23.495  17.978   2.727
 9756W        W82824  13.339   8.136   3.271
 9757W        W82825  44.703  38.837   1.906
 9758W        W82826   8.485  30.598  13.038
 9759W        W82827   0.944   3.616  13.622
 9760W        W82828   5.344  39.008   2.939
 9761W        W82829  41.040  40.919  11.259
 9762W        W82830  18.631  24.997   1.530
 9763W        W82831  36.869  39.455   3.245
 9764W        W82832   6.737   9.797  13.797
 9765W        W82833  22.122  43.041   4.028
 9766W        W82834   3.919  43.289   2.959
 9767W        W82835  23.537  25.740  14.407
 9768W        W82836  34.157   9.402  11.505
 9769W        W82837   8.771  12.216   0.377
 9770W        W82838  34.313  21.724  11.989
 9771W        W82839  12.634  31.382   1.656
 9772W        W82840  34.692  26.586  12.064
 9773W        W82841  33.649   1.800  12.951
 9774W        W82842  26.772   8.784   4.203
 9775W        W82843  38.453  11.320   2.461
 9776W        W82844   6.382   2.192   1.841
 9777W        W82845  14.207  44.976   3.017
 9778W        W82846  34.361  27.014  12.767
 9779W        W82847   3.837   8.675   2.826
 9780W        W82848  24.125  11.286   1.308
 9781W        W82849  15.757   6.662  11.068
 9782W        W82850  19.596  22.135  10.752
 9783W        W82851  31.947  11.792   4.582
 9784W        W82852  35.408  29.486   3.990
 9785W        W82853  16.837  26.302  12.486
 9786W        W82854   1.343  18.894  12.913
 9787W        W82855  15.424  33.116   4.123
 9788W        W82856   4.768   0.850  13.453
 9789W        W82857   2.856   2.526   1.774
 9790W        W82858  27.253   0.510  12.288
 9791W        W82859  21.945  28.652  14.711
 9792W        W82860  29.474  38.585   4.284
 9793W        W82861  19.652   6.634  10.930
 9794W        W82862  41.245  15.115   3.396
 9795W        W82863  11.190  41.893   3.669
 9796W        W82864  19.123  19.847   1.808
 9797W        W82865  29.956   0.993   4.134
 9798W        W82866  41.722  12.970  12.946
 9799W        W82867  24.538  35.026   1.220
 9800W        W82868   4.175  11.790  12.480
 9801W        W82869  30.553  33.682  10.843
 9802W        W82870  30.631  16.797   2.700
 9803W        W82871  16.178  27.213  12.626
 9804W        W82872   7.795  24.278  14.501
 9805W        W82873  41.258  35.447   3.254
 9806W        W82874   6.985  19.092  10.994
 9807W        W82875  19.645   4.480   1.882
 9808W        W82876  15.729   3.425   5.233
 9809W        W82877  34.985  41.425  10.344
 9810W        W82878  20.174  18.362  14.585
 9811W        W82879  35.314  19.127   0.844
 9812W        W82880   7.379  30.171   4.092
 9813W        W82881  23.639  39.895   1.935
 9814W        W82882   0.719  10.133  12.369
 9815W        W82883  29.686  14.615  13.584
 9816W        W82884  22.425  17.270  12.054
 9817W        W82885  37.139  34.115   5.059
 9818W        W82886  36.456   9.343  14.721
 9819W        W82887   4.203  44.026   1.274
 9820W        W82888   3.305  30.003  14.547
 9821W        W82889  22.564  37.879   0.954
 9822W        W82890  41.585  16.526  11.475
 9823W        W82891   1.241  44.450  12.438
 9824W        W82892  28.108   4.682  12.075
 9825W        W82893  43.822  20.997  14.951
 9826W        W82894  24.404  26.960   0.220
 9827W        W82895   4.256  36.569   3.914
 9828W        W82896  29.197  30.246   2.230
 9829W        W82897  40.781  42.342  10.762
 9830W        W82898  31.304   0.831  12.360
 9831W        W82899   4.995  37.603  14.503
 9832W        W82900   5.349  25.538  11.320
 9833W        W82901  23.347  41.465  11.638
 9834W        W82902  42.559   3.667  10.820
 9835W        W82903   2.955  13.525  12.517
 9836W        W82904  20.150   9.079  13.936
 9837W        W82905  11.391   2.289  11.995
 9838W        W82906  16.717  20.790   1.631
 9839W        W82907  29.869  32.260  14.801
 9840W        W82908  38.376   8.648   0.824
 9841W        W82909  35.882   0.494   1.020
 9842W        W82910  23.089  28.390  13.304
 9843W        W82911  12.824   2.325   1.021
 9844W        W82912   8.599  28.234  11.110
 9845W        W82913  16.638  19.192   2.401
 9846W        W82914  40.765   6.845   0.169
 9847W        W82915  44.135   1.315  13.531
 9848W        W82916  24.662  32.252   3.267
 9849W        W82917   2.026  11.134   1.166
 9850W        W82918  43.503  18.665   2.124
 9851W        W82919   3.823  18.291  10.620
 9852W        W82920   1.187  44.268  14.323
 9853W        W82921   4.648  17.562  12.536
 9854W        W82922   2.906  35.517   4.269
 9855W        W82923  28.062  34.648  13.525
 9856W        W82924  25.467  29.897   2.701
 9857W        W82925  33.544  30.432   0.617
 9858W        W82926   2.696  20.963   1.796
 9859W        W82927  19.350  23.262   1.768
 9860W        W82928  23.137  24.441  11.710
 9861W        W82929  30.687   9.713   0.472
 9862W        W82930   0.735  38.942  14.764
 9863W        W82931  23.745  37.570  13.372
 9864W        W82932   3.539  22.502  14.548
 9865W        W82933  35.406  32.607  12.342
 9866W        W82934  21.349  42.343  12.969
 9867W        W82935   4.343  27.960  11.760
 9868W        W82936  34.871   6.721   3.568
 9869W        W82937  17.116  25.597  10.707
 9870W        W82938  28.731  20.112   0.338
 9871W        W82939  39.027  32.578  14.474
 9872W        W82940  20.465   4.192  11.385
 9873W        W82941  20.211  24.499  12.120
 9874W        W82942  27.682  28.006   3.337
 9875W        W82943  37.921   6.732  13.269
 9876W        W82944  41.911   6.186  11.581
 9877W        W82945  19.223  25.394   3.854
 9878W        W82946  19.995  33.584  13.372
 9879W        W82947  42.467  22.317   1.537
 9880W        W82948  22.634  23.564  14.586
 9881W        W82949  12.662  40.583  10.927
 9882W        W82950  35.005  42.809  12.428
 9883W        W82951   1.520  44.488  11.062
 9884W        W82952   4.979  21.635  11.878
 9885W        W82953  39.079  40.307  14.939
 9886W        W82954  18.995  30.010  11.480
 9887W        W82955  24.680  11.271   0.911
 9888W        W82956  43.082  12.829   0.215
 9889W        W82957  42.070  28.829  13.092
 9890W        W82958  41.084  24.309  13.038
 9891W        W82959  22.452  11.222  14.063
 9892W        W82960  23.337  10.373   4.080
 9893W        W82961  10.774  36.961   4.269
 9894W        W82962   6.317  42.080   1.875
 9895W        W82963  14.792  24.676   4.017
 9896W        W82964  28.065   4.828   3.481
 9897W        W82965   7.217  27.086  12.976
 9898W        W82966  22.045   3.527  12.630
 9899W        W82967  39.804  19.779   2.299
 9900W        W82968  36.636   0.079   3.948
 9901W        W82969  42.263  33.856  11.502
 9902W        W82970  17.074  35.127   2.969
 9903W        W82971   6.340  34.051  14.833
 9904W        W82972  38.874  10.393  12.054
 9905W        W82973  18.815   1.413  12.031
 9906W        W82974   1.933   6.920   3.640
 9907W        W82975   4.459  14.802   3.693
 9908W        W82976  31.733   5.965  11.611
 9909W        W82977  25.994  44.053   1.408
 9910W        W82978  10.309   2.820   3.872
 9911W        W82979  11.077   0.729  14.359
 9912W        W82980  41.817  44.782   1.205
 9913W        W82981  17.545  15.658  10.661
 9914W        W82982   6.742  13.660   2.162
 9915W        W82983   2.713  14.097  12.939
 9916W        W82984  23.125  43.410   3.619
 9917W        W82985   7.178  36.261   4.866
 9918W        W82986   7.160   9.290   0.968
 9919W        W82987  23.087   5.695  14.015
 9920W        W82988  35.354  33.506  12.421
 9921W        W82989  19.647  34.850  11.141
 9922W        W82990  18.126  13.097   1.026
 9923W        W82991  12.807  44.964   2.930
 9924W        W82992   4.905   5.161  14.870
 9925W        W82993  38.887  14.585  12.974
 9926W        W82994   3.015  42.242   2.033
 9927W        W82995  27.998  13.359  14.819
 9928W        W82996   5.706  44.232   3.204
 9929W        W82997  41.051  44.299  14.309
 9930W        W82998  31.633   5.231   4.736
 9931W        W82999  32.175   8.211   1.692
 9932W        W83000  12.635  22.202  10.640
 9933W        W83001  20.833  38.273  11.242
 9934W        W83002  27.583  19.500   4.205
 9935W        W83003   4.308  44.324  13.925
 9936W        W83004  21.020  15.531  12.721
 9937W        W83005   3.446  19.759   4.182
 9938W        W83006   0.593  17.651   1.608
 9939W        W83007  37.550  40.719   1.210
 9940W        W83008  44.428   3.101  10.589
 9941W        W83009   3.786  27.225  12.583
 9942W        W83010  17.429   3.147  11.885
 9943W        W83011  13.311  18.478  13.490
 9944W        W83012  33.509   6.812   0.848
 9945W        W83013   7.127  39.871   3.487
 9946W        W83014   6.062  28.567  14.432
 9947W        W83015  43.852   7.337   3.574
 9948W        W83016  12.587  12.344  11.599
 9949W        W83017  10.127  31.042  13.839
 9950W        W83018  19.049  28.574   1.244
 9951W        W83019  11.078  17.001  11.926
 9952W        W83020   8.433  21.570   2.662
 9953W        W83021  18.083   0.221  13.942
 9954W        W83022  17.516  15.670  13.034
 9955W        W83023  34.095  22.513  14.973
 9956W        W83024   5.013  11.854   1.957
 9957W        W83025  38.076  25.265  12.965
 9958W        W83026  41.533   6.244   5.050
 9959W        W83027  30.899  20.529  12.155
 9960W        W83028  41.792   1.403  11.619
 9961W        W83029   4.225  14.404   1.242
 9962W        W83030  17.230  10.785   3.162
 9963W        W83031  23.209  34.312  11.519
 9964W        W83032   9.280  40.458  12.915
 9965W        W83033  39.450  28.107   1.403
 9966W        W83034  20.917  35.886  12.926
 9967W        W83035  13.621   4.167  12.973
 9968W        W83036  41.368   9.358   1.487
 9969W        W83037  24.010  19.562  14.201
 9970W        W83038  30.410  10.882   1.777
 9971W        W83039  36.582   5.830  13.063
 9972W        W83040  22.513   6.940   3.371
 9973W        W83041  17.601  30.125   2.777
 9974W        W83042   4.674  37.045  10.643
 9975W        W83043  29.912  16.059  12.548
 9976W        W83044  31.199   2.098  13.383
 9977W        W83045   9.268  10.166  13.914
 9978W        W83046  23.774  40.983   0.919
 9979W        W83047  26.920  18.766  12.038
 9980W        W83048  23.505   4.866  13.422
 9981W        W83049  18.922   9.022   3.740
 9982W        W83050  29.081  42.590  10.460
 9983W        W83051  30.917  20.935   1.841
 9984W        W83052  16.660  44.439   0.759
 9985W        W83053  16.303   0.419  14.355
 9986W        W83054  43.896   4.510  14.387
 9987W        W83055   3.454   8.422   3.197
 9988W        W83056  30.519  13.104  14.561
 9989W        W83057   2.271   9.265   0.257
 9990W        W83058  25.541   2.754   2.379
 9991W        W83059  20.059  18.291   1.417
 9992W        W83060  26.868  42.354   2.342
 9993W        W83061  38.914  29.471  10.790
 9994W        W83062   2.765  11.446   2.193
 9995W        W83063  28.854  29.205  13.364
 9996W        W83064  39.562  36.963  12.840
 9997W        W83065  10.249  28.641  13.814
 9998W        W83066   6.462  24.146   0.024
 9999W        W83067   4.443   6.153   3.645
10000W        W83068   9.238   1.468   4.456
10001W        W83069   9.452   6.669   2.015
10002W        W83070  23.079   4.938  10.584
10003W        W83071  28.151  40.278   2.198
10004W        W83072  26.507  41.560   3.681
10005W        W83073  21.666  33.599  10.675
10006W        W83074  16.822  17.019   3.729
10007W        W83075  43.540  44.852  14.401
10008W        W83076  33.402   6.930  10.214
10009W        W83077  27.628  17.179   4.592
10010W        W83078  17.854   8.891  14.482
10011W        W83079  13.608  34.553   2.360
10012W        W83080   5.509  39.356   4.812
10013W        W83081   3.045  29.502  10.879
10014W        W83082  34.922  22.108  13.232
10015W        W83083  42.274   2.640   1.283
10016W        W83084  36.350  39.971  14.747
10017W        W83085  11.219   6.810  12.963
10018W        W83086  13.683  29.631   4.139
10019W        W83087   1.564  20.093   1.834
10020W        W83088   7.388  32.650  14.292
10021W        W83089  36.193  24.801  11.580
10022W        W83090  26.430  39.345   0.233
10023W        W83091  36.655  14.688  13.836
10024W        W83092  41.442   3.479   0.406
10025W        W83093  31.531  43.310   4.797
10026W        W83094   1.557  30.901  11.115
10027W        W83095   1.988  12.342   4.544
10028W        W83096  21.596  38.651  11.543
10029W        W83097   7.317  26.670  10.225
10030W        W83098  10.680  11.273   4.582
10031W        W83099  20.031  36.041   3.644
10032W        W83100  10.337  16.586   5.814
10033W        W83101  19.667  19.195   4.293
10034W        W83102  32.653  35.013  10.710
10035W        W83103  18.078  30.349   3.406
10036W        W83104  35.312  28.363   0.185
10037W        W83105   7.735  32.445   0.920
10038W        W83106  35.956   8.666   3.752
10039W        W83107  38.374  10.582   0.301
10040W        W83108  39.376  34.446   2.387
10041W        W83109  34.916  10.955  14.851
10042W        W83110  25.592  13.553  10.491
10043W        W83111   2.228  24.635  12.560
10044W        W83112   7.265  40.551   5.054
10045W        W83113  26.703   3.991   4.530
10046W        W83114  41.746  37.378  11.513
10047W        W83115  33.061  36.896  10.354
10048W        W83116  42.235   1.930   2.204
10049W        W83117  43.858  37.807  14.918
10050W        W83118  21.220  41.845  14.957
10051W        W83119  12.299  28.820  14.055
10052W        W83120  39.020  27.665   1.880
10053W        W83121   3.206  41.964  10.779
10054W        W83122  34.571  18.170   4.259
10055W        W83123   2.082  30.754  14.350
10056W        W83124  20.284   4.210  12.382
10057W        W83125  14.212  11.148   2.790
10058W        W83126  17.823  13.148   0.200
10059W        W83127  11.607  11.210  14.072
10060W        W83128  11.853  35.450  11.932
10061W        W83129   7.706  35.036  10.747
10062W        W83130  12.775  21.041  14.861
10063W        W83131  31.900  39.338   0.207
10064W        W83132  31.452  23.548   4.686
10065W        W83133   6.395   6.978  12.810
10066W        W83134  33.084  20.323   0.295
10067W        W83135  13.247   6.221   0.421
10068W        W83136   9.636  21.963   3.222
10069W        W83137  31.003  23.824   4.539
10070W        W83138  34.975  16.819   4.882
10071W        W83139  14.982  44.604   3.201
10072W        W83140   2.835  39.961   3.301
10073W        W83141  13.631  30.425   4.643
10074W        W83142  20.514  30.274  14.565
10075W        W83143  35.905  29.559   1.325
10076W        W83144  28.181  31.523  13.533
10077W        W83145  16.194  40.583  13.365
10078W        W83146  22.719  16.157  13.883
10079W        W83147   4.945  30.047  13.886
10080W        W83148  33.772   5.214   4.140
10081W        W83149  19.976  21.754   3.721
10082W        W83150  19.927  19.353   2.850
10083W        W83151  19.271   9.675   1.674
10084W        W83152  26.679  26.206  12.798
10085W        W83153  23.353  11.870  11.709
10086W        W83154   9.894   9.836  10.459
10087W        W83155  20.225   4.956   1.266
10088W        W83156  33.698  23.285   2.292
10089W        W83157   5.780  12.639   1.372
10090W        W83158  20.636  11.072   3.394
10091W        W83159  31.187  10.627  11.125
10092W        W83160  20.052  29.568   5.025
10093W        W83161  17.259   6.678   2.878
10094W        W83162   9.798  31.935   2.182
10095W        W83163   0.965   4.775   2.756
10096W        W83164  43.502  31.187   1.258
10097W        W83165  12.647  41.902  11.874
10098W        W83166   6.847  38.952   4.749
10099W        W83167  27.423  34.825  14.271
10100W        W83168   5.337   4.278   2.855
10101W        W83169  29.980   6.380  12.865
10102W        W83170   2.900  17.526   1.394
10103W        W83171  39.207  26.768  11.116
10104W        W83172   2.508   4.825   1.975
10105W        W83173  36.386  11.311   4.460
10106W        W83174  39.271  43.523  11.992
10107W        W83175  24.939  41.349  13.523
10108W        W83176   6.648  28.463  14.385
10109W        W83177  34.833  12.636  13.942
10110W        W83178  42.648  31.332  13.067
10111W        W83179  29.033   2.950  11.629
10112W        W83180  34.636   1.965   2.986
10113W        W83181  33.104  24.693  12.647
10114W        W83182  32.954  13.719  13.379
10115W        W83183  12.287  30.032   0.488
10116W        W83184  32.438  44.491  11.184
10117W        W83185   6.386  43.891  11.060
10118W        W83186  24.326  17.085  11.297
10119W        W83187  24.966  15.234  12.456
10120W        W83188  38.167   0.416  10.238
10121W        W83189   9.046  23.682  12.036
10122W        W83190  30.488   6.241  12.915
10123W        W83191  37.297  12.293   1.774
10124W        W83192   5.693  13.910   0.162
10125W        W83193  38.963  20.680  11.130
10126W        W83194  41.543  24.532   0.305
10127W        W83195  15.677   4.464  13.612
10128W        W83196  21.579  35.327   2.685
10129W        W83197  13.167  12.644   1.517
10130W        W83198  32.114  36.986  12.470
10131W        W83199  27.399  12.152  13.737
10132W        W83200  19.733   0.929   0.354
10133W        W83201  33.694  24.438   0.499
10134W        W83202  43.759   9.102  12.529
10135W        W83203  19.583   3.487  14.437
10136W        W83204  24.176  41.851  11.666
10137W        W83205   8.736  15.520  12.814
10138W        W83206  27.427  23.725  11.367
10139W        W83207  15.205  27.722  14.105
10140W        W83208  35.810  39.209  11.909
10141W        W83209  19.141  20.093  13.403
10142W        W83210  42.366  37.622   0.882
10143W        W83211  18.651   0.383  13.909
10144W        W83212  16.245  38.904   3.782
10145W        W83213   9.541  40.152   5.406
10146W        W83214  12.134  13.235  13.809
10147W        W83215  44.278  43.928   0.709
10148W        W83216  35.277  10.864   2.620
10149W        W83217  26.321  11.958  14.030
10150W        W83218   8.851   0.271  13.599
10151W        W83219   8.050   0.963   1.094
10152W        W83220  27.095  40.221  11.227
10153W        W83221  32.865  19.712  12.031
10154W        W83222   4.502   1.201   2.622
10155W        W83223  13.830  28.694  12.620
10156W        W83224   6.927  34.842  11.199
10157W        W83225  11.403  26.471  14.383
10158W        W83226  28.180  10.328   1.467
10159W        W83227  42.124  16.571  12.076
10160W        W83228  18.593  31.107  14.376
10161W        W83229  10.410  41.826   0.406
10162W        W83230  28.688  29.105  13.918
10163W        W83231  27.493  37.821   3.452
10164W        W83232   6.189  24.443  12.427
10165W        W83233  33.406  39.500  11.466
10166W        W83234  34.813  20.142   1.349
10167W        W83235  20.876  30.571   1.918
10168W        W83236  33.944  15.778   1.275
10169W        W83237  20.694  13.232   4.217
10170W        W83238  43.800  25.766  11.947
10171W        W83239  18.596  22.302   3.421
10172W        W83240  24.034   6.404   4.155
10173W        W83241  35.284  32.630   1.573
10174W        W83242  12.690  25.092   3.666
10175W        W83243  20.813   1.922   3.823
10176W        W83244  26.970   0.046  11.571
10177W        W83245  43.786  38.907  14.290
10178W        W83246  21.107   2.706  14.650
10179W        W83247  38.722  37.403   2.320
10180W        W83248  14.373  19.766  14.908
10181W        W83249  28.567  36.087   1.332
10182W        W83250  20.423  16.558   0.746
10183W        W83251  41.232  13.764  10.426
10184W        W83252  44.929  22.080   3.936
10185W        W83253  28.658  41.327  11.094
10186W        W83254   0.542  28.560   3.820
10187W        W83255  21.727  30.748   4.266
10188W        W83256  28.653  30.849   3.665
10189W        W83257  39.763  26.439  12.861
10190W        W83258  26.291  10.244  14.366
10191W        W83259   1.034   0.272   2.432
10192W        W83260  43.365  42.085  10.418
10193W        W83261  40.363  28.661  13.917
10194W        W83262  19.006   9.105  12.057
10195W        W83263   2.984  26.953   2.278
10196W        W83264  25.724  22.590   0.486
10197W        W83265   3.485  30.496  10.756
10198W        W83266   6.805  18.005  13.402
10199W        W83267  25.673   6.821  14.783
10200W        W83268  33.985   6.122  14.763
10201W        W83269  14.097   8.211   1.869
10202W        W83270  17.992  43.934  13.913
10203W        W83271  13.861  11.903   0.680
10204W        W83272  24.535  32.758   3.286
10205W        W83273  14.790   8.202   3.666
10206W        W83274   7.448  13.778  14.774
10207W        W83275  19.213  34.748   0.982
10208W        W83276   9.159  11.192   1.454
10209W        W83277   4.086  15.639   1.081
10210W        W83278   9.488  24.494   1.328
10211W        W83279   6.851  44.362  14.525
10212W        W83280   2.434  44.138  14.854
10213W        W83281   9.764  14.123  13.519
10214W        W83282  22.059   1.222   0.348
10215W        W83283  20.695  26.937   2.778
10216W        W83284  42.764  34.848  10.748
10217W        W83285  34.554  19.344   1.958
10218W        W83286   6.234  13.748   0.948
10219W        W83287  13.159  16.356  12.330
10220W        W83288  31.458  30.021   3.111
10221W        W83289  40.734  32.956  11.025
10222W        W83290  16.315  42.485  11.561
10223W        W83291  42.488  22.794   1.329
10224W        W83292  23.722  15.197   0.948
10225W        W83293  16.819  19.054  14.898
10226W        W83294   7.836  17.799   3.630
10227W        W83295  20.562  36.367   4.037
10228W        W83296  17.797   2.255   0.517
10229W        W83297  37.744  27.556   1.813
10230W        W83298  12.568  16.425   3.248
10231W        W83299  19.306  34.832  14.462
10232W        W83300   5.703  41.052   0.297
10233W        W83301  14.757  28.613  13.045
10234W        W83302   0.283   9.915   3.150
10235W        W83303   2.645   9.079   3.572
10236W        W83304   5.349  25.676  10.825
10237W        W83305  18.260  10.800   4.570
10238W        W83306  17.604  28.021  13.427
10239W        W83307   8.392   9.424   2.244
10240W        W83308  36.464  44.030  14.478
10241W        W83309  27.774  36.035  11.622
10242W        W83310  42.720  40.013  13.012
10243W        W83311  39.044  41.324  13.050
10244W        W83312  43.866   2.735  14.318
10245W        W83313  41.178  36.963   3.266
10246W        W83314  24.522  19.863  12.003
10247W        W83315  20.243  17.978  14.911
10248W        W83316  37.358   0.741  11.387
10249W        W83317  32.088  28.981   4.536
10250W        W83318   6.738  26.062   0.514
10251W        W83319  24.592  42.278   2.887
10252W        W83320  25.776  31.894  11.214
10253W        W83321   6.690   9.570  11.905
10254W        W83322  10.197   8.235  11.666
10255W        W83323  36.689  42.833  10.681
10256W        W83324   3.377  40.651   3.181
10257W        W83325  14.723  12.911  14.376
10258W        W83326   4.055   3.551  11.594
10259W        W83327  35.914  11.077  13.891
10260W        W83328   5.887  20.977  14.777
10261W        W83329   4.284  43.133   1.363
10262W        W83330  34.110  16.549  10.315
10263W        W83331  43.540  23.942   2.521
10264W        W83332  38.309   8.442   1.299
10265W        W83333   6.200  39.066  14.715
10266W        W83334   9.139   1.936   2.782
10267W        W83335  43.732   5.703  12.985
10268W        W83336  22.413   9.116   3.770
10269W        W83337  31.903  23.815   1.308
10270W        W83338   4.644  26.455  14.356
10271W        W83339  44.070  16.229   2.777
10272W        W83340   3.898  12.644   1.331
10273W        W83341   7.869  27.676   0.888
10274W        W83342  14.069  18.705  13.023
10275W        W83343   4.979  37.102  11.979
10276W        W83344   2.218  21.120  14.015
10277W        W83345   0.159  32.042   1.304
10278W        W83346   0.504  26.330   2.610
10279W        W83347  23.460  37.363  14.764
10280W        W83348   1.260  20.919   1.789
10281W        W83349  24.534  36.583  11.293
10282W        W83350  16.592  16.560  11.497
10283W        W83351   6.840  32.624  13.825
10284W        W83352  42.829  20.513  12.577
10285W        W83353  21.798  14.297  10.734
10286W        W83354  14.286  38.923  12.673
10287W        W83355  23.672  19.643   0.980
10288W        W83356   5.299   5.167   2.220
10289W        W83357   0.858  23.357  13.958
10290W        W83358  10.888   2.563   0.621
10291W        W83359  26.910  22.940   2.375
10292W        W83360  26.979  34.532   4.691
10293W        W83361  17.662  18.611  12.104
10294W        W83362  36.998  12.187   3.214
10295W        W83363   0.254  13.235  13.180
10296W        W83364  15.403   1.230   2.699
10297W        W83365  36.936   1.474   2.227
10298W        W83366  32.005  17.698   1.614
10299W        W83367   8.358  44.096  12.138
10300W        W83368   4.392  16.776  13.631
10301W        W83369  37.110   8.774  13.873
10302W        W83370  32.685  30.944   3.092
10303W        W83371  27.339  41.359   2.579
10304W        W83372  18.485  23.388   0.675
10305W        W83373  23.716  18.073   1.886
10306W        W83374  16.236  34.433  11.618
10307W        W83375  36.987  23.435  13.032
10308W        W83376   2.475  20.998   3.693
10309W        W83377  43.865   7.167  12.800
10310W        W83378  39.485  42.929   1.256
10311W        W83379  19.488   6.999   3.678
10312W        W83380  41.453   3.373  13.489
10313W        W83381   0.378  24.298  14.894
10314W        W83382  16.488  24.102   4.461
10315W        W83383  11.284  12.361  12.933
10316W        W83384  26.587   5.684   0.650
10317W        W83385  36.355   7.767  10.565
10318W        W83386  43.335  24.695  12.052
10319W        W83387   7.972  25.109  10.813
10320W        W83388  12.672   9.409  14.215
10321W        W83389  28.000   2.516  12.590
10322W        W83390  34.806   3.749  11.079
10323W        W83391   7.399  19.113  14.903
10324W        W83392   4.639  43.961  14.466
10325W        W83393  34.392   1.752   0.941
10326W        W83394  40.834   0.251   1.185
10327W        W83395  28.115  30.879   1.365
10328W        W83396  27.042  11.717   3.791
10329W        W83397   0.902  41.775  14.710
10330W        W83398   9.709  29.174  13.050
10331W        W83399  20.085   3.932   4.160
10332W        W83400  38.599  17.806   0.395
10333W        W83401   7.921  13.214  12.384
10334W        W83402  39.266   0.861  14.826
10335W        W83403  27.849  26.425  11.567
10336W        W83404  17.546  22.412   0.451
10337W        W83405  39.899   4.720  11.608
10338W        W83406  24.019  36.000   1.481
10339W        W83407  42.117  31.501  14.764
10340W        W83408   5.780  27.445  10.527
10341W        W83409  41.956  33.908   3.543
10342W        W83410  26.589   7.668   2.899
10343W        W83411  21.520  43.522  12.336
10344W        W83412  37.198  21.400   5.076
10345W        W83413   0.558  31.071   2.378
10346W        W83414  13.068  30.922   2.866
10347W        W83415  37.510  37.945   1.135
10348W        W83416  27.628  42.243  11.568
10349W        W83417   8.610  10.601   4.101
10350W        W83418  21.135  31.644  11.939
10351W        W83419  14.310  25.241   2.684
10352W        W83420  13.633  16.634  14.290
10353W        W83421  31.547  26.905   9.965
10354W        W83422  23.555  13.095  13.910
10355W        W83423  12.905  26.719  11.446
10356W        W83424  12.371  42.369  10.773
10357W        W83425  23.514  31.583   3.633
10358W        W83426  30.036  10.319  14.294
10359W        W83427  29.573   8.126   1.859
10360W        W83428  24.631  30.733  12.504
10361W        W83429  35.855  32.823   4.147
10362W        W83430  40.671  40.025  11.085
10363W        W83431  30.561   3.351  13.005
10364W        W83432  12.089  31.013  12.166
10365W        W83433  24.016   9.856  12.946
10366W        W83434  30.478  36.420   3.960
10367W        W83435   2.783  11.564   0.554
10368W        W83436  24.175  24.975   1.816
10369W        W83437  29.612   0.227   4.034
10370W        W83438  29.472  25.019   0.458
10371W        W83439  33.959  33.964  12.659
10372W        W83440  32.351  42.465   0.910
10373W        W83441  35.534  13.749  10.956
10374W        W83442  25.118  43.901  10.781
10375W        W83443  41.309  42.925   3.649
10376W        W83444  14.050  15.752   4.186
10377W        W83445   0.122  20.608  14.448
10378W        W83446  16.624  40.083   3.238
10379W        W83447  10.190  18.984   2.821
10380W        W83448  37.010  18.637   1.154
10381W        W83449  18.918  20.390   4.081
10382W        W83450  35.907  23.174   3.747
10383W        W83451   5.831  33.868   3.778
10384W        W83452   3.710  31.897  11.594
10385W        W83453  42.471  18.574  14.430
10386W        W83454  40.531  18.352   3.753
10387W        W83455  37.775  35.645  10.122
10388W        W83456  18.830  27.988  13.976
10389W        W83457   1.292   8.665   0.708
10390W        W83458   4.348   6.380  14.486
10391W        W83459  43.412   1.851  13.364
10392W        W83460  16.925  14.570   2.296
10393W        W83461   6.496   2.408  13.065
10394W        W83462  44.592  21.971  12.187
10395W        W83463  35.448  13.564   4.275
10396W        W83464  10.689  18.051  13.702
10397W        W83465  41.856  28.066   4.051
10398W        W83466  32.110  12.653   3.402
10399W        W83467  40.855  24.116   3.275
10400W        W83468  28.202  24.285   3.306
10401W        W83469  30.084  27.982  12.104
10402W        W83470   0.822  39.063  12.929
10403W        W83471  44.291  19.296  14.856
10404W        W83472   8.206   4.463   0.845
10405W        W83473  34.692   3.462   5.059
10406W        W83474  14.692   0.986  13.036
10407W        W83475  12.634  20.522  13.026
10408W        W83476  30.115  16.274   0.832
10409W        W83477   8.717  34.901   1.703
10410W        W83478  13.142  21.665   4.660
10411W        W83479  27.637  28.532   1.662
10412W        W83480  22.044  18.892   5.387
10413W        W83481  16.586   6.672   2.180
10414W        W83482   2.502   7.062  10.171
10415W        W83483   6.337  14.106  13.093
10416W        W83484  10.747   4.178  14.784
10417W        W83485  37.797  22.588  13.589
10418W        W83486  17.680   3.790  13.159
10419W        W83487  29.082  39.139   0.715
10420W        W83488  28.644  30.618   1.249
10421W        W83489   2.617  41.794   2.773
10422W        W83490  29.597  18.362  13.334
10423W        W83491  26.211  38.124   3.156
10424W        W83492  29.732  40.456  13.056
10425W        W83493  28.309  28.076   5.057
10426W        W83494   0.245  19.933  11.276
10427W        W83495   2.957  40.734  14.842
10428W        W83496   8.182  33.555   4.793
10429W        W83497  38.102  12.356   1.349
10430W        W83498  41.723  25.027  11.692
10431W        W83499  41.991   7.502  11.953
10432W        W83500   6.280  36.828   2.550
10433W        W83501  40.811  35.118  14.918
10434W        W83502  15.620   9.419   0.832
10435W        W83503  37.006  28.123   2.747
10436W        W83504  26.973   5.797   4.521
10437W        W83505  11.099  42.360   0.291
10438W        W83506  42.344  35.667   2.183
10439W        W83507   7.861   3.768   2.448
10440W        W83508  42.415  15.184  13.866
10441W        W83509   7.712  38.675  11.132
10442W        W83510  24.748   0.377   2.198
10443W        W83511   0.660  22.754   1.413
10444W        W83512  10.128   1.846   2.710
10445W        W83513  22.812  12.265   1.427
10446W        W83514  16.840  16.709  12.565
10447W        W83515  33.661  30.426  12.113
10448W        W83516  16.634  33.452   3.124
10449W        W83517  22.194  23.626   2.453
10450W        W83518  27.662  25.142  12.030
10451W        W83519  24.234   2.126  11.523
10452W        W83520  44.370   2.940   2.689
10453W        W83521  42.343   1.677   2.637
10454W        W83522  18.356  40.319   2.184
10455W        W83523   1.884  25.995  11.829
10456W        W83524  19.207  34.895   4.620
10457W        W83525  35.892  34.943  11.000
10458W        W83526  41.781   1.256   4.226
10459W        W83527   8.727  44.176   3.591
10460W        W83528  34.152  29.109  14.819
10461W        W83529  41.877  35.968  11.041
10462W        W83530  39.075  24.921   5.007
10463W        W83531  29.997  24.610  12.939
10464W        W83532  14.349  22.568   3.590
10465W        W83533  40.015  28.692  12.111
10466W        W83534   2.932  21.028  12.308
10467W        W83535  43.030  20.022   4.538
10468W        W83536   3.712  44.767  14.890
10469W        W83537  26.690  21.623   2.762
10470W        W83538  26.605  35.562  10.865
10471W        W83539  43.489   8.070   0.066
10472W        W83540  38.075   4.459  11.468
10473W        W83541  32.188   5.277   1.303
10474W        W83542  19.144   7.480  11.145
10475W        W83543  41.531   9.522   3.119
10476W        W83544   5.976  26.664   1.726
10477W        W83545  40.963  37.102  13.110
10478W        W83546  10.317   3.581   4.172
10479W        W83547  15.132   6.272  13.778
10480W        W83548  11.616  42.078   2.873
10481W        W83549  26.976  33.608  13.938
10482W        W83550  38.804   7.203  13.992
10483W        W83551  26.025  34.693   4.423
10484W        W83552  35.668  21.773   3.321
10485W        W83553  34.483  18.576  12.500
10486W        W83554  35.700   5.026   2.729
10487W        W83555  34.040  43.304  13.883
10488W        W83556   8.079  25.471   4.139
10489W        W83557  18.132  43.262  13.399
10490W        W83558  30.564  43.047   3.321
10491W        W83559  18.988   2.952   2.879
10492W        W83560  36.850  34.042   3.184
10493W        W83561   4.174   2.792  12.051
10494W        W83562  33.177  40.617   3.220
10495W        W83563  39.078  20.677   0.796
10496W        W83564  37.455  44.761   4.094
10497W        W83565  33.385  21.753   2.393
10498W        W83566  33.077  21.398  11.137
10499W        W83567  19.112  28.379   3.141
10500W        W83568  40.819  20.754  14.395
10501W        W83569  25.201  43.245   4.124
10502W        W83570  17.502  16.135  14.621
10503W        W83571   8.494  43.816  10.358
10504W        W83572  30.471  32.542  12.987
10505W        W83573  12.700   7.211  12.629
10506W        W83574   8.842  41.856   3.737
10507W        W83575  28.036  29.428  12.516
10508W        W83576  23.474  22.444  10.791
10509W        W83577  24.910   9.693   3.695
10510W        W83578  36.655  24.232   1.422
10511W        W83579  33.864  29.579  13.930
10512W        W83580  42.773   7.350  13.535
10513W        W83581  18.475  14.653   0.818
10514W        W83582  28.487   0.862  12.933
10515W        W83583   9.269  25.105   2.729
10516W        W83584   2.414   6.672   2.778
10517W        W83585   5.987  27.085   4.118
10518W        W83586  16.271  21.215   5.114
10519W        W83587   5.929  20.784  12.434
10520W        W83588   2.522  40.754  11.108
10521W        W83589  43.516  17.517  13.783
10522W        W83590  40.591  37.846   0.928
10523W        W83591  20.621  11.384   1.538
10524W        W83592  31.645  12.210   4.559
10525W        W83593  28.243  38.556  14.328
10526W        W83594  31.139  27.602  12.580
10527W        W83595   3.402  13.864   4.176
10528W        W83596  41.239   9.482   2.712
10529W        W83597  25.686  22.582  12.022
10530W        W83598  11.849   7.787   2.813
10531W        W83599  17.630  10.153   3.215
10532W        W83600  25.719  27.249  11.174
10533W        W83601  28.048  26.738  11.198
10534W        W83602   8.785  15.836   2.825
10535W        W83603  35.387  24.174   1.898
10536W        W83604  32.793   0.761   3.825
10537W        W83605  34.752  25.437   3.238
10538W        W83606  40.439  31.854   3.212
10539W        W83607  29.763  42.521  14.792
10540W        W83608  28.379  33.406  11.087
10541W        W83609   4.390  23.846   9.932
10542W        W83610   5.193  33.679   3.296
10543W        W83611  15.324  19.247   3.211
10544W        W83612  34.795  27.163   1.714
10545W        W83613   8.234   8.683   4.595
10546W        W83614  10.667  33.139  11.633
10547W        W83615  33.012  28.946   3.521
10548W        W83616  41.322  42.975  11.509
10549W        W83617  16.068  33.436  10.702
10550W        W83618  14.643  25.439   4.915
10551W        W83619  23.523  19.015   2.836
10552W        W83620  11.239   7.097   4.872
10553W        W83621  38.281  44.875  14.727
10554W        W83622  16.485   5.001  10.360
10555W        W83623  24.240  27.272   2.258
10556W        W83624  17.651  27.216   1.861
10557W        W83625   7.870  33.983  13.442
10558W        W83626  27.213  38.078   4.632
10559W        W83627   2.198   1.239  12.877
10560W        W83628  18.158   5.746   2.252
10561W        W83629  21.594  21.477   0.004
10562W        W83630  37.757  34.156   4.377
10563W        W83631  24.519  34.335  11.601
10564W        W83632  39.533  19.519  11.870
10565W        W83633   8.595  23.234  10.822
10566W        W83634  39.026  30.573   3.774
10567W        W83635  13.108  16.289   3.985
10568W        W83636  24.619  33.376   1.325
10569W        W83637  24.575   7.101   0.257
10570W        W83638  28.231  42.236  14.884
10571W        W83639  18.121  30.312  10.910
10572W        W83640  22.564  26.496   4.604
10573W        W83641  29.367   3.334  11.670
10574W        W83642  11.376  38.565  14.434
10575W        W83643  41.078  20.628   2.740
10576W        W83644   6.108  32.588  14.873
10577W        W83645  18.910   4.738  11.069
10578W        W83646  21.514  44.694  10.942
10579W        W83647  30.611  23.775   3.336
10580W        W83648  40.492  35.169  12.086
10581W        W83649  27.000  21.506  11.617
10582W        W83650  44.192   8.476  10.673
10583W        W83651  36.972   0.454   3.822
10584W        W83652  19.099  16.165  14.376
10585W        W83653   3.271   3.303   4.118
10586W        W83654  40.245  38.111   4.293
10587W        W83655   3.821  33.069  13.440
10588W        W83656  22.927  11.815  10.070
10589W        W83657  41.440  27.677   1.018
10590W        W83658   2.836  23.327   4.909
10591W        W83659  25.708  20.623  12.098
10592W        W83660  24.040  14.398  14.006
10593W        W83661  22.651  15.103   0.184
10594W        W83662  31.375   0.426  11.577
10595W        W83663  15.141  37.341   4.658
10596W        W83664   0.119  11.389   1.296
10597W        W83665  30.526  17.098  12.953
10598W        W83666  34.999  20.572   4.566
10599W        W83667  19.140  33.932  14.977
10600W        W83668  21.017  30.658  11.062
10601W        W83669  41.328  34.331   1.921
10602W        W83670  39.769  20.573  14.791
10603W        W83671  15.890  12.733  14.953
10604W        W83672  30.297  19.353   0.368
10605W        W83673   1.839  11.814  10.830
10606W        W83674  24.729   5.717   2.742
10607W        W83675  15.446   8.951   1.722
10608W        W83676   3.529  38.669  10.258
10609W        W83677  13.582  25.686   0.432
10610W        W83678   7.657  27.669  12.316
10611W        W83679  24.240   6.724   1.660
10612W        W83680   6.958  29.550   1.413
10613W        W83681   3.696  26.052  14.363
10614W        W83682   8.376   1.055   1.529
10615W        W83683  18.567  28.557   1.415
10616W        W83684  42.806  25.662   1.295
10617W        W83685  38.718  34.373  13.338
10618W        W83686   2.164  16.302   3.843
10619W        W83687  41.278   4.214  13.037
10620W        W83688  24.584   8.147   3.366
10621W        W83689  26.039  22.287   1.671
10622W        W83690  34.857  39.134   2.261
10623W        W83691  16.966  24.133  12.084
10624W        W83692  23.674  16.692   0.122
10625W        W83693  21.940  27.977  10.153
10626W        W83694  38.084  33.576   3.581
10627W        W83695  18.702  26.740  11.356
10628W        W83696  26.911  26.764   3.198
10629W        W83697  24.775  33.039  13.482
10630W        W83698  20.976  10.120  12.819
10631W        W83699  13.211  27.207   2.680
10632W        W83700  11.182  13.150  14.547
10633W        W83701   0.736  12.414   0.372
10634W        W83702  27.987   8.835  13.299
10635W        W83703  16.610   7.574   2.794
10636W        W83704  34.365  28.139  13.482
10637W        W83705  39.432  43.500  14.940
10638W        W83706  37.878  44.558  10.678
10639W        W83707   5.191  10.912   0.265
10640W        W83708  33.055  21.191   1.262
10641W        W83709  34.941  33.074  13.180
10642W        W83710  34.463  12.589  14.298
10643W        W83711  29.408  12.111  14.967
10644W        W83712  18.635  41.244  14.612
10645W        W83713  32.016  25.969   1.908
10646W        W83714  11.418   5.220   1.518
10647W        W83715  10.481  41.547  12.670
10648W        W83716  41.186  33.655  14.819
10649W        W83717  36.870  18.611   4.606
10650W        W83718   9.378   4.444   3.424
10651W        W83719  10.445  16.319  13.972
10652W        W83720  26.059  19.996   3.913
10653W        W83721  42.930  31.933  12.040
10654W        W83722  18.216  15.416  10.946
10655W        W83723  37.689  17.792   4.206
10656W        W83724  12.505   3.581  13.798
10657W        W83725  44.562  15.030   2.801
10658W        W83726  15.614  39.003   1.354
10659W        W83727  41.748   4.346   0.171
10660W        W83728  27.958   6.362   4.516
10661W        W83729  17.264  40.270  11.869
10662W        W83730  24.612   8.720   1.223
10663W        W83731  38.102  10.667  12.823
10664W        W83732  15.075  30.578  10.837
10665W        W83733  26.740  31.028  12.572
10666W        W83734  17.624  40.318   2.709
10667W        W83735  29.961  31.206   2.469
10668W        W83736   2.800  11.138  12.363
10669W        W83737  25.242   2.443  12.402
10670W        W83738  18.821  31.402  11.662
10671W        W83739  18.690  41.817  13.999
10672W        W83740   4.747   8.920   1.362
10673W        W83741  24.944  16.622   3.882
10674W        W83742  15.756  43.797  13.835
10675W        W83743  25.996  28.391  10.694
10676W        W83744  24.994  36.126  13.683
10677W        W83745  28.346  27.951   1.310
10678W        W83746   8.835  37.178  10.839
10679W        W83747  41.052  35.867  12.609
10680W        W83748  43.722  35.524   2.350
10681W        W83749  26.198  19.281  12.390
10682W        W83750  33.022  32.910  11.580
10683W        W83751  25.082   3.014  13.318
10684W        W83752  27.218  43.476  13.115
10685W        W83753  18.083   7.286  10.723
10686W        W83754   8.142  36.472  12.340
10687W        W83755  43.137  34.076  11.608
10688W        W83756   2.970  44.056  14.038
10689W        W83757  26.374  37.546  10.444
10690W        W83758  29.786  18.341   4.920
10691W        W83759  19.121  10.403  12.491
10692W        W83760  41.078  38.601   4.218
10693W        W83761  18.970  39.049  14.798
10694W        W83762  10.429  26.044   0.853
10695W        W83763  27.408  12.417   0.959
10696W        W83764  25.443  16.829  11.810
10697W        W83765  19.752  19.101  11.018
10698W        W83766  24.285  12.825   0.078
10699W        W83767  11.750  27.182   3.303
10700W        W83768   3.686  15.732   0.751
10701W        W83769   2.949  12.146   4.594
10702W        W83770  31.059   3.697  13.081
10703W        W83771  12.135  14.138  13.965
10704W        W83772   1.938  27.018   2.254
10705W        W83773   5.643   8.925   1.475
10706W        W83774  44.014  27.421  14.881
10707W        W83775  17.661  37.706  13.110
10708W        W83776  32.395  29.240  14.340
10709W        W83777  26.544  29.628  13.838
10710W        W83778  12.759  35.833  13.052
10711W        W83779  13.715  23.001   4.555
10712W        W83780  25.091  10.805   5.077
10713W        W83781  14.541   5.051   3.375
10714W        W83782   8.397  10.729   3.600
10715W        W83783   7.756  19.685  12.293
10716W        W83784  37.609   2.027   4.151
10717W        W83785  14.123  34.490   0.546
10718W        W83786  15.675   0.034  11.483
10719W        W83787  34.428  21.436  12.895
10720W        W83788  27.440  24.566   3.243
10721W        W83789  41.377   3.884  12.631
10722W        W83790  33.261  34.557   4.218
10723W        W83791  32.930  15.038   2.751
10724W        W83792  16.195  29.503   2.144
10725W        W83793  19.247  37.452   4.475
10726W        W83794  20.188  35.363  11.201
10727W        W83795   4.606  13.667  12.042
10728W        W83796  14.317   4.447  14.783
10729W        W83797  25.119   4.409   0.234
10730W        W83798  19.480  40.263  10.626
10731W        W83799  24.371  21.683   3.321
10732W        W83800  44.054  24.089  11.611
10733W        W83801  24.718  37.941  12.607
10734W        W83802  19.174  31.630   3.195
10735W        W83803  33.656   4.065  13.842
10736W        W83804  21.802  19.580  11.142
10737W        W83805  41.054  12.184   3.101
10738W        W83806  14.796  15.558   1.709
10739W        W83807  35.923  11.366  11.902
10740W        W83808  33.628  39.562   0.190
10741W        W83809  12.785  37.118   3.459
10742W        W83810   7.909   9.787  11.464
10743W        W83811  21.246  23.927  14.885
10744W        W83812  39.031   0.728   0.984
10745W        W83813  42.486  20.944  11.132
10746W        W83814  14.350  31.273   0.692
10747W        W83815  23.541  12.602   1.763
10748W        W83816   9.614  20.088  14.679
10749W        W83817  41.988  44.706   1.699
10750W        W83818  27.872  27.166   4.588
10751W        W83819  16.399  37.204  13.146
10752W        W83820  36.908   4.359   3.016
10753W        W83821  20.830  21.505  14.498
10754W        W83822  14.143   1.015   4.516
10755W        W83823  19.515  16.064   3.276
10756W        W83824   0.828  36.107  13.879
10757W        W83825  33.054   3.697   4.064
10758W        W83826  36.508  43.921  12.572
10759W        W83827   6.952   1.034  12.895
10760W        W83828  24.161  43.060  11.186
10761W        W83829  33.153  34.609  12.092
10762W        W83830  20.795  26.699  14.483
10763W        W83831   5.866  44.042  14.125
10764W        W83832  13.617  23.725   3.310
10765W        W83833  33.432  29.670   4.059
10766W        W83834  43.027  19.053  11.644
10767W        W83835  44.962   2.406  12.045
10768W        W83836  31.333  24.888  12.661
10769W        W83837  41.598  11.130  11.927
10770W        W83838  41.750   6.128  11.112
10771W        W83839   0.219  41.323   1.528
10772W        W83840  16.108  30.668  13.973
10773W        W83841   1.787   8.953  13.884
10774W        W83842  41.636  24.437  12.982
10775W        W83843  27.865  17.498  14.891
10776W        W83844  25.800   3.586   2.776
10777W        W83845  27.071  37.582   4.810
10778W        W83846  27.930   7.891  12.864
10779W        W83847  40.255  24.437  13.040
10780W        W83848  13.809   0.882   1.047
10781W        W83849   9.780  30.050   4.338
10782W        W83850   9.786  13.245   4.019
10783W        W83851  19.858  12.926  11.271
10784W        W83852  19.675  14.569   2.501
10785W        W83853  25.918  10.730   0.793
10786W        W83854   4.642  26.574   4.154
10787W        W83855  43.797  40.944  10.792
10788W        W83856  21.526  19.766   1.356
10789W        W83857  19.726   6.294  12.951
10790W        W83858  15.456  11.048   3.401
10791W        W83859  14.742  34.177   1.388
10792W        W83860   1.510  23.580  10.678
10793W        W83861  22.284  20.705  13.061
10794W        W83862   2.516   2.392   0.011
10795W        W83863   1.002  34.349  12.434
10796W        W83864   9.241  27.644   2.901
10797W        W83865  24.540   8.904  14.906
10798W        W83866  20.753   6.892   0.407
10799W        W83867  39.852   2.663  12.496
10800W        W83868  31.643  29.992  13.915
10801W        W83869  33.039  11.834   3.722
10802W        W83870  10.866  41.007   2.625
10803W        W83871   7.287  36.405   0.158
10804W        W83872  11.890  40.319   3.062
10805W        W83873  33.574  40.781   5.189
10806W        W83874  24.334  19.581   0.192
10807W        W83875   5.869   1.317   4.627
10808W        W83876  41.427  30.074   1.331
10809W        W83877  11.257  39.077   3.690
10810W        W83878   5.792  32.688  10.709
10811W        W83879  29.758  20.812   4.199
10812W        W83880  19.120  30.225   1.223
10813W        W83881  34.902   1.097   2.722
10814W        W83882   3.824  11.137  10.965
10815W        W83883  17.228  30.720   0.455
10816W        W83884   7.304   6.318  13.252
10817W        W83885  10.810   8.765  14.562
10818W        W83886  43.284  14.715  10.605
10819W        W83887  16.766  31.105   4.277
10820W        W83888  42.887   6.099  12.790
10821W        W83889  20.499  43.484  12.059
10822W        W83890  18.195  12.758   0.219
10823W        W83891  25.641   9.964   1.399
10824W        W83892  34.652  15.306   3.001
10825W        W83893  23.956  17.744  14.366
10826W        W83894  30.661  28.697   4.264
10827W        W83895  13.421  28.217  10.623
10828W        W83896  21.575  23.707  12.020
10829W        W83897  26.277   7.954  13.401
10830W        W83898  35.140   5.275  12.361
10831W        W83899  33.896   8.715   5.139
10832W        W83900  42.947   1.375   4.921
10833W        W83901  18.703   4.875   2.368
10834W        W83902  17.798  38.910  14.522
10835W        W83903  21.500   0.979   5.499
10836W        W83904  16.257   9.403  12.006
10837W        W83905  38.970  26.037  11.546
10838W        W83906  28.101   0.553  11.001
10839W        W83907  30.208  18.727   4.039
10840W        W83908  36.850  32.463   3.808
10841W        W83909   9.224  11.140   0.934
10842W        W83910  10.410  44.924   4.498
10843W        W83911  24.823   5.004   4.936
10844W        W83912   3.969   5.268   0.930
10845W        W83913  16.632  42.520  12.504
10846W        W83914  12.246   8.900  12.779
10847W        W83915  29.600  15.971  13.962
10848W        W83916  30.053  35.922  11.119
10849W        W83917   5.140  22.611  11.908
10850W        W83918  29.413  41.981   2.817
10851W        W83919  17.907  28.889   2.133
10852W        W83920  21.082  18.320  11.169
10853W        W83921  20.181  29.884   4.627
10854W        W83922  18.618   8.399   0.287
10855W        W83923  35.915  40.434   4.860
10856W        W83924  30.147   8.237  10.403
10857W        W83925  28.349  24.123   2.052
10858W        W83926   1.764  20.649  14.230
10859W        W83927   9.775  40.180   0.518
10860W        W83928   0.334  29.944  12.164
10861W        W83929  34.488  33.498  12.123
10862W        W83930  16.820  30.775  12.907
10863W        W83931  34.259   0.997  11.425
10864W        W83932  20.913  16.668  11.244
10865W        W83933  32.628  15.116  10.867
10866W        W83934  12.895  37.327   4.335
10867W        W83935   4.217  44.797   0.850
10868W        W83936   7.397  37.048   3.254
10869W        W83937  16.157  40.905   3.258
10870W        W83938  18.561  20.288  10.927
10871W        W83939  42.983  40.428   0.528
10872W        W83940   9.193   3.656   1.842
10873W        W83941  17.234  21.587   3.338
10874W        W83942   0.790   0.822  12.372
10875W        W83943  32.896  43.395   0.177
10876W        W83944  36.185  32.953   3.589
10877W        W83945   4.243   1.940  14.757
10878W        W83946  25.703  21.541  14.917
10879W        W83947   2.841  39.688  12.085
10880W        W83948  12.329  23.502   3.817
10881W        W83949  14.619  20.410   4.417
10882W        W83950   3.463  19.936  10.536
10883W        W83951  19.775   9.755  10.721
10884W        W83952  37.388  12.045   3.755
10885W        W83953  44.903  21.179   3.056
10886W        W83954  10.760  38.128  11.525
10887W        W83955  15.846   8.225   1.457
10888W        W83956  29.854  19.948  10.973
10889W        W83957  38.260   5.015  12.108
10890W        W83958  30.598   5.008   4.183
10891W        W83959  39.807  38.994  13.065
10892W        W83960   8.202  15.339   0.600
10893W        W83961  17.042  30.047  11.805
10894W        W83962  11.560  24.794  11.395
10895W        W83963  44.746  29.514   3.551
10896W        W83964  23.493  44.521   2.211
10897W        W83965   2.540  14.749  13.552
10898W        W83966  11.857  39.282  12.474
10899W        W83967   6.877   2.243   0.035
10900W        W83968  44.518  43.905  14.429
10901W        W83969   7.839  14.196   2.436
10902W        W83970   6.761  41.329  14.261
10903W        W83971  14.585  32.508  14.470
10904W        W83972   0.965  21.315  11.092
10905W        W83973  15.123   1.955  11.890
10906W        W83974  42.545  42.829  12.998
10907W        W83975  33.740  37.569   2.256
10908W        W83976   6.208  11.427   4.093
10909W        W83977  11.660  15.611  14.443
10910W        W83978  31.075  31.967  10.695
10911W        W83979  21.586  11.843   3.713
10912W        W83980  26.744   9.705  12.804
10913W        W83981   2.765  35.052   3.984
10914W        W83982  25.539   4.225   0.476
10915W        W83983  13.361  28.727  10.468
10916W        W83984  36.525  19.705  11.676
10917W        W83985  23.730  29.227  12.370
10918W        W83986  17.025  41.211  11.038
10919W        W83987  18.807  25.491   1.687
10920W        W83988   1.951   9.221   1.814
10921W        W83989  19.595  39.590  13.367
10922W        W83990  30.887  23.424  11.748
10923W        W83991  10.807   2.957   0.290
10924W        W83992  18.461  37.508  13.489
10925W        W83993   1.683  10.783  13.910
10926W        W83994  10.495  15.808  14.053
10927W        W83995  39.994  23.759   1.292
10928W        W83996  21.954   3.021   2.466
10929W        W83997  22.140  37.514   4.029
10930W        W83998  29.298  37.858  13.378
10931W        W83999  30.555  26.278   3.689
10932W        W84000  41.014  26.687   4.219
10933W        W84001  21.910  14.457  11.803
10934W        W84002  17.822  28.991   1.372
10935W        W84003   7.102   7.423   1.314
10936W        W84004  30.143  20.807   2.382
10937W        W84005  21.301  13.780   2.664
10938W        W84006   1.550  31.099  12.419
10939W        W84007   5.162  20.808   1.711
10940W        W84008   9.679  39.017   2.369
10941W        W84009   9.876  10.771   4.619
10942W        W84010  30.002   5.354  12.637
10943W        W84011  36.992  19.433   4.129
10944W        W84012   3.971   2.426   3.617
10945W        W84013   3.736  43.744   1.261
10946W        W84014  25.205  22.483   0.860
10947W        W84015  30.064  32.863   3.524
10948W        W84016  28.853  37.820   2.435
10949W        W84017  17.552   4.217  12.900
10950W        W84018  13.057  12.883  12.977
10951W        W84019  40.903  26.247  13.732
10952W        W84020   6.266  20.508  14.999
10953W        W84021  23.861  21.260   4.522
10954W        W84022   2.659  19.674  14.533
10955W        W84023  30.326  29.554  14.895
10956W        W84024  32.180  16.601   1.353
10957W        W84025  24.134  38.547   4.628
10958W        W84026   9.654  23.589   2.740
10959W        W84027   8.913  30.247   1.370
10960W        W84028  30.044  39.997   0.464
10961W        W84029  19.910  23.589  13.016
10962W        W84030  41.357  16.714   0.057
10963W        W84031  29.153  18.449   2.902
10964W        W84032   8.256   5.806   0.330
10965W        W84033   4.478  13.774  13.247
10966W        W84034   8.130  13.270  11.568
10967W        W84035  21.992  16.821   2.798
10968W        W84036  40.230  21.146   2.700
10969W        W84037  29.971  18.777   1.506
10970W        W84038   0.260  22.686   0.130
10971W        W84039  33.944  13.414  13.517
10972W        W84040   5.170  38.349   3.666
10973W        W84041   4.720  26.967  14.501
10974W        W84042   1.492  19.484   0.239
10975W        W84043  32.532  33.868  10.946
10976W        W84044   3.417  39.073   0.852
10977W        W84045  27.528  41.742  11.640
10978W        W84046  30.532  24.010   3.791
10979W        W84047  38.850  15.184  11.284
10980W        W84048  42.616   3.900  12.991
10981W        W84049   8.265  33.530  10.750
10982W        W84050  27.196  30.979   0.991
10983W        W84051  18.291  23.476  14.289
10984W        W84052   0.557  41.601  12.449
10985W        W84053  37.619   9.990  14.818
10986W        W84054  16.989  31.337  11.606
10987W        W84055  25.093   2.138   3.677
10988W        W84056  26.153  15.302  13.123
10989W        W84057  26.206  17.262  11.521
10990W        W84058  23.932  38.812   1.903
10991W        W84059   1.228  14.189  11.162
10992W        W84060   8.173  37.461   2.149
10993W        W84061  14.658  35.935  11.057
10994W        W84062  15.459   8.842  10.362
10995W        W84063  26.968  11.416  11.116
10996W        W84064  29.845   2.433  12.873
10997W        W84065  36.953  10.906  10.674
10998W        W84066   9.530   1.258   2.283
10999W        W84067  29.711   7.975  11.073
11000W        W84068  19.339  44.593  14.932
11001W        W84069  32.508  23.087  14.434
11002W        W84070   7.859  14.156   1.923
11003W        W84071  42.929  20.519   4.652
11004W        W84072  13.140  40.558   1.723
11005W        W84073  28.229   1.235  12.637
11006W        W84074   9.178   7.832   2.195
11007W        W84075  18.159   1.049  11.807
11008W        W84076  30.248  15.185   0.879
11009W        W84077  18.677  43.512   4.143
11010W        W84078  41.923   7.166  13.383
11011W        W84079  12.408  34.068   0.475
11012W        W84080  19.585  10.699   4.416
11013W        W84081   5.768   3.954  13.356
11014W        W84082  10.581  28.151   3.719
11015W        W84083  34.140   7.840  13.335
11016W        W84084  30.988  27.377   1.713
11017W        W84085   8.868  26.129  14.679
11018W        W84086  30.582  27.493  11.640
11019W        W84087  37.482   5.673   2.468
11020W        W84088  40.330  24.792  14.984
11021W        W84089  40.410  16.164   1.789
11022W        W84090  20.443   6.230   0.150
11023W        W84091  13.525   0.011   1.307
11024W        W84092  12.335  38.899  10.505
11025W        W84093  42.258   6.922   0.820
11026W        W84094  37.619  38.925  14.882
11027W        W84095  38.948  23.321  13.997
11028W        W84096  26.604  35.819  14.520
11029W        W84097  28.970  11.022   4.774
11030W        W84098   9.451  25.031   4.220
11031W        W84099  42.086   6.236  13.927
11032W        W84100  26.076  13.422  12.968
11033W        W84101  43.714  18.052  14.487
11034W        W84102  22.801  20.211   2.758
11035W        W84103  22.156  43.755   1.347
11036W        W84104   0.073  41.012   3.218
11037W        W84105  15.819  26.109   4.040
11038W        W84106  42.346  31.911   1.679
11039W        W84107  42.229  30.966  12.996
11040W        W84108  40.554  22.407   0.303
11041W        W84109  44.283  28.392  13.018
11042W        W84110   9.820  12.234  11.465
11043W        W84111  17.161  15.296   0.419
11044W        W84112  39.022  13.766  11.978
11045W        W84113   7.145  25.968   1.459
11046W        W84114  43.037  35.462   3.391
11047W        W84115  39.805  26.291  12.255
11048W        W84116  41.014  18.737   0.032
11049W        W84117  11.382  26.954  12.577
11050W        W84118   8.793  21.513   1.708
11051W        W84119  43.307  10.908   4.012
11052W        W84120  43.930  11.447  12.068
11053W        W84121  16.465  30.183  13.443
11054W        W84122  31.683  40.420  13.084
11055W        W84123  26.605  36.398  13.502
11056W        W84124   1.931  32.427   4.686
11057W        W84125  34.149  15.352   3.105
11058W        W84126  32.419  42.336  12.841
11059W        W84127  36.468  38.389   2.640
11060W        W84128  40.270  26.574   2.390
11061W        W84129  39.021   5.771  14.451
11062W        W84130   5.976  25.037  12.108
11063W        W84131  42.928  31.487  14.030
11064W        W84132  29.308  33.986   1.194
11065W        W84133   3.423  25.589   4.221
11066W        W84134  29.868  31.662   0.639
11067W        W84135  43.372  40.790  11.583
11068W        W84136  12.025  32.071  11.343
11069W        W84137  42.057  29.967   4.078
11070W        W84138  29.423  40.792   1.870
11071W        W84139  20.299  17.036  14.869
11072W        W84140  33.053   2.709   4.083
11073W        W84141  28.509  34.846  12.087
11074W        W84142  29.126  38.394  10.432
11075W        W84143   0.951  31.930   2.535
11076W        W84144   2.407  35.956   1.669
11077W        W84145  36.817  27.896   1.409
11078W        W84146  24.140  13.839  10.796
11079W        W84147  34.806   5.876  13.299
11080W        W84148  14.258  30.559  10.223
11081W        W84149  20.167  19.357   1.457
11082W        W84150  38.064  11.855   1.323
11083W        W84151  35.835  29.966   1.683
11084W        W84152  22.208  11.185   4.997
11085W        W84153  44.842  39.430   0.998
11086W        W84154   4.135  16.846   1.184
11087W        W84155  32.118  40.389   0.335
11088W        W84156   0.869  39.644  13.007
11089W        W84157  11.164  11.183  12.032
11090W        W84158  29.983  17.204   1.397
11091W        W84159  37.705   9.376  12.623
11092W        W84160  43.934  25.098  12.608
11093W        W84161  37.063  29.192   1.022
11094W        W84162   6.309  19.578  10.566
11095W        W84163   7.502   4.895  11.363
11096W        W84164  38.993  26.773   1.244
11097W        W84165  37.291  37.466   1.061
11098W        W84166  44.334   2.931   1.681
11099W        W84167  35.627  14.240  11.191
11100W        W84168  43.516  33.034   2.733
11101W        W84169  11.310  29.737  11.161
11102W        W84170  17.811  25.629  13.332
11103W        W84171  11.305  20.095  13.858
11104W        W84172  27.982  44.309   1.248
11105W        W84173   1.790  37.459   5.222
11106W        W84174   0.671  34.900  10.973
11107W        W84175  40.412  36.303   4.615
11108W        W84176   8.262  20.343  11.297
11109W        W84177  16.719  31.138   2.344
11110W        W84178  27.143  43.927  12.122
11111W        W84179  32.054  25.056  13.058
11112W        W84180  23.916  36.664  14.667
11113W        W84181  29.057  40.053  13.872
11114W        W84182  27.203   0.712   3.293
11115W        W84183  34.100  22.208   3.627
11116W        W84184  31.616  16.707   2.869
11117W        W84185  20.013  30.954  12.163
11118W        W84186  16.081  11.595   2.243
11119W        W84187  35.336  44.444  11.809
11120W        W84188  13.226  44.153   4.934
11121W        W84189  10.732   7.001  12.962
11122W        W84190  23.734  20.567   0.483
11123W        W84191  40.806  25.601  12.695
11124W        W84192   3.661  21.184   4.029
11125W        W84193  24.609  37.854   4.788
11126W        W84194   0.355   7.768  11.978
11127W        W84195  42.797  31.606  12.440
11128W        W84196  12.339  40.815  13.800
11129W        W84197  40.340  36.024   0.144
11130W        W84198  26.500  19.778   4.212
11131W        W84199  43.754  28.212  11.161
11132W        W84200   1.360  12.925  12.754
11133W        W84201   4.245  20.746  14.887
11134W        W84202  15.120  14.589   2.068
11135W        W84203  41.579   3.975   1.764
11136W        W84204  11.876  34.389  13.306
11137W        W84205   3.169   3.501  13.572
11138W        W84206   0.981  36.081   5.172
11139W        W84207   4.508  21.661  11.625
11140W        W84208   7.100  19.534   1.952
11141W        W84209  43.574   2.444   2.455
11142W        W84210  25.695  26.846  12.032
11143W        W84211  43.327  15.383  13.755
11144W        W84212  38.036  12.234   4.657
11145W        W84213  33.491  18.297   4.484
11146W        W84214   3.172  34.876  11.860
11147W        W84215  23.150   9.656  10.765
11148W        W84216  43.323  29.905  13.537
11149W        W84217   6.251  13.346   0.163
11150W        W84218  33.656  23.812  13.383
11151W        W84219  27.951   0.894   2.503
11152W        W84220  32.387   6.594   4.253
11153W        W84221  15.747   0.852  14.018
11154W        W84222  44.418   6.588  12.033
11155W        W84223  19.271   4.913  13.390
11156W        W84224  33.518  39.370  12.842
11157W        W84225  15.312  16.762   4.430
11158W        W84226  44.295   4.637   1.435
11159W        W84227  29.327   2.674  12.531
11160W        W84228  42.667  44.324   1.917
11161W        W84229  25.895  10.655  10.841
11162W        W84230  14.364  17.095   2.842
11163W        W84231   7.337  30.070  14.268
11164W        W84232   8.250   6.685   1.391
11165W        W84233  34.852  34.577   2.195
11166W        W84234  11.130  33.140   3.367
11167W        W84235  43.387  29.968   3.151
11168W        W84236  37.080   9.727   2.758
11169W        W84237  44.265   9.124  12.903
11170W        W84238  34.840  25.193  13.941
11171W        W84239   6.726  16.549  14.024
11172W        W84240  21.793  36.014   4.067
11173W        W84241   7.258  39.864  10.231
11174W        W84242  33.125  10.245  12.647
11175W        W84243  30.607  20.450   2.360
11176W        W84244  30.370  13.146  11.458
11177W        W84245  43.317  15.721  14.383
11178W        W84246  40.124  44.276  14.328
11179W        W84247  30.606  27.761   2.792
11180W        W84248  21.544   6.001   0.239
11181W        W84249  23.652  33.808  11.944
11182W        W84250  13.204  32.568   0.377
11183W        W84251   5.619  22.739  14.902
11184W        W84252  27.236  12.598   9.943
11185W        W84253  11.464  16.324  14.034
11186W        W84254  23.243  32.162   0.397
11187W        W84255  35.819  27.797  13.336
11188W        W84256  18.058  42.898   1.351
11189W        W84257  13.155  39.026   1.339
11190W        W84258   3.741  43.728   1.772
11191W        W84259  21.508  11.569   2.597
11192W        W84260  36.397   5.793   2.377
11193W        W84261  30.794  22.139   2.193
11194W        W84262  43.505   5.486   3.876
11195W        W84263  14.645   4.212   2.696
11196W        W84264   9.900  11.345   3.291
11197W        W84265  10.088  41.469  13.463
11198W        W84266  23.954  27.054   2.662
11199W        W84267  25.058  22.803  14.851
11200W        W84268  39.347   5.823   4.517
11201W        W84269  11.722  36.852   1.398
11202W        W84270   8.158  42.410   3.290
11203W        W84271  44.601   9.687  11.185
11204W        W84272  39.879  15.411  11.196
11205W        W84273  21.251  29.484   4.179
11206W        W84274  24.201  36.795  13.484
11207W        W84275  35.114  16.554  13.915
11208W        W84276  17.905  34.042   1.816
11209W        W84277   0.172   3.213   0.819
11210W        W84278  41.839  15.192   1.384
11211W        W84279  40.036  38.160   1.643
11212W        W84280  13.118  39.868  13.418
11213W        W84281  31.119  35.381   3.011
11214W        W84282  34.500  43.203  12.065
11215W        W84283  38.975   7.841   2.302
11216W        W84284  25.176  15.079  11.089
11217W        W84285   2.027   9.663  13.193
11218W        W84286  36.049  41.788   0.672
11219W        W84287   9.337  20.293   1.880
11220W        W84288  22.952  16.181   3.504
11221W        W84289   0.948   2.350  11.971
11222W        W84290  24.001  25.640  12.048
11223W        W84291   9.218  32.833  11.145
11224W        W84292   2.973  30.678  12.458
11225W        W84293  37.561  40.284   4.252
11226W        W84294  17.635   8.897  11.910
11227W        W84295  29.955  37.347  11.167
11228W        W84296  19.749  18.676   4.212
11229W        W84297  16.528  41.277   2.494
11230W        W84298  16.764  34.831   3.323
11231W        W84299   2.293  17.319  11.713
11232W        W84300  37.589  26.954   4.187
11233W        W84301  19.606   6.790  13.663
11234W        W84302  39.798  18.218  12.022
11235W        W84303  15.480  22.617   2.289
11236W        W84304  32.406  19.069  12.525
11237W        W84305  12.978  23.153  13.092
11238W        W84306  36.141   5.856   1.317
11239W        W84307   8.582  25.247  12.210
11240W        W84308  15.336  25.991   4.229
11241W        W84309  35.293  32.991   0.044
11242W        W84310  40.966  27.648   2.719
11243W        W84311   2.776  38.961   1.441
11244W        W84312  31.469  38.365  10.753
11245W        W84313  27.133   0.877  14.418
11246W        W84314   8.858   6.653   3.662
11247W        W84315  23.418  12.714  13.272
11248W        W84316   1.753   0.536   0.383
11249W        W84317  15.708  28.321   3.660
11250W        W84318  19.713  35.554   3.142
11251W        W84319   2.477  23.464  14.383
11252W        W84320  42.840  38.841   1.833
11253W        W84321   8.380  22.232  14.952
11254W        W84322  21.346  26.972  14.045
11255W        W84323  44.207  24.639  12.595
11256W        W84324  23.014  11.351   2.900
11257W        W84325  33.064  27.757   4.179
11258W        W84326  23.974  14.112  13.526
11259W        W84327   3.635   1.742   0.992
11260W        W84328  44.826  15.405   3.441
11261W        W84329   8.859  27.904  11.605
11262W        W84330  35.074   6.175   3.654
11263W        W84331  41.071  29.159  13.891
11264W        W84332  42.365  35.666  11.982
11265W        W84333   5.469   7.722   2.899
11266W        W84334  10.648  16.590  11.151
11267W        W84335  26.775   9.869  12.319
11268W        W84336  26.142   9.372   2.179
11269W        W84337  14.796  39.282   1.972
11270W        W84338  28.276  39.086   4.641
11271W        W84339  22.284  25.991  14.982
11272W        W84340  30.898  44.512  13.396
11273W        W84341   1.302  43.979  11.804
11274W        W84342  31.192  15.715  12.510
11275W        W84343  18.579  21.668  10.774
11276W        W84344  18.234  11.588  13.445
11277W        W84345  31.872  26.871  12.222
11278W        W84346  23.688  15.065   1.800
11279W        W84347   7.703  31.904  13.512
11280W        W84348  39.014  29.373  12.868
11281W        W84349  35.622  43.925  13.138
11282W        W84350  39.240  41.792   3.617
11283W        W84351  32.897  32.059  12.016
11284W        W84352  17.228  14.086   1.414
11285W        W84353  32.165  17.246   4.414
11286W        W84354   3.613  29.602  13.387
11287W        W84355  18.671  13.700  14.507
11288W        W84356  35.601  22.990   0.501
11289W        W84357  41.604   3.460  14.484
11290W        W84358   6.293  13.179  13.406
11291W        W84359  17.405  12.451  13.422
11292W        W84360  27.969  41.110   1.711
11293W        W84361  33.863   3.932   0.522
11294W        W84362   2.857  24.301  12.448
11295W        W84363  36.420  24.040   4.031
11296W        W84364  40.722   1.338  13.801
11297W        W84365  20.181  24.438  11.257
11298W        W84366  31.642  22.478   2.845
11299W        W84367  32.130  33.049  14.468
11300W        W84368  33.853  26.292  12.247
11301W        W84369  24.462  13.636   0.367
11302W        W84370  24.083  21.698   1.525
11303W        W84371  11.235  24.608  14.015
11304W        W84372   2.060   0.303  12.822
11305W        W84373  14.596  18.347   2.149
11306W        W84374  20.608  42.108   4.062
11307W        W84375   7.386   5.643  13.948
11308W        W84376  21.696  16.577  10.735
11309W        W84377  35.958  38.237  11.323
11310W        W84378  11.699   0.682  11.926
11311W        W84379   1.151  30.358  11.977
11312W        W84380  21.253  19.789   4.909
11313W        W84381  31.989  28.772  11.162
11314W        W84382   3.490  14.592   4.606
11315W        W84383  41.015  10.756   2.886
11316W        W84384   2.740  16.573   1.406
11317W        W84385  36.896  14.560  12.446
11318W        W84386  35.947   1.702  14.381
11319W        W84387  35.431   2.109   3.516
11320W        W84388  14.241   1.931   0.110
11321W        W84389  43.031  12.122  10.977
11322W        W84390  11.262  41.434   0.465
11323W        W84391   5.253  21.252   2.816
11324W        W84392  33.516  39.267   3.253
11325W        W84393  18.108  25.004  13.934
11326W        W84394   8.808  43.304   3.375
11327W        W84395  15.573   7.246   2.868
11328W        W84396  40.728  14.381  11.214
11329W        W84397  12.607  42.716  12.491
11330W        W84398  31.863   3.706  12.658
11331W        W84399  26.570  19.287   0.445
11332W        W84400  26.199  15.774   2.383
11333W        W84401  33.592   5.422  11.632
11334W        W84402  30.179  34.916   2.147
11335W        W84403  35.958  16.399  14.353
11336W        W84404  27.594  32.319  14.010
11337W        W84405  39.566  26.263   2.945
11338W        W84406  11.656   8.442   2.204
11339W        W84407  22.020  22.952  11.536
11340W        W84408  36.867  33.126   1.340
11341W        W84409   1.889  12.688   0.431
11342W        W84410  19.678  11.354   1.135
11343W        W84411  19.101  44.108  12.851
11344W        W84412  20.715  14.371   4.353
11345W        W84413   0.702  17.044   0.874
11346W        W84414  40.359  14.739  11.886
11347W        W84415  31.671  27.523  12.669
11348W        W84416  44.331  23.928  12.046
11349W        W84417  21.451  18.676  11.146
11350W        W84418  19.774   3.653  11.123
11351W        W84419   8.339  28.641  12.861
11352W        W84420  28.026  26.722  10.687
11353W        W84421  18.820  43.531  11.623
11354W        W84422  13.003  25.929  14.890
11355W        W84423  15.521  29.649   1.324
11356W        W84424  32.324  11.718   0.877
11357W        W84425  35.793  18.866   4.063
11358W        W84426  32.100   3.530   3.528
11359W        W84427  44.172  27.484   2.759
11360W        W84428  41.995  17.192   2.266
11361W        W84429  19.590  41.834   0.973
11362W        W84430  27.618  26.282  12.876
11363W        W84431  17.789  36.632  13.859
11364W        W84432   3.877  35.447   2.295
11365W        W84433  25.081  28.948   0.185
11366W        W84434  16.488   5.667   3.244
11367W        W84435   0.993  37.172   1.870
11368W        W84436  44.220  44.938  10.310
11369W        W84437   5.164  39.233   1.537
11370W        W84438   3.748   0.028   1.191
11371W        W84439  30.556  29.793  13.026
11372W        W84440  24.995  13.210   4.105
11373W        W84441   8.415   6.717   3.224
11374W        W84442   2.648   3.963   3.972
11375W        W84443  11.831  13.634  12.620
11376W        W84444  30.396  43.391   0.745
11377W        W84445  32.465  15.744  12.994
11378W        W84446  21.217   3.262   4.641
11379W        W84447  44.883   9.221   1.814
11380W        W84448  34.958  21.230  12.597
11381W        W84449   5.639   3.914   1.183
11382W        W84450  39.810  40.772  12.157
11383W        W84451  27.020  11.665   4.319
11384W        W84452   3.257   8.570  13.674
11385W        W84453  30.210   1.889   2.284
11386W        W84454  38.612   0.635  11.751
11387W        W84455  32.046  25.446   2.697
11388W        W84456  16.886  13.031   0.371
11389W        W84457   2.210  43.303   0.922
11390W        W84458   9.365   3.404   4.554
11391W        W84459   7.738   9.385  11.217
11392W        W84460  11.616  18.550  12.057
11393W        W84461  29.043   0.255  11.857
11394W        W84462   9.161  31.953   2.087
11395W        W84463  11.331  18.096  12.376
11396W        W84464   1.010   0.754  11.922
11397W        W84465  34.615   7.954   1.525
11398W        W84466  40.056  20.224  10.466
11399W        W84467  16.481  32.414   0.439
11400W        W84468  37.566  41.013   4.877
11401W        W84469  41.867  10.692  11.367
11402W        W84470   9.249  40.884  10.776
11403W        W84471   1.361   0.034  14.871
11404W        W84472  19.310  33.887   3.979
11405W        W84473   6.232  22.089  14.316
11406W        W84474  28.164  12.612  11.624
11407W        W84475  15.284   2.966  11.946
11408W        W84476   6.735  20.241  14.942
11409W        W84477  22.080   7.523  11.717
11410W        W84478  29.122  37.586  13.806
11411W        W84479  11.346  19.557  14.490
11412W        W84480  28.404   1.255   0.558
11413W        W84481  11.873  18.662  13.425
11414W        W84482  11.501   5.022   3.992
11415W        W84483  43.744   9.647   3.105
11416W        W84484   5.444  20.681   1.177
11417W        W84485  36.810  37.959   3.143
11418W        W84486  25.635  24.013  12.537
11419W        W84487   5.035  21.492  13.281
11420W        W84488  38.370  11.163  12.979
11421W        W84489  10.745   0.835  13.416
11422W        W84490  27.346  21.027   2.791
11423W        W84491   9.574  16.645  11.091
11424W        W84492  30.215  41.883  11.593
11425W        W84493   3.883  34.950   4.129
11426W        W84494  34.553  19.769  11.967
11427W        W84495  34.668   9.422  11.502
11428W        W84496  28.496  41.097   0.301
11429W        W84497  18.579   4.585   0.894
11430W        W84498  31.569  31.822  12.429
11431W        W84499  12.382  17.751  12.935
11432W        W84500  10.793   9.704   4.951
11433W        W84501  10.068  23.150   0.577
11434W        W84502  21.563  42.816   0.313
11435W        W84503  44.885  16.823   0.495
11436W        W84504  14.893   2.994   4.552
11437W        W84505  20.008  23.012   2.362
11438W        W84506  21.833  20.978   2.467
11439W        W84507  24.423  31.465  12.447
11440W        W84508   9.698   6.879  14.865
11441W        W84509  27.569   2.312   0.436
11442W        W84510   5.959  40.387  14.512
11443W        W84511  17.245  33.682   2.236
11444W        W84512   3.332  27.726  10.831
11445W        W84513  28.739  20.015   3.757
11446W        W84514   4.674  17.050   1.714
11447W        W84515  20.666  19.804   3.260
11448W        W84516   6.754  43.193   0.710
11449W        W84517   8.298  32.360   2.231
11450W        W84518   4.455  20.592  12.824
11451W        W84519   0.487  43.559  12.017
11452W        W84520   2.965  33.549  14.820
11453W        W84521  15.865  31.205   1.416
11454W        W84522  43.517   0.340  13.835
11455W        W84523  25.152  37.245   4.190
11456W        W84524   5.926  16.596  11.293
11457W        W84525   3.722   9.527  14.688
11458W        W84526  14.078  31.512   1.056
11459W        W84527  35.445   1.386   2.217
11460W        W84528   4.429   7.769   4.518
11461W        W84529   5.721  29.946  11.897
11462W        W84530  29.060  14.340   1.255
11463W        W84531   9.363   8.213   0.853
11464W        W84532   0.702  43.515   0.888
11465W        W84533   3.728  20.732  11.981
11466W        W84534  20.720  29.606   0.956
11467W        W84535  11.199  40.871   3.055
11468W        W84536   0.455  38.358  13.810
11469W        W84537  15.122  19.922  10.398
11470W        W84538  22.649  19.950   0.476
11471W        W84539  32.076   3.184   1.610
11472W        W84540  31.449  37.605   2.031
11473W        W84541  21.927  31.942   3.559
11474W        W84542   5.416  24.557   4.275
11475W        W84543   3.832   1.720  13.461
11476W        W84544   3.554  41.849   0.060
11477W        W84545  21.606  13.873   0.713
11478W        W84546  22.129   0.200  12.491
11479W        W84547  29.642   1.016   2.825
11480W        W84548   8.596  36.148  13.527
11481W        W84549   7.428  38.551   3.148
11482W        W84550  22.728  38.436   2.240
11483W        W84551   0.900   9.160  11.864
11484W        W84552  18.930  30.386  14.446
11485W        W84553   4.829  30.685  12.438
11486W        W84554   7.989  42.419  13.810
11487W        W84555  37.425  19.316   5.005
11488W        W84556  42.338   0.692  10.469
11489W        W84557  26.599   6.883   4.175
11490W        W84558  39.596  19.165   4.453
11491W        W84559  34.653  10.214   0.776
11492W        W84560  41.264  11.879  11.537
11493W        W84561  18.013  22.512   2.253
11494W        W84562   0.250   1.487   3.490
11495W        W84563  19.683  18.324   5.075
11496W        W84564  36.157   0.022   4.165
11497W        W84565   4.779   5.791  14.095
11498W        W84566  21.138  21.245  14.860
11499W        W84567  39.546  17.823  10.657
11500W        W84568  24.651  25.252  10.999
11501W        W84569  36.281  31.980   2.302
11502W        W84570   0.687  17.014  11.987
11503W        W84571  22.131  36.130   1.344
11504W        W84572  36.284  37.938  11.582
11505W        W84573  12.754  36.045   3.397
11506W        W84574  23.530  37.894  11.033
11507W        W84575  10.917  25.124   3.227
11508W        W84576  27.729  21.643  12.830
11509W        W84577  40.218  36.964  13.290
11510W        W84578  29.666  23.437   3.244
11511W        W84579   0.364  43.500  14.701
11512W        W84580  39.788  29.477  13.894
11513W        W84581  38.379  36.033  14.532
11514W        W84582  33.852  27.026  12.973
11515W        W84583  40.211  10.164  11.652
11516W        W84584   4.536   0.282   3.173
11517W        W84585  29.362  24.447   4.070
11518W        W84586  22.519  12.157  10.117
11519W        W84587  28.388   0.812   3.406
11520W        W84588  16.573  25.820  12.430
11521W        W84589  41.311  19.622   4.372
11522W        W84590   2.403   4.737  14.633
11523W        W84591   2.934  10.147   4.595
11524W        W84592  41.315  35.589  13.964
11525W        W84593  33.431   3.831   1.827
11526W        W84594  31.518  14.491   1.669
11527W        W84595  20.690  14.569  11.167
11528W        W84596   4.832  37.744   2.556
11529W        W84597  34.624  31.820   0.339
11530W        W84598  24.479  22.155  11.633
11531W        W84599  20.264  39.971   1.812
11532W        W84600  21.732   3.568  14.829
11533W        W84601  35.114  11.677  13.646
11534W        W84602  17.248   3.895   3.246
11535W        W84603   2.867  34.633   3.656
11536W        W84604   6.787  36.919   0.451
11537W        W84605  17.614  29.130   0.931
11538W        W84606  33.524  33.545  10.997
11539W        W84607   5.799  27.223   1.336
11540W        W84608  21.574   9.063   4.811
11541W        W84609  36.189  38.837  14.505
11542W        W84610  22.406   3.474  13.008
11543W        W84611  35.175  11.703   4.580
11544W        W84612  10.707  30.946  10.672
11545W        W84613  13.037   0.320   2.170
11546W        W84614  21.622   9.664  11.183
11547W        W84615  39.528   6.897   1.837
11548W        W84616  32.435  36.864   4.631
11549W        W84617   3.748  30.459  12.046
11550W        W84618   5.745  13.209  10.424
11551W        W84619   0.678  12.212  11.556
11552W        W84620  19.745  35.072  12.047
11553W        W84621  23.213  40.272  11.088
11554W        W84622  42.590  18.823   4.996
11555W        W84623  34.398  32.689   1.719
11556W        W84624   1.255  28.404  12.653
11557W        W84625  25.957  43.873   0.533
11558W        W84626  35.976  21.775   1.683
11559W        W84627  25.665  39.920  11.166
11560W        W84628  22.628   2.458  12.981
11561W        W84629  14.658  42.356   4.186
11562W        W84630  21.119   6.272   5.024
11563W        W84631   4.793  29.636  14.882
11564W        W84632  19.602  24.769   0.755
11565W        W84633  29.097  14.347  12.386
11566W        W84634   9.835   3.016  11.343
11567W        W84635  40.423  40.648  10.765
11568W        W84636   1.422  28.465  14.934
11569W        W84637   9.897   3.214   2.694
11570W        W84638  13.932  15.246   1.710
11571W        W84639  40.716  12.737   0.770
11572W        W84640  14.756  37.938  11.971
11573W        W84641  23.530  17.533  13.428
11574W        W84642  37.943  25.520  12.539
11575W        W84643   5.727  39.909   1.781
11576W        W84644  10.763  34.520   5.056
11577W        W84645   1.961  41.424   4.601
11578W        W84646  27.671  21.753   4.843
11579W        W84647  10.602   3.403   0.465
11580W        W84648  30.601  25.758   3.725
11581W        W84649  23.196  38.978  14.455
11582W        W84650  41.400  40.405  13.265
11583W        W84651  27.226   1.648   3.764
11584W        W84652  29.008  32.888  12.033
11585W        W84653  36.995  39.380  10.665
11586W        W84654  23.764  40.107  11.154
11587W        W84655  34.498   6.965   1.200
11588W        W84656  23.910  30.454  10.267
11589W        W84657   1.552  40.002   1.328
11590W        W84658  18.554  36.799   3.268
11591W        W84659   9.789   6.664  11.185
11592W        W84660  40.443  33.856   0.841
11593W        W84661  39.864  36.885   4.095
11594W        W84662  14.742  26.462  11.025
11595W        W84663  21.494  44.181  11.111
11596W        W84664  17.989   8.421   1.663
11597W        W84665  23.700  27.576  11.596
11598W        W84666   7.268  34.894   4.208
11599W        W84667   7.820  40.504  13.871
11600W        W84668   7.948  41.554   1.476
11601W        W84669  16.253  38.015   2.342
11602W        W84670  24.472  13.873   0.852
11603W        W84671  20.048  28.247   1.284
11604W        W84672  43.377   1.327  11.640
11605W        W84673  21.820  18.901   3.675
11606W        W84674  27.152  13.723  11.767
11607W        W84675  17.358   4.734  14.724
11608W        W84676  44.969   2.402   0.700
11609W        W84677  32.352   9.300  14.256
11610W        W84678   5.251  34.238   2.557
11611W        W84679  30.612  29.378   1.333
11612W        W84680  44.515   0.919   1.947
11613W        W84681  25.627  24.662   0.323
11614W        W84682  20.544  22.245  13.955
11615W        W84683  19.656  17.399  13.460
11616W        W84684  42.550  32.119  11.072
11617W        W84685  29.937  34.173  10.679
11618W        W84686  13.747   9.293  14.237
11619W        W84687  37.140  35.549  12.581
11620W        W84688  42.758   4.856   0.703
11621W        W84689  31.187  38.062   2.728
11622W        W84690  31.607  13.816  10.810
11623W        W84691   3.891  35.587   1.338
11624W        W84692  23.750  23.994   3.722
11625W        W84693  26.712  14.626   1.492
11626W        W84694  21.109  31.624  11.415
11627W        W84695  17.385  29.008   2.159
11628W        W84696  42.856  32.103  14.394
11629W        W84697  27.989  21.811   0.639
11630W        W84698  42.290  21.910   1.815
11631W        W84699  35.921  31.020  12.494
11632W        W84700   2.238  18.962   5.254
11633W        W84701   6.729  33.403  14.992
11634W        W84702  32.992  22.739   4.538
11635W        W84703  26.540   5.401  13.609
11636W        W84704   2.258  21.498   0.505
11637W        W84705  33.557  17.275   4.600
11638W        W84706  28.396   2.395  14.339
11639W        W84707  40.344  24.599   0.936
11640W        W84708  37.949  43.991  14.452
11641W        W84709   5.139  12.855  10.444
11642W        W84710  44.868   7.598  11.426
11643W        W84711  21.074  14.128  11.270
11644W        W84712  35.512  15.211  12.961
11645W        W84713   1.587  24.644  11.267
11646W        W84714   6.487   0.731   1.842
11647W        W84715  40.538  14.161  10.776
11648W        W84716  36.396  22.470   3.058
11649W        W84717   9.679  10.255   3.366
11650W        W84718  12.645   4.443   4.738
11651W        W84719  44.338   4.886  13.102
11652W        W84720  21.444  30.971   0.422
11653W        W84721   5.432  26.907   2.684
11654W        W84722  40.389  26.143  11.557
11655W        W84723  31.342  34.627   0.866
11656W        W84724  28.357   2.672   2.209
11657W        W84725   0.393  10.872   2.260
11658W        W84726  37.482  36.941  11.518
11659W        W84727  23.434  38.536   0.268
11660W        W84728  36.333  31.003  10.717
11661W        W84729   6.315   6.103   2.307
11662W        W84730   5.926   7.119  12.297
11663W        W84731  20.472  12.330  11.668
11664W        W84732  30.184  26.409  14.879
11665W        W84733  42.497  29.596   4.589
11666W        W84734  12.484  12.717  11.259
11667W        W84735  13.419  25.632  11.948
11668W        W84736  15.077  33.074   0.143
11669W        W84737  28.061  18.838  14.512
11670W        W84738  16.810   1.329  10.412
11671W        W84739   3.955  21.722  14.940
11672W        W84740   1.074  23.454   1.027
11673W        W84741  14.108  32.800  12.004
11674W        W84742  42.827  33.333   2.302
11675W        W84743  40.286   1.530  14.004
11676W        W84744   5.363  41.501   2.804
11677W        W84745  41.994  19.801   2.132
11678W        W84746  24.042  17.693  11.695
11679W        W84747   9.343  10.166  12.901
11680W        W84748  43.420  44.993  14.877
11681W        W84749  27.465  30.072   4.748
11682W        W84750   2.318  16.098   3.378
11683W        W84751  15.917  14.398   3.240
11684W        W84752  25.591  43.810  13.298
11685W        W84753  27.623  20.555   1.930
11686W        W84754  10.339  34.891  12.501
11687W        W84755  36.990  29.071  14.823
11688W        W84756  44.829   6.688   3.105
11689W        W84757  30.695   4.416  12.251
11690W        W84758  27.427   6.936  14.947
11691W        W84759   5.118   8.755  11.195
11692W        W84760  42.630  34.883  13.812
11693W        W84761  17.314  22.974  12.536
11694W        W84762   4.300  17.572   3.832
11695W        W84763  35.026   4.872   3.261
11696W        W84764  30.883   6.395   1.870
11697W        W84765  44.510  43.967  11.897
11698W        W84766  13.424  32.109   5.232
11699W        W84767  43.594   6.339   2.862
11700W        W84768  10.210  31.164  12.446
11701W        W84769  31.650   8.921   3.674
11702W        W84770  38.181  40.426  10.537
11703W        W84771  21.753  26.120   0.008
11704W        W84772   8.802  26.556  14.977
11705W        W84773  28.452  20.441   1.920
11706W        W84774  13.390  13.227  12.841
11707W        W84775  38.036  16.841   0.734
11708W        W84776  14.860  27.715   2.858
11709W        W84777   5.477   9.432  13.586
11710W        W84778  38.448  42.533  13.022
11711W        W84779  26.187  38.218   0.048
11712W        W84780  19.019  36.809  14.899
11713W        W84781  21.499  18.539   1.749
11714W        W84782  19.845   5.747  11.184
11715W        W84783  27.040  12.124   0.715
11716W        W84784  34.350  22.721  11.569
11717W        W84785  19.710  20.265   3.876
11718W        W84786   9.117  26.411   1.331
11719W        W84787  14.051  24.997  12.905
11720W        W84788  22.528   6.366  12.980
11721W        W84789  38.929  12.576   2.185
11722W        W84790   3.381  14.188   0.869
11723W        W84791  37.890  30.462  13.758
11724W        W84792   5.290   2.213  10.771
11725W        W84793   1.094  32.918   0.978
11726W        W84794  23.027   6.903   0.957
11727W        W84795  25.480  29.349   0.041
11728W        W84796  32.879   3.332   1.320
11729W        W84797  28.182   1.631  14.882
11730W        W84798  10.021  32.881  10.854
11731W        W84799  15.911  32.481  13.955
11732W        W84800  10.569  20.705  14.251
11733W        W84801  27.812   1.966   1.847
11734W        W84802  42.719  27.613   0.323
11735W        W84803  13.748  40.651   3.210
11736W        W84804  29.945   1.930   1.301
11737W        W84805   0.049  11.831  13.836
11738W        W84806  29.383  37.104   0.549
11739W        W84807  21.857  14.034   5.053
11740W        W84808   9.674  30.682  10.593
11741W        W84809  15.329  23.506  12.460
11742W        W84810  21.220  11.251   1.457
11743W        W84811   1.226  28.527   0.459
11744W        W84812  31.906  32.517  11.425
11745W        W84813  20.221  41.444  11.337
11746W        W84814  39.024  43.365  11.580
11747W        W84815  18.339   1.439   0.147
11748W        W84816  18.192  42.502   2.255
11749W        W84817  18.196  13.298  13.993
11750W        W84818  11.127   6.345   0.314
11751W        W84819   2.372  41.073   1.955
11752W        W84820  36.083  30.549  12.284
11753W        W84821  25.686  13.690   4.788
11754W        W84822  32.762  38.482  12.491
11755W        W84823  12.711  33.860   1.817
11756W        W84824  33.564  39.778  13.190
11757W        W84825  42.794  36.379   3.263
11758W        W84826  41.921  22.464   3.272
11759W        W84827  25.501  27.367   2.691
11760W        W84828  16.720  11.583  12.372
11761W        W84829  26.557  12.747   4.084
11762W        W84830  13.159   0.802  11.856
11763W        W84831  14.219  29.470   0.366
11764W        W84832  27.197  20.358  14.220
11765W        W84833  17.076  12.838  13.514
11766W        W84834  32.906  34.324  11.120
11767W        W84835  30.547   4.622  11.700
11768W        W84836  31.894  39.872   1.956
11769W        W84837   8.962  13.255   3.402
11770W        W84838  16.627   6.000   4.734
11771W        W84839   0.422  40.303  13.981
11772W        W84840  41.304  38.444   1.868
11773W        W84841   7.965  25.616   1.362
11774W        W84842  35.558  11.912  13.862
11775W        W84843  22.721  16.315  12.575
11776W        W84844   8.462  32.206   3.264
11777W        W84845  26.545  25.454  11.143
11778W        W84846  37.973  36.140  10.855
11779W        W84847  10.421  33.166   1.950
11780W        W84848  20.887  36.427   2.684
11781W        W84849  21.734  23.369   0.482
11782W        W84850  24.682  28.846   4.939
11783W        W84851  17.020  18.564  14.643
11784W        W84852  17.866  20.207   3.218
11785W        W84853   4.106  35.533   3.746
11786W        W84854  28.461  10.162   5.089
11787W        W84855   9.250  42.835   2.480
11788W        W84856  34.416  40.271   1.800
11789W        W84857   3.402  17.058  12.920
11790W        W84858   0.316   1.659   4.376
11791W        W84859  24.541  28.136  11.603
11792W        W84860  25.095  10.294  11.294
11793W        W84861  35.718  38.566  13.798
11794W        W84862  33.789  11.446   3.953
11795W        W84863   9.845  25.083   0.177
11796W        W84864  37.870   3.966  12.596
11797W        W84865  18.715  22.210   4.435
11798W        W84866  30.470  30.980  12.624
11799W        W84867  38.516   3.191   4.024
11800W        W84868  13.593   3.313  12.971
11801W        W84869  36.860  34.594   2.346
11802W        W84870  26.551  42.064   4.560
11803W        W84871  28.554  26.177   0.850
11804W        W84872  33.845  10.661  14.275
11805W        W84873  38.444  22.112   1.679
11806W        W84874   1.232   8.777  12.386
11807W        W84875  38.970  43.962   1.845
11808W        W84876  36.402  22.093   3.435
11809W        W84877  26.264  18.333   1.867
11810W        W84878   1.666  22.048   4.771
11811W        W84879  32.063  40.948  10.658
11812W        W84880   5.349  33.218   3.167
11813W        W84881  30.761   4.337   0.395
11814W        W84882  23.489  44.927  13.968
11815W        W84883   7.270  38.943   3.913
11816W        W84884  17.315   7.407  11.203
11817W        W84885  43.579  31.948  11.229
11818W        W84886  36.643   9.846  11.264
11819W        W84887  20.742  42.451   3.410
11820W        W84888  42.955  14.343  10.432
11821W        W84889   4.898  37.010   4.888
11822W        W84890  13.356   0.021  13.029
11823W        W84891  29.802  26.657  11.540
11824W        W84892  31.573  26.457  13.736
11825W        W84893   7.514  32.124  12.949
11826W        W84894   7.296  21.541   1.938
11827W        W84895  11.937  29.749  12.248
11828W        W84896  36.820   6.289   1.174
11829W        W84897   1.038   8.825   1.447
11830W        W84898  24.231  22.070  11.207
11831W        W84899  43.026  19.712  14.393
11832W        W84900  19.766   2.965  13.356
11833W        W84901  26.741  27.401  11.047
11834W        W84902  36.699  19.195  13.760
11835W        W84903  17.712   0.866  14.006
11836W        W84904  37.640  16.486  10.072
11837W        W84905   7.370  17.701   1.864
11838W        W84906  35.174   4.445  11.115
11839W        W84907  41.238  33.318   1.669
11840W        W84908  39.882   5.461  14.701
11841W        W84909  33.854  30.090   3.233
11842W        W84910  15.728  37.579  13.848
11843W        W84911   1.311  27.414   1.177
11844W        W84912  23.809   5.885   1.770
11845W        W84913  40.450   4.573  10.922
11846W        W84914  22.321   0.810   4.763
11847W        W84915  33.496  38.520   0.294
11848W        W84916  22.160  23.430  14.867
11849W        W84917  20.643   9.855  13.353
11850W        W84918  17.550  34.631   4.442
11851W        W84919  38.458  19.661   2.905
11852W        W84920   7.874  44.759   0.707
11853W        W84921  29.993  36.826  11.121
11854W        W84922  27.580  31.621  10.556
11855W        W84923   0.522  24.965   1.833
11856W        W84924  14.295  32.971   2.485
11857W        W84925  10.785   5.470   4.244
11858W        W84926  29.940  25.028  13.852
11859W        W84927   2.127  24.554   2.809
11860W        W84928   0.834  31.375   3.701
11861W        W84929  11.552  18.573   4.417
11862W        W84930  17.697  17.783   2.151
11863W        W84931  28.510  25.517  12.134
11864W        W84932  34.083   5.395   4.556
11865W        W84933   7.208  41.765   4.573
11866W        W84934   8.246  36.082   2.138
11867W        W84935  38.151  19.159  11.980
11868W        W84936  15.255  34.148   2.734
11869W        W84937  24.966  40.274  13.782
11870W        W84938  27.991  16.267   1.209
11871W        W84939   7.892   6.709   2.301
11872W        W84940  42.137  33.326  14.920
11873W        W84941  24.893   3.228   2.868
11874W        W84942  31.325   5.576  13.840
11875W        W84943   5.465  44.350  11.633
11876W        W84944  20.814  15.681  13.302
11877W        W84945  38.873  32.032  13.230
11878W        W84946  41.065   6.987   4.470
11879W        W84947  10.401  10.654  14.309
11880W        W84948  36.331   9.041  14.327
11881W        W84949   2.275   1.762  12.860
11882W        W84950   3.602   2.805  10.627
11883W        W84951  42.880  33.570   2.805
11884W        W84952   6.202  15.203  11.912
11885W        W84953  44.501  36.550   4.713
11886W        W84954  40.450  16.082  12.205
11887W        W84955   3.805  24.189   1.331
11888W        W84956  10.966   0.809   3.756
11889W        W84957  19.950  43.687  10.800
11890W        W84958  37.905  33.836  12.892
11891W        W84959   7.881  37.064  14.044
11892W        W84960  35.732  21.426   1.385
11893W        W84961  43.576  22.173   0.665
11894W        W84962  44.134  39.859   0.733
11895W        W84963  38.626  12.283   2.657
11896W        W84964  30.258  16.090   1.748
11897W        W84965  39.792  16.239   5.820
11898W        W84966   8.622  21.206   3.073
11899W        W84967  22.497  15.131  13.716
11900W        W84968   0.426  39.362  12.901
11901W        W84969  10.293   4.950   3.780
11902W        W84970   8.933   1.781  11.227
11903W        W84971  35.793   9.872   2.338
11904W        W84972  20.798  37.029  13.483
11905W        W84973  21.116  35.706   0.397
11906W        W84974  18.136  18.234   3.406
11907W        W84975  19.691  12.197   4.297
11908W        W84976  37.945  23.690  14.390
11909W        W84977  15.200  21.011   1.668
11910W        W84978  36.954  32.412  10.407
11911W        W84979  37.470  30.869   1.157
11912W        W84980  37.571  21.083   1.986
11913W        W84981  42.343  12.126  12.058
11914W        W84982   5.583   1.781  10.742
11915W        W84983  35.581  23.994   0.406
11916W        W84984  25.472  35.869  12.797
11917W        W84985  15.606   3.078   1.973
11918W        W84986  21.114  42.752  13.195
11919W        W84987  15.361   7.290  14.761
11920W        W84988  10.251   1.696   1.323
11921W        W84989  26.048   1.767  13.678
11922W        W84990  36.886  43.253   3.733
11923W        W84991  14.312  12.357  10.905
11924W        W84992  18.275  32.408  12.902
11925W        W84993  31.446   1.906   1.664
11926W        W84994  20.594  42.699  13.296
11927W        W84995   0.993  30.361   3.183
11928W        W84996  13.695  34.693  14.465
11929W        W84997  25.027  34.028  12.969
11930W        W84998   5.738  11.821   3.150
11931W        W84999   2.938  27.789   0.380
11932W        W85000  36.491  41.875   4.851
11933W        W85001  32.186  26.503  12.001
11934W        W85002   5.188  30.001   4.346
11935W        W85003  25.121  37.500  13.065
11936W        W85004   8.710  31.524   0.449
11937W        W85005  43.282  29.045  13.541
11938W        W85006  13.825  31.450  10.408
11939W        W85007  38.528   6.315   2.891
11940W        W85008  39.221  33.699  13.806
11941W        W85009  27.538  25.757  12.939
11942W        W85010  41.953   7.357   4.641
11943W        W85011  13.369  31.094  13.971
11944W        W85012   0.365  24.165  11.108
11945W        W85013  41.747  28.542  12.842
11946W        W85014  44.026  39.872   3.887
11947W        W85015  10.641  24.658  14.292
11948W        W85016  35.443  31.097   2.638
11949W        W85017  36.912   4.697   4.620
11950W        W85018  37.877  44.570  12.489
11951W        W85019  26.246  29.895   3.282
11952W        W85020   8.410  15.695   4.160
11953W        W85021  23.432  20.584  12.433
11954W        W85022  37.522  26.449  12.659
11955W        W85023  14.112  39.744  12.187
11956W        W85024  41.507  19.563  14.781
11957W        W85025  40.420   0.425  11.193
11958W        W85026  38.771  39.852  11.854
11959W        W85027   4.854  34.767  10.296
11960W        W85028  42.980  18.229   2.835
11961W        W85029  18.668   9.048   3.279
11962W        W85030  15.122  22.214   0.294
11963W        W85031   8.311  16.506   1.652
11964W        W85032  20.705  15.746   3.466
11965W        W85033  23.306  31.718  13.982
11966W        W85034  34.541   9.248  10.584
11967W        W85035  17.562  39.397  12.893
11968W        W85036  13.082  33.717   4.177
11969W        W85037  28.611  36.495   4.310
11970W        W85038  28.940  16.229   1.212
11971W        W85039  13.177  15.081   1.976
11972W        W85040  13.196   6.822  12.818
11973W        W85041  22.325   1.899  14.459
11974W        W85042  12.227   6.943  10.721
11975W        W85043  28.834  38.647   4.819
11976W        W85044  12.034  43.154   3.102
11977W        W85045   8.829  34.269  13.389
11978W        W85046  11.610  32.342   2.256
11979W        W85047  37.425  28.468   0.966
11980W        W85048  27.436  37.234   3.706
11981W        W85049  24.725  32.052   3.730
11982W        W85050  32.977  27.016   1.761
11983W        W85051   3.514   8.825  11.984
11984W        W85052  12.240   9.713  11.217
11985W        W85053   5.112  29.410   5.182
11986W        W85054  26.104  15.679  13.586
11987W        W85055  39.470  28.430   1.798
11988W        W85056  18.145  28.813  10.555
11989W        W85057  28.532   4.395  12.092
11990W        W85058  19.555  28.375   2.856
11991W        W85059  15.562  40.823   0.252
11992W        W85060  24.598  16.319  12.007
11993W        W85061  44.691  29.553  11.275
11994W        W85062  12.160  37.541   2.829
11995W        W85063  36.242  35.980  14.581
11996W        W85064  14.675  20.478   3.272
11997W        W85065   9.876  27.959  12.497
11998W        W85066  11.566  12.220  10.314
11999W        W85067   3.391   4.653  12.395
12000W        W85068  42.836  44.537   4.686
12001W        W85069  26.457   3.706   4.112
12002W        W85070  26.275   9.817  12.420
12003W        W85071  42.937  40.059   1.391
12004W        W85072  23.503  35.488   4.690
12005W        W85073  37.554  14.229  14.827
12006W        W85074  38.301  35.839  11.196
12007W        W85075  34.223  16.899  14.639
12008W        W85076  36.208  40.951  12.190
12009W        W85077  29.068  32.263  11.483
12010W        W85078   5.372  33.119  11.970
12011W        W85079   1.085   9.670  13.407
12012W        W85080  12.816   0.752   0.335
12013W        W85081  12.768  18.115  11.342
12014W        W85082  35.027  43.468   1.669
12015W        W85083   3.467  16.781   3.273
12016W        W85084  42.791  39.456  11.657
12017W        W85085   2.843  16.124   3.345
12018W        W85086  26.776  25.928  14.786
12019W        W85087  27.380  27.866  14.603
12020W        W85088  42.814   4.186   3.746
12021W        W85089   5.673  19.429   4.957
12022W        W85090   9.826  26.006  11.161
12023W        W85091   8.893  18.885  13.869
12024W        W85092  13.812  12.831   0.821
12025W        W85093  39.902  33.909   3.569
12026W        W85094   2.364  12.550  10.817
12027W        W85095   3.672  40.039  14.365
12028W        W85096  36.372  33.706  11.691
12029W        W85097  32.404  28.085   0.662
12030W        W85098   7.151  13.705   2.960
12031W        W85099  14.084  30.627  11.117
12032W        W85100   5.234  42.513   2.669
12033W        W85101  10.262  19.917  11.015
12034W        W85102   7.836  15.806  11.833
12035W        W85103  24.501  22.520   1.407
12036W        W85104  30.466   9.130  12.293
12037W        W85105  10.317  39.437   4.364
12038W        W85106  37.320  31.941   3.663
12039W        W85107  17.105   2.840   3.103
12040W        W85108  30.021   7.303  10.791
12041W        W85109  30.568  28.764   0.429
12042W        W85110   4.992   5.202   2.913
12043W        W85111  22.710  24.538  14.751
12044W        W85112   0.336  36.007   4.291
12045W        W85113  18.444  30.178  14.754
12046W        W85114  35.188  25.233   2.937
12047W        W85115  14.634  42.469  11.397
12048W        W85116  21.812  41.239   3.303
12049W        W85117  41.793  28.319  11.166
12050W        W85118  43.686  12.137  11.507
12051W        W85119   8.183  20.315  14.455
12052W        W85120  13.227  36.892   0.683
12053W        W85121  29.814   0.457  10.714
12054W        W85122  24.862  13.145   4.598
12055W        W85123  40.510  31.371  13.562
12056W        W85124   9.678  40.039   3.310
12057W        W85125  42.659  25.694   4.160
12058W        W85126   1.853  42.110   1.837
12059W        W85127  14.850  26.501   2.894
12060W        W85128   3.999  13.263  12.583
12061W        W85129  30.897  26.005  13.275
12062W        W85130  37.044  30.711   3.328
12063W        W85131  27.811  41.338  13.479
12064W        W85132   1.867  17.637   2.894
12065W        W85133  34.399  14.720   4.526
12066W        W85134  15.762  37.388  12.001
12067W        W85135  43.399  12.952   1.399
12068W        W85136   7.757   6.261  13.842
12069W        W85137  39.294  24.512   0.806
12070W        W85138   1.283  36.389  14.071
12071W        W85139   0.484  35.408   2.529
12072W        W85140  16.021  40.418  12.532
12073W        W85141  34.536   1.239  11.055
12074W        W85142  13.690  44.402  12.647
12075W        W85143   8.658   6.040  10.904
12076W        W85144  20.354  15.889  11.117
12077W        W85145  44.223  36.636   2.757
12078W        W85146  41.978  30.092   1.340
12079W        W85147  18.124   4.699  12.145
12080W        W85148  24.118  15.950   3.452
12081W        W85149  25.043  40.816  14.470
12082W        W85150   7.883  31.909  14.518
12083W        W85151  21.054  25.064   4.079
12084W        W85152   4.202  20.990   0.925
12085W        W85153  43.979  41.523   3.753
12086W        W85154  15.932  19.051   0.906
12087W        W85155  18.979  44.966  14.927
12088W        W85156  24.514   2.352  14.477
12089W        W85157   4.037  28.660  14.862
12090W        W85158  27.687  31.464  13.396
12091W        W85159  12.847  22.913  14.762
12092W        W85160  28.573  28.346   3.399
12093W        W85161  26.226  40.614   1.883
12094W        W85162  43.921  13.127  11.569
12095W        W85163  38.938  16.247   0.923
12096W        W85164  19.254   2.507   3.706
12097W        W85165  27.116  26.423  13.941
12098W        W85166  20.040  19.547   1.902
12099W        W85167  28.121  28.037   4.557
12100W        W85168  43.423   8.847   2.070
12101W        W85169  36.886  34.327  10.163
12102W        W85170   8.280  10.176  13.781
12103W        W85171   6.399  22.293  11.223
12104W        W85172  43.996  28.334   4.576
12105W        W85173   6.022   4.502  12.915
12106W        W85174  34.882   4.148  11.455
12107W        W85175  29.539  29.700   0.825
12108W        W85176  11.126  25.510  11.520
12109W        W85177  40.428   0.791   4.052
12110W        W85178   1.723  30.168   1.835
12111W        W85179   8.175  19.311  13.368
12112W        W85180  34.888   3.898   0.746
12113W        W85181   4.767  40.387   3.656
12114W        W85182  43.146  30.797   1.927
12115W        W85183  19.262   7.588  11.930
12116W        W85184  28.997   4.172  12.006
12117W        W85185  35.397   0.230   4.695
12118W        W85186  15.371  31.811   2.779
12119W        W85187  13.358  14.734   4.449
12120W        W85188  34.632  33.368   2.391
12121W        W85189   6.661  24.727   1.726
12122W        W85190  31.472  19.767   1.500
12123W        W85191  37.367  16.152  14.000
12124W        W85192  35.169  28.114  12.926
12125W        W85193  11.681  28.770   0.354
12126W        W85194  25.105   7.315   9.630
12127W        W85195  15.197  32.154   1.215
12128W        W85196  20.464  32.917   0.356
12129W        W85197  10.477  42.993   4.273
12130W        W85198  18.980  24.121  10.452
12131W        W85199  31.135  18.076  11.555
12132W        W85200  43.765  26.428   2.416
12133W        W85201  21.110  10.230  14.374
12134W        W85202   8.172  40.376  13.510
12135W        W85203  39.606  13.160  10.688
12136W        W85204  15.834  24.485   2.688
12137W        W85205  13.051  42.816  11.102
12138W        W85206  13.726  26.955   4.856
12139W        W85207  26.654  18.335   2.645
12140W        W85208  26.128   0.310  14.813
12141W        W85209  38.002  11.955  14.967
12142W        W85210  42.966  23.771  11.985
12143W        W85211   0.204  15.079   1.914
12144W        W85212  14.393  17.639  13.989
12145W        W85213   6.314  15.779  11.554
12146W        W85214   9.234   8.632  11.587
12147W        W85215   4.322  32.935  11.879
12148W        W85216  24.783  27.165  13.952
12149W        W85217  22.128  32.077  13.402
12150W        W85218   0.874  42.270  13.052
12151W        W85219  23.672  40.585  11.918
12152W        W85220  43.663  33.217  11.423
12153W        W85221  29.561  37.331  13.854
12154W        W85222  16.248   7.029   2.012
12155W        W85223   3.976  20.446  14.502
12156W        W85224   0.813  36.371  14.332
12157W        W85225  36.438   8.348  14.960
12158W        W85226  23.991  14.730   4.773
12159W        W85227  41.047  41.802  12.474
12160W        W85228  41.515  26.028   2.150
12161W        W85229  13.257  25.608   1.375
12162W        W85230  41.892  39.102   0.352
12163W        W85231  35.888   8.342  14.347
12164W        W85232   4.707   8.222   4.586
12165W        W85233  42.953  44.468  13.879
12166W        W85234  15.527  42.242  11.599
12167W        W85235   3.852  22.536   2.878
12168W        W85236   8.058  33.534  14.538
12169W        W85237  23.786  44.901  11.956
12170W        W85238   1.470  23.238   0.732
12171W        W85239  32.677  18.273  12.831
12172W        W85240  26.931  37.416  12.089
12173W        W85241  29.889  39.469   4.093
12174W        W85242  21.776  23.787  11.438
12175W        W85243  41.410  28.227  13.129
12176W        W85244  25.289  32.960  13.370
12177W        W85245  20.299  10.814  14.090
12178W        W85246  43.343   6.662   4.763
12179W        W85247  23.750  43.418  11.191
12180W        W85248  20.107  43.742  11.592
12181W        W85249  32.497  42.873  10.651
12182W        W85250  13.951  36.731   3.198
12183W        W85251   3.290  17.871   1.440
12184W        W85252  16.271   5.496   1.918
12185W        W85253  23.529  37.800   1.881
12186W        W85254   3.082   8.069  10.983
12187W        W85255   6.820  28.099   2.386
12188W        W85256  41.378  29.194   0.233
12189W        W85257  16.124   4.391  13.375
12190W        W85258  43.227  16.713   4.684
12191W        W85259  16.755   4.347  10.979
12192W        W85260  31.009  14.705   2.826
12193W        W85261  16.216   1.358  12.613
12194W        W85262  28.693  14.645  12.083
12195W        W85263  44.044  26.111   4.250
12196W        W85264  26.122  26.992   1.364
12197W        W85265  35.497  42.341   3.087
12198W        W85266  11.357  36.000   4.716
12199W        W85267   6.889  41.548   5.086
12200W        W85268  41.802  24.915  13.079
12201W        W85269  34.861  30.981  10.376
12202W        W85270  38.842  27.073  11.437
12203W        W85271   9.829  20.664  14.728
12204W        W85272  43.269  21.745  12.015
12205W        W85273   0.197  36.326   2.766
12206W        W85274  30.259  17.455  12.663
12207W        W85275   4.205   5.020  10.086
12208W        W85276  24.756  26.500  13.304
12209W        W85277  19.087   4.783   2.723
12210W        W85278  33.992  15.541   2.660
12211W        W85279  32.537  33.813   1.727
12212W        W85280  37.443  30.179  11.690
12213W        W85281  13.827  33.059  12.627
12214W        W85282   4.370   4.306   4.544
12215W        W85283  11.702  39.810  10.371
12216W        W85284  17.955  27.073  14.331
12217W        W85285   4.590  22.038  10.607
12218W        W85286  43.540  24.144  14.521
12219W        W85287  22.263   0.770  11.944
12220W        W85288  14.780  35.071  12.456
12221W        W85289  22.356  29.080  13.595
12222W        W85290  16.605  21.884   0.897
12223W        W85291  42.633   8.098  12.929
12224W        W85292  41.748  28.024  10.751
12225W        W85293   2.899  41.367   2.656
12226W        W85294  37.436   3.996  14.324
12227W        W85295  17.750  23.020   2.247
12228W        W85296  41.070  11.627  14.558
12229W        W85297  34.926  16.714  14.372
12230W        W85298  42.814  12.235   3.628
12231W        W85299  21.590  19.422  12.915
12232W        W85300   3.639  43.502  14.953
12233W        W85301  13.279  25.204  14.009
12234W        W85302   1.493  23.278  11.091
12235W        W85303   1.260  33.465  12.116
12236W        W85304  27.247   7.041   2.682
12237W        W85305  10.209  29.885   4.577
12238W        W85306  10.641  27.306  11.414
12239W        W85307  43.423  32.215   0.565
12240W        W85308  35.883  38.308  13.366
12241W        W85309  37.930  28.535   4.209
12242W        W85310  25.585  29.969  12.501
12243W        W85311  36.042  19.136   3.695
12244W        W85312  21.026   9.755  14.602
12245W        W85313   7.115  33.619  14.726
12246W        W85314  11.801  13.146  10.372
12247W        W85315  37.728  12.195  13.620
12248W        W85316   7.041  19.237   4.105
12249W        W85317   3.980  14.315  10.737
12250W        W85318   4.816  30.227   4.682
12251W        W85319  24.035   9.347  13.036
12252W        W85320  10.769  13.130   2.670
12253W        W85321  42.218  33.931   1.756
12254W        W85322  25.232  22.283  11.348
12255W        W85323  21.304  37.393  11.549
12256W        W85324  34.083  30.086   4.315
12257W        W85325  22.737   6.626  13.405
12258W        W85326   2.312   6.869  14.273
12259W        W85327  38.075  32.579  14.720
12260W        W85328   0.020  24.687  11.896
12261W        W85329  12.541   4.135  11.882
12262W        W85330  41.445  17.639  12.641
12263W        W85331   8.134   9.350  11.565
12264W        W85332  24.086  31.138   4.659
12265W        W85333   6.124  31.166   2.219
12266W        W85334  22.656   1.544   1.726
12267W        W85335  13.250  35.932   3.234
12268W        W85336  32.459   5.682   3.362
12269W        W85337   6.755  11.812   1.798
12270W        W85338  24.934   6.435   4.167
12271W        W85339  29.184  17.478   0.606
12272W        W85340  37.319  16.674   3.613
12273W        W85341  23.654  24.554  14.888
12274W        W85342  18.731   3.721   1.713
12275W        W85343  11.577  20.763   4.404
12276W        W85344  40.811  13.256   3.569
12277W        W85345   8.597  40.595  13.305
12278W        W85346  19.169  22.540   1.427
12279W        W85347  36.480  12.725   4.216
12280W        W85348   5.574  15.791   1.879
12281W        W85349  10.246  33.157   2.427
12282W        W85350  23.801   1.295   1.767
12283W        W85351   0.966  17.637  10.723
12284W        W85352  12.008  33.480  14.883
12285W        W85353  15.332  35.477  14.550
12286W        W85354  38.733  12.747   4.378
12287W        W85355  32.858  14.478   1.299
12288W        W85356  42.800  29.933  11.199
12289W        W85357  29.548  10.465  14.194
12290W        W85358  32.652  30.440   0.695
12291W        W85359  26.701  32.125   3.766
12292W        W85360  29.973  34.099   3.700
12293W        W85361  36.382  27.380   2.694
12294W        W85362  29.993  39.109  14.490
12295W        W85363  42.036  12.195  12.467
12296W        W85364  34.613  30.070  12.994
12297W        W85365  14.898  30.919  14.364
12298W        W85366  25.015  37.750  10.550
12299W        W85367  33.076   0.708  10.761
12300W        W85368  20.293  28.352  14.214
12301W        W85369   0.339  36.655  12.724
12302W        W85370  41.746  15.493   2.710
12303W        W85371  29.190   7.036   2.150
12304W        W85372  27.168  10.717   4.988
12305W        W85373  36.411   0.900   1.854
12306W        W85374   5.867  21.041  10.658
12307W        W85375  21.487   0.229  13.549
12308W        W85376  11.440  19.598   5.458
12309W        W85377  41.773  10.236   4.140
12310W        W85378  32.819  34.941   0.839
12311W        W85379   7.943  29.194  11.925
12312W        W85380  40.418  39.897   0.767
12313W        W85381   9.681  21.553   2.108
12314W        W85382  44.520   5.918  14.437
12315W        W85383  36.071  16.125  11.928
12316W        W85384   1.002  33.586  10.791
12317W        W85385  34.548  36.420  12.884
12318W        W85386  24.989  34.563  11.602
12319W        W85387  34.020  22.667   0.485
12320W        W85388   0.467  21.093  13.797
12321W        W85389   0.797  38.253   3.257
12322W        W85390  13.370  34.206  11.122
12323W        W85391  29.952  34.843  12.541
12324W        W85392  13.833  34.028  11.113
12325W        W85393  25.280  36.381  14.025
12326W        W85394   1.224  14.754  14.557
12327W        W85395   3.302  29.373   1.840
12328W        W85396  44.732  20.950   3.978
12329W        W85397  28.436  12.868   3.757
12330W        W85398  41.489  34.432  11.312
12331W        W85399  15.913   0.337   1.368
12332W        W85400  18.177  10.573   2.787
12333W        W85401  13.359  33.185  14.251
12334W        W85402   9.302   5.305   3.356
12335W        W85403  40.501  38.860  14.376
12336W        W85404  41.615  11.871  10.988
12337W        W85405  13.021  10.747   2.277
12338W        W85406  36.880  23.268  14.264
12339W        W85407  42.780   6.375   1.663
12340W        W85408  19.566  31.565   4.594
12341W        W85409  27.757  41.098   2.391
12342W        W85410  32.366  19.182   3.603
12343W        W85411  19.290  30.744   4.030
12344W        W85412   2.006  25.690   2.316
12345W        W85413  24.612   8.118   2.830
12346W        W85414  31.471  11.525   1.278
12347W        W85415   4.359  13.310  14.062
12348W        W85416  33.874  44.744  10.661
12349W        W85417   3.259   5.249   1.750
12350W        W85418   2.188   3.436  14.240
12351W        W85419  29.130   3.241  11.222
12352W        W85420  11.713   6.154  10.652
12353W        W85421  12.864  31.062  10.701
12354W        W85422  38.970  11.867   2.751
12355W        W85423   9.655  31.201  10.962
12356W        W85424   9.659  21.203   1.709
12357W        W85425  28.863  31.826   0.881
12358W        W85426  19.742  24.065  12.917
12359W        W85427  36.928  19.308  10.772
12360W        W85428  19.141   3.507  10.671
12361W        W85429  16.810  18.462   0.650
12362W        W85430  37.058  44.930   0.956
12363W        W85431  27.655  40.906  10.432
12364W        W85432  37.813  13.575  13.063
12365W        W85433  18.736  17.566   3.263
12366W        W85434   5.329   3.791   3.124
12367W        W85435   2.289  36.606   0.913
12368W        W85436  12.474   8.888  11.434
12369W        W85437  42.087  32.443   4.698
12370W        W85438  28.057   3.286  11.767
12371W        W85439  15.242   7.593   1.568
12372W        W85440  25.467  21.737  10.709
12373W        W85441  34.071  16.027  12.525
12374W        W85442  16.667  19.774   1.775
12375W        W85443  29.007   4.767   4.946
12376W        W85444  21.745  34.125  10.694
12377W        W85445  28.131  31.175   2.869
12378W        W85446   0.894  19.792   0.449
12379W        W85447   9.732  17.257  14.443
12380W        W85448  16.796  15.313   4.206
12381W        W85449  34.041  40.812  12.967
12382W        W85450  31.323  12.751  14.332
12383W        W85451  32.149  24.506   1.547
12384W        W85452  17.316  39.926  12.968
12385W        W85453  24.765  25.409   0.884
12386W        W85454  38.542  24.131   1.031
12387W        W85455  14.040   9.299   0.320
12388W        W85456  20.808  15.775   3.969
12389W        W85457   3.379  38.630   4.834
12390W        W85458  16.888  14.145   3.269
12391W        W85459  35.471  11.284   1.817
12392W        W85460   2.515  18.620  13.819
12393W        W85461  39.032  23.232   2.370
12394W        W85462  40.832  15.249   3.084
12395W        W85463  43.531  37.035  12.561
12396W        W85464  12.265  11.376   2.339
12397W        W85465   8.383  37.624  12.094
12398W        W85466   6.078  22.668  11.936
12399W        W85467   3.631  21.621   1.967
12400W        W85468   5.814   6.664   1.448
12401W        W85469  32.104  32.492  12.333
12402W        W85470  39.093  40.398   0.790
12403W        W85471  14.396  27.686   0.870
12404W        W85472   9.914  34.195   4.582
12405W        W85473   1.750  20.171   0.892
12406W        W85474  11.865  20.792  13.977
12407W        W85475  11.537   3.791  14.987
12408W        W85476  35.117  31.069   4.798
12409W        W85477  18.632  36.378   2.942
12410W        W85478  19.586  28.202   4.053
12411W        W85479  34.771  25.896   1.003
12412W        W85480  20.543   8.658  11.679
12413W        W85481   6.097  23.541   4.615
12414W        W85482  13.203  17.929  12.030
12415W        W85483   8.609  21.591  13.836
12416W        W85484  16.817   9.934   2.327
12417W        W85485   3.636   4.637  12.848
12418W        W85486  44.286  18.200  10.745
12419W        W85487  33.064  37.954  11.999
12420W        W85488   1.481  44.913   3.565
12421W        W85489  15.124  36.083  14.238
12422W        W85490   2.458  16.968  14.316
12423W        W85491   3.021   9.219   2.001
12424W        W85492  20.732   2.448   3.645
12425W        W85493  30.429  23.024   2.282
12426W        W85494  25.483   0.054   0.761
12427W        W85495   2.190  11.908   3.680
12428W        W85496  10.039   0.247   4.692
12429W        W85497   8.604  39.500   9.895
12430W        W85498  29.514   6.217   3.314
12431W        W85499   6.341  17.853  11.015
12432W        W85500  12.932  18.113  14.273
12433W        W85501  14.159   4.463   2.700
12434W        W85502  13.451   7.001   2.343
12435W        W85503  32.967  21.753  12.998
12436W        W85504  24.720  42.252  11.115
12437W        W85505  11.136  35.579  10.583
12438W        W85506  32.584  17.788  14.786
12439W        W85507  14.175  39.995  12.612
12440W        W85508  13.765  27.368  13.338
12441W        W85509  30.038  29.489  12.201
12442W        W85510  44.766  30.494   3.584
12443W        W85511   4.512  39.599  10.765
12444W        W85512   8.957   4.610   0.411
12445W        W85513   0.824   5.002  10.743
12446W        W85514  29.467  18.081  13.794
12447W        W85515  37.736  40.832   2.157
12448W        W85516  14.312  26.868  13.864
12449W        W85517   7.471  25.962  14.732
12450W        W85518   6.842  27.840  14.817
12451W        W85519  41.045  35.714   2.843
12452W        W85520  14.260  40.715  13.883
12453W        W85521  43.824  41.027   4.480
12454W        W85522  12.256   7.183  14.557
12455W        W85523  14.224  35.431  13.986
12456W        W85524  44.106  27.970   0.482
12457W        W85525  26.299   6.757  11.166
12458W        W85526  29.284  18.441   1.022
12459W        W85527  44.270  18.099  12.504
12460W        W85528  29.645  24.967  13.190
12461W        W85529   8.245  33.754  12.212
12462W        W85530  38.381  32.911   2.364
12463W        W85531  21.467  40.539   2.781
12464W        W85532   1.218  27.430  14.807
12465W        W85533  13.955   7.618   1.215
12466W        W85534  32.837   2.119  11.891
12467W        W85535  13.750  42.375  14.077
12468W        W85536   4.124   0.443   1.226
12469W        W85537  13.973  18.623   0.422
12470W        W85538   9.412  36.907  12.948
12471W        W85539  30.652   7.405  13.470
12472W        W85540  34.143  11.827   1.381
12473W        W85541   1.852  16.289  14.956
12474W        W85542  10.855  24.763  10.671
12475W        W85543  16.524   5.231   1.379
12476W        W85544  31.415  27.171   4.642
12477W        W85545  24.133  19.355   5.005
12478W        W85546  35.983  37.513   2.221
12479W        W85547   5.942  15.489   2.071
12480W        W85548  13.732  25.506  12.890
12481W        W85549  29.930  40.562  11.088
12482W        W85550  14.542  26.370  10.216
12483W        W85551   0.465   9.202  12.152
12484W        W85552  32.221  24.598  14.773
12485W        W85553  32.409   0.897   1.419
12486W        W85554  40.045   7.655  11.986
12487W        W85555  44.224  20.262   2.580
12488W        W85556  27.096  27.624  14.244
12489W        W85557  40.955  43.306   2.811
12490W        W85558  34.000  37.838   4.703
12491W        W85559  27.735  25.143  10.555
12492W        W85560   7.611   7.451   1.285
12493W        W85561  22.242  39.524   3.102
12494W        W85562  32.854  32.129  13.847
12495W        W85563  26.205  27.601   4.057
12496W        W85564  41.821  35.179   1.851
12497W        W85565  43.841   6.601  13.371
12498W        W85566  41.847  15.613   0.601
12499W        W85567  15.913  21.586   2.089
12500W        W85568  42.889   0.855   1.781
12501W        W85569  39.357  41.012   2.879
12502W        W85570  27.594  21.654   0.943
12503W        W85571  39.640  13.536  14.360
12504W        W85572  37.404  33.850   1.165
12505W        W85573  25.072  21.996  12.778
12506W        W85574  37.169   1.305   3.981
12507W        W85575   8.143  11.673   0.946
12508W        W85576   1.815  26.701   1.778
12509W        W85577  26.975   0.394   2.326
12510W        W85578  25.636  33.442   0.405
12511W        W85579  21.198  38.345  14.951
12512W        W85580  17.603   8.196   3.285
12513W        W85581  29.843  11.619  12.339
12514W        W85582  19.931  34.272   0.572
12515W        W85583  12.653   1.493  14.331
12516W        W85584  39.333  32.042  13.502
12517W        W85585  39.242   8.033   1.630
12518W        W85586  27.377  27.592   1.269
12519W        W85587  27.320   6.346  11.161
12520W        W85588  30.665  37.434  10.670
12521W        W85589  12.667  31.628   1.188
12522W        W85590  21.493  11.300   4.547
12523W        W85591   1.064   8.772   4.699
12524W        W85592  28.563  20.437   0.758
12525W        W85593  43.336   2.746   0.489
12526W        W85594  37.880   2.661  12.144
12527W        W85595   7.321   2.793  13.494
12528W        W85596   4.757   1.668   1.860
12529W        W85597  19.332  39.046  14.434
12530W        W85598  16.588  21.840  12.402
12531W        W85599   1.811  31.646   1.609
12532W        W85600  26.597  37.327   0.765
12533W        W85601  22.962   1.326  10.726
12534W        W85602  31.045  43.507  12.479
12535W        W85603   4.799   0.274  12.379
12536W        W85604   1.031  10.786  14.806
12537W        W85605  12.810   3.107  12.537
12538W        W85606  18.549   3.823   3.872
12539W        W85607  33.577   0.765   2.805
12540W        W85608  37.313  25.725  14.328
12541W        W85609  27.708  29.995   0.312
12542W        W85610  43.319   0.793  14.036
12543W        W85611  22.573  34.911   4.122
12544W        W85612  41.720  24.600   3.142
12545W        W85613  33.375  38.326  13.935
12546W        W85614   0.363  12.630  12.452
12547W        W85615  21.055  26.436   2.269
12548W        W85616   6.327   7.449  13.028
12549W        W85617  19.510  24.116   4.777
12550W        W85618  25.203  35.451  12.048
12551W        W85619  13.051   4.323   1.871
12552W        W85620   2.225  29.979  11.141
12553W        W85621  43.958   4.280  11.555
12554W        W85622  37.157   3.872  13.899
12555W        W85623  43.946  24.942   3.824
12556W        W85624  23.032  23.283  10.728
12557W        W85625  11.263  17.242   0.824
12558W        W85626  24.631  37.342   1.746
12559W        W85627  41.326  15.815  14.473
12560W        W85628   1.693  17.365   3.827
12561W        W85629  26.960  43.885   0.759
12562W        W85630   8.409   7.240   3.076
12563W        W85631   4.816  41.842   3.869
12564W        W85632   6.721   2.821  13.528
12565W        W85633  30.242  42.805   4.370
12566W        W85634  25.109  23.215   0.193
12567W        W85635   2.918  37.615   1.134
12568W        W85636  19.418  28.939  11.467
12569W        W85637  29.599   8.921  13.916
12570W        W85638  19.818  29.986   1.925
12571W        W85639   5.418   1.758  14.854
12572W        W85640  26.926   3.579   4.269
12573W        W85641  13.347  25.107   1.868
12574W        W85642  32.317  31.427  12.823
12575W        W85643  42.798   4.276  12.097
12576W        W85644  20.280  41.590   0.500
12577W        W85645  21.757  22.726   1.183
12578W        W85646  14.597  38.137  13.530
12579W        W85647  12.662  41.341  12.602
12580W        W85648  22.722  41.406  13.537
12581W        W85649  31.124  36.866  13.457
12582W        W85650  39.097  43.830  13.146
12583W        W85651   5.915  23.961   0.885
12584W        W85652   6.206  30.392  11.191
12585W        W85653  33.040  17.137   3.942
12586W        W85654  34.038  42.787  10.643
12587W        W85655  25.684  37.535   3.546
12588W        W85656  37.929  14.549  11.974
12589W        W85657  39.004  10.275   0.680
12590W        W85658  41.473  23.991  14.288
12591W        W85659   0.484  31.883  10.431
12592W        W85660   9.949  28.132  14.746
12593W        W85661  33.090  36.655  13.587
12594W        W85662   1.446  32.093  11.882
12595W        W85663   7.165  42.964  14.471
12596W        W85664  10.893  10.804   3.710
12597W        W85665  11.141  42.002  10.529
12598W        W85666  25.191  33.590   1.872
12599W        W85667  23.043  39.950   1.027
12600W        W85668  44.367  44.145  14.876
12601W        W85669  34.478  20.368   3.791
12602W        W85670  36.398  10.603   0.962
12603W        W85671  19.549  44.752   4.559
12604W        W85672   0.860   4.834   4.579
12605W        W85673  25.342  24.423  12.083
12606W        W85674  10.449  41.820   4.540
12607W        W85675  41.358  36.231  11.202
12608W        W85676  40.725  44.313  11.488
12609W        W85677  44.263  36.142   2.411
12610W        W85678  20.871   2.910  13.287
12611W        W85679  40.958   5.954   0.117
12612W        W85680  27.143  40.962  10.654
12613W        W85681  20.921  16.197   3.643
12614W        W85682  36.412  44.881  12.857
12615W        W85683   0.434  10.678  11.074
12616W        W85684  21.142   3.678  11.799
12617W        W85685  28.802   4.096  11.507
12618W        W85686  30.367   9.011   3.886
12619W        W85687   3.736  19.192   3.354
12620W        W85688   7.648   5.016   3.943
12621W        W85689  18.248  21.828  11.769
12622W        W85690  28.004  37.140  13.798
12623W        W85691  37.055   6.752   4.591
12624W        W85692   1.883   1.198  11.511
12625W        W85693  40.476  44.002  12.656
12626W        W85694  25.601  14.476   3.279
12627W        W85695  38.417  44.878   4.140
12628W        W85696  27.920   6.657  14.489
12629W        W85697   2.451  14.616  14.958
12630W        W85698   4.168  22.621  10.662
12631W        W85699  31.627  42.360  12.406
12632W        W85700  34.036  43.126   2.828
12633W        W85701  23.557  30.637  10.604
12634W        W85702  17.276  37.056  11.210
12635W        W85703  23.678   3.052  13.964
12636W        W85704  17.777  23.476  14.455
12637W        W85705   5.383  40.304   2.237
12638W        W85706   3.494   4.847  11.104
12639W        W85707  20.050  38.126   2.505
12640W        W85708  28.203   5.934  10.998
12641W        W85709  44.433   6.270  10.983
12642W        W85710  35.369  39.873   0.959
12643W        W85711  15.384  41.767  13.948
12644W        W85712  31.956  24.565  13.004
12645W        W85713  13.896   4.456   4.067
12646W        W85714  14.568  20.708   0.889
12647W        W85715  43.369  33.164   4.590
12648W        W85716  34.056  26.028  13.474
12649W        W85717  20.625  37.078   0.687
12650W        W85718  31.041  28.122  14.287
12651W        W85719  20.723  15.479   1.420
12652W        W85720  40.391  18.342   4.594
12653W        W85721   7.774  32.405  13.845
12654W        W85722  42.747  20.808  12.101
12655W        W85723  34.049   8.913  13.802
12656W        W85724  36.551  39.788   0.212
12657W        W85725   8.253  42.633  10.243
12658W        W85726  28.746  15.112   2.339
12659W        W85727  16.329  28.642  12.312
12660W        W85728   2.318   3.802   4.983
12661W        W85729  14.861  36.649  12.449
12662W        W85730  23.460   3.289  11.371
12663W        W85731   3.248   9.582  11.085
12664W        W85732   0.550  24.804  11.117
12665W        W85733  22.148  12.426  13.834
12666W        W85734  19.253  20.681  11.879
12667W        W85735  40.955  41.571   2.298
12668W        W85736  31.566  19.515   5.045
12669W        W85737  15.518   4.220   3.563
12670W        W85738  33.880   1.494  14.893
12671W        W85739  36.331  21.771  11.588
12672W        W85740  41.188   2.970  10.401
12673W        W85741  38.324   0.943  10.164
12674W        W85742  31.861  31.212   4.826
12675W        W85743  32.933  10.843   0.986
12676W        W85744   6.633  35.071   3.694
12677W        W85745  41.158  14.269   1.750
12678W        W85746  33.884  20.808   2.176
12679W        W85747  22.737  44.479   0.026
12680W        W85748   0.220  36.967  11.071
12681W        W85749  26.455  37.974  11.431
12682W        W85750   2.676  22.353  13.957
12683W        W85751   7.920  24.887   3.149
12684W        W85752  16.205  11.841   0.013
12685W        W85753  12.491   6.112  13.059
12686W        W85754  36.892  34.799  11.263
12687W        W85755  27.665  13.308  14.404
12688W        W85756  13.359  24.060  11.258
12689W        W85757  44.331   3.954   5.109
12690W        W85758   4.504  32.600   0.930
12691W        W85759   8.340  17.694  14.954
12692W        W85760  30.927  40.042  10.879
12693W        W85761   7.894  30.622   2.297
12694W        W85762  24.251  26.731   2.326
12695W        W85763  19.068  30.548  10.638
12696W        W85764  32.862  23.378   1.293
12697W        W85765  22.706  39.531   0.726
12698W        W85766   8.093  37.600   0.233
12699W        W85767   1.522  20.014   0.331
12700W        W85768  17.182  36.372   4.302
12701W        W85769  13.085  25.166  13.107
12702W        W85770  38.982  44.903   4.984
12703W        W85771  31.817  14.023  12.962
12704W        W85772   1.813  21.654   0.239
12705W        W85773  41.908  14.844  11.227
12706W        W85774  41.725   0.893   0.011
12707W        W85775  36.391  32.878   1.243
12708W        W85776  18.019  44.463   1.612
12709W        W85777  24.524   9.691   0.749
12710W        W85778  33.588   6.450  14.064
12711W        W85779  12.236   7.794   0.367
12712W        W85780  24.272   4.726  13.918
12713W        W85781  32.539  29.524   1.906
12714W        W85782  17.106  28.755  13.028
12715W        W85783   2.557  25.665   1.455
12716W        W85784  32.185   4.389   2.272
12717W        W85785   6.398  29.101  10.751
12718W        W85786  13.758  21.635  14.603
12719W        W85787  27.513  16.069   1.311
12720W        W85788   0.891  37.482   1.430
12721W        W85789  42.014  38.182  10.708
12722W        W85790  20.084  14.309  10.340
12723W        W85791  13.858   1.464   2.740
12724W        W85792  43.000  42.891  10.085
12725W        W85793  32.908  25.971   1.677
12726W        W85794  11.566  24.091  12.497
12727W        W85795  34.980   6.350  10.802
12728W        W85796  29.187  40.405   0.427
12729W        W85797   4.726  15.768  14.343
12730W        W85798  10.302  33.055  11.245
12731W        W85799  32.698  29.028  14.672
12732W        W85800  33.694  36.132  14.019
12733W        W85801   2.015  13.682  14.528
12734W        W85802   0.977  27.586  13.869
12735W        W85803   3.762  43.196  14.566
12736W        W85804  38.855  31.520   1.452
12737W        W85805   3.855  26.654  11.320
12738W        W85806  15.320   7.823  10.597
12739W        W85807  29.231  25.223   2.819
12740W        W85808  40.354  40.762  14.419
12741W        W85809  35.835   2.319  11.208
12742W        W85810  44.037  32.130  13.827
12743W        W85811  35.859  40.034   1.177
12744W        W85812   7.430  35.587   2.861
12745W        W85813  25.657  15.740  13.358
12746W        W85814  32.454  26.365   1.321
12747W        W85815   3.961  16.697  14.792
12748W        W85816  41.088  43.780  14.365
12749W        W85817  17.808  23.706  12.032
12750W        W85818  17.743  27.427  13.510
12751W        W85819  13.321  26.488   1.169
12752W        W85820  16.688  12.857  14.270
12753W        W85821  22.663  12.139  11.480
12754W        W85822  25.055  41.850   0.212
12755W        W85823  39.281  18.815  12.744
12756W        W85824  24.463  23.602   1.965
12757W        W85825   5.474  32.531  11.103
12758W        W85826   8.690  16.584   0.387
12759W        W85827  23.119  39.389  11.394
12760W        W85828  32.603  21.787  14.970
12761W        W85829  15.806  15.044  10.787
12762W        W85830  24.209  33.378   0.448
12763W        W85831  32.365  15.273  13.074
12764W        W85832   7.966  44.660   3.373
12765W        W85833  29.579  39.696  13.343
12766W        W85834  16.374   1.628  11.169
12767W        W85835  42.859   9.218   1.287
12768W        W85836   1.542  13.447   2.888
12769W        W85837  15.527  22.422   1.240
12770W        W85838  15.887  15.732  12.100
12771W        W85839  38.365  37.642   1.071
12772W        W85840  30.289  19.588  14.884
12773W        W85841  37.471  19.823   0.803
12774W        W85842  14.697   9.220   5.107
12775W        W85843   5.139  27.100  11.015
12776W        W85844  39.932   7.801   5.045
12777W        W85845  42.996   5.032  14.402
12778W        W85846  34.673  12.370   3.313
12779W        W85847  19.585  10.576  12.653
12780W        W85848  23.219  31.542   3.198
12781W        W85849  27.947  14.242   4.565
12782W        W85850  36.051  26.010  12.965
12783W        W85851  18.122  36.775   0.856
12784W        W85852  44.541  43.409   3.854
12785W        W85853  33.664  22.526  13.293
12786W        W85854  15.550  23.643  11.618
12787W        W85855  37.534  20.119  14.375
12788W        W85856  31.664  25.439  11.133
12789W        W85857  43.342  20.437   2.288
12790W        W85858  36.450  18.952   0.261
12791W        W85859  10.596  18.032  11.638
12792W        W85860  29.277   0.258   3.126
12793W        W85861  22.334  44.500  13.712
12794W        W85862  15.692  35.640  13.289
12795W        W85863  42.717   0.693  11.045
12796W        W85864  16.567  13.150   0.754
12797W        W85865  35.633  13.252  13.895
12798W        W85866   5.920  29.557   4.552
12799W        W85867  40.846   7.923   5.000
12800W        W85868  38.498   4.266  11.670
12801W        W85869  11.649   7.690   1.300
12802W        W85870  14.213  42.326  14.335
12803W        W85871  20.180  33.077   2.363
12804W        W85872  37.860  11.794   3.803
12805W        W85873  37.904   2.476   2.475
12806W        W85874  42.465  42.186  11.736
12807W        W85875  16.337  11.458  13.350
12808W        W85876  43.755  31.146   3.623
12809W        W85877   7.152   7.611  12.517
12810W        W85878  26.030  43.364  14.222
12811W        W85879  14.661  22.391   3.970
12812W        W85880   4.923  24.925  11.920
12813W        W85881  29.316  26.530  11.698
12814W        W85882  14.334  38.823  13.458
12815W        W85883  25.762  26.889  14.775
12816W        W85884  22.610  10.186  12.579
12817W        W85885  32.870  39.838  12.589
12818W        W85886  34.091   3.970   4.997
12819W        W85887   3.401  27.047   4.574
12820W        W85888  10.149  18.492   1.178
12821W        W85889  30.434   7.835  11.514
12822W        W85890  43.083  10.904   1.660
12823W        W85891  23.540   7.875  13.337
12824W        W85892   3.708  22.559   2.330
12825W        W85893  31.001  14.438  13.496
12826W        W85894   9.305  38.973   3.362
12827W        W85895  13.848  14.794   0.961
12828W        W85896  25.126  14.424  14.193
12829W        W85897  21.357  19.803  11.102
12830W        W85898  14.662   6.618   2.291
12831W        W85899  26.395   1.681  12.027
12832W        W85900  30.715   1.337   1.996
12833W        W85901   3.487  19.028   2.927
12834W        W85902  18.353   8.060  13.522
12835W        W85903  26.654   7.595   2.310
12836W        W85904  34.859  13.568   2.759
12837W        W85905  39.580  44.539   0.495
12838W        W85906  15.651  27.983  14.927
12839W        W85907   4.248  12.269  14.806
12840W        W85908  18.618  40.816  14.304
12841W        W85909  39.669  41.501   2.350
12842W        W85910  10.846  32.028  11.627
12843W        W85911  19.800  22.719  11.574
12844W        W85912  25.540  27.464   1.716
12845W        W85913  21.782  44.324   3.716
12846W        W85914  22.485  36.688  11.639
12847W        W85915  40.800  10.290  14.479
12848W        W85916  23.119  43.814  12.548
12849W        W85917   2.882  25.659   0.530
12850W        W85918  10.349   9.106   3.759
12851W        W85919  25.620  14.135  13.921
12852W        W85920  32.059  30.373   1.283
12853W        W85921  13.721  29.589  14.067
12854W        W85922   8.363  25.033   4.040
12855W        W85923  13.638  19.185   3.413
12856W        W85924  15.025  23.692   3.540
12857W        W85925  41.870  23.015  11.599
12858W        W85926   1.987  12.325  14.392
12859W        W85927   9.340  16.573  14.107
12860W        W85928  26.079  43.330  13.710
12861W        W85929   2.878   4.932  10.544
12862W        W85930  10.731  16.282   4.607
12863W        W85931  36.504   2.613  13.967
12864W        W85932  20.172   9.325   3.999
12865W        W85933   9.625  35.626  13.977
12866W        W85934  22.537  10.417   0.372
12867W        W85935  36.454   5.487  10.565
12868W        W85936  37.983  19.263  13.494
12869W        W85937  26.494  44.904  11.523
12870W        W85938   1.452   7.271   0.163
12871W        W85939   7.885  18.815  14.742
12872W        W85940   9.542  39.603   2.342
12873W        W85941  19.936  41.235   3.752
12874W        W85942  20.699  41.126   1.078
12875W        W85943  10.880  34.850   2.738
12876W        W85944  20.629  35.731   0.948
12877W        W85945  39.524  34.362   4.377
12878W        W85946   7.295  36.355   4.333
12879W        W85947  16.792  34.860  13.570
12880W        W85948   2.167  43.140  14.957
12881W        W85949  14.572  16.370   3.946
12882W        W85950  17.531  40.006   2.302
12883W        W85951  35.545  27.993   4.297
12884W        W85952  41.247  39.261   2.822
12885W        W85953  29.449  29.907   1.906
12886W        W85954  36.335  36.826  13.007
12887W        W85955  22.690  13.718   1.334
12888W        W85956  23.573  19.777  13.970
12889W        W85957   0.993  31.783   3.438
12890W        W85958  34.468  20.533   0.374
12891W        W85959  14.739   1.759   2.201
12892W        W85960  20.097   6.655  13.555
12893W        W85961  36.209  28.335   3.619
12894W        W85962  37.467  30.490   1.510
12895W        W85963  21.723   6.339  10.151
12896W        W85964  33.528  10.801   0.268
12897W        W85965   1.269  24.575   0.845
12898W        W85966  33.600  23.490   3.730
12899W        W85967  23.292  29.548   0.388
12900W        W85968   5.723  21.288  11.498
12901W        W85969  20.198   9.728   3.645
12902W        W85970  38.748   6.487  13.279
12903W        W85971   9.604  33.853   0.000
12904W        W85972   1.944   7.986  14.718
12905W        W85973  42.050   3.216   4.850
12906W        W85974  38.612  39.131  13.776
12907W        W85975   4.285  22.214  10.977
12908W        W85976  44.918  41.942  10.615
12909W        W85977  14.323   4.214   3.138
12910W        W85978  19.301  31.159   0.826
12911W        W85979   0.343  40.617   0.347
12912W        W85980  26.892  25.282  11.490
12913W        W85981  25.917  20.784   0.987
12914W        W85982  34.938  16.504  11.978
12915W        W85983  17.165  27.801   1.013
12916W        W85984  42.259  11.784  13.404
12917W        W85985  14.407  21.114   9.975
12918W        W85986  12.240  37.340   3.322
12919W        W85987  19.780  27.735   2.279
12920W        W85988  17.267  23.257  14.475
12921W        W85989  42.911   2.434   0.938
12922W        W85990  44.136   8.770  13.485
12923W        W85991   4.493  34.063   0.871
12924W        W85992  39.805  20.080  14.050
12925W        W85993   4.987  28.564   3.361
12926W        W85994  43.335  24.257   1.083
12927W        W85995  17.516  41.946  14.436
12928W        W85996  27.231  25.750  13.733
12929W        W85997  31.084  36.030   3.134
12930W        W85998  40.374  21.763  11.591
12931W        W85999  44.464  24.453  11.068
12932W        W86000  27.468  20.687  13.863
12933W        W86001  35.116  33.760   2.788
12934W        W86002  11.867  21.523   4.159
12935W        W86003  24.794  32.213  11.665
12936W        W86004  42.341  12.007   1.341
12937W        W86005  13.335  44.804  12.560
12938W        W86006   2.864  21.455   1.658
12939W        W86007  21.627  35.037   1.300
12940W        W86008  27.014  25.453  14.741
12941W        W86009  18.054   7.081   2.708
12942W        W86010   8.741   6.865   0.051
12943W        W86011  24.961  36.498  13.042
12944W        W86012   7.178  33.785  11.553
12945W        W86013  33.240  34.878   1.142
12946W        W86014  15.333  41.897  14.846
12947W        W86015  30.968  10.104  13.567
12948W        W86016   6.974  10.260  13.775
12949W        W86017   8.805  31.685   2.369
12950W        W86018   8.793  19.248   4.862
12951W        W86019  24.905  10.241   2.783
12952W        W86020  31.538  29.442  12.481
12953W        W86021  40.547  17.205  13.058
12954W        W86022   4.853   4.533   4.721
12955W        W86023   4.312  42.367  12.990
12956W        W86024  24.756   5.301  11.563
12957W        W86025   9.696  35.489  14.866
12958W        W86026  43.244  43.373   3.260
12959W        W86027  15.265   6.018   4.840
12960W        W86028  11.271  25.840   4.918
12961W        W86029  41.077  23.613  11.891
12962W        W86030  23.544  19.291  12.369
12963W        W86031   5.383  14.890  12.060
12964W        W86032   9.186  30.632   0.783
12965W        W86033  10.754  12.301  11.854
12966W        W86034   2.371  18.511  14.691
12967W        W86035   2.346  13.157  14.941
12968W        W86036  31.384  36.849   4.801
12969W        W86037  28.142  14.765   2.677
12970W        W86038  27.544  20.586   4.836
12971W        W86039  18.347   6.428   0.898
12972W        W86040  38.835   7.001   3.824
12973W        W86041   0.953  13.837   2.814
12974W        W86042  40.454  37.440  11.004
12975W        W86043  26.867   2.327  11.564
12976W        W86044  11.899   3.300   1.748
12977W        W86045  10.286  22.784   5.090
12978W        W86046   5.185   8.930   0.751
12979W        W86047  11.190  12.526   0.877
12980W        W86048  39.254  35.698   4.158
12981W        W86049  39.852  35.896   0.011
12982W        W86050  22.068  13.670  12.074
12983W        W86051  39.264  36.287   3.078
12984W        W86052  32.039  15.197   0.005
12985W        W86053   8.105  11.908  11.449
12986W        W86054  10.834  33.556  12.452
12987W        W86055  38.424  16.596   1.448
12988W        W86056   9.946  11.933   4.614
12989W        W86057  41.285  44.994   2.233
12990W        W86058  26.281  14.333  10.003
12991W        W86059  20.036  25.571   0.444
12992W        W86060  21.270  40.498   3.689
12993W        W86061   3.109   2.513  14.432
12994W        W86062  38.018  29.033   4.581
12995W        W86063  32.837   6.262   3.456
12996W        W86064  18.708  31.841   4.534
12997W        W86065  10.909  16.630  10.686
12998W        W86066   0.280  30.958  10.850
12999W        W86067  33.711  38.657   3.203
13000W        W86068   9.914  19.688  13.418
13001W        W86069  43.890  44.463  11.595
13002W        W86070  15.489  20.995   4.315
13003W        W86071  38.425  13.098   4.169
13004W        W86072   9.497   4.635  11.156
13005W        W86073  14.757  43.715  11.972
13006W        W86074  17.297  14.178  14.785
13007W        W86075   4.141   6.982   3.916
13008W        W86076  36.876  28.587  12.694
13009W        W86077  28.400  24.166   2.739
13010W        W86078  32.078  27.669  11.592
13011W        W86079  19.768  35.420  13.034
13012W        W86080  16.205  42.178   2.694
13013W        W86081  33.457   1.193   4.689
13014W        W86082  20.928   1.129  10.273
13015W        W86083   2.247  16.529   3.090
13016W        W86084  13.654  26.570   2.302
13017W        W86085  11.572  13.646  11.193
13018W        W86086   5.804   5.734  11.594
13019W        W86087  42.116   2.806   3.672
13020W        W86088  21.487  11.778  13.309
13021W        W86089  19.373   5.437  13.345
13022W        W86090  23.450  21.994  14.899
13023W        W86091  29.310  27.717  12.927
13024W        W86092   7.468  44.799   4.715
13025W        W86093   5.620  32.655  11.945
13026W        W86094   8.740  25.241  13.692
13027W        W86095  17.657  16.063   0.904
13028W        W86096   7.889  40.217  14.309
13029W        W86097  34.439  33.031   2.763
13030W        W86098  43.599  37.026   2.400
13031W        W86099   2.276  10.199  14.875
13032W        W86100  27.686  13.365   2.893
13033W        W86101  29.223  31.996   4.089
13034W        W86102  30.630   3.118  12.044
13035W        W86103  28.123  21.548   4.664
13036W        W86104  39.358   2.544  12.686
13037W        W86105  22.907  12.746   4.898
13038W        W86106  40.600  41.234  13.173
13039W        W86107  33.881  41.005  13.419
13040W        W86108  24.545  31.934   2.693
13041W        W86109  32.669  37.556   1.229
13042W        W86110  36.459  21.029   0.976
13043W        W86111   1.010   3.730  14.686
13044W        W86112  29.973  16.378   3.664
13045W        W86113  36.702  26.681  12.880
13046W        W86114   4.137  21.762  10.653
13047W        W86115  34.004   0.824   2.254
13048W        W86116   0.992   7.891  13.185
13049W        W86117  16.791  11.176  10.649
13050W        W86118  33.861  30.493   3.649
13051W        W86119   8.605  25.076  13.182
13052W        W86120  16.517  28.615   2.663
13053W        W86121  24.713  42.815  12.148
13054W        W86122   9.492   5.307   2.646
13055W        W86123  41.084  34.430   3.801
13056W        W86124  19.516  12.616   4.597
13057W        W86125  30.768  18.622  11.589
13058W        W86126  31.155  43.586   2.795
13059W        W86127  10.950  23.841   1.239
13060W        W86128  29.641   2.460  14.877
13061W        W86129  30.969  22.132  13.058
13062W        W86130  29.041  35.940  14.542
13063W        W86131  44.827  29.763  14.770
13064W        W86132  18.381  11.783   4.996
13065W        W86133   0.749  14.587  14.639
13066W        W86134  21.247  22.525  11.217
13067W        W86135  34.022  32.079  13.751
13068W        W86136   5.902  35.320   0.090
13069W        W86137  19.275   2.166  12.001
13070W        W86138   2.376  29.558   4.568
13071W        W86139  16.901  34.087   2.088
13072W        W86140   2.671   8.328  13.387
13073W        W86141  26.692  30.432  12.051
13074W        W86142  14.331   8.249   0.687
13075W        W86143  32.853  13.525   1.302
13076W        W86144  12.013   4.873   4.110
13077W        W86145  16.187   8.211  10.562
13078W        W86146   8.483   2.064   1.337
13079W        W86147  24.883   9.627   1.712
13080W        W86148  21.210   8.285   3.532
13081W        W86149   1.935   3.939  13.420
13082W        W86150  34.928  27.569  14.022
13083W        W86151   2.547  16.961  11.137
13084W        W86152  24.552  27.535   4.199
13085W        W86153  43.555  28.396   0.849
13086W        W86154  37.347  11.865   0.204
13087W        W86155  39.926  39.178  12.170
13088W        W86156   3.968  35.611  12.647
13089W        W86157  38.620  12.195  11.190
13090W        W86158  24.336  44.064  11.061
13091W        W86159  31.356  39.775  14.447
13092W        W86160  20.757   2.844   1.791
13093W        W86161   1.723  43.470   1.932
13094W        W86162  38.606   8.579  13.824
13095W        W86163  19.550  22.205  11.998
13096W        W86164  19.759  11.384   3.692
13097W        W86165  39.557  39.540  12.136
13098W        W86166  44.098   5.870  12.682
13099W        W86167  31.527  25.669  12.049
13100W        W86168   0.941  13.628  14.981
13101W        W86169  39.072  36.524   0.376
13102W        W86170  13.119  44.724  11.248
13103W        W86171  34.787   3.424   1.038
13104W        W86172  25.960  14.839  13.886
13105W        W86173  38.917   4.369  10.728
13106W        W86174  12.399   0.533   4.942
13107W        W86175   2.029  35.597   0.938
13108W        W86176   4.273  43.088  13.472
13109W        W86177  20.166  17.248  13.461
13110W        W86178  20.595  14.861  11.591
13111W        W86179  26.413  32.918   4.314
13112W        W86180  37.496  21.798  12.954
13113W        W86181  21.259   3.227   2.772
13114W        W86182  19.310  44.054  11.459
13115W        W86183  28.961  13.811  13.784
13116W        W86184   8.137  34.607  11.995
13117W        W86185  36.391  43.542  14.793
13118W        W86186  12.777   9.136   1.396
13119W        W86187   0.219   6.707  10.650
13120W        W86188   7.789   0.655  12.584
13121W        W86189  40.854   2.860   0.429
13122W        W86190  42.812   7.612  13.088
13123W        W86191  38.871  17.377   3.916
13124W        W86192  44.538  33.861   2.518
13125W        W86193  36.764  28.303   2.310
13126W        W86194  34.100  19.832  13.166
13127W        W86195  31.632   1.276  13.037
13128W        W86196  35.623  27.022  12.610
13129W        W86197  33.458  38.588  14.371
13130W        W86198  40.017  34.976  14.567
13131W        W86199  17.235   3.655  14.863
13132W        W86200  37.062  35.762  11.096
13133W        W86201  26.596   2.103   1.281
13134W        W86202  39.806  26.911   0.478
13135W        W86203  15.594   8.802   3.897
13136W        W86204  11.687  25.922   1.806
13137W        W86205  22.546  43.754   1.682
13138W        W86206  41.207   8.271  13.318
13139W        W86207   2.923  26.985  11.172
13140W        W86208  11.135  28.158   3.679
13141W        W86209  19.424   4.358  10.441
13142W        W86210  42.394  19.598   4.906
13143W        W86211  11.764  18.734  10.947
13144W        W86212  44.608  11.837   4.700
13145W        W86213   8.626  25.840  12.228
13146W        W86214  17.606  38.451  12.366
13147W        W86215   4.239  14.597  13.928
13148W        W86216  22.024  43.578   5.480
13149W        W86217  31.257  42.948   2.717
13150W        W86218   2.390  25.151  12.539
13151W        W86219  33.162  29.742   2.641
13152W        W86220  43.886   2.389  10.657
13153W        W86221  13.836   6.741   4.235
13154W        W86222  33.492  23.212   1.825
13155W        W86223   7.972  31.532   0.755
13156W        W86224   3.884  17.274  13.002
13157W        W86225  10.673  36.754   0.063
13158W        W86226  17.414  34.112  10.315
13159W        W86227  41.715  33.976  13.129
13160W        W86228  27.596  27.471   3.261
13161W        W86229  19.210  19.086   4.521
13162W        W86230  18.616  21.265   9.980
13163W        W86231  16.062  14.239  13.370
13164W        W86232  23.960  28.829  12.061
13165W        W86233  22.856  42.580   5.123
13166W        W86234   3.191  34.532  14.503
13167W        W86235   9.372  21.544  12.492
13168W        W86236   7.445  35.481  13.933
13169W        W86237  27.888  24.412  11.182
13170W        W86238  28.911  30.997   1.535
13171W        W86239  41.837  12.339   2.652
13172W        W86240   4.729  43.424   1.708
13173W        W86241  28.616  24.277  14.417
13174W        W86242   5.800  19.375   1.836
13175W        W86243   3.639  32.352   2.464
13176W        W86244  36.662   9.639  12.760
13177W        W86245  22.211  17.671  13.841
13178W        W86246  40.593  14.611   1.144
13179W        W86247  17.383  16.231   1.328
13180W        W86248  10.372  11.753   1.231
13181W        W86249  10.613  32.147   1.425
13182W        W86250  35.012   5.926   3.186
13183W        W86251  27.433  32.726  11.919
13184W        W86252  19.646  26.799   0.396
13185W        W86253  15.600  22.688   3.263
13186W        W86254  26.356  12.762   1.792
13187W        W86255  43.157  33.671  12.046
13188W        W86256  22.090  25.633  14.348
13189W        W86257  39.714  37.054  13.326
13190W        W86258   2.855  12.792  11.488
13191W        W86259  23.571  30.034   4.191
13192W        W86260  42.902  11.917   1.778
13193W        W86261  33.400   7.860  10.528
13194W        W86262   7.791  33.785   0.844
13195W        W86263  25.427  23.660  12.149
13196W        W86264  22.652  19.615   4.119
13197W        W86265  41.864  22.765   4.277
13198W        W86266  12.213   3.805  11.627
13199W        W86267  16.761   5.397   1.922
13200W        W86268  21.726  27.965  13.764
13201W        W86269  10.618  16.282   1.222
13202W        W86270  25.725   6.188   4.412
13203W        W86271  42.493  42.769   2.663
13204W        W86272  22.860  11.741   0.197
13205W        W86273  33.828   8.723   4.602
13206W        W86274  40.459  33.507  13.024
13207W        W86275   6.836  40.042   3.107
13208W        W86276   3.792  17.840  13.855
13209W        W86277  21.616  37.607   1.363
13210W        W86278  37.355  19.824   4.085
13211W        W86279  23.151   3.887  13.901
13212W        W86280  18.528   4.358   0.372
13213W        W86281   6.230  31.251  12.124
13214W        W86282  24.881  38.905  12.932
13215W        W86283  11.617  10.187   1.896
13216W        W86284  16.644  32.164   4.284
13217W        W86285  16.119   0.720  12.643
13218W        W86286  20.476  36.833   1.689
13219W        W86287  37.378  28.549  14.359
13220W        W86288  36.356  11.260  13.147
13221W        W86289  22.618  25.723   1.247
13222W        W86290  23.500   7.623  13.803
13223W        W86291  12.586  35.369  14.367
13224W        W86292  32.553   0.277   1.677
13225W        W86293   8.564  34.674  11.133
13226W        W86294   4.193   3.818  11.181
13227W        W86295   5.196  30.403   0.450
13228W        W86296   2.757  31.956  13.785
13229W        W86297  38.381   3.935  14.399
13230W        W86298  11.807  27.522   0.890
13231W        W86299  22.769  33.430   3.340
13232W        W86300  44.636   5.513   4.965
13233W        W86301  17.725  12.596  13.033
13234W        W86302  27.469  42.912  14.316
13235W        W86303  14.576  39.484  11.120
13236W        W86304   3.376  36.387   3.366
13237W        W86305  26.634  38.123  14.785
13238W        W86306   5.521  29.055   2.826
13239W        W86307  33.104  44.720  14.218
13240W        W86308   1.037  44.469   1.849
13241W        W86309  43.532  37.464  13.968
13242W        W86310   0.743  35.253   1.858
13243W        W86311  18.702  11.404  13.328
13244W        W86312  15.222  37.843  14.904
13245W        W86313   2.446  23.181  11.157
13246W        W86314  28.226  39.758   4.245
13247W        W86315  12.989  42.905   4.695
13248W        W86316  37.029   1.976   2.334
13249W        W86317   1.768  44.097  13.369
13250W        W86318  39.912   8.989   3.172
13251W        W86319  25.579  10.102  14.857
13252W        W86320  24.784  40.502  11.990
13253W        W86321  39.373  15.543   2.554
13254W        W86322  24.516  20.668   2.611
13255W        W86323  33.825  11.261  12.446
13256W        W86324   6.047  42.900  11.080
13257W        W86325  16.326   6.497  12.941
13258W        W86326  12.815   8.188   0.941
13259W        W86327  34.561  21.678  14.762
13260W        W86328  43.277  20.224   0.948
13261W        W86329  43.489   8.216  11.988
13262W        W86330  33.679  39.982   2.271
13263W        W86331  34.626  27.423   3.422
13264W        W86332   4.508   4.833  11.060
13265W        W86333   1.431  11.898  12.919
13266W        W86334  41.938  23.070   1.977
13267W        W86335  34.120  22.736  11.118
13268W        W86336  19.301   7.453   4.099
13269W        W86337  11.846  30.936   1.290
13270W        W86338  22.219  30.652  13.876
13271W        W86339  43.684  20.301   3.768
13272W        W86340  16.342  38.388   4.530
13273W        W86341  32.226  43.914  14.437
13274W        W86342  22.976   8.313   0.969
13275W        W86343   8.813  38.466   3.306
13276W        W86344  25.999  14.974  11.915
13277W        W86345   9.755  12.426  14.835
13278W        W86346  31.443  37.558   2.536
13279W        W86347   2.358  14.157   0.694
13280W        W86348  44.366  38.577   1.652
13281W        W86349  42.287  23.976   4.627
13282W        W86350  14.543  29.923   3.286
13283W        W86351   6.658  11.829   3.213
13284W        W86352  10.999   8.904  14.093
13285W        W86353  39.834   2.254  12.169
13286W        W86354  19.945  44.466   3.126
13287W        W86355  18.423   5.254   1.241
13288W        W86356   3.283   3.761  12.033
13289W        W86357  38.638   3.066  11.224
13290W        W86358  28.528  16.267   0.927
13291W        W86359   6.957  17.973   0.890
13292W        W86360  26.639   3.199   3.166
13293W        W86361  26.189  16.682  13.978
13294W        W86362   2.390  10.378  11.996
13295W        W86363  35.135  33.242   2.592
13296W        W86364  33.662  13.540  12.644
13297W        W86365   4.902  30.800   2.467
13298W        W86366  30.954  25.892  14.344
13299W        W86367  20.539   9.738  14.776
13300W        W86368  26.535  17.813  13.017
13301W        W86369  35.243  38.802  14.226
13302W        W86370   1.429  36.230  10.709
13303W        W86371  33.937  23.449  13.616
13304W        W86372   1.844  40.070  14.465
13305W        W86373  17.494  13.124   3.305
13306W        W86374   9.559  44.299   2.400
13307W        W86375  37.021  38.706  11.703
13308W        W86376   1.304  13.110  11.078
13309W        W86377  17.671  15.248   1.238
13310W        W86378  36.327  38.941  10.938
13311W        W86379  14.891   8.265  14.975
13312W        W86380   4.782  43.019   0.497
13313W        W86381   1.415  31.333   0.807
13314W        W86382  38.445   6.890   4.788
13315W        W86383  44.991  41.043   4.967
13316W        W86384  26.797  17.598   2.227
13317W        W86385  13.331  39.776  13.896
13318W        W86386  20.648  27.571   2.386
13319W        W86387  19.319  41.613  12.703
13320W        W86388  37.834  41.367   2.911
13321W        W86389  21.257  41.323  13.314
13322W        W86390  12.805   9.637   2.891
13323W        W86391  16.373  16.973  14.542
13324W        W86392  37.292  18.491   2.757
13325W        W86393  10.478   3.200  12.437
13326W        W86394  28.094  41.738  14.864
13327W        W86395  42.612   8.076   3.206
13328W        W86396  43.014  25.412   2.717
13329W        W86397  32.168   5.229   3.402
13330W        W86398   3.641   4.154  14.418
13331W        W86399  26.145  40.668  13.436
13332W        W86400  19.887  34.370  13.831
13333W        W86401  11.451   5.403  11.163
13334W        W86402  25.917  28.265   4.803
13335W        W86403  14.317  31.818  14.318
13336W        W86404  27.166  29.175  14.847
13337W        W86405  27.214   4.877  12.024
13338W        W86406   7.173   3.670   1.386
13339W        W86407  18.568   9.947   1.376
13340W        W86408  36.188  41.307   1.349
13341W        W86409  19.003  38.898   2.204
13342W        W86410  31.316  34.680   2.497
13343W        W86411  15.724  39.872   4.249
13344W        W86412  25.857  41.826   1.048
13345W        W86413   7.940  41.417  12.812
13346W        W86414  24.334  42.725   2.738
13347W        W86415  31.022   8.259   3.785
13348W        W86416   7.166   0.018  10.690
13349W        W86417  14.815   3.971  13.350
13350W        W86418  37.290   3.661   0.464
13351W        W86419  38.487   7.265   1.265
13352W        W86420  33.527   8.468   0.937
13353W        W86421  43.424  41.296  11.579
13354W        W86422  12.232  27.501  12.559
13355W        W86423   7.845  27.667  14.816
13356W        W86424  25.517  13.414  14.613
13357W        W86425  21.155   6.139  10.666
13358W        W86426  17.516  16.160  13.329
13359W        W86427  22.123   7.305  10.775
13360W        W86428   2.863  38.348  10.665
13361W        W86429   8.962  37.354   4.682
13362W        W86430  26.235   1.345   1.665
13363W        W86431   2.816   8.436  10.677
13364W        W86432  42.914  19.498   3.202
13365W        W86433  11.913   0.516  12.979
13366W        W86434  20.067  16.800  12.353
13367W        W86435  36.371   4.106  14.945
13368W        W86436   4.178  16.566   2.903
13369W        W86437  42.308  20.626  14.379
13370W        W86438   1.467  14.044   3.509
13371W        W86439  41.886  22.269   2.356
13372W        W86440  35.862  25.406  13.408
13373W        W86441  42.807   8.674  14.371
13374W        W86442   3.965  22.167   1.290
13375W        W86443   4.162  29.717  13.037
13376W        W86444  11.623  42.131  11.632
13377W        W86445  16.126  40.019  14.397
13378W        W86446  12.870  32.027   3.774
13379W        W86447  20.270  19.649  12.658
13380W        W86448  17.058  16.147   2.615
13381W        W86449  22.811  20.965   2.478
13382W        W86450  16.877  23.685   2.807
13383W        W86451  17.958  25.226   1.735
13384W        W86452  32.046   2.000   0.778
13385W        W86453  33.617  40.498   2.272
13386W        W86454  19.411  16.761  11.381
13387W        W86455  19.722   8.575  13.410
13388W        W86456  39.368   7.315  11.574
13389W        W86457  16.283   9.858   3.636
13390W        W86458  12.775  31.959  13.511
13391W        W86459   8.624  28.599  13.522
13392W        W86460  27.567  27.509  12.003
13393W        W86461  20.690   9.050   4.605
13394W        W86462  14.359   2.367   3.136
13395W        W86463   9.352  20.778   0.756
13396W        W86464  31.841  22.842  12.111
13397W        W86465   1.407  38.153   2.717
13398W        W86466  18.015  43.774   3.791
13399W        W86467  42.527  27.493  10.718
13400W        W86468  24.907  14.245   1.683
13401W        W86469  39.880  29.961  11.595
13402W        W86470  13.379   0.980  14.404
13403W        W86471  27.232  17.560  12.042
13404W        W86472  16.912   4.867   3.176
13405W        W86473  25.266  33.159  12.431
13406W        W86474   7.759  12.902  14.244
13407W        W86475  30.218  37.948   2.905
13408W        W86476  34.503  12.694   1.251
13409W        W86477  36.608  30.638  12.379
13410W        W86478  34.664   9.752  13.495
13411W        W86479  10.033  32.527  12.060
13412W        W86480   4.804  13.736   3.142
13413W        W86481  31.914  24.452   0.175
13414W        W86482  28.530  27.886   3.171
13415W        W86483  10.129   4.500  14.909
13416W        W86484  43.180  26.530   4.159
13417W        W86485   4.296  17.487   1.794
13418W        W86486   5.118   4.336  12.093
13419W        W86487   7.411  23.943   1.808
13420W        W86488  30.881   6.138   4.660
13421W        W86489   6.975   4.489  12.059
13422W        W86490  44.349  23.958  13.390
13423W        W86491  15.303   7.983  14.427
13424W        W86492  38.543  36.829  10.676
13425W        W86493  41.052  30.345  11.081
13426W        W86494  38.369  10.125  13.881
13427W        W86495  32.179  20.630   3.221
13428W        W86496  43.687  34.835  12.543
13429W        W86497  11.597  19.677  11.384
13430W        W86498  41.459  35.944   1.757
13431W        W86499   6.809  36.429  10.771
13432W        W86500  30.666  13.031   2.341
13433W        W86501  32.081  35.510   2.825
13434W        W86502  43.885  29.366  13.848
13435W        W86503  36.397  44.416   0.809
13436W        W86504  12.288  40.724   3.075
13437W        W86505  14.851  12.331   1.199
13438W        W86506  13.806  12.254  12.974
13439W        W86507  11.874  28.681  10.673
13440W        W86508   1.244  29.563   1.628
13441W        W86509   8.579  24.003   4.477
13442W        W86510  21.059   7.211  14.450
13443W        W86511  17.774  30.047   2.270
13444W        W86512   4.977   1.171   1.962
13445W        W86513  25.725  32.098  12.536
13446W        W86514  10.131  40.573  13.480
13447W        W86515  12.770  35.091  14.767
13448W        W86516  31.196   9.653  11.024
13449W        W86517  41.549  33.058  13.857
13450W        W86518  34.248  14.136   1.870
13451W        W86519   2.411  31.091  12.066
13452W        W86520  13.905  20.970  13.969
13453W        W86521  40.904  23.019   4.741
13454W        W86522  22.081  38.425  12.097
13455W        W86523  23.694   3.872  13.841
13456W        W86524  20.319  27.927   0.658
13457W        W86525  33.375  38.911   1.968
13458W        W86526  39.927  40.948   2.844
13459W        W86527   3.364  18.088  13.934
13460W        W86528  20.117  15.112  10.728
13461W        W86529  29.038  43.253   0.653
13462W        W86530   9.192  40.987   3.269
13463W        W86531   0.490  22.472  13.071
13464W        W86532  17.066   1.798   4.943
13465W        W86533   5.941  35.629  14.127
13466W        W86534  30.719  36.033  11.409
13467W        W86535  31.933   5.259   0.718
13468W        W86536  38.138   5.696   1.329
13469W        W86537   9.868   0.510   2.810
13470W        W86538  17.718  20.252  10.775
13471W        W86539  33.289  26.366   0.791
13472W        W86540  34.544  44.576   1.231
13473W        W86541   6.385  18.019  14.648
13474W        W86542  29.129  31.401  14.964
13475W        W86543  35.805  38.338  12.030
13476W        W86544  30.079  25.101   3.039
13477W        W86545  21.745  10.668   2.624
13478W        W86546  19.621  24.472  14.074
13479W        W86547   0.959  27.200   1.862
13480W        W86548  44.916   4.903   0.749
13481W        W86549  31.204  27.063   1.319
13482W        W86550   1.418  35.973  11.433
13483W        W86551   8.725   1.423   4.561
13484W        W86552  36.892  22.114   2.662
13485W        W86553  28.485  21.539   1.376
13486W        W86554   8.748  16.080  13.012
13487W        W86555  34.568  29.154   2.793
13488W        W86556  28.192   8.293  10.384
13489W        W86557   3.938  10.867   4.053
13490W        W86558  10.900  43.366  14.268
13491W        W86559   8.710  25.768  13.980
13492W        W86560   6.589  37.867   5.170
13493W        W86561  24.181  21.241   0.259
13494W        W86562  12.504   7.816  12.095
13495W        W86563  14.594  12.699  13.045
13496W        W86564  23.753  10.710   3.110
13497W        W86565   4.193  18.767  11.061
13498W        W86566   1.953  15.152   5.015
13499W        W86567  36.893  25.922  12.412
13500W        W86568   0.948  29.611   4.570
13501W        W86569  11.268  32.092  14.806
13502W        W86570   9.556   3.162   0.076
13503W        W86571  22.278  11.957   2.452
13504W        W86572  36.989   1.180   0.256
13505W        W86573  19.013  33.411  11.843
13506W        W86574  25.536   2.441   1.271
13507W        W86575   4.401  29.450  12.682
13508W        W86576  20.785  26.399   2.759
13509W        W86577   3.710   5.352   3.992
13510W        W86578   1.650  15.082  10.999
13511W        W86579  10.265  11.144  12.016
13512W        W86580  37.851   3.951   4.414
13513W        W86581   3.944   0.820   0.830
13514W        W86582  20.918  29.966   4.087
13515W        W86583   2.899  21.741  13.434
13516W        W86584  43.072  25.533   3.217
13517W        W86585  11.233   1.225   4.556
13518W        W86586  34.357  31.027  12.132
13519W        W86587  28.620  43.347   1.773
13520W        W86588   0.443  10.314  13.326
13521W        W86589   5.233  22.010  12.588
13522W        W86590  40.505  11.679   4.599
13523W        W86591  42.580  14.155   2.836
13524W        W86592  16.745  30.251  12.961
13525W        W86593  28.949   5.792   0.785
13526W        W86594   4.379  35.545   2.315
13527W        W86595  25.641  43.698  14.319
13528W        W86596  13.385  28.051  12.036
13529W        W86597  31.917  31.695  12.006
13530W        W86598  12.272   8.672   3.760
13531W        W86599  40.086  31.963  10.915
13532W        W86600  10.414   6.911  13.359
13533W        W86601  38.543  15.562   1.933
13534W        W86602  38.758  40.035  14.461
13535W        W86603  39.730  21.801   2.021
13536W        W86604  15.101  13.464  12.110
13537W        W86605  13.590  13.305   4.612
13538W        W86606  10.817  37.445   1.336
13539W        W86607  27.417  43.797   0.295
13540W        W86608  20.054   3.390  13.283
13541W        W86609  22.156  10.514   3.689
13542W        W86610   1.313  11.588  11.023
13543W        W86611   2.928  26.603   1.882
13544W        W86612   3.574  30.213   1.474
13545W        W86613   7.878   3.810   3.883
13546W        W86614  14.651  38.904  13.038
13547W        W86615   9.833  37.170  10.057
13548W        W86616  42.267  36.550  13.459
13549W        W86617  20.179  28.960   2.388
13550W        W86618   1.034  32.744  10.674
13551W        W86619  33.164  33.659   0.315
13552W        W86620  34.505  29.362   0.731
13553W        W86621   6.843  22.792  14.145
13554W        W86622  20.096  13.410   3.196
13555W        W86623  37.843   1.218  11.993
13556W        W86624  24.390   2.730  11.426
13557W        W86625  26.518   6.454  10.727
13558W        W86626   3.672  40.893  14.395
13559W        W86627  34.761   1.371   0.638
13560W        W86628  39.436  42.041  11.423
13561W        W86629  41.412   3.901  13.575
13562W        W86630  10.329   7.977   4.519
13563W        W86631  20.597  25.099   1.679
13564W        W86632   7.352  28.621  11.552
13565W        W86633  24.029  44.267   0.927
13566W        W86634  21.009  39.062  11.970
13567W        W86635  16.145  21.626  14.493
13568W        W86636   6.707  23.005   0.463
13569W        W86637   8.650  14.465  12.057
13570W        W86638   1.819  44.808  14.884
13571W        W86639  37.779   0.328   4.480
13572W        W86640  34.111   3.330  12.940
13573W        W86641  19.547   0.069   4.146
13574W        W86642  18.811   3.975  14.361
13575W        W86643  44.325   9.802  10.745
13576W        W86644  25.639  35.515  10.737
13577W        W86645  37.492   4.932  13.378
13578W        W86646   2.753  31.918   2.268
13579W        W86647  32.678   5.088  10.640
13580W        W86648   4.044  23.958  14.300
13581W        W86649  27.720  14.272  12.997
13582W        W86650  38.961  31.423  14.993
13583W        W86651   2.815  23.147   3.760
13584W        W86652  35.866   1.975   0.643
13585W        W86653   8.284   5.955  12.473
13586W        W86654  20.000  21.186  14.477
13587W        W86655  26.682  37.415  13.480
13588W        W86656  14.374  21.675   1.281
13589W        W86657   2.896  25.486   4.377
13590W        W86658  38.938  39.152  14.587
13591W        W86659  23.204  23.288  11.215
13592W        W86660  33.469  17.201  10.422
13593W        W86661  33.067  36.439  13.127
13594W        W86662  41.118  14.600   0.349
13595W        W86663   6.615  30.814  12.985
13596W        W86664   4.372  37.919   3.709
13597W        W86665  32.495  15.736   0.537
13598W        W86666   4.015  13.939   4.876
13599W        W86667  23.992   5.683   1.131
13600W        W86668  34.441  21.240  11.211
13601W        W86669  29.485  35.973  13.628
13602W        W86670  40.760  24.681  12.916
13603W        W86671  39.408   6.825  10.639
13604W        W86672   1.421  42.910  14.005
13605W        W86673  11.845  18.613   1.453
13606W        W86674  40.990  23.144  14.905
13607W        W86675  17.776  29.967  11.172
13608W        W86676  14.581   9.391   1.852
13609W        W86677  18.615  28.179   3.196
13610W        W86678  40.020   8.802  14.956
13611W        W86679  41.538  18.556   0.046
13612W        W86680   8.967  30.146  12.467
13613W        W86681   7.076   3.684   3.610
13614W        W86682  24.483  34.053  14.213
13615W        W86683  34.138  33.052   3.681
13616W        W86684  10.822  28.314   4.153
13617W        W86685  32.370  28.003   1.208
13618W        W86686  37.783   3.346   3.878
13619W        W86687  21.043  13.894  12.611
13620W        W86688  32.568  20.105  14.511
13621W        W86689  41.923  25.173   4.914
13622W        W86690  33.517   9.152   2.233
13623W        W86691  16.768  42.472  13.006
13624W        W86692  20.772  17.279   3.382
13625W        W86693  20.976  39.786   3.074
13626W        W86694  15.538  33.434  10.701
13627W        W86695  27.212  17.335  11.182
13628W        W86696  14.048   7.765   4.211
13629W        W86697  37.664  11.558  12.445
13630W        W86698  13.135  17.575  14.354
13631W        W86699  26.444   4.039  10.111
13632W        W86700  15.652  35.020   3.441
13633W        W86701  18.956  10.331  10.777
13634W        W86702  42.499  21.302  13.734
13635W        W86703  15.217  30.978  13.433
13636W        W86704  22.624  22.291   3.641
13637W        W86705  13.726  35.953  11.068
13638W        W86706  17.092  20.384   9.851
13639W        W86707  40.903  19.001   0.690
13640W        W86708  21.685  39.551  13.274
13641W        W86709  44.658  39.886   0.802
13642W        W86710   5.756  41.861   2.734
13643W        W86711  39.287   5.108  12.193
13644W        W86712  23.957  35.074  11.777
13645W        W86713  21.848  43.801  14.313
13646W        W86714   7.827  38.076   5.053
13647W        W86715  40.668  26.036   1.675
13648W        W86716  27.209  16.413   2.838
13649W        W86717  12.990  29.485   0.690
13650W        W86718   1.226  34.623  12.061
13651W        W86719   5.491  10.756   2.373
13652W        W86720  21.466  26.099  13.080
13653W        W86721   4.452  30.409  11.688
13654W        W86722  13.649  31.031  10.644
13655W        W86723  40.814  43.513   0.739
13656W        W86724   0.780  19.596   3.425
13657W        W86725  17.929   5.859   1.750
13658W        W86726  26.058  36.487   4.555
13659W        W86727  27.138  41.432  11.568
13660W        W86728   5.535  38.259   3.178
13661W        W86729  19.295  13.723  13.129
13662W        W86730  33.173   0.264  11.050
13663W        W86731  18.629  31.123  12.073
13664W        W86732   3.905  39.809  14.879
13665W        W86733  16.584  38.518  10.721
13666W        W86734   0.027  11.920  12.989
13667W        W86735  14.437  42.151  12.586
13668W        W86736  37.418  28.661  11.976
13669W        W86737   3.411  17.375  11.571
13670W        W86738  29.513  21.174  13.552
13671W        W86739   9.956  42.057   0.321
13672W        W86740  23.269  20.072   2.052
13673W        W86741  40.072  15.419   5.367
13674W        W86742  39.573  30.626   2.198
13675W        W86743  18.256  26.922   0.195
13676W        W86744  40.477   6.672   2.463
13677W        W86745  19.841  16.348   4.510
13678W        W86746  22.644  11.994   1.033
13679W        W86747  19.831  44.519  12.569
13680W        W86748  12.739  43.976  10.609
13681W        W86749  11.850  20.543  13.432
13682W        W86750  18.671  20.759   3.296
13683W        W86751  19.957  15.093   3.661
13684W        W86752  23.621  23.535   4.125
13685W        W86753  12.366  36.722   0.466
13686W        W86754  42.977  12.687   3.804
13687W        W86755   1.977  23.042   1.287
13688W        W86756  31.354  12.269  13.059
13689W        W86757  39.015   0.297  11.650
13690W        W86758  21.652  31.109  14.877
13691W        W86759  19.704  32.060   4.597
13692W        W86760  27.295   1.891   1.806
13693W        W86761  15.718  21.247   3.394
13694W        W86762  30.561  39.424  12.620
13695W        W86763  24.186   0.876   0.960
13696W        W86764  37.705  25.980  11.932
13697W        W86765  44.758  44.308   2.235
13698W        W86766  12.151  32.481  12.122
13699W        W86767   5.008   2.158  11.222
13700W        W86768  21.218  15.165   3.576
13701W        W86769  31.321  35.915  12.600
13702W        W86770  14.270  39.908  11.194
13703W        W86771  16.320  23.745   0.419
13704W        W86772   6.231  40.536  11.552
13705W        W86773  12.023   7.268   0.059
13706W        W86774  43.571   5.973   0.579
13707W        W86775  41.548  18.336   3.706
13708W        W86776  33.588   1.493  10.962
13709W        W86777  18.547  11.523   2.155
13710W        W86778  23.416   4.221   2.622
13711W        W86779  32.878  28.488  12.187
13712W        W86780  16.574  33.695  13.022
13713W        W86781   9.769  16.607   1.345
13714W        W86782  37.488   6.686  13.984
13715W        W86783  12.773  40.080   3.726
13716W        W86784  44.315  20.220  10.456
13717W        W86785  18.098  10.127  13.023
13718W        W86786   8.897  37.564  12.380
13719W        W86787  37.987  11.553   2.421
13720W        W86788  12.109  24.499  14.404
13721W        W86789   1.703  33.379   3.794
13722W        W86790  36.016  21.988  11.123
13723W        W86791  16.619   5.955  10.342
13724W        W86792  32.653  26.656  13.497
13725W        W86793   5.777  25.104   3.835
13726W        W86794  20.981  29.165  12.726
13727W        W86795  16.804   1.730   3.608
13728W        W86796  36.415  16.832  14.332
13729W        W86797  25.046   3.496   2.456
13730W        W86798  17.590   7.261   1.702
13731W        W86799  36.808  19.697  13.168
13732W        W86800  31.425  17.867  13.424
13733W        W86801  19.900  30.089   4.236
13734W        W86802  20.367  39.471   3.636
13735W        W86803  40.841  18.987  10.722
13736W        W86804  17.280  39.395   4.677
13737W        W86805   6.179  13.733   4.455
13738W        W86806   8.935  15.052  12.995
13739W        W86807  25.804  14.713   1.393
13740W        W86808  44.963  10.721  11.917
13741W        W86809  42.785  25.142  13.331
13742W        W86810  19.070  12.763  11.674
13743W        W86811   3.650  28.151  14.400
13744W        W86812  22.624   5.750  13.788
13745W        W86813  15.338  12.292  12.874
13746W        W86814  19.293  13.246   4.720
13747W        W86815   2.396  30.437  12.414
13748W        W86816  31.186   0.121   1.252
13749W        W86817   5.249  41.822  12.086
13750W        W86818  34.838  19.281  11.531
13751W        W86819   5.458  42.274  11.977
13752W        W86820   4.011  19.111   4.441
13753W        W86821  17.576   9.645   3.287
13754W        W86822  12.618   8.689  13.528
13755W        W86823  38.575  36.568  11.564
13756W        W86824  24.169   6.306  13.920
13757W        W86825   4.809  14.029  14.533
13758W        W86826  19.539  23.528   3.770
13759W        W86827  17.046  23.362  14.923
13760W        W86828  23.228   8.261  13.505
13761W        W86829   9.752  13.208  13.008
13762W        W86830   0.525  18.593   3.821
13763W        W86831  33.340  26.454  14.498
13764W        W86832  25.977  29.645   1.471
13765W        W86833  44.395  42.357  11.707
13766W        W86834   0.227   3.029   1.342
13767W        W86835  36.531  14.436   0.552
13768W        W86836  17.642  15.669   2.304
13769W        W86837  14.566  40.614  10.730
13770W        W86838   7.295  14.522   0.803
13771W        W86839  25.934  30.111  11.212
13772W        W86840  13.147  15.221   2.845
13773W        W86841   3.271  28.510  14.316
13774W        W86842  42.964   7.181  13.980
13775W        W86843   4.661   0.046   3.691
13776W        W86844   8.521  17.800   1.980
13777W        W86845   5.459  34.198   1.221
13778W        W86846  34.809  11.273  13.507
13779W        W86847  30.668  38.108  13.432
13780W        W86848  27.112  19.872   2.413
13781W        W86849  21.574  27.280   2.352
13782W        W86850   3.449  39.560   4.813
13783W        W86851  41.299  22.183   3.851
13784W        W86852   6.378  33.976  12.142
13785W        W86853  29.876   7.537  13.120
13786W        W86854  16.960  17.277   9.776
13787W        W86855  31.145   5.775   0.992
13788W        W86856  17.873  23.020   1.303
13789W        W86857  13.642   5.256   3.857
13790W        W86858  29.170  40.050   1.213
13791W        W86859  10.905  28.042  13.620
13792W        W86860  31.293  32.484  11.220
13793W        W86861  28.651  21.126  14.767
13794W        W86862   6.861  38.075   4.714
13795W        W86863  11.801   5.298   0.020
13796W        W86864  17.746   5.471  12.486
13797W        W86865  36.921  12.084   4.696
13798W        W86866   3.987  42.879   3.663
13799W        W86867  27.397  31.511  11.379
13800W        W86868   9.295  34.594  14.836
13801W        W86869   8.241   8.849   3.606
13802W        W86870  35.501  10.370  10.868
13803W        W86871  41.575  13.369   1.747
13804W        W86872  40.751  23.673   3.765
13805W        W86873  43.689   6.942  13.762
13806W        W86874   1.361   9.157   0.535
13807W        W86875  39.760  18.761  12.893
13808W        W86876  40.857  13.167   4.065
13809W        W86877  35.899  16.897  14.384
13810W        W86878  14.525  11.951  13.525
13811W        W86879   2.243  28.613   0.354
13812W        W86880   6.350   0.097  14.858
13813W        W86881  42.684  26.393   5.270
13814W        W86882  20.112  36.000  10.126
13815W        W86883  23.641  32.714  10.548
13816W        W86884  25.048  11.312  13.196
13817W        W86885  23.018  42.851  12.861
13818W        W86886  23.642  11.125   1.154
13819W        W86887  10.947  31.119  12.924
13820W        W86888  36.057  39.260  12.849
13821W        W86889  28.959  24.407  14.056
13822W        W86890  19.587  36.481  14.370
13823W        W86891  33.034  20.774   3.748
13824W        W86892  27.056  14.567   1.898
13825W        W86893   2.968  14.268   2.271
13826W        W86894  10.433   9.387   1.177
13827W        W86895  20.476  30.364   4.563
13828W        W86896  28.135  27.047   3.610
13829W        W86897  37.016  41.669  13.334
13830W        W86898  12.354  29.358  11.111
13831W        W86899   8.282  35.603   3.840
13832W        W86900  24.726  31.739   3.301
13833W        W86901  43.083  14.726   2.355
13834W        W86902  42.065   6.621  10.309
13835W        W86903  16.235  37.681  12.970
13836W        W86904   4.913  44.807  11.166
13837W        W86905  41.477  17.672  14.547
13838W        W86906  29.016  41.972   4.031
13839W        W86907  14.378  27.432   3.381
13840W        W86908  37.637  42.418   0.421
13841W        W86909  27.897  22.766  13.490
13842W        W86910  40.501  24.044  14.001
13843W        W86911  31.413  13.880   3.716
13844W        W86912  15.718  21.189   2.881
13845W        W86913   0.902  16.185  14.577
13846W        W86914  16.733  15.162   3.287
13847W        W86915  22.066  16.195   2.133
13848W        W86916  43.690   8.684  10.887
13849W        W86917  39.002  15.024  12.071
13850W        W86918  21.616  32.340  14.379
13851W        W86919  28.537  33.124  10.678
13852W        W86920  38.561  26.632  13.932
13853W        W86921   8.727   7.650   2.963
13854W        W86922  25.615  26.448   0.829
13855W        W86923   7.255  34.715  13.562
13856W        W86924  13.664  39.493  12.805
13857W        W86925  13.065  42.119   1.821
13858W        W86926  38.106  26.693   4.232
13859W        W86927  35.096  17.592  12.979
13860W        W86928   0.886  12.055   2.288
13861W        W86929  23.619  13.147  11.946
13862W        W86930  22.862  43.197   4.346
13863W        W86931   7.188  23.683  11.566
13864W        W86932   1.114  17.798  11.578
13865W        W86933  22.299  29.704   4.667
13866W        W86934  18.155   1.284   4.236
13867W        W86935   4.868  44.096  14.025
13868W        W86936  27.966  22.681  14.997
13869W        W86937  12.670  43.460   1.781
13870W        W86938  26.979   8.258  14.741
13871W        W86939  23.685  35.938  10.367
13872W        W86940  29.104  35.267  12.290
13873W        W86941   4.387  33.661  11.195
13874W        W86942   1.990  15.696   1.627
13875W        W86943  43.450  39.992  10.683
13876W        W86944  25.948   1.323   0.154
13877W        W86945  38.594  12.133   1.285
13878W        W86946  19.215  24.553  14.930
13879W        W86947   8.122  39.380   1.045
13880W        W86948   1.713  32.937  14.139
13881W        W86949   9.343  43.398   3.329
13882W        W86950  23.357  34.779   2.471
13883W        W86951   2.658  36.077   3.590
13884W        W86952  10.302   1.588  10.304
13885W        W86953   8.460  39.612   0.714
13886W        W86954   9.762   5.416  14.273
13887W        W86955   2.319  42.207   2.918
13888W        W86956  30.050  18.768   4.832
13889W        W86957  28.670  36.952   1.918
13890W        W86958  27.412  12.908  14.148
13891W        W86959  38.610  24.521  14.968
13892W        W86960  18.048  36.051   1.784
13893W        W86961  11.807  43.312   0.396
13894W        W86962  42.090  35.270  11.036
13895W        W86963  19.875  24.933   9.906
13896W        W86964  27.266   3.485   0.295
13897W        W86965   9.264  14.990   5.093
13898W        W86966  13.098  20.829  14.494
13899W        W86967   1.225  16.631  12.465
13900W        W86968  26.489  11.717   1.417
13901W        W86969  27.654   4.963   2.256
13902W        W86970  10.261  40.244   4.971
13903W        W86971  38.401  27.666  11.172
13904W        W86972  24.555  23.546   0.555
13905W        W86973  18.621  13.223   1.274
13906W        W86974  25.518  42.711   0.254
13907W        W86975   1.225  23.470  11.529
13908W        W86976   1.091   9.395  13.974
13909W        W86977  32.002  17.745   3.706
13910W        W86978  29.411  41.975  12.241
13911W        W86979  40.583  39.455  11.944
13912W        W86980  33.468  34.344  13.384
13913W        W86981  20.983  25.615  14.016
13914W        W86982   0.398  28.073   3.646
13915W        W86983  24.324   9.557   3.833
13916W        W86984  31.214  19.372   1.698
13917W        W86985   1.421  35.581  12.712
13918W        W86986  36.565   5.405  13.581
13919W        W86987  20.235  18.608  13.610
13920W        W86988  14.910   4.518   0.302
13921W        W86989  31.089  38.771   1.281
13922W        W86990   6.895  31.304   1.372
13923W        W86991  40.567  39.685  10.715
13924W        W86992  19.081  17.251  14.390
13925W        W86993   1.430  19.064   0.522
13926W        W86994  18.607  11.952  13.415
13927W        W86995  28.693  11.131   3.585
13928W        W86996   5.748  12.113  11.183
13929W        W86997  14.832  12.182   4.116
13930W        W86998  35.394  28.608  13.025
13931W        W86999  36.673  34.201  14.007
13932W        W87000  23.577  35.342  12.018
13933W        W87001  15.271  11.654   3.343
13934W        W87002  36.504  22.613  14.041
13935W        W87003  34.011   1.241   2.588
13936W        W87004   8.731  36.966   4.401
13937W        W87005   8.996  12.112  12.396
13938W        W87006   1.865  37.460   4.698
13939W        W87007   4.855  44.339  12.621
13940W        W87008  31.726   0.190   4.831
13941W        W87009   9.118  33.373   0.306
13942W        W87010  38.635  33.475  12.946
13943W        W87011  25.580  17.248  12.113
13944W        W87012  37.946  43.616  10.981
13945W        W87013  19.764   1.016  13.481
13946W        W87014  26.040   8.808  12.160
13947W        W87015  37.975  15.579   3.178
13948W        W87016  25.166  24.378  13.328
13949W        W87017  42.590  38.328   0.451
13950W        W87018  13.726  28.002  13.081
13951W        W87019  15.304  21.510   2.728
13952W        W87020   0.187   2.886  14.525
13953W        W87021  21.625  43.268  11.052
13954W        W87022  11.348   9.823  10.653
13955W        W87023  18.422   5.951   1.817
13956W        W87024  34.092   4.795  13.229
13957W        W87025  28.506  12.833   0.870
13958W        W87026  13.379  14.843  14.663
13959W        W87027  33.423   1.408  11.847
13960W        W87028  18.098   7.215  12.518
13961W        W87029   9.670   6.392  10.683
13962W        W87030  14.386  28.051  10.532
13963W        W87031   5.474  35.855  10.540
13964W        W87032   1.285  28.952   3.249
13965W        W87033  40.394  30.217   3.664
13966W        W87034  30.637  40.925  14.355
13967W        W87035  38.628   2.494   2.190
13968W        W87036   2.262  44.341  13.399
13969W        W87037  15.505  36.944  12.146
13970W        W87038  23.242   9.244   2.673
13971W        W87039  16.634  15.119  14.448
13972W        W87040   7.728  27.203   0.020
13973W        W87041  34.520  38.066   0.348
13974W        W87042  28.137   2.432  10.700
13975W        W87043  33.479   5.596  14.195
13976W        W87044  25.197   7.946   0.693
13977W        W87045  42.012  10.857  10.596
13978W        W87046  29.254  30.083  10.795
13979W        W87047   6.866  44.250   4.072
13980W        W87048   1.802  34.135   3.260
13981W        W87049  19.036  42.326  11.116
13982W        W87050  27.127  37.127  13.312
13983W        W87051  35.341  30.541  12.988
13984W        W87052  19.182  14.285  10.681
13985W        W87053  42.343  41.438  14.854
13986W        W87054  15.128   6.695  11.133
13987W        W87055  36.078   2.465  11.627
13988W        W87056  32.135  13.466   0.403
13989W        W87057  29.678  44.476  13.741
13990W        W87058  16.176   5.804  10.620
13991W        W87059  43.286  13.229  12.939
13992W        W87060  16.613   0.181   1.863
13993W        W87061   6.539   5.384   1.187
13994W        W87062   9.842  28.080   2.407
13995W        W87063  41.558   7.730  10.615
13996W        W87064  17.998   9.421  10.620
13997W        W87065  40.425  33.351   3.241
13998W        W87066  35.887  27.390  11.994
13999W        W87067  33.028  41.016  13.691
14000W        W87068  22.906  28.347  10.658
14001W        W87069  22.031  34.700  14.183
14002W        W87070   0.440  30.023  11.618
14003W        W87071  12.566  24.929   2.615
14004W        W87072  13.059  10.154   3.661
14005W        W87073  10.401   9.709   3.858
14006W        W87074  26.132  22.848   0.793
14007W        W87075  15.217  28.719  12.862
14008W        W87076  11.955  34.009   1.369
14009W        W87077  25.209   7.412  13.011
14010W        W87078  30.235  42.401  14.637
14011W        W87079   7.847  35.402  14.312
14012W        W87080  23.545  32.870   2.362
14013W        W87081  12.269  18.243   5.102
14014W        W87082  12.769   1.639  12.226
14015W        W87083  27.900   5.879   0.552
14016W        W87084  12.433   0.543  10.996
14017W        W87085  14.533  33.592   2.188
14018W        W87086  43.460  24.880  12.518
14019W        W87087  29.456  40.873   0.339
14020W        W87088  14.348   3.216  12.483
14021W        W87089  36.034  34.659   3.346
14022W        W87090  20.170  29.422   2.081
14023W        W87091  12.242  26.948  14.241
14024W        W87092  32.473   3.103  12.485
14025W        W87093   5.729   3.948   3.604
14026W        W87094  13.844  31.532   0.200
14027W        W87095  28.123   2.471   2.981
14028W        W87096  12.841  39.873  11.613
14029W        W87097  44.839  28.460  12.990
14030W        W87098  16.217  37.324   0.946
14031W        W87099   9.266  30.072  11.527
14032W        W87100  35.573   5.304   0.314
14033W        W87101  36.683  14.556   3.694
14034W        W87102  36.339  42.018  14.899
14035W        W87103  17.705  37.046   4.528
14036W        W87104  23.168  15.695   5.112
14037W        W87105  39.498  16.027   9.498
14038W        W87106  24.646  17.338  14.754
14039W        W87107  42.473  11.721   0.928
14040W        W87108  32.424  22.428  13.914
14041W        W87109  13.882  39.382   2.318
14042W        W87110  35.060  21.543  14.728
14043W        W87111  18.329  16.371   2.262
14044W        W87112  21.648  37.863   4.588
14045W        W87113  14.077  19.941   3.939
14046W        W87114   1.456  31.761   4.308
14047W        W87115  25.830  16.198  12.785
14048W        W87116  42.465  33.939  14.383
14049W        W87117   2.047  44.498  11.107
14050W        W87118  43.769  24.438   2.378
14051W        W87119  17.951  39.963   0.937
14052W        W87120  32.683  25.520   1.561
14053W        W87121  30.605  44.117   3.231
14054W        W87122  39.017  28.174   1.708
14055W        W87123  36.981  38.742   2.729
14056W        W87124  41.125  12.717   1.133
14057W        W87125  19.914  28.312   3.667
14058W        W87126   1.402  31.655  11.626
14059W        W87127  37.442   4.189   0.282
14060W        W87128  43.390  39.757  12.464
14061W        W87129   1.789  41.366   3.561
14062W        W87130  23.334  17.544   4.704
14063W        W87131  44.579   2.792   2.115
14064W        W87132   0.833  19.046   4.836
14065W        W87133  39.482  18.332  12.840
14066W        W87134   0.573  22.670  12.181
14067W        W87135  13.665  39.888  12.451
14068W        W87136  26.188  27.161  14.403
14069W        W87137  27.875  20.005  14.892
14070W        W87138   3.712   0.457  14.040
14071W        W87139  34.541   8.773  12.993
14072W        W87140  28.881   6.726  13.973
14073W        W87141  39.064  14.527  12.106
14074W        W87142  30.919  13.109   1.391
14075W        W87143  22.791  24.990   2.361
14076W        W87144  16.717  14.875  10.719
14077W        W87145  16.293  23.551  13.632
14078W        W87146  14.581  42.251   1.352
14079W        W87147  29.419   7.818   3.962
14080W        W87148  26.087  18.064   0.525
14081W        W87149  37.119  30.975  13.943
14082W        W87150  42.267  24.792   5.352
14083W        W87151  18.026  26.933  12.084
14084W        W87152  13.707   8.771  13.149
14085W        W87153  16.397   9.535   4.005
14086W        W87154  40.936   0.020   3.209
14087W        W87155   9.273  39.269  14.125
14088W        W87156   5.813   4.274  14.040
14089W        W87157  37.526  10.632  11.965
14090W        W87158  33.477  35.879  14.413
14091W        W87159  37.924  29.420  13.756
14092W        W87160   7.167   0.334   0.414
14093W        W87161  28.725  19.462   1.618
14094W        W87162  35.459  12.619   2.773
14095W        W87163  32.816  32.458  14.970
14096W        W87164  11.714  28.721   4.256
14097W        W87165   9.676  20.676   4.129
14098W        W87166   1.424  11.903  12.039
14099W        W87167  42.412   8.257  11.424
14100W        W87168   5.922  43.307  10.720
14101W        W87169  39.717  36.105  14.565
14102W        W87170  34.842  35.970  13.936
14103W        W87171  12.680  23.788   4.124
14104W        W87172  31.119   1.363   4.168
14105W        W87173  38.041  22.247   0.459
14106W        W87174  14.909  16.316  11.055
14107W        W87175   6.454  14.318   0.328
14108W        W87176   4.257  35.207  12.548
14109W        W87177   1.337  21.861   0.881
14110W        W87178  42.497   0.841   1.340
14111W        W87179  23.968  36.008  11.726
14112W        W87180   9.605   7.879   2.909
14113W        W87181  20.314  35.455   1.292
14114W        W87182  43.219  25.136   0.277
14115W        W87183  35.962  24.151  11.863
14116W        W87184   9.831  31.352  13.375
14117W        W87185   8.356  35.801   4.302
14118W        W87186   2.748   3.623  13.312
14119W        W87187  41.485  16.216  13.034
14120W        W87188  16.978   6.376  10.095
14121W        W87189  10.056  30.744   4.977
14122W        W87190  42.740  16.229  12.552
14123W        W87191   2.163   0.786  11.611
14124W        W87192  10.127  10.624   0.006
14125W        W87193   6.240  39.834   3.772
14126W        W87194  30.983  10.275   3.730
14127W        W87195  16.294  39.453   0.739
14128W        W87196   7.223  33.868   0.698
14129W        W87197  26.535  19.740  13.911
14130W        W87198   5.760  43.792  11.859
14131W        W87199   4.466  40.811  12.444
14132W        W87200  39.418  30.173   2.802
14133W        W87201  17.266  10.205   4.945
14134W        W87202  27.115   9.991  13.849
14135W        W87203   2.935  43.548  14.034
14136W        W87204  26.179  14.644  14.313
14137W        W87205  20.245  17.496   0.073
14138W        W87206  36.111  21.038  14.003
14139W        W87207  43.843  31.539   1.954
14140W        W87208  30.229  13.252   3.336
14141W        W87209  19.616  37.499  12.169
14142W        W87210  35.440   0.498   1.318
14143W        W87211  28.368   1.895  13.449
14144W        W87212  14.827  18.050   4.552
14145W        W87213  27.662   6.324   0.792
14146W        W87214  25.133  20.432   4.189
14147W        W87215   4.413   1.890   1.289
14148W        W87216   4.490  24.153   1.700
14149W        W87217  20.717   3.064  13.823
14150W        W87218  29.618  42.730  13.904
14151W        W87219  12.104  31.011   4.793
14152W        W87220  32.178  18.191  14.466
14153W        W87221  33.356  21.518  13.654
14154W        W87222  31.205  14.162  10.727
14155W        W87223   1.044  30.466  12.829
14156W        W87224  10.452  44.867   3.611
14157W        W87225  12.655  24.401  14.789
14158W        W87226  28.942  38.146   4.803
14159W        W87227   6.015  29.573   4.048
14160W        W87228   1.410  25.766  14.844
14161W        W87229  36.918  27.838  12.167
14162W        W87230   4.671   7.920   1.377
14163W        W87231  14.117  40.805   0.281
14164W        W87232  36.709  31.655   3.306
14165W        W87233  30.015  44.678   3.764
14166W        W87234  40.190   4.451  13.469
14167W        W87235  17.290  43.508  12.124
14168W        W87236  32.855   2.248  13.978
14169W        W87237  38.755   6.182   5.485
14170W        W87238  14.879   3.286  14.374
14171W        W87239   8.872  23.666  10.728
14172W        W87240  11.186   8.228   2.316
14173W        W87241  24.624  22.144  12.554
14174W        W87242   3.517  32.166   1.989
14175W        W87243   1.907   2.274   1.638
14176W        W87244   4.293  41.299   1.044
14177W        W87245   2.826   2.835  11.623
14178W        W87246  36.834  28.654  13.206
14179W        W87247  37.401  22.654  12.465
14180W        W87248   2.322   2.920  14.976
14181W        W87249  21.709  31.623   4.449
14182W        W87250  40.783  33.375   0.735
14183W        W87251   8.719  38.468  12.325
14184W        W87252  41.554  36.457   2.831
14185W        W87253   5.554  13.352  11.727
14186W        W87254  27.298   8.941   0.123
14187W        W87255  10.486   4.923  12.461
14188W        W87256   1.876  19.581  14.753
14189W        W87257  20.717  28.782  11.801
14190W        W87258   7.805   7.825   1.933
14191W        W87259  36.613   5.932  14.873
14192W        W87260  37.368   5.710  10.732
14193W        W87261  16.568  37.633   4.050
14194W        W87262  26.281  31.035   0.233
14195W        W87263  20.269  26.533   2.749
14196W        W87264  34.234  37.445  13.913
14197W        W87265  26.503   2.692   3.278
14198W        W87266   7.641   3.963  12.338
14199W        W87267   2.360  37.327   4.006
14200W        W87268  20.067   1.995   2.322
14201W        W87269  21.927   3.229  13.094
14202W        W87270  16.202   5.737   4.524
14203W        W87271  27.538  34.306   4.109
14204W        W87272  37.062  43.791   2.452
14205W        W87273  28.148  28.924   1.749
14206W        W87274  25.167  25.268  11.039
14207W        W87275  37.425  42.034   2.469
14208W        W87276  26.313   6.431   5.061
14209W        W87277  26.222  34.580  13.113
14210W        W87278  31.938  43.279  14.979
14211W        W87279  34.512  10.688   3.220
14212W        W87280   5.052  17.851   1.988
14213W        W87281  18.110  31.021  12.080
14214W        W87282   7.173  32.887   2.557
14215W        W87283  44.756   3.670   2.274
14216W        W87284  44.372   3.621  10.657
14217W        W87285  25.262  38.453   5.009
14218W        W87286  35.851  15.002  10.700
14219W        W87287  30.577  22.538  11.456
14220W        W87288  20.541  22.466  10.788
14221W        W87289  32.676  21.706   3.659
14222W        W87290  28.708   3.156  12.433
14223W        W87291  13.288  13.041   2.365
14224W        W87292  10.670  11.821   0.015
14225W        W87293  23.210  10.849   0.663
14226W        W87294  22.267  28.213  14.459
14227W        W87295  11.725   5.335  12.961
14228W        W87296  25.687  39.148   1.485
14229W        W87297  42.639  23.951   0.799
14230W        W87298  10.370  41.909  13.502
14231W        W87299  22.979  25.206   1.913
14232W        W87300  24.749   1.758  13.396
14233W        W87301  35.401  42.744  11.583
14234W        W87302  11.210  37.231  11.965
14235W        W87303  43.920   9.993  14.235
14236W        W87304  39.816   8.287   2.664
14237W        W87305  34.010   3.426   2.263
14238W        W87306  41.933  24.755   2.167
14239W        W87307  26.689  34.619  10.983
14240W        W87308  14.770  25.596   2.776
14241W        W87309  31.856  24.531   3.637
14242W        W87310  39.240   4.235  11.899
14243W        W87311  13.684  13.075  14.050
14244W        W87312  12.562   2.275  11.614
14245W        W87313  41.947  26.592  13.498
14246W        W87314  44.487   1.357   1.293
14247W        W87315   2.160  33.824   1.446
14248W        W87316   6.330  43.022   3.080
14249W        W87317  12.739   9.808   2.401
14250W        W87318  18.922  35.370  13.363
14251W        W87319  41.021  36.983  12.168
14252W        W87320  13.514  20.523  11.532
14253W        W87321  32.975  38.467  12.034
14254W        W87322  37.611   7.406   0.423
14255W        W87323  42.810  23.434  14.976
14256W        W87324  33.571  31.325   0.770
14257W        W87325  39.673  14.100  11.627
14258W        W87326  27.386  28.993  10.708
14259W        W87327  18.192  43.318   4.156
14260W        W87328  18.018   0.778   4.219
14261W        W87329  30.615   3.848   1.508
14262W        W87330  32.133  44.875  13.583
14263W        W87331  13.823  27.151   0.378
14264W        W87332  44.718  17.282   4.736
14265W        W87333  24.973  14.464   4.549
14266W        W87334  17.233  14.138   2.396
14267W        W87335  33.372   8.207  13.378
14268W        W87336   5.620   1.352   3.262
14269W        W87337  13.607  35.354  13.135
14270W        W87338  30.944   5.473   3.483
14271W        W87339  24.998   7.937  14.249
14272W        W87340  10.125  16.585  12.551
14273W        W87341   7.170  21.868  14.945
14274W        W87342  41.219  42.511   0.588
14275W        W87343  27.223  15.097   0.787
14276W        W87344  12.187  21.506   3.731
14277W        W87345   9.391  11.399   2.764
14278W        W87346  17.279  33.011  10.460
14279W        W87347  31.698  28.921  12.482
14280W        W87348  27.442  15.760  13.534
14281W        W87349  20.640  21.868   1.751
14282W        W87350  12.313  30.366   1.441
14283W        W87351  37.463  18.042  10.703
14284W        W87352  23.329   2.868   1.079
14285W        W87353  31.477   2.182  11.935
14286W        W87354  21.557  10.960  11.839
14287W        W87355  44.247  35.347   1.047
14288W        W87356  40.271   0.959  12.522
14289W        W87357  37.052  30.142  11.184
14290W        W87358   0.827   3.717  12.706
14291W        W87359  27.499   4.221   3.126
14292W        W87360   6.287  35.838  13.256
14293W        W87361  13.286  36.384  13.465
14294W        W87362  23.098  36.108   1.004
14295W        W87363  25.013  37.282  13.894
14296W        W87364  29.128   2.418   0.778
14297W        W87365   0.394  24.113  13.551
14298W        W87366  20.661   5.303  14.062
14299W        W87367  43.525  33.941  11.261
14300W        W87368  10.303   2.790  11.089
14301W        W87369  25.493   0.233  10.713
14302W        W87370  18.769  43.229  12.109
14303W        W87371  35.960   8.340  12.693
14304W        W87372  40.177  29.596  14.872
14305W        W87373   0.052  30.962   3.663
14306W        W87374  35.575  42.262   2.552
14307W        W87375  29.716  23.606   0.849
14308W        W87376  19.826  34.636   1.716
14309W        W87377  30.226  28.935   4.427
14310W        W87378  12.780   5.124   3.288
14311W        W87379  34.743  14.230   1.904
14312W        W87380   5.724  12.625  12.072
14313W        W87381  39.692  29.247   0.318
14314W        W87382  24.090  42.742   0.019
14315W        W87383  26.159  38.312  10.085
14316W        W87384  13.546  17.711   4.076
14317W        W87385  25.395  23.184  14.267
14318W        W87386  27.568  37.604   1.129
14319W        W87387  16.828  42.997  13.094
14320W        W87388  25.991  12.093   1.812
14321W        W87389  41.953   2.636   2.714
14322W        W87390   6.918  34.808   1.738
14323W        W87391  13.302   7.226   2.883
14324W        W87392   1.717  10.327   0.767
14325W        W87393  34.415  12.746   2.731
14326W        W87394  22.336   2.531   0.351
14327W        W87395   2.345  36.942   0.022
14328W        W87396  16.201  28.735  14.864
14329W        W87397  22.060  31.210  12.835
14330W        W87398  16.959  15.735   4.462
14331W        W87399   8.002  41.397   4.557
14332W        W87400  44.330   7.174  13.048
14333W        W87401   0.321  38.463  14.297
14334W        W87402  24.498  22.588   4.420
14335W        W87403  17.854  28.953  11.486
14336W        W87404  10.644  36.666   0.892
14337W        W87405  16.930  30.480   3.593
14338W        W87406  15.552  21.532  10.966
14339W        W87407  11.581  10.846  12.033
14340W        W87408  25.654  30.471   4.503
14341W        W87409  12.093   7.743  11.168
14342W        W87410  29.102   0.740  12.022
14343W        W87411  28.245  16.257  10.603
14344W        W87412   8.909  19.247   2.467
14345W        W87413  15.678  43.239  12.649
14346W        W87414  38.376  35.006  12.390
14347W        W87415   7.934  33.897   2.824
14348W        W87416  17.253   8.253   0.253
14349W        W87417   9.107  20.573   0.318
14350W        W87418  15.567   0.069   1.884
14351W        W87419  16.520  18.114   2.235
14352W        W87420   5.690  27.897  13.002
14353W        W87421  14.839   6.131   2.360
14354W        W87422  31.152  20.876   4.146
14355W        W87423   4.035  11.765   4.096
14356W        W87424  36.933   7.413   4.222
14357W        W87425  17.673  22.096  14.407
14358W        W87426  20.690  28.023   2.616
14359W        W87427  44.113  15.866  10.867
14360W        W87428   9.377  33.812   0.481
14361W        W87429  37.690  33.208   1.669
14362W        W87430  16.734   3.715  13.348
14363W        W87431  26.063   4.669   1.608
14364W        W87432  41.411   7.006   0.819
14365W        W87433  17.126  11.955  10.602
14366W        W87434   2.897  39.405  13.027
14367W        W87435  31.497   5.455  12.998
14368W        W87436  34.579  43.549   2.049
14369W        W87437   3.394  17.088  14.267
14370W        W87438  13.850  42.942   3.147
14371W        W87439  31.965  30.438  11.443
14372W        W87440  25.628  25.964   3.358
14373W        W87441  16.327  18.125  11.327
14374W        W87442  16.100  22.725  11.275
14375W        W87443  26.219  12.804  14.004
14376W        W87444  35.841   8.884  10.725
14377W        W87445  23.124   6.472   4.224
14378W        W87446  37.179   8.720   0.348
14379W        W87447  14.873   5.624  11.572
14380W        W87448  44.397  38.575  11.088
14381W        W87449  21.797   8.375   4.227
14382W        W87450  37.279   3.900  10.911
14383W        W87451  35.068  27.464  11.683
14384W        W87452  14.153   1.227   1.253
14385W        W87453  25.054   5.680  11.941
14386W        W87454  17.512   2.737   2.802
14387W        W87455  40.332  34.628  10.835
14388W        W87456   5.919  41.417   2.330
14389W        W87457   7.862  34.606   4.629
14390W        W87458  21.671  21.007  14.816
14391W        W87459   7.154   1.905   3.900
14392W        W87460   5.286  22.052  11.157
14393W        W87461  24.993  42.582  13.774
14394W        W87462  38.869  18.522   0.891
14395W        W87463  14.271  20.470  13.289
14396W        W87464   5.783  17.430  14.384
14397W        W87465  43.503  12.813   4.485
14398W        W87466   9.363   2.812   0.440
14399W        W87467  43.514  29.480   3.346
14400W        W87468   5.993  31.299  13.451
14401W        W87469  15.688  30.493   0.869
14402W        W87470  18.660  18.983   0.351
14403W        W87471  43.288  40.727   1.965
14404W        W87472  43.874  23.613  10.999
14405W        W87473   3.814  28.150   4.501
14406W        W87474  19.064  32.285   0.398
14407W        W87475  31.959  20.646   4.534
14408W        W87476  13.369   9.148  14.586
14409W        W87477  12.783  39.034  12.377
14410W        W87478  24.244  10.423   3.581
14411W        W87479   1.268  14.108  12.024
14412W        W87480  25.045   1.962  11.112
14413W        W87481  38.916   9.326  10.621
14414W        W87482   5.911  28.350  13.130
14415W        W87483  30.011  21.949  13.351
14416W        W87484   5.929  13.341  11.363
14417W        W87485  16.623  24.972   1.443
14418W        W87486  39.769   9.248  14.986
14419W        W87487  34.652   0.447   5.069
14420W        W87488  40.824  36.328  11.437
14421W        W87489  27.187  25.651   2.734
14422W        W87490  23.475   3.211   3.050
14423W        W87491  21.251  32.556  11.106
14424W        W87492  28.174  28.023   3.539
14425W        W87493  36.139  16.739  10.741
14426W        W87494   0.425   0.967  13.291
14427W        W87495  38.963  19.664   1.664
14428W        W87496  23.704  29.001   3.652
14429W        W87497   9.161   4.709  13.116
14430W        W87498   0.369  43.947  14.971
14431W        W87499  18.369  24.912  14.397
14432W        W87500  19.057  25.488   1.228
14433W        W87501   6.865  13.085  12.160
14434W        W87502  33.994   0.374  11.952
14435W        W87503  39.882  36.939   1.330
14436W        W87504  30.288  33.614  12.102
14437W        W87505  36.470  12.646   2.696
14438W        W87506  43.339  28.078   4.659
14439W        W87507   3.500  31.641  10.905
14440W        W87508  26.755   7.532   1.830
14441W        W87509  40.187  22.563   1.656
14442W        W87510  35.903  23.161  14.348
14443W        W87511  19.476  35.325   1.600
14444W        W87512  26.059  15.264   4.210
14445W        W87513  14.003   0.024  14.809
14446W        W87514   9.388  43.628   2.859
14447W        W87515  13.559  36.962   1.501
14448W        W87516  19.694  25.110   4.405
14449W        W87517  33.119   4.231  13.964
14450W        W87518  12.261  19.081   4.837
14451W        W87519  21.892  37.929   2.572
14452W        W87520  26.734  21.562   2.224
14453W        W87521  41.508  15.150   4.359
14454W        W87522   3.323  13.089  13.409
14455W        W87523   7.992  20.308  13.022
14456W        W87524  42.389  41.099   1.818
14457W        W87525  14.347  22.731  12.550
14458W        W87526  29.547  38.891   1.852
14459W        W87527  24.624  42.282   4.664
14460W        W87528  22.641   7.908   4.031
14461W        W87529  18.698  29.167   4.125
14462W        W87530   5.870   0.807  14.548
14463W        W87531  44.851   9.109  12.940
14464W        W87532  26.538  12.690   0.043
14465W        W87533  31.074  31.943   2.234
14466W        W87534  28.896   2.794  13.645
14467W        W87535   7.173  37.808  12.797
14468W        W87536  18.032  34.359   2.849
14469W        W87537   9.204  34.373  13.045
14470W        W87538  38.038   2.047  12.954
14471W        W87539  35.976   1.844  11.028
14472W        W87540   7.716  33.898  12.933
14473W        W87541  27.059  28.092   1.222
14474W        W87542  14.737  18.309  11.124
14475W        W87543  16.108  25.444   1.778
14476W        W87544  31.578  37.482  12.023
14477W        W87545  29.976  33.422  13.906
14478W        W87546   6.383  37.626  14.906
14479W        W87547  14.828   2.989   0.924
14480W        W87548  31.310  26.668  12.725
14481W        W87549   3.731  38.081   4.057
14482W        W87550   7.489  40.767   1.021
14483W        W87551  18.177  32.853  12.669
14484W        W87552  21.730  27.943   0.695
14485W        W87553  39.027  21.098  14.117
14486W        W87554  43.059   3.764  12.018
14487W        W87555  11.578  21.563  11.545
14488W        W87556   1.537   1.647   3.693
14489W        W87557  16.411  20.714  13.783
14490W        W87558  26.791  12.292   5.467
14491W        W87559  31.930   9.511   1.072
14492W        W87560  43.000  25.419   1.770
14493W        W87561  28.541  28.151  12.406
14494W        W87562  27.076   9.196  14.741
14495W        W87563   6.743  34.163  14.032
14496W        W87564  12.343  14.872   1.498
14497W        W87565  12.643  11.581  10.945
14498W        W87566   8.073  17.683  13.363
14499W        W87567  37.813  44.842   1.404
14500W        W87568  17.367  15.151  12.985
14501W        W87569  18.753  20.234   0.731
14502W        W87570  44.837  43.478   2.011
14503W        W87571  41.460  40.796   3.534
14504W        W87572  35.620  26.797   0.937
14505W        W87573  41.244   3.480  10.296
14506W        W87574  10.869  42.012   2.146
14507W        W87575  14.180  20.893   4.328
14508W        W87576  32.140  43.365   0.999
14509W        W87577  10.413  33.990   2.885
14510W        W87578   2.348  35.038  12.299
14511W        W87579  14.698  23.907   2.661
14512W        W87580  28.585  18.285  11.200
14513W        W87581  43.335  34.166  14.019
14514W        W87582   4.271  29.635   1.635
14515W        W87583  21.964  35.566   4.607
14516W        W87584  27.350  20.290   0.885
14517W        W87585  21.356  44.395  13.181
14518W        W87586  19.252  11.786  12.064
14519W        W87587  26.435  17.868   4.792
14520W        W87588  17.899  20.222  11.578
14521W        W87589   2.021  22.124  13.532
14522W        W87590   5.282  37.905   1.832
14523W        W87591  24.950  13.899  14.065
14524W        W87592   3.942  20.021  10.787
14525W        W87593  31.133   5.168   3.098
14526W        W87594  25.116   0.235   4.197
14527W        W87595   6.643   3.736  13.788
14528W        W87596  25.816   0.451  12.114
14529W        W87597  17.445  28.349  13.061
14530W        W87598  32.833   7.442   1.012
14531W        W87599  40.052  25.005   0.889
14532W        W87600  44.834  39.505  13.896
14533W        W87601  21.634  28.796   2.192
14534W        W87602  26.261  37.118  14.327
14535W        W87603  15.031  38.416   4.085
14536W        W87604  42.515  26.323  11.132
14537W        W87605  33.201  14.832   3.761
14538W        W87606  41.006  35.841   3.997
14539W        W87607  14.360  24.980   0.168
14540W        W87608  17.504  14.831  11.086
14541W        W87609   1.481  22.048   0.406
14542W        W87610   1.314  40.929   4.223
14543W        W87611  27.903  14.765  13.091
14544W        W87612  13.752   5.866  10.645
14545W        W87613  23.547  35.275   0.528
14546W        W87614  35.600  26.993   2.280
14547W        W87615   9.936  35.440   1.806
14548W        W87616  29.864  41.793   4.200
14549W        W87617  41.480  22.140   0.722
14550W        W87618  16.341   3.381   2.838
14551W        W87619  39.631   4.656  14.863
14552W        W87620  25.192  39.637   0.827
14553W        W87621  31.250  23.522  14.508
14554W        W87622  32.398  38.596  11.559
14555W        W87623  12.812  32.992  12.512
14556W        W87624  28.878  38.737  13.370
14557W        W87625  21.315  43.875   4.583
14558W        W87626  38.161  40.897  11.133
14559W        W87627  33.337   8.514   4.126
14560W        W87628  30.562   5.918  11.222
14561W        W87629   8.935  24.701  13.034
14562W        W87630   8.881  18.763   4.663
14563W        W87631  24.008  36.440  11.462
14564W        W87632  44.512   7.258   1.751
14565W        W87633  24.947   8.764   1.794
14566W        W87634  26.229  43.762  13.957
14567W        W87635  23.167  17.828   3.961
14568W        W87636   7.891  38.951  13.771
14569W        W87637  29.882   1.220   3.646
14570W        W87638  24.955  39.263   0.480
14571W        W87639  34.592  35.619   3.225
14572W        W87640  21.069  20.182  11.991
14573W        W87641  24.397  35.937   2.068
14574W        W87642  24.636   4.844   4.426
14575W        W87643   4.379  41.373   1.999
14576W        W87644   3.943  19.230   2.876
14577W        W87645   1.787   2.414   2.627
14578W        W87646  22.259  17.843  10.814
14579W        W87647  29.976  42.768  10.960
14580W        W87648  38.415  27.413  12.525
14581W        W87649   5.766  19.042  13.747
14582W        W87650  30.451  35.924  14.252
14583W        W87651  44.019  34.424   1.717
14584W        W87652  24.199  19.524   3.227
14585W        W87653  24.710  25.413   1.926
14586W        W87654  27.908  34.588   0.852
14587W        W87655  33.491  42.968   2.211
14588W        W87656   3.950  43.523  13.603
14589W        W87657  28.201   1.138   1.641
14590W        W87658  10.363   9.802  10.700
14591W        W87659  30.039  28.179  14.496
14592W        W87660  23.588  26.542   3.858
14593W        W87661  16.613  39.895  13.902
14594W        W87662  13.093  42.878  13.542
14595W        W87663   0.581  39.955  11.536
14596W        W87664  29.954  25.003   3.564
14597W        W87665  25.187  19.846   1.839
14598W        W87666  32.989  44.938   0.566
14599W        W87667  38.528  16.338   0.248
14600W        W87668   4.650   7.240   0.713
14601W        W87669   6.985   0.045   0.013
14602W        W87670  26.447  23.529  11.248
14603W        W87671  44.845  10.139  14.437
14604W        W87672   2.910  28.684   3.872
14605W        W87673  24.612   2.718  13.317
14606W        W87674  32.027  43.083  10.735
14607W        W87675  14.537  16.003   1.772
14608W        W87676  32.035  13.876   4.144
14609W        W87677   3.761  34.349   4.747
14610W        W87678  14.149   5.270  12.239
14611W        W87679   6.117  19.841   1.694
14612W        W87680   6.856  16.046  12.760
14613W        W87681  21.028  15.631   4.495
14614W        W87682  25.423  27.942   1.616
14615W        W87683   8.261   3.383   0.273
14616W        W87684  24.867  15.157  13.462
14617W        W87685   8.007   7.035  14.731
14618W        W87686  21.829  13.651  14.827
14619W        W87687  39.323  35.490  11.084
14620W        W87688  23.730  18.158  12.018
14621W        W87689  15.853  18.258   1.813
14622W        W87690   6.863  19.993   4.044
14623W        W87691  35.561  27.446  11.586
14624W        W87692  26.548  21.905  14.486
14625W        W87693  40.362   8.093   0.742
14626W        W87694  25.842  34.129  14.342
14627W        W87695  12.823  16.569   5.797
14628W        W87696  31.133  43.810  14.759
14629W        W87697   4.272   1.031  13.446
14630W        W87698   6.329  21.302   4.011
14631W        W87699  14.259  15.780   3.252
14632W        W87700  33.394  15.309   2.827
14633W        W87701  32.202  26.556  12.512
14634W        W87702  35.641  32.972  14.067
14635W        W87703  22.538   5.170   2.174
14636W        W87704   6.744  20.477   1.351
14637W        W87705   8.735  10.491   5.016
14638W        W87706  39.081   5.257  13.493
14639W        W87707  22.395   8.159  14.079
14640W        W87708  12.273  42.783  14.893
14641W        W87709  37.042   2.290   3.757
14642W        W87710  10.336  36.858  13.975
14643W        W87711   6.496   2.630   4.124
14644W        W87712  36.357  34.460  12.566
14645W        W87713   6.128  28.047  12.761
14646W        W87714  18.092   1.482  14.424
14647W        W87715  38.560  24.082   0.527
14648W        W87716  13.827  12.293   2.230
14649W        W87717  40.430  36.208  11.867
14650W        W87718  25.442  32.968   3.138
14651W        W87719  39.603   1.524  14.396
14652W        W87720  21.564   2.218  11.651
14653W        W87721  27.170  22.142  14.879
14654W        W87722  12.883  36.679  13.305
14655W        W87723  27.026   2.863   2.403
14656W        W87724  11.203   1.752  12.537
14657W        W87725  44.033  22.433   3.719
14658W        W87726  36.174  12.107  11.716
14659W        W87727  40.060  28.643   4.435
14660W        W87728   1.336  38.763  11.154
14661W        W87729   1.483  22.461  14.653
14662W        W87730  39.266  43.485   3.744
14663W        W87731  10.258  36.341  14.046
14664W        W87732  16.541   6.096  14.278
14665W        W87733   0.452  38.429  13.289
14666W        W87734   1.715  33.360  11.137
14667W        W87735  28.970  22.910   3.278
14668W        W87736  14.627  25.634  12.932
14669W        W87737   7.181   0.470  10.928
14670W        W87738  30.921  19.715   1.317
14671W        W87739  29.983  40.885  12.870
14672W        W87740  43.893  22.272  11.628
14673W        W87741  24.684  26.020  13.043
14674W        W87742   7.312  10.757   0.697
14675W        W87743   6.180   4.696  14.531
14676W        W87744  14.760  15.285   0.383
14677W        W87745  30.466   3.618  12.003
14678W        W87746  33.893  20.790  14.230
14679W        W87747  39.355  29.165  13.567
14680W        W87748  34.190  12.302   1.573
14681W        W87749  39.621   3.405  11.096
14682W        W87750  28.942   9.314  12.648
14683W        W87751  19.552  40.901  14.559
14684W        W87752  29.637  28.422   0.409
14685W        W87753   9.962   7.752  11.211
14686W        W87754   2.168  36.932  11.481
14687W        W87755  39.086  32.176   3.660
14688W        W87756  32.400  31.646   2.171
14689W        W87757  29.333   2.744  14.505
14690W        W87758  33.385  42.536  14.823
14691W        W87759  18.457  18.717  10.093
14692W        W87760  26.758  20.735  12.881
14693W        W87761  42.091  29.578  10.952
14694W        W87762  28.125  18.483  13.535
14695W        W87763   7.147  22.173  10.742
14696W        W87764  11.262  11.612  11.098
14697W        W87765  38.893  37.697   3.132
14698W        W87766  42.281   2.692  12.496
14699W        W87767  21.133  13.634   0.829
14700W        W87768  27.520  17.544   0.310
14701W        W87769  32.102   8.583  12.100
14702W        W87770  17.275  14.294  13.242
14703W        W87771  11.172   9.427  13.058
14704W        W87772  39.763  30.410  13.817
14705W        W87773  16.331   2.633  12.161
14706W        W87774   8.209  15.098   1.699
14707W        W87775  30.071  17.271   0.356
14708W        W87776  30.976  35.419   1.617
14709W        W87777  17.796   2.272   3.002
14710W        W87778  33.881  30.027   0.761
14711W        W87779  34.638  38.674   4.449
14712W        W87780  41.012  29.555  14.478
14713W        W87781  25.102  18.196  13.664
14714W        W87782  22.778  24.449   1.177
14715W        W87783  10.407  32.100   0.426
14716W        W87784  23.700  42.451  14.833
14717W        W87785  40.121   3.105   0.880
14718W        W87786   3.060  44.602  14.129
14719W        W87787  24.478  36.840  13.036
14720W        W87788  31.422  17.188   4.229
14721W        W87789  26.999   5.180  13.462
14722W        W87790  14.646  39.122   0.702
14723W        W87791  13.259  40.420   3.206
14724W        W87792  25.267  17.898  14.051
14725W        W87793   0.697  16.731  14.531
14726W        W87794  22.969  43.752   0.714
14727W        W87795  25.242  24.508  14.416
14728W        W87796  16.686  44.727   2.774
14729W        W87797  40.357  39.096  12.469
14730W        W87798  20.991  32.423  13.865
14731W        W87799   8.146  34.382  11.061
14732W        W87800  38.296  22.856   3.352
14733W        W87801   7.683  18.667  14.261
14734W        W87802  19.765  38.569   1.742
14735W        W87803  28.719  30.051   2.158
14736W        W87804  44.008  44.330  13.881
14737W        W87805  28.093  38.570   4.724
14738W        W87806  14.171  11.156   3.668
14739W        W87807   2.752  21.895   1.923
14740W        W87808  15.635  44.395  14.489
14741W        W87809  25.018  28.110   1.359
14742W        W87810   9.446  15.727  11.961
14743W        W87811  30.025  38.794   0.463
14744W        W87812  22.965  20.688   2.922
14745W        W87813  14.935   4.452   1.815
14746W        W87814   5.875  31.239   3.776
14747W        W87815   7.580  26.671   3.119
14748W        W87816  35.459  10.003   0.355
14749W        W87817  12.239  10.846   1.700
14750W        W87818  22.565  37.840   1.468
14751W        W87819   3.875  44.757  10.494
14752W        W87820  24.453   4.234  10.981
14753W        W87821  38.495  19.071  13.322
14754W        W87822  10.103  17.830  10.611
14755W        W87823  14.635  33.408  12.994
14756W        W87824  22.940  23.264  11.668
14757W        W87825   6.135  33.511  12.147
14758W        W87826  25.121  36.996   3.728
14759W        W87827  39.807   3.904   3.345
14760W        W87828  19.825  38.173  13.643
14761W        W87829  37.869  31.099  12.481
14762W        W87830  24.705   5.216   2.869
14763W        W87831   4.350  41.048   4.690
14764W        W87832  36.775   1.250  11.103
14765W        W87833  19.840  19.557  12.388
14766W        W87834  40.012  22.605   3.289
14767W        W87835  24.937  23.084   3.656
14768W        W87836  27.447   0.455  14.266
14769W        W87837   9.704  24.594   0.280
14770W        W87838  40.068  19.487  12.485
14771W        W87839  20.442   3.460  14.009
14772W        W87840  37.112  37.302  11.608
14773W        W87841  24.666  21.302  12.082
14774W        W87842  10.853  26.994   0.289
14775W        W87843  29.661  16.985   1.808
14776W        W87844   5.139  12.388   4.423
14777W        W87845   6.933  27.389   3.565
14778W        W87846  17.994  29.836  10.721
14779W        W87847  18.511  26.975   2.256
14780W        W87848   6.950  16.270  13.214
14781W        W87849  27.025  44.093  14.436
14782W        W87850   2.795  14.659   4.105
14783W        W87851  11.915  19.646  13.333
14784W        W87852  42.438  38.824  11.582
14785W        W87853   5.426  36.470  11.677
14786W        W87854  20.471  13.769   3.310
14787W        W87855  15.926  31.805   2.740
14788W        W87856  29.252   7.697   4.449
14789W        W87857  10.478   0.495   1.873
14790W        W87858  24.386  32.997  10.622
14791W        W87859  18.152   9.614  11.595
14792W        W87860  24.545  31.540   0.406
14793W        W87861  34.456  25.724  13.429
14794W        W87862  37.469  38.986   2.661
14795W        W87863  17.187  33.047   9.907
14796W        W87864  28.375  37.970  10.731
14797W        W87865   3.880   9.125  10.944
14798W        W87866   3.193  19.440   2.870
14799W        W87867   2.859  12.022  14.642
14800W        W87868  35.403  32.820  11.637
14801W        W87869  30.927  42.039  14.052
14802W        W87870  44.605   3.489  14.396
14803W        W87871   0.936  24.618  12.957
14804W        W87872  18.148  38.592   1.209
14805W        W87873   9.178  42.341  13.030
14806W        W87874   9.968  21.542  13.514
14807W        W87875  37.496   6.965   1.345
14808W        W87876  41.826   8.433   0.889
14809W        W87877  33.886  16.711   3.133
14810W        W87878  20.808   3.100   1.345
14811W        W87879   4.964   0.487   0.966
14812W        W87880  34.520   2.820  13.543
14813W        W87881  27.717  16.095   4.384
14814W        W87882  39.789  36.599  13.564
14815W        W87883   0.007  12.600   2.376
14816W        W87884   7.922   2.721   3.385
14817W        W87885   7.849  12.201  14.966
14818W        W87886  42.038  24.518  13.328
14819W        W87887  11.298  20.509   2.324
14820W        W87888   3.754   2.365   1.241
14821W        W87889  33.968  24.434  12.627
14822W        W87890  11.773  16.637   2.838
14823W        W87891   2.028  17.768   3.570
14824W        W87892  36.976  12.336  10.608
14825W        W87893   5.833  17.808   3.823
14826W        W87894  17.654   8.641  11.455
14827W        W87895  18.258   7.378   1.876
14828W        W87896  42.567  10.792   0.822
14829W        W87897  32.183  15.858  11.200
14830W        W87898   1.019  30.901   0.412
14831W        W87899  21.569  44.062  14.875
14832W        W87900  35.625  32.593   2.006
14833W        W87901  24.535  10.056  12.853
14834W        W87902  24.316  37.788   0.821
14835W        W87903  12.694  16.100   4.215
14836W        W87904   6.457   9.969   3.087
14837W        W87905  23.727  12.842  10.488
14838W        W87906  42.511  14.698   4.808
14839W        W87907   9.860  12.162  13.890
14840W        W87908  13.845  41.852   1.302
14841W        W87909  29.765  14.758  14.509
14842W        W87910  42.843  44.511   0.450
14843W        W87911  21.370  23.390   2.680
14844W        W87912   2.745   1.762   1.318
14845W        W87913  32.845   8.764  10.480
14846W        W87914   5.346  44.010  14.898
14847W        W87915   3.199  18.735  11.196
14848W        W87916  40.685   0.360   4.602
14849W        W87917  38.958  24.134   1.861
14850W        W87918  36.133  21.604   3.145
14851W        W87919  33.493  15.038   2.401
14852W        W87920   5.688  36.839  14.059
14853W        W87921  24.416  11.271  11.092
14854W        W87922  19.135   6.811   0.868
14855W        W87923  42.046   7.626   1.764
14856W        W87924  40.809  36.865   4.159
14857W        W87925  24.842  18.031   2.825
14858W        W87926  39.985  19.586  11.602
14859W        W87927  13.153  37.576  10.793
14860W        W87928  31.528  40.845  13.853
14861W        W87929  28.739   4.411  14.417
14862W        W87930  26.403  39.927   2.841
14863W        W87931  11.649  43.245  14.250
14864W        W87932  24.680  15.154   1.394
14865W        W87933   5.629  26.522  10.674
14866W        W87934  11.949  44.228   2.254
14867W        W87935  34.492  17.323   1.019
14868W        W87936   8.200  11.249  13.101
14869W        W87937   0.258  34.101  10.720
14870W        W87938  36.393  15.919   0.944
14871W        W87939  26.631  24.253   0.667
14872W        W87940  43.833  15.300  12.538
14873W        W87941  22.645  27.606   0.394
14874W        W87942  30.873   0.962  12.598
14875W        W87943   4.982  32.333   0.988
14876W        W87944  25.106  13.428   0.198
14877W        W87945  18.074  10.179  12.516
14878W        W87946  39.969  32.479  11.041
14879W        W87947   9.525   9.730   3.121
14880W        W87948  26.120   0.842   2.425
14881W        W87949  12.099  35.019   4.091
14882W        W87950  41.980   1.248   3.748
14883W        W87951  14.580  11.722   4.077
14884W        W87952  26.088   6.967   4.374
14885W        W87953  22.167  30.388  11.489
14886W        W87954  19.153  22.722   0.911
14887W        W87955  35.648  42.204   4.579
14888W        W87956  37.453  22.746  11.465
14889W        W87957  27.078  28.253   0.726
14890W        W87958   4.660  25.649  13.702
14891W        W87959  37.030  11.390  10.444
14892W        W87960   8.090  39.062  14.788
14893W        W87961   3.883  23.959   4.249
14894W        W87962   2.074   9.713   0.402
14895W        W87963  42.988  29.077   0.809
14896W        W87964   8.745  25.090  12.693
14897W        W87965  14.111  18.371   0.849
14898W        W87966  40.669  12.440   1.191
14899W        W87967  42.806  23.145   3.679
14900W        W87968  27.935  22.835  11.892
14901W        W87969  23.180  38.884  13.530
14902W        W87970  34.480  16.003   2.362
14903W        W87971  40.152  29.984   4.105
14904W        W87972   0.460  14.612   4.315
14905W        W87973  38.690  34.064  11.064
14906W        W87974  41.447  19.308   2.884
14907W        W87975  23.023  16.091   2.449
14908W        W87976  44.963   9.032   2.703
14909W        W87977   9.759  31.810  14.283
14910W        W87978  24.451  43.231  13.452
14911W        W87979   3.709  39.577  12.597
14912W        W87980  29.741  27.171   4.360
14913W        W87981  21.061  37.522  13.512
14914W        W87982  38.135   1.717   2.739
14915W        W87983   7.614  21.258  11.482
14916W        W87984   8.523   5.029   2.736
14917W        W87985  29.104  17.759  11.697
14918W        W87986  26.668  18.171  11.467
14919W        W87987   4.356  21.040  12.568
14920W        W87988  40.807   8.207  10.153
14921W        W87989  28.899  18.563  12.043
14922W        W87990  28.894   9.725   1.060
14923W        W87991  41.354  41.282  14.911
14924W        W87992  32.793   4.431   4.542
14925W        W87993   8.492  22.205   4.649
14926W        W87994  40.230  19.827   3.856
14927W        W87995   4.884  36.062   3.053
14928W        W87996  26.219  19.378   1.667
14929W        W87997  34.864   1.932   0.289
14930W        W87998  23.257  12.415  12.538
14931W        W87999  37.149  39.616  11.707
14932W        W88000  22.469  27.719  14.913
14933W        W88001   2.326  14.037   4.608
14934W        W88002  14.178  25.276   1.659
14935W        W88003  24.662  30.455   2.738
14936W        W88004  41.989  14.295   1.363
14937W        W88005  28.506  23.158  11.757
14938W        W88006  19.216  25.058   2.351
14939W        W88007  25.151  44.818   1.886
14940W        W88008  36.732  38.897  11.281
14941W        W88009  17.690  27.994  13.936
14942W        W88010   3.994  29.457   3.207
14943W        W88011   9.706  29.675  11.962
14944W        W88012  18.062   9.163   1.765
14945W        W88013   5.404  14.417  10.806
14946W        W88014   4.162  19.350   1.258
14947W        W88015   4.491  32.124   1.757
14948W        W88016  21.621  24.236  11.673
14949W        W88017  13.392  40.897   2.925
14950W        W88018  39.556  16.065   0.840
14951W        W88019  30.725   7.130   3.726
14952W        W88020  38.892  12.331   0.893
14953W        W88021  16.143  21.111  14.427
14954W        W88022  16.155  28.093   3.801
14955W        W88023   5.529  32.100   0.801
14956W        W88024  36.115   7.933   3.210
14957W        W88025  43.040  31.682  12.903
14958W        W88026  42.496  32.619  10.944
14959W        W88027   5.712  29.920  12.892
14960W        W88028  31.429  10.888  14.055
14961W        W88029   6.229  13.605   1.437
14962W        W88030   6.825  41.420   3.359
14963W        W88031  18.967  20.529  10.674
14964W        W88032  40.404  16.536  12.526
14965W        W88033  21.077  44.787  14.533
14966W        W88034  28.127   7.848   3.328
14967W        W88035  39.826  11.058  13.079
14968W        W88036   1.715  18.537   2.370
14969W        W88037  43.823   5.199  10.544
14970W        W88038   4.425  37.062   4.669
14971W        W88039  12.706  30.714   3.328
14972W        W88040   5.888  11.812  13.495
14973W        W88041  34.263  14.273  10.519
14974W        W88042  27.090  19.210   4.616
14975W        W88043   3.666  38.599   4.079
14976W        W88044  27.695  42.054  14.771
14977W        W88045   6.402   6.961   2.716
14978W        W88046  24.900  24.465   1.002
14979W        W88047  41.400  30.216   1.862
14980W        W88048  24.246  41.007  11.502
14981W        W88049  12.860   5.472   2.894
14982W        W88050  37.857  33.135   4.535
14983W        W88051   3.495   8.628  14.394
14984W        W88052  16.804  26.693  11.694
14985W        W88053  25.533  12.338   4.300
14986W        W88054  31.607  25.559  14.433
14987W        W88055  38.820  39.037  13.294
14988W        W88056  22.648  29.125  11.059
14989W        W88057  44.397  28.398  10.696
14990W        W88058  27.741  24.987   0.913
14991W        W88059   0.201  31.891  14.773
14992W        W88060   7.154  26.138  14.353
14993W        W88061  12.024  15.232   0.236
14994W        W88062  19.533  37.568  11.177
14995W        W88063   6.716  42.033  13.865
14996W        W88064   3.369  11.260  13.164
14997W        W88065  34.642  11.392   0.565
14998W        W88066  24.433  38.273   0.449
14999W        W88067  38.949   9.760   1.003
15000W        W88068  18.132  28.066  13.478
15001W        W88069  20.016  11.226  13.943
15002W        W88070  26.245  39.605  14.833
15003W        W88071  19.594   2.285   3.284
15004W        W88072  32.861  43.288  12.119
15005W        W88073  27.747  12.167  12.477
15006W        W88074  35.358  18.640   4.220
15007W        W88075  38.150  25.972   1.211
15008W        W88076   4.839   5.985   1.378
15009W        W88077  38.508   9.602  12.979
15010W        W88078  19.306  14.505  11.122
15011W        W88079  37.281  27.196   3.352
15012W        W88080  19.825   3.680   3.143
15013W        W88081  12.656  36.873  12.330
15014W        W88082  25.000  10.049   4.649
15015W        W88083  44.272  40.893  11.435
15016W        W88084  36.819   9.989   2.403
15017W        W88085  29.564  13.071  14.919
15018W        W88086  36.018  33.800   3.626
15019W        W88087  23.182  42.928   3.214
15020W        W88088  35.524  21.756   4.377
15021W        W88089  43.710   3.642   3.786
15022W        W88090   3.853  10.550  12.963
15023W        W88091  35.250  32.041   2.210
15024W        W88092  40.640  10.154   4.509
15025W        W88093   9.403   4.290   1.224
15026W        W88094  10.767  16.676   5.521
15027W        W88095  10.048   9.418   1.563
15028W        W88096  34.650  14.114  14.665
15029W        W88097   7.990  39.786  12.512
15030W        W88098  34.941  15.689   3.559
15031W        W88099  18.598  37.493   5.015
15032W        W88100  28.126  10.919  11.115
15033W        W88101  44.865   7.753  12.169
15034W        W88102  42.330   8.683  11.699
15035W        W88103   7.757  39.326  12.533
15036W        W88104   4.921  19.510   1.430
15037W        W88105  32.560  18.149   4.106
15038W        W88106  33.413  31.952  12.130
15039W        W88107  23.068  22.526   3.751
15040W        W88108  22.237   2.718  12.160
15041W        W88109  35.135   3.360  11.251
15042W        W88110  41.521  43.381   3.615
15043W        W88111   0.409  18.614   2.892
15044W        W88112  29.664  36.851   2.088
15045W        W88113  20.037  14.128  11.691
15046W        W88114   0.194  29.237  11.007
15047W        W88115   3.923  40.042   4.141
15048W        W88116  38.960  25.636  12.505
15049W        W88117   9.823  36.622   3.988
15050W        W88118  16.224  22.115  12.636
15051W        W88119   9.991  40.727   1.439
15052W        W88120  15.229  20.667  13.714
15053W        W88121  28.219  16.057  11.372
15054W        W88122  32.597  42.974   1.889
15055W        W88123  41.746  32.613   1.714
15056W        W88124  11.869  24.979   0.267
15057W        W88125  16.697  17.132  12.822
15058W        W88126  29.595  22.024  12.440
15059W        W88127   1.850  43.331   4.162
15060W        W88128  10.934  20.178  11.845
15061W        W88129  11.086   6.889   3.090
15062W        W88130  32.636   2.241  14.499
15063W        W88131  33.875  42.397  12.008
15064W        W88132  31.630  40.429   3.690
15065W        W88133  42.272  20.178  11.537
15066W        W88134  17.127   9.804  12.640
15067W        W88135  29.486  35.651  12.800
15068W        W88136  24.939  34.911   0.006
15069W        W88137  16.608  31.191  14.511
15070W        W88138  14.880   7.625  12.928
15071W        W88139   7.205  29.138  12.456
15072W        W88140  42.516  16.551   2.987
15073W        W88141  28.460  12.108  12.072
15074W        W88142  16.169  37.401  11.575
15075W        W88143   4.445  20.660   4.266
15076W        W88144  37.990  13.323   4.002
15077W        W88145  22.763  15.968  12.943
15078W        W88146  39.791   7.103   0.415
15079W        W88147  20.749  22.835   0.725
15080W        W88148  32.175   3.299   3.981
15081W        W88149  36.795  40.902  13.039
15082W        W88150  27.639  12.666  13.758
15083W        W88151  11.526   8.725  13.349
15084W        W88152  44.570  34.397  12.547
15085W        W88153  29.707   6.502  11.135
15086W        W88154  32.606  40.381   1.526
15087W        W88155  18.120  43.130  10.896
15088W        W88156  25.654  16.190  14.630
15089W        W88157   5.325  13.509  13.104
15090W        W88158  37.896   9.408   3.997
15091W        W88159  36.364   0.419  10.944
15092W        W88160   2.762  36.601  11.891
15093W        W88161  22.994  22.907  13.948
15094W        W88162  12.133  28.062   4.718
15095W        W88163   4.126  29.158   0.021
15096W        W88164   2.936   4.718   3.711
15097W        W88165  30.374  19.424   2.172
15098W        W88166  23.485   7.075   1.255
15099W        W88167  32.396  43.814  13.917
15100W        W88168  36.136   7.854   4.059
15101W        W88169  38.989  30.275  12.477
15102W        W88170  21.142  12.030  14.929
15103W        W88171  23.535  17.989   1.329
15104W        W88172  32.522  10.714   4.343
15105W        W88173  36.649  18.729   3.727
15106W        W88174  29.523  29.076   0.497
15107W        W88175  13.094  11.455  10.676
15108W        W88176   9.703  30.925   1.280
15109W        W88177  35.420  21.595  12.896
15110W        W88178  44.998   9.069  14.353
15111W        W88179  26.472  21.497  12.541
15112W        W88180  32.328   6.649   0.126
15113W        W88181  33.391  28.580  14.410
15114W        W88182   2.427  44.873  12.006
15115W        W88183   2.995  43.476   2.187
15116W        W88184  19.766  33.381  14.663
15117W        W88185  33.190  32.974   0.792
15118W        W88186  33.490  42.428   2.139
15119W        W88187  25.678   4.816   2.361
15120W        W88188   7.159  38.098  14.866
15121W        W88189  19.227   4.238   4.857
15122W        W88190   5.575  30.987   4.729
15123W        W88191   7.811   5.858  11.146
15124W        W88192  18.274   2.471   4.644
15125W        W88193  25.639   2.472  13.962
15126W        W88194   5.788  12.855   3.163
15127W        W88195  29.923  17.827   3.673
15128W        W88196   6.154  27.844   4.546
15129W        W88197   0.676   1.377   1.128
15130W        W88198  29.268  42.377  14.794
15131W        W88199  16.861  20.137   4.061
15132W        W88200   6.416  22.218   1.209
15133W        W88201   7.721  16.325  12.557
15134W        W88202  35.455  23.261   3.222
15135W        W88203  24.797  21.098   2.613
15136W        W88204  33.528  32.575   3.186
15137W        W88205  43.380   9.431  12.456
15138W        W88206  42.757  31.306  13.577
15139W        W88207  22.518  30.962  12.963
15140W        W88208  44.414  15.379   3.154
15141W        W88209  39.267   3.707  11.370
15142W        W88210   5.881  41.847  12.797
15143W        W88211  22.355   6.644   1.161
15144W        W88212  40.039  32.571   2.160
15145W        W88213  38.828   9.317   2.873
15146W        W88214  18.141  29.019   0.884
15147W        W88215  15.107  24.866   2.359
15148W        W88216  36.871  11.270  12.923
15149W        W88217  12.291   6.615   0.809
15150W        W88218  43.001  39.441  14.294
15151W        W88219  21.675   2.357  12.989
15152W        W88220  33.820  32.560  13.032
15153W        W88221  27.926  31.018   4.751
15154W        W88222   5.960  18.546  10.693
15155W        W88223  16.225  15.280   2.461
15156W        W88224  16.259  29.607  13.811
15157W        W88225  30.560  23.528   4.453
15158W        W88226  25.658  37.168   0.565
15159W        W88227   4.708  25.456   3.003
15160W        W88228   7.973   6.855   4.901
15161W        W88229  23.210  41.798   3.239
15162W        W88230   6.341  10.094  12.434
15163W        W88231  19.617  21.323  13.550
15164W        W88232  39.139   4.766   3.180
15165W        W88233   7.260  27.297   4.732
15166W        W88234   6.192  43.221  12.628
15167W        W88235  19.046  24.470  11.671
15168W        W88236   1.378   5.238  11.038
15169W        W88237  19.575   4.285   0.827
15170W        W88238  18.494  18.672  11.576
15171W        W88239  40.268  39.559   2.754
15172W        W88240  44.790  43.448  10.753
15173W        W88241  14.279  17.571   3.083
15174W        W88242   3.100  30.991   4.459
15175W        W88243  40.939  25.092  13.372
15176W        W88244  26.444   4.140   0.957
15177W        W88245  20.975  38.591   3.222
15178W        W88246   8.558  39.811   3.693
15179W        W88247  25.212  25.011   5.009
15180W        W88248  28.011  39.147  13.745
15181W        W88249  15.098  21.026  13.371
15182W        W88250  13.478  40.544  11.301
15183W        W88251  40.375   5.146   5.090
15184W        W88252  36.636  24.733   0.925
15185W        W88253   4.796  25.592  13.193
15186W        W88254   9.216  17.378   3.140
15187W        W88255   1.426  18.039   2.405
15188W        W88256  37.671  27.224   3.685
15189W        W88257  27.427  10.206   4.540
15190W        W88258  19.289  43.912   1.971
15191W        W88259  15.505  24.697  11.881
15192W        W88260  39.274  22.019  10.548
15193W        W88261   0.662   2.646   2.126
15194W        W88262  11.631  26.479   4.483
15195W        W88263  38.124  15.581  13.400
15196W        W88264  22.569   0.583   2.710
15197W        W88265  15.597  32.963   1.840
15198W        W88266   7.814  14.243   4.678
15199W        W88267  20.819   0.873   2.205
15200W        W88268  39.473  32.579  11.344
15201W        W88269   0.385   8.022   1.283
15202W        W88270  16.789  34.571  13.129
15203W        W88271   7.653  37.057  13.571
15204W        W88272  31.120  31.192  13.021
15205W        W88273  33.223  42.230   3.364
15206W        W88274   5.035   1.062   2.920
15207W        W88275   1.427  37.519  14.231
15208W        W88276   7.801  27.092   3.637
15209W        W88277  24.545  29.480  12.998
15210W        W88278   4.478  36.218   4.223
15211W        W88279  31.271   1.431  11.928
15212W        W88280  34.533  30.651  10.588
15213W        W88281   0.660  22.244  12.537
15214W        W88282  12.557  36.113  13.849
15215W        W88283  40.537  19.912   4.624
15216W        W88284  14.667  35.158   2.303
15217W        W88285  37.032  15.377   1.509
15218W        W88286  43.923  10.417  12.008
15219W        W88287  21.436  43.058  11.493
15220W        W88288   0.453  32.963  11.398
15221W        W88289  38.556  20.548   3.850
15222W        W88290  12.599   6.121  11.017
15223W        W88291  44.704  43.841   4.820
15224W        W88292   6.345  30.141  10.758
15225W        W88293  37.991  27.140  11.513
15226W        W88294   8.199  26.159   2.758
15227W        W88295   9.837  23.651   1.287
15228W        W88296  38.565  29.923  14.004
15229W        W88297   5.965   5.816   0.439
15230W        W88298  18.055   3.437   1.186
15231W        W88299  13.640  30.426  12.453
15232W        W88300  11.794  37.823  13.561
15233W        W88301  38.953   0.353   1.737
15234W        W88302  44.868  20.204   2.671
15235W        W88303  17.997  12.301   0.497
15236W        W88304  11.167  18.320   1.759
15237W        W88305   7.391  33.434   3.606
15238W        W88306  16.101  40.073   1.745
15239W        W88307  37.780  37.380   4.510
15240W        W88308  23.913  22.871  11.673
15241W        W88309  16.646   5.593  14.276
15242W        W88310  25.519  28.748   1.988
15243W        W88311   6.396  33.399   4.012
15244W        W88312  11.298   8.940   3.674
15245W        W88313   0.941  32.220   3.701
15246W        W88314  15.761  38.077  14.823
15247W        W88315  11.262  30.615  12.469
15248W        W88316  14.525  40.158   2.215
15249W        W88317   8.731   3.371  10.258
15250W        W88318  26.612  23.779   1.505
15251W        W88319  13.045  29.286   0.237
15252W        W88320  27.033  10.753   3.221
15253W        W88321   0.840   4.782  12.041
15254W        W88322   1.116   9.878  12.082
15255W        W88323  20.186   5.825  12.946
15256W        W88324  41.001  39.145  13.522
15257W        W88325   0.789  18.159  14.916
15258W        W88326  40.063  11.285   0.286
15259W        W88327  25.018  26.890  13.550
15260W        W88328  13.141   3.909  13.517
15261W        W88329  29.466  22.765  12.917
15262W        W88330  20.549   8.441   0.338
15263W        W88331  21.139  19.022   2.290
15264W        W88332  33.772  13.179   1.345
15265W        W88333  29.198  33.373  12.170
15266W        W88334  19.048  43.290  14.350
15267W        W88335  12.212  29.378  14.283
15268W        W88336  11.380  11.269   3.250
15269W        W88337  40.411  33.154   3.728
15270W        W88338  43.064   5.530  14.494
15271W        W88339  43.987   6.204  10.695
15272W        W88340  18.762  21.095  11.937
15273W        W88341  35.867   0.253  12.618
15274W        W88342  17.074  23.300   1.992
15275W        W88343  22.103  26.486  14.963
15276W        W88344   9.585  32.893   2.268
15277W        W88345  21.097  33.215  14.878
15278W        W88346  37.952  25.112   2.830
15279W        W88347  14.328  25.190   0.649
15280W        W88348  27.135   0.823   4.602
15281W        W88349  25.417   6.758  13.660
15282W        W88350  22.154   5.968   1.885
15283W        W88351  30.058  24.236  13.333
15284W        W88352   6.982  38.553   4.438
15285W        W88353  39.043   7.657   0.306
15286W        W88354  11.834  23.484  11.909
15287W        W88355  22.777  36.375   3.247
15288W        W88356   2.199   4.485  11.123
15289W        W88357   0.776  44.989   1.819
15290W        W88358  15.599  40.270  13.484
15291W        W88359   3.200  36.387  12.859
15292W        W88360   6.880  40.083   1.428
15293W        W88361   3.480  19.525   5.031
15294W        W88362  11.845  36.328   1.338
15295W        W88363  27.810  24.932  11.167
15296W        W88364   1.428  25.424   0.790
15297W        W88365  15.945  12.432   1.760
15298W        W88366  29.577  42.054   3.309
15299W        W88367  36.145  21.227   2.354
15300W        W88368   1.046  41.781  13.128
15301W        W88369  15.744  34.596  11.568
15302W        W88370  44.313  34.150   2.905
15303W        W88371  19.995  19.696  13.599
15304W        W88372  26.823  12.428   3.780
15305W        W88373  23.168  31.569   1.629
15306W        W88374  23.066  29.644   2.128
15307W        W88375  14.279  36.212  14.935
15308W        W88376   8.877  29.044   1.048
15309W        W88377  42.317  41.737  10.980
15310W        W88378  34.034  32.976   0.225
15311W        W88379  40.932   6.402  11.635
15312W        W88380  12.279   1.762  10.420
15313W        W88381  27.996  40.200   0.073
15314W        W88382  41.492   8.514   0.476
15315W        W88383  40.067  21.305  12.014
15316W        W88384  12.400  16.698  11.098
15317W        W88385  44.344  31.695   1.348
15318W        W88386  28.092  44.353   4.555
15319W        W88387  29.599  31.526  11.635
15320W        W88388  33.051  23.072  14.454
15321W        W88389   0.282  42.640   2.498
15322W        W88390  35.141  40.455   1.332
15323W        W88391   5.432  17.276  11.405
15324W        W88392  23.487  40.359   1.715
15325W        W88393  43.162  36.130   0.506
15326W        W88394  14.253  12.561   2.335
15327W        W88395  19.192  39.598  11.546
15328W        W88396  42.973  36.172  13.395
15329W        W88397  11.800   9.736   4.642
15330W        W88398  18.806  31.104  10.522
15331W        W88399  35.959  35.573   3.705
15332W        W88400   5.980   7.794  13.886
15333W        W88401  30.042   8.877  12.034
15334W        W88402   4.175  28.966   3.348
15335W        W88403  34.658  23.735  13.381
15336W        W88404  25.375  40.745   2.760
15337W        W88405  43.542  36.868   4.705
15338W        W88406  25.283   9.355   2.767
15339W        W88407   9.561   2.838  14.445
15340W        W88408  37.654  19.014   1.325
15341W        W88409  29.900   7.511   0.030
15342W        W88410  16.091  14.160  11.575
15343W        W88411  20.718  23.517   2.116
15344W        W88412  20.093  35.685  12.616
15345W        W88413  39.143  23.871  12.019
15346W        W88414  44.448  32.496   4.925
15347W        W88415  34.868   2.870   3.183
15348W        W88416  33.009   3.981   3.610
15349W        W88417  27.589   0.250   0.714
15350W        W88418  27.123   3.930   1.895
15351W        W88419  29.538  14.990  14.068
15352W        W88420  27.915  23.643  14.708
15353W        W88421  30.646  12.458   3.181
15354W        W88422  38.866  20.111  13.886
15355W        W88423   9.274  15.344   3.863
15356W        W88424  29.699  26.676   2.825
15357W        W88425  33.613   6.170   4.877
15358W        W88426  20.647   0.103   0.156
15359W        W88427  39.959   9.305  10.558
15360W        W88428  38.521  17.778  13.413
15361W        W88429  27.963  27.578   3.663
15362W        W88430  17.780  10.905  12.146
15363W        W88431  38.968   0.840   0.484
15364W        W88432   8.920  26.654  14.473
15365W        W88433  30.424  20.649  14.050
15366W        W88434  10.672   5.703  11.460
15367W        W88435  35.806  17.481  12.032
15368W        W88436  29.002  23.213  10.734
15369W        W88437  31.938   7.656   4.130
15370W        W88438  12.093  17.489   5.069
15371W        W88439  37.355  19.785  14.020
15372W        W88440  40.869  44.776   1.375
15373W        W88441  34.853  16.463  11.064
15374W        W88442  22.254  28.757   0.411
15375W        W88443   3.225  37.265  14.779
15376W        W88444  40.032  28.544   3.410
15377W        W88445  34.568   5.300   3.603
15378W        W88446  43.515  34.449  11.663
15379W        W88447  37.111  16.879  11.170
15380W        W88448  37.356  35.591  12.078
15381W        W88449  19.181  35.848  14.401
15382W        W88450  36.755  13.577   4.118
15383W        W88451  42.338   7.702   1.327
15384W        W88452  27.512  30.038   3.809
15385W        W88453  23.596  16.725  14.604
15386W        W88454  28.267  13.119  13.771
15387W        W88455  41.597  29.569  10.863
15388W        W88456  40.093   3.491   4.155
15389W        W88457  22.632  10.298   3.738
15390W        W88458  40.120  26.492  14.756
15391W        W88459  37.105  39.807   3.697
15392W        W88460  30.168  23.538   3.132
15393W        W88461  32.485   0.761   4.726
15394W        W88462  29.094  29.528   4.676
15395W        W88463   3.458  34.511   2.946
15396W        W88464  34.373  18.623   2.657
15397W        W88465  27.462  15.977   3.917
15398W        W88466   9.337  41.318   2.739
15399W        W88467  11.844   1.274   2.670
15400W        W88468   4.635   2.444   1.201
15401W        W88469  36.484   5.022  12.026
15402W        W88470  13.394  14.329  12.597
15403W        W88471  35.024   1.028  14.822
15404W        W88472  20.646   1.248  11.390
15405W        W88473  26.950   5.558  11.559
15406W        W88474  32.728   5.753  14.855
15407W        W88475  12.271  37.632  14.886
15408W        W88476   0.789   6.320   1.191
15409W        W88477   4.856   9.799  14.887
15410W        W88478  38.091  20.895   1.363
15411W        W88479  14.325   0.004  12.296
15412W        W88480  35.931   3.490  11.576
15413W        W88481  37.169  29.963   2.766
15414W        W88482  40.828   6.204  14.035
15415W        W88483   7.765  22.956  11.926
15416W        W88484  38.319  33.618  12.523
15417W        W88485  39.908   2.349   3.354
15418W        W88486  13.067  39.355   0.932
15419W        W88487  17.066  25.237   1.302
15420W        W88488  35.600  38.406   2.166
15421W        W88489  22.665  39.455  11.736
15422W        W88490  16.051  34.235  14.623
15423W        W88491  31.336   0.075   2.598
15424W        W88492  30.459  42.100   3.094
15425W        W88493   5.283   6.881  10.941
15426W        W88494  20.007  25.495   4.313
15427W        W88495   5.262  26.981  13.248
15428W        W88496  29.426   2.797  13.564
15429W        W88497  17.191  26.737  13.845
15430W        W88498  38.437  18.226  11.529
15431W        W88499   1.714  18.038   4.449
15432W        W88500  17.093  32.616   4.631
15433W        W88501  41.407  17.368   0.995
15434W        W88502  15.132  16.998   2.236
15435W        W88503   9.231  26.936  14.137
15436W        W88504  36.913  20.592  11.989
15437W        W88505  33.238  18.047   4.883
15438W        W88506  19.037  25.597   0.321
15439W        W88507  24.934  29.984  13.861
15440W        W88508  25.717  10.120   3.757
15441W        W88509  38.534  20.103  12.519
15442W        W88510  25.639  10.832  11.239
15443W        W88511  20.628   6.743  10.624
15444W        W88512  16.076   7.491  11.561
15445W        W88513  44.995  36.803   2.842
15446W        W88514   2.491  33.989  14.620
15447W        W88515  23.186  25.200   0.222
15448W        W88516  15.737  23.556   4.073
15449W        W88517  32.760   4.899  11.831
15450W        W88518   6.221   5.138   3.716
15451W        W88519  20.092   9.818   0.032
15452W        W88520  36.423  21.199  13.575
15453W        W88521  38.957  43.565  11.098
15454W        W88522   1.780   8.835   2.802
15455W        W88523  14.154  18.244  13.263
15456W        W88524  12.572   0.995   4.611
15457W        W88525  44.205  26.654  12.899
15458W        W88526  12.634  39.269  13.921
15459W        W88527  35.505  30.694   2.277
15460W        W88528  36.449  14.354   3.251
15461W        W88529  43.055  22.661   3.795
15462W        W88530  39.077   0.789  11.961
15463W        W88531  10.645   6.350   4.809
15464W        W88532  12.272  10.978  14.686
15465W        W88533  13.841  26.459  10.802
15466W        W88534  32.461  21.224   4.314
15467W        W88535  17.295   2.429  13.044
15468W        W88536   0.675  27.424  12.905
15469W        W88537  39.012  11.180  12.670
15470W        W88538  32.364   9.830  12.443
15471W        W88539  36.224   2.714   1.277
15472W        W88540   4.719  20.529  11.919
15473W        W88541  27.133  28.084   2.421
15474W        W88542  30.105  43.342   4.297
15475W        W88543  31.023   5.147  11.913
15476W        W88544  37.535  22.201   0.355
15477W        W88545  42.887  26.660  14.364
15478W        W88546  37.626  34.945   2.667
15479W        W88547   4.625  34.280   4.192
15480W        W88548   1.821  23.674  11.144
15481W        W88549  29.722  19.858   0.694
15482W        W88550  19.375   8.624   1.809
15483W        W88551  23.099  39.111   2.847
15484W        W88552  26.671  10.756   1.635
15485W        W88553  35.536   4.976   1.296
15486W        W88554  29.141  18.044   2.585
15487W        W88555  34.668  20.355  13.945
15488W        W88556  37.750  11.823  11.990
15489W        W88557  44.810  27.596   2.453
15490W        W88558  22.798   8.943   4.088
15491W        W88559  22.677   8.673   2.836
15492W        W88560  42.601  27.689   0.855
15493W        W88561  39.915  24.968   2.898
15494W        W88562  30.392  39.462  13.568
15495W        W88563  35.521   3.966  12.097
15496W        W88564  24.433  19.789   4.037
15497W        W88565   1.703  33.397   0.240
15498W        W88566  40.602  32.097   1.846
15499W        W88567  39.087  42.470  12.086
15500W        W88568   5.301  11.441   0.217
15501W        W88569  35.680  34.645   3.720
15502W        W88570   0.188   7.225  13.340
15503W        W88571  23.000  20.277  12.448
15504W        W88572  36.796  22.535   3.409
15505W        W88573  23.339  18.178   5.252
15506W        W88574  20.226   7.393  11.905
15507W        W88575  17.771  11.635   2.806
15508W        W88576  10.716  33.465   1.264
15509W        W88577  13.542  24.450  10.984
15510W        W88578   2.345  20.509   1.867
15511W        W88579  28.488  29.699  12.515
15512W        W88580  39.769  34.791  13.038
15513W        W88581   1.369  23.836  14.659
15514W        W88582   0.631   4.906  12.990
15515W        W88583  32.901   8.712  11.589
15516W        W88584  39.516  23.481  14.459
15517W        W88585  41.232  37.971   3.187
15518W        W88586  41.950  40.009   2.199
15519W        W88587  10.251  31.379   1.844
15520W        W88588   8.919  13.581  11.143
15521W        W88589  26.490  43.552   4.730
15522W        W88590  37.543  26.481  11.926
15523W        W88591  44.231  44.420   1.285
15524W        W88592  10.104  13.887   3.767
15525W        W88593  13.791  25.777  13.339
15526W        W88594  35.170  22.665   2.207
15527W        W88595  27.676  42.766  11.524
15528W        W88596   7.959  11.904   3.213
15529W        W88597  13.151   5.209   3.678
15530W        W88598  13.233  35.882  13.355
15531W        W88599  43.418  42.493   2.392
15532W        W88600  39.590   3.982  12.401
15533W        W88601   6.055  33.845   9.857
15534W        W88602  42.229  25.075  11.663
15535W        W88603  36.840  35.903  13.735
15536W        W88604  32.426  27.108   4.302
15537W        W88605   1.515  40.385  11.936
15538W        W88606  14.747  38.023  12.495
15539W        W88607  33.259  29.116  12.361
15540W        W88608  15.688   4.796   3.608
15541W        W88609  35.002  27.570   3.799
15542W        W88610  32.908  39.742   0.951
15543W        W88611  16.346  29.950   4.131
15544W        W88612  17.245  31.805  10.365
15545W        W88613   1.399  13.223   2.429
15546W        W88614  28.853  22.586   4.168
15547W        W88615   8.557  43.528  10.782
15548W        W88616  22.596  44.518  12.688
15549W        W88617   0.445  13.641  14.928
15550W        W88618  15.866  38.079   4.315
15551W        W88619  20.447  19.362   0.756
15552W        W88620   7.373  33.479   4.128
15553W        W88621  36.487  21.448   2.778
15554W        W88622  29.747  27.421  12.845
15555W        W88623  25.640  39.831  13.919
15556W        W88624  16.744   4.249   0.321
15557W        W88625  24.662   8.250  13.984
15558W        W88626  14.554  12.610   4.165
15559W        W88627  39.504  37.596   3.598
15560W        W88628  27.161  44.328   3.375
15561W        W88629  11.814  32.871   1.555
15562W        W88630  25.415   1.900   2.753
15563W        W88631  17.268  13.228  11.916
15564W        W88632   6.971  21.337   4.439
15565W        W88633  42.373  37.002   2.735
15566W        W88634  16.783   2.263  10.646
15567W        W88635   1.428  14.004  13.924
15568W        W88636  22.551  21.598  13.057
15569W        W88637  44.459  17.673   1.224
15570W        W88638  41.944  28.730  10.892
15571W        W88639  28.948  36.908   2.942
15572W        W88640  21.836  37.541   0.476
15573W        W88641  28.492  11.687   2.004
15574W        W88642   8.122  31.153  13.867
15575W        W88643   6.005   3.599   3.852
15576W        W88644  21.255  11.735   0.797
15577W        W88645  21.556   5.892  10.923
15578W        W88646  32.581  39.922  14.149
15579W        W88647  30.529  18.506   0.234
15580W        W88648  29.852  44.124   2.658
15581W        W88649  39.437  28.542   2.299
15582W        W88650  22.500  32.235   2.772
15583W        W88651  31.619  13.817   0.498
15584W        W88652  41.107  28.577  13.424
15585W        W88653   9.119  16.906  11.074
15586W        W88654  35.090  28.963   2.573
15587W        W88655  35.398   0.315   2.433
15588W        W88656  41.833   5.240  10.699
15589W        W88657   9.589  29.456  13.963
15590W        W88658  34.875  39.875  11.655
15591W        W88659   8.614  44.260   2.340
15592W        W88660  40.296  15.840  10.547
15593W        W88661  26.536   3.384  12.123
15594W        W88662  26.601   0.936   0.159
15595W        W88663  37.116   2.609   2.689
15596W        W88664  19.561  19.757  14.811
15597W        W88665  15.811  24.544  14.388
15598W        W88666  30.573  36.964   0.359
15599W        W88667  31.540  23.495  10.395
15600W        W88668  14.366  24.736  13.294
15601W        W88669  33.936  18.006  13.229
15602W        W88670   9.867  19.958   4.906
15603W        W88671  22.340  31.727   1.294
15604W        W88672  24.228  10.617   4.093
15605W        W88673   0.427  19.827   3.740
15606W        W88674  37.917  24.664   0.498
15607W        W88675  22.371  44.217   1.476
15608W        W88676  36.610  27.422  12.292
15609W        W88677  23.930   7.611  14.100
15610W        W88678  37.777  40.832  12.969
15611W        W88679   5.527  27.310   0.830
15612W        W88680  31.668  34.976  14.788
15613W        W88681  28.917  42.395   4.311
15614W        W88682   7.906  30.114   9.889
15615W        W88683  22.484  27.473  10.804
15616W        W88684  21.572  29.459   4.592
15617W        W88685   5.981  27.480  12.887
15618W        W88686  14.112  37.755   4.799
15619W        W88687   9.313  22.241   1.940
15620W        W88688   8.172  34.982  14.374
15621W        W88689  25.990  32.249  11.964
15622W        W88690  24.704   0.533   4.097
15623W        W88691   5.911  23.030  14.272
15624W        W88692  30.596  18.140   0.899
15625W        W88693   4.743  29.870  12.963
15626W        W88694  10.737  43.772   2.622
15627W        W88695  30.312  42.934  14.633
15628W        W88696  36.402  33.949   9.556
15629W        W88697   2.528  33.839   3.104
15630W        W88698   3.505  33.444  13.274
15631W        W88699   1.846   8.454  13.804
15632W        W88700  44.700   6.708  12.445
15633W        W88701  31.411   4.858   1.387
15634W        W88702   1.968  20.338  13.568
15635W        W88703  40.530  41.381  10.211
15636W        W88704   3.382   0.243  11.046
15637W        W88705   6.274   0.774   1.364
15638W        W88706  16.612  13.826   3.540
15639W        W88707  38.053  30.027  14.021
15640W        W88708  19.155  34.827  13.364
15641W        W88709  42.659  16.620  11.967
15642W        W88710  35.050  33.524  14.461
15643W        W88711  25.000  38.329  14.122
15644W        W88712   5.479  25.102   2.177
15645W        W88713  20.486   7.962  13.061
15646W        W88714  14.991  36.978  12.086
15647W        W88715  20.469  42.756  12.560
15648W        W88716  30.569  31.586   3.942
15649W        W88717  31.052  41.895  14.993
15650W        W88718  18.727   1.778  13.397
15651W        W88719  19.923  11.880  10.414
15652W        W88720  10.957  11.712   0.428
15653W        W88721  27.486   2.049   3.136
15654W        W88722  21.251   9.665   3.621
15655W        W88723  29.578   7.144  10.564
15656W        W88724  44.651  19.665  12.411
15657W        W88725  41.058  12.311   0.829
15658W        W88726   2.383  39.298  13.498
15659W        W88727  42.605  33.784  12.847
15660W        W88728  13.823  11.747  12.752
15661W        W88729  31.459  25.056   2.397
15662W        W88730   8.646  23.493   2.459
15663W        W88731  35.514  44.358  13.385
15664W        W88732  15.202   4.110  14.262
15665W        W88733   9.330   8.708   0.717
15666W        W88734  38.990  33.585  14.754
15667W        W88735  36.968   8.646  11.851
15668W        W88736  42.455  31.693   2.157
15669W        W88737  26.843   4.199  13.367
15670W        W88738  19.808   9.876   2.267
15671W        W88739  12.438  42.965   1.814
15672W        W88740  10.305  20.015   3.622
15673W        W88741   3.423   8.667   1.407
15674W        W88742  44.518   9.726  14.392
15675W        W88743  28.448  43.474  10.656
15676W        W88744  15.334  17.395   0.413
15677W        W88745  17.590  27.934   3.408
15678W        W88746  38.153   8.974   4.709
15679W        W88747  16.166   3.462  14.457
15680W        W88748  10.721   6.123  11.103
15681W        W88749  28.447   5.770   4.598
15682W        W88750  43.036  37.615  11.474
15683W        W88751   1.332  26.906   4.588
15684W        W88752  12.078  33.970  14.201
15685W        W88753  11.352   9.186  13.486
15686W        W88754   3.779   9.014  14.785
15687W        W88755  38.204  31.376   4.532
15688W        W88756  15.941   5.764  13.228
15689W        W88757  39.838  15.734  14.217
15690W        W88758  16.268  18.577  11.003
15691W        W88759  17.230  33.759  14.846
15692W        W88760  15.891  29.051   4.108
15693W        W88761  11.748  40.490   2.280
15694W        W88762  41.357  10.184  12.931
15695W        W88763  23.626  38.980   2.293
15696W        W88764   9.638  36.424  12.915
15697W        W88765  19.970   2.898  10.662
15698W        W88766   7.281  34.605  12.475
15699W        W88767  17.350  15.660   1.862
15700W        W88768   1.020  15.281   1.219
15701W        W88769  14.368  20.101  12.453
15702W        W88770   9.773   2.741  12.290
15703W        W88771  42.975  19.732  13.019
15704W        W88772  34.322  41.433  14.555
15705W        W88773  37.253   8.235  11.974
15706W        W88774   0.267  11.166  12.557
15707W        W88775  42.111  15.735  11.430
15708W        W88776  21.504  22.744  10.352
15709W        W88777  35.893  19.121   0.810
15710W        W88778  25.376  33.080  10.750
15711W        W88779  36.799  13.564  13.313
15712W        W88780  11.617  29.777  12.648
15713W        W88781   8.735  32.553   1.328
15714W        W88782   3.792  16.304  11.805
15715W        W88783  28.768  35.158  13.849
15716W        W88784   6.214  23.065   0.652
15717W        W88785   4.449  21.945   2.227
15718W        W88786   2.242  40.702   2.932
15719W        W88787  28.908  19.694  12.502
15720W        W88788  25.251  18.071  13.188
15721W        W88789  39.849  14.908  11.892
15722W        W88790  40.395  13.132   4.320
15723W        W88791  18.959  39.862  11.077
15724W        W88792   0.361   8.267  10.588
15725W        W88793  23.223  13.170   2.801
15726W        W88794  35.540   7.692  12.453
15727W        W88795   6.408  22.806   5.072
15728W        W88796  20.907  38.757  14.842
15729W        W88797  22.357   2.811  13.490
15730W        W88798   7.919   0.774  10.770
15731W        W88799   4.748  28.914  14.477
15732W        W88800  31.806  29.952   5.152
15733W        W88801  19.580  38.921   2.363
15734W        W88802  43.587   6.629   0.466
15735W        W88803  10.322  22.691   4.219
15736W        W88804  42.757   8.574   3.304
15737W        W88805  20.213  30.828   4.524
15738W        W88806   2.177  14.066  12.907
15739W        W88807   2.985  30.651   1.634
15740W        W88808  44.478  19.293   2.718
15741W        W88809   9.247   3.799   2.733
15742W        W88810  19.796  11.122   4.193
15743W        W88811  29.924   9.636  11.510
15744W        W88812  13.539   5.910   1.211
15745W        W88813  31.440  25.736  13.021
15746W        W88814  17.523  11.388   0.315
15747W        W88815  26.187  25.054   0.029
15748W        W88816  17.679  35.600   1.734
15749W        W88817  40.420  28.106  13.401
15750W        W88818  20.581   1.443   3.699
15751W        W88819  24.107  18.232   1.059
15752W        W88820  39.749  42.760   1.786
15753W        W88821  20.926  19.350  14.945
15754W        W88822  20.629  43.459   3.692
15755W        W88823  38.879  38.832  12.702
15756W        W88824  25.654  44.408  12.104
15757W        W88825  27.521  26.713  10.646
15758W        W88826   0.631  35.957  11.915
15759W        W88827  44.216   8.720  11.125
15760W        W88828  38.855  35.699  11.160
15761W        W88829  40.728  23.026  13.507
15762W        W88830   7.806   2.766  11.679
15763W        W88831   4.798  37.916  10.718
15764W        W88832  38.061  27.106  10.636
15765W        W88833  39.215  15.572   5.169
15766W        W88834  32.284  17.001  14.815
15767W        W88835  22.149  44.724   2.276
15768W        W88836  30.037   7.767   1.407
15769W        W88837   5.002  21.994   1.242
15770W        W88838  39.785  14.798  13.237
15771W        W88839  34.787  19.922  11.463
15772W        W88840  36.396   7.804   2.311
15773W        W88841   2.311  13.734  10.722
15774W        W88842   8.916  18.313  14.058
15775W        W88843  11.129  25.065  14.794
15776W        W88844  25.440  15.145  12.680
15777W        W88845  18.670  37.598  13.955
15778W        W88846   0.934  33.908  13.373
15779W        W88847  10.525   2.354  11.408
15780W        W88848  40.484  38.944  12.001
15781W        W88849  32.669  16.576   1.957
15782W        W88850   8.380   2.418  11.715
15783W        W88851  32.572  23.533   0.859
15784W        W88852   9.714  13.580   3.609
15785W        W88853   8.820  25.957   1.808
15786W        W88854  33.521   8.872   2.677
15787W        W88855   0.641   5.164  11.676
15788W        W88856   6.617   1.726   1.851
15789W        W88857  40.555   2.850  12.043
15790W        W88858  12.144  20.753  12.961
15791W        W88859   8.364  37.982   0.960
15792W        W88860  15.214   8.003  13.374
15793W        W88861   6.808  17.328  12.883
15794W        W88862  31.037  27.538   2.585
15795W        W88863  33.345  22.567  12.362
15796W        W88864  20.929  34.580   1.408
15797W        W88865  30.781  32.935   2.793
15798W        W88866  10.985  10.386  12.644
15799W        W88867  38.389  37.871   3.168
15800W        W88868   0.899  18.366   4.072
15801W        W88869  44.675  30.187   4.019
15802W        W88870  22.498  31.955   2.305
15803W        W88871   9.356  35.170   2.918
15804W        W88872  41.945   0.040   0.275
15805W        W88873  22.497  15.535  12.766
15806W        W88874  43.346  26.945  14.380
15807W        W88875  14.313  39.331   1.606
15808W        W88876  20.197  17.188  10.316
15809W        W88877   2.616  17.616  10.547
15810W        W88878   2.436  26.071  13.941
15811W        W88879  40.348  41.737   2.360
15812W        W88880  23.685   6.087  14.006
15813W        W88881  29.013  16.145  11.594
15814W        W88882   7.595  37.255   4.002
15815W        W88883   2.765  32.235  10.349
15816W        W88884  32.063  32.152   2.720
15817W        W88885  29.063  29.508   1.000
15818W        W88886  19.036   7.717   0.910
15819W        W88887  12.094  41.289   0.960
15820W        W88888  17.546  24.613   2.217
15821W        W88889  30.011  19.308   1.742
15822W        W88890   1.745  33.644  13.470
15823W        W88891  34.618   9.285  12.423
15824W        W88892  34.049   0.004   2.708
15825W        W88893  12.173  41.270  14.901
15826W        W88894  12.710  37.763   2.653
15827W        W88895  14.194  28.500   2.289
15828W        W88896  16.040   2.453   0.023
15829W        W88897   5.570  37.540  14.525
15830W        W88898  40.708  10.205   1.152
15831W        W88899  36.538  10.359   3.881
15832W        W88900  17.754   9.996  13.369
15833W        W88901  32.159  24.092  14.871
15834W        W88902  41.371  43.898  11.137
15835W        W88903  24.380   7.886   1.806
15836W        W88904  21.520   5.812  11.460
15837W        W88905   4.740  14.382   4.493
15838W        W88906  35.955  13.660   4.489
15839W        W88907   3.253  29.812   5.021
15840W        W88908  40.166  19.047   4.492
15841W        W88909   4.390  30.853   2.299
15842W        W88910   7.544   0.875   1.225
15843W        W88911   8.984  30.470  12.878
15844W        W88912   7.239  27.291  14.830
15845W        W88913  41.476  22.500  11.979
15846W        W88914  36.783  21.095  12.584
15847W        W88915  43.743   9.890   2.639
15848W        W88916  36.328  31.266   1.642
15849W        W88917  39.404  31.325  14.422
15850W        W88918  11.693  40.090  11.290
15851W        W88919   0.755   0.909   0.892
15852W        W88920  35.952  11.613  12.990
15853W        W88921  35.035  29.366   2.906
15854W        W88922  15.695  34.844  13.891
15855W        W88923  30.181   0.846  12.824
15856W        W88924  18.628  33.947  14.811
15857W        W88925  38.446  13.168   2.609
15858W        W88926  15.606   4.232  14.568
15859W        W88927   7.263  11.169  10.627
15860W        W88928  30.315   0.286  10.673
15861W        W88929  18.304  36.568  12.121
15862W        W88930   0.441  44.923  14.837
15863W        W88931  27.586  32.933   3.879
15864W        W88932  37.035  15.766   4.603
15865W        W88933  35.492  26.643  13.333
15866W        W88934  15.293  24.639   1.492
15867W        W88935   6.105  23.166   4.221
15868W        W88936  33.986  20.327   0.428
15869W        W88937   9.156  42.770  14.452
15870W        W88938  14.450  18.946  11.704
15871W        W88939   4.440   6.750   4.927
15872W        W88940  43.957  43.935   1.180
15873W        W88941   5.622   4.156   0.444
15874W        W88942  19.959  10.923  14.471
15875W        W88943   2.236  15.434   1.220
15876W        W88944  36.378  38.680   1.721
15877W        W88945   8.459  13.872  12.028
15878W        W88946  19.578   1.804  14.011
15879W        W88947  26.566  22.165  13.993
15880W        W88948  11.418  20.353   4.075
15881W        W88949  34.550  32.072  13.071
15882W        W88950  21.204  36.310  12.059
15883W        W88951  20.808   5.862   2.012
15884W        W88952   8.660  36.618   1.079
15885W        W88953   3.032  29.648   3.459
15886W        W88954  13.110  17.302  14.921
15887W        W88955  26.037  38.443  14.117
15888W        W88956  20.489  14.267  12.604
15889W        W88957   6.415  24.240  13.557
15890W        W88958  23.183  44.419   0.347
15891W        W88959  13.919  44.670   1.340
15892W        W88960  38.740  42.973   1.894
15893W        W88961  32.839   6.655   3.041
15894W        W88962  18.504  19.099  13.644
15895W        W88963  43.263  17.596   4.162
15896W        W88964  12.062  16.790   0.742
15897W        W88965   5.312  10.478   1.970
15898W        W88966  41.562   9.821   1.369
15899W        W88967   2.208  27.607  12.998
15900W        W88968   9.596  31.042   3.190
15901W        W88969  40.065   1.519  10.308
15902W        W88970  44.445   5.133   0.803
15903W        W88971  28.040  25.199   4.594
15904W        W88972  32.810  18.698  14.474
15905W        W88973  38.129   5.912  11.129
15906W        W88974   3.778  16.660  14.294
15907W        W88975  29.603  11.160   1.326
15908W        W88976  39.427  37.634  12.409
15909W        W88977  43.053  33.026  11.027
15910W        W88978  21.182   5.680  12.046
15911W        W88979  15.589   3.754  14.760
15912W        W88980  39.805  28.334  11.172
15913W        W88981   0.848  14.906   1.572
15914W        W88982  41.459  37.280  12.078
15915W        W88983  43.255  10.453  12.425
15916W        W88984  44.512  10.739   2.431
15917W        W88985  44.960  23.283  12.017
15918W        W88986  36.912  21.019   1.261
15919W        W88987  37.459   4.708  10.493
15920W        W88988  44.736  17.506   0.838
15921W        W88989   4.517   6.613  12.849
15922W        W88990  41.020  33.062  10.606
15923W        W88991  24.423   9.195   4.207
15924W        W88992  24.724  26.491  12.799
15925W        W88993  13.335   1.557   1.573
15926W        W88994  40.052  31.457  11.607
15927W        W88995  13.574  32.580   0.747
15928W        W88996  19.140   3.101  13.000
15929W        W88997  33.594   4.149  12.056
15930W        W88998  33.947  14.617  12.012
15931W        W88999  26.085  23.627  11.624
15932W        W89000  14.957  23.055  13.325
15933W        W89001  12.804  30.428  12.456
15934W        W89002  44.424  11.624  12.044
15935W        W89003  43.881  40.527   2.777
15936W        W89004  18.638  15.145   1.005
15937W        W89005  33.546  27.536  12.364
15938W        W89006  33.526  32.373   3.661
15939W        W89007  43.439  43.904   1.948
15940W        W89008  35.143  14.546  10.065
15941W        W89009  10.407  24.044  13.748
15942W        W89010  22.680  33.586  13.040
15943W        W89011  36.872  21.090  12.068
15944W        W89012  26.102  27.967  11.633
15945W        W89013  41.495  15.583   1.410
15946W        W89014   5.004  21.433  14.615
15947W        W89015  26.664  21.492   0.948
15948W        W89016  22.074  27.818   3.814
15949W        W89017  37.451   7.699   4.580
15950W        W89018  42.504   5.003   4.632
15951W        W89019  11.383  43.206  11.595
15952W        W89020  30.946  22.471   1.819
15953W        W89021   8.503  27.472   0.432
15954W        W89022  26.162  14.455   4.987
15955W        W89023  44.472  15.759  14.278
15956W        W89024  39.306   8.288   2.477
15957W        W89025   1.762   0.321   3.296
15958W        W89026  10.815  38.565  14.418
15959W        W89027  20.678   3.803  11.105
15960W        W89028  36.951   3.961   1.319
15961W        W89029   6.034  42.884   5.125
15962W        W89030  33.436  29.990  13.265
15963W        W89031  18.731  43.598   0.214
15964W        W89032  28.036  19.176   3.205
15965W        W89033   4.013  29.277   0.518
15966W        W89034  30.580   6.404  13.560
15967W        W89035  18.276  33.683  13.634
15968W        W89036   1.937  44.852   1.380
15969W        W89037  34.227  23.377  14.278
15970W        W89038   9.489   4.977  12.188
15971W        W89039  25.570   7.916   0.286
15972W        W89040  43.873  38.871   2.120
15973W        W89041  42.997  22.773  11.176
15974W        W89042  17.511  24.195   3.151
15975W        W89043  22.249   2.341   1.920
15976W        W89044  42.135  40.414  13.933
15977W        W89045  44.397  12.673  12.990
15978W        W89046  37.529   6.864  11.183
15979W        W89047  22.414  23.903  13.412
15980W        W89048   4.943  26.032  13.433
15981W        W89049  23.305  37.305  13.540
15982W        W89050   6.597  19.022   1.412
15983W        W89051   6.780  32.390   0.977
15984W        W89052   1.044  17.827   3.339
15985W        W89053  23.161   7.062   1.747
15986W        W89054  27.239   6.980   1.346
15987W        W89055  43.888  34.009   1.349
15988W        W89056  27.653  39.300   0.065
15989W        W89057  38.834  30.841  12.365
15990W        W89058  30.956  27.458   3.074
15991W        W89059  15.011  20.847  12.870
15992W        W89060  31.423  31.950  13.951
15993W        W89061   4.695  22.622   4.629
15994W        W89062   4.828  16.358   3.076
15995W        W89063  28.186  18.297  10.865
15996W        W89064  33.271  27.211  11.119
15997W        W89065  38.835   1.524   2.210
15998W        W89066  39.433  22.250  13.994
15999W        W89067  10.634  27.125   1.369
16000W        W89068  28.523  30.284   1.635
16001W        W89069  40.388  17.476   5.005
16002W        W89070  35.978   0.995  11.375
16003W        W89071  21.709   5.740  12.978
16004W        W89072  42.772  37.134  10.394
16005W        W89073  11.224   1.768  11.632
16006W        W89074   8.747  15.106   1.714
16007W        W89075  21.714  21.765   2.821
16008W        W89076  23.527   2.452   2.356
16009W        W89077  11.878   4.392   4.896
16010W        W89078  35.089  10.365  10.564
16011W        W89079   8.677  28.139  14.366
16012W        W89080  37.119  32.316  12.428
16013W        W89081  36.721  39.826  11.977
16014W        W89082   4.393  15.147  10.587
16015W        W89083  10.449  21.670   2.735
16016W        W89084  40.028  36.341  11.586
16017W        W89085  15.722  34.387  10.726
16018W        W89086  36.647   4.963  11.222
16019W        W89087  19.132  12.493   3.148
16020W        W89088  40.101  22.027   4.461
16021W        W89089  35.558   5.883  14.853
16022W        W89090   7.697  30.434  14.405
16023W        W89091   9.036   5.204  12.444
16024W        W89092   3.933   4.224   2.636
16025W        W89093  36.405  26.126   3.157
16026W        W89094  13.619   7.715   3.423
16027W        W89095  24.172  40.106  13.902
16028W        W89096   5.215  10.070   4.087
16029W        W89097  25.766   1.356  13.859
16030W        W89098   6.258   0.419   4.308
16031W        W89099  42.033  31.629  10.537
16032W        W89100   8.706  18.610  12.092
16033W        W89101   9.768  12.493  11.052
16034W        W89102   9.162  26.126   4.490
16035W        W89103   5.607  18.666   2.319
16036W        W89104   1.308  18.520   1.312
16037W        W89105  33.112  31.365  12.991
16038W        W89106  37.839  25.943   0.790
16039W        W89107  16.025   5.219  11.931
16040W        W89108   5.504  15.332   2.806
16041W        W89109  43.686  37.374   0.700
16042W        W89110  34.547   3.453   3.711
16043W        W89111  29.641  40.047   2.640
16044W        W89112   6.396  38.849   4.092
16045W        W89113  43.002   9.645  14.313
16046W        W89114   4.785  21.959   0.082
16047W        W89115  32.826  44.590   0.925
16048W        W89116  27.452  39.949  11.524
16049W        W89117   4.782   8.761  14.918
16050W        W89118  17.131  20.616  14.983
16051W        W89119  30.096  41.564   3.805
16052W        W89120  28.999  28.528  13.449
16053W        W89121  33.487  43.845  14.760
16054W        W89122   4.729  19.094  11.530
16055W        W89123  41.779  12.307  10.724
16056W        W89124  10.979  28.968   1.364
16057W        W89125  19.174   6.896  11.144
16058W        W89126  14.681  13.778  12.134
16059W        W89127   8.938   7.257  12.232
16060W        W89128  10.715   0.558   2.362
16061W        W89129  42.885  42.892   0.777
16062W        W89130  44.918   4.661   3.196
16063W        W89131  23.013  34.062  11.056
16064W        W89132   2.827  15.078  13.886
16065W        W89133   8.798  24.744  13.532
16066W        W89134   3.893  10.279   3.745
16067W        W89135  21.486  19.033   2.726
16068W        W89136  31.097  21.403   4.202
16069W        W89137  18.708  41.293  10.242
16070W        W89138  27.012  23.721   1.190
16071W        W89139  14.554  42.568   2.648
16072W        W89140  16.726  34.158   2.570
16073W        W89141  32.912  25.351  11.644
16074W        W89142  20.659  17.156  13.356
16075W        W89143  38.426  34.127   2.151
16076W        W89144  40.961  22.764   2.354
16077W        W89145  29.646  30.396   3.716
16078W        W89146  20.106  17.877   0.416
16079W        W89147  20.751  42.243   1.892
16080W        W89148  29.170  13.208  10.721
16081W        W89149  42.021   3.257   3.412
16082W        W89150  26.755  36.088  11.599
16083W        W89151  41.429  27.035   2.157
16084W        W89152  31.677  16.180  14.901
16085W        W89153   1.886  39.625   0.447
16086W        W89154  17.439  12.184  12.880
16087W        W89155  28.225   1.637   1.840
16088W        W89156  43.775  38.428  11.611
16089W        W89157   2.093   1.344  11.966
16090W        W89158   0.522  37.379   0.496
16091W        W89159  38.744  43.819  11.485
16092W        W89160  41.344  18.562   3.290
16093W        W89161   3.523  42.554  13.449
16094W        W89162   7.167  27.918   1.290
16095W        W89163  40.503  10.374  13.496
16096W        W89164  13.942  33.568  12.425
16097W        W89165  15.491   6.775  13.781
16098W        W89166  10.869  31.377   1.379
16099W        W89167  26.008  25.223  13.397
16100W        W89168  24.435  22.154  14.808
16101W        W89169  21.177   8.973   0.010
16102W        W89170   0.918  26.026  12.131
16103W        W89171  31.017  13.353   3.365
16104W        W89172  20.654  27.639   5.074
16105W        W89173   2.194  32.953   2.864
16106W        W89174   0.246   8.877   0.946
16107W        W89175  13.491  26.420   1.803
16108W        W89176  23.930  34.029  11.198
16109W        W89177  28.843  44.215  11.077
16110W        W89178  37.357  31.437  11.321
16111W        W89179  22.705  31.386   1.416
16112W        W89180   9.376  41.079  13.776
16113W        W89181  30.009   7.303   1.615
16114W        W89182  21.709  27.533  10.344
16115W        W89183  13.360  37.410  13.930
16116W        W89184  34.994  25.517   1.321
16117W        W89185   8.391  20.004   1.807
16118W        W89186  38.515   8.253  14.235
16119W        W89187  35.538  23.495   0.488
16120W        W89188   4.126  34.106  11.227
16121W        W89189  25.137   3.480   3.231
16122W        W89190  28.560   3.955  10.620
16123W        W89191  31.546  42.218   3.778
16124W        W89192  38.520  27.023   0.499
16125W        W89193  23.467  31.129  10.470
16126W        W89194  36.310  18.803  11.908
16127W        W89195  39.853  35.161   0.885
16128W        W89196  31.084  39.492   3.752
16129W        W89197  22.683  26.319  13.904
16130W        W89198  37.749  42.913   0.745
16131W        W89199   6.910  24.166   0.916
16132W        W89200  25.447  29.906  11.195
16133W        W89201  13.656  40.741   0.529
16134W        W89202   0.721  23.606  13.449
16135W        W89203  27.075  20.654   0.180
16136W        W89204   4.985   3.460   2.341
16137W        W89205   3.882  15.889   3.326
16138W        W89206  17.469  43.843  13.930
16139W        W89207  10.239   0.774  13.473
16140W        W89208  18.629  20.948  13.222
16141W        W89209   2.868  28.171   3.764
16142W        W89210  18.358   0.702  14.797
16143W        W89211  12.403  28.044  13.346
16144W        W89212  15.341  32.596  14.936
16145W        W89213  27.430   2.506   2.323
16146W        W89214  42.399  32.735   1.279
16147W        W89215  29.367  19.217  11.660
16148W        W89216  13.096  16.320   2.615
16149W        W89217  34.735  38.923   3.726
16150W        W89218  42.809  24.106   2.244
16151W        W89219  20.834  31.710   3.664
16152W        W89220   4.149  34.197   3.876
16153W        W89221  29.975  16.854   0.002
16154W        W89222  29.546  37.024   0.059
16155W        W89223  33.972  27.585  14.794
16156W        W89224  38.039   1.497  11.611
16157W        W89225   8.883  30.496  11.028
16158W        W89226  31.865  39.409  13.434
16159W        W89227   5.063  40.522   4.572
16160W        W89228  10.744   0.079   3.235
16161W        W89229  32.053  34.656   1.373
16162W        W89230  16.784  17.207   0.353
16163W        W89231  12.198   1.989  10.898
16164W        W89232  23.058  21.655   1.481
16165W        W89233  29.433  26.797   4.174
16166W        W89234  42.025   9.584   1.436
16167W        W89235   2.348   2.220  12.530
16168W        W89236  30.098  32.580  14.409
16169W        W89237  17.301  42.920   5.063
16170W        W89238  14.826  22.625  14.472
16171W        W89239  44.700  10.201  12.605
16172W        W89240   0.017  31.935   4.514
16173W        W89241   5.705  30.405   2.797
16174W        W89242  28.643  44.801  14.530
16175W        W89243  33.843  33.122  11.022
16176W        W89244  35.471  21.811   1.147
16177W        W89245  24.490  24.562  14.071
16178W        W89246   5.598  10.848   1.778
16179W        W89247  18.207  13.325   2.875
16180W        W89248   6.311  43.349   0.924
16181W        W89249  38.982   1.800  13.111
16182W        W89250  38.874   1.206   0.863
16183W        W89251   6.720  40.797   4.615
16184W        W89252  27.326   6.013  13.455
16185W        W89253  35.497   3.772  13.927
16186W        W89254   9.673   3.541  11.120
16187W        W89255  28.148  17.764   4.131
16188W        W89256  18.107  23.014  10.628
16189W        W89257  26.703  34.493   4.225
16190W        W89258   3.009  25.664   3.877
16191W        W89259   3.456  26.725   2.329
16192W        W89260  19.054   4.418  13.541
16193W        W89261  41.768   7.812  11.607
16194W        W89262  38.305  26.563   3.779
16195W        W89263   3.272  35.630  11.400
16196W        W89264  29.324  11.691   4.054
16197W        W89265  34.371  39.347   1.918
16198W        W89266  18.127  38.965   3.983
16199W        W89267  10.375  17.922   4.634
16200W        W89268   7.941  31.936   0.407
16201W        W89269   7.898  25.908   1.828
16202W        W89270  42.030  11.138   0.389
16203W        W89271  25.592  27.652   0.283
16204W        W89272  38.079   7.948  12.137
16205W        W89273  40.496  14.635  10.396
16206W        W89274   1.883  26.840  14.276
16207W        W89275   7.233   1.075  11.749
16208W        W89276  38.073  29.187  11.609
16209W        W89277  17.315  28.529  11.638
16210W        W89278  21.454  11.120  11.346
16211W        W89279   9.435  39.548   3.291
16212W        W89280  28.981  37.376   3.250
16213W        W89281  13.615  16.633   0.392
16214W        W89282  30.038  25.387  14.806
16215W        W89283  20.794  14.650  14.282
16216W        W89284  16.769  41.260   0.374
16217W        W89285  25.180  10.586  12.536
16218W        W89286  17.868   2.000  12.918
16219W        W89287  23.498  17.785   2.252
16220W        W89288  16.497   3.349   0.434
16221W        W89289  27.641  31.196  12.788
16222W        W89290   5.560  40.879  11.755
16223W        W89291  32.071   3.242   3.097
16224W        W89292  41.858  43.061   3.294
16225W        W89293  16.109  20.975  13.452
16226W        W89294  44.830   9.138  10.385
16227W        W89295  35.167  16.195   3.173
16228W        W89296  44.279  38.051  14.707
16229W        W89297   5.013  35.419  14.456
16230W        W89298  35.107   6.886   0.096
16231W        W89299  11.139   4.943   0.717
16232W        W89300  37.358  11.839   2.784
16233W        W89301  23.149  13.177  13.284
16234W        W89302  10.699  37.862   4.843
16235W        W89303  39.630   2.788   0.077
16236W        W89304   6.206  19.030   1.860
16237W        W89305  29.638   3.871  13.343
16238W        W89306  28.295   9.408   3.387
16239W        W89307  24.948  28.628   2.274
16240W        W89308  11.861  41.379   1.821
16241W        W89309  28.919  44.792   4.564
16242W        W89310  34.485  39.428  10.762
16243W        W89311  43.123  29.500   1.091
16244W        W89312  27.661   0.988   4.286
16245W        W89313  29.402  25.726   2.347
16246W        W89314  43.434  27.477   1.269
16247W        W89315  15.474  25.174   1.452
16248W        W89316  16.980   3.694   3.640
16249W        W89317  10.300   9.721  11.638
16250W        W89318  30.737  28.510  10.751
16251W        W89319  32.065  16.732  11.975
16252W        W89320  22.249   6.787   3.785
16253W        W89321   7.224  19.632  12.953
16254W        W89322  29.607  36.880  13.568
16255W        W89323  22.654  17.140   5.034
16256W        W89324  43.197  37.122   3.674
16257W        W89325  30.908  32.466  11.594
16258W        W89326   2.039  43.807   2.190
16259W        W89327  30.644  13.511  11.135
16260W        W89328  39.689  30.606  11.203
16261W        W89329  15.343   6.214  12.899
16262W        W89330  21.266   7.539  11.992
16263W        W89331  15.659  18.615  11.660
16264W        W89332  18.374   7.934  12.509
16265W        W89333  18.467  31.405  14.998
16266W        W89334   4.407  28.095   0.865
16267W        W89335  28.217   1.049  13.577
16268W        W89336  39.334  28.330   4.734
16269W        W89337  28.752   6.898  11.206
16270W        W89338  20.866   1.194   1.472
16271W        W89339  30.580  15.698   3.426
16272W        W89340   5.936  41.693   3.243
16273W        W89341  26.843  30.606   1.098
16274W        W89342   4.347  38.799   0.511
16275W        W89343  22.633  15.768   4.705
16276W        W89344  22.564   8.427  11.914
16277W        W89345  43.912  25.099  13.518
16278W        W89346  11.082   3.974  13.850
16279W        W89347  10.578  13.627   3.815
16280W        W89348  31.445  24.716   2.781
16281W        W89349  11.522   7.662  12.953
16282W        W89350   0.703  17.239   2.773
16283W        W89351  40.934  44.068  12.919
16284W        W89352  20.233  35.684  13.458
16285W        W89353  16.832   2.464   3.283
16286W        W89354  14.808   6.137  11.570
16287W        W89355  39.173  20.995   2.719
16288W        W89356  16.106  14.748  12.921
16289W        W89357  20.645  41.755  11.635
16290W        W89358  25.947  17.377   1.655
16291W        W89359  44.411  25.244   3.794
16292W        W89360   5.465  38.465  13.479
16293W        W89361  11.234  25.616   0.817
16294W        W89362  21.948   5.233   4.540
16295W        W89363  10.622  34.617  13.470
16296W        W89364  44.447  24.962  14.488
16297W        W89365  19.678  15.567   2.394
16298W        W89366  39.536   6.208  13.465
16299W        W89367  19.340   1.763   4.303
16300W        W89368  21.694  37.606  14.963
16301W        W89369  39.429  18.182  11.473
16302W        W89370  22.854   1.863  14.463
16303W        W89371  35.292  12.853  13.858
16304W        W89372  23.195  12.755   3.149
16305W        W89373   8.764  38.493  13.349
16306W        W89374  34.464  13.474   0.238
16307W        W89375  36.838  42.818  11.630
16308W        W89376   4.243  40.566   4.910
16309W        W89377   2.895  36.911  14.958
16310W        W89378  18.874   8.405  13.617
16311W        W89379  39.455  24.860   2.690
16312W        W89380  44.454  19.759  14.596
16313W        W89381   0.977  11.957  10.884
16314W        W89382   5.413  14.529  13.031
16315W        W89383  37.525   5.670   0.837
16316W        W89384  13.583  21.954   2.647
16317W        W89385   8.005  44.246  13.444
16318W        W89386  23.690  11.228  12.890
16319W        W89387  12.775  18.472   1.318
16320W        W89388  42.606  26.923  13.966
16321W        W89389  36.635   8.971   4.256
16322W        W89390  40.917   8.484  14.227
16323W        W89391  10.168  42.954  13.590
16324W        W89392   7.351  23.035   4.393
16325W        W89393   3.861  15.213  13.440
16326W        W89394  39.649  26.726   2.699
16327W        W89395   0.725  26.656  14.958
16328W        W89396  20.693  13.874   0.788
16329W        W89397  44.880   6.462   3.592
16330W        W89398  32.695  23.632   3.210
16331W        W89399  13.957  31.521  11.947
16332W        W89400  12.992  16.210  11.519
16333W        W89401  32.686   6.833   0.487
16334W        W89402  14.337  20.691  11.833
16335W        W89403  28.223   3.024   0.412
16336W        W89404   5.390  12.477   0.461
16337W        W89405  16.929  25.104   2.592
16338W        W89406  15.695  23.390  14.329
16339W        W89407  32.480  22.029  12.408
16340W        W89408  26.136   0.794   1.919
16341W        W89409  24.104   8.836  13.263
16342W        W89410  32.393  29.095   0.663
16343W        W89411  12.228   0.479  14.181
16344W        W89412  20.652  37.431   4.127
16345W        W89413  16.043  25.952   1.840
16346W        W89414  38.812  10.601   1.379
16347W        W89415   2.896  21.545  14.350
16348W        W89416  22.206  17.775  12.936
16349W        W89417  13.262  37.374   3.461
16350W        W89418   8.272  18.412  11.461
16351W        W89419  29.622  27.983   9.992
16352W        W89420   5.157  20.640  13.415
16353W        W89421  38.914  38.862  10.691
16354W        W89422  11.377  30.436  11.989
16355W        W89423  12.617  35.671  11.696
16356W        W89424  44.235  32.704  12.006
16357W        W89425  23.543  31.167   2.360
16358W        W89426  17.796  33.050  14.569
16359W        W89427  25.055  35.293   4.382
16360W        W89428   3.861  31.719   3.740
16361W        W89429  37.564  17.980  12.960
16362W        W89430  17.681  40.934   0.421
16363W        W89431  24.513   8.846   4.589
16364W        W89432   6.731  12.302   1.280
16365W        W89433  38.657   1.216  14.288
16366W        W89434  18.325  21.953   1.064
16367W        W89435   9.763   8.909  13.747
16368W        W89436  35.444  14.764  11.903
16369W        W89437   6.381   8.230   1.388
16370W        W89438  21.350   8.372  12.791
16371W        W89439  26.056   6.514   3.686
16372W        W89440  12.570  27.961  11.672
16373W        W89441  13.280  28.447   4.204
16374W        W89442  29.421  44.847   4.378
16375W        W89443  18.105  12.251   1.026
16376W        W89444  28.962   5.122   2.389
16377W        W89445  31.333  33.101  11.099
16378W        W89446   8.147  24.755  10.471
16379W        W89447  33.878  12.279   3.679
16380W        W89448  11.575  29.698  11.581
16381W        W89449  32.027  10.994  12.820
16382W        W89450  15.670  15.749  11.167
16383W        W89451  31.614  31.102  13.062
16384W        W89452  17.930   2.396  14.485
16385W        W89453  22.642  42.443   3.787
16386W        W89454  41.404  28.380   4.016
16387W        W89455   6.501  10.824   1.395
16388W        W89456  43.285  16.863   0.809
16389W        W89457  29.037  43.245   3.137
16390W        W89458   7.158  16.095   4.592
16391W        W89459  44.566  34.934   0.446
16392W        W89460  38.024  29.088  10.754
16393W        W89461  15.428   4.965   3.169
16394W        W89462   7.371   8.460   4.867
16395W        W89463  38.025  13.483  13.993
16396W        W89464  24.016   4.297  14.891
16397W        W89465  27.208  26.729  14.805
16398W        W89466  19.062  43.790  13.406
16399W        W89467  33.463  37.414  11.929
16400W        W89468  26.036  10.994  14.928
16401W        W89469  24.052  16.035   5.302
16402W        W89470  28.391  32.985  12.548
16403W        W89471  16.996  25.126  12.010
16404W        W89472  24.223   0.684   2.880
16405W        W89473  27.323  15.829   1.733
16406W        W89474  35.695  29.525   4.928
16407W        W89475  34.021   5.775   3.072
16408W        W89476  10.273  27.630  12.384
16409W        W89477   8.952   9.740  11.732
16410W        W89478   3.199  20.925  14.026
16411W        W89479  29.413   4.365  12.327
16412W        W89480   7.099  37.913   0.369
16413W        W89481  38.319  29.161  12.069
16414W        W89482  35.084  28.151   2.862
16415W        W89483  35.942  20.810  11.544
16416W        W89484   5.933  23.528   2.874
16417W        W89485   4.761  26.781  13.521
16418W        W89486   7.809  40.431  14.772
16419W        W89487  24.119  29.179  14.269
16420W        W89488   5.451  21.819  12.071
16421W        W89489  33.610  35.155  14.774
16422W        W89490  23.304   7.475  13.086
16423W        W89491  12.685  30.272   2.299
16424W        W89492  24.221   5.371   2.842
16425W        W89493  38.940  26.945   2.330
16426W        W89494  18.254  30.169  11.990
16427W        W89495   4.668  18.164  14.298
16428W        W89496  24.055  10.743  11.017
16429W        W89497  43.127   2.779  11.944
16430W        W89498  42.887   7.845  10.965
16431W        W89499   9.745  27.021  12.888
16432W        W89500  18.465   2.699   0.694
16433W        W89501  13.043   3.764  11.072
16434W        W89502   9.992  38.602   4.034
16435W        W89503   1.986  14.745   1.822
16436W        W89504  15.150  22.045   4.278
16437W        W89505  28.977  32.539   0.397
16438W        W89506  14.413  24.582   3.683
16439W        W89507   5.711  42.706  14.415
16440W        W89508  16.405  24.602   3.589
16441W        W89509  40.342  38.479   1.888
16442W        W89510  12.132  25.436  13.343
16443W        W89511   8.753  17.603   0.286
16444W        W89512  14.711   6.194   4.289
16445W        W89513   1.426  19.938  12.114
16446W        W89514  23.997   3.225  14.939
16447W        W89515  40.837   0.250   2.257
16448W        W89516  18.607   1.196  11.605
16449W        W89517  24.709  15.549   3.744
16450W        W89518  41.785   0.792   3.588
16451W        W89519   7.229   4.673  11.004
16452W        W89520  18.984  28.460  14.050
16453W        W89521  26.624   7.701  11.194
16454W        W89522  10.996   2.052   0.742
16455W        W89523   6.959   1.157   4.271
16456W        W89524   6.204  33.520  14.835
16457W        W89525   0.053  43.335   3.645
16458W        W89526  39.742  34.043   2.237
16459W        W89527  27.159  11.214   1.254
16460W        W89528  41.218  18.614  10.716
16461W        W89529  42.856  11.644   3.030
16462W        W89530  20.090   8.925  13.438
16463W        W89531  39.893  33.835   2.691
16464W        W89532  18.367  13.404   2.000
16465W        W89533  29.024  22.042  13.492
16466W        W89534  23.001  37.300   4.520
16467W        W89535  16.641   6.920   1.712
16468W        W89536  15.295  24.050   1.678
16469W        W89537   5.655  34.956   0.347
16470W        W89538  44.832  36.685  13.054
16471W        W89539   0.903   4.240  12.799
16472W        W89540  26.109   0.805   0.022
16473W        W89541  44.791   2.449   3.690
16474W        W89542  15.541  33.887  11.438
16475W        W89543  29.369  15.862   4.743
16476W        W89544   8.040  37.369   3.672
16477W        W89545   9.607  38.011  13.795
16478W        W89546  17.362  28.931   0.496
16479W        W89547  30.045  37.559   4.380
16480W        W89548  40.620  22.715  14.808
16481W        W89549  15.779  31.108   2.269
16482W        W89550  11.679  38.284   4.120
16483W        W89551  11.509  34.946  10.719
16484W        W89552   6.732  40.021   3.821
16485W        W89553  21.305  14.521   3.184
16486W        W89554  21.334  23.026   1.832
16487W        W89555  20.495  30.648  11.028
16488W        W89556  33.852  28.285  14.236
16489W        W89557   9.000  13.073  11.221
16490W        W89558  36.380  17.720   4.342
16491W        W89559  42.106  12.884   1.431
16492W        W89560   9.207  21.607  10.711
16493W        W89561   9.614  18.158  12.855
16494W        W89562  39.998  23.131  12.014
16495W        W89563  24.402   9.742   2.658
16496W        W89564  12.144  43.059  12.397
16497W        W89565  42.578   3.303   1.809
16498W        W89566  37.982  33.493  10.037
16499W        W89567  44.779  21.677   2.712
16500W        W89568  14.297   9.606  12.465
16501W        W89569   9.328  24.608  14.876
16502W        W89570   6.998  41.518   2.873
16503W        W89571  13.789  13.586   4.997
16504W        W89572  17.640  27.778   0.783
16505W        W89573   6.773  18.946  12.272
16506W        W89574  19.622  38.795  11.348
16507W        W89575  38.843  28.526   0.751
16508W        W89576  17.419  14.377  10.254
16509W        W89577  19.161  40.302  11.900
16510W        W89578  22.492  39.422   3.625
16511W        W89579  32.595   1.278   4.685
16512W        W89580  42.992  37.858   0.066
16513W        W89581  37.548   2.209   1.373
16514W        W89582  26.111  39.911  12.762
16515W        W89583  29.374  41.747   4.300
16516W        W89584  22.331  32.968   0.927
16517W        W89585  25.374  42.968   1.446
16518W        W89586   9.750  35.015  10.680
16519W        W89587  40.154  11.735  14.341
16520W        W89588  21.197  43.381  13.982
16521W        W89589  31.787   6.571  14.879
16522W        W89590  11.365  41.075  10.586
16523W        W89591  33.469  40.569  10.950
16524W        W89592  15.224  23.062  12.694
16525W        W89593  44.806  38.267  11.346
16526W        W89594  19.994   3.783  10.585
16527W        W89595   2.346  20.956  14.977
16528W        W89596  35.343  36.488   3.843
16529W        W89597  24.441  31.096   2.136
16530W        W89598   1.925  14.391  13.340
16531W        W89599  20.562  28.880  12.885
16532W        W89600   7.653  11.587  11.414
16533W        W89601  14.748  26.352   4.053
16534W        W89602  12.783   8.630   3.770
16535W        W89603  30.582  22.799  13.512
16536W        W89604  14.275  10.226  14.941
16537W        W89605  14.329  18.286   3.681
16538W        W89606  10.664  29.446  12.454
16539W        W89607  27.574   4.808   1.716
16540W        W89608  24.717  21.112   1.712
16541W        W89609  31.414  42.251  14.015
16542W        W89610  18.206   5.370   0.789
16543W        W89611  18.890   7.247   2.501
16544W        W89612  32.449  30.823  10.769
16545W        W89613  32.493  31.302   0.227
16546W        W89614  42.756  29.551   0.763
16547W        W89615   0.235  41.499   0.566
16548W        W89616  10.953  29.581   1.823
16549W        W89617  29.488   1.194   4.168
16550W        W89618   1.327  21.245   3.192
16551W        W89619  11.685  15.247   3.588
16552W        W89620  22.258  35.137  11.058
16553W        W89621  28.753  40.121   3.739
16554W        W89622  28.564  14.242  12.380
16555W        W89623  33.572  28.824   2.744
16556W        W89624  11.260  34.956   3.629
16557W        W89625  19.446   2.992  10.477
16558W        W89626   8.863  42.043   1.509
16559W        W89627  16.068  39.896  13.897
16560W        W89628  42.562  16.543   1.993
16561W        W89629   0.754  13.530   4.036
16562W        W89630  11.910  23.003   0.360
16563W        W89631  22.765   3.327   5.169
16564W        W89632   1.545  39.051  12.486
16565W        W89633  29.852  19.278   2.257
16566W        W89634  12.294   3.314   0.008
16567W        W89635  42.541  17.046   3.176
16568W        W89636  12.758  44.191   0.949
16569W        W89637  19.177  38.774  12.102
16570W        W89638  32.834  40.758   0.711
16571W        W89639   5.408  38.966   2.432
16572W        W89640  21.571  35.337  14.530
16573W        W89641  26.630  15.164   1.550
16574W        W89642  15.795  34.571   1.805
16575W        W89643  36.628  26.600   3.242
16576W        W89644  13.286  42.615   9.942
16577W        W89645  40.396  21.378   5.003
16578W        W89646   2.024  29.643  12.595
16579W        W89647  39.425   0.573   0.475
16580W        W89648  33.629  16.877   1.695
16581W        W89649  32.408  36.504  12.977
16582W        W89650  40.515   8.371  12.818
16583W        W89651  30.639   0.242  14.135
16584W        W89652  28.608  10.546   1.257
16585W        W89653  17.554  39.674   0.729
16586W        W89654  31.594  23.703   2.933
16587W        W89655   2.440  32.603  12.326
16588W        W89656  15.181  27.431   0.527
16589W        W89657  28.085  44.106  13.829
16590W        W89658  44.810  13.134  13.443
16591W        W89659  14.777  33.399   0.496
16592W        W89660  28.951  16.782   0.077
16593W        W89661  42.061  33.845  14.925
16594W        W89662  21.591  17.034  13.725
16595W        W89663  41.773  14.161  12.490
16596W        W89664   2.407  31.596  14.885
16597W        W89665  26.604  24.091  13.354
16598W        W89666  17.240  29.673  14.996
16599W        W89667  15.221  30.109  14.493
16600W        W89668  37.282   1.201  11.168
16601W        W89669  33.691   8.307   1.745
16602W        W89670   2.678  33.267  11.087
16603W        W89671  16.594  20.808  14.298
16604W        W89672  10.318  44.502  13.136
16605W        W89673   2.246  42.336   2.397
16606W        W89674  34.124  22.994  14.601
16607W        W89675  28.648   0.951  13.821
16608W        W89676  36.292  34.146  11.366
16609W        W89677  37.628  38.390   3.273
16610W        W89678   6.410  15.487   2.853
16611W        W89679  32.392  34.530  12.475
16612W        W89680  33.908  14.791  14.996
16613W        W89681   0.222  12.296   1.688
16614W        W89682  41.422  42.858   4.163
16615W        W89683  16.582  17.248   4.188
16616W        W89684   9.922  22.766  13.866
16617W        W89685  14.854   6.294   0.462
16618W        W89686  16.151   4.256  12.867
16619W        W89687  33.730  44.795  11.237
16620W        W89688  34.314  29.898   1.721
16621W        W89689  29.523  20.941  14.831
16622W        W89690  39.099  38.304   1.351
16623W        W89691   1.860  28.262   0.825
16624W        W89692  44.038  37.439  11.564
16625W        W89693   3.851  41.401   3.689
16626W        W89694  38.903  27.609  10.625
16627W        W89695  17.122  16.677   1.253
16628W        W89696  31.177   2.834   1.437
16629W        W89697  25.092  20.175   1.422
16630W        W89698  17.823   2.966  13.662
16631W        W89699   1.170   1.665  11.261
16632W        W89700  43.346  26.634  11.089
16633W        W89701  29.647  38.585   1.459
16634W        W89702  38.552  42.987  13.871
16635W        W89703  41.570  22.752  13.309
16636W        W89704  30.913  35.870  13.423
16637W        W89705   7.829  15.559  13.577
16638W        W89706   4.676   2.282   0.412
16639W        W89707  27.714  41.823  12.546
16640W        W89708  16.584  32.639  12.520
16641W        W89709  27.894  37.309   2.553
16642W        W89710  38.083   2.415  13.302
16643W        W89711  39.373   0.498  13.893
16644W        W89712  30.531   0.688   0.871
16645W        W89713   0.155  41.063  11.668
16646W        W89714   8.866  18.603   0.785
16647W        W89715  18.191   1.239  10.792
16648W        W89716  18.260  14.639   1.778
16649W        W89717  28.159  18.137  13.994
16650W        W89718  16.559  27.478  14.371
16651W        W89719  40.324  39.073  13.918
16652W        W89720  32.889  29.488  14.800
16653W        W89721  19.606  27.621  14.651
16654W        W89722  17.487  22.504  11.075
16655W        W89723   8.814  37.397  11.855
16656W        W89724  30.747  29.983  12.543
16657W        W89725   4.834  11.356  14.934
16658W        W89726  43.831  20.077   1.810
16659W        W89727  11.935   7.249   1.202
16660W        W89728   5.482  13.149   1.727
16661W        W89729  23.495  25.128  10.548
16662W        W89730  24.478   9.536  12.885
16663W        W89731  27.660  27.461  14.390
16664W        W89732  39.022  24.129   0.289
16665W        W89733  34.518  36.013  13.527
16666W        W89734  37.383   3.348   3.198
16667W        W89735  40.443   7.423   5.532
16668W        W89736  10.094  17.879   9.844
16669W        W89737   0.750  25.195  14.960
16670W        W89738   6.876  28.027   4.101
16671W        W89739  29.923  24.630   3.181
16672W        W89740  44.301  38.985  12.024
16673W        W89741  32.495  22.232   3.389
16674W        W89742  37.109  24.628   3.589
16675W        W89743  44.737  22.062   4.929
16676W        W89744  32.962  40.900  12.682
16677W        W89745  35.551  28.373   3.177
16678W        W89746  16.599  38.067   3.281
16679W        W89747  33.660  34.683  12.135
16680W        W89748  35.906  25.731  14.260
16681W        W89749  31.887   5.165  14.843
16682W        W89750  29.040  21.739   4.685
16683W        W89751  15.247  42.935   0.478
16684W        W89752  25.701  32.929   0.446
16685W        W89753  30.893   8.796  12.343
16686W        W89754  39.445  12.679  10.874
16687W        W89755   1.681  21.482   2.258
16688W        W89756   1.924  35.167  14.257
16689W        W89757  28.482  28.553   2.927
16690W        W89758  20.331  15.038   4.003
16691W        W89759   8.180  11.871  12.482
16692W        W89760  36.070   2.271  13.369
16693W        W89761   6.210  34.711  14.266
16694W        W89762  17.138  22.785   1.863
16695W        W89763   0.878  15.246  11.620
16696W        W89764   6.264  29.835   0.891
16697W        W89765  21.753  29.001  13.476
16698W        W89766  33.050  22.172  13.848
16699W        W89767  15.228  24.480   3.189
16700W        W89768   5.921  10.089  11.324
16701W        W89769   9.109   9.889   0.273
16702W        W89770  30.184   9.935  12.014
16703W        W89771  15.954  35.997  13.003
16704W        W89772  41.797  19.801  11.603
16705W        W89773  14.158  37.014  12.868
16706W        W89774  42.384  44.331  10.710
16707W        W89775  14.859  26.169   1.888
16708W        W89776  22.527  42.879   1.726
16709W        W89777   0.770  20.816  13.019
16710W        W89778  37.507  11.409   5.011
16711W        W89779  34.041  19.839   1.432
16712W        W89780  34.905  31.081   3.334
16713W        W89781  21.269   8.285   4.051
16714W        W89782  18.099  22.876   1.876
16715W        W89783  21.295   1.631   4.318
16716W        W89784  17.550  20.937   4.550
16717W        W89785  41.744   0.282   1.338
16718W        W89786  37.918  43.472  14.524
16719W        W89787   5.013   6.313  14.105
16720W        W89788   4.639  25.145  12.915
16721W        W89789  38.830  18.836   0.463
16722W        W89790  39.509  15.885  11.864
16723W        W89791  36.188   2.128  11.995
16724W        W89792   4.454  16.070  12.520
16725W        W89793   5.060  42.534   4.812
16726W        W89794  34.595  25.652  13.916
16727W        W89795   5.825  34.502  10.708
16728W        W89796  33.426  10.116   1.384
16729W        W89797  34.575   0.476  14.063
16730W        W89798  24.454  39.753   3.755
16731W        W89799  39.362   4.865  13.271
16732W        W89800   7.184  34.875   2.197
16733W        W89801  33.565  26.035   1.349
16734W        W89802  36.942  37.463   5.069
16735W        W89803   5.939   0.425   1.747
16736W        W89804  33.563  16.242  14.299
16737W        W89805   2.574  34.144   2.705
16738W        W89806  11.572   7.251   4.058
16739W        W89807  10.869  28.628   2.115
16740W        W89808  43.218  40.034  12.899
16741W        W89809  28.159   4.512   0.377
16742W        W89810  30.269  12.592   4.154
16743W        W89811  29.073  30.599   0.400
16744W        W89812   0.997   7.268   0.820
16745W        W89813  16.183  33.464   3.400
16746W        W89814  13.240  10.357  12.889
16747W        W89815   2.158  27.953   4.061
16748W        W89816   3.873  30.580   4.554
16749W        W89817  12.888   0.219   0.467
16750W        W89818  17.431  40.579  12.265
16751W        W89819  14.693   3.791   3.977
16752W        W89820  24.581  17.345  13.856
16753W        W89821  16.504  21.034   2.028
16754W        W89822  42.373  44.490  12.214
16755W        W89823  30.551   8.155  14.904
16756W        W89824  17.820  23.533  13.001
16757W        W89825  16.907  26.583  10.737
16758W        W89826   8.142   1.448  11.389
16759W        W89827  24.805  41.710  12.834
16760W        W89828  22.664  29.963  13.915
16761W        W89829  20.304  21.078   1.960
16762W        W89830  40.448  38.737   0.339
16763W        W89831  17.656   0.440  13.155
16764W        W89832  13.642   8.472   0.012
16765W        W89833  35.865  28.467   1.430
16766W        W89834  21.460  41.354  11.954
16767W        W89835   6.171   2.667   3.517
16768W        W89836  29.239  44.408   4.136
16769W        W89837  38.200  38.091   1.262
16770W        W89838  35.380   5.784   2.164
16771W        W89839  39.741  43.355  14.273
16772W        W89840   7.912  26.586   2.730
16773W        W89841  24.724  34.097  13.369
16774W        W89842  44.757  41.511   3.012
16775W        W89843  31.909   3.882  14.507
16776W        W89844  30.710   8.794   0.043
16777W        W89845  42.757  25.668  12.027
16778W        W89846  20.033  17.527  14.140
16779W        W89847  19.497  38.915   3.438
16780W        W89848   4.743  12.182   3.250
16781W        W89849   1.832   0.206   3.786
16782W        W89850  20.796  34.025   4.533
16783W        W89851  42.035  13.294   2.704
16784W        W89852  13.559   4.200   1.902
16785W        W89853  19.778  27.019  10.685
16786W        W89854   7.857  21.280  12.774
16787W        W89855  33.820   0.689  11.515
16788W        W89856  15.106  19.378  10.477
16789W        W89857   9.603   3.870   4.555
16790W        W89858  41.032  24.137  12.163
16791W        W89859  38.468  10.151   3.569
16792W        W89860  37.438  32.095   4.487
16793W        W89861  37.710   3.102   4.739
16794W        W89862   2.367  13.679  14.931
16795W        W89863  15.751   3.788  12.326
16796W        W89864  33.940  38.611  14.552
16797W        W89865   3.748  18.469  11.112
16798W        W89866   8.736  44.291  13.088
16799W        W89867  16.169  28.742   0.762
16800W        W89868  13.573  20.815  11.127
16801W        W89869   4.440  24.682  10.621
16802W        W89870   4.717  41.052  12.813
16803W        W89871  37.422  41.937   4.577
16804W        W89872  21.927  10.641  14.316
16805W        W89873  27.119  33.545   0.323
16806W        W89874  18.300   9.802   2.275
16807W        W89875  32.499  12.377   1.749
16808W        W89876  21.134   1.949  13.103
16809W        W89877  25.114  17.342   5.039
16810W        W89878  13.680  30.642  14.006
16811W        W89879  28.947  26.427  14.293
16812W        W89880  23.680   2.983  13.458
16813W        W89881  23.368  43.877   3.363
16814W        W89882  10.818  19.448  14.927
16815W        W89883  39.559  11.849  11.429
16816W        W89884  17.898  21.625  13.732
16817W        W89885  15.915  30.009   5.045
16818W        W89886  21.287  13.596  14.793
16819W        W89887  16.170  17.337  11.598
16820W        W89888  32.557  25.541  13.693
16821W        W89889  24.576  20.506   3.668
16822W        W89890  17.344  33.065   0.475
16823W        W89891  30.033  28.740   2.077
16824W        W89892  40.545  34.180  14.964
16825W        W89893  40.877  14.904  11.165
16826W        W89894  16.161  32.452   3.079
16827W        W89895  15.871  23.146  12.908
16828W        W89896  16.798   4.656  13.365
16829W        W89897   2.946  29.076  12.507
16830W        W89898  39.618  42.786   0.593
16831W        W89899  29.865  35.413  11.184
16832W        W89900  19.199  41.742   2.860
16833W        W89901  41.578  16.300   2.742
16834W        W89902  38.483  22.105  12.775
16835W        W89903  20.978  44.792   2.788
16836W        W89904  21.440  13.766   4.846
16837W        W89905  28.069  19.243   4.252
16838W        W89906  31.596  32.873  13.442
16839W        W89907  28.675  14.153   2.306
16840W        W89908  32.014  44.254   2.217
16841W        W89909  43.218   4.213  12.764
16842W        W89910  19.545  25.436  12.043
16843W        W89911  42.168  37.893   2.337
16844W        W89912   8.106  22.028  12.573
16845W        W89913  42.941   7.364  10.788
16846W        W89914   2.719  41.414   4.004
16847W        W89915  23.520  18.621  12.009
16848W        W89916  35.077  13.261   1.735
16849W        W89917  23.999   6.479  12.385
16850W        W89918  19.898  22.500   0.248
16851W        W89919  27.839   5.921  13.530
16852W        W89920  21.132  14.341   0.253
16853W        W89921   8.695   2.415  14.654
16854W        W89922  43.244  43.061   3.672
16855W        W89923  30.988   1.766  14.931
16856W        W89924  23.056  36.766   2.288
16857W        W89925  44.468   1.048   3.805
16858W        W89926  43.601   4.257   4.885
16859W        W89927  33.389  38.863   0.791
16860W        W89928  27.035  16.573  10.485
16861W        W89929  27.208  18.619   3.333
16862W        W89930  29.459   3.918  12.073
16863W        W89931  30.840   0.310  11.537
16864W        W89932  21.101  12.112   4.372
16865W        W89933  33.832  20.633   4.449
16866W        W89934  20.868   9.447   1.425
16867W        W89935  42.428  15.507  12.372
16868W        W89936  26.227  43.763   1.913
16869W        W89937  31.456   8.386   0.301
16870W        W89938   3.754   5.405   1.692
16871W        W89939  41.974  34.205  13.523
16872W        W89940   0.797   1.514   4.195
16873W        W89941  42.391   5.308  11.502
16874W        W89942  17.123   3.279  11.507
16875W        W89943  34.183  30.947   2.380
16876W        W89944  10.591  17.241  13.878
16877W        W89945  22.594  20.065  10.137
16878W        W89946  40.948  19.481  10.767
16879W        W89947  33.616  39.420   1.278
16880W        W89948  35.011  42.802   1.877
16881W        W89949  42.674   8.606  13.877
16882W        W89950   4.114  29.482  13.497
16883W        W89951   0.204  12.744   2.844
16884W        W89952   8.162  20.609   3.565
16885W        W89953  13.830  21.297   4.139
16886W        W89954   1.470  12.429  11.953
16887W        W89955  25.622  14.764  13.304
16888W        W89956  25.910  25.224  14.350
16889W        W89957  42.122  12.645  12.901
16890W        W89958   1.337  44.924  11.931
16891W        W89959  15.770  11.265  10.677
16892W        W89960  26.743   2.277  14.812
16893W        W89961   9.761  25.488   0.969
16894W        W89962  28.637  15.632  14.255
16895W        W89963   3.216  34.610   0.461
16896W        W89964  41.517  20.023   2.137
16897W        W89965  39.801  21.599   0.170
16898W        W89966  31.398  24.317   0.217
16899W        W89967   8.237   6.740  11.892
16900W        W89968  44.019  10.712   3.296
16901W        W89969  23.076   8.303  11.986
16902W        W89970   9.705  41.251   3.637
16903W        W89971  42.888  35.228   2.704
16904W        W89972  29.386  33.867  11.495
16905W        W89973  26.391   4.743   3.303
16906W        W89974  24.513  13.565   4.499
16907W        W89975  28.132   4.829   3.982
16908W        W89976  11.593   8.236   2.678
16909W        W89977  32.471   9.512  12.036
16910W        W89978  39.944  11.239  10.348
16911W        W89979  13.535  11.346  12.923
16912W        W89980  25.493   2.280  11.924
16913W        W89981  20.510  37.803  11.542
16914W        W89982  19.556  22.710  10.748
16915W        W89983  21.301  23.360  11.717
16916W        W89984  20.060  24.747   3.705
16917W        W89985   8.301  21.729   1.757
16918W        W89986  44.617  15.857  11.004
16919W        W89987  36.020  19.518   4.065
16920W        W89988  37.310   5.025   4.619
16921W        W89989  17.041  37.974   2.658
16922W        W89990   7.762   6.084  13.349
16923W        W89991  34.500   5.361  11.664
16924W        W89992  44.663  43.327  13.519
16925W        W89993  10.594   1.906   2.928
16926W        W89994   4.634  12.121   4.332
16927W        W89995  26.390  41.511  13.837
16928W        W89996  23.789  34.539  10.733
16929W        W89997  42.471  30.133  12.557
16930W        W89998  31.483  30.880   1.344
16931W        W89999  28.629   1.837  13.941
16932W        W90000  36.760  15.664   2.599
16933W        W90001  41.026  39.545   0.240
16934W        W90002   7.502  25.253   9.877
16935W        W90003   0.499  14.643   1.929
16936W        W90004  18.610  22.152  11.596
16937W        W90005  35.039   5.955  14.944
16938W        W90006   1.457  10.907   2.660
16939W        W90007  17.514  24.963   0.611
16940W        W90008  32.156  18.782  11.138
16941W        W90009  12.254  35.175   3.093
16942W        W90010  24.222   4.504  11.361
16943W        W90011  30.880  10.927   4.229
16944W        W90012  25.155  11.570   3.818
16945W        W90013  22.032   6.986   0.923
16946W        W90014  23.098  36.623   0.071
16947W        W90015  40.612  43.004   2.379
16948W        W90016  44.039  13.470   3.335
16949W        W90017  33.011   5.987  11.607
16950W        W90018  14.074  19.341   2.746
16951W        W90019  35.195  18.810   1.240
16952W        W90020  30.165   1.459  13.580
16953W        W90021  20.671  38.559   0.296
16954W        W90022  22.148  24.795   3.190
16955W        W90023  44.823   6.802  14.817
16956W        W90024  13.290  12.921  11.058
16957W        W90025  34.064  12.163  14.298
16958W        W90026  21.572  39.771   1.754
16959W        W90027  43.231  39.369   1.843
16960W        W90028  33.448  10.377   4.969
16961W        W90029  28.927  26.137   1.716
16962W        W90030  33.096  15.133   3.230
16963W        W90031  35.883  17.574   4.487
16964W        W90032  44.768  42.908   3.786
16965W        W90033  32.255  10.783   3.895
16966W        W90034  28.174   3.165   1.794
16967W        W90035  37.999   4.907  12.543
16968W        W90036  32.539   8.779  14.325
16969W        W90037  40.093   1.802  14.987
16970W        W90038  22.112  43.222  14.554
16971W        W90039  11.364  40.710  11.432
16972W        W90040  22.672   4.821   0.692
16973W        W90041  40.515   7.123   2.767
16974W        W90042  31.446  30.478  11.461
16975W        W90043  15.776  35.662  13.795
16976W        W90044   5.697  43.977  11.384
16977W        W90045   9.176  31.726   3.306
16978W        W90046   8.667  42.449   3.216
16979W        W90047   1.794  28.074  14.872
16980W        W90048  15.688  43.956   0.798
16981W        W90049   6.307  35.788  12.354
16982W        W90050  27.933  35.131   0.902
16983W        W90051  42.013  38.466   1.159
16984W        W90052   2.130  25.670   4.837
16985W        W90053  34.558  28.979  13.844
16986W        W90054   8.204  18.631  11.923
16987W        W90055  39.010  15.661   4.658
16988W        W90056   1.009   0.786   3.827
16989W        W90057  27.956  28.916  12.451
16990W        W90058  23.189  31.970   3.490
16991W        W90059   1.168  15.701  12.357
16992W        W90060  35.122  35.414  10.486
16993W        W90061  26.489  21.240  11.568
16994W        W90062  29.243  14.098  14.110
16995W        W90063  17.114  36.589  13.282
16996W        W90064  17.050   1.796   2.808
16997W        W90065  12.438  37.358  12.455
16998W        W90066  16.853  14.268  14.021
16999W        W90067  26.513  15.348   2.222
17000W        W90068   3.374   9.129   1.623
17001W        W90069   4.609  21.535  10.734
17002W        W90070  43.777  21.688   2.597
17003W        W90071  25.463  35.194   0.815
17004W        W90072  37.486  23.525  13.245
17005W        W90073   0.203   2.311  12.505
17006W        W90074   8.734  36.116   0.951
17007W        W90075  41.726  10.308   1.295
17008W        W90076   6.460  15.288   0.284
17009W        W90077  28.230   7.126  14.391
17010W        W90078  44.045  37.937  12.597
17011W        W90079  17.322  36.095   0.334
17012W        W90080  42.253  20.045   0.902
17013W        W90081  12.084  43.738   2.336
17014W        W90082  26.660  31.588   2.461
17015W        W90083  17.544  10.078  12.480
17016W        W90084  10.204  29.331   4.560
17017W        W90085  42.010  37.867   2.841
17018W        W90086  26.413  17.033  14.298
17019W        W90087  41.127  41.463  12.099
17020W        W90088  37.323  19.531   3.644
17021W        W90089  18.742  36.096   0.690
17022W        W90090  21.811  36.827  14.527
17023W        W90091   5.708  10.761   4.643
17024W        W90092  34.076  30.063  13.810
17025W        W90093  12.085  26.172  14.771
17026W        W90094  19.068   4.380  14.565
17027W        W90095   7.338   7.234   3.576
17028W        W90096  23.527  19.260   1.323
17029W        W90097  28.897  22.686  14.875
17030W        W90098  21.970  43.984  13.606
17031W        W90099  19.744  27.302   4.162
17032W        W90100  35.038  43.128  10.642
17033W        W90101   7.298   2.352   3.251
17034W        W90102  29.415  34.909  14.379
17035W        W90103   9.567   3.276   4.070
17036W        W90104  38.315  12.084   1.727
17037W        W90105  29.694  31.495  12.560
17038W        W90106  30.487  31.890   4.793
17039W        W90107   2.857   1.269  13.478
17040W        W90108  39.517  24.786  11.567
17041W        W90109  11.279   6.802  11.625
17042W        W90110  24.710  42.466   1.421
17043W        W90111   4.848  42.877   3.655
17044W        W90112   0.394  36.980   4.080
17045W        W90113  31.830  42.916   3.530
17046W        W90114  10.302  44.379  11.500
17047W        W90115  18.849  22.134   4.921
17048W        W90116   4.695  32.540  12.663
17049W        W90117  18.889  17.224   2.344
17050W        W90118  40.752  15.556  13.057
17051W        W90119  12.629  38.814   1.811
17052W        W90120  17.605  25.154  14.063
17053W        W90121  23.153  34.273   3.364
17054W        W90122  42.619  25.704  14.285
17055W        W90123  41.285  25.403  11.030
17056W        W90124  29.384  33.365   3.797
17057W        W90125   9.835   3.244  13.497
17058W        W90126   4.529  24.586  12.841
17059W        W90127  37.528  39.522   2.724
17060W        W90128  25.943  39.549   1.166
17061W        W90129  21.507  11.852   0.321
17062W        W90130  31.427  17.057   1.660
17063W        W90131   5.867   3.279   4.838
17064W        W90132  19.642   8.807   0.993
17065W        W90133  38.409  35.634   1.950
17066W        W90134   9.492  17.584   1.979
17067W        W90135  12.093   5.319   0.426
17068W        W90136  19.935  36.004   1.830
17069W        W90137  24.178  24.758   1.335
17070W        W90138  30.658   1.971   0.260
17071W        W90139  21.150  27.942  11.126
17072W        W90140  28.469  43.882  10.963
17073W        W90141  30.934  36.076  12.928
17074W        W90142  38.975  44.535  11.126
17075W        W90143   6.949  31.559  12.639
17076W        W90144  10.249  12.824  11.556
17077W        W90145  28.048   6.847   3.005
17078W        W90146  12.816   3.912   4.748
17079W        W90147  35.544   4.821  11.098
17080W        W90148  26.116  27.774   0.054
17081W        W90149  34.579  28.315   0.713
17082W        W90150  36.611  18.839  13.331
17083W        W90151   2.696  41.955  12.986
17084W        W90152  43.509  12.879  10.691
17085W        W90153  29.026   8.142  13.912
17086W        W90154  40.228   5.630  13.927
17087W        W90155  24.489  27.419   0.848
17088W        W90156  42.402  36.878   4.026
17089W        W90157   8.622  40.290  11.285
17090W        W90158  31.799  43.760   0.934
17091W        W90159   8.829  33.399  11.600
17092W        W90160  13.369  37.918  14.520
17093W        W90161  19.268  28.664   1.716
17094W        W90162   5.447   5.945   2.613
17095W        W90163   2.985  35.137   1.657
17096W        W90164  20.365  23.601   0.174
17097W        W90165  42.861  39.151  12.077
17098W        W90166  40.441   6.121  10.548
17099W        W90167  32.443   0.963  12.870
17100W        W90168  41.785  40.844  12.027
17101W        W90169  29.083  28.401   0.977
17102W        W90170   0.390  42.375  12.155
17103W        W90171  41.066  14.622   2.098
17104W        W90172  27.505  35.080   1.196
17105W        W90173  16.433  35.362  13.651
17106W        W90174  12.040  10.695  12.246
17107W        W90175   9.947  16.768   5.480
17108W        W90176  20.526  33.680   0.729
17109W        W90177  34.475  12.082  10.623
17110W        W90178  38.263  22.764  14.555
17111W        W90179   2.877  21.368  11.925
17112W        W90180  20.658  11.433   4.721
17113W        W90181  29.110  41.307   4.154
17114W        W90182   4.749  32.344  10.068
17115W        W90183  40.106   0.351  14.920
17116W        W90184   0.887  36.296   0.793
17117W        W90185  13.728   6.122   3.504
17118W        W90186   1.001  17.452  12.848
17119W        W90187  20.264  31.796  12.479
17120W        W90188  28.386  14.351  11.116
17121W        W90189   2.271   5.325  13.248
17122W        W90190  42.340  31.781   3.511
17123W        W90191   2.317  17.601  12.175
17124W        W90192   2.330  13.407  11.137
17125W        W90193  26.286  15.056   2.847
17126W        W90194   8.697   9.350  10.505
17127W        W90195  42.991  36.897   3.247
17128W        W90196  31.417  20.614  10.765
17129W        W90197  42.499  11.181  12.248
17130W        W90198  21.649   0.716   5.046
17131W        W90199  19.082  34.470   3.157
17132W        W90200  22.984  42.868   1.363
17133W        W90201  25.280   9.887  11.046
17134W        W90202  22.052  40.194   0.936
17135W        W90203  33.090  17.481  13.960
17136W        W90204  39.860  31.551   0.025
17137W        W90205  42.416  15.784   0.892
17138W        W90206  32.994  14.585   1.783
17139W        W90207  23.537   0.431  10.660
17140W        W90208  17.752  31.014  13.884
17141W        W90209  15.670  38.713  13.421
17142W        W90210  25.698  35.941   0.953
17143W        W90211  27.391   6.824  12.529
17144W        W90212   2.802  27.336  14.298
17145W        W90213  34.312  13.819  10.749
17146W        W90214   0.572  29.705  14.290
17147W        W90215   7.889  29.160  12.838
17148W        W90216  13.757   2.635   4.124
17149W        W90217  10.668  10.662   4.162
17150W        W90218  29.116  28.356  11.038
17151W        W90219  19.159  28.888   2.201
17152W        W90220  31.937  26.427   1.310
17153W        W90221  35.350  32.124  14.050
17154W        W90222  23.080  31.560   3.867
17155W        W90223  37.506  12.465   0.432
17156W        W90224  34.894  28.550  12.905
17157W        W90225   7.401   1.343  13.900
17158W        W90226   5.229  20.285   4.077
17159W        W90227  41.074   5.590  11.388
17160W        W90228   1.017   2.911   4.260
17161W        W90229   1.720   9.182  12.323
17162W        W90230   7.853  37.300   0.557
17163W        W90231  34.648   8.465   1.653
17164W        W90232   0.846  38.140  12.962
17165W        W90233  23.563  10.232  12.066
17166W        W90234  18.359  42.686  10.732
17167W        W90235   9.377  29.125   3.449
17168W        W90236  43.260   2.401  12.671
17169W        W90237  27.429  30.922  11.976
17170W        W90238   2.971  21.114   1.287
17171W        W90239  26.686  15.138  11.844
17172W        W90240  16.275  35.388  11.516
17173W        W90241  24.912   0.536   0.348
17174W        W90242  41.960  15.377  13.319
17175W        W90243  37.178   0.202  11.972
17176W        W90244   6.387  18.370  10.984
17177W        W90245  10.669   1.319   0.723
17178W        W90246  17.110  14.715  13.001
17179W        W90247   2.461  33.971   1.871
17180W        W90248  19.165  42.022   2.214
17181W        W90249  39.560  42.147  14.281
17182W        W90250   9.759  22.996  12.144
17183W        W90251  18.412  19.479  11.175
17184W        W90252   9.094  21.657  11.557
17185W        W90253  35.549   0.819  11.116
17186W        W90254  16.582  43.489  11.574
17187W        W90255  24.090  39.058   4.589
17188W        W90256   3.453  27.650  14.465
17189W        W90257  35.754  17.119  10.728
17190W        W90258  27.194   0.301   1.835
17191W        W90259  10.229  36.355   0.945
17192W        W90260  24.213  32.020   3.091
17193W        W90261  25.145  16.783   2.355
17194W        W90262  11.287  41.003  13.841
17195W        W90263  11.641  37.003  13.617
17196W        W90264  34.959  37.646   5.004
17197W        W90265  38.764   3.504   3.650
17198W        W90266  13.832  19.524  11.454
17199W        W90267  14.253  13.062   2.256
17200W        W90268  32.053  26.501   1.804
17201W        W90269  17.018   6.589   4.202
17202W        W90270  31.897  41.361   2.199
17203W        W90271   0.979  35.326  10.749
17204W        W90272   9.550   5.885  10.845
17205W        W90273  19.514   0.302  12.884
17206W        W90274  25.293  41.989   1.402
17207W        W90275   1.890  36.302  11.002
17208W        W90276   6.745  20.704   0.886
17209W        W90277  32.482  20.615   2.499
17210W        W90278  13.545  18.790  12.982
17211W        W90279  28.215  36.178   4.102
17212W        W90280  38.271   0.055  12.928
17213W        W90281  27.211  27.440   4.110
17214W        W90282   2.254  36.339  12.657
17215W        W90283   8.878  37.961   0.510
17216W        W90284  35.932  31.043   4.713
17217W        W90285  24.584  24.234  10.733
17218W        W90286  23.442  35.180   2.792
17219W        W90287   2.359  18.113   1.973
17220W        W90288  14.645  15.814  12.644
17221W        W90289  17.873  15.131  13.031
17222W        W90290  39.015  42.802   3.173
17223W        W90291  41.745  26.617   1.926
17224W        W90292  26.183  29.098  12.095
17225W        W90293   1.216  19.292   3.555
17226W        W90294   9.863  37.836   0.199
17227W        W90295  38.961  24.495  12.513
17228W        W90296  17.443  28.077   1.429
17229W        W90297  15.870  40.850   3.717
17230W        W90298  15.865  38.821   0.905
17231W        W90299  29.903  16.633   4.106
17232W        W90300   0.666  10.797  12.501
17233W        W90301  36.755  43.436   4.676
17234W        W90302   7.807  16.633  13.943
17235W        W90303  30.167  12.684  13.362
17236W        W90304   0.963  44.275   3.164
17237W        W90305  43.838  12.145   4.416
17238W        W90306  22.578  23.744  11.705
17239W        W90307  28.481  11.523   1.007
17240W        W90308  25.120  41.686   5.112
17241W        W90309  16.795  31.136  10.761
17242W        W90310  13.810  22.974  13.862
17243W        W90311  30.997  43.295  14.026
17244W        W90312  36.471  19.539  10.815
17245W        W90313  36.637  15.492  12.444
17246W        W90314  40.573   8.417  11.020
17247W        W90315  29.557  43.429   4.122
17248W        W90316   4.127  10.323   2.330
17249W        W90317  15.318   1.500   0.657
17250W        W90318  18.251  25.092  11.628
17251W        W90319  16.283  43.159   2.812
17252W        W90320  35.409   1.851   0.895
17253W        W90321  14.073  10.838  11.669
17254W        W90322   3.952  14.036   3.633
17255W        W90323  32.938   4.475   3.683
17256W        W90324   3.641   3.394  13.837
17257W        W90325  10.376  14.874   3.864
17258W        W90326  14.259  22.961  11.975
17259W        W90327  31.816  31.273   1.467
17260W        W90328  11.423  29.395  13.464
17261W        W90329  24.511  43.698   1.395
17262W        W90330  19.388  24.710   3.275
17263W        W90331  30.076  24.762  13.420
17264W        W90332  22.930   8.821  13.888
17265W        W90333  41.023  42.347   1.916
17266W        W90334  17.821  34.348  11.161
17267W        W90335  20.836  25.139   0.397
17268W        W90336  20.347  26.414  12.623
17269W        W90337  35.133  33.418  10.237
17270W        W90338  16.119  29.077   3.528
17271W        W90339  30.614  24.022  10.528
17272W        W90340   7.934  30.412   5.229
17273W        W90341   3.805  34.283   2.385
17274W        W90342  39.328   2.095  12.395
17275W        W90343  10.513   2.359  10.869
17276W        W90344  29.964  26.595  13.041
17277W        W90345  36.460  25.923  14.612
17278W        W90346  37.412  13.844  11.082
17279W        W90347  42.012  34.016   4.539
17280W        W90348   4.978  24.658   4.020
17281W        W90349  10.327   7.948   1.773
17282W        W90350   2.734  19.395  12.216
17283W        W90351  43.776  13.166   0.944
17284W        W90352   1.245  19.028  12.014
17285W        W90353  29.346   0.918  11.589
17286W        W90354   3.827  29.991  14.320
17287W        W90355  12.612  37.780   1.753
17288W        W90356  31.556  30.370   1.413
17289W        W90357  37.296  29.596   1.192
17290W        W90358  14.551  35.340   0.644
17291W        W90359  41.789  16.003   1.431
17292W        W90360  16.512  14.334   1.937
17293W        W90361  44.517  15.871   4.285
17294W        W90362  44.802  41.815   0.686
17295W        W90363   0.903  31.557   1.592
17296W        W90364   4.280   2.841  14.785
17297W        W90365   4.837  17.147   0.692
17298W        W90366  34.942  32.390  14.419
17299W        W90367   6.352  21.318   1.337
17300W        W90368  26.992  26.993   4.278
17301W        W90369  15.090  38.804   0.610
17302W        W90370  14.328  15.780   4.651
17303W        W90371  42.699   4.752   2.644
17304W        W90372  34.700  37.035   4.249
17305W        W90373  44.407   6.416   3.274
17306W        W90374   4.025  43.441   0.363
17307W        W90375  33.503  35.681   0.756
17308W        W90376  33.486  12.509   4.726
17309W        W90377  10.593  18.318   2.440
17310W        W90378  29.979   7.638   4.188
17311W        W90379  19.471  35.968  13.853
17312W        W90380  36.912  30.526  11.940
17313W        W90381  36.391   3.885   3.553
17314W        W90382  26.442   4.810   0.885
17315W        W90383  38.829  38.505   0.966
17316W        W90384   2.339  21.356   3.310
17317W        W90385  23.413  38.800   1.855
17318W        W90386  16.654   9.672  12.823
17319W        W90387  39.324  44.436   2.360
17320W        W90388  44.997  15.086   3.084
17321W        W90389   1.062  38.437   4.041
17322W        W90390  18.835  43.465   2.681
17323W        W90391  13.886  21.252  13.512
17324W        W90392  40.822  28.636  12.023
17325W        W90393   8.798   5.991   0.331
17326W        W90394  37.806  30.047   0.435
17327W        W90395   4.903  25.694  14.375
17328W        W90396  42.332  41.900  13.537
17329W        W90397  24.022  27.516  14.886
17330W        W90398  21.417  20.025   1.792
17331W        W90399   3.395  44.300  12.876
17332W        W90400  36.932   9.354  12.216
17333W        W90401   6.215  37.412  12.063
17334W        W90402  28.247   8.587  11.531
17335W        W90403  15.289  38.888   4.105
17336W        W90404  24.225  14.698   3.819
17337W        W90405   8.852  20.959   0.846
17338W        W90406  42.348  11.799  12.899
17339W        W90407  15.399   1.525  12.004
17340W        W90408  15.623  35.033   1.981
17341W        W90409  40.875  37.764  13.733
17342W        W90410  18.144  30.639  13.737
17343W        W90411  38.017  43.748   2.845
17344W        W90412  12.853  16.143   0.723
17345W        W90413   7.937  24.047  12.449
17346W        W90414  36.689  37.834   2.512
17347W        W90415  15.320  23.757  14.387
17348W        W90416  27.706  12.167  13.316
17349W        W90417  34.064  28.737   2.952
17350W        W90418  43.431  14.827   0.185
17351W        W90419   9.697  17.214   2.424
17352W        W90420  13.149  24.635   2.316
17353W        W90421   2.158   9.246   4.333
17354W        W90422   5.185  28.072  12.584
17355W        W90423  36.974  29.656   4.751
17356W        W90424  19.825  25.303  11.180
17357W        W90425   4.759  34.102  13.949
17358W        W90426  25.515   2.088  10.916
17359W        W90427  38.156  21.311  10.303
17360W        W90428  40.534  14.706  12.386
17361W        W90429  18.350   3.417   0.335
17362W        W90430  21.032  16.163  13.423
17363W        W90431   1.834  20.010  13.164
17364W        W90432  28.375  30.176  12.436
17365W        W90433   5.414  21.077   0.813
17366W        W90434  28.415  18.342  12.052
17367W        W90435  38.656  20.130   0.284
17368W        W90436  40.397   0.300  13.328
17369W        W90437   1.220  22.515   2.650
17370W        W90438  40.027  22.239  12.877
17371W        W90439  31.180  14.267  12.395
17372W        W90440  43.001  44.309   0.931
17373W        W90441  14.752  10.129  13.072
17374W        W90442  28.863   9.862  14.615
17375W        W90443  17.992   4.758   4.331
17376W        W90444  20.034  41.917  13.693
17377W        W90445   6.170  34.975   0.403
17378W        W90446  17.323  32.114   0.901
17379W        W90447  15.224   4.484  12.530
17380W        W90448  42.169  35.022  14.014
17381W        W90449  44.435   9.012   1.192
17382W        W90450  24.255  35.250  12.821
17383W        W90451   5.575   3.362   0.985
17384W        W90452  29.036  24.430   0.108
17385W        W90453  44.607  33.860  14.721
17386W        W90454  13.175  13.774  11.049
17387W        W90455  12.246  30.586   2.290
17388W        W90456  42.504   8.128  13.943
17389W        W90457  27.836  33.137   1.861
17390W        W90458  14.118  20.185  14.749
17391W        W90459  14.061  10.025   1.022
17392W        W90460  37.316   4.330  12.241
17393W        W90461  33.990   8.953   2.145
17394W        W90462  32.905  17.578   2.803
17395W        W90463  40.388  30.356   3.157
17396W        W90464  41.972  12.391   1.366
17397W        W90465   1.922   2.378   0.625
17398W        W90466  31.038  12.662   0.322
17399W        W90467   6.041   2.861  10.692
17400W        W90468  31.593  35.525  14.263
17401W        W90469  10.563  19.787   2.367
17402W        W90470  23.109  21.006  14.292
17403W        W90471  18.347  25.139   4.606
17404W        W90472  11.956  27.702  13.033
17405W        W90473  38.417  21.593   1.735
17406W        W90474  24.532  19.234  14.858
17407W        W90475   2.471   5.312   3.196
17408W        W90476  21.457  13.097  13.418
17409W        W90477  32.970   3.497  11.835
17410W        W90478  13.154  21.612  14.674
17411W        W90479  25.585  29.245   1.835
17412W        W90480  14.822  29.052  14.890
17413W        W90481  24.192   1.775  10.520
17414W        W90482  31.824   4.836  12.130
17415W        W90483  23.205  40.406   1.280
17416W        W90484   0.994  21.672  10.624
17417W        W90485  39.968  23.628  12.247
17418W        W90486  13.263  32.214  13.570
17419W        W90487  27.882  19.982  10.702
17420W        W90488  20.582   1.612  12.190
17421W        W90489  40.076  12.436   3.170
17422W        W90490  17.186  34.077  11.559
17423W        W90491  21.097  41.401  11.067
17424W        W90492   8.897  10.431  11.153
17425W        W90493  40.548  23.953   0.221
17426W        W90494  33.722  24.519   3.440
17427W        W90495  24.666  10.387  14.591
17428W        W90496  35.290   1.189   3.059
17429W        W90497  27.818  24.042   4.928
17430W        W90498  37.720   7.894   1.776
17431W        W90499   0.384  27.156   2.645
17432W        W90500  22.565   4.889   0.199
17433W        W90501   4.282   5.457   1.720
17434W        W90502  14.842  31.694   2.719
17435W        W90503   8.942  28.083  13.307
17436W        W90504   9.640  42.007   0.866
17437W        W90505  13.883   9.882   4.949
17438W        W90506  41.720  33.058   3.053
17439W        W90507  20.089  31.841   1.969
17440W        W90508  15.391   6.156   3.553
17441W        W90509  13.102   5.871   3.238
17442W        W90510  40.948   2.495   2.655
17443W        W90511  31.509  29.593   0.859
17444W        W90512   1.952  25.068  11.896
17445W        W90513  12.851  39.565  14.579
17446W        W90514  16.090  21.765   3.603
17447W        W90515  13.883  14.041  14.964
17448W        W90516  38.049  31.714  13.003
17449W        W90517   4.897  11.381   0.861
17450W        W90518  13.728  26.167   0.485
17451W        W90519  29.562   8.867   0.901
17452W        W90520  40.562  18.707  12.467
17453W        W90521   4.012   7.497  13.942
17454W        W90522  37.619  17.789  14.327
17455W        W90523  14.865  24.490   2.746
17456W        W90524   7.025  10.800  13.374
17457W        W90525  11.781   2.828   4.062
17458W        W90526  34.692   2.936  14.489
17459W        W90527  20.214  44.227   1.190
17460W        W90528   4.174  35.799   0.416
17461W        W90529   6.995  38.096   0.849
17462W        W90530   1.354  10.851  12.036
17463W        W90531   1.974  23.739  12.349
17464W        W90532  30.685  44.494   2.679
17465W        W90533  39.089  43.301   3.272
17466W        W90534  11.588  31.846   4.171
17467W        W90535  28.035   0.311   1.366
17468W        W90536  41.569  18.674  11.103
17469W        W90537  22.249  31.978  11.590
17470W        W90538  38.310  24.565   0.893
17471W        W90539  31.014   0.953   0.769
17472W        W90540  31.192  40.663   4.188
17473W        W90541   8.843  30.402  13.391
17474W        W90542  34.863  23.706   2.110
17475W        W90543  28.061   9.823  12.897
17476W        W90544  43.688  25.971  14.102
17477W        W90545  29.405  20.602   1.802
17478W        W90546  15.716  28.819   3.693
17479W        W90547  43.423  12.957  11.675
17480W        W90548  22.437   3.535   1.918
17481W        W90549  18.296  13.371  11.885
17482W        W90550   4.062  34.914   3.181
17483W        W90551  31.092  30.057  14.401
17484W        W90552  12.333  18.265   2.637
17485W        W90553  14.791  10.803   0.251
17486W        W90554  44.477  13.618  12.021
17487W        W90555  39.793  42.240   1.798
17488W        W90556  16.685  21.954   2.369
17489W        W90557   9.401  23.696   1.756
17490W        W90558  38.449  24.955   1.724
17491W        W90559  27.796  14.106   1.580
17492W        W90560  37.180  20.007  13.353
17493W        W90561  18.220  43.867   0.439
17494W        W90562   5.872   6.789   2.691
17495W        W90563   2.288  16.063   1.870
17496W        W90564   1.325  10.659  14.371
17497W        W90565   0.477   7.351   0.786
17498W        W90566   0.397   2.368  13.815
17499W        W90567  19.510  17.144   0.775
17500W        W90568  38.422  28.647  12.046
17501W        W90569  34.927   2.754   1.694
17502W        W90570  29.496  38.764   0.935
17503W        W90571  44.259  12.940   1.730
17504W        W90572  11.132  30.073  12.284
17505W        W90573   2.814  21.882  12.039
17506W        W90574  24.787  30.916   0.393
17507W        W90575   5.822  12.395   0.908
17508W        W90576  26.587  38.419   0.301
17509W        W90577   7.213  44.856   1.291
17510W        W90578  41.126   5.747  14.023
17511W        W90579   2.772  29.330   0.696
17512W        W90580   8.519  15.906  12.560
17513W        W90581   7.444  23.950  11.175
17514W        W90582  33.542  41.945   1.873
17515W        W90583  29.587  22.514   3.869
17516W        W90584   6.421  13.158  14.200
17517W        W90585  33.548  12.808  12.122
17518W        W90586  34.105   9.775  12.151
17519W        W90587  28.696  38.454  14.105
17520W        W90588  29.516  40.301  13.985
17521W        W90589  36.016  23.042  12.046
17522W        W90590  39.414   6.720   4.487
17523W        W90591  15.356  41.236  13.219
17524W        W90592  23.590  40.988  14.426
17525W        W90593   9.786   8.728   4.532
17526W        W90594  11.727  19.972   3.182
17527W        W90595  26.611   2.773  11.419
17528W        W90596  18.786  19.664   2.438
17529W        W90597  24.013  32.618   3.471
17530W        W90598   2.776  27.431   0.713
17531W        W90599  16.784   1.392  12.431
17532W        W90600  14.553  30.495   4.609
17533W        W90601  44.874  38.325   1.867
17534W        W90602  37.805  12.716  12.074
17535W        W90603  23.885  32.668   0.323
17536W        W90604   7.797  10.761   0.344
17537W        W90605  22.221  23.613   0.432
17538W        W90606  38.591  17.094   1.492
17539W        W90607  19.166  21.686   2.279
17540W        W90608  15.806  41.853   3.675
17541W        W90609   1.432  24.058   4.107
17542W        W90610  12.830  25.934   4.868
17543W        W90611  10.937  16.077  14.905
17544W        W90612  40.341  15.873   0.438
17545W        W90613   4.010   5.688  12.017
17546W        W90614  17.251  26.651  11.446
17547W        W90615  42.740   7.746   4.193
17548W        W90616  10.703  13.196  13.299
17549W        W90617   9.351  18.292   4.166
17550W        W90618  40.833  29.569   1.712
17551W        W90619   4.160  35.871   1.974
17552W        W90620  17.658  40.997   3.350
17553W        W90621  34.258   5.706   0.304
17554W        W90622  23.355  40.514   5.091
17555W        W90623  29.544  21.756  14.212
17556W        W90624   1.947  18.022  12.483
17557W        W90625  22.568  16.430  10.713
17558W        W90626  15.835   8.746  11.099
17559W        W90627  42.509   6.197  12.002
17560W        W90628  44.402  18.086  14.027
17561W        W90629  23.165  41.031   0.813
17562W        W90630  24.626  22.138   4.656
17563W        W90631  29.439  13.018   3.763
17564W        W90632  14.662   2.971   1.737
17565W        W90633  17.089   5.765   2.137
17566W        W90634   5.790  25.562   4.615
17567W        W90635  19.433  24.068  13.768
17568W        W90636  40.834  11.194   3.733
17569W        W90637   9.269  34.298   4.540
17570W        W90638  23.284  16.036  11.787
17571W        W90639  34.222   2.717   1.309
17572W        W90640  15.395   4.289  12.106
17573W        W90641  35.622  26.502  13.816
17574W        W90642   2.464  11.842  12.134
17575W        W90643  29.419  40.073   3.678
17576W        W90644  18.370  26.565   1.755
17577W        W90645  37.465  32.074   0.201
17578W        W90646  16.717  43.978  12.321
17579W        W90647   8.871  34.581   3.745
17580W        W90648  13.870  22.120   4.714
17581W        W90649  43.522  19.918  13.772
17582W        W90650   0.463  42.823  10.529
17583W        W90651  15.637   6.557  13.329
17584W        W90652  24.517   5.009  10.625
17585W        W90653  22.888  44.752   0.963
17586W        W90654   3.901  24.365   2.386
17587W        W90655  38.608  23.540  13.496
17588W        W90656  18.720   9.324   2.843
17589W        W90657  23.442   4.764   0.929
17590W        W90658  19.738   2.291  13.026
17591W        W90659   4.835  30.163  12.452
17592W        W90660  22.560  28.115   1.722
17593W        W90661  16.725   3.350  11.174
17594W        W90662  28.078  15.284  10.578
17595W        W90663  18.741  37.107   3.636
17596W        W90664  25.046  32.615  13.656
17597W        W90665   6.145  34.948  10.661
17598W        W90666  41.379   0.829   5.343
17599W        W90667  32.454  31.123  11.599
17600W        W90668  31.922  40.226   2.771
17601W        W90669  39.399  38.787   2.407
17602W        W90670  35.909  43.512  11.824
17603W        W90671  13.574  24.593   0.216
17604W        W90672   3.867  30.936  13.874
17605W        W90673  14.760  19.894   4.458
17606W        W90674  18.767  39.962  13.496
17607W        W90675  28.292  19.744  14.756
17608W        W90676  37.444  11.278   1.055
17609W        W90677  38.252  41.539   2.673
17610W        W90678  15.720  43.025   1.740
17611W        W90679  36.787  17.420   4.111
17612W        W90680  17.762  18.226   1.886
17613W        W90681  10.814   4.172   3.824
17614W        W90682  13.582  23.510  11.488
17615W        W90683  25.078  28.116   2.238
17616W        W90684   4.376   4.764   2.192
17617W        W90685   7.425  25.054   0.947
17618W        W90686   3.503  30.770   4.229
17619W        W90687  31.542  10.886   4.640
17620W        W90688  10.685  13.880  13.899
17621W        W90689   7.378  44.002  12.119
17622W        W90690  12.825  22.567   3.733
17623W        W90691  32.414  16.252  11.478
17624W        W90692  11.123  28.016   0.339
17625W        W90693  24.568  44.054  13.805
17626W        W90694  44.850  32.513  13.282
17627W        W90695  36.194   4.803  14.245
17628W        W90696  31.558  29.922  10.628
17629W        W90697  11.142  31.135   2.615
17630W        W90698  30.822  14.324  13.023
17631W        W90699  14.788  39.479   4.604
17632W        W90700  27.417  12.468   0.044
17633W        W90701  34.356  31.987  14.934
17634W        W90702  38.575   3.990   1.681
17635W        W90703  28.641  27.450  12.072
17636W        W90704  18.313  12.217   3.661
17637W        W90705   4.442  38.019  11.109
17638W        W90706  32.930  16.104  13.609
17639W        W90707  32.782  22.248  12.803
17640W        W90708  38.942   1.933   3.594
17641W        W90709  32.061   2.429   4.951
17642W        W90710  36.618  34.262   5.193
17643W        W90711  33.164  40.382   5.265
17644W        W90712  40.448  26.213   3.766
17645W        W90713   9.175  43.151  10.186
17646W        W90714  32.547   2.930   3.218
17647W        W90715  40.851  31.460   3.221
17648W        W90716   1.852  17.111  12.651
17649W        W90717  38.602   9.430  12.484
17650W        W90718  15.319  40.277  12.978
17651W        W90719  43.930  30.497   4.138
17652W        W90720  27.862  42.136   1.777
17653W        W90721   9.234   3.777   0.276
17654W        W90722  17.646  36.586  10.570
17655W        W90723  42.792  17.812   4.146
17656W        W90724   0.773   2.421   2.932
17657W        W90725  10.196   0.922  12.046
17658W        W90726   5.904   7.140  12.808
17659W        W90727  16.281  29.081   1.477
17660W        W90728  24.605  44.944  14.789
17661W        W90729  31.915  44.708   3.146
17662W        W90730  43.232  31.355  12.492
17663W        W90731   9.744  12.724  11.555
17664W        W90732  26.382   0.714  12.882
17665W        W90733   1.893  18.702  13.006
17666W        W90734  43.787  30.078  13.424
17667W        W90735   3.997   2.386  14.824
17668W        W90736  17.873  24.413  11.114
17669W        W90737  42.011  29.368   4.556
17670W        W90738  26.005  31.988  14.576
17671W        W90739  23.124  18.522  12.925
17672W        W90740  12.605   1.386  13.824
17673W        W90741  42.856  37.999  11.193
17674W        W90742  36.387  26.412  13.820
17675W        W90743  17.212  27.626   0.027
17676W        W90744  15.168  40.257   1.785
17677W        W90745   5.651  13.681  13.809
17678W        W90746  30.936  13.780   1.920
17679W        W90747  10.218   2.869  13.056
17680W        W90748   7.999  26.696  12.889
17681W        W90749   7.333  23.717   0.256
17682W        W90750  26.009  18.359  13.520
17683W        W90751  15.863  16.510  12.528
17684W        W90752  26.530  35.521   0.945
17685W        W90753  40.434   7.881  14.512
17686W        W90754  35.586  24.400   4.047
17687W        W90755  37.094  10.923  13.634
17688W        W90756  10.519  41.338   3.359
17689W        W90757  32.279  39.472   2.575
17690W        W90758  24.202  16.606   5.030
17691W        W90759  17.858  39.469  13.855
17692W        W90760  42.890   3.069  14.283
17693W        W90761   2.023   0.993   4.165
17694W        W90762  44.244  18.525   3.683
17695W        W90763  35.526  22.102  13.002
17696W        W90764  14.868   2.478  11.159
17697W        W90765  22.943  34.526  13.356
17698W        W90766  16.090   5.803   2.309
17699W        W90767  15.604   2.357  14.721
17700W        W90768  18.336   7.154  12.033
17701W        W90769   5.557  20.921  13.805
17702W        W90770  15.110  41.324   2.668
17703W        W90771  23.475  40.406  10.674
17704W        W90772   2.210  24.187  10.545
17705W        W90773   6.247  34.705   2.371
17706W        W90774   5.447  16.793  11.206
17707W        W90775  15.980   2.384  11.062
17708W        W90776  41.616   2.931   3.688
17709W        W90777  22.478  32.418   4.058
17710W        W90778   1.359  18.289  10.693
17711W        W90779  21.808  13.105   4.312
17712W        W90780   5.156  24.145   2.734
17713W        W90781  15.875  23.239  13.840
17714W        W90782  27.651  15.594   4.221
17715W        W90783  33.861  25.183  13.966
17716W        W90784   8.356  29.144   0.238
17717W        W90785  36.787  42.434   2.165
17718W        W90786   7.314  31.165  10.653
17719W        W90787  26.429  20.084  14.917
17720W        W90788  32.682  27.977  12.072
17721W        W90789  42.748  42.707   4.212
17722W        W90790  38.471  32.022  11.649
17723W        W90791  40.581  44.836   1.980
17724W        W90792  40.425  39.864   4.318
17725W        W90793   2.439   1.038  13.274
17726W        W90794  43.272  15.250   3.201
17727W        W90795  20.904  20.033   1.835
17728W        W90796   5.426  29.591  14.542
17729W        W90797   7.176   4.732   3.819
17730W        W90798  21.168  16.777  13.107
17731W        W90799   1.490  37.330  12.945
17732W        W90800   7.398   1.454   0.512
17733W        W90801  18.820  29.502  14.476
17734W        W90802   4.173  44.880  13.489
17735W        W90803  27.041  22.545  10.216
17736W        W90804   5.425   8.737   2.104
17737W        W90805  38.589  24.977   0.915
17738W        W90806  33.997  15.090  12.213
17739W        W90807  27.139   9.027  12.051
17740W        W90808   4.718  20.694  11.011
17741W        W90809  41.597  35.217  11.172
17742W        W90810  35.702  35.797   0.377
17743W        W90811  32.793  23.890   1.338
17744W        W90812  40.336  29.800  11.459
17745W        W90813  42.831   1.581   2.792
17746W        W90814  39.625   1.788  12.072
17747W        W90815  35.411  32.613   0.816
17748W        W90816   7.864  11.688   4.973
17749W        W90817  15.648  39.220  13.511
17750W        W90818  44.346  40.357   4.501
17751W        W90819  39.032  35.735   0.792
17752W        W90820  17.062  34.647   2.736
17753W        W90821   0.262  18.088   3.392
17754W        W90822   8.411  28.034   2.878
17755W        W90823  28.861  31.884   5.016
17756W        W90824  24.575  35.290  14.854
17757W        W90825  28.960   9.105  11.445
17758W        W90826  22.778  33.684   1.282
17759W        W90827  33.868  22.452  11.499
17760W        W90828  37.448  31.554   0.051
17761W        W90829  26.863  43.086   1.859
17762W        W90830  31.642  36.974   0.242
17763W        W90831  22.270  44.646   4.091
17764W        W90832   8.972   6.805  11.071
17765W        W90833  12.467  18.208   3.130
17766W        W90834   5.658  19.843   2.775
17767W        W90835  16.159   6.756  13.362
17768W        W90836  40.460  44.827  13.502
17769W        W90837  41.052  27.226  10.713
17770W        W90838  17.526  37.683   1.312
17771W        W90839  34.584  22.035  12.475
17772W        W90840  27.338  26.477   3.103
17773W        W90841  21.598   6.199   1.136
17774W        W90842  23.827  23.611   1.199
17775W        W90843  14.636  20.321   2.516
17776W        W90844  20.654  37.595  12.153
17777W        W90845  28.495  30.448  14.583
17778W        W90846  28.962   5.845   2.664
17779W        W90847   9.293  33.258  10.378
17780W        W90848  37.796  32.026  10.607
17781W        W90849  10.745   4.213   1.714
17782W        W90850  12.018   8.786   3.352
17783W        W90851  21.534  18.456   3.637
17784W        W90852  17.834  20.154  12.088
17785W        W90853  34.931  24.074   3.914
17786W        W90854  24.438   2.439   2.768
17787W        W90855  35.910   9.343  12.041
17788W        W90856  14.759  31.131  11.706
17789W        W90857  17.896  16.069   3.716
17790W        W90858  23.155  28.746  12.943
17791W        W90859  30.558  44.006  10.653
17792W        W90860  41.911   3.758  13.486
17793W        W90861  44.828  19.165  12.537
17794W        W90862  16.986   2.853  13.036
17795W        W90863  21.146  14.159   1.298
17796W        W90864   4.090  39.436  11.678
17797W        W90865  37.205  32.523  14.868
17798W        W90866  10.741   9.173   3.180
17799W        W90867  14.398   7.327   1.866
17800W        W90868   0.231   6.214   1.882
17801W        W90869  26.134   3.726   0.956
17802W        W90870   1.130  35.973  11.888
17803W        W90871  36.080  24.092  13.563
17804W        W90872  20.723  27.732   0.389
17805W        W90873  12.611  16.523  12.427
17806W        W90874  15.791  19.301  13.887
17807W        W90875   2.022   4.827  13.921
17808W        W90876  13.080  39.042  12.799
17809W        W90877   9.607  32.521  11.196
17810W        W90878  25.619   6.266   3.589
17811W        W90879  13.720  18.128  13.608
17812W        W90880   8.524  32.775   0.912
17813W        W90881   1.571  29.393   3.238
17814W        W90882   6.809  43.269  12.003
17815W        W90883  40.877  12.694  13.498
17816W        W90884  22.696  17.690   3.742
17817W        W90885  43.456  17.123   4.112
17818W        W90886   3.968  11.969  13.219
17819W        W90887  13.057  18.658  13.040
17820W        W90888  24.069   7.184   1.880
17821W        W90889  10.412  17.547   0.903
17822W        W90890  28.547  16.996  11.607
17823W        W90891   7.540  42.366  14.094
17824W        W90892  29.483   4.828   4.730
17825W        W90893  28.152  31.630   4.290
17826W        W90894  40.396  18.498  14.455
17827W        W90895  22.367  12.675  10.174
17828W        W90896   1.876   2.349  12.814
17829W        W90897  31.472  10.084   1.743
17830W        W90898  38.359  14.743  11.228
17831W        W90899  34.093  42.168  11.600
17832W        W90900  30.671  38.181   4.204
17833W        W90901  30.050   9.859  13.944
17834W        W90902  14.547  22.994   2.665
17835W        W90903  19.283  11.626   3.781
17836W        W90904   9.884  34.534  11.907
17837W        W90905  38.707  28.988   0.332
17838W        W90906  16.370   8.936  13.460
17839W        W90907   9.746  21.719   1.622
17840W        W90908  24.071  24.572   4.205
17841W        W90909  22.442  17.803  13.402
17842W        W90910  21.214  28.935   0.134
17843W        W90911   9.089  12.776  14.227
17844W        W90912   2.026  39.059  11.595
17845W        W90913   7.308  28.571   0.446
17846W        W90914  18.810  43.914   3.292
17847W        W90915   0.376  16.990  12.599
17848W        W90916  12.412  44.953  12.891
17849W        W90917   8.592  40.567   1.913
17850W        W90918  23.993   1.142   0.496
17851W        W90919  31.677  40.840  12.423
17852W        W90920  15.366  22.453   1.762
17853W        W90921  25.481  37.392   4.560
17854W        W90922  25.698   3.261   4.069
17855W        W90923  41.555  44.134  10.414
17856W        W90924  10.382   4.411   2.357
17857W        W90925  23.508  38.007   0.313
17858W        W90926  37.178  21.617  11.902
17859W        W90927  40.489  42.517   9.837
17860W        W90928  14.635  11.540   0.732
17861W        W90929  27.184  26.226  14.889
17862W        W90930  17.225  11.300   1.532
17863W        W90931  22.858  16.688   3.743
17864W        W90932  24.662  17.107  14.290
17865W        W90933  22.668  17.837  12.580
17866W        W90934  14.756  43.483  12.448
17867W        W90935  24.082  33.347   3.543
17868W        W90936  33.608  38.399   0.787
17869W        W90937  16.298  42.263   2.204
17870W        W90938  26.240  14.645   1.681
17871W        W90939   7.869  13.568  11.947
17872W        W90940  38.569  28.105  12.992
17873W        W90941  24.135  15.120  11.657
17874W        W90942  16.089  29.094  11.539
17875W        W90943  12.222  21.226  14.776
17876W        W90944  27.262   0.080  14.569
17877W        W90945  23.197  26.644   2.947
17878W        W90946  32.451   2.545  11.938
17879W        W90947   5.824  29.114   4.216
17880W        W90948  21.004  37.793   3.692
17881W        W90949  12.505  13.482  13.482
17882W        W90950  36.930  14.701  14.493
17883W        W90951   7.726   3.832  12.830
17884W        W90952  26.002  31.027   1.239
17885W        W90953  39.436  16.646   1.783
17886W        W90954   9.538  29.658   4.092
17887W        W90955   0.802   2.585  10.966
17888W        W90956  30.507  23.858   0.386
17889W        W90957  16.835  30.051   4.165
17890W        W90958  17.316  16.546   1.751
17891W        W90959  19.582   7.555   2.338
17892W        W90960   2.345  20.966   0.495
17893W        W90961   8.745  14.132  11.675
17894W        W90962  22.120  37.329  11.209
17895W        W90963  24.194   0.186  10.459
17896W        W90964   7.518  13.918   4.944
17897W        W90965  22.237  28.103  11.969
17898W        W90966  38.379   3.284  11.607
17899W        W90967  14.632  13.544  11.671
17900W        W90968  41.378  36.114  13.997
17901W        W90969   5.969  36.254   1.724
17902W        W90970  12.468  20.999   2.787
17903W        W90971  14.834  43.189   0.271
17904W        W90972  11.372   1.954  14.871
17905W        W90973  32.333  11.424  13.698
17906W        W90974  25.625  41.589   1.459
17907W        W90975   8.099  26.115   1.390
17908W        W90976   5.221  32.491  12.574
17909W        W90977  22.889  26.349   4.227
17910W        W90978   5.898  42.742   3.275
17911W        W90979  17.445  24.255  13.023
17912W        W90980  25.570  33.793   2.131
17913W        W90981  19.017  23.600   3.611
17914W        W90982  38.002   3.457  12.595
17915W        W90983  13.373  21.018  11.579
17916W        W90984  11.733  25.700  12.110
17917W        W90985   3.295  38.744  12.676
17918W        W90986   6.627  28.117   4.551
17919W        W90987  32.060  32.894   2.422
17920W        W90988  28.149  36.644   2.419
17921W        W90989  23.424   4.729   1.845
17922W        W90990  39.459   6.930  14.321
17923W        W90991   4.694  16.242   0.886
17924W        W90992  10.790   4.708  13.824
17925W        W90993  27.434  11.327   1.675
17926W        W90994  36.460  24.741  12.037
17927W        W90995  27.568  35.737   4.733
17928W        W90996  38.924  37.475   1.861
17929W        W90997  42.551  40.111  13.794
17930W        W90998  43.176  28.719   2.907
17931W        W90999  43.918   5.763   2.920
17932W        W91000  28.024  27.440   1.816
17933W        W91001  16.149  44.259   0.776
17934W        W91002  22.702  40.282   3.265
17935W        W91003  39.471  21.525   4.035
17936W        W91004  41.902   7.917   4.713
17937W        W91005  10.096  18.404   9.781
17938W        W91006  34.717  12.182   0.743
17939W        W91007  33.555  34.034   1.645
17940W        W91008  20.469  13.752  12.642
17941W        W91009  18.777  30.636  12.033
17942W        W91010  18.495  40.415  13.631
17943W        W91011  21.962  41.030  11.098
17944W        W91012   4.012  37.614  14.391
17945W        W91013  41.345   4.244   3.120
17946W        W91014   8.317  40.367  14.560
17947W        W91015  37.382  13.911   4.281
17948W        W91016  42.555  25.201  12.023
17949W        W91017  30.811  16.565   4.215
17950W        W91018  22.013  10.888  14.779
17951W        W91019   9.894  34.019   2.844
17952W        W91020  30.174  20.858  11.843
17953W        W91021  37.268   4.824   0.992
17954W        W91022  42.901  42.971   1.294
17955W        W91023   5.943  24.871   0.794
17956W        W91024  17.831  12.232   2.131
17957W        W91025  38.355   9.380  12.020
17958W        W91026  24.287  17.768  13.824
17959W        W91027  30.425  35.245   0.932
17960W        W91028  43.987   3.639   3.360
17961W        W91029  28.233  16.595  13.996
17962W        W91030  29.456  36.985  12.630
17963W        W91031  12.868  30.913  13.380
17964W        W91032  41.223  14.726  13.323
17965W        W91033   8.280  11.157   0.944
17966W        W91034  11.689  30.627   3.743
17967W        W91035  31.914  35.035  11.000
17968W        W91036  41.245  14.316   4.068
17969W        W91037  41.942  22.153   0.501
17970W        W91038  35.363  41.297   0.896
17971W        W91039  14.278  17.098  12.965
17972W        W91040  44.972   9.041   3.225
17973W        W91041  17.152   2.371   3.704
17974W        W91042  36.731  41.548   5.197
17975W        W91043  35.780  34.587  10.668
17976W        W91044  32.469  21.734   1.846
17977W        W91045   7.323  40.258   3.208
17978W        W91046   6.520  35.945  12.794
17979W        W91047   8.113   4.213   4.175
17980W        W91048  36.833   6.429  14.761
17981W        W91049  26.132  10.715   4.168
17982W        W91050  32.971  27.660  13.522
17983W        W91051  31.902   8.794  10.611
17984W        W91052  44.135   2.018  11.513
17985W        W91053  32.533  14.612   2.408
17986W        W91054  30.427   5.681   2.156
17987W        W91055  31.984  26.178   3.187
17988W        W91056  41.969  40.056  11.576
17989W        W91057  30.255  21.570  12.993
17990W        W91058  15.786  27.647   3.208
17991W        W91059  19.573  30.097   2.904
17992W        W91060  23.976  43.001   3.652
17993W        W91061   9.254   2.415   4.407
17994W        W91062   0.268  44.506  12.388
17995W        W91063   7.206   5.759   0.007
17996W        W91064  19.603  24.617   0.266
17997W        W91065  35.476  22.592   1.485
17998W        W91066  19.690  18.447  13.298
17999W        W91067  22.011  12.365  12.490
18000W        W91068  21.947  30.314   2.132
18001W        W91069   3.135   2.750  13.976
18002W        W91070  40.795  42.182   4.089
18003W        W91071   8.882  27.739   2.260
18004W        W91072  10.158  35.414  10.871
18005W        W91073  44.061  17.621  12.953
18006W        W91074  29.034  17.852   0.238
18007W        W91075  26.497  19.764  13.015
18008W        W91076  15.287  11.546   0.317
18009W        W91077  34.379   2.159   0.115
18010W        W91078  28.996  35.898   2.633
18011W        W91079  35.342  26.957   3.310
18012W        W91080  44.911  30.626  13.389
18013W        W91081  43.156  32.829   0.703
18014W        W91082   4.739   2.045   0.899
18015W        W91083  22.203  38.154   1.714
18016W        W91084  37.096  44.745  12.200
18017W        W91085  30.503  40.345  14.866
18018W        W91086  36.443   1.961  14.247
18019W        W91087  23.689  27.211   2.238
18020W        W91088  16.029   3.941   0.657
18021W        W91089   0.925  16.864   3.278
18022W        W91090  21.468  32.054   4.607
18023W        W91091  42.075  23.981   1.813
18024W        W91092   6.321  10.280  11.018
18025W        W91093  37.849  36.038  11.368
18026W        W91094  23.136   5.147  14.495
18027W        W91095  19.676  27.591   3.295
18028W        W91096  42.969  27.404  10.268
18029W        W91097   6.669  16.809   2.732
18030W        W91098  27.637  16.100   3.448
18031W        W91099   3.567  36.887  14.937
18032W        W91100  21.750  42.300  14.333
18033W        W91101  32.148  17.499  14.752
18034W        W91102  41.245   2.458  11.196
18035W        W91103  43.033   5.168  13.658
18036W        W91104  44.218  34.619   3.394
18037W        W91105   1.185  35.966  14.336
18038W        W91106  22.552  41.494  10.466
18039W        W91107  18.081  44.248  10.237
18040W        W91108  14.816  28.683   2.965
18041W        W91109   7.841   0.210   4.052
18042W        W91110  10.309  20.472  14.631
18043W        W91111  41.833  38.390  14.802
18044W        W91112  34.977  12.088  12.064
18045W        W91113  26.076  31.902   3.336
18046W        W91114  20.952  18.489  10.288
18047W        W91115  40.452  37.203   5.129
18048W        W91116  43.061  24.019  10.607
18049W        W91117  26.100   2.220  13.927
18050W        W91118   1.402  28.729   2.796
18051W        W91119  41.751  22.128   3.603
18052W        W91120  27.742  30.122   4.287
18053W        W91121  38.520  41.770  11.909
18054W        W91122  28.835  27.182  10.371
18055W        W91123  31.151   8.775   3.654
18056W        W91124  22.009  30.665   4.702
18057W        W91125   5.383  19.025   0.787
18058W        W91126  16.365   5.983  12.999
18059W        W91127  42.313  17.063  11.838
18060W        W91128  20.562  26.467   1.314
18061W        W91129  23.300  27.601  13.837
18062W        W91130  17.826   8.635  13.566
18063W        W91131  18.015  13.422   2.420
18064W        W91132  21.292  14.667  11.925
18065W        W91133   3.694  17.005   1.433
18066W        W91134   9.805  15.917   2.843
18067W        W91135   1.550  36.281   3.717
18068W        W91136  26.373  10.898   3.724
18069W        W91137  37.332  29.922  12.687
18070W        W91138  37.443   2.537  11.926
18071W        W91139   9.887  35.599   2.819
18072W        W91140  15.213  11.384   1.901
18073W        W91141  10.802  43.596  13.794
18074W        W91142  19.295  30.083  10.505
18075W        W91143   3.814  34.097  13.847
18076W        W91144  41.833  26.632   4.110
18077W        W91145   2.756   1.212  14.480
18078W        W91146  32.547  41.476  12.750
18079W        W91147   9.120  30.498   1.781
18080W        W91148  17.879  20.145   2.369
18081W        W91149  35.986   8.460   0.332
18082W        W91150   5.312  12.368   1.324
18083W        W91151  20.314  13.392  13.136
18084W        W91152  16.024  20.089  13.381
18085W        W91153  15.597  19.840  13.090
18086W        W91154  31.651  20.627  11.228
18087W        W91155  16.970  19.784  14.452
18088W        W91156  37.320  20.921  14.952
18089W        W91157  25.129  21.207   1.400
18090W        W91158   2.671  19.886   2.467
18091W        W91159  15.824   8.012   0.065
18092W        W91160  21.075  42.963   2.406
18093W        W91161  33.811  26.144  13.935
18094W        W91162  23.449  23.264   1.024
18095W        W91163  11.278  34.660   1.864
18096W        W91164   1.084   0.238   3.609
18097W        W91165  38.548  34.429  11.540
18098W        W91166  25.851  22.484   3.478
18099W        W91167   3.961  24.278   1.826
18100W        W91168  40.827  11.538   1.402
18101W        W91169  40.424  43.723  10.777
18102W        W91170   9.441  41.996   0.377
18103W        W91171   4.911  15.364   4.934
18104W        W91172  19.736  30.378  13.988
18105W        W91173   9.585  37.012   0.700
18106W        W91174  25.005  33.005  14.804
18107W        W91175  33.276  10.529  13.508
18108W        W91176  30.468  42.727  12.929
18109W        W91177   4.843   0.235   1.800
18110W        W91178  17.030  24.747   2.216
18111W        W91179  21.650  38.649   0.010
18112W        W91180  35.232  28.031   3.759
18113W        W91181  39.935   6.481  11.677
18114W        W91182  43.008  14.710  13.315
18115W        W91183  34.589  31.648  11.562
18116W        W91184   6.968  37.306  11.747
18117W        W91185   1.359  21.065  13.725
18118W        W91186   3.837  13.881   0.943
18119W        W91187  13.516  39.609   4.219
18120W        W91188   7.409  42.479   3.805
18121W        W91189  32.909  25.648   2.248
18122W        W91190  44.767  41.382  12.902
18123W        W91191  41.350  35.921  10.786
18124W        W91192  20.598  22.741  14.859
18125W        W91193  22.933  28.124  11.117
18126W        W91194  25.818  44.920  12.098
18127W        W91195   3.940  13.533   3.391
18128W        W91196  24.983   8.385  12.814
18129W        W91197  21.764   9.757  12.533
18130W        W91198  28.325   0.745   1.283
18131W        W91199  27.006  17.171   0.888
18132W        W91200  18.689  33.577  12.881
18133W        W91201  16.576  29.333   3.567
18134W        W91202   4.309  40.586  10.736
18135W        W91203  23.208  29.946  11.598
18136W        W91204  26.104  21.304   3.264
18137W        W91205  14.890  28.030  10.343
18138W        W91206   6.840   3.259  13.857
18139W        W91207  34.163   4.174   0.182
18140W        W91208  44.361  30.930   0.841
18141W        W91209  41.255  35.341   1.249
18142W        W91210  39.330  32.754  12.816
18143W        W91211  32.441   3.932   1.776
18144W        W91212  34.850   4.615  13.264
18145W        W91213  20.327  26.151  11.258
18146W        W91214  28.972  28.107  10.598
18147W        W91215  30.921  32.435   0.727
18148W        W91216  12.824  12.770  10.888
18149W        W91217  24.252   1.343   3.611
18150W        W91218   6.626  11.605  13.846
18151W        W91219  19.510   4.193  13.812
18152W        W91220  17.774   1.901  14.275
18153W        W91221  18.249  41.600   4.929
18154W        W91222  31.695  31.336   0.400
18155W        W91223   6.809  26.678  13.563
18156W        W91224  40.660   4.991  14.829
18157W        W91225   6.237  35.746   4.510
18158W        W91226  19.086   8.600   0.313
18159W        W91227  12.666  21.850  13.785
18160W        W91228  11.711  34.819  13.896
18161W        W91229  32.488  41.489  11.441
18162W        W91230   4.648  17.609   2.912
18163W        W91231   4.289  34.413   4.558
18164W        W91232  21.826   6.858   2.337
18165W        W91233  26.221   3.465  14.167
18166W        W91234  32.628   3.666   0.881
18167W        W91235  15.112  21.544  12.558
18168W        W91236   2.756   5.236   2.769
18169W        W91237  41.880  41.281   4.393
18170W        W91238   2.979  39.843   2.367
18171W        W91239  25.561  22.893   3.273
18172W        W91240   9.623  25.591  11.411
18173W        W91241  19.653   4.402   4.544
18174W        W91242  18.524  41.334  12.143
18175W        W91243  36.285  37.059   2.937
18176W        W91244  15.431  35.445   0.607
18177W        W91245   8.711  31.540  12.611
18178W        W91246  25.007  20.115  14.051
18179W        W91247  32.620  34.150  12.844
18180W        W91248  21.997  40.948  14.460
18181W        W91249  24.740  22.376  14.455
18182W        W91250   0.469  25.095  14.537
18183W        W91251  26.113   2.838  10.738
18184W        W91252  44.987   9.489   2.989
18185W        W91253  36.043  30.616  10.564
18186W        W91254  10.716  42.068   3.728
18187W        W91255  34.997  44.971  12.446
18188W        W91256  17.801  41.786  12.576
18189W        W91257  22.240  13.288   4.517
18190W        W91258  24.177   0.328   0.968
18191W        W91259  41.985   5.934  12.031
18192W        W91260  30.257  18.915  11.533
18193W        W91261  36.347  17.601  14.803
18194W        W91262   8.691  17.200  13.082
18195W        W91263   4.279  38.964  14.865
18196W        W91264  13.777  12.008   0.046
18197W        W91265  27.689  14.098   4.143
18198W        W91266   8.257  25.179   1.440
18199W        W91267  12.689  30.991   3.768
18200W        W91268  42.224  18.112   2.325
18201W        W91269   9.136  38.941   3.865
18202W        W91270   4.632  13.267  11.707
18203W        W91271  32.590  44.052  11.433
18204W        W91272  34.437  40.299  10.702
18205W        W91273  31.593   0.764  12.773
18206W        W91274  16.037  43.142  14.875
18207W        W91275   6.211  41.884  11.066
18208W        W91276   1.612  13.557   0.530
18209W        W91277   7.163  14.315  12.547
18210W        W91278  31.429  39.897   2.187
18211W        W91279  23.042   4.368  11.937
18212W        W91280   7.253  34.081  12.404
18213W        W91281  27.479  30.007  12.010
18214W        W91282  40.647  37.387   1.396
18215W        W91283  24.438  11.922  14.769
18216W        W91284  35.794  13.195   4.217
18217W        W91285  12.564  21.969  13.283
18218W        W91286  17.229  44.448  12.063
18219W        W91287  25.981   2.847   1.701
18220W        W91288  31.888   7.412  13.873
18221W        W91289  41.841  38.982  12.217
18222W        W91290  42.536  14.983  12.419
18223W        W91291  15.809  14.129   3.700
18224W        W91292   2.306  29.768   5.010
18225W        W91293  11.752  37.560   3.224
18226W        W91294  28.880  40.959   2.779
18227W        W91295  13.137  29.699  11.361
18228W        W91296  43.369  33.235   1.413
18229W        W91297   8.743  41.320   1.129
18230W        W91298  10.471  33.671  14.902
18231W        W91299  17.603  39.559  11.070
18232W        W91300   3.985  39.802   2.309
18233W        W91301   3.788  29.852   2.308
18234W        W91302  32.638  41.377   2.609
18235W        W91303   8.102  19.799  13.140
18236W        W91304   4.044   2.740   4.280
18237W        W91305  14.160   2.123  10.877
18238W        W91306  37.688  26.005   0.274
18239W        W91307  11.925  16.706   1.240
18240W        W91308  22.371   3.462  14.000
18241W        W91309  18.137  31.957   4.582
18242W        W91310   7.210  15.621   4.806
18243W        W91311  43.380  15.244   4.499
18244W        W91312  11.766  38.930   2.775
18245W        W91313  20.031  43.487   0.455
18246W        W91314  12.918  43.878  14.318
18247W        W91315   3.743  42.514   0.805
18248W        W91316  10.228   1.253   4.561
18249W        W91317  34.924  16.955  11.136
18250W        W91318  34.733  37.552   1.666
18251W        W91319  14.746   5.433   1.059
18252W        W91320  14.783  34.164  11.957
18253W        W91321  15.870  26.474  13.128
18254W        W91322  31.513  42.522  14.451
18255W        W91323  42.421  22.464   3.209
18256W        W91324  31.079  22.344  10.027
18257W        W91325   6.564  41.800  10.698
18258W        W91326  11.438  21.231   4.138
18259W        W91327  16.599  31.897   4.836
18260W        W91328  24.674   4.252  12.902
18261W        W91329  41.480  17.774   2.875
18262W        W91330  40.839  37.945  14.215
18263W        W91331  40.888  24.069  11.672
18264W        W91332  44.958  31.388  14.816
18265W        W91333  27.473  32.159  13.485
18266W        W91334  24.223  12.663   3.221
18267W        W91335  24.051  30.576  12.518
18268W        W91336  30.546  26.491  13.848
18269W        W91337  43.906  39.055   0.279
18270W        W91338  35.656  11.755   4.805
18271W        W91339   4.336  43.441   4.200
18272W        W91340   1.286  25.943   2.392
18273W        W91341   7.067  19.199  11.921
18274W        W91342   5.311  17.255  14.543
18275W        W91343  29.559  36.728  11.364
18276W        W91344  32.386  32.903   4.019
18277W        W91345  27.819  44.785   4.636
18278W        W91346  32.484  22.041   4.878
18279W        W91347  41.795  23.523   1.749
18280W        W91348  44.552  20.092   4.156
18281W        W91349  29.060  23.466  14.470
18282W        W91350  35.124   5.363  10.534
18283W        W91351   5.845  14.371   1.433
18284W        W91352  19.025   9.829   4.163
18285W        W91353  29.374  41.910  14.043
18286W        W91354  32.510  29.892  11.049
18287W        W91355  27.723  24.027   3.368
18288W        W91356  11.611  32.343   4.323
18289W        W91357   0.895   0.338  11.639
18290W        W91358   1.552  18.033  13.451
18291W        W91359  33.875  36.280  11.130
18292W        W91360   2.745   6.790  11.895
18293W        W91361  37.730  37.848  12.419
18294W        W91362  11.843  33.032   0.593
18295W        W91363   4.139  20.994   1.893
18296W        W91364  13.600  22.814   2.227
18297W        W91365  22.139   4.396   2.173
18298W        W91366  36.485  29.123  14.841
18299W        W91367   3.007  34.015  14.546
18300W        W91368  17.900  15.928   0.439
18301W        W91369  13.366  24.089   4.989
18302W        W91370  23.648  12.705  10.982
18303W        W91371  39.378  40.160   2.834
18304W        W91372  16.779  21.625   4.605
18305W        W91373  30.160  21.967  11.143
18306W        W91374  20.534  17.576  12.004
18307W        W91375  24.728  26.906  12.106
18308W        W91376  23.625  41.334  12.344
18309W        W91377  26.678  11.514   3.300
18310W        W91378  16.234  19.876   0.012
18311W        W91379  24.660  43.913  14.691
18312W        W91380  26.482   1.972  11.633
18313W        W91381   0.808  31.844   5.156
18314W        W91382  25.315  27.142  13.987
18315W        W91383  36.830  24.613  13.580
18316W        W91384  25.000   8.243   4.720
18317W        W91385   9.998  23.939  14.605
18318W        W91386  24.071  25.966   4.992
18319W        W91387  33.839  13.671   1.378
18320W        W91388  44.974  36.493  11.015
18321W        W91389  39.379  34.029  12.817
18322W        W91390  37.513   5.940   4.185
18323W        W91391  35.853   5.211  14.166
18324W        W91392  37.528  13.146  12.965
18325W        W91393  39.953  28.403  12.536
18326W        W91394  26.688  26.394  11.015
18327W        W91395  22.836  11.703  13.368
18328W        W91396  44.297  38.334  12.416
18329W        W91397  15.330  42.298  10.711
18330W        W91398   8.385  16.361  14.626
18331W        W91399  36.886  13.038  13.419
18332W        W91400  23.994  36.366   4.715
18333W        W91401   7.798  34.572  12.510
18334W        W91402  20.089  39.863   2.346
18335W        W91403  40.959  40.955  12.600
18336W        W91404  44.756  19.509  14.946
18337W        W91405  14.690  16.822  12.855
18338W        W91406  38.353  12.741   2.885
18339W        W91407  38.096  42.267   3.455
18340W        W91408  33.932  11.638  14.316
18341W        W91409  10.325  17.798   1.909
18342W        W91410   0.349  32.080   3.279
18343W        W91411   2.149  12.826  14.551
18344W        W91412  38.351  36.871  11.940
18345W        W91413   3.812  18.693   4.704
18346W        W91414  32.016  10.499   4.853
18347W        W91415  30.935  10.863   0.022
18348W        W91416  24.993   9.201  11.541
18349W        W91417  36.826  35.635   1.265
18350W        W91418  44.357  11.076   2.778
18351W        W91419  19.249   8.129   1.131
18352W        W91420  34.443  26.662   4.894
18353W        W91421  18.078  10.590   1.879
18354W        W91422   6.398  12.522   0.929
18355W        W91423  20.527  41.230   3.512
18356W        W91424  14.587  14.839   2.124
18357W        W91425  20.637   2.700  14.410
18358W        W91426  16.368   0.053   4.963
18359W        W91427  23.690  33.360   2.356
18360W        W91428  42.744   1.743   2.284
18361W        W91429   8.779  35.339  13.870
18362W        W91430  25.203  16.844  10.946
18363W        W91431  39.091  31.865  12.405
18364W        W91432  25.164  41.624   1.744
18365W        W91433   5.906  23.495  12.905
18366W        W91434  18.144   2.451  12.049
18367W        W91435  37.109  22.497   1.903
18368W        W91436  35.021  35.029  12.792
18369W        W91437  37.696  41.453  12.373
18370W        W91438  41.741   3.912  14.842
18371W        W91439   0.439   8.947  14.653
18372W        W91440  40.956  22.247   2.330
18373W        W91441  34.378   8.636   2.246
18374W        W91442   4.359  30.755   0.400
18375W        W91443  30.530  26.000   1.912
18376W        W91444  22.381  38.646   1.644
18377W        W91445  34.061  39.463  14.898
18378W        W91446  44.836  41.527  13.863
18379W        W91447  21.388   6.037  13.245
18380W        W91448  36.429  23.170   3.680
18381W        W91449  33.544   0.254  11.395
18382W        W91450  15.641  11.776  12.102
18383W        W91451  42.562   0.449   2.623
18384W        W91452  20.724  44.239   1.420
18385W        W91453  31.090  14.934   4.161
18386W        W91454  23.442   5.761  10.438
18387W        W91455  33.639   6.848  10.707
18388W        W91456   7.248  17.157  14.845
18389W        W91457  38.292  11.881   0.688
18390W        W91458   4.304  22.130  11.505
18391W        W91459  30.066  43.082   0.998
18392W        W91460  16.809  32.157   0.985
18393W        W91461  30.629  43.500  11.317
18394W        W91462   1.492  38.959  10.692
18395W        W91463  37.017  10.270   0.381
18396W        W91464   5.251  13.867   2.881
18397W        W91465  26.524   6.412   3.890
18398W        W91466  43.583   5.787  10.139
18399W        W91467  42.970  35.812  14.670
18400W        W91468  27.201   4.797   2.895
18401W        W91469  16.953  26.401   0.869
18402W        W91470  37.595   9.188   3.438
18403W        W91471  43.744   3.273  14.328
18404W        W91472  15.713  35.108  11.523
18405W        W91473  40.761  25.540   0.755
18406W        W91474  10.128  10.263  10.673
18407W        W91475  16.512  35.115   3.675
18408W        W91476  12.898   3.238   4.228
18409W        W91477  16.112   9.581   0.833
18410W        W91478  37.728  33.834  14.218
18411W        W91479  41.951  31.844   3.184
18412W        W91480  24.617   2.221   2.277
18413W        W91481  11.604  20.437   0.920
18414W        W91482  25.011  23.638  11.514
18415W        W91483  11.805  34.720   3.740
18416W        W91484  32.896  44.697  12.891
18417W        W91485   7.802  18.307  11.714
18418W        W91486  18.863  43.116   3.825
18419W        W91487  44.893   8.713   4.500
18420W        W91488   4.538  16.988  11.549
18421W        W91489  10.315  15.112  13.507
18422W        W91490  15.232  18.809  12.467
18423W        W91491  29.557  15.714   2.217
18424W        W91492  15.569  44.817  10.557
18425W        W91493   7.818   2.886   1.204
18426W        W91494  13.691  27.825  13.569
18427W        W91495  38.614  14.026   3.913
18428W        W91496   2.242   7.128  12.816
18429W        W91497   1.376  34.543   0.303
18430W        W91498   9.817  25.284   2.894
18431W        W91499   2.207  39.373   4.577
18432W        W91500   4.538  15.285   2.702
18433W        W91501  36.000  27.987   1.190
18434W        W91502  19.034  34.181  13.090
18435W        W91503  34.866  30.005   1.759
18436W        W91504   2.847  18.089  10.565
18437W        W91505  20.029  12.046  11.738
18438W        W91506  40.481  18.653  11.958
18439W        W91507  18.699  28.574   0.321
18440W        W91508   9.058  43.514   0.542
18441W        W91509   2.816  17.687   4.575
18442W        W91510  27.577  15.571  11.379
18443W        W91511  28.050  18.799   0.407
18444W        W91512  12.089  24.639   3.030
18445W        W91513   4.372   5.697  13.753
18446W        W91514   8.482  38.901  14.477
18447W        W91515  29.894  22.681   3.165
18448W        W91516   6.203  44.192  13.779
18449W        W91517   1.770  16.220  11.770
18450W        W91518  19.640  30.052  14.393
18451W        W91519  31.121  23.724  13.011
18452W        W91520   5.078   6.339   3.112
18453W        W91521  42.440  25.136   4.807
18454W        W91522  23.822  31.971  11.658
18455W        W91523  27.655   2.813   1.135
18456W        W91524  33.809  31.381   3.636
18457W        W91525   9.265   9.648  13.989
18458W        W91526  36.885  40.943   2.353
18459W        W91527  43.204  43.803   2.907
18460W        W91528  15.363  22.710  14.436
18461W        W91529  28.234   3.028   3.853
18462W        W91530   6.270  27.753  11.245
18463W        W91531  15.647  33.565  13.010
18464W        W91532  26.869  10.689  11.552
18465W        W91533  40.688  28.249   0.651
18466W        W91534  43.313  34.140   0.322
18467W        W91535  14.691  10.675   1.182
18468W        W91536  41.803  15.839  11.049
18469W        W91537   7.831  33.007   3.181
18470W        W91538  32.718   7.612  13.837
18471W        W91539  43.976  41.276   3.304
18472W        W91540  35.356   3.108   1.773
18473W        W91541  33.606  20.161   3.032
18474W        W91542  39.374  21.254  13.739
18475W        W91543  29.871   9.798   0.977
18476W        W91544  24.781  32.984  12.503
18477W        W91545  36.961  44.563   4.132
18478W        W91546  27.797   0.403  10.262
18479W        W91547  43.338  17.184  12.980
18480W        W91548   7.889  39.822   2.813
18481W        W91549  33.440  15.987   0.415
18482W        W91550  23.664  36.792   0.900
18483W        W91551  17.273  43.980  12.296
18484W        W91552  26.110  15.183   0.807
18485W        W91553   8.764   3.772  12.847
18486W        W91554  21.667  26.662  12.304
18487W        W91555  20.738  37.405   5.058
18488W        W91556  19.462  26.676  12.504
18489W        W91557   8.074   1.848   2.617
18490W        W91558  25.082  10.064   3.286
18491W        W91559  24.820   2.504   0.335
18492W        W91560  37.639  39.330   4.275
18493W        W91561   6.209  41.915  11.986
18494W        W91562  42.703  28.194   0.899
18495W        W91563  38.581   8.997   2.546
18496W        W91564  26.080  32.065  14.062
18497W        W91565  35.349  44.496   4.589
18498W        W91566   0.793  10.299  10.855
18499W        W91567  25.907   3.761   4.124
18500W        W91568  34.124  28.086  14.943
18501W        W91569  15.947  18.856   4.414
18502W        W91570  33.458  34.939   1.852
18503W        W91571  14.133  13.909   3.292
18504W        W91572  42.726  22.230   2.571
18505W        W91573  37.280  36.477  13.523
18506W        W91574  34.166  27.030   0.259
18507W        W91575  25.628  16.797  13.090
18508W        W91576  27.653  26.144   4.386
18509W        W91577  27.224  35.186   4.245
18510W        W91578  27.731  30.910   1.737
18511W        W91579   0.373  32.664  12.620
18512W        W91580  18.100  44.844  13.375
18513W        W91581  10.288   2.017   1.747
18514W        W91582  25.940   9.804  14.577
18515W        W91583  34.929  40.989  10.642
18516W        W91584  35.545  18.295   2.400
18517W        W91585  42.483  24.175   5.094
18518W        W91586  29.982  37.541  12.900
18519W        W91587  34.510  12.635  10.503
18520W        W91588  41.311  10.600  12.650
18521W        W91589  20.811  37.018  12.548
18522W        W91590  33.183   7.314   1.830
18523W        W91591   6.531  20.621  13.745
18524W        W91592  42.935  36.489  12.989
18525W        W91593  26.458  20.735  11.532
18526W        W91594  29.151   7.453  10.609
18527W        W91595   5.697   5.475  13.390
18528W        W91596   6.136  24.731   1.704
18529W        W91597   0.270  16.739  12.090
18530W        W91598  23.512  37.295   4.377
18531W        W91599  18.678   1.025   3.549
18532W        W91600  18.906  24.000  11.882
18533W        W91601  36.878  26.466   0.449
18534W        W91602  23.541  36.618   2.428
18535W        W91603  13.211  34.456  14.672
18536W        W91604  29.517   7.789   3.442
18537W        W91605  43.997  43.435   1.440
18538W        W91606  37.297  12.815  14.857
18539W        W91607  33.400  11.541  12.550
18540W        W91608  40.323  32.319  10.634
18541W        W91609  42.847  37.501   2.253
18542W        W91610  19.574  37.563  14.415
18543W        W91611  33.490   3.753  11.737
18544W        W91612   2.468  22.848   5.033
18545W        W91613  37.937   7.843   0.471
18546W        W91614  29.418  38.780  12.407
18547W        W91615  36.900  28.555  14.095
18548W        W91616  33.022   5.941   0.831
18549W        W91617  28.321  44.383  14.412
18550W        W91618  24.318  27.494  11.683
18551W        W91619   6.254   7.476   5.140
18552W        W91620   7.721  26.697  14.864
18553W        W91621  29.013  15.308  12.562
18554W        W91622  16.108  29.599   3.600
18555W        W91623   6.161  18.743   4.158
18556W        W91624  25.216  18.280  14.433
18557W        W91625  16.253  17.106  13.067
18558W        W91626  35.970  36.552  13.778
18559W        W91627  33.115  18.549  14.896
18560W        W91628  41.111  26.116   2.446
18561W        W91629  24.665  34.290   4.152
18562W        W91630  25.182  26.151   0.897
18563W        W91631  32.607   5.678   2.365
18564W        W91632  15.220  33.967  12.111
18565W        W91633  25.112  43.402  10.655
18566W        W91634  34.344  43.474   2.567
18567W        W91635  13.348  15.761   1.347
18568W        W91636  10.877  22.490   4.288
18569W        W91637  18.538  31.182   2.869
18570W        W91638  22.172  32.345  10.807
18571W        W91639  15.721  30.220   1.385
18572W        W91640  19.830   2.811  13.874
18573W        W91641   7.381   0.507  14.796
18574W        W91642  30.576  24.784   4.717
18575W        W91643   7.781  29.395  10.547
18576W        W91644  12.036  22.672   2.348
18577W        W91645  44.574  16.570   3.709
18578W        W91646  25.833  17.796  14.719
18579W        W91647  37.456  11.790   1.130
18580W        W91648  37.377   6.943   2.671
18581W        W91649  21.090  11.088   3.703
18582W        W91650  34.687  24.502   3.732
18583W        W91651  12.703  29.866   4.611
18584W        W91652  22.300   5.325   3.167
18585W        W91653  20.227   8.845  14.798
18586W        W91654  10.934   9.747  13.421
18587W        W91655  16.819   0.861  14.030
18588W        W91656  44.541  34.379   1.902
18589W        W91657  36.445  25.241   1.984
18590W        W91658  13.175  33.833  11.900
18591W        W91659  27.556  31.551   2.842
18592W        W91660   6.227  24.175  14.063
18593W        W91661   3.585  31.753  14.043
18594W        W91662  20.004   3.186   3.372
18595W        W91663  17.661  15.127  10.660
18596W        W91664  37.388  21.281   4.579
18597W        W91665  33.783  36.515   2.209
18598W        W91666  13.275  17.815   1.138
18599W        W91667  24.573  30.723  11.496
18600W        W91668  17.052  34.650   3.705
18601W        W91669  25.190  28.375   1.794
18602W        W91670   0.527  13.280  11.653
18603W        W91671  33.411  17.349  13.562
18604W        W91672  19.538  25.553   0.352
18605W        W91673  24.149   8.172   2.578
18606W        W91674   7.699  43.331  13.627
18607W        W91675   1.442  35.527   4.411
18608W        W91676  31.952  31.871   2.309
18609W        W91677  40.882   0.962   2.673
18610W        W91678   8.136   9.439   1.783
18611W        W91679  33.144  22.457   0.792
18612W        W91680   3.278  34.855  13.374
18613W        W91681  19.829  13.339   4.006
18614W        W91682  44.718  27.977  10.599
18615W        W91683  28.387  21.954  10.505
18616W        W91684  32.164  18.133   1.008
18617W        W91685  20.228   8.452   4.152
18618W        W91686  25.203  12.136  14.315
18619W        W91687  34.938  29.887   2.274
18620W        W91688  35.357  10.832   2.125
18621W        W91689  23.789  21.483   0.727
18622W        W91690  26.268  30.138   0.252
18623W        W91691  18.632  26.173  14.093
18624W        W91692  13.583  14.722  13.882
18625W        W91693  15.993  25.021  14.469
18626W        W91694  40.035  27.571   3.592
18627W        W91695  29.138  31.233   0.710
18628W        W91696  20.031  30.246   3.099
18629W        W91697  38.582  16.137  12.006
18630W        W91698  38.228  32.486  13.830
18631W        W91699  34.926  23.605   4.215
18632W        W91700  37.918  41.272   0.807
18633W        W91701   1.111  13.357   0.385
18634W        W91702  38.034  27.567   4.394
18635W        W91703  39.383  24.546   4.008
18636W        W91704  38.712  38.065  11.327
18637W        W91705  23.539  30.756  12.433
18638W        W91706  28.836  34.928   3.247
18639W        W91707   3.392  39.091   4.588
18640W        W91708  41.435  14.232   1.331
18641W        W91709  16.135  12.725  13.836
18642W        W91710  28.537  13.119  12.790
18643W        W91711  16.278  27.040   0.863
18644W        W91712  36.746  25.118   1.275
18645W        W91713  11.663  38.049  12.076
18646W        W91714  10.137  28.967  13.363
18647W        W91715   7.665   7.442  13.883
18648W        W91716   2.343  33.645   0.996
18649W        W91717  36.390  17.405   1.156
18650W        W91718  15.729  18.170   4.579
18651W        W91719   6.825   7.788   2.486
18652W        W91720   8.951  42.534  11.373
18653W        W91721   5.799  24.163   2.363
18654W        W91722   8.598   4.227  11.601
18655W        W91723  30.649  26.473   2.716
18656W        W91724  26.428  41.477  14.816
18657W        W91725   5.902  24.813   2.958
18658W        W91726  29.440  19.125   3.762
18659W        W91727  16.291  29.098   4.423
18660W        W91728  12.803  31.529   4.799
18661W        W91729  38.067   3.564   4.657
18662W        W91730  34.793  41.059   4.393
18663W        W91731   7.831  41.496  10.847
18664W        W91732   3.436  41.965  11.248
18665W        W91733  12.153  16.850  14.191
18666W        W91734   3.100   0.118   4.089
18667W        W91735  44.241  22.654   1.205
18668W        W91736  17.458  40.152  14.886
18669W        W91737  43.373  26.270   3.745
18670W        W91738  41.022   2.455   4.155
18671W        W91739  24.400  31.102  13.134
18672W        W91740  15.233  24.967   1.875
18673W        W91741  10.168  15.567   1.723
18674W        W91742   7.202  28.873  13.349
18675W        W91743   6.416  35.062  14.950
18676W        W91744  41.353  15.633   4.303
18677W        W91745  37.404  14.283   3.216
18678W        W91746   3.565  24.177   0.737
18679W        W91747  41.536  39.885  12.127
18680W        W91748  35.921  41.536  10.754
18681W        W91749  13.085  10.718  13.433
18682W        W91750  22.700  13.244   0.319
18683W        W91751  38.528   3.377   4.495
18684W        W91752  16.124  33.146   4.689
18685W        W91753  23.526   4.495  11.796
18686W        W91754  35.883  23.135  13.325
18687W        W91755  21.718  23.436  12.514
18688W        W91756  42.427  10.812   4.133
18689W        W91757  35.871  35.185   4.959
18690W        W91758   7.182  30.661   2.935
18691W        W91759  35.613  23.589   3.643
18692W        W91760  12.825  17.920   4.598
18693W        W91761  33.308  26.460  13.047
18694W        W91762  20.556  23.332  13.204
18695W        W91763  42.362  30.417  13.108
18696W        W91764  39.901   6.441   4.562
18697W        W91765   5.701  22.607   3.641
18698W        W91766   7.346  16.841  13.752
18699W        W91767  21.721  22.416   3.586
18700W        W91768   6.905  15.231   2.795
18701W        W91769  27.217  17.237   2.293
18702W        W91770   8.856  17.820  14.238
18703W        W91771   9.468  43.082  14.754
18704W        W91772  40.248  13.692  13.292
18705W        W91773  26.888   6.255  12.120
18706W        W91774   6.206   9.800  11.979
18707W        W91775  22.620  36.163  11.671
18708W        W91776  32.092   7.345   0.335
18709W        W91777   3.006  27.566  10.467
18710W        W91778  38.003   2.164   2.969
18711W        W91779  44.317  35.763  14.237
18712W        W91780  27.700  10.746   0.229
18713W        W91781  30.181  31.422   3.635
18714W        W91782   1.598   9.684  13.494
18715W        W91783   6.333  14.268   4.696
18716W        W91784  20.020  41.461   1.943
18717W        W91785  36.006  29.852  11.146
18718W        W91786  38.508  35.954  12.465
18719W        W91787   5.596  35.620   2.291
18720W        W91788  15.220  25.532   0.600
18721W        W91789  36.967  34.071  10.657
18722W        W91790  38.491   4.388  13.421
18723W        W91791   2.979   3.689  11.637
18724W        W91792  22.953  21.885  13.219
18725W        W91793  26.724  27.968  14.427
18726W        W91794  36.846  33.366   0.854
18727W        W91795   0.446  23.669   0.456
18728W        W91796  10.393  44.070  11.049
18729W        W91797  18.334  19.191   4.168
18730W        W91798  30.477  17.580  14.243
18731W        W91799  40.375   9.148  12.302
18732W        W91800   9.324  30.773  10.957
18733W        W91801  15.867   8.960   2.056
18734W        W91802  39.010   6.602   4.170
18735W        W91803  20.731  12.092  12.984
18736W        W91804  18.089  38.846  11.526
18737W        W91805   4.717  30.124  14.760
18738W        W91806  28.693   7.091   2.300
18739W        W91807   4.909  29.197  13.578
18740W        W91808  26.936   4.437   0.317
18741W        W91809  42.597  22.689  13.390
18742W        W91810  16.277  28.129  12.462
18743W        W91811   9.840  36.269   0.386
18744W        W91812  27.651   6.668   2.707
18745W        W91813   8.204   6.179   3.314
18746W        W91814   7.421  20.248   1.391
18747W        W91815   7.876  32.400  14.358
18748W        W91816  44.526  26.578  14.329
18749W        W91817   7.924   0.307  14.903
18750W        W91818  33.122  15.847   3.716
18751W        W91819  28.350   7.102  12.887
18752W        W91820  44.688  24.600   4.549
18753W        W91821  40.846  18.770   1.934
18754W        W91822   2.928   2.023   4.192
18755W        W91823   9.062   4.721  10.909
18756W        W91824  37.922  17.674   3.392
18757W        W91825   9.333  30.223  11.021
18758W        W91826  40.073   3.648  10.912
18759W        W91827  16.552   2.315  14.709
18760W        W91828  16.561  13.803  11.193
18761W        W91829  27.015  21.584  12.516
18762W        W91830  31.237   7.288  14.428
18763W        W91831   5.682  10.493  14.233
18764W        W91832  26.217  24.096   1.308
18765W        W91833  12.625  11.833   0.487
18766W        W91834  37.129  32.430  11.870
18767W        W91835  44.849   2.833   4.620
18768W        W91836  28.573   8.165  11.543
18769W        W91837  12.819  29.565  13.565
18770W        W91838  28.033  15.196   2.938
18771W        W91839  43.100  18.226  13.913
18772W        W91840  17.086  16.297  12.392
18773W        W91841  11.082  25.925   2.269
18774W        W91842  41.921  34.922   2.299
18775W        W91843  26.489   4.734   4.107
18776W        W91844  15.110  29.355   1.407
18777W        W91845  35.910  41.404  14.780
18778W        W91846  26.020   1.260   4.167
18779W        W91847   3.187  38.266  11.638
18780W        W91848  35.009   1.650  11.482
18781W        W91849  33.358  38.347  13.405
18782W        W91850  23.100  16.163   5.404
18783W        W91851  13.339  29.797  11.897
18784W        W91852  18.859  25.812  12.408
18785W        W91853  12.655  40.670   1.224
18786W        W91854   2.340  32.351   3.440
18787W        W91855  12.527   4.905  12.618
18788W        W91856  37.028  41.983   2.171
18789W        W91857  14.080  26.503  14.262
18790W        W91858   6.439  22.783   4.177
18791W        W91859  17.143   3.238  14.570
18792W        W91860   2.151  20.595   3.689
18793W        W91861  16.752   8.300   2.296
18794W        W91862  29.236   4.505  14.536
18795W        W91863  39.013  41.322   3.169
18796W        W91864  21.495  17.350   4.570
18797W        W91865   6.020  26.245  14.208
18798W        W91866   8.577  25.591  11.371
18799W        W91867  12.223  29.068  13.064
18800W        W91868  17.767   5.927   2.664
18801W        W91869  29.583   0.822   3.805
18802W        W91870  30.856  13.810  11.873
18803W        W91871  34.308  35.801   1.398
18804W        W91872  41.532   3.791  11.004
18805W        W91873   6.504  42.320  14.265
18806W        W91874  35.503  35.470   3.155
18807W        W91875  40.887   8.324  10.647
18808W        W91876  25.076  14.920  13.983
18809W        W91877  21.402  31.625   1.248
18810W        W91878  13.468   4.523  11.642
18811W        W91879  43.478  41.077   3.203
18812W        W91880  35.644  17.124   4.132
18813W        W91881  20.588  29.965  11.357
18814W        W91882   5.661   9.749  11.885
18815W        W91883  20.258   9.231  14.438
18816W        W91884  13.996   7.901   3.728
18817W        W91885  31.076   7.171   0.357
18818W        W91886  22.128  15.175  10.725
18819W        W91887  37.567  11.792  14.748
18820W        W91888  23.018  14.090  13.559
18821W        W91889  43.916  42.497  11.540
18822W        W91890   6.656  32.921  12.491
18823W        W91891  13.875   5.555  11.042
18824W        W91892  29.521   7.670  11.424
18825W        W91893  31.133  19.118  10.695
18826W        W91894   8.810  28.927   0.394
18827W        W91895  34.937  12.369  14.443
18828W        W91896  30.115  41.829  13.305
18829W        W91897  20.160   1.952  10.947
18830W        W91898  34.639  10.219  10.782
18831W        W91899  18.781  18.482   0.286
18832W        W91900  38.134  33.179   1.407
18833W        W91901   6.153  14.738   0.275
18834W        W91902  12.122  14.634   3.358
18835W        W91903  11.262  29.251   2.173
18836W        W91904  31.097  16.586  12.826
18837W        W91905  22.322  11.056   0.848
18838W        W91906  11.343  23.658  11.900
18839W        W91907  34.588  33.324   4.168
18840W        W91908  41.425  14.748  12.811
18841W        W91909  38.913  26.809   1.780
18842W        W91910  20.022  22.536   3.204
18843W        W91911  35.644  32.870  11.190
18844W        W91912  28.105  20.438  10.819
18845W        W91913   8.833  33.520   5.079
18846W        W91914  19.754  29.662   2.320
18847W        W91915  14.482   0.231  14.791
18848W        W91916  43.461  44.038   1.037
18849W        W91917   7.380  37.067  14.841
18850W        W91918   1.837   6.261  13.565
18851W        W91919   2.994  30.012   2.759
18852W        W91920  31.534  14.659   0.683
18853W        W91921  39.814  11.064  14.860
18854W        W91922   4.885  28.496  10.679
18855W        W91923  25.592  13.962  11.439
18856W        W91924  25.409  25.148   0.388
18857W        W91925  36.266  28.304  12.565
18858W        W91926  40.169  21.996   0.321
18859W        W91927   8.152  21.077   3.375
18860W        W91928  23.639  39.191   5.001
18861W        W91929  39.751  30.853   2.947
18862W        W91930  21.730   8.216  12.429
18863W        W91931  25.156  15.225   1.730
18864W        W91932  34.037  44.296  12.397
18865W        W91933  43.825  23.442   3.669
18866W        W91934  17.734  25.087  12.574
18867W        W91935  34.867   3.419   0.541
18868W        W91936   1.369  22.058  10.661
18869W        W91937   7.339  41.415  11.028
18870W        W91938  33.498  20.933   3.562
18871W        W91939   2.889  36.921  14.402
18872W        W91940  25.763  26.099   4.151
18873W        W91941  17.931  12.194  14.989
18874W        W91942   2.984   6.183   1.990
18875W        W91943   4.563  38.890   4.980
18876W        W91944  12.495  25.624  14.050
18877W        W91945  28.243  37.050  11.681
18878W        W91946  27.000  17.460   2.755
18879W        W91947  41.762  36.026   2.212
18880W        W91948  41.407  16.607   4.243
18881W        W91949  32.496  32.671   0.783
18882W        W91950  11.298  31.692   1.300
18883W        W91951  11.522   8.386   1.348
18884W        W91952  15.640  22.671  13.045
18885W        W91953  37.453  29.377  14.297
18886W        W91954  12.765   3.535   1.905
18887W        W91955  28.416  37.037   0.895
18888W        W91956  20.435  12.030  13.440
18889W        W91957   4.658   8.883   4.133
18890W        W91958  35.864  35.356  13.892
18891W        W91959  11.319  25.488   4.114
18892W        W91960  28.794  14.088  12.808
18893W        W91961   7.643   7.174  14.325
18894W        W91962   4.063   3.063  13.790
18895W        W91963   1.346  43.503   3.300
18896W        W91964   1.322  15.676  12.851
18897W        W91965  20.370  43.203  13.424
18898W        W91966   2.104  42.785   0.329
18899W        W91967  41.745  30.836   4.120
18900W        W91968   8.824  34.770  14.870
18901W        W91969  38.801  38.461  11.023
18902W        W91970   0.225  25.244  14.987
18903W        W91971   0.609  21.487   4.194
18904W        W91972   0.821   0.004   0.978
18905W        W91973   4.317  18.146   0.049
18906W        W91974  10.845  28.679  11.843
18907W        W91975  11.653   0.217   3.902
18908W        W91976   6.433  33.040   0.776
18909W        W91977  44.254  36.142   5.005
18910W        W91978  17.011  12.239  14.938
18911W        W91979  44.456  34.623   0.055
18912W        W91980  27.729  20.240  11.620
18913W        W91981  30.069  20.251  11.721
18914W        W91982  25.644   7.252  12.023
18915W        W91983  25.976  13.102   1.820
18916W        W91984  35.854   4.344  11.963
18917W        W91985  33.800  41.787   1.384
18918W        W91986  18.501   1.484   4.599
18919W        W91987  37.560   0.711   2.374
18920W        W91988  28.026  32.516  11.941
18921W        W91989  32.096   3.394   2.081
18922W        W91990   2.471  15.050   0.237
18923W        W91991  29.946  16.803  14.015
18924W        W91992   3.276  22.260   4.060
18925W        W91993  10.278   2.973   0.039
18926W        W91994   9.034  24.218  13.434
18927W        W91995  30.257  39.336   1.190
18928W        W91996  22.213  27.624  13.034
18929W        W91997  41.022  13.902  12.951
18930W        W91998   4.209  30.155  11.304
18931W        W91999  29.169   5.453   3.157
18932W        W92000  42.786  16.703   4.380
18933W        W92001   3.262   1.901  10.352
18934W        W92002  25.616  41.835   1.936
18935W        W92003  26.978  35.215   1.042
18936W        W92004  33.264  29.030   1.946
18937W        W92005  28.328   7.623   0.904
18938W        W92006   9.868  26.536  13.045
18939W        W92007  34.158  10.405   4.107
18940W        W92008  14.110   6.843  10.807
18941W        W92009  12.592  32.917  14.011
18942W        W92010  22.477  39.872   0.364
18943W        W92011  10.428   5.833  10.495
18944W        W92012  38.630  26.540   4.295
18945W        W92013  12.700  30.242  11.943
18946W        W92014   5.311   9.358   0.480
18947W        W92015   5.435  24.151  14.911
18948W        W92016  24.306  35.016   3.677
18949W        W92017   8.567   1.466  10.632
18950W        W92018  33.359  39.373   1.749
18951W        W92019  26.406  25.246   1.851
18952W        W92020  33.307   7.845   1.773
18953W        W92021  42.923  21.260   0.941
18954W        W92022  18.017  27.199  10.759
18955W        W92023   8.169  19.726  14.886
18956W        W92024  27.198  43.091   2.740
18957W        W92025  29.661  15.409  11.596
18958W        W92026  26.258  44.702  11.110
18959W        W92027   7.315  10.704   1.640
18960W        W92028  32.860  33.086  13.910
18961W        W92029  18.628  42.546  14.392
18962W        W92030  26.507  16.056   1.648
18963W        W92031  21.504  28.941   3.179
18964W        W92032  19.092  34.361   0.238
18965W        W92033   4.247  20.340  13.434
18966W        W92034  27.940  34.023  11.966
18967W        W92035  31.938  35.277   1.059
18968W        W92036  31.351  15.796  14.814
18969W        W92037   3.607  35.891  11.112
18970W        W92038  35.728   4.924   4.060
18971W        W92039   5.475  32.829   0.308
18972W        W92040  34.590  38.290  11.035
18973W        W92041  37.423   9.442   1.285
18974W        W92042  21.367  25.222   0.401
18975W        W92043  35.279  37.023  11.361
18976W        W92044   3.469  22.271  10.346
18977W        W92045  28.714  20.926  14.314
18978W        W92046  37.318  24.504   4.327
18979W        W92047  29.016  24.687   2.059
18980W        W92048   9.404  11.092   4.081
18981W        W92049  18.707  18.301   3.657
18982W        W92050  12.383  16.800   1.665
18983W        W92051  30.101  16.789  10.696
18984W        W92052  11.409  28.651  12.975
18985W        W92053  21.021  11.077   4.628
18986W        W92054   8.475  42.379   2.368
18987W        W92055  33.506   2.816  10.213
18988W        W92056  40.375  18.026  13.425
18989W        W92057  27.725  13.823  14.377
18990W        W92058  31.823  36.646   4.133
18991W        W92059  15.043  11.480   4.686
18992W        W92060  42.830  28.105   4.460
18993W        W92061  44.503   3.371   4.268
18994W        W92062  37.350  35.046   1.720
18995W        W92063  38.835  42.312   3.260
18996W        W92064  42.229   2.315  11.494
18997W        W92065  44.413   9.707   2.350
18998W        W92066  22.176  38.470  13.903
18999W        W92067  16.475  17.553  13.982
19000W        W92068  19.455  15.763   3.709
19001W        W92069  26.992  37.365   1.903
19002W        W92070  16.375  16.471  12.576
19003W        W92071  44.300  18.611   1.693
19004W        W92072   8.986  40.821  13.543
19005W        W92073   0.845   1.734  10.630
19006W        W92074  20.665  41.119   4.897
19007W        W92075   6.782  30.078   0.850
19008W        W92076  30.413  34.991   5.028
19009W        W92077   2.335   4.171  11.495
19010W        W92078  13.798   2.474   1.351
19011W        W92079   5.824   9.186  10.886
19012W        W92080  41.098   0.056   5.061
19013W        W92081  28.393  12.304  13.029
19014W        W92082  25.647   2.195   2.377
19015W        W92083  28.050   1.247  11.407
19016W        W92084  34.495   8.936   1.824
19017W        W92085   6.507  15.036   4.236
19018W        W92086   3.430  14.100   3.688
19019W        W92087   2.566  34.363  11.914
19020W        W92088  16.616  32.980  12.137
19021W        W92089  28.686  18.299   2.746
19022W        W92090  38.840  41.346  11.921
19023W        W92091   6.897  39.812   0.443
19024W        W92092  39.281   6.120  11.134
19025W        W92093   4.386  38.486  11.910
19026W        W92094  21.154  41.673  11.504
19027W        W92095  19.540  30.606  14.407
19028W        W92096   8.704  17.709   0.810
19029W        W92097  37.197  37.820   2.323
19030W        W92098  15.256  14.591  11.515
19031W        W92099  38.420  35.380   4.600
19032W        W92100  41.775  12.648  12.529
19033W        W92101  44.325  36.227  14.486
19034W        W92102  34.100  39.101  12.143
19035W        W92103  21.525  28.776  14.417
19036W        W92104  32.782   8.549  13.900
19037W        W92105  32.764  35.159   1.285
19038W        W92106  37.003  19.026   0.788
19039W        W92107  20.504  14.335  11.616
19040W        W92108  41.344   1.425   2.261
19041W        W92109  42.496  29.007  11.503
19042W        W92110   2.998   1.801  13.105
19043W        W92111   9.668   7.702   2.190
19044W        W92112  30.659  36.960   3.282
19045W        W92113   3.838  22.663  13.324
19046W        W92114  38.254   6.336   1.528
19047W        W92115  26.505  27.144  12.371
19048W        W92116  27.500  11.891   0.901
19049W        W92117  23.669   1.937   0.224
19050W        W92118  28.467  10.137  11.096
19051W        W92119  12.804  39.581   2.283
19052W        W92120  33.051  37.340  10.662
19053W        W92121  26.705  30.064   1.622
19054W        W92122   3.540  39.218   0.356
19055W        W92123  24.653  37.945  12.099
19056W        W92124   9.278  21.768   3.606
19057W        W92125  17.799  31.427  12.499
19058W        W92126   3.943   6.264  12.042
19059W        W92127  29.619  19.597   3.662
19060W        W92128  12.255  16.250  11.919
19061W        W92129  22.617  27.238   1.374
19062W        W92130   4.722  44.812   0.497
19063W        W92131  44.941  10.917   1.417
19064W        W92132  22.211  41.404  14.354
19065W        W92133  16.439  16.565   3.062
19066W        W92134  40.473   0.236   3.250
19067W        W92135  13.355   2.467   3.157
19068W        W92136  20.078  22.621   0.734
19069W        W92137  35.167   6.339   0.963
19070W        W92138  24.068  16.819  13.292
19071W        W92139   0.699  42.091   4.594
19072W        W92140  10.351  42.025   1.346
19073W        W92141  23.415  23.042   4.088
19074W        W92142  44.005  35.607  12.476
19075W        W92143  38.339  44.382  14.865
19076W        W92144   9.662  25.464  14.912
19077W        W92145  38.350   6.516   9.742
19078W        W92146  27.548  38.678  12.870
19079W        W92147  12.670  21.593  10.682
19080W        W92148  11.127  33.651   4.216
19081W        W92149  13.781  40.004  13.996
19082W        W92150  24.779  28.045   1.820
19083W        W92151   1.930  10.187   0.294
19084W        W92152   5.780   2.512   2.135
19085W        W92153  21.269  17.139   0.094
19086W        W92154  11.245  12.921   1.853
19087W        W92155  27.710   9.270  11.037
19088W        W92156  22.755  32.494   3.149
19089W        W92157  34.025  27.595   4.071
19090W        W92158  27.570  20.296  12.555
19091W        W92159  34.376  16.324   2.767
19092W        W92160   1.257  44.344   2.325
19093W        W92161  15.007  36.038   3.537
19094W        W92162  11.678  25.755   3.292
19095W        W92163  12.587  27.133  14.814
19096W        W92164  21.136  12.792   2.951
19097W        W92165  40.993  25.653   2.647
19098W        W92166  24.656   4.898   2.436
19099W        W92167  32.111   5.035   3.897
19100W        W92168  16.766  11.561  11.536
19101W        W92169  32.032  19.808  13.826
19102W        W92170  30.080  44.882  14.165
19103W        W92171  37.059  37.491   0.539
19104W        W92172  35.307  28.876   0.245
19105W        W92173   2.232  23.229  12.601
19106W        W92174  38.101  28.919   2.652
19107W        W92175  40.642  25.756  13.676
19108W        W92176  22.114  41.480  11.296
19109W        W92177  38.781  35.979  11.606
19110W        W92178  36.979  39.485   0.404
19111W        W92179  26.597   6.269  11.680
19112W        W92180  41.952  29.797   3.181
19113W        W92181  42.472   9.113  11.002
19114W        W92182  18.214  12.406  13.130
19115W        W92183   2.340  10.817   2.380
19116W        W92184  32.024  17.680   2.115
19117W        W92185   5.796  11.852   2.635
19118W        W92186  19.836  40.753   3.708
19119W        W92187  24.044  29.554  12.893
19120W        W92188  41.811   7.918  12.872
19121W        W92189  32.427   5.483   1.705
19122W        W92190  14.033  15.077  13.067
19123W        W92191  30.514  42.082  14.343
19124W        W92192  26.351  17.790  14.761
19125W        W92193   8.718  42.133   5.141
19126W        W92194  33.858  14.655   0.512
19127W        W92195  14.789   5.799   1.817
19128W        W92196  20.425  42.513  12.074
19129W        W92197  15.150  17.044  13.117
19130W        W92198  18.546   2.181   1.873
19131W        W92199  13.614  14.770  12.914
19132W        W92200  27.247   1.476  12.422
19133W        W92201  22.134  14.308   1.678
19134W        W92202  13.300  26.127  11.576
19135W        W92203  36.799  17.775  11.198
19136W        W92204  18.769  41.437  13.584
19137W        W92205  19.724  24.273  13.400
19138W        W92206   9.989  38.871  12.200
19139W        W92207  18.664  36.977   2.813
19140W        W92208  11.434  31.480  10.945
19141W        W92209  12.170  13.057   0.835
19142W        W92210  22.599  41.251   0.255
19143W        W92211  17.766  44.483   1.127
19144W        W92212  26.569   3.194   4.223
19145W        W92213  21.010  33.869   0.580
19146W        W92214  11.284   5.178   3.027
19147W        W92215  19.631   7.501   3.698
19148W        W92216  17.085  38.700   4.125
19149W        W92217  33.366  33.509   2.750
19150W        W92218  13.051  10.563   1.349
19151W        W92219   1.759  37.844  14.865
19152W        W92220  21.220  44.816  10.544
19153W        W92221   4.451   2.647   0.729
19154W        W92222  16.177  12.403   0.922
19155W        W92223   1.000  24.988  14.488
19156W        W92224  44.864  13.850   3.874
19157W        W92225  27.581   3.870  14.301
19158W        W92226  33.913  34.360   0.046
19159W        W92227   1.879  10.333  13.564
19160W        W92228  10.943  21.747   2.614
19161W        W92229   7.897  24.786  14.584
19162W        W92230  14.624   0.381  12.526
19163W        W92231  36.440   6.939  10.652
19164W        W92232  12.193  40.917  10.573
19165W        W92233  41.188  21.095   4.700
19166W        W92234  22.138  30.124   0.224
19167W        W92235   2.200  29.029  14.854
19168W        W92236  43.662  36.053   0.386
19169W        W92237  11.400  21.002  14.066
19170W        W92238  27.196  25.545   1.744
19171W        W92239   8.724   5.201  14.439
19172W        W92240  10.119   5.979  12.673
19173W        W92241  22.934  24.893  14.033
19174W        W92242   8.909  32.366  10.626
19175W        W92243  33.383  25.445  14.296
19176W        W92244   0.878  13.313   1.860
19177W        W92245   2.868  22.034   2.858
19178W        W92246  37.921  39.516   1.970
19179W        W92247   8.298  24.994  13.833
19180W        W92248  31.453  37.749  11.144
19181W        W92249   7.172  42.765  13.860
19182W        W92250  10.701  16.275  11.915
19183W        W92251  16.145   0.454   4.661
19184W        W92252  41.513  37.961  13.559
19185W        W92253  15.183  27.946  11.214
19186W        W92254  25.215  32.315  11.364
19187W        W92255  18.667  24.319  10.846
19188W        W92256  15.883   5.928  13.732
19189W        W92257   4.987   7.851  12.058
19190W        W92258  41.929  17.929   3.624
19191W        W92259  29.573   0.750   0.776
19192W        W92260  42.864  36.222  11.137
19193W        W92261  28.092  27.619   4.900
19194W        W92262  33.630  24.429  10.644
19195W        W92263  22.159  19.678   4.220
19196W        W92264  32.748  10.540   3.904
19197W        W92265  17.801  39.725  14.895
19198W        W92266  43.939  26.413  14.040
19199W        W92267  43.399   8.254   0.887
19200W        W92268  10.628   0.010  13.794
19201W        W92269  11.122  38.887  11.822
19202W        W92270  44.298   5.169   1.345
19203W        W92271  44.668  26.731   0.313
19204W        W92272  37.112  29.103   2.712
19205W        W92273  18.628  41.091   0.743
19206W        W92274  31.873  26.470   4.544
19207W        W92275   9.882   9.422  12.721
19208W        W92276  41.122  25.569  13.564
19209W        W92277  40.373   5.096  10.777
19210W        W92278  41.984   8.165   2.846
19211W        W92279   3.864   4.703   1.029
19212W        W92280  17.183  21.561  12.908
19213W        W92281   3.224  20.813  13.061
19214W        W92282   0.520  40.927  13.085
19215W        W92283  38.788  44.765  11.601
19216W        W92284  34.121  29.527   2.930
19217W        W92285  22.756  28.424  14.361
19218W        W92286   3.814  12.886   4.575
19219W        W92287  29.596   5.197   3.277
19220W        W92288  31.892   2.936   4.832
19221W        W92289  19.260   2.183   0.287
19222W        W92290  34.424   4.431  10.587
19223W        W92291  27.497  39.206   3.675
19224W        W92292  13.740  29.655   0.287
19225W        W92293  22.214  23.215  11.944
19226W        W92294  20.597  30.990  12.231
19227W        W92295  17.625   0.005  13.446
19228W        W92296  30.435  23.543   2.152
19229W        W92297  39.377  44.207   4.574
19230W        W92298   3.441  30.531  13.779
19231W        W92299  23.639  15.719   0.884
19232W        W92300  21.751  38.382   2.815
19233W        W92301  31.876  40.141  14.958
19234W        W92302  28.661  38.407  10.719
19235W        W92303  10.091  20.756  13.951
19236W        W92304  32.540  37.512  12.901
19237W        W92305  35.094   5.185   1.450
19238W        W92306  43.259  43.497  14.508
19239W        W92307  38.981  35.816   3.678
19240W        W92308  13.712   5.977  12.108
19241W        W92309  17.803   2.452  13.148
19242W        W92310   3.521  37.423  10.203
19243W        W92311   7.844  38.547  12.907
19244W        W92312  17.255  21.101   1.398
19245W        W92313  33.854   4.415  12.413
19246W        W92314   1.799  44.967   2.352
19247W        W92315  35.093   8.817  13.884
19248W        W92316  25.461  43.580  12.452
19249W        W92317   9.582  28.336  13.433
19250W        W92318   4.842  28.473   1.338
19251W        W92319  23.103  23.191   3.042
19252W        W92320   1.500   6.339   2.327
19253W        W92321  38.434  23.250   0.878
19254W        W92322  32.077  39.390   2.095
19255W        W92323  18.419  25.570   2.606
19256W        W92324  20.733  25.478  10.755
19257W        W92325  33.519  11.129   1.206
19258W        W92326  16.077   2.558  14.019
19259W        W92327  37.122   6.986  12.399
19260W        W92328  21.565   5.354   0.516
19261W        W92329  38.352  38.047   2.303
19262W        W92330  34.256  24.962  11.187
19263W        W92331  19.599  35.223   4.095
19264W        W92332  24.812  36.184  12.052
19265W        W92333  23.679   5.178  14.478
19266W        W92334   6.813   1.630   4.186
19267W        W92335  34.938   4.260  14.928
19268W        W92336  44.740  31.517  12.362
19269W        W92337  43.236  16.668  14.334
19270W        W92338  33.830  25.125   4.627
19271W        W92339   8.721   2.444  13.504
19272W        W92340  11.554  44.772  14.476
19273W        W92341  32.280  19.308  13.713
19274W        W92342  18.392   2.975   1.564
19275W        W92343  10.486  16.954   3.684
19276W        W92344   6.437  15.670  12.031
19277W        W92345  20.915  20.044   3.657
19278W        W92346  43.943   1.373   3.317
19279W        W92347  40.749  18.826   3.905
19280W        W92348  10.328   6.460  11.177
19281W        W92349  10.266   1.581   4.983
19282W        W92350   1.843   9.602   4.072
19283W        W92351  17.993   2.973   4.878
19284W        W92352  18.450   2.363  12.534
19285W        W92353  26.570   9.339  10.177
19286W        W92354  34.284  19.052   0.646
19287W        W92355  12.171  15.247  11.010
19288W        W92356  23.506  16.253  12.251
19289W        W92357  27.331  43.936  12.906
19290W        W92358  13.120  10.674   0.330
19291W        W92359   9.463  38.842  12.055
19292W        W92360  18.705  21.209   0.229
19293W        W92361   8.168  34.988  11.653
19294W        W92362   3.719  21.902   4.623
19295W        W92363  15.330  25.367  13.973
19296W        W92364  37.424  38.009  12.062
19297W        W92365  29.013  10.824  11.447
19298W        W92366   1.984   4.787   1.883
19299W        W92367   9.134  32.616   3.674
19300W        W92368  14.005   3.981  13.847
19301W        W92369  26.180  30.445  12.038
19302W        W92370  39.589  42.830   2.748
19303W        W92371  28.891  15.537  13.015
19304W        W92372  14.813  14.972  13.420
19305W        W92373   8.667  34.977  11.551
19306W        W92374  14.608  38.290  11.486
19307W        W92375  33.318   9.349   1.783
19308W        W92376  38.535  10.962  11.193
19309W        W92377   0.531  37.936  12.596
19310W        W92378  40.284   5.116  12.872
19311W        W92379  10.763  10.432  13.488
19312W        W92380   8.032  25.235  12.089
19313W        W92381   7.370  26.683  11.525
19314W        W92382  16.361  12.766  10.642
19315W        W92383  25.169   5.768   0.300
19316W        W92384   3.953  41.115  11.067
19317W        W92385  42.278   9.321  14.860
19318W        W92386   3.050   6.440   3.770
19319W        W92387   3.997  33.567   5.059
19320W        W92388  27.425   1.358   0.257
19321W        W92389  37.525  28.997  10.757
19322W        W92390  42.884  24.114  13.455
19323W        W92391   5.775   0.265   4.623
19324W        W92392  42.545   3.369   2.320
19325W        W92393   3.455  26.522   1.843
19326W        W92394  43.826  10.106   1.724
19327W        W92395  40.731  12.281  14.948
19328W        W92396   3.918   1.615   4.970
19329W        W92397  14.504  12.647   5.059
19330W        W92398  25.957  36.077   1.386
19331W        W92399  35.001  37.372   2.559
19332W        W92400  44.438  25.355  11.895
19333W        W92401   0.347  35.996  13.482
19334W        W92402  43.361  33.367  14.588
19335W        W92403  10.673   7.886   0.585
19336W        W92404  33.812  33.982   4.161
19337W        W92405  41.533  14.236  12.961
19338W        W92406   7.211  35.796  11.994
19339W        W92407  17.927  26.496   0.460
19340W        W92408  21.790   8.521  13.059
19341W        W92409  37.878   8.851   0.941
19342W        W92410   5.385   5.819  11.285
19343W        W92411  23.255  25.593  10.544
19344W        W92412  12.375  28.499  10.767
19345W        W92413   4.229  40.852   1.311
19346W        W92414  39.936  14.609   4.370
19347W        W92415  29.112  22.747   3.765
19348W        W92416  37.062  36.528  11.711
19349W        W92417  26.557  39.496   2.250
19350W        W92418  34.511   4.946  13.482
19351W        W92419  42.607   8.124   0.455
19352W        W92420   8.482  17.450  11.529
19353W        W92421   4.544  22.195   0.464
19354W        W92422  21.753  22.162   1.834
19355W        W92423  33.537  33.085   4.429
19356W        W92424  29.332  23.617  13.934
19357W        W92425   3.771  15.599   3.741
19358W        W92426  31.027  25.665   3.315
19359W        W92427  24.217   5.754  12.062
19360W        W92428   5.614  27.143   3.118
19361W        W92429  16.303  23.630   4.645
19362W        W92430  31.675  40.167  11.942
19363W        W92431  36.235  30.675  12.747
19364W        W92432   6.198  27.480  14.990
19365W        W92433  33.207   6.718  12.040
19366W        W92434  37.494  21.980  10.994
19367W        W92435  39.841  16.031   0.408
19368W        W92436  38.515   0.440   1.434
19369W        W92437  37.986  30.682   3.797
19370W        W92438  29.996  43.619  12.909
19371W        W92439  22.478  33.889   4.159
19372W        W92440  18.732   4.897   4.637
19373W        W92441  42.764   2.745   1.759
19374W        W92442  11.818  41.229  10.382
19375W        W92443   1.915  36.940  14.653
19376W        W92444   6.797   5.295   3.265
19377W        W92445   9.897  26.679  10.658
19378W        W92446  19.384  30.073   1.658
19379W        W92447   9.711  24.811   2.660
19380W        W92448   3.020   9.736   1.235
19381W        W92449  31.884  38.840   0.023
19382W        W92450  38.011  34.105  14.836
19383W        W92451  37.928  33.879   0.879
19384W        W92452   5.239   2.306   4.299
19385W        W92453  34.342  13.687  13.303
19386W        W92454  27.005   0.921   3.732
19387W        W92455  21.681  17.106  14.210
19388W        W92456  25.467  25.666   2.515
19389W        W92457  15.533   0.273   2.853
19390W        W92458  26.815   9.759   3.220
19391W        W92459   2.739  11.645   4.597
19392W        W92460  29.427  16.201  12.415
19393W        W92461  12.842  29.086   3.864
19394W        W92462  20.271  31.657  13.421
19395W        W92463   3.894  17.225  14.977
19396W        W92464  33.552  24.661  11.100
19397W        W92465  42.252  40.109   2.611
19398W        W92466   6.277  43.226   4.731
19399W        W92467  12.285  41.471  14.426
19400W        W92468   9.960  17.306   5.340
19401W        W92469  34.002  20.821  13.499
19402W        W92470   3.039  15.733   2.353
19403W        W92471   1.920  36.405   1.684
19404W        W92472  40.603   6.234   1.826
19405W        W92473  39.809   6.784   3.109
19406W        W92474  22.108  25.167   3.585
19407W        W92475  27.161  33.605   1.708
19408W        W92476  35.915  40.499  10.732
19409W        W92477  26.814   3.094  11.768
19410W        W92478  39.740  44.491  13.805
19411W        W92479   9.255  30.563  11.408
19412W        W92480  16.057  12.886   2.422
19413W        W92481   8.067  40.027   3.724
19414W        W92482  23.725  16.393   9.773
19415W        W92483  39.537  14.690  12.227
19416W        W92484   1.272  24.239   4.561
19417W        W92485  44.307   9.704  13.888
19418W        W92486   9.090   7.595   4.554
19419W        W92487  22.729  18.243  14.325
19420W        W92488   7.164  29.649  12.431
19421W        W92489   3.052  39.258  10.854
19422W        W92490  43.653  13.259  11.168
19423W        W92491  38.479  43.034  10.715
19424W        W92492  23.425  37.884  14.793
19425W        W92493  16.040  32.452  14.454
19426W        W92494  36.115  33.052   0.398
19427W        W92495   5.902  12.885   2.665
19428W        W92496  25.920  19.698  12.996
19429W        W92497   6.710  21.407  13.529
19430W        W92498  11.681   4.530   3.896
19431W        W92499  16.767  11.630   0.174
19432W        W92500  18.319  12.935   4.506
19433W        W92501   5.446  23.362   2.888
19434W        W92502  35.817  31.132  14.915
19435W        W92503  13.531  22.021  11.748
19436W        W92504   5.551  30.912   2.888
19437W        W92505  32.949  32.783  10.745
19438W        W92506  17.188  24.605  14.863
19439W        W92507   4.744  13.133   2.242
19440W        W92508  14.312   4.330  12.402
19441W        W92509   5.408  25.052  10.596
19442W        W92510   4.655  12.917   4.639
19443W        W92511  44.649   3.202   0.895
19444W        W92512   4.356   0.741  11.164
19445W        W92513  15.228   4.891  14.970
19446W        W92514  29.337  33.877   4.440
19447W        W92515  17.778   5.218  11.003
19448W        W92516  12.711  16.648   2.785
19449W        W92517  29.480  27.576   4.032
19450W        W92518  13.735   7.054  14.524
19451W        W92519  41.547  39.424   4.022
19452W        W92520  34.154   8.034   4.581
19453W        W92521  42.477  33.239   1.150
19454W        W92522  43.650  25.120  14.892
19455W        W92523  30.927  23.579   0.336
19456W        W92524  37.050   9.240   0.369
19457W        W92525   9.870  42.775  14.990
19458W        W92526   6.837  34.633  14.941
19459W        W92527  33.465  16.686  12.117
19460W        W92528   1.446  24.838   4.748
19461W        W92529  20.143  11.658   2.478
19462W        W92530  28.990   1.391  11.004
19463W        W92531  38.507   1.011   0.287
19464W        W92532  33.591  12.548  11.672
19465W        W92533  34.897   1.311   3.657
19466W        W92534   2.676  18.659   4.567
19467W        W92535   6.231  39.825  13.804
19468W        W92536   5.023  15.338  14.271
19469W        W92537   8.884   2.913  13.694
19470W        W92538   8.759  15.260   2.370
19471W        W92539  11.179  21.695   4.774
19472W        W92540   1.345  11.227   4.111
19473W        W92541  33.297  40.618   0.929
19474W        W92542  33.802  42.822   0.431
19475W        W92543  39.626  39.903   3.730
19476W        W92544  21.656  41.960  13.928
19477W        W92545  22.602   1.700  14.050
19478W        W92546   9.259  43.024   1.991
19479W        W92547  10.318  12.847   4.808
19480W        W92548  26.236  35.983   1.833
19481W        W92549  18.407  41.524   4.447
19482W        W92550  42.829  14.609   2.792
19483W        W92551  13.248  44.256  13.431
19484W        W92552  33.113  34.897   2.219
19485W        W92553   0.346  28.019   2.658
19486W        W92554   5.788  37.786   1.725
19487W        W92555  29.821  15.640  12.890
19488W        W92556  17.284  16.658  11.225
19489W        W92557  25.661  38.318   1.834
19490W        W92558   1.561  32.036   4.742
19491W        W92559  32.259  26.568   5.157
19492W        W92560  22.015  31.486  11.444
19493W        W92561  20.490  32.593  14.820
19494W        W92562  41.922   8.942  14.881
19495W        W92563  13.197   3.289   1.642
19496W        W92564  44.347  44.706  13.998
19497W        W92565  13.930  44.163   1.222
19498W        W92566  43.296  16.244  14.795
19499W        W92567  40.512   2.817   0.045
19500W        W92568  43.818  11.099  10.602
19501W        W92569  40.093   1.770   0.868
19502W        W92570  14.639  15.335   1.239
19503W        W92571   0.764  43.152  14.747
19504W        W92572  30.704  10.111  11.882
19505W        W92573  33.972  33.806  14.953
19506W        W92574  40.921  11.674   3.881
19507W        W92575  34.027  14.301  11.432
19508W        W92576   9.439   3.717  11.545
19509W        W92577  38.037  16.291   1.868
19510W        W92578  41.918  13.228   0.687
19511W        W92579  43.703  27.515  13.159
19512W        W92580   1.302  20.731   2.479
19513W        W92581  44.052  14.691  11.013
19514W        W92582  14.128  30.872  10.667
19515W        W92583  23.702  19.523   4.752
19516W        W92584  21.753  24.140   3.673
19517W        W92585  41.477  29.854   3.991
19518W        W92586  41.803  28.562   4.786
19519W        W92587   0.987  37.634   0.481
19520W        W92588  38.942  29.586  14.258
19521W        W92589   7.342   7.426   4.060
19522W        W92590  15.293   8.354   2.859
19523W        W92591  37.718  11.146  12.104
19524W        W92592  39.514  20.766   3.167
19525W        W92593  35.042  44.677  10.826
19526W        W92594   5.348   5.293  14.529
19527W        W92595  19.072   6.247   1.464
19528W        W92596  11.971  16.467   2.368
19529W        W92597  37.426  40.019   2.804
19530W        W92598   2.822  22.631  11.506
19531W        W92599  33.905  39.773   2.723
19532W        W92600  42.038  33.057   4.506
19533W        W92601  25.609   8.707   2.206
19534W        W92602  17.416   0.393  11.799
19535W        W92603   5.274  12.920   3.281
19536W        W92604  38.862  39.994  12.621
19537W        W92605   2.608  14.912  12.982
19538W        W92606  10.679  28.298   0.291
19539W        W92607   9.200  15.586  14.914
19540W        W92608   7.896  23.383  14.362
19541W        W92609  30.551  36.540  10.629
19542W        W92610   4.464   6.453   4.050
19543W        W92611   1.269  24.476   2.591
19544W        W92612  42.131  22.744   2.871
19545W        W92613  41.886  44.874   3.740
19546W        W92614   9.817  40.982   5.039
19547W        W92615  32.356   0.313  11.553
19548W        W92616  11.350  27.748   1.854
19549W        W92617  17.208  28.239   3.210
19550W        W92618   3.464   2.310  10.620
19551W        W92619  39.884   8.235   4.701
19552W        W92620  14.728  14.579   0.814
19553W        W92621  26.041  21.153  10.877
19554W        W92622  17.501  37.057  14.731
19555W        W92623  10.040  40.277  13.887
19556W        W92624  25.031   7.042  13.479
19557W        W92625  21.731  43.918   4.061
19558W        W92626  30.874  34.453   2.342
19559W        W92627  37.792  35.343   3.785
19560W        W92628  21.898  31.147   2.657
19561W        W92629  34.105  38.445  11.608
19562W        W92630  35.553  18.799   2.568
19563W        W92631  37.918  43.271  12.885
19564W        W92632  31.162  26.481   3.513
19565W        W92633   1.997  27.354  11.514
19566W        W92634   0.850  22.142  11.626
19567W        W92635  15.011  25.289  14.458
19568W        W92636   9.879  25.506  10.988
19569W        W92637  14.755  33.850   1.794
19570W        W92638  11.620  42.412   0.280
19571W        W92639  37.356  33.460   2.754
19572W        W92640  43.420  40.282   0.276
19573W        W92641  23.561   2.954  11.783
19574W        W92642   5.890  42.061   1.222
19575W        W92643  10.833  27.678   2.490
19576W        W92644  36.853  17.703   4.552
19577W        W92645  39.054   8.431  11.574
19578W        W92646   2.541  15.764   2.212
19579W        W92647   8.881  25.179  10.541
19580W        W92648  39.331  32.084   3.164
19581W        W92649  17.525  16.832  11.679
19582W        W92650  40.736  13.382   2.198
19583W        W92651  20.693   1.907  12.619
19584W        W92652   2.916  21.129  12.813
19585W        W92653  23.028   4.471   4.342
19586W        W92654   8.206  43.840   1.030
19587W        W92655  15.199  37.912  12.255
19588W        W92656  44.727  44.028   2.706
19589W        W92657  28.422   9.741   0.855
19590W        W92658   3.856  10.983  14.230
19591W        W92659   3.375   2.463  12.183
19592W        W92660  10.526   0.672  14.353
19593W        W92661  24.298  15.708   4.006
19594W        W92662   7.783   3.881   0.219
19595W        W92663  40.234  40.756   0.189
19596W        W92664  23.734   7.409   0.685
19597W        W92665   3.698  36.996   2.689
19598W        W92666   7.304  14.075  10.567
19599W        W92667   6.375  43.804   4.754
19600W        W92668  19.647   3.413   0.968
19601W        W92669  20.624  14.566  12.997
19602W        W92670  11.532  31.165  14.818
19603W        W92671  28.389   6.655  14.830
19604W        W92672  28.440  38.585  10.285
19605W        W92673  30.348   7.327  13.034
19606W        W92674  31.689   8.319   1.880
19607W        W92675  31.451   7.452  11.577
19608W        W92676  39.719  39.556   0.833
19609W        W92677   6.690   3.430   2.175
19610W        W92678  27.681  25.075   5.004
19611W        W92679  26.197  13.564   4.055
19612W        W92680  13.997  39.044   4.587
19613W        W92681  23.174  23.990   3.829
19614W        W92682  43.874  30.873   4.545
19615W        W92683  19.490  20.554  13.845
19616W        W92684  41.931  25.410  13.120
19617W        W92685  25.514  29.549   2.280
19618W        W92686  32.814   1.794   3.704
19619W        W92687  24.695  16.443   5.045
19620W        W92688  21.656  35.736  10.765
19621W        W92689   7.405   2.727   2.244
19622W        W92690  20.114   8.391  12.077
19623W        W92691   8.220  43.513   3.834
19624W        W92692  23.449  34.554  13.454
19625W        W92693  29.250  33.808  13.632
19626W        W92694  23.641  17.090   0.431
19627W        W92695   1.554  23.220   3.357
19628W        W92696  17.685  14.589  10.656
19629W        W92697   3.473   7.758   1.782
19630W        W92698  30.207  30.510  14.490
19631W        W92699  25.406   0.163  14.365
19632W        W92700  34.863  42.339  12.573
19633W        W92701  35.075  34.491   1.714
19634W        W92702  18.675  35.618  11.075
19635W        W92703   4.267   6.149  12.830
19636W        W92704  22.127  12.733   1.788
19637W        W92705  13.403  11.196  13.426
19638W        W92706  19.351  35.707  12.916
19639W        W92707  37.182  23.895   0.986
19640W        W92708  35.062  44.893   1.275
19641W        W92709   2.267  44.483   4.387
19642W        W92710  12.709  42.336   1.195
19643W        W92711  11.808  38.636  11.224
19644W        W92712  27.095  24.977  12.491
19645W        W92713  35.765  34.696   4.715
19646W        W92714  34.612  41.991   1.881
19647W        W92715  32.348  30.546  13.047
19648W        W92716  37.884  35.852  14.595
19649W        W92717  20.638  20.003   1.387
19650W        W92718  24.231  22.598  11.101
19651W        W92719  30.908  31.875   3.262
19652W        W92720  44.005  21.170  14.020
19653W        W92721  17.269  25.539  13.341
19654W        W92722  16.723  36.059  14.846
19655W        W92723  37.063  13.371   1.414
19656W        W92724   5.135  36.811  12.405
19657W        W92725  29.679  30.469   2.331
19658W        W92726  37.301  35.574   3.077
19659W        W92727   4.692  39.053   2.367
19660W        W92728  34.038  25.021  14.491
19661W        W92729  15.205   5.265   1.239
19662W        W92730  13.906  16.286  13.342
19663W        W92731  40.978   0.795   4.539
19664W        W92732  24.060  36.993   3.834
19665W        W92733  25.636   7.746   4.944
19666W        W92734   8.338  25.532   4.612
19667W        W92735   6.385  12.202  14.558
19668W        W92736  16.715  35.611  11.669
19669W        W92737  35.860   5.370   1.467
19670W        W92738  35.989  23.672  14.328
19671W        W92739  43.376   7.849  10.810
19672W        W92740  10.538  19.015   4.237
19673W        W92741  30.149  14.367  11.118
19674W        W92742   2.752   5.671   1.413
19675W        W92743   7.328  33.972   2.173
19676W        W92744  15.137  23.091  10.755
19677W        W92745   6.711  39.215   2.727
19678W        W92746  43.377  17.579  11.462
19679W        W92747  13.566  20.183  14.772
19680W        W92748  13.660   7.780   2.925
19681W        W92749   0.961  14.549  12.059
19682W        W92750  14.069   5.299   2.282
19683W        W92751  33.903  41.522  13.441
19684W        W92752  21.822  11.490   0.081
19685W        W92753  43.327  13.872   1.417
19686W        W92754  14.049   0.418  10.241
19687W        W92755  10.474  11.897   4.587
19688W        W92756  26.523   7.669  12.991
19689W        W92757  22.464   1.263   3.515
19690W        W92758  32.529  22.576   4.712
19691W        W92759   8.252  25.031  12.539
19692W        W92760  32.759  20.788  14.571
19693W        W92761  28.656  16.023   4.722
19694W        W92762  25.570  32.127  14.290
19695W        W92763  13.868   1.574   1.500
19696W        W92764  21.161  30.463  13.344
19697W        W92765  40.414  29.491   4.238
19698W        W92766   7.819  20.145  11.443
19699W        W92767  23.125  28.054  14.053
19700W        W92768  13.626  28.974   1.722
19701W        W92769  37.597   5.767  13.124
19702W        W92770  38.344  17.098  12.674
19703W        W92771  13.257   7.668  13.404
19704W        W92772  30.338   0.778   1.324
19705W        W92773  10.844  10.901   1.674
19706W        W92774  43.195  44.917  11.115
19707W        W92775  42.955  18.108  12.022
19708W        W92776   0.562  21.636   1.415
19709W        W92777  26.498   5.292   3.199
19710W        W92778  22.763  29.653  11.597
19711W        W92779  17.334   4.653  11.951
19712W        W92780  34.905  24.229  11.996
19713W        W92781  32.518  37.270  13.373
19714W        W92782  16.693  31.373   3.708
19715W        W92783  27.703   5.133   1.301
19716W        W92784  27.185  18.177   4.400
19717W        W92785  11.997   1.769   2.901
19718W        W92786  19.138  38.525   4.195
19719W        W92787  11.908  15.324  12.609
19720W        W92788   1.262   7.566  11.178
19721W        W92789  18.870  13.232  12.395
19722W        W92790  20.340  19.091  13.369
19723W        W92791  27.550  21.218   2.341
19724W        W92792  37.504  10.182  13.488
19725W        W92793  23.204  30.422   0.029
19726W        W92794  10.920  24.570   3.902
19727W        W92795  41.237  23.838   4.748
19728W        W92796  26.195  30.355   2.415
19729W        W92797  32.454  31.661  14.810
19730W        W92798  34.142  22.568  13.556
19731W        W92799  43.526  44.410  12.018
19732W        W92800  30.114  44.316   3.419
19733W        W92801   9.655  21.228   0.682
19734W        W92802  30.919  39.173  11.500
19735W        W92803  36.525  42.009   2.382
19736W        W92804  31.767  30.411   0.406
19737W        W92805  19.816  19.649   3.273
19738W        W92806  26.654  33.439  12.521
19739W        W92807  27.251  25.650   4.081
19740W        W92808  15.677   8.244   3.180
19741W        W92809   7.323  38.591  11.565
19742W        W92810   8.787  34.493   0.763
19743W        W92811   5.844  41.351  11.040
19744W        W92812   0.980  24.790  13.864
19745W        W92813  10.576  43.485  12.964
19746W        W92814  28.420  27.462   3.922
19747W        W92815  20.998  15.054   1.502
19748W        W92816  19.875  11.730   9.875
19749W        W92817  11.170  31.219  12.472
19750W        W92818  42.859  19.121   0.094
19751W        W92819  36.713  22.419  10.697
19752W        W92820  30.443  23.011   1.313
19753W        W92821   7.410  32.710  14.834
19754W        W92822  44.478  16.532  12.457
19755W        W92823  13.806  16.916  10.879
19756W        W92824  18.186  11.115   0.958
19757W        W92825   2.336   5.939   3.754
19758W        W92826   4.885  42.929  12.797
19759W        W92827   3.320  10.055   0.392
19760W        W92828  18.285   6.535  13.644
19761W        W92829  13.243  32.136  12.608
19762W        W92830  10.872  14.725   4.921
19763W        W92831   8.819  39.058  14.112
19764W        W92832  24.368   6.001  10.876
19765W        W92833  17.608  11.895   1.788
19766W        W92834  41.852   8.715  13.038
19767W        W92835  20.572  24.669  11.017
19768W        W92836   9.190  10.613   0.980
19769W        W92837  37.413  29.512  10.775
19770W        W92838   6.249   8.578   2.289
19771W        W92839  18.656  26.500   3.960
19772W        W92840  30.002  40.237   3.287
19773W        W92841  29.892  33.297   3.743
19774W        W92842   2.004  21.000   3.006
19775W        W92843  19.552  23.976  14.248
19776W        W92844  20.583  16.797   4.705
19777W        W92845  27.823  42.772  13.964
19778W        W92846  44.860  37.867   2.856
19779W        W92847  38.787   4.378  14.837
19780W        W92848  22.658  14.524  11.161
19781W        W92849   1.330  39.470  12.304
19782W        W92850  15.166  40.338  14.904
19783W        W92851  31.940  38.516  13.605
19784W        W92852  41.798   7.693   1.293
19785W        W92853  14.013  12.098  12.431
19786W        W92854   3.405   2.259   4.883
19787W        W92855   9.254  38.517   3.041
19788W        W92856  12.216   5.203  13.067
19789W        W92857  28.751  29.608  14.470
19790W        W92858  43.427   3.634   2.825
19791W        W92859  34.377  27.149   2.048
19792W        W92860  20.980  30.948   3.619
19793W        W92861  32.997  18.577   2.836
19794W        W92862  34.168   1.264  14.006
19795W        W92863   5.285   5.349  12.566
19796W        W92864  13.134  38.090  10.763
19797W        W92865  35.583  40.991  14.907
19798W        W92866  23.457  22.286   3.142
19799W        W92867  32.703   9.990  13.877
19800W        W92868  28.138  19.108   4.767
19801W        W92869  18.596  32.491  11.105
19802W        W92870  31.023   6.752  11.029
19803W        W92871  10.775  35.978   3.277
19804W        W92872  32.457  19.183   2.204
19805W        W92873  29.983  31.004   3.879
19806W        W92874  16.221  30.319   3.110
19807W        W92875  11.784  21.021   0.002
19808W        W92876  32.861  38.043  10.577
19809W        W92877   6.475  31.951  11.485
19810W        W92878  41.689  39.859  11.198
19811W        W92879  23.443  16.394   2.252
19812W        W92880  13.407  13.016  13.341
19813W        W92881   4.877  31.113   3.720
19814W        W92882   7.683  40.513  11.172
19815W        W92883  32.352  23.707   4.121
19816W        W92884  30.989  35.092  11.317
19817W        W92885  33.770  36.416  14.464
19818W        W92886  25.144  27.498   1.405
19819W        W92887  23.282  41.722  14.838
19820W        W92888   2.802   5.034  14.424
19821W        W92889  32.382  28.766   4.163
19822W        W92890  30.585  16.576  12.684
19823W        W92891   2.716  42.449  11.034
19824W        W92892  13.283  29.335  11.669
19825W        W92893   2.298  23.716   3.255
19826W        W92894  27.689   7.916  12.411
19827W        W92895   9.385  24.917  12.933
19828W        W92896   1.754  30.882   4.480
19829W        W92897  28.456  12.615  12.135
19830W        W92898   5.868   9.159   3.831
19831W        W92899  40.341  31.706   1.664
19832W        W92900  10.273   7.368  11.195
19833W        W92901   6.381   5.997  12.512
19834W        W92902   6.635  33.315  14.496
19835W        W92903  26.998   1.343  12.879
19836W        W92904  33.331  22.575  12.884
19837W        W92905   6.216  23.145  12.649
19838W        W92906  14.114  30.756   3.771
19839W        W92907  42.048  34.031   1.276
19840W        W92908  21.199  10.329   0.977
19841W        W92909  29.160   0.047   3.573
19842W        W92910  37.006  43.807  12.632
19843W        W92911  32.451  36.084   2.146
19844W        W92912  43.959   0.790   0.399
19845W        W92913  34.960  31.888  14.425
19846W        W92914  39.499   9.173  12.505
19847W        W92915  21.142  13.186  12.069
19848W        W92916  20.184  16.794   1.346
19849W        W92917   6.647  38.759  10.665
19850W        W92918  33.557   3.836   4.770
19851W        W92919  36.551  17.252   2.727
19852W        W92920  33.948   3.441   0.717
19853W        W92921  20.582  29.763   0.472
19854W        W92922  16.016  42.848  14.425
19855W        W92923  20.600  16.395  11.530
19856W        W92924  14.295  15.573   1.529
19857W        W92925   8.766  21.272  11.688
19858W        W92926  27.428  27.657  12.920
19859W        W92927  13.691   1.658  10.704
19860W        W92928  43.283  25.845  13.208
19861W        W92929  43.765  12.682  13.513
19862W        W92930  24.574  13.289   3.794
19863W        W92931  37.427   4.515   4.667
19864W        W92932  27.267   9.325   1.719
19865W        W92933  31.603  13.213  13.479
19866W        W92934  43.528  15.136  10.866
19867W        W92935  23.439  24.728   4.202
19868W        W92936  20.680   2.981  11.947
19869W        W92937  25.904  29.575   2.608
19870W        W92938  25.240  32.628  10.975
19871W        W92939   0.879  18.781   1.434
19872W        W92940  39.125  19.288  12.885
19873W        W92941  28.214  38.755   4.225
19874W        W92942   7.640   0.538   0.280
19875W        W92943  26.124   9.832  14.095
19876W        W92944  42.620   3.812   1.707
19877W        W92945  42.169   1.323   4.623
19878W        W92946  29.872  15.792  14.925
19879W        W92947  19.796  28.541   1.714
19880W        W92948  23.123  19.543  13.825
19881W        W92949  19.272   0.053  13.268
19882W        W92950   3.229  43.788  11.712
19883W        W92951  33.506   3.277   3.577
19884W        W92952  23.438  18.116  14.886
19885W        W92953  11.441  34.378  14.081
19886W        W92954  25.482   6.410   0.884
19887W        W92955  40.490  10.112  11.188
19888W        W92956  22.525  12.665  13.037
19889W        W92957   7.706   7.577   3.275
19890W        W92958  24.397  40.380   4.966
19891W        W92959  14.863  41.796   2.238
19892W        W92960  15.500  34.095   2.268
19893W        W92961   6.496  16.742   1.739
19894W        W92962  10.128  26.960   4.342
19895W        W92963   2.047  40.314   2.290
19896W        W92964   5.820  26.713  13.991
19897W        W92965  28.497  32.467   3.575
19898W        W92966  33.651  27.228  10.724
19899W        W92967  26.498  12.223   2.941
19900W        W92968   1.011  28.524  14.473
19901W        W92969  10.786  22.765   0.745
19902W        W92970  35.484  33.320   1.296
19903W        W92971  33.019  35.585   0.548
19904W        W92972   8.125  25.314  11.271
19905W        W92973  25.467   8.504   3.014
19906W        W92974  14.580  40.854   0.546
19907W        W92975  16.835  29.534  14.672
19908W        W92976  39.294  13.239  14.114
19909W        W92977  28.588  11.744  13.240
19910W        W92978   2.506  27.063  14.790
19911W        W92979  38.329  39.369   3.536
19912W        W92980   9.206  22.129   0.386
19913W        W92981  10.751  28.424   4.687
19914W        W92982  35.613  11.700   2.644
19915W        W92983  39.231  15.174   3.770
19916W        W92984  33.210  27.649   1.389
19917W        W92985  18.653  40.872  12.386
19918W        W92986  39.509  41.574  13.071
19919W        W92987  31.003  31.519  11.146
19920W        W92988  10.047   3.791   1.420
19921W        W92989  21.270   3.784  13.831
19922W        W92990  29.624  28.139  12.978
19923W        W92991  21.009  44.844   3.671
19924W        W92992  16.848  12.756   2.669
19925W        W92993  36.826   4.111  14.618
19926W        W92994  42.213  17.029   3.632
19927W        W92995  42.053  43.164   1.396
19928W        W92996  11.728   5.690   0.377
19929W        W92997  26.000  10.369   2.870
19930W        W92998  33.347  19.269   3.248
19931W        W92999  32.158   2.203  12.434
19932W        W93000  42.478  41.414  14.233
19933W        W93001   1.977  21.049   3.515
19934W        W93002  21.501  31.482  12.919
19935W        W93003   0.986   6.687  14.275
19936W        W93004  22.687  39.346  13.058
19937W        W93005  38.803  30.607  12.855
19938W        W93006  13.722  42.827  13.774
19939W        W93007  28.476   0.351   0.411
19940W        W93008  41.713  28.276  14.878
19941W        W93009  12.779   4.950   2.154
19942W        W93010   5.829   9.608   4.753
19943W        W93011  31.546  35.970   2.227
19944W        W93012  20.563   7.230   4.265
19945W        W93013   7.392  42.335  10.768
19946W        W93014  34.557  16.360  13.551
19947W        W93015  24.414   1.925   0.912
19948W        W93016   5.732  20.421   4.793
19949W        W93017  18.640  18.259   0.968
19950W        W93018  30.489   9.283   2.432
19951W        W93019   1.255  42.477   0.734
19952W        W93020   8.268  15.403   0.076
19953W        W93021  27.649  24.488   4.708
19954W        W93022   0.755  32.325   4.188
19955W        W93023   0.214  17.185   4.527
19956W        W93024   6.733  42.418   1.192
19957W        W93025  16.316  27.887   0.541
19958W        W93026  37.475  12.891   0.834
19959W        W93027   9.203  23.766   2.895
19960W        W93028   1.664  17.818   0.013
19961W        W93029   8.869  15.232  13.477
19962W        W93030  24.957   9.753   2.632
19963W        W93031  35.542  36.119  13.510
19964W        W93032  36.383  16.254  10.734
19965W        W93033  37.476   2.909  14.841
19966W        W93034  15.534  37.403   2.282
19967W        W93035  36.593  21.611  13.831
19968W        W93036   6.684  26.980  12.456
19969W        W93037  34.100  17.090   1.778
19970W        W93038   4.423   7.510   0.263
19971W        W93039  24.606  30.018   0.060
19972W        W93040  21.611  43.268   5.575
19973W        W93041   7.570   9.304  14.483
19974W        W93042  42.261  18.821   2.848
19975W        W93043   3.232  10.557   4.509
19976W        W93044  30.074   1.453  14.534
19977W        W93045   4.441   0.766   2.909
19978W        W93046  31.658  42.446  10.511
19979W        W93047  18.494  24.131  12.150
19980W        W93048  26.869  20.094   0.788
19981W        W93049  38.492  12.270  13.112
19982W        W93050  19.126  33.955   1.027
19983W        W93051   6.671  17.136   4.540
19984W        W93052  30.245  11.568  12.031
19985W        W93053   2.996  40.422  11.567
19986W        W93054   7.633  29.148  13.286
19987W        W93055  15.646  39.902  14.566
19988W        W93056  10.385  23.161  12.408
19989W        W93057  44.735   3.442  13.462
19990W        W93058  27.157  37.484  14.738
19991W        W93059   4.081   1.297   4.090
19992W        W93060  16.743   0.915  11.621
19993W        W93061  12.559  33.483  13.936
19994W        W93062  39.929  24.134   0.310
19995W        W93063  22.488   4.389   0.901
19996W        W93064  39.449   6.406   0.781
19997W        W93065  26.905   1.942  11.902
19998W        W93066   6.090  18.069   3.150
19999W        W93067  19.785  41.320  14.781
20000W        W93068   9.214   8.297  13.626
20001W        W93069   3.074  13.326   3.654
20002W        W93070  41.409  35.590   4.603
20003W        W93071  13.145  23.415  13.496
20004W        W93072  17.064  11.642  14.242
20005W        W93073   5.514   7.259   3.517
20006W        W93074  21.298  30.312  11.389
20007W        W93075   4.932  23.306   3.763
20008W        W93076  10.927   7.688  11.719
20009W        W93077  13.846  25.373  12.049
20010W        W93078  34.278   1.507  12.000
20011W        W93079  40.999  21.725   2.188
20012W        W93080  25.738  43.291   1.185
20013W        W93081   0.607  11.181  11.416
20014W        W93082  10.547  21.552  10.609
20015W        W93083  37.808  29.861   3.639
20016W        W93084  22.540  24.455   3.239
20017W        W93085  31.989  22.028   4.131
20018W        W93086  39.323  43.464   1.319
20019W        W93087   2.981  17.433   2.369
20020W        W93088  26.144  35.578  10.658
20021W        W93089  25.976  41.439  11.671
20022W        W93090  19.986  28.067   1.897
20023W        W93091  41.909   7.418  12.892
20024W        W93092  10.505  44.190   3.323
20025W        W93093  34.651  34.357  12.114
20026W        W93094  44.773   5.881   1.261
20027W        W93095  27.061  18.806   1.890
20028W        W93096  11.094  40.390   1.361
20029W        W93097   5.200  39.147   3.419
20030W        W93098  28.483  12.987  11.757
20031W        W93099  41.657  41.054   2.230
20032W        W93100  10.290  20.948  11.698
20033W        W93101  33.491  11.160  14.854
20034W        W93102   6.922   1.783  11.243
20035W        W93103   7.694  27.644   2.977
20036W        W93104  33.756   2.866   1.485
20037W        W93105  16.083   7.534  12.507
20038W        W93106  26.926  23.643  14.937
20039W        W93107  32.151  14.074  10.812
20040W        W93108   9.832  18.623   4.895
20041W        W93109  43.046  28.765  12.378
20042W        W93110  15.812  39.624   3.060
20043W        W93111  44.746  35.137  14.961
20044W        W93112  13.214  35.597   0.015
20045W        W93113  37.267  14.005  12.447
20046W        W93114  36.345  20.585  10.824
20047W        W93115   5.351   1.236  14.806
20048W        W93116  11.199  19.200   0.817
20049W        W93117   4.827  44.297  11.168
20050W        W93118  43.205   7.382   0.636
20051W        W93119  29.721  13.906   0.346
20052W        W93120  39.592   6.831  13.816
20053W        W93121  30.977  15.484  13.515
20054W        W93122  41.606  25.941   5.067
20055W        W93123  38.262  32.507   5.054
20056W        W93124  31.367  14.744  13.323
20057W        W93125  24.566  11.276  13.447
20058W        W93126  17.544   5.522   1.267
20059W        W93127  12.780   7.809   4.426
20060W        W93128  35.441  19.830  12.074
20061W        W93129  23.000   3.252   3.236
20062W        W93130   8.731  42.484   4.385
20063W        W93131  38.886  29.109   4.765
20064W        W93132  31.115  42.340  12.458
20065W        W93133  36.087  32.182   4.982
20066W        W93134  30.024  33.867  12.490
20067W        W93135  27.746  38.622  12.391
20068W        W93136  40.028  30.988  10.486
20069W        W93137   1.325  26.825   0.555
20070W        W93138  29.580  28.621   4.514
20071W        W93139  14.617  20.070  11.071
20072W        W93140  17.077  15.218   1.891
20073W        W93141   4.276  33.832  13.962
20074W        W93142  28.107   3.186  13.121
20075W        W93143   5.414  36.982   4.201
20076W        W93144  38.474  13.780   2.130
20077W        W93145  25.475  34.640   2.302
20078W        W93146  40.433  11.283  14.522
20079W        W93147  30.922  36.670  12.182
20080W        W93148  27.165   4.944   2.392
20081W        W93149  21.524  39.959  12.024
20082W        W93150  14.464  38.592   3.262
20083W        W93151  18.459  34.840  12.582
20084W        W93152   0.451  14.407   0.673
20085W        W93153  37.945  14.445  12.983
20086W        W93154  36.291  16.520  11.194
20087W        W93155  34.861   6.818  14.029
20088W        W93156  14.245  35.437   3.005
20089W        W93157  22.975  31.158  14.314
20090W        W93158  28.921   5.235   1.892
20091W        W93159  34.627  25.992  14.352
20092W        W93160   9.435  44.236  14.514
20093W        W93161  10.217   6.259  10.707
20094W        W93162  42.300  13.125   1.029
20095W        W93163  36.366   4.783   2.262
20096W        W93164  29.623  24.483  13.298
20097W        W93165  28.480   9.327   2.919
20098W        W93166   5.630  31.627  14.874
20099W        W93167  44.722  32.498  11.850
20100W        W93168  12.805  35.455   1.652
20101W        W93169   9.185  40.041   3.233
20102W        W93170   7.848  15.100  11.088
20103W        W93171  31.875  13.782  14.492
20104W        W93172  37.752  18.776  11.965
20105W        W93173   1.468  42.517  13.673
20106W        W93174  18.645  27.345   4.474
20107W        W93175  35.981  44.973   3.204
20108W        W93176  16.525  41.628   0.003
20109W        W93177  30.561  41.838  14.812
20110W        W93178  10.254  21.164   2.766
20111W        W93179  20.439  33.520   1.860
20112W        W93180  11.340  36.257  11.996
20113W        W93181  42.962   6.309  13.774
20114W        W93182  18.864  36.343  11.973
20115W        W93183  16.369   6.259  13.818
20116W        W93184  14.609  22.339   0.323
20117W        W93185  12.718  14.070   4.420
20118W        W93186   3.730  42.277  13.894
20119W        W93187  42.934  43.444   1.524
20120W        W93188  28.228   3.471   2.717
20121W        W93189   1.000  28.520   3.057
20122W        W93190  13.462  20.195   3.269
20123W        W93191   4.257  20.862  14.357
20124W        W93192  35.339  36.317   4.318
20125W        W93193  24.962   5.922   4.250
20126W        W93194  36.890  39.802  12.652
20127W        W93195  36.228  24.434   1.816
20128W        W93196  23.659  29.434  14.276
20129W        W93197  32.884  29.217   0.520
20130W        W93198  24.836   9.916  14.859
20131W        W93199   8.918  39.363  12.920
20132W        W93200  33.182  35.107  10.829
20133W        W93201  16.866   5.172   3.895
20134W        W93202   1.438  33.857   1.935
20135W        W93203  34.383   7.089   0.680
20136W        W93204   5.847  18.060  12.174
20137W        W93205  42.056  25.141  10.464
20138W        W93206  42.587   9.784  13.304
20139W        W93207  33.875  22.104  14.729
20140W        W93208  20.847  21.232   0.484
20141W        W93209  24.804  18.337  14.805
20142W        W93210  17.938  18.172  11.183
20143W        W93211  24.917  42.993   3.581
20144W        W93212   2.294  22.007  11.858
20145W        W93213   5.420  20.489  13.001
20146W        W93214  16.808   1.847  13.057
20147W        W93215  39.868   8.231   3.766
20148W        W93216   0.949   7.267  12.490
20149W        W93217   5.807   3.160  13.908
20150W        W93218  35.669  27.983  12.861
20151W        W93219  42.959   0.283   1.819
20152W        W93220  41.360  43.245  13.146
20153W        W93221   1.421  31.528   3.286
20154W        W93222  26.482  18.025   2.268
20155W        W93223  20.652   3.921   4.218
20156W        W93224  44.863   0.030   1.756
20157W        W93225   2.117   7.495   2.832
20158W        W93226  31.685  20.459  12.496
20159W        W93227  11.437   5.275  13.519
20160W        W93228   7.987  25.635  14.532
20161W        W93229  44.410  17.070  14.076
20162W        W93230  43.999  22.824  14.243
20163W        W93231  19.217  18.109  14.679
20164W        W93232  31.257   4.550   0.222
20165W        W93233  14.570  26.006   0.905
20166W        W93234   5.856  10.886  10.752
20167W        W93235  14.866  28.276   4.044
20168W        W93236   4.453  29.931  13.427
20169W        W93237  10.389  16.962   2.814
20170W        W93238   5.303  19.807   4.308
20171W        W93239  30.043  35.768   0.312
20172W        W93240  15.641  21.759   0.719
20173W        W93241  19.642  16.419   1.370
20174W        W93242  42.993  34.616  11.592
20175W        W93243  30.023  44.693  10.337
20176W        W93244  40.592  34.295  11.116
20177W        W93245  29.781  21.459   2.830
20178W        W93246  21.585  39.605   0.715
20179W        W93247  36.492  31.505   2.480
20180W        W93248  12.841   3.232   1.249
20181W        W93249  12.918  37.290   2.589
20182W        W93250   0.911  14.862   0.031
20183W        W93251  21.861  43.809   4.569
20184W        W93252   1.827  38.616   0.358
20185W        W93253  43.279  25.121  13.378
20186W        W93254  39.631  34.774   2.080
20187W        W93255  19.066  33.508   2.352
20188W        W93256   6.939   1.461   4.682
20189W        W93257  39.760  18.207   1.385
20190W        W93258  27.012   8.511  12.047
20191W        W93259  31.491   3.140  11.476
20192W        W93260  43.986  44.514  14.848
20193W        W93261  15.059  16.132  12.523
20194W        W93262  18.544  26.132  13.069
20195W        W93263   4.095  34.307  12.346
20196W        W93264  22.699   4.779  13.816
20197W        W93265  11.070  13.595  11.289
20198W        W93266  22.064   6.396  14.787
20199W        W93267   6.429  18.990   0.021
20200W        W93268  21.301  26.675   0.792
20201W        W93269  16.759  18.279   1.798
20202W        W93270   8.664  30.698   3.645
20203W        W93271   7.437  41.462   1.457
20204W        W93272   3.688  26.147  12.044
20205W        W93273  41.202  27.976  12.335
20206W        W93274  28.726  12.281   3.576
20207W        W93275  13.274  35.634   5.000
20208W        W93276  43.836   6.469  13.854
20209W        W93277   5.587  17.578  14.854
20210W        W93278  42.352  23.911   2.221
20211W        W93279  38.043  41.728  12.100
20212W        W93280   8.677  41.851   5.619
20213W        W93281  17.840  24.687   0.908
20214W        W93282  12.211  43.644   4.807
20215W        W93283  33.427  43.453   2.992
20216W        W93284  39.207  23.728   3.690
20217W        W93285  31.600  23.549  13.682
20218W        W93286  12.482  14.328  14.368
20219W        W93287   1.032   6.230  12.991
20220W        W93288  35.415  31.024  12.410
20221W        W93289  24.481  38.322  11.123
20222W        W93290   9.532  32.568   1.872
20223W        W93291  15.290  25.889   2.007
20224W        W93292  33.486   0.676  11.087
20225W        W93293  18.102  43.254  12.528
20226W        W93294  30.162   5.330   4.636
20227W        W93295  24.083  23.552   4.373
20228W        W93296  27.692  16.024   4.989
20229W        W93297  16.645  20.295   1.683
20230W        W93298   6.020  19.531   0.800
20231W        W93299  19.739   6.993   2.342
20232W        W93300  25.137  27.668   1.955
20233W        W93301   9.587  15.784  13.293
20234W        W93302   3.432  29.958  12.504
20235W        W93303  35.459  13.708  11.455
20236W        W93304  12.556   4.095  13.842
20237W        W93305  12.109  28.476  13.341
20238W        W93306  13.279  26.679   2.661
20239W        W93307  11.952  30.720   4.243
20240W        W93308   9.084  36.424  12.241
20241W        W93309  25.703  38.911   0.234
20242W        W93310  28.813  16.113  14.301
20243W        W93311  40.438  32.655  13.921
20244W        W93312  26.468  43.105  14.009
20245W        W93313  15.227  24.482  12.819
20246W        W93314  26.523  14.877   3.265
20247W        W93315   4.537  23.073  10.684
20248W        W93316  33.105  43.782   1.161
20249W        W93317   5.979  21.125   1.638
20250W        W93318   8.027  19.494   0.327
20251W        W93319   6.403   7.684   2.219
20252W        W93320  26.667  28.753  10.740
20253W        W93321  23.698  34.152   2.847
20254W        W93322  33.427  34.066   2.165
20255W        W93323  32.007  37.460  12.286
20256W        W93324   1.303   0.370  10.625
20257W        W93325  35.900  30.102   4.309
20258W        W93326  26.435   4.440   4.542
20259W        W93327  16.719   3.837  13.857
20260W        W93328  24.492  15.053   2.929
20261W        W93329  42.971   1.276   2.165
20262W        W93330  14.747  32.095  12.406
20263W        W93331  15.746  30.094   3.218
20264W        W93332  25.373   3.452   1.569
20265W        W93333  37.795  20.983  13.045
20266W        W93334  23.010  10.006   4.991
20267W        W93335  37.363  18.227  14.523
20268W        W93336  44.989   3.320  13.891
20269W        W93337  25.732  17.759   0.719
20270W        W93338  16.762  15.819  11.126
20271W        W93339  37.142   9.770  12.532
20272W        W93340  18.638  42.032   3.084
20273W        W93341  33.938  21.740   3.271
20274W        W93342  38.600   2.359  13.309
20275W        W93343  18.758  27.041  10.586
20276W        W93344  41.428  44.922  12.539
20277W        W93345  21.629   0.069   0.795
20278W        W93346  10.644  25.128   1.187
20279W        W93347  15.250   7.498  14.280
20280W        W93348  34.876  36.505   4.495
20281W        W93349  18.399  10.243   0.930
20282W        W93350  13.044  14.562  11.885
20283W        W93351  37.458  17.042   1.836
20284W        W93352  21.261  19.647  14.187
20285W        W93353  19.596  15.234   1.956
20286W        W93354  16.018  10.238   4.650
20287W        W93355  14.258  31.650   4.831
20288W        W93356   4.487  20.399  14.454
20289W        W93357  25.712  11.690   3.111
20290W        W93358  41.439  15.007  10.221
20291W        W93359  19.228  19.061   3.994
20292W        W93360  36.336   2.704  12.907
20293W        W93361  26.288  19.574  14.942
20294W        W93362   1.955  41.065  11.116
20295W        W93363  28.782   5.429   4.380
20296W        W93364  34.724  31.230   2.367
20297W        W93365  29.206  37.207   3.738
20298W        W93366  21.264  14.216  12.192
20299W        W93367  15.569  38.732   4.962
20300W        W93368  40.067   1.856  14.444
20301W        W93369  36.522  25.167  10.661
20302W        W93370  20.638  43.911  14.197
20303W        W93371  33.177  29.020  14.015
20304W        W93372  35.776  35.583   4.191
20305W        W93373   5.214   0.460   3.547
20306W        W93374  44.863   3.962   4.958
20307W        W93375  22.516   5.409   0.187
20308W        W93376  24.153  43.760  14.845
20309W        W93377  32.726  20.382   0.678
20310W        W93378  23.656   9.910  10.672
20311W        W93379  23.608  22.986  14.619
20312W        W93380   8.437  24.685  12.893
20313W        W93381  40.778  35.481   0.787
20314W        W93382   2.420   5.328   0.387
20315W        W93383  26.783  18.713  13.870
20316W        W93384  20.108  35.881   0.399
20317W        W93385  14.528   7.925   0.140
20318W        W93386  11.616   6.213  13.262
20319W        W93387  44.024   6.480   0.225
20320W        W93388  30.179  14.356  12.055
20321W        W93389  40.762  35.405   3.177
20322W        W93390  14.688   4.954  13.571
20323W        W93391   4.403  31.884   2.252
20324W        W93392  11.944  26.079   0.849
20325W        W93393  18.209  20.130  10.588
20326W        W93394  30.408  13.887  14.333
20327W        W93395  40.668  29.661   2.875
20328W        W93396   4.974  24.426  12.075
20329W        W93397  28.338  22.555  10.254
20330W        W93398  30.111  12.120  12.140
20331W        W93399  24.824   6.240  11.828
20332W        W93400  37.121  33.589   2.229
20333W        W93401  13.051  20.599   0.863
20334W        W93402  17.246  14.788   0.604
20335W        W93403   1.788  31.555   0.522
20336W        W93404  37.093  27.545   3.023
20337W        W93405  43.951   3.446  12.878
20338W        W93406   7.252   2.786   4.571
20339W        W93407  37.419  44.944  13.026
20340W        W93408  44.057  27.117   1.847
20341W        W93409   6.221  12.333  13.597
20342W        W93410  23.700  17.660  14.828
20343W        W93411   3.263  43.400   2.631
20344W        W93412   3.551  36.276  10.344
20345W        W93413  13.154  42.280   0.898
20346W        W93414  25.116   2.988  14.491
20347W        W93415   5.243  19.483   2.846
20348W        W93416  42.539   5.498  11.046
20349W        W93417  17.822  31.450   1.214
20350W        W93418  41.122   1.885   0.080
20351W        W93419  27.529   1.811  12.098
20352W        W93420  32.950  31.469  14.990
20353W        W93421   9.338  10.621   3.210
20354W        W93422  34.137  13.328   2.215
20355W        W93423   4.720   6.880   3.270
20356W        W93424  31.049  14.814   1.890
20357W        W93425  44.161   3.728  14.024
20358W        W93426  17.221  34.026   4.149
20359W        W93427  20.588  37.987   2.352
20360W        W93428   7.327   3.471  11.819
20361W        W93429   4.032   7.834  13.523
20362W        W93430   6.220  28.727   3.196
20363W        W93431   8.920  30.365   3.247
20364W        W93432  19.637  15.356   2.856
20365W        W93433  24.093   7.589   1.449
20366W        W93434  22.738   7.925  12.028
20367W        W93435  35.439  30.097   3.526
20368W        W93436  44.407  31.135  12.955
20369W        W93437  35.125  24.622   1.732
20370W        W93438  21.204  20.769  13.007
20371W        W93439   2.023  38.887   2.040
20372W        W93440   3.667   6.773  13.446
20373W        W93441  27.274   9.517   3.292
20374W        W93442   4.920  30.856  14.349
20375W        W93443   9.586  14.551  13.327
20376W        W93444  35.398  35.092  10.863
20377W        W93445  12.799  33.962  13.871
20378W        W93446  21.237   4.902   1.263
20379W        W93447  11.440   6.782   4.475
20380W        W93448  15.134   3.453  12.780
20381W        W93449  14.527  40.801   3.442
20382W        W93450  39.400  25.012   2.140
20383W        W93451  33.043  29.976  12.883
20384W        W93452  17.780   9.406  14.679
20385W        W93453   9.869  37.291  11.012
20386W        W93454   1.396  22.035   2.625
20387W        W93455  38.298  11.567   3.603
20388W        W93456  30.499   7.354  12.159
20389W        W93457   9.170  35.681  12.280
20390W        W93458  38.568   7.210   3.077
20391W        W93459  44.512  14.721  13.315
20392W        W93460  40.342  28.127  10.221
20393W        W93461  13.688  37.360  11.588
20394W        W93462  41.549  12.666   3.845
20395W        W93463   2.281  38.583  14.457
20396W        W93464  24.993  42.274   2.363
20397W        W93465  22.176  22.882  14.864
20398W        W93466   5.998   2.725   3.035
20399W        W93467  44.833  43.953  11.495
20400W        W93468  36.014   0.863   4.131
20401W        W93469  22.162  14.280   3.104
20402W        W93470  20.677  26.991   0.927
20403W        W93471   3.691   8.862   3.341
20404W        W93472  21.965   8.751   4.996
20405W        W93473  36.614  11.704  11.104
20406W        W93474  38.077  38.461   4.681
20407W        W93475  36.811  14.607  13.337
20408W        W93476  41.240  35.965   4.979
20409W        W93477   8.185   3.345  12.170
20410W        W93478   8.076  12.054  12.988
20411W        W93479   2.691  44.758  14.453
20412W        W93480  20.159  11.255   3.333
20413W        W93481   6.278  15.176  12.926
20414W        W93482  36.607  19.209   4.478
20415W        W93483  38.515  11.370  12.521
20416W        W93484  31.670  31.867   0.324
20417W        W93485  30.694  11.843   1.771
20418W        W93486   4.525  29.473   4.406
20419W        W93487  15.751   8.687  11.632
20420W        W93488  16.869  25.695   0.947
20421W        W93489  30.505  44.865  10.931
20422W        W93490  38.368   0.683  14.875
20423W        W93491  14.889  25.579   4.494
20424W        W93492  43.448  40.572  12.036
20425W        W93493  33.801   0.005   3.184
20426W        W93494  26.321   5.720   4.532
20427W        W93495  19.674  18.154   0.344
20428W        W93496   6.520  40.975   0.716
20429W        W93497  29.092  15.087   2.745
20430W        W93498  19.340   8.249  14.623
20431W        W93499  42.802  27.817   2.952
20432W        W93500  37.277  15.845   0.616
20433W        W93501   8.375  30.232  13.873
20434W        W93502  39.396   3.384   5.008
20435W        W93503  30.916   0.979  12.067
20436W        W93504   1.393  35.439  13.588
20437W        W93505  16.781  21.490   2.594
20438W        W93506  40.100  43.656  12.524
20439W        W93507  27.502   7.613   2.522
20440W        W93508   9.838  29.442   3.721
20441W        W93509  18.668  35.429  14.052
20442W        W93510  12.891  38.084  14.330
20443W        W93511   4.178  43.311  14.865
20444W        W93512  42.816  23.056   4.646
20445W        W93513  20.892  29.508  13.594
20446W        W93514  18.930  38.851   1.184
20447W        W93515  29.685   6.780  12.085
20448W        W93516  11.984  12.156   9.999
20449W        W93517   9.546  29.605   0.751
20450W        W93518  11.768  23.696   4.080
20451W        W93519   6.131  18.475  12.354
20452W        W93520  20.412  27.131  12.957
20453W        W93521   5.648  22.085   0.925
20454W        W93522  32.926  38.708   2.655
20455W        W93523  30.026  34.068   1.835
20456W        W93524  12.512  29.052  11.504
20457W        W93525  27.758  20.645  12.868
20458W        W93526   0.811  40.598   0.596
20459W        W93527  29.597  34.650  14.796
20460W        W93528  15.696  32.945  13.987
20461W        W93529  16.112  18.611   2.397
20462W        W93530  18.698   9.144   2.327
20463W        W93531  17.518   5.409  11.982
20464W        W93532  20.131  12.059   4.046
20465W        W93533  30.587  23.252   3.266
20466W        W93534  36.354  27.016   3.085
20467W        W93535  31.499  36.435   4.501
20468W        W93536   7.950  11.554  13.887
20469W        W93537  38.911  11.915  14.942
20470W        W93538  15.763   8.518  10.647
20471W        W93539  32.006  36.162   4.075
20472W        W93540  30.477  33.185   1.763
20473W        W93541  12.099  21.670   0.047
20474W        W93542  12.749   5.193  13.081
20475W        W93543  43.412  32.721   1.288
20476W        W93544  27.554  33.063   1.014
20477W        W93545  34.960   3.990  11.998
20478W        W93546   0.711  39.344   0.659
20479W        W93547  25.332  19.405   3.229
20480W        W93548  26.299  14.792   1.179
20481W        W93549   4.256  24.197  13.066
20482W        W93550  19.774  10.284   4.142
20483W        W93551  31.460   3.543  14.475
20484W        W93552  17.044   6.818  14.965
20485W        W93553   9.008  24.433  13.906
20486W        W93554  22.097  37.842  11.189
20487W        W93555  39.566   0.351   0.004
20488W        W93556  30.920   7.864  12.449
20489W        W93557  31.054   9.612   0.849
20490W        W93558   3.896  17.305   2.442
20491W        W93559  21.192  25.099  10.318
20492W        W93560  44.816  37.475   1.187
20493W        W93561  39.051   9.470  11.708
20494W        W93562   5.899  17.135  14.784
20495W        W93563  20.731  27.440  11.700
20496W        W93564   2.488  20.777   0.961
20497W        W93565   5.707   6.871  14.836
20498W        W93566  34.433  36.660  14.935
20499W        W93567  31.484  41.315  14.402
20500W        W93568  28.831  13.979   0.850
20501W        W93569  29.839  19.932  13.988
20502W        W93570  19.068  44.801   0.893
20503W        W93571  24.082  34.098  10.718
20504W        W93572  31.117   1.925  11.151
20505W        W93573   9.391  26.772   0.024
20506W        W93574   1.945  14.912  12.018
20507W        W93575   5.354  33.328  12.822
20508W        W93576  31.356  12.022   0.999
20509W        W93577  35.769  40.775  14.462
20510W        W93578   8.151  40.880  12.452
20511W        W93579  20.152  16.548   4.867
20512W        W93580  18.054  29.126  14.251
20513W        W93581  14.161   6.443   1.843
20514W        W93582  18.832  15.086  13.869
20515W        W93583   6.241   1.592  13.504
20516W        W93584  19.033  27.118  13.596
20517W        W93585  20.037   2.826   0.631
20518W        W93586  19.649  14.223   0.038
20519W        W93587  16.025  35.030   3.783
20520W        W93588  19.317  42.511   1.842
20521W        W93589  32.820  13.731   2.854
20522W        W93590   6.744  34.595   1.322
20523W        W93591  17.564  34.277   0.504
20524W        W93592  19.913  15.978   3.655
20525W        W93593  17.294  43.461  11.041
20526W        W93594   7.362  44.268  12.990
20527W        W93595   3.908  27.159  13.470
20528W        W93596  16.574   7.435   1.939
20529W        W93597  21.815  34.303   0.337
20530W        W93598  34.005  21.712  11.063
20531W        W93599  29.392  26.432   0.323
20532W        W93600  31.460   2.638   4.815
20533W        W93601  35.599  39.888  11.224
20534W        W93602   1.863  41.297  14.951
20535W        W93603  28.002   5.427  12.553
20536W        W93604  40.926  13.383   9.799
20537W        W93605   4.036  12.043   0.724
20538W        W93606  32.855  41.071  14.454
20539W        W93607  18.648  22.525  11.060
20540W        W93608  16.758  42.526   2.184
20541W        W93609  32.340  44.884   2.856
20542W        W93610   2.034  42.018   1.283
20543W        W93611  26.564   8.082   4.908
20544W        W93612   1.036   8.746   0.273
20545W        W93613  24.252  33.417  11.741
20546W        W93614   2.695   7.138   0.316
20547W        W93615  30.057  12.583   1.210
20548W        W93616   8.096  19.185   1.064
20549W        W93617  41.391  43.451   2.584
20550W        W93618   3.922  43.455  14.124
20551W        W93619  11.700   7.245  10.385
20552W        W93620  33.745  14.339  10.420
20553W        W93621  30.527  33.143  14.821
20554W        W93622  25.621  39.916   0.975
20555W        W93623   9.231  23.791   5.038
20556W        W93624  24.623  44.750   1.316
20557W        W93625   5.232   7.331   2.658
20558W        W93626  42.274  12.215  10.608
20559W        W93627   8.672  40.027   2.370
20560W        W93628   2.951  13.476   5.069
20561W        W93629  16.228  28.102   4.312
20562W        W93630  12.840  43.188   4.170
20563W        W93631   9.189  38.380  12.017
20564W        W93632  21.761  21.822  13.529
20565W        W93633  33.904  37.707  10.575
20566W        W93634  32.498  37.825  14.786
20567W        W93635  16.170  20.492   0.866
20568W        W93636   4.136  42.823  10.555
20569W        W93637  14.159   7.825  11.087
20570W        W93638  12.345  19.264  10.491
20571W        W93639   2.305  21.239  14.510
20572W        W93640  17.347  29.385  11.230
20573W        W93641  16.401  28.014   2.702
20574W        W93642  22.180   7.698  12.183
20575W        W93643  37.362  32.566  10.697
20576W        W93644  15.516  25.164   4.508
20577W        W93645  35.567  21.222  14.064
20578W        W93646   0.811   5.241   4.202
20579W        W93647  14.763  23.996  11.074
20580W        W93648  24.976   2.187  12.020
20581W        W93649  36.507   7.481   3.650
20582W        W93650  41.190  42.311   0.096
20583W        W93651  41.373  23.743  11.492
20584W        W93652  34.376  41.303   4.563
20585W        W93653  20.143  20.590   4.915
20586W        W93654   6.380  19.090   4.739
20587W        W93655  18.311  42.059  10.732
20588W        W93656  14.145  34.125  14.824
20589W        W93657  38.109   8.771   0.395
20590W        W93658  25.555  37.908  13.952
20591W        W93659   3.070  36.369   0.629
20592W        W93660  22.096   1.207  13.027
20593W        W93661   9.631  44.988  14.304
20594W        W93662  42.440  25.294   1.435
20595W        W93663  29.910  15.988   0.423
20596W        W93664  39.472  26.508   1.234
20597W        W93665  31.954  19.620   0.586
20598W        W93666   7.052   1.969   2.474
20599W        W93667   5.706   5.236   0.297
20600W        W93668   8.372   5.284   3.635
20601W        W93669  31.914  10.091   5.161
20602W        W93670  30.021  29.945   0.715
20603W        W93671  34.070  43.969  11.995
20604W        W93672   2.458   2.964   3.127
20605W        W93673  41.590  43.796   1.732
20606W        W93674  42.515  21.324   2.820
20607W        W93675   7.590  30.870   0.302
20608W        W93676  34.092   1.541  13.039
20609W        W93677  27.408   8.515  14.847
20610W        W93678  43.221  32.951   3.165
20611W        W93679   2.642  35.927  13.438
20612W        W93680  12.871  14.581  10.686
20613W        W93681  41.930  41.114  11.627
20614W        W93682  33.962   1.534   3.642
20615W        W93683  38.102   8.149   4.259
20616W        W93684  20.639   3.941   4.944
20617W        W93685  15.263  16.242   1.462
20618W        W93686  44.713  10.681  12.369
20619W        W93687  18.424  27.259  12.050
20620W        W93688  32.393   3.045  11.143
20621W        W93689   7.919  22.066   0.875
20622W        W93690  13.743  40.967   3.879
20623W        W93691  15.628  26.058   1.225
20624W        W93692  10.112  13.760  13.635
20625W        W93693  41.547   8.013   0.972
20626W        W93694   1.025  28.394  11.353
20627W        W93695   8.892  43.252  11.080
20628W        W93696  37.196  14.134  11.673
20629W        W93697   0.361  39.477  11.582
20630W        W93698  37.581   1.412  14.399
20631W        W93699  42.044  15.269   1.861
20632W        W93700  41.712  38.418   1.585
20633W        W93701   4.861  17.258   2.598
20634W        W93702  29.908  30.506  14.063
20635W        W93703   3.778   6.192  12.918
20636W        W93704   6.658  29.097   1.236
20637W        W93705  23.148  37.479  13.998
20638W        W93706  20.516  31.850   1.642
20639W        W93707  17.366  12.242  10.231
20640W        W93708   0.677  35.862  14.327
20641W        W93709  24.343  30.390  12.124
20642W        W93710  25.495  25.694   1.213
20643W        W93711   8.182  28.960   4.710
20644W        W93712  34.048   0.163  11.482
20645W        W93713  28.502  37.101   3.166
20646W        W93714  37.202  43.035  13.961
20647W        W93715   6.211   0.562   2.430
20648W        W93716  44.449   3.714   4.671
20649W        W93717   1.564  38.920   2.281
20650W        W93718  16.349  36.903  11.521
20651W        W93719   8.309   8.653  12.083
20652W        W93720  26.090  37.811  12.653
20653W        W93721  37.544   1.942   0.916
20654W        W93722  42.041  44.746  11.804
20655W        W93723  10.690  14.487   3.244
20656W        W93724  37.601  36.327   2.451
20657W        W93725  34.195  30.941   1.038
20658W        W93726  33.510  14.404   5.128
20659W        W93727  38.429  21.600   2.906
20660W        W93728  26.217  40.043   5.093
20661W        W93729   1.930  41.311   3.081
20662W        W93730   2.544  33.500  10.626
20663W        W93731   5.262  31.765  13.069
20664W        W93732   7.108   3.697  14.026
20665W        W93733  10.318  14.898  10.599
20666W        W93734  24.062  36.525  12.977
20667W        W93735  19.706   6.621  10.402
20668W        W93736  37.761   3.917  11.069
20669W        W93737  15.157  19.867  11.756
20670W        W93738  26.941  24.215  12.982
20671W        W93739  19.283  26.685  14.490
20672W        W93740  44.185   7.840   1.954
20673W        W93741  33.194  40.535  12.970
20674W        W93742  19.616  43.733  11.729
20675W        W93743  11.551   2.277  10.765
20676W        W93744  12.976  29.222   2.403
20677W        W93745  12.581  22.144   3.860
20678W        W93746  43.527  27.605   0.769
20679W        W93747   9.713  11.935   1.954
20680W        W93748  28.636  18.068   3.628
20681W        W93749  43.376  29.284   1.751
20682W        W93750  26.480  31.124   3.986
20683W        W93751   8.525  43.468  12.987
20684W        W93752  22.774  36.448  11.279
20685W        W93753  13.772  28.910  12.144
20686W        W93754  26.483   4.714  11.488
20687W        W93755  33.064   7.873   2.337
20688W        W93756  44.865  37.800  13.119
20689W        W93757  40.822  30.568   0.856
20690W        W93758   5.928  24.511   0.380
20691W        W93759  26.487   0.317   4.363
20692W        W93760  25.915  22.054   0.468
20693W        W93761   7.699   9.815  10.960
20694W        W93762  36.897  32.830  10.777
20695W        W93763   9.642  21.679  13.893
20696W        W93764  14.795  40.477  12.959
20697W        W93765  11.666  38.080  10.792
20698W        W93766  40.326  40.291  13.036
20699W        W93767  14.931  18.784  11.099
20700W        W93768  23.696  31.542  13.057
20701W        W93769  11.448  35.082  12.335
20702W        W93770  13.142   5.758   2.240
20703W        W93771  42.349  39.773  12.529
20704W        W93772  28.886  21.548  11.203
20705W        W93773  39.245  35.411   3.360
20706W        W93774   6.440  36.957   2.059
20707W        W93775   9.942  13.834   4.640
20708W        W93776  13.377  42.282   2.245
20709W        W93777  29.133  26.677  13.864
20710W        W93778   2.781  39.594   0.334
20711W        W93779  29.569   8.908   4.301
20712W        W93780   6.180  35.059  13.648
20713W        W93781  37.127   9.366   4.643
20714W        W93782  40.824  38.820   2.757
20715W        W93783   2.276  40.407  10.305
20716W        W93784  21.045  12.535  14.911
20717W        W93785  15.572  25.508  13.118
20718W        W93786  13.747  28.165   0.433
20719W        W93787  15.174  10.523   0.541
20720W        W93788  26.529  41.348   0.781
20721W        W93789  23.656  38.560   3.198
20722W        W93790   1.102  26.578   1.301
20723W        W93791  43.018   8.397   3.698
20724W        W93792   0.042  21.214   3.557
20725W        W93793  36.940  25.380   3.197
20726W        W93794  41.792   0.835   9.895
20727W        W93795  36.662  30.747   4.586
20728W        W93796   9.464   6.009   2.712
20729W        W93797   7.151  24.252  13.055
20730W        W93798  34.012  29.296  11.502
20731W        W93799  43.792  20.429   0.825
20732W        W93800  39.086   6.506  10.265
20733W        W93801   8.302   5.742  11.991
20734W        W93802  25.088  42.315  11.475
20735W        W93803   0.654  10.504   2.704
20736W        W93804  15.330   4.907   5.039
20737W        W93805  26.439   0.434   0.219
20738W        W93806  20.547  26.987  13.582
20739W        W93807   9.883   9.820   2.776
20740W        W93808  38.796   5.205  11.017
20741W        W93809  41.789   5.934  10.636
20742W        W93810  38.004  40.921  14.913
20743W        W93811  40.964  43.907  11.961
20744W        W93812   5.207  36.299   2.027
20745W        W93813   5.686  15.890  12.440
20746W        W93814  38.003  29.412   2.901
20747W        W93815   4.922   4.751   0.497
20748W        W93816  40.779  43.651   4.221
20749W        W93817  32.559  18.583  12.425
20750W        W93818  34.340  43.235   1.207
20751W        W93819   1.463  12.709  11.480
20752W        W93820  28.170  28.523  10.801
20753W        W93821   1.294  35.148  12.023
20754W        W93822  22.022   1.001  11.564
20755W        W93823  38.900   4.406   2.422
20756W        W93824   3.410  41.210   5.113
20757W        W93825   0.958  35.507   2.911
20758W        W93826  27.133  32.100  12.579
20759W        W93827  39.843  21.952   2.779
20760W        W93828  38.119   5.740  11.975
20761W        W93829  12.272   5.687   1.825
20762W        W93830  43.502   7.786  11.714
20763W        W93831  22.245  11.008  11.102
20764W        W93832  12.939  37.432   3.850
20765W        W93833   4.561   5.946   2.745
20766W        W93834  24.179  29.168  14.807
20767W        W93835  42.306  14.341   3.243
20768W        W93836  22.082  37.823   2.113
20769W        W93837  12.626   4.895  10.687
20770W        W93838   4.420  24.201   4.198
20771W        W93839  27.555   8.230   4.144
20772W        W93840  36.814  19.739  12.621
20773W        W93841  24.756   9.788   5.032
20774W        W93842  28.847  14.175  11.910
20775W        W93843  33.696  13.639   3.291
20776W        W93844  41.359   2.962   0.410
20777W        W93845  18.290  24.593  12.041
20778W        W93846  14.357  25.457  12.055
20779W        W93847  43.393  32.368  10.935
20780W        W93848  22.940  44.272  12.420
20781W        W93849  24.517  14.173  14.769
20782W        W93850  22.476  38.051  13.880
20783W        W93851  36.519  19.161  14.786
20784W        W93852  38.335  23.993  11.687
20785W        W93853  43.352   9.148  13.811
20786W        W93854  31.866  25.614   5.027
20787W        W93855  33.377   2.335   3.127
20788W        W93856  16.205  39.036  12.257
20789W        W93857  39.827  17.904   0.958
20790W        W93858  18.630  33.644  14.278
20791W        W93859  35.427  25.002  11.536
20792W        W93860  33.552  18.295   1.727
20793W        W93861  16.329  10.236  14.879
20794W        W93862  34.596  30.087   1.321
20795W        W93863  21.986  16.381  14.704
20796W        W93864  18.861  11.635   4.093
20797W        W93865  28.508  32.590   0.644
20798W        W93866   5.224   1.148  13.421
20799W        W93867   0.709  19.553  14.814
20800W        W93868  19.585  12.501  12.448
20801W        W93869  16.791   0.215   3.685
20802W        W93870  31.476  42.832   0.696
20803W        W93871  14.641   9.670   2.316
20804W        W93872   3.427  20.712   2.189
20805W        W93873  30.598  31.522   4.447
20806W        W93874  28.145  15.764   1.326
20807W        W93875   5.671   2.832   2.575
20808W        W93876  29.940  36.403  11.473
20809W        W93877  32.575  44.291  14.703
20810W        W93878   3.408  40.423   5.044
20811W        W93879   0.258  29.439  12.010
20812W        W93880   7.936  43.218  14.093
20813W        W93881  37.299  33.558   1.738
20814W        W93882  32.953  26.707   4.041
20815W        W93883  10.253  37.577   2.898
20816W        W93884   4.648  37.496  11.927
20817W        W93885  40.352  14.868   0.227
20818W        W93886  14.572  15.890   1.225
20819W        W93887  33.534  31.443   1.781
20820W        W93888  10.158  24.337   0.311
20821W        W93889  16.020  25.887   3.561
20822W        W93890   0.297  43.772   1.877
20823W        W93891  39.305  25.230  14.788
20824W        W93892  44.579  27.582  14.011
20825W        W93893   0.115   5.806   0.828
20826W        W93894  28.362  31.930   5.094
20827W        W93895  31.021  16.611  10.572
20828W        W93896   2.457   8.601   0.813
20829W        W93897  34.054  34.424  14.530
20830W        W93898  25.593  15.362   0.693
20831W        W93899  13.291  34.814   1.064
20832W        W93900   0.926  26.687   0.848
20833W        W93901  26.079  32.032   1.075
20834W        W93902   1.256  25.269  14.862
20835W        W93903  19.098  13.724   4.632
20836W        W93904  16.226  22.388   1.936
20837W        W93905  43.877  36.698  12.038
20838W        W93906  29.148   1.177   1.391
20839W        W93907  23.635  32.467   1.761
20840W        W93908   9.354  26.965   2.313
20841W        W93909  32.210  40.956   2.314
20842W        W93910   3.422  20.010   0.209
20843W        W93911  35.227  37.409  11.997
20844W        W93912  38.322  23.988   4.253
20845W        W93913  31.910   9.702  14.297
20846W        W93914  31.386  33.806   2.746
20847W        W93915  16.043  41.779   4.763
20848W        W93916   6.636  13.729   4.229
20849W        W93917  14.563  32.417   0.971
20850W        W93918  13.715   0.708   4.547
20851W        W93919   4.725  14.827   4.783
20852W        W93920  16.282  27.272   1.352
20853W        W93921  42.098  38.770   2.333
20854W        W93922  13.303   4.454  10.900
20855W        W93923  16.341  22.279  13.924
20856W        W93924  28.920  10.054   4.585
20857W        W93925  23.184  28.286   2.862
20858W        W93926  17.557  40.613  11.577
20859W        W93927   3.768   9.777   3.671
20860W        W93928  11.596   7.866   2.314
20861W        W93929  20.257  42.398   0.010
20862W        W93930  34.379  31.080   1.504
20863W        W93931  25.043  22.279   2.265
20864W        W93932  33.518  37.028  10.089
20865W        W93933   9.765  12.618   3.890
20866W        W93934  17.280  40.498   4.286
20867W        W93935  23.766  13.843   1.197
20868W        W93936  33.129  29.515   3.636
20869W        W93937  16.811  32.719  12.969
20870W        W93938  23.804   6.609   1.195
20871W        W93939  17.922  28.117  13.001
20872W        W93940  14.377   4.149  10.768
20873W        W93941   3.970  11.326  14.954
20874W        W93942  41.227  40.528  12.760
20875W        W93943   9.304  20.280  11.113
20876W        W93944  20.064  34.022  13.078
20877W        W93945   7.428  39.612  14.169
20878W        W93946  20.241  43.599   3.404
20879W        W93947  15.131  13.304  13.807
20880W        W93948   2.833  10.087   3.665
20881W        W93949  24.970  43.833  11.639
20882W        W93950   7.409  34.041   1.646
20883W        W93951  25.847  19.841  14.877
20884W        W93952  28.336  15.205  13.875
20885W        W93953  11.654  41.946  13.934
20886W        W93954  18.756  33.768   2.000
20887W        W93955  28.699   6.869  12.079
20888W        W93956  31.356   4.828   3.400
20889W        W93957   5.844  11.169   0.946
20890W        W93958  35.578  16.313   0.023
20891W        W93959  33.539  31.791   0.973
20892W        W93960   6.224  23.387  14.657
20893W        W93961   9.423  38.964   2.837
20894W        W93962  15.757  22.994   2.477
20895W        W93963   6.345  34.572  14.748
20896W        W93964  36.565  22.916  10.773
20897W        W93965  44.683   0.833  10.121
20898W        W93966  30.538  21.490  13.800
20899W        W93967  30.142   6.779   0.254
20900W        W93968  31.111  15.568  10.416
20901W        W93969  32.579  10.648  14.934
20902W        W93970  16.145  34.892  11.360
20903W        W93971  19.462  28.106   3.541
20904W        W93972  21.105  11.150  14.663
20905W        W93973  28.391  17.609  14.873
20906W        W93974   5.656  16.136  11.396
20907W        W93975  34.205   4.695  13.842
20908W        W93976  18.960   2.835   0.699
20909W        W93977  41.663  14.276   1.812
20910W        W93978  38.819  12.285   1.750
20911W        W93979  23.756  33.879   3.314
20912W        W93980  12.610  15.205  14.680
20913W        W93981  18.948  10.736  13.605
20914W        W93982   6.786  20.136  13.809
20915W        W93983  15.566   5.798   2.230
20916W        W93984   9.337  10.118  14.875
20917W        W93985   9.549  41.796   2.796
20918W        W93986   1.951  21.351  12.031
20919W        W93987  41.777  23.127   2.943
20920W        W93988  24.109  27.911  11.417
20921W        W93989  24.109  17.958   4.095
20922W        W93990  11.037  30.934   1.636
20923W        W93991  28.070   0.794  14.577
20924W        W93992  36.780  33.919   4.178
20925W        W93993   8.228  15.568   1.958
20926W        W93994   0.414  44.655   2.447
20927W        W93995  26.932  16.876  14.379
20928W        W93996  26.334  40.845   0.196
20929W        W93997  32.430  39.914   3.656
20930W        W93998  17.097  15.776   1.198
20931W        W93999  33.642  27.052   0.313
20932W        W94000  33.107  36.050   0.318
20933W        W94001  23.483  25.219  11.676
20934W        W94002  22.993  28.856  10.754
20935W        W94003  28.459  32.853   3.228
20936W        W94004  27.887  24.183   2.894
20937W        W94005  30.099  41.304   3.247
20938W        W94006  33.405  14.787   2.892
20939W        W94007   4.284   2.388   4.012
20940W        W94008  12.371  14.042  11.222
20941W        W94009   1.466   7.413  12.433
20942W        W94010  23.035  14.726   3.459
20943W        W94011  15.076  25.183  12.148
20944W        W94012  28.799  39.071   2.031
20945W        W94013  23.046  37.872  11.291
20946W        W94014  26.359  41.213   4.924
20947W        W94015  27.919  18.947  12.108
20948W        W94016  35.371  41.949  13.893
20949W        W94017  23.199  29.633   4.852
20950W        W94018  34.094   2.938   2.418
20951W        W94019  36.682  21.355  11.162
20952W        W94020  11.698  21.312   3.716
20953W        W94021  17.077   4.260   4.923
20954W        W94022  24.070  17.928   3.216
20955W        W94023   3.415   0.213   0.714
20956W        W94024  36.166  39.049  11.420
20957W        W94025   3.209  18.318  13.095
20958W        W94026   3.783  23.922   2.167
20959W        W94027  44.769  22.807   0.982
20960W        W94028  25.975  34.006   2.402
20961W        W94029  23.443   5.240   2.343
20962W        W94030  14.174  30.193   1.671
20963W        W94031  42.022  11.090  11.062
20964W        W94032   7.324  26.338   4.837
20965W        W94033   7.621  23.677   1.215
20966W        W94034  38.018  12.378   2.248
20967W        W94035   0.382  31.916  14.304
20968W        W94036  21.970  38.784   0.862
20969W        W94037  15.001   7.738   0.276
20970W        W94038  42.274  38.956   3.694
20971W        W94039  15.347  26.956  10.525
20972W        W94040  34.844  37.077  13.092
20973W        W94041  12.154  44.771  10.916
20974W        W94042  25.486  17.565  14.393
20975W        W94043  34.830  30.543  12.902
20976W        W94044  15.144  30.753  13.944
20977W        W94045  27.535  29.268  12.442
20978W        W94046   1.358   1.387  12.518
20979W        W94047   2.087  21.502   1.418
20980W        W94048  20.696  22.626  12.564
20981W        W94049  25.632  10.355  12.037
20982W        W94050  12.900  35.542   3.238
20983W        W94051  35.191   4.653  14.645
20984W        W94052  24.719   4.759  12.040
20985W        W94053  40.549  41.839  12.638
20986W        W94054  26.761   4.598  11.085
20987W        W94055  33.934  26.404   2.630
20988W        W94056   1.355  43.994   3.654
20989W        W94057  30.671   5.351   0.296
20990W        W94058  26.190   2.403  12.515
20991W        W94059  34.058  30.532   0.733
20992W        W94060  14.294  38.828   0.982
20993W        W94061   4.977  21.251   1.864
20994W        W94062  13.259  33.580  14.576
20995W        W94063  33.636  26.646  13.858
20996W        W94064   2.057   1.359   0.757
20997W        W94065  44.764  14.851  13.921
20998W        W94066   0.536  40.542  12.106
20999W        W94067  42.498  10.731  11.969
21000W        W94068   0.929   9.559   4.301
21001W        W94069  33.488   0.488   4.102
21002W        W94070  26.998  12.896   3.336
21003W        W94071   2.781  32.148  14.321
21004W        W94072  24.986   1.076   1.333
21005W        W94073  12.965   5.256  13.563
21006W        W94074   4.134  25.480  13.803
21007W        W94075  27.224  12.891  13.033
21008W        W94076   2.665   8.740  14.801
21009W        W94077  24.960  22.728  11.560
21010W        W94078  27.476  27.098  11.646
21011W        W94079  44.286   1.720  11.135
21012W        W94080  27.606  25.734   1.441
21013W        W94081  24.213  18.606   0.295
21014W        W94082  21.632  40.669  14.751
21015W        W94083  25.185  21.344   4.625
21016W        W94084  11.083  30.888  12.033
21017W        W94085  13.073  35.082   1.433
21018W        W94086  40.992   8.091  12.855
21019W        W94087  31.910  18.122  14.037
21020W        W94088  31.201  32.082  13.125
21021W        W94089   9.856  28.591  14.951
21022W        W94090  11.866  33.458  12.133
21023W        W94091  23.102  37.945  10.779
21024W        W94092  26.346  17.649   3.556
21025W        W94093  26.766  33.319   4.354
21026W        W94094  41.343   3.831  11.495
21027W        W94095  15.720   5.746   4.767
21028W        W94096  40.398  31.333  10.350
21029W        W94097  39.331   9.963   0.391
21030W        W94098  29.661   8.494   4.648
21031W        W94099  34.945  42.987  11.957
21032W        W94100  25.089  14.364  12.077
21033W        W94101  41.194   6.919  12.430
21034W        W94102  22.201  35.706   4.148
21035W        W94103  21.810  21.709  11.920
21036W        W94104   4.214  11.154   2.292
21037W        W94105  21.805   1.212   2.184
21038W        W94106  34.440  24.489  11.297
21039W        W94107  16.579   7.790   2.333
21040W        W94108  37.303   0.061   4.693
21041W        W94109  21.841  28.773  13.009
21042W        W94110  39.287  39.943  11.875
21043W        W94111  17.822  16.241   0.013
21044W        W94112  27.785  12.241  11.574
21045W        W94113   5.240  42.789  14.217
21046W        W94114  44.741  12.954   4.636
21047W        W94115  13.855   2.281  11.283
21048W        W94116   8.443  34.932  12.366
21049W        W94117  35.912  11.701  11.508
21050W        W94118  40.432  34.428   1.806
21051W        W94119  12.069  23.060  14.416
21052W        W94120  27.312  24.172   2.031
21053W        W94121  36.504  29.335   3.758
21054W        W94122  33.409   9.099  12.977
21055W        W94123  41.733   3.293  10.263
21056W        W94124  41.937  36.811  10.859
21057W        W94125  23.005  26.075   0.841
21058W        W94126  14.342   4.385  13.746
21059W        W94127  24.942   1.045   0.457
21060W        W94128  33.419  18.807   4.434
21061W        W94129  17.747  19.814   0.705
21062W        W94130  11.197  22.611   0.996
21063W        W94131  17.588  19.793  12.460
21064W        W94132  11.334  16.164   0.726
21065W        W94133  12.843  26.408  11.838
21066W        W94134  15.981  35.327  11.096
21067W        W94135  10.001  36.165  11.961
21068W        W94136  20.785   6.690   2.307
21069W        W94137  21.694  22.816   3.991
21070W        W94138  12.164  28.417   1.203
21071W        W94139  18.170  17.580   1.280
21072W        W94140  21.275  35.435  11.196
21073W        W94141  31.938  11.758  13.387
21074W        W94142  10.170  24.081   0.773
21075W        W94143  39.535  27.674   0.100
21076W        W94144  15.156  30.696   3.641
21077W        W94145   6.163  20.086  10.694
21078W        W94146  31.059  44.782  10.625
21079W        W94147  37.342   5.713   0.344
21080W        W94148  30.613  14.782  12.798
21081W        W94149  17.582   9.729   1.473
21082W        W94150   4.831  25.941   1.972
21083W        W94151  14.301  27.378  13.923
21084W        W94152  35.017  17.564  14.411
21085W        W94153  30.034  15.848   3.568
21086W        W94154  14.521  38.413   4.143
21087W        W94155  29.832  39.827  10.753
21088W        W94156   5.369  38.422  10.757
21089W        W94157  14.851  17.562   1.815
21090W        W94158  28.571  30.851  14.941
21091W        W94159  15.738   0.593   9.910
21092W        W94160  20.096  33.900   0.070
21093W        W94161  28.394   4.827  14.400
21094W        W94162   3.292  22.250  12.801
21095W        W94163  22.636  40.486   4.739
21096W        W94164   9.647  19.810   2.946
21097W        W94165  44.614   8.322   2.300
21098W        W94166   3.988  20.119   2.436
21099W        W94167  10.856   0.346  14.719
21100W        W94168  14.354  37.069   2.915
21101W        W94169  29.465  10.815   3.807
21102W        W94170  40.748  24.082  11.165
21103W        W94171  13.034  11.373  13.061
21104W        W94172  39.559  42.630  14.443
21105W        W94173  42.059   1.147  11.993
21106W        W94174  38.913  36.076   4.153
21107W        W94175  24.749  26.522  10.661
21108W        W94176  28.159   3.880  12.574
21109W        W94177  21.570  23.907  10.622
21110W        W94178  32.969   9.835  13.085
21111W        W94179  11.522  23.250  11.597
21112W        W94180  23.047  25.605   1.555
21113W        W94181  14.743  11.191   1.724
21114W        W94182  23.296   2.243   4.116
21115W        W94183  19.097  29.239   1.804
21116W        W94184  11.602  19.756   4.543
21117W        W94185  24.676  37.484  12.338
21118W        W94186  34.115   2.465  13.461
21119W        W94187   0.956  36.925  11.986
21120W        W94188  31.704   6.582   1.488
21121W        W94189  35.831  41.511  11.684
21122W        W94190  39.915  26.083   1.880
21123W        W94191  27.999  18.209  12.911
21124W        W94192   2.882  14.471  13.262
21125W        W94193  10.107  21.793  10.707
21126W        W94194  16.508  15.972   0.363
21127W        W94195  43.397  38.524   0.524
21128W        W94196  17.044  40.551  12.618
21129W        W94197  18.420   7.293  14.228
21130W        W94198   7.782   3.367   0.097
21131W        W94199  35.022   5.536  13.652
21132W        W94200  29.366  43.961   2.527
21133W        W94201  20.621  16.330  14.358
21134W        W94202  12.275  15.545  14.897
21135W        W94203  14.071  35.020   3.718
21136W        W94204  36.870  31.977  12.090
21137W        W94205  29.463  26.456   3.226
21138W        W94206  17.554  11.823  11.938
21139W        W94207  18.595  19.818   1.975
21140W        W94208  22.306  36.963   0.415
21141W        W94209  34.151  14.394   0.890
21142W        W94210  33.999  36.676  11.462
21143W        W94211  36.991  24.154  10.379
21144W        W94212  21.586  19.523   2.921
21145W        W94213  39.542  35.617   3.736
21146W        W94214  39.984  27.426  14.952
21147W        W94215  16.346   4.668  14.005
21148W        W94216  18.352  30.228  13.993
21149W        W94217  16.482  33.116   2.763
21150W        W94218  22.950  16.984  13.442
21151W        W94219   6.317   0.256  13.299
21152W        W94220  34.107  11.780   3.667
21153W        W94221  32.067  38.899  11.852
21154W        W94222   2.175   1.432  11.133
21155W        W94223  17.106  25.062  10.671
21156W        W94224  10.915  23.140   0.401
21157W        W94225  43.493  14.674  14.263
21158W        W94226  43.137  34.201   2.249
21159W        W94227  36.770  13.661   0.056
21160W        W94228  44.004  31.924   2.278
21161W        W94229   4.686   9.826  13.354
21162W        W94230   9.341   6.434  11.096
21163W        W94231   9.533  12.760  12.046
21164W        W94232  16.004  17.538   0.738
21165W        W94233   7.857  12.974   1.185
21166W        W94234  15.543  32.522  12.536
21167W        W94235  21.993  23.072   3.634
21168W        W94236  28.993  26.153   3.640
21169W        W94237   6.245  10.999   1.803
21170W        W94238   6.487  40.009   0.203
21171W        W94239   3.639   6.981  11.701
21172W        W94240  25.053  23.998  12.111
21173W        W94241   3.445  12.577   2.686
21174W        W94242  36.610  34.107   0.452
21175W        W94243  27.029  36.395   1.718
21176W        W94244   3.349  19.809  12.902
21177W        W94245  32.895  20.968   4.210
21178W        W94246   5.219  19.527   1.892
21179W        W94247  28.475  19.320  13.276
21180W        W94248  10.943  25.930   0.114
21181W        W94249  25.711   5.153  12.421
21182W        W94250   9.410  25.741   3.692
21183W        W94251  30.421   4.780  12.569
21184W        W94252   5.641  14.836   2.797
21185W        W94253   2.644  19.689   3.740
21186W        W94254  10.645   9.228   1.762
21187W        W94255  24.176  18.812   4.956
21188W        W94256  12.336  20.338   1.332
21189W        W94257  31.667   1.249   4.858
21190W        W94258  35.398  44.488   2.313
21191W        W94259  35.887   3.366  13.327
21192W        W94260  16.639  18.797  13.423
21193W        W94261  15.734   4.460   9.920
21194W        W94262  28.870  13.366   1.758
21195W        W94263  42.420  17.245   0.373
21196W        W94264  11.319   8.202   3.125
21197W        W94265  29.031  36.709   4.521
21198W        W94266  17.588  37.852   4.125
21199W        W94267   8.621  19.485   5.282
21200W        W94268  30.997  13.614   3.815
21201W        W94269  29.101  11.193   2.323
21202W        W94270   3.939  35.154  10.659
21203W        W94271   6.473  44.606  10.277
21204W        W94272  23.503  27.015   3.150
21205W        W94273  32.488   4.983   0.501
21206W        W94274   0.019  28.541  14.242
21207W        W94275  21.297  28.949   1.473
21208W        W94276  11.830  10.790   3.691
21209W        W94277   1.830   8.379   1.159
21210W        W94278  23.752  24.643   2.416
21211W        W94279   7.774  30.841   1.255
21212W        W94280  36.964  20.536  14.897
21213W        W94281  10.671   3.614  13.115
21214W        W94282   5.513  25.727  12.540
21215W        W94283   9.941  37.134  13.777
21216W        W94284  24.122  38.401  13.719
21217W        W94285   7.149  26.794   4.664
21218W        W94286  37.318  10.404  14.813
21219W        W94287   8.317   1.729   4.718
21220W        W94288  42.200  25.582  11.282
21221W        W94289  27.422  41.552  13.891
21222W        W94290  14.795  35.620  12.422
21223W        W94291  44.184  12.204  12.394
21224W        W94292  19.644  10.175   1.261
21225W        W94293   6.295  32.751  10.844
21226W        W94294  41.801  29.725  14.961
21227W        W94295  33.476  24.172   4.199
21228W        W94296  38.452  40.242   1.636
21229W        W94297  25.639  22.214   0.881
21230W        W94298  12.652  32.829  13.484
21231W        W94299  32.110  35.138  11.461
21232W        W94300  30.000   6.883  11.549
21233W        W94301  29.272  28.918  13.220
21234W        W94302  27.419  40.987   4.636
21235W        W94303  15.521  39.509  10.683
21236W        W94304  25.883  16.141  11.094
21237W        W94305   4.187  32.166   3.694
21238W        W94306   3.805   4.272  10.758
21239W        W94307  36.416   9.202   0.710
21240W        W94308  18.297  28.166  12.641
21241W        W94309  25.902  14.435  13.590
21242W        W94310  17.795  16.351   2.197
21243W        W94311  11.726  38.085   0.159
21244W        W94312  20.942  37.528   0.382
21245W        W94313  41.924  44.249   0.508
21246W        W94314  12.522  15.487  11.553
21247W        W94315  19.965  42.414   0.455
21248W        W94316   1.373  38.455  10.701
21249W        W94317  15.334   8.755  12.278
21250W        W94318  38.531  22.183  14.324
21251W        W94319  17.987  36.953  14.909
21252W        W94320   5.880   9.738  12.999
21253W        W94321  18.801   8.650  10.791
21254W        W94322   6.847  12.935  13.050
21255W        W94323   7.985   4.300   3.689
21256W        W94324  26.974  42.574   0.483
21257W        W94325  37.884  24.232   2.825
21258W        W94326   7.022  41.546  10.561
21259W        W94327  14.568  34.433  14.721
21260W        W94328   8.270  27.855   0.091
21261W        W94329   1.172   4.400  12.201
21262W        W94330  40.056   0.545   3.743
21263W        W94331  22.437  19.893  13.866
21264W        W94332  19.913  20.654   0.656
21265W        W94333  20.072  23.568  11.734
21266W        W94334  35.845  39.995   1.700
21267W        W94335  36.427  36.021  12.398
21268W        W94336  10.750   4.432   0.677
21269W        W94337  30.008  43.783  11.460
21270W        W94338   1.686  37.561  13.374
21271W        W94339  11.514   0.526   1.981
21272W        W94340  26.419   9.749   1.855
21273W        W94341  34.993  40.540   4.555
21274W        W94342   5.270  10.350  13.424
21275W        W94343  17.258  15.364  11.722
21276W        W94344   8.145  39.383   2.851
21277W        W94345  26.904  16.493  13.468
21278W        W94346  42.870  28.380   1.382
21279W        W94347  12.788  34.471   2.638
21280W        W94348  18.165  23.903   0.746
21281W        W94349  13.906  14.957   3.333
21282W        W94350  14.266   8.700  12.103
21283W        W94351  42.287  31.613   0.252
21284W        W94352  27.613  10.748  14.707
21285W        W94353  43.890  15.749  13.586
21286W        W94354  32.040   1.205   1.867
21287W        W94355  29.513   0.931  14.026
21288W        W94356  33.061  14.865  10.761
21289W        W94357  10.721  22.683   2.945
21290W        W94358  10.875   3.318   2.789
21291W        W94359   4.836  40.508   0.449
21292W        W94360  26.979   0.074  10.681
21293W        W94361  25.998   8.282  11.066
21294W        W94362   5.784   7.413  10.769
21295W        W94363  36.320  28.417   0.241
21296W        W94364  34.413   5.170   0.893
21297W        W94365  38.419  39.052  11.627
21298W        W94366  30.022  36.636  10.624
21299W        W94367   8.672  15.218   0.347
21300W        W94368  38.271  24.603  14.222
21301W        W94369  27.402  26.945   0.957
21302W        W94370  21.608  14.022  11.126
21303W        W94371  22.528  44.054  13.537
21304W        W94372  12.151  27.449   2.204
21305W        W94373   2.162  26.359   0.320
21306W        W94374  14.095   4.893   4.986
21307W        W94375  28.110  41.012   4.293
21308W        W94376   0.095  11.936   4.551
21309W        W94377  38.804  41.003   4.503
21310W        W94378   8.839  27.770  12.853
21311W        W94379  16.461  14.823   2.276
21312W        W94380  16.109   0.753   2.724
21313W        W94381  36.420  31.200   4.628
21314W        W94382  22.810  34.990  13.996
21315W        W94383   9.606  14.286   2.450
21316W        W94384  24.927  29.009  13.738
21317W        W94385  26.870  16.561   3.259
21318W        W94386  22.040  32.573   1.172
21319W        W94387   7.231  17.309   3.363
21320W        W94388  26.110   6.877   4.881
21321W        W94389   9.686  16.558   1.858
21322W        W94390  43.562  29.034  13.089
21323W        W94391   8.128  19.679   2.116
21324W        W94392  23.492  19.212  14.957
21325W        W94393  12.307  36.409  11.567
21326W        W94394  31.194  40.360   4.614
21327W        W94395  13.715  43.237   4.758
21328W        W94396  22.215   1.368   1.492
21329W        W94397  34.930  23.536   1.233
21330W        W94398  12.039  44.003  12.993
21331W        W94399   8.797   8.417   4.555
21332W        W94400   7.840  26.176  10.492
21333W        W94401  29.691  33.671   1.759
21334W        W94402  20.735  33.464  13.994
21335W        W94403   1.467  26.662  14.587
21336W        W94404  18.071  42.723  12.565
21337W        W94405  41.001  28.274   0.227
21338W        W94406  34.627  42.216  14.408
21339W        W94407  36.956  24.605  12.218
21340W        W94408  16.262  16.000   4.013
21341W        W94409  27.550  10.134   3.680
21342W        W94410  24.222   7.824   2.974
21343W        W94411  14.674  36.940   2.509
21344W        W94412  23.812  32.604  13.001
21345W        W94413  37.015   2.102   2.851
21346W        W94414  17.686  31.546   0.685
21347W        W94415  30.162  33.341  13.418
21348W        W94416  41.321  26.417   3.864
21349W        W94417  15.314  24.484   0.451
21350W        W94418  12.698   2.760   2.687
21351W        W94419  20.769  30.450  11.444
21352W        W94420   0.533  12.161   4.730
21353W        W94421  27.633  12.404   2.695
21354W        W94422   8.612  10.377   9.879
21355W        W94423  23.876   2.947  12.874
21356W        W94424   2.815  33.922  11.882
21357W        W94425  33.090  42.488   2.941
21358W        W94426  15.629   4.116   0.929
21359W        W94427  38.799  38.039  13.047
21360W        W94428  24.579  18.677   2.256
21361W        W94429  44.695  13.595  14.466
21362W        W94430   4.446  30.202   3.851
21363W        W94431   7.115  27.398   2.124
21364W        W94432  43.370  25.719   3.774
21365W        W94433  44.326   2.851   0.179
21366W        W94434  27.089  35.498   4.659
21367W        W94435  28.522  20.698   4.896
21368W        W94436  29.679  43.878   4.690
21369W        W94437   3.698   3.359   2.666
21370W        W94438  30.672  22.158   4.541
21371W        W94439  37.000  22.182  11.135
21372W        W94440   7.679  26.140  14.275
21373W        W94441  12.160  21.161  13.265
21374W        W94442  25.009  16.082  11.144
21375W        W94443  38.377  27.930  10.721
21376W        W94444  13.140   7.338  12.930
21377W        W94445  23.044  15.266   3.791
21378W        W94446  34.158  10.136  12.654
21379W        W94447  25.245   3.963  12.173
21380W        W94448   0.457  41.417   1.049
21381W        W94449  30.461  37.498   3.087
21382W        W94450  12.131  34.268  12.060
21383W        W94451  31.894  24.717  10.754
21384W        W94452  20.188  11.408  12.855
21385W        W94453  14.389   8.127   3.301
21386W        W94454  33.052  29.858   4.958
21387W        W94455  10.359  27.112   3.509
21388W        W94456   3.280  12.330   4.246
21389W        W94457  19.686   2.513  10.491
21390W        W94458  20.007  17.175   4.218
21391W        W94459  12.623   5.666   3.294
21392W        W94460  35.827  22.162  13.907
21393W        W94461  25.616  17.907   3.801
21394W        W94462  29.557   9.825  14.118
21395W        W94463  41.220   9.688  10.755
21396W        W94464  25.739  32.713   4.257
21397W        W94465   8.358  30.446  11.745
21398W        W94466  32.610  24.595  13.310
21399W        W94467  10.220  34.072   0.815
21400W        W94468  44.748  13.147  11.975
21401W        W94469  20.037  14.022  12.593
21402W        W94470  22.604  24.926   0.975
21403W        W94471  40.045  14.164   2.653
21404W        W94472  15.041  14.210  14.307
21405W        W94473   2.949   5.761  13.777
21406W        W94474   7.823   1.663  12.854
21407W        W94475  35.792  25.646   2.437
21408W        W94476   7.896   2.867  14.896
21409W        W94477  14.762  35.969  11.648
21410W        W94478  24.988  42.308   4.258
21411W        W94479   1.923  41.405  12.582
21412W        W94480  32.691  40.601   2.481
21413W        W94481  24.122   0.044  11.179
21414W        W94482  11.867   7.261   3.062
21415W        W94483   7.530  40.290  10.472
21416W        W94484  12.348  31.012  10.613
21417W        W94485   5.763   5.996  12.035
21418W        W94486  41.106  35.080  11.255
21419W        W94487  31.546  28.610   1.359
21420W        W94488  20.792  40.471  12.016
21421W        W94489  28.159  32.666  12.945
21422W        W94490  23.805  10.433   3.848
21423W        W94491  29.054  22.952  14.380
21424W        W94492   9.405  19.402   4.920
21425W        W94493  15.691  40.389   1.932
21426W        W94494  22.770  42.520   2.008
21427W        W94495   0.399   6.813   0.850
21428W        W94496  42.090  36.607   1.926
21429W        W94497  44.881  23.802   4.080
21430W        W94498  40.817  25.665   4.632
21431W        W94499  29.581   8.428   4.121
21432W        W94500  10.299  31.351   2.783
21433W        W94501  21.552  33.867  11.097
21434W        W94502  17.826  11.580  11.514
21435W        W94503  12.300   6.766   2.411
21436W        W94504  10.802  21.438  13.812
21437W        W94505  32.746  21.686  14.464
21438W        W94506  18.616  24.121   4.557
21439W        W94507  20.100  32.124  14.331
21440W        W94508  38.806  42.928  10.290
21441W        W94509  22.126  27.426   4.162
21442W        W94510   2.351  10.844  12.933
21443W        W94511   8.888  44.347   4.196
21444W        W94512   7.630  30.674   1.827
21445W        W94513   6.796  44.122   4.626
21446W        W94514  42.370  43.938  13.504
21447W        W94515  35.625  43.983   3.215
21448W        W94516  11.085  11.093  14.025
21449W        W94517  42.492  21.791  14.886
21450W        W94518  32.591   3.996  12.914
21451W        W94519  24.384   6.288   2.127
21452W        W94520  17.178  12.833   3.665
21453W        W94521   0.714  35.172  14.299
21454W        W94522   4.006  33.050   1.891
21455W        W94523  32.594   9.863   4.677
21456W        W94524  20.820  15.169  11.944
21457W        W94525  20.038   2.004   0.925
21458W        W94526   7.865  28.073   3.193
21459W        W94527   9.798  11.325  12.781
21460W        W94528  27.737   2.128  11.746
21461W        W94529  19.033  19.581   4.646
21462W        W94530  30.858  40.393  13.439
21463W        W94531  34.895  21.757   2.343
21464W        W94532   4.150   0.796   3.352
21465W        W94533  28.452   1.522   1.360
21466W        W94534  35.760   2.960   0.390
21467W        W94535   3.275  15.234  14.986
21468W        W94536  25.917  27.815   1.845
21469W        W94537  21.244  38.456   2.816
21470W        W94538   9.411  21.185  13.954
21471W        W94539  22.763  12.393  12.642
21472W        W94540  24.600  30.210  11.579
21473W        W94541  12.665  18.124  12.741
21474W        W94542  28.938  42.441  14.336
21475W        W94543   1.709  14.433  13.801
21476W        W94544   4.325  13.153   2.636
21477W        W94545  36.592  26.002   2.171
21478W        W94546  10.861  19.741  11.360
21479W        W94547   6.381  15.858  10.277
21480W        W94548  21.684   2.950   2.896
21481W        W94549  17.183  25.617   0.027
21482W        W94550  24.706  32.307   2.355
21483W        W94551   2.817  35.106  12.569
21484W        W94552  19.508  37.022  10.832
21485W        W94553  12.778  25.191  14.168
21486W        W94554   1.865  10.645   2.251
21487W        W94555  29.532   4.189  11.179
21488W        W94556  41.950  12.743   0.953
21489W        W94557  19.389   7.899  10.374
21490W        W94558  27.149   4.261  11.182
21491W        W94559  36.805   9.001  11.458
21492W        W94560  32.398   6.363  12.513
21493W        W94561  34.387  11.922   3.248
21494W        W94562  44.384  29.496  13.860
21495W        W94563  13.584  38.030  10.998
21496W        W94564  35.300  31.640  13.523
21497W        W94565  43.149  23.035  14.839
21498W        W94566  29.947   0.334   0.258
21499W        W94567  14.775  29.409  12.456
21500W        W94568  28.026  24.953   0.480
21501W        W94569  36.923  21.971  14.859
21502W        W94570   5.862   4.315   2.675
21503W        W94571   4.661  20.633   0.450
21504W        W94572  26.333  35.834  10.195
21505W        W94573  32.008  33.133   4.291
21506W        W94574  15.078   6.839  14.782
21507W        W94575  10.025   1.663   3.889
21508W        W94576  20.699  35.573   4.155
21509W        W94577  35.451  17.679   0.944
21510W        W94578  33.585  20.061   1.045
21511W        W94579  30.510   9.674   3.247
21512W        W94580  10.502  43.754   0.265
21513W        W94581   4.214  28.673  14.165
21514W        W94582  27.731  24.944   0.054
21515W        W94583  38.897   9.018  10.178
21516W        W94584  19.387   7.176  12.920
21517W        W94585  11.547  27.127   1.310
21518W        W94586   5.029  18.582  14.191
21519W        W94587  33.523  19.086  14.596
21520W        W94588  39.095  16.568  14.273
21521W        W94589  40.816  32.955  13.117
21522W        W94590  43.929  34.845  13.930
21523W        W94591  17.012   6.050  12.428
21524W        W94592   0.895   5.352   0.457
21525W        W94593   6.161   2.776  12.885
21526W        W94594  15.524  20.475  14.470
21527W        W94595  20.769  39.810  11.525
21528W        W94596  22.124  25.055  13.826
21529W        W94597   8.349  30.083   2.668
21530W        W94598  22.569  13.122   2.299
21531W        W94599  23.562  41.006   0.442
21532W        W94600  25.244  37.832  11.394
21533W        W94601   2.283   7.722   3.258
21534W        W94602  34.500   7.646  11.541
21535W        W94603   8.390   8.788   0.774
21536W        W94604   9.796   7.945   1.724
21537W        W94605  14.312  38.118  12.216
21538W        W94606  31.055  35.837   0.382
21539W        W94607  19.503   9.384   1.330
21540W        W94608  22.517  32.027  11.133
21541W        W94609  35.824  24.609  14.465
21542W        W94610  20.508  32.647  13.842
21543W        W94611  25.956  23.606  12.127
21544W        W94612   4.734  39.917  14.336
21545W        W94613  12.382   2.550  13.365
21546W        W94614  20.844  44.524  13.237
21547W        W94615   6.970  32.648   3.696
21548W        W94616  13.626   7.901   2.376
21549W        W94617  10.689  22.505   1.208
21550W        W94618  30.836  43.042  11.455
21551W        W94619  22.300  11.636   0.893
21552W        W94620  28.925  19.040   3.729
21553W        W94621  19.263  28.609   4.765
21554W        W94622  29.709  30.396  14.557
21555W        W94623   1.850  16.810  14.167
21556W        W94624  11.233  16.941   5.007
21557W        W94625   5.211   6.791   3.381
21558W        W94626   8.769   5.285   3.265
21559W        W94627  40.961  18.016  12.946
21560W        W94628  24.586  10.413  10.484
21561W        W94629  26.942  38.853   0.905
21562W        W94630  34.826  25.989  14.887
21563W        W94631   3.770  11.510  13.390
21564W        W94632  31.043   5.636   1.559
21565W        W94633   4.882  37.487   2.096
21566W        W94634   7.305  12.352   4.610
21567W        W94635  30.977  29.494   2.671
21568W        W94636  21.951  28.254  12.895
21569W        W94637  44.521  24.893   2.606
21570W        W94638   8.464   6.770  11.053
21571W        W94639   8.794  42.163  13.492
21572W        W94640  31.139  33.940   0.788
21573W        W94641   0.234  20.469   3.053
21574W        W94642  21.522  22.285  13.116
21575W        W94643   1.384  29.986  13.345
21576W        W94644  11.740  24.804  13.996
21577W        W94645   6.796  23.997  14.433
21578W        W94646  12.429  42.935   2.809
21579W        W94647  13.088   0.539   0.811
21580W        W94648  39.509  11.979   2.713
21581W        W94649  19.692  31.888   3.703
21582W        W94650  13.245  41.829   0.688
21583W        W94651  38.580  36.427  13.339
21584W        W94652  28.533   9.430   4.230
21585W        W94653   9.734   2.793  11.789
21586W        W94654  13.734  16.679  14.828
21587W        W94655  25.710  12.276  13.385
21588W        W94656  31.841   1.178  10.557
21589W        W94657  27.039  27.479   0.411
21590W        W94658   5.831  26.262  11.685
21591W        W94659  43.874  31.111  13.819
21592W        W94660  12.114  43.946  11.507
21593W        W94661  22.265  20.593   4.353
21594W        W94662  15.304  30.606  14.423
21595W        W94663  43.268   5.399   3.418
21596W        W94664  41.315  16.137   3.159
21597W        W94665  44.363   4.702   2.409
21598W        W94666  19.733  44.883  11.161
21599W        W94667  20.127  21.103  13.510
21600W        W94668  24.353   8.070  10.501
21601W        W94669  33.072  44.936   4.347
21602W        W94670   1.243  17.511  12.404
21603W        W94671   1.489  22.646  11.887
21604W        W94672   5.483  24.664   3.782
21605W        W94673   4.812  39.238  13.033
21606W        W94674   2.608  38.850   0.544
21607W        W94675  38.921   9.706  13.296
21608W        W94676  43.766   8.963   3.648
21609W        W94677   7.323  44.499   3.941
21610W        W94678  11.765  15.729  13.471
21611W        W94679  16.600   1.966   3.179
21612W        W94680  16.810  35.950   1.216
21613W        W94681   2.877  31.953   4.595
21614W        W94682  30.594  36.502   2.366
21615W        W94683  30.947  25.027  13.402
21616W        W94684   2.586  44.893  10.573
21617W        W94685   4.768  24.674   1.096
21618W        W94686  39.293  42.342   4.412
21619W        W94687  31.019  35.488   3.771
21620W        W94688  34.568  18.210  14.922
21621W        W94689  15.596  10.782   1.759
21622W        W94690  29.441  26.077  14.061
21623W        W94691  29.590   3.709   0.931
21624W        W94692  38.053  24.471   4.135
21625W        W94693  43.354  17.770  11.937
21626W        W94694   9.157  11.262   0.392
21627W        W94695  42.828  31.705   1.727
21628W        W94696  30.109  44.163   4.802
21629W        W94697  44.819  36.376  14.457
21630W        W94698  29.685  22.150  11.027
21631W        W94699  17.395  40.881   3.782
21632W        W94700  17.217   0.415   4.626
21633W        W94701  12.342  14.100   2.692
21634W        W94702  22.171  28.159   4.658
21635W        W94703  41.759   0.038  13.319
21636W        W94704  35.850   0.384   4.389
21637W        W94705   1.330  31.232  11.967
21638W        W94706  38.998  41.713  14.886
21639W        W94707  34.020  37.928  13.837
21640W        W94708  24.537  21.973   1.378
21641W        W94709   0.768  10.648   1.490
21642W        W94710   6.925  23.185   0.926
21643W        W94711  31.158   5.296   2.585
21644W        W94712  19.669   2.978   0.246
21645W        W94713  42.315  29.504  12.679
21646W        W94714  13.433  33.683  11.091
21647W        W94715  41.851  20.310   3.804
21648W        W94716  23.748  31.782   3.219
21649W        W94717   1.932  17.616   1.135
21650W        W94718  12.778  39.118  10.681
21651W        W94719   6.615  43.884  14.513
21652W        W94720   6.425  23.195   2.395
21653W        W94721  29.296   6.327  11.426
21654W        W94722  27.618  44.405  10.804
21655W        W94723   3.048  39.119   0.455
21656W        W94724  17.526  18.745  11.641
21657W        W94725  40.426  16.210  10.228
21658W        W94726  22.252  13.382   0.019
21659W        W94727  29.140  22.789  12.463
21660W        W94728  15.332   6.255   2.214
21661W        W94729  34.895  21.213  13.452
21662W        W94730  16.106  36.522   1.734
21663W        W94731  11.275  34.034  13.635
21664W        W94732   3.499  20.534  13.397
21665W        W94733  31.870  17.667  14.321
21666W        W94734  29.858  32.454  13.967
21667W        W94735   9.942  11.510   0.315
21668W        W94736   5.187  41.114   1.953
21669W        W94737  36.288  32.978   4.369
21670W        W94738  38.004  40.091  11.238
21671W        W94739  13.148  19.824   1.302
21672W        W94740   0.673  12.172   3.325
21673W        W94741  44.812  37.282  13.063
21674W        W94742   8.830  14.204   4.849
21675W        W94743  31.855  30.640  12.990
21676W        W94744  32.073  27.332   0.439
21677W        W94745   2.305   9.456  12.712
21678W        W94746  13.040  24.028  14.790
21679W        W94747  27.126  36.792  10.801
21680W        W94748  28.594  18.276  13.364
21681W        W94749  16.031  22.913  12.131
21682W        W94750  42.780  10.608   0.354
21683W        W94751   0.711  35.378  11.177
21684W        W94752  31.733  42.373   4.253
21685W        W94753   0.273  23.531  13.159
21686W        W94754  22.630  26.182  12.509
21687W        W94755   7.976  29.214  14.023
21688W        W94756  21.216  24.595  10.487
21689W        W94757  27.878  12.867   3.654
21690W        W94758  26.041  19.845  14.007
21691W        W94759  31.715  22.940   0.539
21692W        W94760  15.718  12.139   3.688
21693W        W94761  27.003  20.139  14.742
21694W        W94762  14.716  43.735   1.279
21695W        W94763  20.247  33.473  14.750
21696W        W94764  28.093  38.567   3.706
21697W        W94765  18.803  37.404  10.705
21698W        W94766   4.818  36.978   2.176
21699W        W94767  42.524  30.883  10.613
21700W        W94768  36.664  21.006   2.968
21701W        W94769   7.687  35.126   2.131
21702W        W94770  13.800  18.671  13.471
21703W        W94771  13.150   0.347  14.740
21704W        W94772  42.724   8.838  11.367
21705W        W94773  35.554  13.890   1.203
21706W        W94774  30.201   7.637  13.520
21707W        W94775   3.298   4.965   3.334
21708W        W94776   1.426  21.206   0.025
21709W        W94777  37.455  36.858   2.452
21710W        W94778  39.828  32.555   0.805
21711W        W94779   6.853  18.786   1.801
21712W        W94780  18.300  25.613   1.697
21713W        W94781  39.163   5.429   5.183
21714W        W94782  15.626  34.013  14.783
21715W        W94783  27.166   5.830  12.906
21716W        W94784  36.830  15.611   2.079
21717W        W94785  42.960   9.133   2.203
21718W        W94786  41.818  33.109  11.618
21719W        W94787  13.262  11.335   4.078
21720W        W94788  11.624  44.643  10.259
21721W        W94789  33.333  13.162   1.803
21722W        W94790  16.609   9.433   0.925
21723W        W94791   0.019  14.704  13.483
21724W        W94792   6.693  37.559   4.786
21725W        W94793  11.790  35.396   0.362
21726W        W94794  26.118  19.573  10.634
21727W        W94795  20.515  24.167  13.867
21728W        W94796  34.818  16.505   0.201
21729W        W94797   4.408  43.469   2.173
21730W        W94798   6.165  39.557  12.819
21731W        W94799  36.595  25.668  10.509
21732W        W94800  44.035  19.885  11.260
21733W        W94801  12.185  36.888  12.541
21734W        W94802  41.955   0.876  13.102
21735W        W94803  13.132   3.384   2.825
21736W        W94804  17.730  12.366  11.966
21737W        W94805   6.638  25.798  11.963
21738W        W94806  42.928   6.613   4.221
21739W        W94807  39.237  12.842  12.331
21740W        W94808  29.374  34.378  12.717
21741W        W94809  44.671  35.055  12.545
21742W        W94810  30.782  30.195   4.107
21743W        W94811   2.438   7.032  13.286
21744W        W94812   1.734  43.604   0.330
21745W        W94813   0.500  29.062   1.816
21746W        W94814  38.930  14.646  14.357
21747W        W94815  38.549  13.588   0.222
21748W        W94816  16.463  13.215  12.544
21749W        W94817  41.338   4.789   2.239
21750W        W94818  34.040  23.602   0.764
21751W        W94819   1.787  15.814  13.792
21752W        W94820  40.513  15.622  12.426
21753W        W94821  42.267   9.148   1.277
21754W        W94822  19.206   9.112  13.854
21755W        W94823  34.413  38.386  12.002
21756W        W94824  23.016  20.214  11.576
21757W        W94825  38.961  38.896  14.131
21758W        W94826  18.186  16.530   2.744
21759W        W94827   3.357  29.138  11.122
21760W        W94828  12.562  22.716   2.432
21761W        W94829  11.656  11.765  14.822
21762W        W94830  43.778  30.124  11.152
21763W        W94831  22.583  12.185   0.019
21764W        W94832  42.707  11.166  13.367
21765W        W94833   0.840  28.409  13.009
21766W        W94834  15.251  33.662   2.835
21767W        W94835  10.400  27.558   3.218
21768W        W94836  41.367  21.101   4.208
21769W        W94837  27.265  10.508  11.885
21770W        W94838  26.598  34.271   2.289
21771W        W94839  13.678   6.937   4.751
21772W        W94840   1.538  37.874   2.254
21773W        W94841  19.544  38.408   2.233
21774W        W94842  18.586  10.814  10.697
21775W        W94843   2.876  41.491  11.515
21776W        W94844   6.909   0.287   1.282
21777W        W94845  38.514  38.104  13.914
21778W        W94846  19.256  29.440   4.529
21779W        W94847  10.218  19.766   4.577
21780W        W94848   8.270  37.744  10.450
21781W        W94849   6.380  33.030  14.871
21782W        W94850   2.981  19.081   4.551
21783W        W94851   3.424  44.754   3.367
21784W        W94852  39.262  11.434  11.454
21785W        W94853  22.280  43.489  11.599
21786W        W94854  14.256  41.998   0.995
21787W        W94855  26.157  21.118  13.403
21788W        W94856  22.136  18.131   1.300
21789W        W94857  44.939  31.382  14.288
21790W        W94858   9.324  25.680   4.728
21791W        W94859  31.395   5.019  14.946
21792W        W94860  35.137  21.502   1.395
21793W        W94861  21.697  19.200   0.893
21794W        W94862  32.801   8.464   9.994
21795W        W94863  43.086   1.542   1.241
21796W        W94864   8.826   0.824   1.387
21797W        W94865  41.598  21.423   2.284
21798W        W94866  10.577  31.871   4.317
21799W        W94867  22.607  21.564  13.577
21800W        W94868   6.759  22.625   1.061
21801W        W94869  43.436  38.441  13.904
21802W        W94870  12.166  44.839   1.190
21803W        W94871  22.051  32.850   2.434
21804W        W94872  43.863  21.591  14.880
21805W        W94873  23.631  29.359  11.174
21806W        W94874  10.824  39.145  10.644
21807W        W94875  14.193  36.883  14.254
21808W        W94876  11.359   9.848  12.043
21809W        W94877   4.494  10.565   1.682
21810W        W94878  36.898  14.632   3.222
21811W        W94879  14.135  11.621  12.146
21812W        W94880  12.553  44.800   1.510
21813W        W94881   9.191  43.917   0.875
21814W        W94882  34.886  27.719  12.617
21815W        W94883  15.134  44.570   0.887
21816W        W94884  19.458  19.677  11.602
21817W        W94885  17.520   2.873   1.740
21818W        W94886   6.411   7.348   3.886
21819W        W94887  14.587   3.333   3.654
21820W        W94888  19.724  42.320  13.787
21821W        W94889  30.219   3.242   3.652
21822W        W94890  39.471  32.014  12.050
21823W        W94891  28.515   4.947   0.763
21824W        W94892  43.804  33.561  13.371
21825W        W94893  32.925  19.359   2.383
21826W        W94894  43.138   6.664  11.612
21827W        W94895  18.605  37.489   2.737
21828W        W94896  18.634  13.804  12.521
21829W        W94897  39.610  41.487   0.039
21830W        W94898  39.051  22.544  14.209
21831W        W94899  15.514  29.675  13.475
21832W        W94900  10.775  37.515  13.987
21833W        W94901  29.219  17.228   3.407
21834W        W94902  36.446  17.114  12.951
21835W        W94903  20.290  31.103  14.915
21836W        W94904  10.827  34.710  12.359
21837W        W94905   7.920  18.042  11.278
21838W        W94906  16.864  24.642  14.407
21839W        W94907  29.499  17.508  12.077
21840W        W94908  14.853   7.256   1.458
21841W        W94909  28.993  27.897   1.822
21842W        W94910  40.228  11.596  12.303
21843W        W94911  11.363  22.488  13.109
21844W        W94912  15.589  29.919  10.221
21845W        W94913  14.619  35.505   1.681
21846W        W94914  26.783  18.653  12.718
21847W        W94915   1.701  33.903  11.043
21848W        W94916  19.625   0.081  11.998
21849W        W94917   9.201  43.567  13.016
21850W        W94918  35.502  26.963   0.454
21851W        W94919  19.255  40.283   3.160
21852W        W94920  42.875  38.900   4.188
21853W        W94921  17.908  40.800   3.767
21854W        W94922  24.552  38.805  14.777
21855W        W94923  41.701  23.051   1.100
21856W        W94924  35.585  42.752   2.704
21857W        W94925  38.300   2.968  13.903
21858W        W94926  40.659  10.320   0.294
21859W        W94927  44.594  36.563   0.853
21860W        W94928  40.019  33.065   3.125
21861W        W94929  24.163  24.103   0.533
21862W        W94930  40.067  34.980  11.149
21863W        W94931  37.546  13.158  12.387
21864W        W94932  10.632  24.912  13.362
21865W        W94933  21.193  42.211  11.563
21866W        W94934  18.664  16.811   4.967
21867W        W94935  43.710   9.379   2.655
21868W        W94936  39.980  28.939  11.371
21869W        W94937  36.691  19.633   2.675
21870W        W94938   2.394   4.886  13.545
21871W        W94939  15.206   6.295   3.072
21872W        W94940  18.058   5.252   2.418
21873W        W94941   6.282  10.673   3.627
21874W        W94942  17.811  10.159   0.922
21875W        W94943  16.680  15.490  12.418
21876W        W94944   7.973  31.807  11.703
21877W        W94945  37.368  29.738   0.285
21878W        W94946   0.791   5.662   4.948
21879W        W94947  14.328   9.291   3.940
21880W        W94948  39.527  25.775   3.097
21881W        W94949  27.633  20.602   3.452
21882W        W94950  31.183  32.374   1.195
21883W        W94951   9.847  14.917   3.195
21884W        W94952   6.855   9.403   2.270
21885W        W94953   3.945  30.400  13.864
21886W        W94954  28.449  33.367   4.634
21887W        W94955  26.428  16.905   3.137
21888W        W94956  12.362  30.642  11.872
21889W        W94957  33.873  32.071   4.602
21890W        W94958   8.403  30.050  10.989
21891W        W94959  43.856  32.342   3.225
21892W        W94960  21.474   0.276   2.031
21893W        W94961  40.580  33.021  12.279
21894W        W94962  41.308  11.435   3.593
21895W        W94963  21.447  17.312  11.929
21896W        W94964  39.948  19.291  12.025
21897W        W94965  33.609  39.352   0.714
21898W        W94966  29.552  33.901  14.456
21899W        W94967  34.986  35.065  11.662
21900W        W94968   0.723  10.747  10.599
21901W        W94969  26.566  10.623  13.505
21902W        W94970  11.295  26.170   0.407
21903W        W94971  40.743  30.038  11.963
21904W        W94972  31.762  15.700  14.422
21905W        W94973  40.928  32.846  11.902
21906W        W94974  27.445  29.560   3.638
21907W        W94975   4.760  44.350   0.772
21908W        W94976   1.151  42.569  12.692
21909W        W94977   2.279  34.450  12.865
21910W        W94978  19.669  18.794   3.712
21911W        W94979  37.602   2.816   3.772
21912W        W94980   9.288   2.348  14.332
21913W        W94981   8.356  16.021   1.468
21914W        W94982  43.753   4.980  14.138
21915W        W94983  23.108   6.078   2.818
21916W        W94984  18.050   3.936   1.165
21917W        W94985  10.216  36.042   0.094
21918W        W94986  34.252  25.279   3.306
21919W        W94987  33.827   3.367  14.728
21920W        W94988  23.758  22.935   2.723
21921W        W94989  30.688  40.276  12.919
21922W        W94990   1.244  22.537  11.422
21923W        W94991  17.316  20.323  14.099
21924W        W94992  44.486   8.276   2.815
21925W        W94993  33.706  10.207   2.111
21926W        W94994  17.700  20.945   2.694
21927W        W94995   7.939  32.675  14.806
21928W        W94996  27.659  20.635  11.927
21929W        W94997  30.142  34.072  13.819
21930W        W94998  13.110  24.668  12.865
21931W        W94999   5.556   0.304   3.892
21932W        W95000  15.257  12.290  13.889
21933W        W95001   8.710  24.637   3.627
21934W        W95002  10.739  42.617  14.950
21935W        W95003  10.374  30.873   3.254
21936W        W95004   6.301  31.454   4.626
21937W        W95005  40.448  32.073   1.317
21938W        W95006  10.691   6.216   3.629
21939W        W95007  25.781  40.421  11.856
21940W        W95008  29.458  29.083   3.832
21941W        W95009  25.478   9.297  13.928
21942W        W95010   2.361   7.538  13.538
21943W        W95011  41.047  17.315  13.356
21944W        W95012  11.837  35.952  13.217
21945W        W95013  14.163  37.982   1.345
21946W        W95014  25.195  15.013  13.098
21947W        W95015  33.078  39.285   0.728
21948W        W95016   7.308   4.372   1.789
21949W        W95017  27.185  25.951  12.130
21950W        W95018  20.791   1.850   1.905
21951W        W95019  21.083   9.699   2.742
21952W        W95020   3.189  20.118  13.468
21953W        W95021   5.244  37.356   3.321
21954W        W95022   2.700  18.797  14.975
21955W        W95023  41.403  36.984   2.793
21956W        W95024  24.558  43.877   0.222
21957W        W95025  13.759  25.516   1.238
21958W        W95026  12.236  33.644   1.822
21959W        W95027  18.523  32.742   2.185
21960W        W95028  20.276  36.090   0.848
21961W        W95029  21.584  32.505   1.447
21962W        W95030  37.067   2.436   0.032
21963W        W95031   9.719  37.092  10.554
21964W        W95032   3.421  16.223  12.373
21965W        W95033  32.603   6.224   1.533
21966W        W95034  11.213  19.574  11.712
21967W        W95035  18.135  37.929   3.772
21968W        W95036  14.224   7.532   0.341
21969W        W95037  35.794   4.079   1.897
21970W        W95038  20.054  35.396   2.769
21971W        W95039  17.819  12.885   2.939
21972W        W95040   3.735  29.431  12.914
21973W        W95041  18.572  32.891   3.613
21974W        W95042  42.704  33.882  11.918
21975W        W95043  21.116  42.363   4.159
21976W        W95044  31.547  12.237   4.051
21977W        W95045  18.784  18.966  14.565
21978W        W95046  39.793  25.782  14.357
21979W        W95047   9.348  18.458  13.215
21980W        W95048  41.950  17.637   4.137
21981W        W95049  29.775   5.266  10.823
21982W        W95050   4.802  32.904  14.706
21983W        W95051   7.356   1.946   0.700
21984W        W95052  40.100  17.387   3.338
21985W        W95053   9.751  20.900   0.220
21986W        W95054  12.675  15.152  11.171
21987W        W95055  35.364  11.793  11.547
21988W        W95056   3.415  39.936   3.992
21989W        W95057  23.014  14.237   2.693
21990W        W95058  16.796   8.900   4.643
21991W        W95059  29.549  29.861  10.052
21992W        W95060  26.779  29.700   4.141
21993W        W95061   9.918   5.585   2.699
21994W        W95062  32.413  21.637   0.956
21995W        W95063   7.860  42.854  10.633
21996W        W95064  33.586  17.082   1.204
21997W        W95065  43.810   3.753  11.406
21998W        W95066   4.396  15.187   3.195
21999W        W95067  14.587  43.038   2.403
22000W        W95068  15.679  30.349  14.091
22001W        W95069  31.308  42.859   0.205
22002W        W95070  37.536  29.717  13.895
22003W        W95071  43.441  11.277   1.764
22004W        W95072  35.115  41.372   1.367
22005W        W95073   7.359  37.302  10.128
22006W        W95074  26.962  31.054  11.051
22007W        W95075  13.457  18.686  11.067
22008W        W95076   8.247  22.831   0.924
22009W        W95077  10.334  14.766  13.915
22010W        W95078  32.589  21.180  14.262
22011W        W95079  44.926  27.351   0.996
22012W        W95080  24.228  13.253   2.834
22013W        W95081  40.361  29.126  13.610
22014W        W95082  43.180  42.978   4.354
22015W        W95083   4.248   1.764   0.757
22016W        W95084  37.384  31.582   5.471
22017W        W95085  23.583   9.993   4.328
22018W        W95086   1.907  25.864   0.049
22019W        W95087  33.311  41.243   5.180
22020W        W95088  43.024  10.016   9.677
22021W        W95089   6.426  43.420  10.735
22022W        W95090  15.766  40.407   0.519
22023W        W95091  22.245   4.193  11.438
22024W        W95092  30.737  30.444   0.309
22025W        W95093  10.097  27.367  12.786
22026W        W95094  12.250  12.726   4.555
22027W        W95095  10.290  40.029  14.755
22028W        W95096  29.498  15.109   4.796
22029W        W95097  37.088   4.376  11.696
22030W        W95098   7.904  34.642  14.839
22031W        W95099   3.510  42.780   1.415
22032W        W95100   6.180  28.266   1.657
22033W        W95101  26.606  37.853   0.760
22034W        W95102  15.408  11.349   4.304
22035W        W95103  35.406  10.212  13.957
22036W        W95104  35.591   7.269   2.381
22037W        W95105  37.294   8.388  13.538
22038W        W95106   8.884  15.458   4.222
22039W        W95107  10.376  36.171  12.827
22040W        W95108  21.277  15.180   1.959
22041W        W95109  43.397  22.442  11.568
22042W        W95110  16.059   4.235  13.884
22043W        W95111  12.105  35.441  11.445
22044W        W95112  10.028  20.243  10.195
22045W        W95113   6.782  29.901  10.630
22046W        W95114  25.028  31.361   0.403
22047W        W95115  37.829  15.780  12.301
22048W        W95116   9.666  24.959   1.991
22049W        W95117  31.006   4.900  13.925
22050W        W95118  11.792  42.714   3.073
22051W        W95119   8.129  26.987   2.380
22052W        W95120  18.960  37.457  12.589
22053W        W95121   3.073  26.090   1.986
22054W        W95122  11.310  23.665   1.789
22055W        W95123  24.986  27.021  10.687
22056W        W95124  30.932  37.431   3.266
22057W        W95125  44.257   9.824   1.857
22058W        W95126  42.613  42.237  13.866
22059W        W95127  30.536  17.759   4.482
22060W        W95128  28.259   1.107  14.979
22061W        W95129   5.701  14.911  13.967
22062W        W95130  24.343  38.620  10.221
22063W        W95131   9.150  13.148  12.043
22064W        W95132   8.278  24.103  10.685
22065W        W95133  16.611   2.034  13.526
22066W        W95134  17.353  12.669  11.675
22067W        W95135  44.527  44.305  12.861
22068W        W95136  18.726  17.186   3.676
22069W        W95137  24.580   9.193   0.978
22070W        W95138   7.458  15.043  11.414
22071W        W95139  30.199   4.403   1.378
22072W        W95140  16.594  44.455  14.842
22073W        W95141  25.685  33.625  14.318
22074W        W95142  33.710   9.584   0.965
22075W        W95143  28.204  11.908   0.873
22076W        W95144   7.265  25.580  10.707
22077W        W95145   0.472  25.665   0.229
22078W        W95146  16.489  13.544   0.400
22079W        W95147  33.577  19.180  14.102
22080W        W95148  41.078  26.383  11.095
22081W        W95149  20.160  21.309   2.435
22082W        W95150   9.263  28.894  12.989
22083W        W95151  37.751  31.186  11.610
22084W        W95152  10.675   0.229  12.498
22085W        W95153  15.329   9.256  12.418
22086W        W95154  17.011   6.761   5.097
22087W        W95155  33.707  10.282  11.246
22088W        W95156  18.690  43.792  12.981
22089W        W95157   8.668  19.998   0.856
22090W        W95158  19.541   0.200  10.598
22091W        W95159   3.225  17.774   4.252
22092W        W95160  40.561  22.204   0.778
22093W        W95161  12.557  33.148   2.389
22094W        W95162   1.824  38.151  13.834
22095W        W95163  23.451  42.454  11.116
22096W        W95164  39.865  41.304   4.071
22097W        W95165   3.230   1.983  12.651
22098W        W95166  28.921  41.944   2.707
22099W        W95167   0.433   3.877   1.895
22100W        W95168  26.438  35.539  13.965
22101W        W95169  40.426  10.611   0.962
22102W        W95170  35.339   8.511  13.334
22103W        W95171  44.469  33.820   2.001
22104W        W95172  35.598  19.088   0.045
22105W        W95173   5.975  13.812  12.865
22106W        W95174  37.475  36.897   4.887
22107W        W95175   0.075   7.311   2.882
22108W        W95176   2.489   2.214   4.385
22109W        W95177  14.135  10.945  12.981
22110W        W95178  36.835  31.208   1.759
22111W        W95179   9.411  30.131   1.552
22112W        W95180  10.804  41.403   4.554
22113W        W95181   7.941  22.026  11.169
22114W        W95182   1.704   0.845   2.031
22115W        W95183  29.749   4.385  14.579
22116W        W95184  43.121  19.284   1.512
22117W        W95185  37.433  13.610  14.446
22118W        W95186  37.007   2.444   0.982
22119W        W95187  36.341  38.554  11.259
22120W        W95188  42.763  30.398  11.416
22121W        W95189  11.203  41.815   4.620
22122W        W95190  26.712  27.050   0.436
22123W        W95191  13.678  22.691  14.322
22124W        W95192  38.323   8.961   1.227
22125W        W95193  25.286  39.946  14.990
22126W        W95194  17.234  42.320   0.239
22127W        W95195  17.628  14.037  10.584
22128W        W95196  32.658   5.528  13.792
22129W        W95197   9.753   5.386  12.996
22130W        W95198  28.274   4.327  10.339
22131W        W95199   7.646   4.128  11.463
22132W        W95200  20.991  43.095  14.372
22133W        W95201  36.621  18.120  12.961
22134W        W95202  44.439  39.340   4.826
22135W        W95203  26.359  13.530   5.039
22136W        W95204  12.406   3.162   0.963
22137W        W95205  10.851   7.974   2.618
22138W        W95206  17.807  10.668   4.361
22139W        W95207  24.010  25.725   1.171
22140W        W95208  24.436  31.165  10.665
22141W        W95209  23.767  38.074  14.418
22142W        W95210  34.151  34.540  12.038
22143W        W95211  19.384  38.649   1.340
22144W        W95212  10.214   5.274  10.739
22145W        W95213  40.315  31.176  11.274
22146W        W95214   4.976   7.900  13.089
22147W        W95215  11.809  27.018  14.506
22148W        W95216  38.356   6.739   1.139
22149W        W95217  24.070   4.167  12.433
22150W        W95218  22.057  30.255   2.656
22151W        W95219  43.978   9.646   4.156
22152W        W95220  32.930  21.746   2.688
22153W        W95221   2.450  28.632  10.894
22154W        W95222  28.854  27.206  11.635
22155W        W95223  20.415  17.827  12.438
22156W        W95224  39.224  20.646  13.547
22157W        W95225  24.430   9.293   2.445
22158W        W95226   1.009  44.783   1.413
22159W        W95227   9.221   2.369   2.486
22160W        W95228  43.691  39.000   1.163
22161W        W95229   9.477   2.147  13.028
22162W        W95230  37.781  27.982   4.212
22163W        W95231  21.328  25.425  14.901
22164W        W95232  32.552   1.714  12.798
22165W        W95233  24.168   9.765  13.773
22166W        W95234  40.415  14.774  11.357
22167W        W95235  30.983   6.710   3.989
22168W        W95236  35.078   8.625   4.526
22169W        W95237   0.752  14.550   2.389
22170W        W95238  24.574  13.599   3.219
22171W        W95239  41.480  29.937   4.502
22172W        W95240  44.414  18.213  14.964
22173W        W95241   5.668  30.894  13.390
22174W        W95242  16.996  42.828  14.019
22175W        W95243   0.313   0.567  10.977
22176W        W95244   4.069  31.113   1.337
22177W        W95245  12.645  28.615   1.302
22178W        W95246  27.173  21.352   0.838
22179W        W95247  23.929  31.009   2.042
22180W        W95248  41.574  27.961  12.708
22181W        W95249  43.378  17.649   3.276
22182W        W95250  14.218   4.013   0.742
22183W        W95251  15.893  23.778   3.183
22184W        W95252  21.643  15.348   3.781
22185W        W95253  41.405  29.818  12.472
22186W        W95254  43.185  11.028   3.036
22187W        W95255  14.222  37.914   1.906
22188W        W95256  15.571   0.481  11.146
22189W        W95257  19.075  36.250   2.688
22190W        W95258  31.083  39.488   1.732
22191W        W95259  10.769  11.366   2.444
22192W        W95260   3.496  25.735   3.196
22193W        W95261   3.866  34.722   1.526
22194W        W95262  35.186  35.924  14.414
22195W        W95263  28.558  24.094   0.415
22196W        W95264  38.662   0.130  12.584
22197W        W95265  14.317   2.648  10.765
22198W        W95266  31.558   6.751  13.583
22199W        W95267  24.209  13.577   1.222
22200W        W95268  30.400  44.519  13.472
22201W        W95269  17.783  26.584  13.270
22202W        W95270  42.717   5.347   1.834
22203W        W95271   8.181  18.119   1.753
22204W        W95272  10.684  12.261  10.869
22205W        W95273  25.603  11.135   1.007
22206W        W95274  33.544  23.420   0.843
22207W        W95275   1.541  28.105   2.147
22208W        W95276   4.678  39.928  11.228
22209W        W95277  25.648  17.546  13.876
22210W        W95278  23.191  20.577   3.385
22211W        W95279  28.327  19.184   1.438
22212W        W95280  25.410  28.084   4.205
22213W        W95281  17.731  23.746  12.539
22214W        W95282   8.318  14.565  14.470
22215W        W95283  41.915  30.509   2.456
22216W        W95284  36.909  20.978  13.563
22217W        W95285  12.948  24.012   4.536
22218W        W95286   9.067  17.516  13.400
22219W        W95287   3.715  18.172   1.441
22220W        W95288  23.687   6.798   1.652
22221W        W95289  10.592  26.361   3.814
22222W        W95290  33.089  37.877  13.965
22223W        W95291  25.848  10.687   3.269
22224W        W95292  26.145  31.834  12.696
22225W        W95293   2.915  15.645   3.183
22226W        W95294  32.154  11.839   5.052
22227W        W95295  18.285  43.515  13.854
22228W        W95296  19.519   3.828  14.819
22229W        W95297  27.011  15.967  14.098
22230W        W95298  15.111  20.001  13.149
22231W        W95299  30.407  18.986   1.725
22232W        W95300  39.409  44.707   1.941
22233W        W95301  40.846  21.558  11.578
22234W        W95302  27.478   0.009  11.572
22235W        W95303  44.383  42.537   4.426
22236W        W95304  26.587  42.740   0.986
22237W        W95305  31.096  44.009  13.355
22238W        W95306  21.060  42.707   0.428
22239W        W95307  31.057  15.851  13.936
22240W        W95308  39.858  31.948   0.359
22241W        W95309   0.966  18.304  12.529
22242W        W95310  24.023   0.010  13.010
22243W        W95311  33.856  34.034  11.390
22244W        W95312  40.236  12.497   0.729
22245W        W95313  33.755  34.448   4.370
22246W        W95314  25.088   1.468  10.832
22247W        W95315  33.960  41.872   2.198
22248W        W95316  12.841   4.872   0.444
22249W        W95317  18.405  38.599  12.093
22250W        W95318  32.003   8.979  11.149
22251W        W95319  43.803  24.543   4.759
22252W        W95320  21.691   4.962   0.181
22253W        W95321  21.320  28.043   3.241
22254W        W95322   0.449  29.869  13.805
22255W        W95323  19.618  29.138   3.674
22256W        W95324  12.311   7.642  14.859
22257W        W95325   6.885  28.467  11.750
22258W        W95326  36.784  40.051   0.776
22259W        W95327  27.899  32.155  11.191
22260W        W95328   0.133  33.894  14.364
22261W        W95329  12.012  23.049  13.452
22262W        W95330  43.223  23.433  13.840
22263W        W95331   7.391  11.760   0.349
22264W        W95332  28.947  15.700   1.768
22265W        W95333  23.095  16.612   4.632
22266W        W95334   1.408  20.974  11.967
22267W        W95335  41.398  28.727  13.828
22268W        W95336  34.624  40.876   3.082
22269W        W95337  14.607  38.081  14.066
22270W        W95338  41.020  11.837  13.873
22271W        W95339  44.096  22.118   0.574
22272W        W95340  14.110  41.572   3.865
22273W        W95341  25.220  33.843   0.362
22274W        W95342  33.856  29.509  12.983
22275W        W95343  39.016   0.243   3.302
22276W        W95344  39.099  31.391  10.765
22277W        W95345  11.646  37.057   0.921
22278W        W95346  26.970  15.363  11.470
22279W        W95347  14.810  28.075  10.865
22280W        W95348   0.772  37.955   1.672
22281W        W95349   9.262   7.043  11.919
22282W        W95350  36.415  18.592   3.321
22283W        W95351   0.049  13.233   1.211
22284W        W95352   5.483  35.571   1.429
22285W        W95353  21.479  26.187   0.436
22286W        W95354  34.982  18.720   4.570
22287W        W95355  24.104  39.092  12.354
22288W        W95356   5.236  22.316  13.852
22289W        W95357  21.172  23.565  10.738
22290W        W95358  33.906  36.563  13.079
22291W        W95359   1.231  18.294  11.489
22292W        W95360  16.318  15.114   0.062
22293W        W95361   3.579   5.351  14.344
22294W        W95362  11.564  11.290   0.073
22295W        W95363   2.494  41.851  12.517
22296W        W95364  33.945  11.396  14.766
22297W        W95365  26.875  24.060   3.780
22298W        W95366  32.634  33.639  10.493
22299W        W95367  28.311  24.105  11.140
22300W        W95368  19.373  13.307  12.319
22301W        W95369  33.790  35.951   3.268
22302W        W95370  42.749  33.702   0.824
22303W        W95371  23.578  37.928  12.574
22304W        W95372   2.447  15.699  13.866
22305W        W95373   1.747  35.499   0.058
22306W        W95374   7.216   9.305  12.329
22307W        W95375   3.379  11.621   1.411
22308W        W95376  21.117  40.012   1.626
22309W        W95377  33.899  25.697   0.275
22310W        W95378   0.906  20.590   1.339
22311W        W95379  14.728  23.222  11.894
22312W        W95380  36.908  30.920  13.437
22313W        W95381  35.775  15.181   1.474
22314W        W95382  10.181  24.759  12.546
22315W        W95383   8.116  35.126   3.765
22316W        W95384  24.009  43.037  13.199
22317W        W95385  14.206  27.893  13.970
22318W        W95386  11.234   2.283  14.199
22319W        W95387  38.356  31.021   3.643
22320W        W95388  36.059   2.954  13.593
22321W        W95389  33.091   7.674   3.894
22322W        W95390  14.197   1.229   4.054
22323W        W95391  43.436   1.889   4.109
22324W        W95392  31.536  41.076   2.754
22325W        W95393  16.266  30.649  12.099
22326W        W95394  27.474  34.525  12.613
22327W        W95395  20.628   6.274   1.193
22328W        W95396   0.206  27.620  11.194
22329W        W95397  25.536  20.766   0.635
22330W        W95398  19.301  22.367   1.917
22331W        W95399   0.424  24.515  12.848
22332W        W95400  33.108  17.504  13.053
22333W        W95401  13.821  42.587  12.046
22334W        W95402  27.546  32.447   3.087
22335W        W95403  34.641  33.066   3.741
22336W        W95404  44.905  39.058   4.469
22337W        W95405   8.907  31.994   0.399
22338W        W95406  31.700  43.420   3.392
22339W        W95407  25.105  37.060   1.703
22340W        W95408   9.335  13.286   3.761
22341W        W95409   0.505  23.472  14.594
22342W        W95410  10.664  11.396   2.944
22343W        W95411  40.990  40.900   3.794
22344W        W95412  10.891  37.398  13.429
22345W        W95413  12.777  31.499   0.180
22346W        W95414  34.451  25.671   3.579
22347W        W95415  10.197  26.632  14.064
22348W        W95416  37.371  10.174   2.813
22349W        W95417  35.270   0.380   3.238
22350W        W95418  21.995  13.078  11.143
22351W        W95419  37.782   1.797   4.983
22352W        W95420  35.363  16.077  14.044
22353W        W95421  30.464   8.144   3.149
22354W        W95422  24.982   7.655   2.278
22355W        W95423   0.684  24.231   1.339
22356W        W95424   1.977   3.865   1.742
22357W        W95425  43.015   7.148   1.974
22358W        W95426  25.091  25.951  13.378
22359W        W95427  10.509  13.099  11.920
22360W        W95428  15.171   4.723   3.557
22361W        W95429  28.496  44.357  12.555
22362W        W95430   4.324  27.268   3.199
22363W        W95431  14.819  18.130   2.730
22364W        W95432  43.639  43.773   4.131
22365W        W95433  44.304  36.815   0.509
22366W        W95434  37.183  15.542   3.505
22367W        W95435  16.343   8.881  14.256
22368W        W95436   5.491   7.330   0.860
22369W        W95437  39.892  15.246  13.002
22370W        W95438  22.576  40.075   0.850
22371W        W95439  19.213  30.510  14.017
22372W        W95440  40.029  37.502  12.031
22373W        W95441  10.969  20.132   9.605
22374W        W95442   2.028  20.339  11.646
22375W        W95443  29.949  15.275   1.285
22376W        W95444  14.180  25.426  13.158
22377W        W95445  34.424  41.294   1.701
22378W        W95446  13.031  18.314  10.491
22379W        W95447   5.433   1.829  13.894
22380W        W95448   5.911  13.319   3.382
22381W        W95449  42.410   1.005  12.805
22382W        W95450   3.247  24.697   4.115
22383W        W95451   3.912  29.417   1.026
22384W        W95452  25.060  19.658  12.891
22385W        W95453  17.136  18.802   4.351
22386W        W95454  30.367  31.242   2.782
22387W        W95455  25.283  37.414   0.896
22388W        W95456  12.683  42.373  12.091
22389W        W95457  30.465   6.857   4.056
22390W        W95458  18.091   8.792  12.635
22391W        W95459   8.724  31.458   4.756
22392W        W95460  36.759  24.347   3.266
22393W        W95461  32.923  37.385   2.728
22394W        W95462  33.912   2.371   0.357
22395W        W95463  31.402  24.016  13.466
22396W        W95464  40.065   3.698  12.911
22397W        W95465  22.167   9.424  12.440
22398W        W95466  28.854  11.322   1.885
22399W        W95467  43.821  26.664   1.155
22400W        W95468  43.988  31.080   2.778
22401W        W95469  12.341  15.851   0.826
22402W        W95470  11.702   5.200  14.006
22403W        W95471  11.671   1.269   3.169
22404W        W95472  27.692  32.681  14.523
22405W        W95473  24.128  18.995   2.333
22406W        W95474   6.769   8.287  12.108
22407W        W95475  18.942  21.576  14.860
22408W        W95476   1.727  26.331   4.198
22409W        W95477  38.108  21.118   3.347
22410W        W95478   5.501  44.240  14.438
22411W        W95479  37.677  26.423  14.977
22412W        W95480  19.265  21.558  12.713
22413W        W95481  21.103  24.539   4.210
22414W        W95482  10.238  22.041   4.833
22415W        W95483  16.927   3.110   4.080
22416W        W95484   1.662  36.865  13.106
22417W        W95485  26.006  35.070  10.689
22418W        W95486  44.245  19.154   2.265
22419W        W95487  28.658  35.662  10.727
22420W        W95488  31.077  14.290  11.212
22421W        W95489  30.342  41.810   2.661
22422W        W95490  36.187  20.017   1.894
22423W        W95491  25.258  36.553  13.488
22424W        W95492  12.174  13.390  11.941
22425W        W95493  43.216  21.737  14.288
22426W        W95494  15.472   9.407  13.294
22427W        W95495  20.020  38.155   3.904
22428W        W95496   1.524   1.405   0.776
22429W        W95497  28.080   1.004   3.014
22430W        W95498  11.852  15.683   3.839
22431W        W95499  23.549  38.179  10.602
22432W        W95500   0.830  23.077   2.807
22433W        W95501  28.145  43.620  14.005
22434W        W95502  16.315   0.528   0.517
22435W        W95503  40.861  44.715   2.404
22436W        W95504  31.991  24.201  12.144
22437W        W95505  13.535  32.550   3.246
22438W        W95506   6.060  38.334   2.123
22439W        W95507  43.303  33.197   0.343
22440W        W95508   6.723   6.382   4.495
22441W        W95509  44.999  30.535   4.954
22442W        W95510   3.298  29.729  12.976
22443W        W95511  30.593   1.889  13.336
22444W        W95512   0.705   3.163  13.514
22445W        W95513  14.152  29.914  12.998
22446W        W95514  26.135  44.858   2.850
22447W        W95515  22.047  36.985  14.969
22448W        W95516  37.253  32.568   2.885
22449W        W95517  36.028  19.088  12.463
22450W        W95518  29.753  20.093   3.733
22451W        W95519  12.396  10.578   2.575
22452W        W95520   1.209  10.006   3.215
22453W        W95521  10.662  24.039   1.608
22454W        W95522  30.194  21.953  14.738
22455W        W95523  11.352  22.491  10.621
22456W        W95524  27.763  29.559  12.066
22457W        W95525  30.216  20.748   5.036
22458W        W95526  28.687  16.514  10.738
22459W        W95527  22.566  10.778   3.911
22460W        W95528  21.242  15.824  13.084
22461W        W95529   7.107   0.720   1.457
22462W        W95530  22.216  44.062   1.947
22463W        W95531  25.605  12.663   1.322
22464W        W95532  37.157  40.890  14.775
22465W        W95533  39.962  18.770  14.456
22466W        W95534  35.356  20.490   3.486
22467W        W95535  21.662  20.211  11.643
22468W        W95536  27.081  24.735   2.846
22469W        W95537  14.267  40.631   2.311
22470W        W95538  12.530   6.752   1.388
22471W        W95539  19.714  20.162  10.760
22472W        W95540  33.949  26.231   3.119
22473W        W95541  44.198  14.155   3.754
22474W        W95542  40.468  40.937  12.456
22475W        W95543   8.550   6.371  12.733
22476W        W95544  36.505  34.322  10.515
22477W        W95545   1.497   4.791   2.749
22478W        W95546  28.951  19.104  10.849
22479W        W95547  24.957  20.349   1.910
22480W        W95548  18.689  34.971   4.582
22481W        W95549  13.773  26.033  13.804
22482W        W95550  19.112  12.719   1.851
22483W        W95551  39.693  10.742  14.265
22484W        W95552  36.618   5.009  13.247
22485W        W95553  19.820  31.395  11.475
22486W        W95554  14.266   3.901  12.086
22487W        W95555  39.563  36.954  10.733
22488W        W95556  16.088  22.231   3.825
22489W        W95557  42.950  13.747   1.772
22490W        W95558  37.089  33.894   4.595
22491W        W95559  34.865  32.633   0.720
22492W        W95560  22.023  19.986  12.413
22493W        W95561  35.366  41.042  14.053
22494W        W95562  28.599   9.816   2.837
22495W        W95563  33.031   0.181  12.101
22496W        W95564  32.192  29.696  12.080
22497W        W95565   5.951   7.141   0.714
22498W        W95566  10.731  33.971  13.688
22499W        W95567   8.763  36.032   2.268
22500W        W95568   6.211   9.280  11.948
22501W        W95569  31.912   2.787  14.637
22502W        W95570  33.146  40.776  14.123
22503W        W95571  39.393  33.931  14.713
22504W        W95572  14.034  13.826  10.658
22505W        W95573   7.352  38.642  10.738
22506W        W95574  13.383  32.401   2.735
22507W        W95575   9.622   3.238  10.718
22508W        W95576  13.855   6.692   2.241
22509W        W95577  43.497   5.253  14.561
22510W        W95578  26.682  38.810  10.339
22511W        W95579  34.277   5.907  13.292
22512W        W95580  10.227  31.031   4.581
22513W        W95581  27.515  37.608  13.811
22514W        W95582  27.333   3.386  12.495
22515W        W95583   9.908  33.841   0.435
22516W        W95584   5.936  29.394  14.657
22517W        W95585  44.573  27.070  10.668
22518W        W95586  23.513   6.378   0.810
22519W        W95587  41.512  35.641  11.733
22520W        W95588  12.303  23.533  14.652
22521W        W95589   4.389  31.214  12.108
22522W        W95590   1.963   3.861  14.364
22523W        W95591  25.694  27.858   3.090
22524W        W95592   8.745  13.015  12.857
22525W        W95593  11.747  14.691  11.588
22526W        W95594  39.503  16.691   3.203
22527W        W95595  26.819  40.425  13.120
22528W        W95596  44.993  32.936   2.157
22529W        W95597  19.202  36.015   0.942
22530W        W95598  31.135   3.203  14.271
22531W        W95599  17.002  12.757   2.172
22532W        W95600  36.593  38.224   4.482
22533W        W95601   2.427  20.248   4.393
22534W        W95602  28.437   5.688  14.905
22535W        W95603  12.582   1.845  12.675
22536W        W95604  13.109   9.320  12.222
22537W        W95605   9.088   0.644  11.583
22538W        W95606  41.519  12.204  12.520
22539W        W95607  30.140   3.275   4.509
22540W        W95608  43.551  39.010   0.657
22541W        W95609   8.986   4.727  14.494
22542W        W95610  42.824   6.965   4.581
22543W        W95611  23.376  27.032   3.693
22544W        W95612  20.537  36.894  14.829
22545W        W95613  25.925  39.490  13.005
22546W        W95614   5.676  22.743   1.342
22547W        W95615  25.932  12.190  12.065
22548W        W95616   2.882  41.796   1.491
22549W        W95617  43.646   0.195   3.594
22550W        W95618   8.862  13.201   1.753
22551W        W95619  17.258  19.352  14.337
22552W        W95620  40.355  27.842   5.048
22553W        W95621  19.672  16.297   1.891
22554W        W95622  13.087  34.046  14.361
22555W        W95623  32.068  25.001   0.304
22556W        W95624  21.709  32.398   1.917
22557W        W95625  44.386  39.945   2.188
22558W        W95626  35.295  16.491   2.757
22559W        W95627  32.329  16.041   2.442
22560W        W95628  19.938  22.540   4.103
22561W        W95629   2.254  10.886   0.341
22562W        W95630  37.523   2.482   0.893
22563W        W95631  21.357  34.096  12.616
22564W        W95632  15.080   5.234   1.956
22565W        W95633  43.735  18.255  12.537
22566W        W95634  16.630  16.266   0.840
22567W        W95635  20.224  27.604   2.086
22568W        W95636   4.229  41.081  10.624
22569W        W95637   9.680  36.339  14.439
22570W        W95638  39.070   3.745   0.815
22571W        W95639  43.990  44.958  13.487
22572W        W95640  21.156   3.984   2.377
22573W        W95641  34.771  32.863   2.390
22574W        W95642  36.378  12.859   1.182
22575W        W95643  28.119  26.489  13.019
22576W        W95644  43.347  29.135  12.601
22577W        W95645  25.429   9.706   3.625
22578W        W95646  35.073   4.539   9.863
22579W        W95647  42.390  37.687  11.983
22580W        W95648  25.557  21.108  12.071
22581W        W95649   4.168  26.542  11.707
22582W        W95650  29.969  38.538  10.413
22583W        W95651  29.481  25.708   0.918
22584W        W95652  35.930   0.941  13.869
22585W        W95653  27.263  35.790   2.741
22586W        W95654  19.617  24.966  13.948
22587W        W95655  20.246  39.907  13.918
22588W        W95656   6.802   2.569  11.524
22589W        W95657  25.029  17.336  10.785
22590W        W95658  26.110  37.919   0.481
22591W        W95659   1.497  44.504  13.107
22592W        W95660   2.412  41.226   3.325
22593W        W95661  35.928  26.701  11.243
22594W        W95662  36.996  35.502   2.664
22595W        W95663  41.323  11.761   3.176
22596W        W95664  42.391   5.703  12.747
22597W        W95665   9.619   8.376   1.285
22598W        W95666  39.849  15.516   2.753
22599W        W95667  39.535   5.638  10.285
22600W        W95668   6.234  40.913   0.254
22601W        W95669  34.277  38.234  14.460
22602W        W95670  20.018  33.742   0.560
22603W        W95671  43.440   3.816   4.628
22604W        W95672  10.903  16.265   1.683
22605W        W95673  14.106   7.173  14.885
22606W        W95674  24.113  14.223   0.734
22607W        W95675  19.751  22.437  11.137
22608W        W95676  32.575  25.926   4.442
22609W        W95677  28.408  10.068  12.577
22610W        W95678  40.076  30.866  13.751
22611W        W95679  21.391  35.858  10.341
22612W        W95680  35.076   1.318  13.422
22613W        W95681  41.786   8.282  10.482
22614W        W95682  22.640  11.139   4.674
22615W        W95683  18.150   5.638   4.612
22616W        W95684   7.365  32.524   1.723
22617W        W95685  24.769  39.899  10.380
22618W        W95686  38.316  32.535   1.780
22619W        W95687  12.873  26.317  14.545
22620W        W95688  39.885  41.878  10.757
22621W        W95689  40.291  29.689   0.824
22622W        W95690  25.755   3.352  10.256
22623W        W95691  12.222  15.675  14.042
22624W        W95692  24.254  35.824   4.746
22625W        W95693  19.564  23.952   2.534
22626W        W95694  30.303  39.874  14.907
22627W        W95695   2.214  34.720   2.330
22628W        W95696  28.533   9.381  11.585
22629W        W95697  24.003  25.532  12.619
22630W        W95698  14.038  24.452  12.148
22631W        W95699  20.859  24.154  13.473
22632W        W95700  28.097  35.459   3.642
22633W        W95701  28.199  16.743   4.593
22634W        W95702  33.402   6.824   1.739
22635W        W95703  44.530   8.864  10.725
22636W        W95704  29.244  32.457   4.313
22637W        W95705  38.191  13.942  11.509
22638W        W95706  31.369  37.604   0.348
22639W        W95707  37.345  20.332   2.586
22640W        W95708  44.396  42.534   3.917
22641W        W95709   0.048  18.218   1.867
22642W        W95710  11.720  28.889  11.925
22643W        W95711   6.620   2.749  14.523
22644W        W95712  41.294  44.733   0.820
22645W        W95713  42.773  43.575   3.203
22646W        W95714  34.007  15.069   4.606
22647W        W95715  39.950  19.485   1.347
22648W        W95716  16.533  38.399  11.736
22649W        W95717   2.143  31.535  11.213
22650W        W95718  38.521  28.296  14.321
22651W        W95719   4.791  12.211  13.040
22652W        W95720   6.106   6.707  13.719
22653W        W95721  33.865  29.670   0.011
22654W        W95722  27.231  11.380  11.577
22655W        W95723  37.592  29.495   3.957
22656W        W95724  34.321  34.122  13.956
22657W        W95725  42.896  29.932   4.590
22658W        W95726  13.932  30.413   2.148
22659W        W95727   8.299  34.014  14.393
22660W        W95728  10.706   0.598   3.216
22661W        W95729   1.705  10.087   3.349
22662W        W95730  43.283   9.105   2.622
22663W        W95731  40.427  33.923  12.692
22664W        W95732  33.910  36.635  14.914
22665W        W95733  27.741  19.734   3.772
22666W        W95734  31.011  28.663   4.679
22667W        W95735  14.312  18.348   2.637
22668W        W95736  26.688   0.741   3.188
22669W        W95737  31.976  38.396   2.255
22670W        W95738  20.443  25.043  10.703
22671W        W95739  10.363  27.946   2.364
22672W        W95740   2.255  17.267   2.728
22673W        W95741  24.106   2.926  11.047
22674W        W95742  44.700   9.751  11.944
22675W        W95743  29.812  10.360  12.270
22676W        W95744  44.695   1.402  11.168
22677W        W95745   4.040  42.419   2.985
22678W        W95746  35.384  10.688  11.243
22679W        W95747  10.624   7.837   3.120
22680W        W95748  10.203   3.011   5.015
22681W        W95749  44.029  25.592   3.050
22682W        W95750   5.773  13.640   1.186
22683W        W95751   0.757  38.989  13.437
22684W        W95752  35.939  36.750  14.331
22685W        W95753  23.637   2.961   2.247
22686W        W95754  42.830  31.022   3.731
22687W        W95755  17.887  11.239  12.945
22688W        W95756   1.286  43.033  13.073
22689W        W95757  28.088  12.688  14.018
22690W        W95758  10.261   2.457   3.490
22691W        W95759  37.068  19.786   3.256
22692W        W95760   5.391  39.526  12.052
22693W        W95761   4.915  26.705   2.722
22694W        W95762  12.825  13.263  14.465
22695W        W95763  22.585   3.699   3.776
22696W        W95764   6.426  20.544   3.569
22697W        W95765  26.915  33.946  14.351
22698W        W95766  12.334  10.675   3.603
22699W        W95767   4.915  38.922  11.178
22700W        W95768  19.713  19.144  11.527
22701W        W95769  42.061  15.252  11.586
22702W        W95770  38.786   9.865  13.779
22703W        W95771  12.395  16.370   0.894
22704W        W95772   7.148  15.662  12.550
22705W        W95773  23.937  18.244  12.942
22706W        W95774  20.006  34.067  12.582
22707W        W95775  44.967  25.010   0.391
22708W        W95776   7.726  26.564  13.930
22709W        W95777  29.972  35.837  12.557
22710W        W95778  15.836  22.283   1.604
22711W        W95779  41.489  32.900   1.250
22712W        W95780  24.902  10.084   1.973
22713W        W95781  15.655  43.775   0.308
22714W        W95782  20.742  38.149   3.304
22715W        W95783   2.959  40.358   2.251
22716W        W95784  27.932  15.764  13.034
22717W        W95785  18.215  27.722  11.960
22718W        W95786  16.586  39.396  12.598
22719W        W95787   3.324  15.511  14.082
22720W        W95788  17.704  24.753  10.765
22721W        W95789   2.898  29.106  13.469
22722W        W95790  32.231   6.663  14.595
22723W        W95791  39.336  24.142  13.405
22724W        W95792  35.904  16.314  10.939
22725W        W95793  41.407  32.343  14.364
22726W        W95794  30.061  28.653  14.283
22727W        W95795   1.216   5.939   1.244
22728W        W95796  20.237  34.327   1.631
22729W        W95797   2.667  33.773  11.038
22730W        W95798  13.590   9.183   1.892
22731W        W95799  39.952   3.962  13.380
22732W        W95800   3.441  40.753   3.721
22733W        W95801  28.731   2.784  14.456
22734W        W95802  22.357  35.080   0.804
22735W        W95803  38.186  43.018  14.770
22736W        W95804  28.678  29.089  14.464
22737W        W95805  12.950  17.564   0.815
22738W        W95806   3.481  44.568   0.318
22739W        W95807  17.600  27.112  12.962
22740W        W95808  33.074  20.253   4.603
22741W        W95809   4.674  33.516  14.061
22742W        W95810  36.055  18.620   3.679
22743W        W95811  39.758  11.416  12.224
22744W        W95812  20.208  34.003  14.069
22745W        W95813  42.852  42.494   1.508
22746W        W95814  17.899  38.139  13.158
22747W        W95815  36.199  42.765   1.373
22748W        W95816   0.676   2.538   4.077
22749W        W95817  28.890  21.113  11.664
22750W        W95818  19.117  41.449   0.250
22751W        W95819  39.445  24.624   3.512
22752W        W95820  17.155  18.526   3.493
22753W        W95821  15.506  33.211   1.355
22754W        W95822  20.141   8.737   1.148
22755W        W95823   7.400  26.449  12.010
22756W        W95824   7.356  29.596  14.483
22757W        W95825  21.922  17.535   3.861
22758W        W95826  36.666  33.113   3.773
22759W        W95827  18.047  12.727   3.550
22760W        W95828  25.582  37.086   2.468
22761W        W95829  39.439  21.189  10.724
22762W        W95830  26.212   5.131  11.616
22763W        W95831  38.027   7.938  13.182
22764W        W95832  39.035   0.308  14.677
22765W        W95833  36.649   3.320   2.715
22766W        W95834   5.640  30.132   4.579
22767W        W95835  37.974  43.496   1.416
22768W        W95836  32.070  22.602   0.347
22769W        W95837  40.581  15.191  14.829
22770W        W95838  40.484   0.507   0.308
22771W        W95839  23.227  42.434  12.595
22772W        W95840  38.756  11.626  11.767
22773W        W95841  43.312  40.553  14.852
22774W        W95842  40.907  27.372  14.408
22775W        W95843  17.775  22.550   4.732
22776W        W95844   7.409  35.367   1.413
22777W        W95845  44.417   6.905   4.193
22778W        W95846  39.743  13.586  11.508
22779W        W95847  29.607  21.173   1.122
22780W        W95848   1.754  16.176   2.396
22781W        W95849  14.719  18.642   2.803
22782W        W95850  17.005  36.747   3.943
22783W        W95851  10.829  29.184   0.479
22784W        W95852  33.825  43.299   1.182
22785W        W95853  40.943   9.647  13.466
22786W        W95854  13.509  17.318  10.994
22787W        W95855  22.652   5.687  14.781
22788W        W95856   7.710  14.114  13.578
22789W        W95857   7.063  35.339  11.166
22790W        W95858  15.076  34.426   2.342
22791W        W95859  12.563  17.308  13.088
22792W        W95860  23.605  44.048   3.838
22793W        W95861  20.561  35.871  12.456
22794W        W95862  12.178   2.739   3.417
22795W        W95863  28.871  44.872  14.975
22796W        W95864  12.123  30.975   2.612
22797W        W95865   5.375  21.736   1.985
22798W        W95866  21.062  13.036  12.928
22799W        W95867  28.570  25.198   3.444
22800W        W95868  44.575  20.129   1.240
22801W        W95869  35.971  12.716   4.411
22802W        W95870  27.403  13.696   2.140
22803W        W95871  30.923   3.340  11.679
22804W        W95872  39.917  18.487   4.822
22805W        W95873   7.205  17.160  14.324
22806W        W95874  16.743  38.574   1.944
22807W        W95875   9.825  35.760  14.415
22808W        W95876  43.061  42.600   3.786
22809W        W95877  19.009  33.605   3.681
22810W        W95878  35.669  14.624   2.725
22811W        W95879  32.189  25.506  11.102
22812W        W95880  23.131  10.925  12.618
22813W        W95881  16.319   2.386   3.286
22814W        W95882  29.083  11.890   0.808
22815W        W95883  43.502  22.240   1.909
22816W        W95884  28.250  19.329  11.951
22817W        W95885   6.371  23.667  11.980
22818W        W95886  40.579  28.040  12.922
22819W        W95887  23.585   3.466  12.397
22820W        W95888  26.492   9.338   3.168
22821W        W95889  28.980  32.563   1.830
22822W        W95890  16.715  38.252   2.347
22823W        W95891   8.839  17.141   3.680
22824W        W95892   2.225   0.057   2.070
22825W        W95893  38.562  20.047   4.628
22826W        W95894  24.592  33.926   1.241
22827W        W95895  43.014  38.744   4.929
22828W        W95896  14.236  19.388  10.708
22829W        W95897  38.403  10.874   4.762
22830W        W95898  30.248  31.429  12.535
22831W        W95899  32.516  43.137   1.399
22832W        W95900  30.944  43.567   4.132
22833W        W95901  30.027  35.606  10.715
22834W        W95902  17.961  37.002   4.072
22835W        W95903  31.019   2.883   2.294
22836W        W95904  30.528  31.449   1.287
22837W        W95905  29.062  29.845  12.936
22838W        W95906   4.293  39.573   3.619
22839W        W95907  17.692  16.706   2.558
22840W        W95908   7.826   1.760   0.752
22841W        W95909  19.806  19.769  12.871
22842W        W95910  13.169  29.432   3.293
22843W        W95911  21.045  27.363   4.863
22844W        W95912  24.626  22.629   2.882
22845W        W95913  23.291  38.950  10.674
22846W        W95914  38.949  24.778   3.787
22847W        W95915  26.638   8.355   1.516
22848W        W95916  12.579  35.153   1.273
22849W        W95917  35.882  32.564   4.679
22850W        W95918  35.180  18.127  11.634
22851W        W95919  27.838   0.838   1.391
22852W        W95920  27.143  39.456   3.978
22853W        W95921  39.164   3.473  13.155
22854W        W95922  36.728  40.933   0.765
22855W        W95923  22.522  28.230  13.475
22856W        W95924  34.126   1.505  12.519
22857W        W95925   2.520   4.738   2.779
22858W        W95926  17.254  31.578  12.007
22859W        W95927  17.837   3.673   1.911
22860W        W95928  35.184  30.652  13.820
22861W        W95929  39.083   7.113   4.416
22862W        W95930  19.660  30.099  12.081
22863W        W95931  11.298  34.515  10.956
22864W        W95932  20.063  15.730  13.752
22865W        W95933  16.740  43.788   1.443
22866W        W95934  13.190  34.430   0.689
22867W        W95935  34.036  36.174  13.627
22868W        W95936  44.288  10.673  14.383
22869W        W95937   2.344   6.890   3.939
22870W        W95938  20.620  15.744   1.885
22871W        W95939  39.080  30.932  11.503
22872W        W95940   7.669  33.386  13.018
22873W        W95941  35.292  42.919   1.349
22874W        W95942  41.734  25.685   1.040
22875W        W95943  10.800  26.212   2.602
22876W        W95944  30.198  19.179   1.278
22877W        W95945  20.122  44.887  14.337
22878W        W95946  29.946   6.255  14.432
22879W        W95947  17.122   2.935  11.112
22880W        W95948  32.134  17.979  14.923
22881W        W95949   8.121  43.099  12.905
22882W        W95950  32.521   8.103  12.889
22883W        W95951  14.908   5.576  14.448
22884W        W95952  13.175   4.825   1.832
22885W        W95953  13.700  30.470  13.526
22886W        W95954  25.638  27.592  13.447
22887W        W95955  41.934  39.570  14.286
22888W        W95956  43.289   4.105   0.169
22889W        W95957   3.428   1.869   4.182
22890W        W95958  24.987  15.473   1.083
22891W        W95959  16.022  30.637   4.603
22892W        W95960  40.832   3.785   3.358
22893W        W95961  21.983  43.345  12.013
22894W        W95962  19.091  10.043  13.791
22895W        W95963   7.396  11.055   2.014
22896W        W95964   6.451  18.598  10.532
22897W        W95965  26.386   3.211   0.974
22898W        W95966   5.159  26.597  12.449
22899W        W95967   8.749   7.222   4.679
22900W        W95968  44.153   3.778   1.418
22901W        W95969  35.981   4.969   0.174
22902W        W95970  17.030  18.146  10.606
22903W        W95971  35.292  15.367   1.431
22904W        W95972  28.548  35.997  13.624
22905W        W95973  12.611  41.138  13.488
22906W        W95974  13.781  13.044  11.687
22907W        W95975  41.974  30.069  10.748
22908W        W95976   8.424   6.330  11.614
22909W        W95977  11.543  24.983   1.628
22910W        W95978  44.834  25.648  12.011
22911W        W95979  28.688  17.052   0.428
22912W        W95980  41.316  20.550  12.883
22913W        W95981  43.872  19.702  12.829
22914W        W95982  18.228  19.788  12.901
22915W        W95983  25.544  10.642  14.864
22916W        W95984  34.913  39.894  13.536
22917W        W95985  36.302  35.117   5.258
22918W        W95986   2.451  40.352  12.915
22919W        W95987  18.317  19.306  12.792
22920W        W95988  43.869  18.512  10.672
22921W        W95989   7.884   0.206   3.505
22922W        W95990  28.112  22.749   1.946
22923W        W95991   8.858   3.874  14.205
22924W        W95992  26.096  22.761   1.849
22925W        W95993  35.896  27.619   4.162
22926W        W95994   6.483   1.870  13.148
22927W        W95995  32.140  34.087  12.619
22928W        W95996   6.449  44.520   1.512
22929W        W95997  30.588  11.062   0.389
22930W        W95998  12.765   4.593   3.197
22931W        W95999  37.312   8.136   0.005
22932W        W96000  23.820  12.614  11.978
22933W        W96001  11.149  19.163   5.461
22934W        W96002  36.928   3.053  10.758
22935W        W96003  23.485  44.434  13.772
22936W        W96004  11.181  28.551  14.356
22937W        W96005  11.705  21.800  14.190
22938W        W96006  32.220  13.308  12.448
22939W        W96007  41.956  30.361   3.226
22940W        W96008  24.015  10.252   3.146
22941W        W96009  34.469  25.158   3.779
22942W        W96010  22.529   7.279  10.384
22943W        W96011  31.578  36.616  13.301
22944W        W96012  44.444  41.498   3.414
22945W        W96013   6.317   9.224   3.555
22946W        W96014  11.299  37.867   2.930
22947W        W96015  35.494  12.360   3.701
22948W        W96016   7.885  25.539   3.660
22949W        W96017  36.889  26.283   1.832
22950W        W96018  39.780  15.751  10.513
22951W        W96019  19.134  11.708   1.479
22952W        W96020   1.862  34.302   0.397
22953W        W96021  18.073  42.252   2.743
22954W        W96022  14.578  36.945   1.952
22955W        W96023  20.347  11.616   4.133
22956W        W96024  38.138  43.233   4.484
22957W        W96025  33.190  20.518  11.965
22958W        W96026  41.559  13.160  12.477
22959W        W96027  28.894   0.530   3.378
22960W        W96028  33.674  16.364  10.046
22961W        W96029  32.248  23.798  13.315
22962W        W96030  19.015   7.725  10.689
22963W        W96031  11.037   9.351   0.389
22964W        W96032  21.150  12.931  13.935
22965W        W96033  31.594  22.990  10.537
22966W        W96034  24.032  36.014   0.937
22967W        W96035  32.332  22.020  14.554
22968W        W96036  42.480   7.239  11.979
22969W        W96037  22.527  28.427   0.707
22970W        W96038  37.465   6.497  12.082
22971W        W96039  27.178  18.088  11.568
22972W        W96040  18.793  35.402  11.513
22973W        W96041  44.341  43.624  14.835
22974W        W96042  37.058  39.429   1.901
22975W        W96043  38.258  15.736   2.316
22976W        W96044  28.402  35.693   4.009
22977W        W96045   6.347  14.283   0.847
22978W        W96046   7.020   6.074  10.344
22979W        W96047   2.933  15.821  12.077
22980W        W96048  36.363  14.620  10.904
22981W        W96049  35.550  19.695  14.388
22982W        W96050  38.600  32.102   1.743
22983W        W96051  24.173  18.995   3.192
22984W        W96052  21.182  13.653   3.501
22985W        W96053  35.560  11.526  11.162
22986W        W96054   9.899  11.082   4.185
22987W        W96055  21.603   4.458  14.277
22988W        W96056   1.982  16.403  10.664
22989W        W96057   3.877   3.180  14.295
22990W        W96058   4.502  35.364   2.795
22991W        W96059  17.996  11.079  11.552
22992W        W96060  11.655  13.623  10.683
22993W        W96061  40.201   7.033   4.324
22994W        W96062  41.510  41.912   4.578
22995W        W96063  27.620  19.151   1.196
22996W        W96064  39.971  36.102  12.074
22997W        W96065   7.163  42.809  12.743
22998W        W96066  34.535  30.148  13.520
22999W        W96067   0.513  34.109  14.000
23000W        W96068  38.045  11.897  12.471
23001W        W96069  41.165  34.078  14.003
23002W        W96070  44.859  33.012  14.480
23003W        W96071  14.330   7.397   4.429
23004W        W96072  10.285  35.383   3.879
23005W        W96073   7.786  44.956   1.193
23006W        W96074  34.562  41.793  13.451
23007W        W96075  37.292   4.285  14.753
23008W        W96076  27.066  14.214  11.650
23009W        W96077  15.034  43.360   4.753
23010W        W96078  39.755   8.295  10.592
23011W        W96079  22.007  17.541   4.726
23012W        W96080  15.058  14.126  13.421
23013W        W96081  44.844  35.364   3.666
23014W        W96082  15.674  30.911   3.664
23015W        W96083  11.654  27.486  11.758
23016W        W96084   1.727  19.840  11.222
23017W        W96085  17.055   6.265  13.561
23018W        W96086  39.354   5.169  11.681
23019W        W96087  43.319  28.640  13.869
23020W        W96088   3.306   0.868   2.002
23021W        W96089  25.597  44.721  11.687
23022W        W96090  16.393   4.010   4.650
23023W        W96091  42.366   8.382   1.717
23024W        W96092  31.876   3.286  14.750
23025W        W96093   5.143  28.454  11.134
23026W        W96094  38.404  29.682   4.607
23027W        W96095  27.938  22.036   3.262
23028W        W96096  24.624   0.537   0.810
23029W        W96097  40.503  35.187   3.604
23030W        W96098   1.762  12.863   3.676
23031W        W96099  14.171   6.202   3.222
23032W        W96100  36.075  36.895   4.446
23033W        W96101  37.625  43.492   0.809
23034W        W96102  25.907  23.939  13.728
23035W        W96103  17.243  35.924  13.987
23036W        W96104   5.374  35.195  11.668
23037W        W96105  40.072  24.023  14.381
23038W        W96106  13.906  23.964  12.126
23039W        W96107   8.375  14.652  12.459
23040W        W96108  32.924  22.276   2.141
23041W        W96109  11.415   7.170   1.234
23042W        W96110  25.455  28.571   4.985
23043W        W96111   1.739  34.663   1.738
23044W        W96112  35.036  40.124  12.630
23045W        W96113  30.151  32.889   2.230
23046W        W96114  15.604  10.807   3.879
23047W        W96115   9.957   8.196   2.156
23048W        W96116  23.453  22.338   2.200
23049W        W96117  28.578  19.706   4.593
23050W        W96118  26.157  13.440  13.494
23051W        W96119  22.498  39.374  10.213
23052W        W96120   8.809  33.385  14.836
23053W        W96121  11.021  41.494  11.217
23054W        W96122  25.536  22.224   2.496
23055W        W96123  25.678  24.577  10.742
23056W        W96124  14.689  41.445  12.773
23057W        W96125   7.553  17.108  12.161
23058W        W96126  10.423  27.634   3.736
23059W        W96127   2.694  40.836  11.577
23060W        W96128  34.297  26.718   2.827
23061W        W96129  35.088  26.725   2.397
23062W        W96130  41.496  38.913  13.505
23063W        W96131  30.488  43.731  12.819
23064W        W96132  42.980   8.044  11.975
23065W        W96133  18.117   8.355   3.428
23066W        W96134  41.067  26.058  12.735
23067W        W96135  22.027   6.925   2.829
23068W        W96136  10.666  39.982   0.669
23069W        W96137  17.550  21.583  14.125
23070W        W96138   8.646  43.797   3.951
23071W        W96139  28.728  12.710  13.120
23072W        W96140  30.614  25.039   2.250
23073W        W96141  33.390  14.530  10.974
23074W        W96142  30.986   7.943  14.711
23075W        W96143  44.483  16.893   4.117
23076W        W96144  42.366  27.974   1.707
23077W        W96145  43.969   8.402  14.992
23078W        W96146  13.850   7.909  11.597
23079W        W96147  24.621  30.901  14.888
23080W        W96148  29.960  13.274   0.717
23081W        W96149  21.954   5.368   2.756
23082W        W96150  21.702   3.861   0.432
23083W        W96151  13.790   1.191  10.897
23084W        W96152  31.725  29.205  11.141
23085W        W96153  40.071  11.799  13.472
23086W        W96154  12.292  24.068  13.575
23087W        W96155   1.792   2.116  10.569
23088W        W96156  41.796  20.012   2.573
23089W        W96157  13.429  12.119   4.407
23090W        W96158  38.966  33.305  14.300
23091W        W96159   0.264   3.548   2.274
23092W        W96160  24.235   2.710  14.166
23093W        W96161  32.697  16.753   4.613
23094W        W96162  29.751  31.129  11.952
23095W        W96163  32.139  13.604  14.920
23096W        W96164   9.407  16.574  13.585
23097W        W96165  42.830  13.109  11.201
23098W        W96166  24.927  42.919  10.718
23099W        W96167  17.959  35.943  11.096
23100W        W96168  25.129  16.640   2.855
23101W        W96169   8.640  36.595   1.625
23102W        W96170  24.650  34.506   0.451
23103W        W96171  33.369  33.588   4.557
23104W        W96172  22.189   5.969   0.925
23105W        W96173  13.662  13.348   0.688
23106W        W96174  40.411  30.911  13.333
23107W        W96175  15.114  10.868   1.868
23108W        W96176  31.302   4.049   0.388
23109W        W96177  37.111  44.014  14.751
23110W        W96178  16.804   4.080  10.539
23111W        W96179  18.606  38.154  11.934
23112W        W96180  36.524  15.739  10.538
23113W        W96181   9.110  20.722  14.088
23114W        W96182  32.389   0.359   0.209
23115W        W96183  13.807   7.384  12.241
23116W        W96184  16.114  17.618  12.158
23117W        W96185  12.025  24.597  11.309
23118W        W96186  41.853  21.285  14.232
23119W        W96187  18.123  38.389   0.711
23120W        W96188  29.201  14.133   3.247
23121W        W96189  21.520  32.335   3.726
23122W        W96190   6.294  16.813  13.881
23123W        W96191  43.048  21.500   2.152
23124W        W96192  36.360  11.209  12.138
23125W        W96193  36.746  33.626   1.835
23126W        W96194  44.647  13.356   2.876
23127W        W96195   4.937  34.439   3.788
23128W        W96196   0.317  44.335  14.518
23129W        W96197  21.332   2.804  10.989
23130W        W96198  10.028  19.779   1.782
23131W        W96199   5.244  29.047   3.426
23132W        W96200  16.079  44.467  11.037
23133W        W96201  27.457  15.109  11.592
23134W        W96202   8.883  20.057  12.029
23135W        W96203  16.519  19.023   2.873
23136W        W96204  11.850  10.096   5.037
23137W        W96205  28.020   4.892  12.540
23138W        W96206  25.063  44.268  13.039
23139W        W96207  23.781   7.627  12.932
23140W        W96208  22.356  17.790   4.434
23141W        W96209  12.581  40.129  12.581
23142W        W96210  38.691  35.032   2.381
23143W        W96211   9.129  42.112   2.809
23144W        W96212  33.100  25.888   4.659
23145W        W96213   4.991  21.056   0.518
23146W        W96214  36.055  34.691   5.125
23147W        W96215  33.862  40.497  13.539
23148W        W96216  11.134  12.778   2.792
23149W        W96217  34.634  39.183   2.880
23150W        W96218  41.581  34.896   2.691
23151W        W96219  22.267  14.331  13.148
23152W        W96220  39.438   4.307   2.428
23153W        W96221   4.189  12.482   0.948
23154W        W96222  23.091  31.433  10.697
23155W        W96223  25.055  16.068  11.981
23156W        W96224   5.621   1.332  11.563
23157W        W96225  24.238  28.217  14.435
23158W        W96226  19.210  25.016   4.240
23159W        W96227  30.041  26.382   0.932
23160W        W96228  43.349  30.429  13.439
23161W        W96229   5.721  21.394  14.060
23162W        W96230  30.592  26.996  12.825
23163W        W96231  40.164  41.541  11.732
23164W        W96232  32.903  20.470   4.167
23165W        W96233  31.408  26.415   4.320
23166W        W96234  30.893   7.250  10.399
23167W        W96235  43.916  42.572   2.263
23168W        W96236   4.525  24.319   0.821
23169W        W96237  17.317  17.149   0.029
23170W        W96238  44.455  11.041  14.860
23171W        W96239  27.155  43.791   2.424
23172W        W96240   3.326  32.756   2.608
23173W        W96241   3.577  14.733  13.289
23174W        W96242  44.492  28.507   2.296
23175W        W96243  44.307  17.058  11.575
23176W        W96244  24.026  29.100   2.845
23177W        W96245  29.151  28.635   0.463
23178W        W96246  23.064   3.603  13.438
23179W        W96247  35.986  11.422   1.764
23180W        W96248   5.444  40.599  12.902
23181W        W96249  41.284   1.134   4.089
23182W        W96250  14.363  23.968   2.282
23183W        W96251  40.593  42.654   4.079
23184W        W96252   8.891   4.725  12.299
23185W        W96253  27.588   5.515  14.492
23186W        W96254  43.544  35.045   1.307
23187W        W96255  20.988  40.712  12.451
23188W        W96256  22.835  25.746  12.938
23189W        W96257  36.002  32.555  10.598
23190W        W96258   2.948  17.213   0.827
23191W        W96259   1.880  44.740   1.872
23192W        W96260  24.045  30.888   0.753
23193W        W96261   9.929  17.709  12.046
23194W        W96262  34.383  35.277  11.849
23195W        W96263  33.729  31.189  13.968
23196W        W96264  25.248   2.220  12.870
23197W        W96265  37.632  23.792   2.744
23198W        W96266   3.780  44.390   3.872
23199W        W96267  19.416  33.639  12.537
23200W        W96268  17.595  12.207   1.241
23201W        W96269  44.875  12.421  12.981
23202W        W96270  40.495  34.531  13.696
23203W        W96271   4.317  17.150   0.824
23204W        W96272  15.703  36.985  12.615
23205W        W96273  13.992   9.216   5.047
23206W        W96274  36.168  31.052   3.829
23207W        W96275  12.190   2.692   4.343
23208W        W96276  41.451  21.537  14.875
23209W        W96277  34.743  40.634  10.993
23210W        W96278  11.931  16.658  11.962
23211W        W96279   3.365   8.933  10.736
23212W        W96280  44.016  21.771  11.497
23213W        W96281  22.635  36.805   2.887
23214W        W96282  20.743  41.280  11.450
23215W        W96283  29.874   2.722  12.392
23216W        W96284  25.239   5.348  12.474
23217W        W96285  28.812   0.993   3.161
23218W        W96286  25.176  26.514  14.878
23219W        W96287  22.654   0.773   2.221
23220W        W96288  20.809  13.514  12.945
23221W        W96289  14.750  12.860   4.590
23222W        W96290  22.839  16.628   5.090
23223W        W96291   0.916  31.382   0.589
23224W        W96292  15.516  32.155  12.895
23225W        W96293  10.300  37.547   0.175
23226W        W96294  19.753  37.411  13.092
23227W        W96295   9.274   0.965  10.770
23228W        W96296  26.038   2.098  11.414
23229W        W96297  29.236  22.229   1.206
23230W        W96298   1.712   0.741  10.597
23231W        W96299  10.284   2.218   4.697
23232W        W96300  12.652  43.921   1.456
23233W        W96301  43.083  41.468   3.189
23234W        W96302   6.907  22.998   4.666
23235W        W96303  34.530   0.931   3.174
23236W        W96304  42.488   7.238  10.467
23237W        W96305   9.518  30.397   4.648
23238W        W96306  20.760   9.641  12.890
23239W        W96307   2.244  22.261   1.154
23240W        W96308  29.672  41.536   3.463
23241W        W96309  30.101   0.341   1.462
23242W        W96310  42.282  22.625  13.805
23243W        W96311  16.661  17.685  14.617
23244W        W96312  25.969  32.588   2.823
23245W        W96313   8.782  14.844  14.452
23246W        W96314  42.500  16.109   4.571
23247W        W96315  10.804  44.231  12.461
23248W        W96316  17.343   5.085  13.773
23249W        W96317  31.702  29.957   4.606
23250W        W96318  26.334  23.584   4.723
23251W        W96319  35.891  20.934   5.337
23252W        W96320  24.611  38.884   0.309
23253W        W96321  34.909   5.132  11.405
23254W        W96322  37.457   6.268   3.782
23255W        W96323  18.957  44.787  13.570
23256W        W96324  26.904  34.049   1.650
23257W        W96325  39.554  23.644   4.596
23258W        W96326  41.881  17.659   4.998
23259W        W96327  29.559   5.747  10.756
23260W        W96328  27.674  10.467   4.165
23261W        W96329  17.691  15.799   3.216
23262W        W96330   3.685  15.109   4.566
23263W        W96331  29.694  23.269   0.157
23264W        W96332  22.232   5.678  12.032
23265W        W96333   5.792  23.097   0.357
23266W        W96334   1.536  17.836   1.873
23267W        W96335   1.650  14.144   1.201
23268W        W96336  15.537  22.896  11.954
23269W        W96337  30.840  19.204   3.378
23270W        W96338  39.348  12.851  12.869
23271W        W96339  44.995  11.402   4.526
23272W        W96340  22.713  34.645  12.885
23273W        W96341  15.735  24.707  10.616
23274W        W96342  43.963   7.345  13.888
23275W        W96343  40.243  16.205   3.252
23276W        W96344  12.395  21.072  11.557
23277W        W96345  41.442   2.610  14.092
23278W        W96346  39.067  34.360  10.704
23279W        W96347  28.480  14.030  11.535
23280W        W96348  29.001   7.965  13.447
23281W        W96349  35.353   9.237  13.730
23282W        W96350  11.393  22.698  11.103
23283W        W96351  23.693  20.098   1.767
23284W        W96352   6.281  36.800   0.236
23285W        W96353  16.352  35.671   0.490
23286W        W96354   9.635  44.382   3.758
23287W        W96355  18.763  27.769  11.951
23288W        W96356   8.330  16.284  13.305
23289W        W96357  21.562  42.570  11.479
23290W        W96358  38.106   1.554  13.350
23291W        W96359  29.186  18.950   2.770
23292W        W96360  19.839  24.214  11.565
23293W        W96361  14.611  34.243   3.197
23294W        W96362   9.793  12.250  13.295
23295W        W96363   7.888  42.016   1.670
23296W        W96364  23.232   7.805   2.764
23297W        W96365  36.858   3.608  10.753
23298W        W96366  23.004  33.709   0.780
23299W        W96367  26.069  17.919  13.807
23300W        W96368   8.859  25.194  11.442
23301W        W96369  12.735  40.529   3.304
23302W        W96370  23.309  32.967   1.921
23303W        W96371  21.769  26.485   2.645
23304W        W96372  41.397  22.835  12.406
23305W        W96373  26.991  38.648  11.112
23306W        W96374   2.974  35.122   1.149
23307W        W96375  15.743  23.107   0.229
23308W        W96376  20.815  26.039  11.226
23309W        W96377  20.235   2.473  13.871
23310W        W96378  15.060  38.174   0.814
23311W        W96379  41.938  42.981  12.942
23312W        W96380  38.560  11.362  13.450
23313W        W96381  20.258  36.058  10.665
23314W        W96382  28.243  20.690   4.262
23315W        W96383  16.349  11.816  13.739
23316W        W96384  19.139  28.405   0.769
23317W        W96385   3.531  20.914   3.609
23318W        W96386   7.310  27.577  13.157
23319W        W96387   8.548  15.800  11.024
23320W        W96388  23.455   1.668  11.186
23321W        W96389   0.041  34.976  10.389
23322W        W96390  37.065  23.301  11.935
23323W        W96391  10.884  41.871  13.491
23324W        W96392   4.178  15.615  11.863
23325W        W96393  43.017  29.214   2.937
23326W        W96394  20.029  38.530   1.273
23327W        W96395  33.341  18.483   4.029
23328W        W96396   1.471  26.196   2.865
23329W        W96397  26.470  24.986  11.346
23330W        W96398  29.520  29.935   2.480
23331W        W96399  23.626  34.706  11.620
23332W        W96400  38.843  26.606  12.864
23333W        W96401   7.420  17.342  12.866
23334W        W96402  14.014  15.229  12.570
23335W        W96403  44.075  32.935   0.892
23336W        W96404   5.301   5.887   4.995
23337W        W96405  31.359   8.014   4.097
23338W        W96406  13.206  44.350   0.056
23339W        W96407  32.188  38.869   0.422
23340W        W96408  23.388  26.371  12.852
23341W        W96409  34.191  21.741   0.459
23342W        W96410  12.626  20.031  13.248
23343W        W96411  30.952  26.590   1.327
23344W        W96412   4.245  23.075   5.010
23345W        W96413  22.728  15.105  10.664
23346W        W96414  36.353  11.715  14.477
23347W        W96415   4.546  35.585   0.698
23348W        W96416  27.162  26.669  10.999
23349W        W96417   4.420   7.006   0.298
23350W        W96418  21.223   0.938  12.862
23351W        W96419  39.572   5.432  12.445
23352W        W96420  44.384  13.650  13.018
23353W        W96421  42.147  36.504  12.645
23354W        W96422  27.508   3.948   4.838
23355W        W96423  14.345  22.226  13.740
23356W        W96424  42.403   4.360  14.514
23357W        W96425  27.194  21.281  11.141
23358W        W96426  41.833   2.906   1.344
23359W        W96427  29.669   1.241  12.436
23360W        W96428  41.034  13.142  12.483
23361W        W96429   8.938  10.979   3.206
23362W        W96430   3.627  22.191   3.200
23363W        W96431  21.178  44.903   1.002
23364W        W96432  30.126  10.157  10.736
23365W        W96433  12.151   3.918  13.557
23366W        W96434   3.040   4.218   3.658
23367W        W96435   3.878  23.269  14.969
23368W        W96436  17.816  37.558   4.498
23369W        W96437  16.316  17.338   1.560
23370W        W96438   2.406  30.353   3.242
23371W        W96439   5.675   1.945   2.762
23372W        W96440  32.608  27.287  14.509
23373W        W96441  16.546  18.031  13.869
23374W        W96442  41.949  13.770   1.470
23375W        W96443  18.760  26.495   0.807
23376W        W96444  18.155  41.237   0.536
23377W        W96445  39.335   0.661  12.581
23378W        W96446  12.188   0.368   1.110
23379W        W96447  33.857  40.806   1.414
23380W        W96448  37.467  43.546  12.650
23381W        W96449   9.796  27.069   3.363
23382W        W96450  38.406  15.632   0.971
23383W        W96451  24.076  12.774  12.518
23384W        W96452  40.206   2.007  10.294
23385W        W96453  42.359   2.966   4.511
23386W        W96454  30.523  36.332  12.150
23387W        W96455  40.961  32.641  13.497
23388W        W96456  44.445  17.063  12.459
23389W        W96457  30.628  28.996  13.843
23390W        W96458   0.114  19.827  11.979
23391W        W96459  36.956  36.894   2.659
23392W        W96460  26.035  26.678   3.047
23393W        W96461   4.954  15.004   1.837
23394W        W96462   8.292  38.356  15.000
23395W        W96463  22.000  14.639   0.750
23396W        W96464   2.161  14.864   2.358
23397W        W96465  28.217  40.982  13.443
23398W        W96466  27.146  23.839   1.667
23399W        W96467  13.667  40.060   1.925
23400W        W96468   9.340  41.250  11.633
23401W        W96469  41.519  20.720   2.982
23402W        W96470  40.497  29.568  14.418
23403W        W96471  14.727  30.464   1.944
23404W        W96472  29.479  31.864   3.174
23405W        W96473  13.828  34.331  10.574
23406W        W96474  26.930  19.549   2.782
23407W        W96475  37.815  41.857   2.731
23408W        W96476   8.203   2.113   0.819
23409W        W96477  31.461  12.713   2.154
23410W        W96478  36.580   2.190   0.911
23411W        W96479   1.726  40.889  12.714
23412W        W96480  34.789  38.393  14.463
23413W        W96481  44.538  39.888  10.694
23414W        W96482  31.466  12.345   3.530
23415W        W96483  10.101  16.196   1.223
23416W        W96484  18.026   0.007   0.929
23417W        W96485  32.418  27.451  13.887
23418W        W96486  15.726   1.287   4.609
23419W        W96487  22.626  20.871  10.438
23420W        W96488  38.903   1.307  13.834
23421W        W96489   7.876  23.121   1.297
23422W        W96490   3.528  40.403  12.742
23423W        W96491  37.719  12.389   4.267
23424W        W96492  18.119  20.552   4.402
23425W        W96493  21.171   2.850  13.702
23426W        W96494  41.542  11.187  12.455
23427W        W96495  11.662   4.458  11.502
23428W        W96496  37.399  27.946   0.891
23429W        W96497  39.368   4.821  14.219
23430W        W96498  23.700  31.520  10.724
23431W        W96499  38.011  22.439   3.551
23432W        W96500  10.972  43.722   3.994
23433W        W96501  24.291  33.235  13.483
23434W        W96502  33.624  11.792   0.481
23435W        W96503  14.520   2.279  13.372
23436W        W96504  37.453  28.716   2.768
23437W        W96505  35.073   1.016  13.845
23438W        W96506  18.062  35.580   3.589
23439W        W96507  11.419  11.356   4.168
23440W        W96508  43.337  23.158   0.331
23441W        W96509  14.169  38.561  11.370
23442W        W96510  42.495  43.138  11.718
23443W        W96511  25.190   0.279   3.236
23444W        W96512  14.673  10.164  10.741
23445W        W96513   4.804  22.848  11.476
23446W        W96514   2.250  27.671   1.377
23447W        W96515  20.090  40.751   2.263
23448W        W96516  21.632  20.962   3.934
23449W        W96517  19.760  13.239  13.901
23450W        W96518   9.596   7.173   2.150
23451W        W96519  40.340  14.351   0.091
23452W        W96520  18.216  21.103  11.985
23453W        W96521  27.876  39.605   4.590
23454W        W96522  19.586  43.220   1.299
23455W        W96523  26.657  10.592   4.943
23456W        W96524  28.210  39.403  11.472
23457W        W96525  29.532   2.717   3.064
23458W        W96526  20.054  16.302  14.420
23459W        W96527  26.951  39.869  12.442
23460W        W96528  21.282   2.833  12.345
23461W        W96529  10.727  21.947  13.719
23462W        W96530  32.860  26.625  10.410
23463W        W96531   2.048  34.531  13.476
23464W        W96532  38.752  29.437   0.017
23465W        W96533  19.206  29.849  12.898
23466W        W96534  21.425  15.262  14.576
23467W        W96535  10.686  14.755  13.501
23468W        W96536   8.252  15.134  10.771
23469W        W96537  24.084  14.576  14.511
23470W        W96538  38.985  21.504   0.698
23471W        W96539   2.179   9.874  10.580
23472W        W96540   7.866  22.080  13.914
23473W        W96541  40.958  18.250   2.132
23474W        W96542  28.384  27.475  11.624
23475W        W96543  35.946  42.980   1.841
23476W        W96544  42.042  32.118   2.739
23477W        W96545  15.061   8.338   1.768
23478W        W96546  22.538  31.824  14.363
23479W        W96547  42.931  38.023   4.132
23480W        W96548  28.535  17.359   4.143
23481W        W96549  26.978  43.701  12.605
23482W        W96550  10.181  40.252   1.329
23483W        W96551  32.336  24.103   1.252
23484W        W96552  44.731   5.825  10.431
23485W        W96553  42.449  31.541  14.358
23486W        W96554  20.252  26.105  13.875
23487W        W96555  40.934  10.594   4.434
23488W        W96556  13.900   4.756  12.495
23489W        W96557  30.489  20.138   1.710
23490W        W96558  13.700   5.268  14.467
23491W        W96559  39.925  13.331   3.068
23492W        W96560  24.046  19.766   2.797
23493W        W96561  31.975  18.784   2.759
23494W        W96562  32.335  10.674  12.565
23495W        W96563   6.262   0.003   3.270
23496W        W96564  24.305  22.008   1.874
23497W        W96565  33.100  16.309  10.978
23498W        W96566  15.711  28.135  10.636
23499W        W96567  28.978  23.025  11.619
23500W        W96568   2.306  28.896   3.247
23501W        W96569  21.579  32.002  12.931
23502W        W96570  35.537  14.526   1.944
23503W        W96571  18.568  20.004  13.214
23504W        W96572  33.060  32.177   1.575
23505W        W96573  37.934  12.103  11.549
23506W        W96574   1.429   2.977  10.780
23507W        W96575  42.429  16.765   0.129
23508W        W96576  23.636  22.931  14.062
23509W        W96577   2.624  26.726   1.471
23510W        W96578  26.281  18.806  13.869
23511W        W96579  42.317  42.974  11.247
23512W        W96580  22.288  16.179   2.595
23513W        W96581  19.564  26.852   2.204
23514W        W96582   1.671  30.091   4.478
23515W        W96583  17.122  20.657  12.586
23516W        W96584  20.016  13.788   5.074
23517W        W96585  18.768   9.903  10.458
23518W        W96586  43.496  39.333   3.101
23519W        W96587  11.938   4.488   2.097
23520W        W96588  31.465   5.988  13.037
23521W        W96589  44.305   5.690   1.400
23522W        W96590   4.866  30.390  11.998
23523W        W96591  41.661   8.913   0.789
23524W        W96592  32.520   1.291   0.347
23525W        W96593  12.723   1.462  14.862
23526W        W96594  37.074  16.146  12.926
23527W        W96595   9.534  31.979   3.002
23528W        W96596  42.978  25.935  11.619
23529W        W96597  25.157  33.362  13.640
23530W        W96598  34.708  10.314  13.462
23531W        W96599  12.096  19.737  13.817
23532W        W96600  11.429  24.124   4.191
23533W        W96601  41.857   1.763  11.191
23534W        W96602  21.310  38.989  10.681
23535W        W96603  29.011  15.266  14.374
23536W        W96604   8.229  18.632  12.444
23537W        W96605  21.199  23.845   2.859
23538W        W96606  12.807  17.651   2.295
23539W        W96607  30.359  32.595  13.937
23540W        W96608  38.624  20.469   4.348
23541W        W96609  20.273   1.701   2.748
23542W        W96610  25.613  12.375  11.698
23543W        W96611   7.755  42.807  10.116
23544W        W96612  24.512  31.601  13.346
23545W        W96613  35.064  42.588   3.235
23546W        W96614  27.286  10.045  14.366
23547W        W96615  26.577   9.250   4.070
23548W        W96616  37.493  10.830  11.510
23549W        W96617   7.334   6.960   1.111
23550W        W96618  10.383  36.302  10.216
23551W        W96619  31.307  42.022   2.766
23552W        W96620  36.336  37.956   2.924
23553W        W96621  15.025  23.129   3.756
23554W        W96622   7.447  14.734   1.269
23555W        W96623  43.937  42.529   4.665
23556W        W96624  15.433  28.596   3.324
23557W        W96625  39.354  40.503   0.334
23558W        W96626  37.779  38.862   3.127
23559W        W96627   4.089   1.412  13.087
23560W        W96628  29.988  12.216  11.096
23561W        W96629  28.882  26.095   0.443
23562W        W96630  32.596  17.243  13.048
23563W        W96631  37.513  31.683  10.889
23564W        W96632   1.449  18.444  12.696
23565W        W96633  36.544  43.247   4.137
23566W        W96634  15.055  43.874   2.750
23567W        W96635  21.126   8.796   4.775
23568W        W96636  13.299  32.114   0.699
23569W        W96637   7.669  41.757   4.813
23570W        W96638  25.471  27.215   4.286
23571W        W96639  32.153   2.772   4.042
23572W        W96640  23.771   4.825  12.979
23573W        W96641   0.869  37.755  11.640
23574W        W96642  44.914  10.330   3.187
23575W        W96643   0.642  28.074  10.455
23576W        W96644  32.878  43.749   4.120
23577W        W96645  22.009  29.899  11.129
23578W        W96646  19.968  30.399  12.900
23579W        W96647   3.322  38.821   3.148
23580W        W96648   5.347   3.106   2.279
23581W        W96649  23.007  42.339  14.056
23582W        W96650  12.371  39.322   2.331
23583W        W96651  13.799  14.077  11.675
23584W        W96652  20.347   6.046  11.114
23585W        W96653  18.367  15.073  12.736
23586W        W96654   8.832   3.912  14.782
23587W        W96655  34.524   2.269   4.987
23588W        W96656  20.661  28.205  11.060
23589W        W96657  18.334  41.597  11.639
23590W        W96658   2.889  44.788   1.305
23591W        W96659  23.575  36.530   1.378
23592W        W96660  18.378  17.251   3.107
23593W        W96661   9.947  33.130  13.063
23594W        W96662  30.399   0.159   0.891
23595W        W96663   5.008  33.040   0.418
23596W        W96664  40.576  41.888   2.821
23597W        W96665  23.951  14.389   4.130
23598W        W96666  43.158   7.700  13.644
23599W        W96667   5.971  33.513   2.329
23600W        W96668   3.254  42.392   1.210
23601W        W96669   3.824  13.045   3.219
23602W        W96670  32.497  13.155   4.309
23603W        W96671   4.786  41.265  13.281
23604W        W96672  42.230   6.400   4.667
23605W        W96673  33.439  16.844  12.606
23606W        W96674  27.539  33.213  11.747
23607W        W96675   5.296  28.127  10.211
23608W        W96676  26.109  20.717   4.428
23609W        W96677  17.830  21.771   4.129
23610W        W96678  43.756  27.947   4.346
23611W        W96679  35.033  35.945  13.437
23612W        W96680  32.295   8.407   4.205
23613W        W96681  18.122  28.682   4.290
23614W        W96682  41.847  37.387   0.852
23615W        W96683  37.779  31.012   2.699
23616W        W96684   9.589  10.215   3.892
23617W        W96685  11.817   7.668   4.914
23618W        W96686   3.534  25.787  11.381
23619W        W96687   4.866   4.653   1.846
23620W        W96688  40.544  35.882  10.291
23621W        W96689  19.071  29.061  10.631
23622W        W96690  23.566  19.267  10.706
23623W        W96691   8.765  32.025  12.334
23624W        W96692  17.531  33.895   1.397
23625W        W96693  10.480  21.888  12.003
23626W        W96694   3.449   6.453  11.939
23627W        W96695  37.043  32.178   1.487
23628W        W96696   1.340  21.627  12.867
23629W        W96697  12.052  11.124  11.972
23630W        W96698  43.484   0.335   2.098
23631W        W96699  42.943  32.133   3.151
23632W        W96700  38.234   2.980  11.984
23633W        W96701  23.554  43.561  10.748
23634W        W96702   3.880  39.061   1.662
23635W        W96703  25.012   6.633   0.401
23636W        W96704   1.301   1.755  14.952
23637W        W96705   5.294  24.500   2.340
23638W        W96706  21.280   1.895  14.384
23639W        W96707   6.950  27.635  13.527
23640W        W96708   4.640   5.198  10.300
23641W        W96709  18.935  21.639   1.797
23642W        W96710  35.795   7.833  14.358
23643W        W96711  42.122   7.998  14.928
23644W        W96712  35.024  10.728   1.220
23645W        W96713  27.779  38.141   3.763
23646W        W96714   1.055  38.019   2.371
23647W        W96715  19.028   8.962   0.672
23648W        W96716  13.509  29.413   0.678
23649W        W96717  43.338  34.633   1.028
23650W        W96718  12.831  41.727   0.401
23651W        W96719  38.954  12.130   0.417
23652W        W96720  21.742   7.350   4.062
23653W        W96721  31.249  35.131  10.421
23654W        W96722  32.017  13.883   2.190
23655W        W96723   6.318  33.558   0.791
23656W        W96724  31.992  22.711  12.574
23657W        W96725  30.934  42.523   0.270
23658W        W96726   8.467   4.477   0.401
23659W        W96727  34.326  27.658  11.171
23660W        W96728   0.398  24.049   4.124
23661W        W96729  19.042   3.009   3.898
23662W        W96730  36.864  21.543  12.339
23663W        W96731  29.128   9.163   1.795
23664W        W96732   6.669  43.599   3.222
23665W        W96733  33.638   6.676  12.868
23666W        W96734  34.820  44.241  11.085
23667W        W96735  17.570  38.443   0.452
23668W        W96736  17.565  11.577   3.278
23669W        W96737   4.147  21.896  14.265
23670W        W96738   3.304  31.131   3.288
23671W        W96739  14.285   3.401  14.981
23672W        W96740  42.725  44.649  10.986
23673W        W96741  16.838  25.188   3.793
23674W        W96742  31.169  29.032  13.815
23675W        W96743  31.015  41.333   0.040
23676W        W96744  17.620  26.161  13.018
23677W        W96745  40.268  41.241   0.909
23678W        W96746  24.526  24.574   4.515
23679W        W96747  44.229  22.141  11.219
23680W        W96748   2.760  16.562   3.082
23681W        W96749  10.123  21.211   0.942
23682W        W96750   1.370   5.754   3.691
23683W        W96751   3.789  25.345   2.776
23684W        W96752  32.947   8.883   4.133
23685W        W96753  26.003  11.266  10.187
23686W        W96754  44.083   2.421  12.994
23687W        W96755  35.140   9.923   4.084
23688W        W96756  38.322  42.312  13.484
23689W        W96757   1.840   5.910   3.581
23690W        W96758  35.993  11.911   1.925
23691W        W96759  21.089   1.946   2.307
23692W        W96760  27.645  22.467   3.234
23693W        W96761   9.305  11.552  13.671
23694W        W96762  27.926  43.094  11.224
23695W        W96763  38.645  34.567  12.374
23696W        W96764  23.081  13.754  10.623
23697W        W96765  40.357  11.615  12.811
23698W        W96766  15.407  13.027   1.314
23699W        W96767  16.611  40.617  11.664
23700W        W96768  13.347  11.150   0.397
23701W        W96769   2.447  38.336   2.986
23702W        W96770   9.631  22.433   0.401
23703W        W96771  40.381  17.722   1.153
23704W        W96772  28.394  40.991   2.608
23705W        W96773  11.132  35.492   3.526
23706W        W96774   2.904  16.705   0.919
23707W        W96775  37.900  13.154   0.706
23708W        W96776  43.445  34.590   1.548
23709W        W96777  16.010   6.696  10.533
23710W        W96778  11.610  16.131   3.701
23711W        W96779  19.719  22.080   4.045
23712W        W96780   7.374  18.607  14.712
23713W        W96781  39.036  41.051  12.526
23714W        W96782   7.173  20.737   1.235
23715W        W96783  11.323  41.539   1.453
23716W        W96784  27.134   7.475   4.009
23717W        W96785  33.171  30.510  12.122
23718W        W96786   2.471   0.605  13.009
23719W        W96787   1.005  34.542   3.808
23720W        W96788   8.195   1.868   1.732
23721W        W96789  37.381  27.641  14.764
23722W        W96790   3.449  30.460   3.699
23723W        W96791  18.759  13.938  11.658
23724W        W96792  17.042  43.453  14.892
23725W        W96793  25.137   1.717  13.758
23726W        W96794  20.973  33.463   0.929
23727W        W96795  29.613   1.957  10.809
23728W        W96796  14.570  14.828  11.994
23729W        W96797   9.214   2.470   3.431
23730W        W96798  24.692  25.925   1.747
23731W        W96799   2.330  41.429  12.266
23732W        W96800   3.674  29.032   1.938
23733W        W96801  36.059   2.233   4.735
23734W        W96802  25.197  38.772  11.412
23735W        W96803   4.565  29.029  10.640
23736W        W96804  19.767  21.068   0.367
23737W        W96805  39.305  29.220   2.875
23738W        W96806  17.838   2.835  11.832
23739W        W96807   9.864  43.833   0.116
23740W        W96808  30.331  12.671  14.249
23741W        W96809   9.268  13.318  13.365
23742W        W96810  18.068  32.474   2.299
23743W        W96811  10.263  19.583  14.765
23744W        W96812  40.510   1.922   5.099
23745W        W96813  37.088   0.277  13.213
23746W        W96814  23.273  41.829  12.963
23747W        W96815  24.188  22.607   2.533
23748W        W96816  14.514  39.003   4.659
23749W        W96817  15.160   5.443  10.657
23750W        W96818  13.735  35.580  13.877
23751W        W96819   1.821  11.705  13.912
23752W        W96820  24.644  10.367   3.237
23753W        W96821   5.478  28.224   2.343
23754W        W96822  30.644  24.507   2.264
23755W        W96823  29.804  42.786   5.232
23756W        W96824   3.306  20.422   1.249
23757W        W96825  32.305  38.300  13.310
23758W        W96826  20.037  28.197  14.716
23759W        W96827  30.126  28.646  13.437
23760W        W96828   8.440  24.474  13.794
23761W        W96829  21.220  21.688  14.203
23762W        W96830  32.006  30.656   4.161
23763W        W96831  41.969  31.619   1.852
23764W        W96832  36.472   1.720  11.774
23765W        W96833  12.701  41.424  12.071
23766W        W96834  30.128   6.557   2.260
23767W        W96835   5.728   0.386  13.413
23768W        W96836  34.836  18.578  12.876
23769W        W96837  43.202  28.899   4.298
23770W        W96838  30.412  16.143  12.443
23771W        W96839  42.066  16.446   0.346
23772W        W96840  15.601  32.310  11.257
23773W        W96841  19.546   3.853  11.549
23774W        W96842  30.612  18.140  11.607
23775W        W96843  30.035  24.335   1.347
23776W        W96844  21.628   2.462   3.704
23777W        W96845  35.626   8.255  11.031
23778W        W96846   7.213  28.639   3.389
23779W        W96847  14.029  19.358   1.000
23780W        W96848  27.654   7.397  13.394
23781W        W96849  29.651  33.147   4.182
23782W        W96850  16.591  36.910   1.778
23783W        W96851  17.539  25.616   2.218
23784W        W96852  31.570   1.425   1.279
23785W        W96853  22.122   0.878   2.850
23786W        W96854  27.549  41.278  10.774
23787W        W96855  18.754  40.322  11.271
23788W        W96856  31.602  10.899   3.649
23789W        W96857  13.844   3.159  12.491
23790W        W96858  18.565  30.322   3.221
23791W        W96859  10.147   9.383   2.906
23792W        W96860  21.739   5.414   4.067
23793W        W96861  38.917  31.285   1.922
23794W        W96862  44.346  19.813   1.606
23795W        W96863  18.648  29.231   0.817
23796W        W96864  44.951  31.489   0.837
23797W        W96865  31.176   6.609   1.483
23798W        W96866  25.141  41.431   2.623
23799W        W96867   6.360  31.780  11.972
23800W        W96868  42.424  36.267  13.002
23801W        W96869  19.278  40.100  11.453
23802W        W96870  44.433  43.468   0.341
23803W        W96871  13.172  40.170  10.215
23804W        W96872   6.448  27.612  14.511
23805W        W96873   4.954  16.189  12.636
23806W        W96874  42.516  25.068   4.135
23807W        W96875  42.171  16.208  11.676
23808W        W96876  26.076  30.022   2.797
23809W        W96877   5.985  19.578  11.605
23810W        W96878  34.869  16.716  12.858
23811W        W96879  17.772   4.868  11.806
23812W        W96880  24.804  33.752   3.247
23813W        W96881   5.356   7.704  14.580
23814W        W96882  38.093  17.885  13.095
23815W        W96883  41.556  18.692   1.486
23816W        W96884  20.118  31.648  12.013
23817W        W96885  16.058  17.145   1.981
23818W        W96886  27.159  32.404  11.575
23819W        W96887  22.699  16.811  12.449
23820W        W96888  18.844  22.980  11.208
23821W        W96889  20.630  37.410   2.268
23822W        W96890  13.852  30.132  10.280
23823W        W96891  28.393  44.570  13.919
23824W        W96892  21.041  34.469  11.212
23825W        W96893  14.856  16.001   3.709
23826W        W96894  31.004  22.452  11.158
23827W        W96895  21.742  39.373   3.988
23828W        W96896   4.172  27.921   0.191
23829W        W96897  41.547  31.085  10.497
23830W        W96898  43.303  41.550  13.056
23831W        W96899  39.598  33.254  14.012
23832W        W96900   2.985  27.455   3.043
23833W        W96901  33.495  19.709   4.182
23834W        W96902  43.206  37.434  12.432
23835W        W96903   2.511  20.352  12.561
23836W        W96904  13.135  29.975   1.360
23837W        W96905   4.463  18.421   1.839
23838W        W96906  17.186  18.595   1.410
23839W        W96907  44.006  39.257   4.533
23840W        W96908  37.409  17.612  14.767
23841W        W96909  36.142  28.740   4.304
23842W        W96910  41.829  34.521   4.645
23843W        W96911  20.524  26.918  11.064
23844W        W96912  18.956  39.007   1.682
23845W        W96913  42.705  41.803  14.952
23846W        W96914  40.434  31.861   0.832
23847W        W96915  39.870  32.560   4.524
23848W        W96916   7.445   7.692  11.153
23849W        W96917   9.026   2.762  14.465
23850W        W96918  18.173  33.377   4.154
23851W        W96919  30.639  30.501   2.297
23852W        W96920  10.360  33.934  14.407
23853W        W96921  17.219  35.305  14.826
23854W        W96922  14.766  20.782   1.857
23855W        W96923  10.360   5.295  11.228
23856W        W96924  29.481  11.663   1.079
23857W        W96925  20.784  41.506  13.425
23858W        W96926  39.344  12.314   1.762
23859W        W96927  42.493   3.223  11.492
23860W        W96928  13.866  36.011   4.418
23861W        W96929  43.541  14.803   3.053
23862W        W96930  42.512  40.349   1.293
23863W        W96931  25.980  32.954   0.901
23864W        W96932  25.000  39.506  14.923
23865W        W96933  26.640  11.614   1.938
23866W        W96934  18.696   6.555  11.955
23867W        W96935   4.056  15.125   3.687
23868W        W96936   7.705  18.844   3.739
23869W        W96937  30.246  30.156  12.739
23870W        W96938  31.227  19.695   0.868
23871W        W96939  18.035  33.616  12.173
23872W        W96940  33.474  37.928   4.836
23873W        W96941  22.520  22.650  12.446
23874W        W96942  39.007   8.270   2.013
23875W        W96943  14.535   5.715  14.781
23876W        W96944  39.013  37.421   3.615
23877W        W96945   8.404  11.723   2.305
23878W        W96946   7.384  20.041  11.660
23879W        W96947   6.255  20.305  14.046
23880W        W96948  13.816  35.359  11.637
23881W        W96949  13.316  31.882   1.226
23882W        W96950  42.081  32.925  12.545
23883W        W96951  36.613  17.639  11.671
23884W        W96952  23.640  27.689  12.566
23885W        W96953  38.109  16.732  11.556
23886W        W96954   5.985  37.104   3.863
23887W        W96955  25.069   0.619  12.852
23888W        W96956   5.206  28.114   1.319
23889W        W96957  36.522   2.267  14.981
23890W        W96958  29.690  17.495   1.777
23891W        W96959   4.021  37.108   0.792
23892W        W96960  43.893   5.149   4.038
23893W        W96961   6.232  29.470   2.230
23894W        W96962   7.170  20.126  13.124
23895W        W96963   0.771  41.409  12.881
23896W        W96964  33.661   8.678  13.544
23897W        W96965  18.682  39.596  13.863
23898W        W96966  33.169  40.747   0.067
23899W        W96967   1.940  14.882   0.924
23900W        W96968  11.185   6.158  10.830
23901W        W96969  42.349   0.873   4.804
23902W        W96970  13.815  11.087  10.690
23903W        W96971   1.923  31.914  13.812
23904W        W96972  31.559  29.046   4.528
23905W        W96973  23.153   2.871  11.461
23906W        W96974  21.296  33.037   3.745
23907W        W96975  28.675  25.121  13.083
23908W        W96976  42.607  13.365   1.907
23909W        W96977   4.246  33.573  14.395
23910W        W96978  44.437  23.421  12.125
23911W        W96979  17.100   9.686  12.120
23912W        W96980   7.374   8.803  14.415
23913W        W96981  35.807  42.063   5.039
23914W        W96982  28.101  44.559   3.688
23915W        W96983  31.942  43.017  14.380
23916W        W96984  37.974  17.018  13.900
23917W        W96985  30.984   9.817   2.556
23918W        W96986  40.286  29.155  12.164
23919W        W96987  18.388  29.680   0.873
23920W        W96988  29.561  37.324   1.911
23921W        W96989  25.691   3.275  11.595
23922W        W96990  28.701  35.785   0.917
23923W        W96991  33.945  10.142   4.516
23924W        W96992   3.758  15.868  12.093
23925W        W96993  13.878  40.931  12.547
23926W        W96994  26.105  43.753   4.213
23927W        W96995  16.334  29.930  10.576
23928W        W96996  40.698  43.437  14.324
23929W        W96997  27.212  17.177   1.470
23930W        W96998  25.052  27.617  10.999
23931W        W96999  24.927  29.878   1.881
23932W        W97000  22.675   9.082  11.113
23933W        W97001  20.394   7.303  12.861
23934W        W97002  10.896  43.350  13.353
23935W        W97003  22.396  23.372   3.520
23936W        W97004  35.548  14.092  14.441
23937W        W97005   0.410  43.097  12.865
23938W        W97006  27.269  29.124  14.336
23939W        W97007  22.425   6.363   0.188
23940W        W97008   6.582  29.938   2.704
23941W        W97009  26.879  38.151  11.140
23942W        W97010   8.216  36.004   3.020
23943W        W97011  24.292  31.994   1.316
23944W        W97012   8.706  41.773  11.983
23945W        W97013   2.172  12.264  13.440
23946W        W97014  43.090  40.250   1.898
23947W        W97015  42.096  16.746   3.197
23948W        W97016  13.141  44.032   3.975
23949W        W97017  33.862  18.893   0.324
23950W        W97018  13.779  23.629  10.451
23951W        W97019   3.450  41.145   3.394
23952W        W97020  21.452  15.785   3.002
23953W        W97021  30.974   3.619  12.097
23954W        W97022  13.701  32.453  13.433
23955W        W97023  26.215  40.345   0.295
23956W        W97024   7.738  20.493  13.472
23957W        W97025  27.310  29.109   2.883
23958W        W97026  11.600  30.149  14.812
23959W        W97027  41.944  27.478   2.902
23960W        W97028   5.697  19.604  12.060
23961W        W97029  37.603  25.012  12.840
23962W        W97030   5.819  13.166   0.341
23963W        W97031  44.994  25.421  10.700
23964W        W97032  17.434  40.409   4.783
23965W        W97033  10.192  36.793  10.011
23966W        W97034  42.171  12.187   2.278
23967W        W97035  31.252  31.855   1.167
23968W        W97036  42.417   9.139   2.338
23969W        W97037  20.039  28.518   2.666
23970W        W97038  34.502  31.983  13.588
23971W        W97039  19.527  11.714  13.262
23972W        W97040   4.814  22.260  13.524
23973W        W97041  34.766  26.514  12.582
23974W        W97042   2.913   4.276   2.763
23975W        W97043  34.491   7.724   4.826
23976W        W97044  35.089   8.741  12.045
23977W        W97045   1.410   1.048   4.648
23978W        W97046  14.727   7.263  10.764
23979W        W97047  16.280  44.782   0.802
23980W        W97048   5.782  32.460   1.969
23981W        W97049  12.800   2.277  12.502
23982W        W97050  38.381  10.645   4.227
23983W        W97051   5.173  44.732  12.502
23984W        W97052  14.837  23.244  11.384
23985W        W97053   2.170   5.741   3.210
23986W        W97054   6.403  20.971   2.301
23987W        W97055   5.670  14.863   1.369
23988W        W97056  22.291  16.125   1.119
23989W        W97057  26.614  33.024   1.419
23990W        W97058  15.424  15.894  12.006
23991W        W97059   3.550  37.596   3.098
23992W        W97060  34.446  26.419  11.619
23993W        W97061  28.701   6.889   0.349
23994W        W97062  24.261  42.376   1.764
23995W        W97063   5.816  17.634  11.200
23996W        W97064  42.408  13.925   1.215
23997W        W97065  11.861   5.842   9.907
23998W        W97066   8.953  22.163   4.911
23999W        W97067  17.695  37.158  13.798
24000W        W97068   5.300   8.233  14.296
24001W        W97069  24.730  30.194   4.141
24002W        W97070   4.730  36.545   3.125
24003W        W97071   2.401   0.543  14.220
24004W        W97072  30.057  33.384   1.991
24005W        W97073  19.171  17.147  13.418
24006W        W97074  12.613  12.740   0.342
24007W        W97075  37.584   9.600   2.028
24008W        W97076  19.684  28.846  13.602
24009W        W97077   6.426   7.172   2.243
24010W        W97078  20.233  25.563  13.419
24011W        W97079  37.429  37.388   2.571
24012W        W97080  40.716  35.541   1.865
24013W        W97081  31.070   6.496  13.387
24014W        W97082  43.508  22.764  14.420
24015W        W97083  12.433  19.577  13.421
24016W        W97084  24.915  18.160   4.496
24017W        W97085  37.833  38.531  12.801
24018W        W97086  18.006  11.307   3.267
24019W        W97087  42.071  34.321  13.022
24020W        W97088  13.703  40.154   3.314
24021W        W97089  23.696  39.265  10.222
24022W        W97090  32.833  38.244   2.432
24023W        W97091  40.606   7.891  11.026
24024W        W97092  42.025   2.746  14.332
24025W        W97093  12.253  20.212  13.606
24026W        W97094  31.892  35.896  13.330
24027W        W97095  32.548  39.047   2.761
24028W        W97096   8.597  42.036   4.170
24029W        W97097  28.653   6.268   2.617
24030W        W97098  15.321  34.056   0.745
24031W        W97099   8.977  40.030  12.547
24032W        W97100  43.263  31.321   3.710
24033W        W97101  41.358   9.632   3.592
24034W        W97102  18.968  44.434  11.520
24035W        W97103   6.422   0.981  11.135
24036W        W97104  32.131  32.949   4.776
24037W        W97105   2.229  12.280   0.359
24038W        W97106  22.750  18.120   4.345
24039W        W97107  25.030  25.915   2.427
24040W        W97108   8.135  25.251  12.975
24041W        W97109   2.246  20.601   2.713
24042W        W97110   5.634  30.134  11.390
24043W        W97111  21.539  13.637   0.260
24044W        W97112  18.253   5.450   1.701
24045W        W97113  21.586  32.175  13.411
24046W        W97114   2.794   3.058   3.990
24047W        W97115   9.164  19.607  13.059
24048W        W97116  32.676  26.137  10.442
24049W        W97117   5.276   9.842  13.294
24050W        W97118  33.623  19.968   3.766
24051W        W97119  11.911  38.297  13.397
24052W        W97120  38.780   4.878   3.573
24053W        W97121   7.746  39.922  12.974
24054W        W97122  40.966  36.724   3.702
24055W        W97123   3.453  34.651   4.404
24056W        W97124  26.026  35.532   0.783
24057W        W97125  40.411   5.842  12.020
24058W        W97126   5.250  33.148   1.278
24059W        W97127  23.570  33.930   4.882
24060W        W97128   5.639  28.940   1.882
24061W        W97129  29.586  30.510   1.267
24062W        W97130  17.549  36.793  12.029
24063W        W97131  44.838   0.621  14.435
24064W        W97132  11.833  13.255   2.226
24065W        W97133  10.215  25.530  11.567
24066W        W97134   6.732  14.861  12.896
24067W        W97135  24.930  41.230  12.634
24068W        W97136  18.769   0.475   3.744
24069W        W97137  14.415  44.996   4.546
24070W        W97138   8.379  14.937   2.149
24071W        W97139  43.913  35.584   0.388
24072W        W97140   7.392   0.679   3.260
24073W        W97141  34.415  25.367  11.758
24074W        W97142  25.615  35.114  12.068
24075W        W97143  16.696   9.616  14.649
24076W        W97144  42.772  21.755   1.811
24077W        W97145  17.527  18.130  10.870
24078W        W97146  26.977  31.544  12.650
24079W        W97147  20.684   6.016  12.919
24080W        W97148   8.080  19.639   5.065
24081W        W97149   2.609  15.677  13.374
24082W        W97150  43.545  13.573   0.694
24083W        W97151  31.431  22.992  12.394
24084W        W97152  24.071  15.590   3.080
24085W        W97153  26.640  31.508   4.332
24086W        W97154  28.720  13.341  13.778
24087W        W97155  33.707   6.652  12.057
24088W        W97156  42.847   1.795   0.393
24089W        W97157   7.328  20.811   3.784
24090W        W97158  31.169   7.871  13.313
24091W        W97159  11.788  18.169  13.508
24092W        W97160  15.152  17.105  10.896
24093W        W97161   1.038  29.536   2.158
24094W        W97162  27.177  10.651   4.148
24095W        W97163   6.370  22.575  13.317
24096W        W97164   7.238  35.954  13.855
24097W        W97165  34.898  37.593  14.198
24098W        W97166   1.817  26.017   4.596
24099W        W97167   0.348  11.379   0.828
24100W        W97168  12.529  19.800  11.160
24101W        W97169  25.667  16.791   2.249
24102W        W97170   9.614   8.420  14.450
24103W        W97171  21.131  39.870   1.121
24104W        W97172  34.504  34.897  10.355
24105W        W97173  23.546  31.238  12.308
24106W        W97174  31.598  38.408  14.907
24107W        W97175   3.099  13.759   0.907
24108W        W97176  40.831   1.463  10.662
24109W        W97177  31.072  17.896  11.077
24110W        W97178  43.890  33.108  12.071
24111W        W97179  44.751  41.829   1.829
24112W        W97180  32.838  28.062   2.625
24113W        W97181  10.774  15.105  10.777
24114W        W97182  44.488  32.832  13.498
24115W        W97183  39.332  32.993   2.202
24116W        W97184  19.747  30.776  13.171
24117W        W97185  24.485   9.315  12.414
24118W        W97186  23.222  12.104  10.749
24119W        W97187  16.949  33.334  13.559
24120W        W97188  25.579   3.760   3.217
24121W        W97189  27.242  28.494  12.023
24122W        W97190  40.342  13.654  12.342
24123W        W97191  25.596   8.227  14.778
24124W        W97192   4.247   2.745   4.768
24125W        W97193   8.524   4.201   1.918
24126W        W97194  40.621  16.203  10.733
24127W        W97195  42.784   4.406   0.996
24128W        W97196  30.200  32.365   2.123
24129W        W97197  20.454  10.621   2.113
24130W        W97198  24.251   5.761  12.989
24131W        W97199  10.421  24.188  11.882
24132W        W97200   0.942   7.420  10.790
24133W        W97201  22.774  20.316   3.652
24134W        W97202   0.254  13.635  12.483
24135W        W97203   4.733   3.136  12.555
24136W        W97204   5.964  15.145   3.062
24137W        W97205  20.659  17.661  10.693
24138W        W97206  30.557  27.972   2.116
24139W        W97207   9.722   3.744  13.642
24140W        W97208  25.219  17.698  13.549
24141W        W97209  27.943  29.667  10.791
24142W        W97210  16.298  18.034   1.763
24143W        W97211  38.417  10.828   2.282
24144W        W97212  22.641  17.476   3.261
24145W        W97213   6.427  25.481   1.282
24146W        W97214  22.121  16.245   3.089
24147W        W97215  27.778  33.934  12.873
24148W        W97216   1.494  18.639  11.754
24149W        W97217  27.155  10.024  12.016
24150W        W97218  13.085   1.287   3.571
24151W        W97219  22.939  12.660  14.434
24152W        W97220  32.016  44.170  14.016
24153W        W97221   0.518  30.108   0.023
24154W        W97222  12.743  21.030   3.238
24155W        W97223   2.891   9.740  11.456
24156W        W97224  41.895  25.728   2.347
24157W        W97225  36.732   3.462  13.046
24158W        W97226  41.495  10.112  11.614
24159W        W97227   5.130  28.541   4.274
24160W        W97228  10.287  26.937   2.543
24161W        W97229   3.423  18.292   4.223
24162W        W97230  22.029   6.922  14.987
24163W        W97231  19.062  13.405   2.980
24164W        W97232   5.422   6.357   3.626
24165W        W97233  16.184  35.459   4.432
24166W        W97234   4.669  26.462   1.277
24167W        W97235  20.307   9.267  11.545
24168W        W97236  42.503  14.713   1.757
24169W        W97237  28.252  34.707   4.153
24170W        W97238  30.624  14.570  11.232
24171W        W97239  11.569  38.681  13.975
24172W        W97240  22.603  44.017   2.675
24173W        W97241  16.149  27.803  14.542
24174W        W97242  34.342  18.177   3.799
24175W        W97243   7.674  26.122   2.784
24176W        W97244  16.563  23.695  14.121
24177W        W97245   1.679  13.857  13.102
24178W        W97246   0.917  36.710   2.102
24179W        W97247   7.124  13.813   3.469
24180W        W97248  10.301  35.117   0.612
24181W        W97249  28.512  15.416  11.765
24182W        W97250  15.534  20.987   0.241
24183W        W97251   7.199  33.632   1.384
24184W        W97252  27.935  44.820  14.943
24185W        W97253   7.877  35.440   4.186
24186W        W97254  32.566   7.915  11.631
24187W        W97255  18.048  18.188  10.682
24188W        W97256  19.204   6.283   0.929
24189W        W97257  22.635  30.720  12.524
24190W        W97258   6.914   0.040  13.520
24191W        W97259  12.206  20.864  11.975
24192W        W97260  16.114   0.233  12.509
24193W        W97261  36.833  31.478  11.103
24194W        W97262   2.034  31.627   4.178
24195W        W97263   2.845   3.806   4.899
24196W        W97264   2.846  13.670  13.955
24197W        W97265  12.322  11.421  12.784
24198W        W97266  38.479  16.358   3.268
24199W        W97267  24.571  42.116   0.394
24200W        W97268  25.215  42.907  14.353
24201W        W97269  18.630  14.650   3.249
24202W        W97270   0.361  39.467   1.036
24203W        W97271  33.905   1.993  13.749
24204W        W97272  28.753  23.685   0.684
24205W        W97273  42.862  38.094   2.317
24206W        W97274  35.069  38.151   1.396
24207W        W97275  21.179  14.600   4.504
24208W        W97276  25.619   9.606  11.734
24209W        W97277  35.933  22.648   3.248
24210W        W97278  30.558  34.825   3.202
24211W        W97279  41.565   2.323  13.140
24212W        W97280  16.146  39.849   3.926
24213W        W97281  34.445  14.377   3.212
24214W        W97282  16.781   1.332  11.913
24215W        W97283  11.693  31.759  13.364
24216W        W97284  35.546  33.499   2.805
24217W        W97285  15.799  12.780  11.534
24218W        W97286  39.258   3.131  12.783
24219W        W97287  16.187   8.428   4.479
24220W        W97288  39.660  30.107   0.440
24221W        W97289  33.356  17.739  10.468
24222W        W97290   1.227  26.948  11.214
24223W        W97291   9.647  40.742   3.640
24224W        W97292  22.749  25.933   4.547
24225W        W97293  32.523  31.867   3.935
24226W        W97294  39.410  12.303   0.879
24227W        W97295  28.399  11.605  11.301
24228W        W97296  40.088   3.928   3.845
24229W        W97297   1.785   8.262  11.500
24230W        W97298  37.026  43.261   0.283
24231W        W97299  10.651  25.291   4.855
24232W        W97300  21.981  33.513  12.474
24233W        W97301  10.122  20.243   0.804
24234W        W97302   0.838  19.752   2.022
24235W        W97303  36.939  22.009   4.217
24236W        W97304  36.595  42.342   4.510
24237W        W97305  31.668  24.467  13.529
24238W        W97306  10.837  27.402   4.303
24239W        W97307   7.758  36.891   3.675
24240W        W97308  39.501  34.533  12.693
24241W        W97309   8.070   1.006  14.480
24242W        W97310  15.299   4.665  13.292
24243W        W97311   6.180  29.400  12.465
24244W        W97312  18.794  18.423  12.013
24245W        W97313  27.597  26.965  14.567
24246W        W97314  31.408  44.664   0.783
24247W        W97315   1.860  39.138  13.666
24248W        W97316  35.856   0.076  12.104
24249W        W97317   8.793  35.451  10.651
24250W        W97318  23.670  20.318   3.377
24251W        W97319  14.885  18.435  12.519
24252W        W97320   5.007  18.103   4.631
24253W        W97321  17.975  23.455   3.660
24254W        W97322  14.339  34.577   2.864
24255W        W97323  21.505  35.955  11.210
24256W        W97324  44.891   1.085  14.693
24257W        W97325  28.163   6.479   2.646
24258W        W97326  40.993  12.382  13.903
24259W        W97327  30.892  41.358  12.169
24260W        W97328   6.200  40.266  13.515
24261W        W97329   0.966  38.818  10.788
24262W        W97330  36.600  33.395   4.196
24263W        W97331  24.752  31.921  13.923
24264W        W97332  25.591   3.791  13.368
24265W        W97333  44.144  33.063  11.617
24266W        W97334  26.146  33.610   0.372
24267W        W97335  43.664   2.427   1.419
24268W        W97336  12.988   4.620   4.180
24269W        W97337   7.563  41.096   0.604
24270W        W97338  39.542  31.513   3.419
24271W        W97339   3.233   1.233  13.130
24272W        W97340   1.787  19.573  14.222
24273W        W97341  38.763  13.529  10.729
24274W        W97342  23.594  28.418   3.580
24275W        W97343  39.907   5.651   0.949
24276W        W97344  44.334   5.717  11.717
24277W        W97345  36.558  16.995  10.480
24278W        W97346   9.760  11.353  13.289
24279W        W97347  35.883  10.542  11.162
24280W        W97348  26.917  26.942   4.918
24281W        W97349  32.419  18.840   1.416
24282W        W97350  13.393  10.758   0.765
24283W        W97351  26.536  16.675  10.340
24284W        W97352  32.535  35.430  13.779
24285W        W97353   5.743  29.447   1.925
24286W        W97354  23.737  24.686  10.496
24287W        W97355  28.418  22.909  14.875
24288W        W97356  38.507  14.701  14.666
24289W        W97357   6.592  17.524  13.331
24290W        W97358  26.505  31.196   2.113
24291W        W97359  32.677  24.813  14.866
24292W        W97360  20.191  44.970  11.362
24293W        W97361  29.508   8.606  14.354
24294W        W97362  15.357   0.038   4.177
24295W        W97363  31.237  36.064  11.578
24296W        W97364  16.773  13.136  12.959
24297W        W97365  12.869  17.558   1.336
24298W        W97366  27.943  40.514  12.145
24299W        W97367  34.026   5.415  13.386
24300W        W97368   7.321  35.160   2.591
24301W        W97369  31.341  14.202   3.313
24302W        W97370  27.954   9.293  13.568
24303W        W97371   5.322   6.669  11.588
24304W        W97372  38.439  21.805   1.248
24305W        W97373  26.869  43.856  13.101
24306W        W97374  44.672   9.903   1.518
24307W        W97375  43.474   8.813   1.379
24308W        W97376  28.090  42.326   0.860
24309W        W97377   5.214  12.716  10.935
24310W        W97378   5.331  22.982  13.343
24311W        W97379  17.799   7.521  11.202
24312W        W97380  42.107  42.509   0.784
24313W        W97381   9.294   4.778  12.624
24314W        W97382  31.062   8.344  12.522
24315W        W97383  26.971  34.726   0.855
24316W        W97384  38.530  26.951  14.976
24317W        W97385  15.637  40.877   0.755
24318W        W97386  22.551  42.378  13.793
24319W        W97387   6.031   3.320   0.466
24320W        W97388  35.524  11.119  14.261
24321W        W97389  44.721  17.775  11.218
24322W        W97390  36.512   6.939   3.674
24323W        W97391  23.027  26.649  12.044
24324W        W97392  36.328  40.883   4.313
24325W        W97393  22.981   5.311  12.999
24326W        W97394  31.671  39.425  12.920
24327W        W97395  38.209  11.357   4.729
24328W        W97396  18.779  40.038   1.849
24329W        W97397   2.142  18.214  12.983
24330W        W97398  15.892  11.182  14.244
24331W        W97399  20.325  15.394  14.026
24332W        W97400  38.576   1.124   3.762
24333W        W97401  42.707  34.762  12.915
24334W        W97402   3.906  18.731   3.135
24335W        W97403  39.888  31.661   4.810
24336W        W97404  36.085  23.646  13.821
24337W        W97405  17.798  41.585  11.615
24338W        W97406  21.347  44.020  14.407
24339W        W97407  43.411  35.302  11.195
24340W        W97408  22.755  34.542  10.661
24341W        W97409   2.934  20.797   2.312
24342W        W97410  31.116  12.043   2.203
24343W        W97411   3.212  25.518  11.072
24344W        W97412  15.238  10.821  14.327
24345W        W97413  13.208  34.926   1.957
24346W        W97414   0.405   8.078   3.569
24347W        W97415   0.105   6.010   3.677
24348W        W97416  43.379  32.193  12.934
24349W        W97417  14.282  38.071  12.724
24350W        W97418   3.510  34.259   0.730
24351W        W97419  14.623   6.374   0.921
24352W        W97420   2.302  37.487   1.850
24353W        W97421  26.461  32.019  12.015
24354W        W97422  13.513   7.085   3.839
24355W        W97423  12.116  35.597  14.404
24356W        W97424  42.819  13.695   2.887
24357W        W97425   2.027  18.164  13.558
24358W        W97426  12.063  24.573   0.514
24359W        W97427   6.737  28.585   0.448
24360W        W97428  27.365  15.774   4.612
24361W        W97429  16.975  16.207   0.406
24362W        W97430  19.744  22.419   3.629
24363W        W97431  16.586  29.204  12.946
24364W        W97432  13.711  41.358  13.097
24365W        W97433  41.798  34.660  13.270
24366W        W97434  29.780   5.808  13.259
24367W        W97435   5.435  33.333   0.302
24368W        W97436  23.684  37.727   4.622
24369W        W97437  42.293  18.252  14.019
24370W        W97438  10.805  30.099   3.105
24371W        W97439  33.598  29.147  12.739
24372W        W97440  10.016  11.717   1.605
24373W        W97441  17.661  13.814   2.488
24374W        W97442   9.335  44.876  11.185
24375W        W97443  41.798   5.222   0.839
24376W        W97444  27.667  41.488   0.402
24377W        W97445  30.608   0.355  12.268
24378W        W97446  36.510  12.189  10.403
24379W        W97447  16.620  41.471  14.509
24380W        W97448  44.027  17.718   1.678
24381W        W97449  18.486  31.345   3.868
24382W        W97450  14.160  26.104  13.467
24383W        W97451  37.784  34.341  14.243
24384W        W97452   5.234  34.416   1.631
24385W        W97453   5.783   2.296  14.414
24386W        W97454  40.528  31.110   1.453
24387W        W97455   6.998  24.507   3.445
24388W        W97456  19.136  41.570   1.892
24389W        W97457  13.998   9.700   3.726
24390W        W97458  42.458  30.063   4.878
24391W        W97459  21.738  21.078   3.403
24392W        W97460  14.042   2.414   4.739
24393W        W97461   3.441  40.026   4.500
24394W        W97462  20.719   2.478  12.004
24395W        W97463   3.930  29.119   4.550
24396W        W97464   4.284  18.428   4.775
24397W        W97465  19.203  27.938   1.267
24398W        W97466   8.965  31.470   3.808
24399W        W97467  29.222  19.161   0.451
24400W        W97468  33.479  15.815   2.817
24401W        W97469  30.152  32.473   4.348
24402W        W97470  35.123   2.894  11.045
24403W        W97471  26.570   0.629  14.740
24404W        W97472  29.632   2.516   3.759
24405W        W97473   5.456  21.528   0.456
24406W        W97474  42.844   1.418  11.591
24407W        W97475  30.805  33.976   1.409
24408W        W97476  13.713  25.055   4.670
24409W        W97477  26.852   2.861  14.770
24410W        W97478  15.725  38.513   1.467
24411W        W97479   0.779  41.427  13.892
24412W        W97480  12.223  33.822   0.912
24413W        W97481   3.882   9.182   4.535
24414W        W97482  26.065  25.042  12.045
24415W        W97483  34.450  13.149  14.805
24416W        W97484   2.827  28.590   4.388
24417W        W97485  23.030  32.969   2.363
24418W        W97486  30.306  15.389  14.002
24419W        W97487  27.941  15.298   5.029
24420W        W97488  33.634  29.383   3.665
24421W        W97489  11.157  42.887  10.796
24422W        W97490  19.415  25.022  10.781
24423W        W97491  40.002  39.439   1.817
24424W        W97492   5.815  18.723   1.849
24425W        W97493   5.045  44.374  13.611
24426W        W97494   2.861  29.817  14.786
24427W        W97495   9.610   5.850  12.799
24428W        W97496  31.932   9.417  12.073
24429W        W97497  11.134   8.179  12.592
24430W        W97498  22.890  28.534   1.740
24431W        W97499   1.843  43.773  12.967
24432W        W97500  23.044  10.443  12.435
24433W        W97501  43.984  20.342   3.338
24434W        W97502  21.631  20.628   1.670
24435W        W97503  33.400  33.334  10.535
24436W        W97504   8.553  38.059  13.075
24437W        W97505   7.512  25.028  14.881
24438W        W97506  31.866   6.359   3.584
24439W        W97507  11.889  10.707   2.795
24440W        W97508   2.772  21.737   0.777
24441W        W97509  42.007  28.657   1.414
24442W        W97510  36.157  31.403   3.387
24443W        W97511  16.320  13.369   1.639
24444W        W97512  43.761  42.391   2.754
24445W        W97513  32.911  32.917   2.289
24446W        W97514   0.321   8.100  13.355
24447W        W97515  42.473  44.118   2.361
24448W        W97516  17.063  19.303  10.672
24449W        W97517  18.766   9.468   0.339
24450W        W97518  33.779  12.548   2.334
24451W        W97519  20.753  20.342  12.370
24452W        W97520  15.504  20.353  11.157
24453W        W97521  44.325  38.433  11.574
24454W        W97522  16.883   2.977  14.063
24455W        W97523  36.301  40.808  14.392
24456W        W97524  17.538  21.888   3.721
24457W        W97525  40.741  31.082   4.532
24458W        W97526  41.521   6.227  12.859
24459W        W97527   6.439   7.776   4.540
24460W        W97528  12.108  41.703  13.872
24461W        W97529   5.629   4.822  12.865
24462W        W97530  30.078  28.116   0.001
24463W        W97531  36.098  35.549  12.565
24464W        W97532  37.579   2.031   3.252
24465W        W97533   0.378   3.708   4.726
24466W        W97534  18.703  36.058   0.162
24467W        W97535  28.367  33.063   1.845
24468W        W97536  33.108  18.540   0.899
24469W        W97537  31.952  16.881  11.100
24470W        W97538  16.755   7.187  13.425
24471W        W97539  19.718  36.740  11.710
24472W        W97540  16.643   1.885   0.025
24473W        W97541  43.661   2.879  13.840
24474W        W97542  32.047  42.489  14.421
24475W        W97543  14.732  40.466   3.120
24476W        W97544  42.013  20.748  10.694
24477W        W97545  31.235  11.530  11.980
24478W        W97546  21.758  17.511  12.997
24479W        W97547  25.228  24.529  11.559
24480W        W97548  10.348  44.584   2.729
24481W        W97549  31.930  16.116  13.635
24482W        W97550   5.859  36.654   4.071
24483W        W97551  37.135  15.337  12.081
24484W        W97552   9.443  34.476  13.950
24485W        W97553  20.458  21.556   2.103
24486W        W97554  41.364  21.738  12.434
24487W        W97555  15.350  12.649   3.755
24488W        W97556  24.454  41.241   4.616
24489W        W97557  14.229  16.057  12.902
24490W        W97558  15.189  26.290  13.051
24491W        W97559  27.045  17.595   1.741
24492W        W97560  35.788  28.165  11.585
24493W        W97561  33.824  38.071  11.408
24494W        W97562  31.959  44.295   4.111
24495W        W97563  17.412  36.911  12.963
24496W        W97564   5.832   0.980   0.541
24497W        W97565  10.058  26.719  10.111
24498W        W97566   0.172  15.122  13.804
24499W        W97567  44.743  31.209   3.141
24500W        W97568   6.366   1.367   2.714
24501W        W97569  18.976  43.870   2.397
24502W        W97570  36.422  41.790  10.819
24503W        W97571  30.693  40.472  10.675
24504W        W97572  43.790  23.245  14.454
24505W        W97573   7.846  42.450  10.952
24506W        W97574  41.756  15.135   2.281
24507W        W97575  29.666  31.384   3.724
24508W        W97576  23.191   6.943   2.414
24509W        W97577  25.334   0.065  13.546
24510W        W97578  19.248  35.797  13.410
24511W        W97579   0.968  14.339   2.812
24512W        W97580   5.024  37.454  10.587
24513W        W97581  10.337  18.139   4.116
24514W        W97582   4.850  13.065   0.457
24515W        W97583  31.254  30.717  10.474
24516W        W97584  37.143  32.521   4.295
24517W        W97585  35.374  31.643   9.781
24518W        W97586  23.825  21.155   3.823
24519W        W97587   7.378  16.221  14.481
24520W        W97588  32.888   6.889   1.765
24521W        W97589  41.026  18.142  10.606
24522W        W97590   3.821   7.714   3.711
24523W        W97591   7.752  32.341   1.433
24524W        W97592   0.052  37.110   2.446
24525W        W97593  14.855  44.455  10.367
24526W        W97594  44.491  33.660   3.275
24527W        W97595  14.644  33.677   1.298
24528W        W97596   1.277  23.119   3.789
24529W        W97597  22.589  17.860   1.378
24530W        W97598  21.509   2.203   3.188
24531W        W97599  38.974  19.761   0.407
24532W        W97600   9.204  40.503   1.177
24533W        W97601  25.647  41.053   3.354
24534W        W97602  43.979   8.471  14.287
24535W        W97603  11.482  30.616  11.095
24536W        W97604  14.733  38.638  11.133
24537W        W97605  16.839  18.275  12.074
24538W        W97606  34.017  28.022  10.384
24539W        W97607  38.756  38.451   0.045
24540W        W97608  17.369  41.479  14.246
24541W        W97609  15.283  15.121  12.886
24542W        W97610  30.654   3.852  10.661
24543W        W97611  33.357  33.399   3.539
24544W        W97612  20.605   5.455   1.790
24545W        W97613  16.305  26.171  14.901
24546W        W97614  40.531  29.731   3.788
24547W        W97615  33.070  32.118   0.242
24548W        W97616  23.279  38.013  14.287
24549W        W97617  43.015  34.000  11.073
24550W        W97618  43.972  32.581   3.675
24551W        W97619  24.037   8.070   1.191
24552W        W97620   6.113  26.392   4.561
24553W        W97621  44.685  40.447   1.496
24554W        W97622  43.379  14.310   0.233
24555W        W97623   5.811   4.655   1.844
24556W        W97624  37.277  26.472  10.649
24557W        W97625  32.406  25.702  12.859
24558W        W97626  23.496  10.833  11.677
24559W        W97627  24.266  21.057  11.863
24560W        W97628  13.664  22.450  11.480
24561W        W97629  36.123   5.509  14.497
24562W        W97630  33.864  14.660   3.156
24563W        W97631  35.335   2.135   0.459
24564W        W97632  26.186  32.197   4.634
24565W        W97633  35.395  37.482  14.438
24566W        W97634  18.270  37.292  10.732
24567W        W97635  37.899  22.774   0.387
24568W        W97636  43.510   3.641  10.593
24569W        W97637  36.812  40.768  14.388
24570W        W97638  38.036  13.135  12.216
24571W        W97639  32.153   9.331   4.058
24572W        W97640  25.004   8.912   4.382
24573W        W97641  36.622  21.604   3.326
24574W        W97642  34.233  19.497   2.846
24575W        W97643  22.215  23.111   0.325
24576W        W97644  21.185   0.819   0.365
24577W        W97645   7.796  22.822   4.539
24578W        W97646  10.037   1.367  11.198
24579W        W97647  40.306  38.511  14.890
24580W        W97648  12.884  32.576  11.393
24581W        W97649  16.030   7.886  12.924
24582W        W97650  37.444  11.623   4.160
24583W        W97651   4.014  29.034  13.807
24584W        W97652   2.930  30.340  14.442
24585W        W97653  13.566  26.252   2.722
24586W        W97654   9.416  15.274  11.577
24587W        W97655  41.277  41.792   5.017
24588W        W97656  41.138   7.050   3.942
24589W        W97657  44.349  15.636   0.807
24590W        W97658  33.055  28.666   2.262
24591W        W97659  30.061   4.180  13.356
24592W        W97660  21.470  39.159  12.250
24593W        W97661  24.134  42.635  12.409
24594W        W97662  29.005  14.744  11.318
24595W        W97663  34.799   1.765   1.786
24596W        W97664  14.247  22.447  12.121
24597W        W97665  18.228  28.527   0.676
24598W        W97666  23.632  13.401  12.963
24599W        W97667   9.371  12.788   0.641
24600W        W97668   1.324  10.410  13.868
24601W        W97669   9.291  15.538   4.992
24602W        W97670  28.009  19.007   2.215
24603W        W97671  34.939  30.499   3.711
24604W        W97672  26.136   6.562  11.609
24605W        W97673  11.582   4.103   1.211
24606W        W97674   2.502   6.213   4.201
24607W        W97675   5.819  36.531  13.648
24608W        W97676  35.356   7.417   4.171
24609W        W97677  27.974  38.054  12.525
24610W        W97678   9.595   8.537  13.406
24611W        W97679   4.366   8.776   1.032
24612W        W97680   6.738  24.295  14.003
24613W        W97681  35.347  28.105  10.711
24614W        W97682  40.001   6.946  10.272
24615W        W97683  19.557   4.475  13.392
24616W        W97684   6.743   5.202  11.623
24617W        W97685  22.151  39.851  10.887
24618W        W97686  15.984   5.759   3.206
24619W        W97687   8.125  31.364  11.514
24620W        W97688  36.161  39.563  11.510
24621W        W97689  43.305  28.653  12.818
24622W        W97690  32.050   0.253   0.964
24623W        W97691  42.081  11.866   3.536
24624W        W97692  28.721  29.440  11.190
24625W        W97693   1.767  40.952  10.649
24626W        W97694  36.814  42.549   0.674
24627W        W97695   9.283  39.388   4.737
24628W        W97696  42.370  18.614   2.352
24629W        W97697  11.450  10.194  12.616
24630W        W97698  44.353  17.194  12.945
24631W        W97699  44.389   5.717   4.527
24632W        W97700  40.898   2.417   0.681
24633W        W97701  16.412   9.804   2.722
24634W        W97702   4.263  11.928  10.948
24635W        W97703  12.652   7.437  13.086
24636W        W97704  17.810   8.470   2.146
24637W        W97705  43.442  21.185  13.811
24638W        W97706  27.269  39.799   2.226
24639W        W97707  16.232  40.053  11.092
24640W        W97708  32.469   8.060  13.813
24641W        W97709  27.291   8.651   3.026
24642W        W97710  26.422   4.455   0.509
24643W        W97711  29.582   7.764  12.334
24644W        W97712  12.082  29.622   0.258
24645W        W97713  31.708  10.372  13.065
24646W        W97714  10.834  21.188  10.817
24647W        W97715  28.059  30.837  14.027
24648W        W97716  41.271  11.512   4.504
24649W        W97717  20.388  27.355   1.240
24650W        W97718  19.192  43.841   4.787
24651W        W97719  29.991  15.642   0.804
24652W        W97720  21.110  22.061   3.727
24653W        W97721  36.984  33.246  12.149
24654W        W97722  18.162  33.991  10.943
24655W        W97723   6.871  35.492  14.463
24656W        W97724  18.609  24.232   2.290
24657W        W97725  33.383  36.004  11.007
24658W        W97726  11.072  33.851   0.016
24659W        W97727  18.355   5.857  10.792
24660W        W97728  24.891  18.321   4.979
24661W        W97729  40.560  23.533   4.219
24662W        W97730  43.231   2.877   4.693
24663W        W97731  29.383  32.521   0.915
24664W        W97732  24.186  29.616   0.083
24665W        W97733  31.331  17.094  12.549
24666W        W97734  19.923   7.435  10.403
24667W        W97735   3.268  38.788   1.413
24668W        W97736  26.568  15.006  11.338
24669W        W97737  38.070   4.658  14.524
24670W        W97738  26.172  25.416  12.920
24671W        W97739  28.842   7.006   1.746
24672W        W97740  37.008   0.110   1.822
24673W        W97741   4.530  38.484  14.955
24674W        W97742  14.642  44.851   2.714
24675W        W97743   2.418   2.846   2.642
24676W        W97744  41.283  36.111   0.885
24677W        W97745  27.885  38.299  12.033
24678W        W97746  22.035  10.062  11.196
24679W        W97747  13.275  30.068  14.630
24680W        W97748   1.972  39.840   4.528
24681W        W97749  15.892  13.204   1.370
24682W        W97750  41.473   3.223  14.945
24683W        W97751  31.556  20.580   2.040
24684W        W97752  26.023   4.664  10.673
24685W        W97753  20.738  34.656  14.342
24686W        W97754  25.065  11.062   4.639
24687W        W97755  42.418  30.694   3.733
24688W        W97756  16.077  21.029   1.663
24689W        W97757  44.082  11.649   2.331
24690W        W97758  43.679  28.167   3.881
24691W        W97759   9.635  10.294  13.310
24692W        W97760   0.056  11.436   3.729
24693W        W97761  14.819  35.558   3.651
24694W        W97762  23.648  32.520  11.024
24695W        W97763  22.704   4.408   0.395
24696W        W97764  42.491  31.474   0.776
24697W        W97765  38.585  13.285  12.989
24698W        W97766  26.323  26.044  13.813
24699W        W97767  41.407  16.998  11.409
24700W        W97768  35.249  19.514  14.864
24701W        W97769  23.292   5.335  12.531
24702W        W97770   4.895  12.713  11.673
24703W        W97771   9.538  29.310   5.065
24704W        W97772  40.290  34.863  12.918
24705W        W97773  21.247  34.353   3.321
24706W        W97774  40.924  21.296  11.149
24707W        W97775  40.355  35.711  12.014
24708W        W97776  26.671  39.940  11.158
24709W        W97777  36.133  31.541  14.757
24710W        W97778  15.577  43.984   1.780
24711W        W97779  39.379  18.489  11.887
24712W        W97780  27.759  20.518  11.190
24713W        W97781   4.416  17.700   3.355
24714W        W97782  33.478  33.714   1.219
24715W        W97783  34.988  17.125  14.046
24716W        W97784  28.563  10.842  12.499
24717W        W97785  29.396   7.458   0.204
24718W        W97786  13.534  42.723  13.305
24719W        W97787  21.118  29.004  12.115
24720W        W97788  17.138  14.387   0.968
24721W        W97789  37.433   5.126   3.861
24722W        W97790  42.513   5.161  11.987
24723W        W97791  40.965  19.273   2.099
24724W        W97792  26.630  16.236   1.186
24725W        W97793   3.281  27.828  13.655
24726W        W97794  43.442  37.386   4.728
24727W        W97795  42.777  35.596   1.915
24728W        W97796  17.253   9.147  12.160
24729W        W97797  18.088  37.521   2.957
24730W        W97798  28.474  12.330   5.752
24731W        W97799  39.966  19.620  13.381
24732W        W97800  27.087  18.545   0.362
24733W        W97801  35.666  44.410  11.429
24734W        W97802  28.032  27.516  10.228
24735W        W97803   7.822  32.840   1.259
24736W        W97804  12.514  41.408   3.471
24737W        W97805  28.341  13.071  12.325
24738W        W97806   1.405  16.619  12.959
24739W        W97807  20.082  28.982  13.041
24740W        W97808   6.122  15.374   4.209
24741W        W97809  16.202   5.541  12.799
24742W        W97810  34.838   0.200  12.005
24743W        W97811  41.895  25.510   0.049
24744W        W97812   3.586  10.697  11.051
24745W        W97813   2.107  21.091  12.469
24746W        W97814  14.672  25.708  11.569
24747W        W97815  32.547  26.200   2.740
24748W        W97816  32.277   9.584   1.451
24749W        W97817  43.016  17.111  14.521
24750W        W97818  20.704  11.702  13.757
24751W        W97819  29.342   6.446  12.575
24752W        W97820  12.580  12.260   2.689
24753W        W97821   4.202  23.657  11.439
24754W        W97822  12.374  35.602   1.414
24755W        W97823  12.085  39.868   3.215
24756W        W97824  40.312  27.508   4.337
24757W        W97825  33.853  23.958   2.888
24758W        W97826  22.576  40.007   2.815
24759W        W97827   2.683  30.918   4.827
24760W        W97828  43.255   7.617   0.187
24761W        W97829   3.291  33.054  12.055
24762W        W97830   7.835  14.384  14.584
24763W        W97831  19.175  26.002   1.281
24764W        W97832  37.220   0.115  12.561
24765W        W97833  20.612  28.404  13.128
24766W        W97834  34.393  11.611  10.831
24767W        W97835  42.500  39.006  13.811
24768W        W97836  18.505  43.062  11.692
24769W        W97837  33.087  33.714   3.847
24770W        W97838  40.365  13.553   4.609
24771W        W97839  21.726  29.545   0.451
24772W        W97840  10.386  13.781  12.946
24773W        W97841  10.102   2.355  13.858
24774W        W97842  13.236   6.342   3.427
24775W        W97843  34.789   4.222   1.729
24776W        W97844   9.753  32.684  11.659
24777W        W97845  27.860  14.922   0.766
24778W        W97846  40.959  23.947   1.790
24779W        W97847  37.010  32.055   0.957
24780W        W97848  42.995  10.972   0.071
24781W        W97849  21.866  31.542   1.427
24782W        W97850   6.104   3.937  12.955
24783W        W97851  14.553  32.861   1.258
24784W        W97852  15.545   8.478   1.908
24785W        W97853  30.182  44.523   2.463
24786W        W97854  15.177  27.601  13.163
24787W        W97855   3.850  44.256   0.107
24788W        W97856  38.099  39.915   1.293
24789W        W97857   8.593   9.977   0.293
24790W        W97858  19.165  11.265   0.224
24791W        W97859  12.690  18.273  10.112
24792W        W97860  40.118  10.792  14.531
24793W        W97861  20.614  10.319  12.463
24794W        W97862  31.886  19.804  12.932
24795W        W97863  42.076  17.320  14.395
24796W        W97864  26.052  23.859  11.095
24797W        W97865  10.732   1.413   4.605
24798W        W97866  19.341   4.005  14.347
24799W        W97867  42.449  25.773  14.780
24800W        W97868   2.190  16.384   1.474
24801W        W97869  27.043  28.644  14.392
24802W        W97870   2.292  31.620  13.533
24803W        W97871   4.810  43.702   4.295
24804W        W97872  43.127   9.061   1.705
24805W        W97873   1.207  14.688  11.637
24806W        W97874  32.193  36.310  13.523
24807W        W97875  12.709  29.981   2.755
24808W        W97876  29.325   9.806  10.679
24809W        W97877  38.314  26.082   3.543
24810W        W97878   2.899  12.412   2.432
24811W        W97879   6.851  25.079  12.457
24812W        W97880   6.125  41.523   4.093
24813W        W97881  16.244  19.433   3.109
24814W        W97882  23.193  23.173   1.496
24815W        W97883   1.285   8.439  14.910
24816W        W97884  15.303  17.881   3.677
24817W        W97885  35.857  42.039  14.121
24818W        W97886  27.231  29.437  13.075
24819W        W97887   3.466  39.256   1.333
24820W        W97888  27.947  39.077   3.200
24821W        W97889  42.599  10.597  14.440
24822W        W97890  14.860   4.375   4.424
24823W        W97891  20.808   3.982  13.092
24824W        W97892  31.348  34.916  13.972
24825W        W97893  25.215  23.457   1.313
24826W        W97894  27.401  41.226   3.756
24827W        W97895  37.531  40.847  13.403
24828W        W97896  10.761  19.536  10.357
24829W        W97897  18.510  31.567  13.818
24830W        W97898  42.887  16.846   2.789
24831W        W97899  28.847  35.424  11.300
24832W        W97900  32.526  20.877  13.816
24833W        W97901  24.276  13.269  12.533
24834W        W97902   9.412  34.942   3.777
24835W        W97903   8.380  34.383  14.805
24836W        W97904  26.213  22.985   4.061
24837W        W97905  35.750  16.789   0.580
24838W        W97906  23.592  36.266  11.922
24839W        W97907   4.880  40.077  12.530
24840W        W97908  21.177  26.668  13.165
24841W        W97909  38.854  21.411   0.150
24842W        W97910  10.409  10.717   0.419
24843W        W97911   0.688  19.380   3.893
24844W        W97912  43.159  12.275   0.843
24845W        W97913  24.252  40.401  11.115
24846W        W97914  33.495   4.836  10.875
24847W        W97915  25.650  12.320   2.365
24848W        W97916  22.152   4.177   4.078
24849W        W97917  44.561  43.312   2.416
24850W        W97918  26.658  38.838  13.400
24851W        W97919  27.573   6.180  13.887
24852W        W97920  23.928  23.047  10.862
24853W        W97921   2.949  16.865  14.458
24854W        W97922  23.680  13.447   0.291
24855W        W97923  35.314  42.413   2.134
24856W        W97924  25.572   1.716  11.246
24857W        W97925  33.537  13.314  14.750
24858W        W97926  33.384  36.731  14.818
24859W        W97927  24.300  21.194  10.262
24860W        W97928  24.148  17.757  10.708
24861W        W97929  32.045  27.233   2.289
24862W        W97930  22.737  12.162  10.972
24863W        W97931  43.483  19.948  14.312
24864W        W97932  43.763  28.387  12.884
24865W        W97933  28.677  16.572   4.483
24866W        W97934  25.527  29.548  12.183
24867W        W97935   5.914  28.964  13.863
24868W        W97936  29.757   5.154  12.162
24869W        W97937  13.184   2.996  10.645
24870W        W97938  25.112  18.350  12.396
24871W        W97939  13.750   1.775   3.151
24872W        W97940  44.650   5.481   3.695
24873W        W97941  18.668  26.669  14.944
24874W        W97942  36.962  39.769   2.848
24875W        W97943  22.066   7.826  13.556
24876W        W97944  29.072  41.989   4.641
24877W        W97945   3.923  15.331   4.167
24878W        W97946  37.602   6.808   4.503
24879W        W97947  41.825  11.044  13.431
24880W        W97948  12.748   4.662  13.074
24881W        W97949   4.679   9.881  11.033
24882W        W97950  26.509   9.670   9.748
24883W        W97951   5.637   4.331   2.215
24884W        W97952  44.113  35.143   0.586
24885W        W97953  19.287  12.970  13.776
24886W        W97954   4.413  32.114  12.438
24887W        W97955  31.451  16.176  12.477
24888W        W97956  24.747  30.195  10.664
24889W        W97957  33.585   3.155   0.171
24890W        W97958  43.273  20.576   0.188
24891W        W97959  18.917  30.432   4.897
24892W        W97960  21.911   2.426  11.325
24893W        W97961  11.735  21.046   1.520
24894W        W97962  23.610   8.947   4.501
24895W        W97963  34.872  37.480   3.080
24896W        W97964  16.342   8.920   4.371
24897W        W97965  10.104  13.339  11.693
24898W        W97966  12.934  23.239   3.296
24899W        W97967  33.454  20.283  11.564
24900W        W97968   0.393  42.455   3.402
24901W        W97969  32.611   2.205   2.335
24902W        W97970   8.836  25.719   4.567
24903W        W97971  40.806  24.200  12.618
24904W        W97972   8.989  24.395   1.347
24905W        W97973  15.837  39.526   3.669
24906W        W97974  23.565  21.344   2.396
24907W        W97975  35.000  15.649  12.515
24908W        W97976   0.647   2.205   9.915
24909W        W97977   4.416   7.132  13.028
24910W        W97978  43.668  17.580   2.842
24911W        W97979  32.633   9.830   1.819
24912W        W97980  14.494   5.726   1.403
24913W        W97981   1.661   1.378   3.195
24914W        W97982  15.565   6.247   2.698
24915W        W97983  15.128  18.231  13.210
24916W        W97984  21.219  29.070   2.358
24917W        W97985  23.892  35.781  14.386
24918W        W97986  15.124   9.699  11.213
24919W        W97987   4.345  15.899   0.160
24920W        W97988  27.092  40.399   3.340
24921W        W97989  42.364  36.131  11.118
24922W        W97990  14.829  15.837   2.193
24923W        W97991   9.774  27.608   3.688
24924W        W97992   4.799   5.918  13.542
24925W        W97993   0.412  34.612   4.550
24926W        W97994  30.962  20.485   2.732
24927W        W97995  14.576  14.344  11.153
24928W        W97996  39.831   6.118   1.340
24929W        W97997   2.244  44.696  11.546
24930W        W97998  24.583  13.330  12.088
24931W        W97999  31.950  27.182  11.498
24932W        W98000   7.301  40.950   1.480
24933W        W98001  19.771   4.870  11.397
24934W        W98002  18.262  34.430   1.721
24935W        W98003  27.582  34.377  14.043
24936W        W98004  29.383  19.581   4.558
24937W        W98005  17.846  26.536  14.204
24938W        W98006  44.978   2.247   1.679
24939W        W98007  29.765  20.787  12.830
24940W        W98008   8.929   1.974   2.284
24941W        W98009   0.315  18.315  14.778
24942W        W98010  31.888  12.379  13.903
24943W        W98011  22.760   3.468  12.134
24944W        W98012  10.834  26.266   3.117
24945W        W98013  22.207   3.288  13.545
24946W        W98014   9.065  31.604  10.431
24947W        W98015  43.871  21.289  12.033
24948W        W98016  31.977  24.139   3.938
24949W        W98017  19.816   9.908  11.215
24950W        W98018   2.909  42.663   4.226
24951W        W98019  18.978  22.700  14.485
24952W        W98020  31.124   3.118  12.135
24953W        W98021  44.643   6.829   1.312
24954W        W98022  37.492  41.737  14.980
24955W        W98023  26.835  23.487   4.612
24956W        W98024  39.505  31.986   1.758
24957W        W98025  44.989  38.123  14.030
24958W        W98026  31.601  10.492   1.297
24959W        W98027  18.699  26.601  13.808
24960W        W98028  23.891   9.928   1.766
24961W        W98029  32.538  28.562  10.886
24962W        W98030   7.904  42.324  13.310
24963W        W98031  17.058  11.266   1.036
24964W        W98032  22.020   4.415  13.099
24965W        W98033   9.323  18.814  13.581
24966W        W98034  18.659  39.026   4.890
24967W        W98035  42.766   0.423  10.596
24968W        W98036  21.289  24.116   1.686
24969W        W98037  42.210  40.055  12.962
24970W        W98038   3.321   9.332   1.148
24971W        W98039  19.487  30.169  12.592
24972W        W98040  10.485  21.557  13.411
24973W        W98041  41.753  29.051   4.951
24974W        W98042  41.046  27.729  10.888
24975W        W98043  37.069   2.678  13.386
24976W        W98044  19.560  16.700  12.389
24977W        W98045  22.208  42.826  14.878
24978W        W98046   7.310  37.594  14.830
24979W        W98047   1.730   3.738   4.343
24980W        W98048  31.553  44.250   4.842
24981W        W98049   9.269  18.067  14.413
24982W        W98050  37.581  29.373   2.085
24983W        W98051  23.591  31.826  14.824
24984W        W98052  34.367   3.145   0.903
24985W        W98053  33.049  15.248  11.895
24986W        W98054  32.007  28.538  14.492
24987W        W98055  33.379   5.460   1.792
24988W        W98056   8.701   8.246   0.243
24989W        W98057  19.920   2.690   3.199
24990W        W98058  40.319  32.825   4.539
24991W        W98059  37.201  31.655   4.632
24992W        W98060  22.479  42.286   4.913
24993W        W98061  24.294  19.106   0.434
24994W        W98062   4.451   9.316  13.471
24995W        W98063  27.503   5.526  12.627
24996W        W98064   0.461   4.782   1.734
24997W        W98065  41.454  30.859  13.359
24998W        W98066  13.042  41.026   1.340
24999W        W98067   8.133  27.931   3.737
25000W        W98068  18.708  15.421  11.092
25001W        W98069   7.859  21.093  11.052
25002W        W98070  27.582   1.541   3.383
25003W        W98071  14.771  17.340   2.304
25004W        W98072   0.799  43.473  12.436
25005W        W98073   3.894   8.402   5.017
25006W        W98074  35.270  19.580   4.485
25007W        W98075   3.253   7.960   3.087
25008W        W98076  43.307  36.471   3.283
25009W        W98077   8.632  13.830  14.527
25010W        W98078  21.051   7.516  13.808
25011W        W98079  43.939  35.460   4.482
25012W        W98080  22.327  10.121   3.376
25013W        W98081  26.640   5.820   3.282
25014W        W98082  13.902  22.056  13.979
25015W        W98083  21.061  35.412   2.757
25016W        W98084   4.388  30.466  12.588
25017W        W98085  24.261  26.150  14.853
25018W        W98086  35.067  21.958  11.685
25019W        W98087  19.069  31.443   4.537
25020W        W98088  12.710  18.946   4.565
25021W        W98089  11.255  32.961  14.958
25022W        W98090  25.126   3.534  13.348
25023W        W98091  36.412  36.329  13.116
25024W        W98092  13.732  32.308  10.675
25025W        W98093  31.873  42.200  11.221
25026W        W98094  19.201  39.832  10.607
25027W        W98095  28.145  19.495  11.439
25028W        W98096  10.288   0.967  14.861
25029W        W98097  34.587   4.396   1.290
25030W        W98098  43.792  43.925   3.636
25031W        W98099  20.941   4.575   0.978
25032W        W98100  26.376  28.304   2.290
25033W        W98101  42.726  22.198   0.696
25034W        W98102  19.123  27.598  14.475
25035W        W98103  41.214   5.216  14.035
25036W        W98104  19.546  26.269   4.199
25037W        W98105  31.953   7.818   1.331
25038W        W98106  37.817  31.279   4.921
25039W        W98107   9.068   5.655  10.750
25040W        W98108   2.225  42.305  11.585
25041W        W98109   7.512  40.932  13.929
25042W        W98110  33.488   1.684   0.995
25043W        W98111  19.104  37.844  14.476
25044W        W98112  38.295   1.985  11.736
25045W        W98113  27.110   5.230  12.517
25046W        W98114  40.646  44.879  11.892
25047W        W98115  44.509  10.318  10.715
25048W        W98116   9.689  42.091   1.878
25049W        W98117  24.822  37.524  14.938
25050W        W98118   6.572  38.093   2.264
25051W        W98119  17.773  18.756   1.200
25052W        W98120  14.804  34.611  11.687
25053W        W98121  35.046  31.876  12.376
25054W        W98122  19.466  32.389   1.871
25055W        W98123  23.996   0.786   1.924
25056W        W98124  17.350  39.388  11.872
25057W        W98125  25.105  18.583  11.936
25058W        W98126  22.467  37.042  12.076
25059W        W98127  10.382  33.847   3.767
25060W        W98128   6.768  31.117   0.888
25061W        W98129  15.270  43.128   2.282
25062W        W98130  19.055  15.802  10.813
25063W        W98131  38.229  14.513  13.430
25064W        W98132  10.701  38.977  14.098
25065W        W98133   9.068  42.064   0.828
25066W        W98134   3.192  25.143  10.613
25067W        W98135  32.433  22.662  12.917
25068W        W98136  23.076  22.762   3.304
25069W        W98137  27.131  33.737   0.799
25070W        W98138   2.393  37.949  11.472
25071W        W98139   6.219   2.923   0.816
25072W        W98140  11.594  27.654  12.247
25073W        W98141  18.238  43.363   0.253
25074W        W98142  22.294   2.992   0.162
25075W        W98143  34.370  28.656  13.452
25076W        W98144  26.953  13.329  10.534
25077W        W98145  30.056   0.283  14.505
25078W        W98146  29.878  16.619  11.647
25079W        W98147   4.804  21.255   4.093
25080W        W98148  41.358  41.604   0.999
25081W        W98149  22.463   4.847  11.620
25082W        W98150  26.218   7.853   2.195
25083W        W98151  40.947   5.952   5.814
25084W        W98152  14.016  16.018  11.111
25085W        W98153  24.568  22.637  14.966
25086W        W98154  24.033   3.512   1.524
25087W        W98155  28.406   8.101  12.877
25088W        W98156   5.431  10.576  10.700
25089W        W98157  16.783  28.542  11.561
25090W        W98158  34.429  27.893   0.363
25091W        W98159  15.179   2.514  10.690
25092W        W98160  18.757  41.318  10.753
25093W        W98161  23.238  16.988  10.249
25094W        W98162  32.732  17.330  12.059
25095W        W98163  24.575   2.984   4.157
25096W        W98164  20.670  31.636   0.809
25097W        W98165   9.361  19.357  12.105
25098W        W98166  29.837  21.901   2.551
25099W        W98167   5.942  44.986  11.094
25100W        W98168  22.761   4.854   2.592
25101W        W98169  35.299  20.827   0.712
25102W        W98170   0.155  21.529  14.512
25103W        W98171  31.182   9.796  14.870
25104W        W98172   3.318  20.433  13.886
25105W        W98173  40.406  22.073   1.309
25106W        W98174  31.986  41.027   1.439
25107W        W98175   4.326  44.831   3.377
25108W        W98176  41.504   1.015  13.310
25109W        W98177   6.230  20.023   3.199
25110W        W98178  32.425  42.987   2.399
25111W        W98179  44.388  21.816  13.185
25112W        W98180  16.742  30.378  13.858
25113W        W98181   8.625  13.646   3.609
25114W        W98182  31.614  15.590   0.736
25115W        W98183  11.559  35.506   4.657
25116W        W98184   3.958  37.798   2.750
25117W        W98185   2.017   8.863   0.447
25118W        W98186   4.382   8.406  14.210
25119W        W98187  33.957  27.185   0.712
25120W        W98188   5.647  35.616  11.591
25121W        W98189  28.828   2.623  12.657
25122W        W98190   8.001   3.527   5.063
25123W        W98191  31.520  18.733  13.897
25124W        W98192  25.154  37.414  12.099
25125W        W98193  44.873  41.887  11.142
25126W        W98194  11.791  41.505  11.623
25127W        W98195  38.885   3.017   3.708
25128W        W98196  10.610   7.520  12.071
25129W        W98197  17.859   6.273   0.846
25130W        W98198  43.470   7.755   3.024
25131W        W98199  42.734  26.633   0.374
25132W        W98200   7.203  32.750   0.322
25133W        W98201  15.059  23.935   4.471
25134W        W98202  42.735  23.003  12.503
25135W        W98203  18.262  21.116   0.509
25136W        W98204  23.624   6.085   2.717
25137W        W98205  32.229  18.591  12.826
25138W        W98206  35.183  13.284  14.189
25139W        W98207  23.136  16.158   4.886
25140W        W98208  40.835  15.058   1.220
25141W        W98209  31.887  32.610  14.529
25142W        W98210  34.440   0.381   3.854
25143W        W98211  42.573  14.747  14.582
25144W        W98212   4.752  36.864  13.319
25145W        W98213  16.719  31.197   1.460
25146W        W98214  19.226  37.575   0.911
25147W        W98215  27.149  42.590   2.703
25148W        W98216  25.115  33.533  10.822
25149W        W98217   3.282  26.997  12.544
25150W        W98218  41.375  11.198  14.546
25151W        W98219  35.771  13.135   0.001
25152W        W98220  10.624  21.630   1.646
25153W        W98221  27.897   2.300   2.213
25154W        W98222  29.332  37.099  10.591
25155W        W98223  15.732  13.787  12.614
25156W        W98224  33.127  30.267  10.344
25157W        W98225  32.627  27.199   0.458
25158W        W98226  43.769   1.020   0.837
25159W        W98227   6.246  34.191   2.261
25160W        W98228   8.849  39.556   4.998
25161W        W98229   4.057  26.683   3.196
25162W        W98230   4.391  18.564  13.996
25163W        W98231  30.789   6.188  12.479
25164W        W98232   7.517   1.686   1.185
25165W        W98233   6.273  12.830   0.187
25166W        W98234  21.827  26.631   5.009
25167W        W98235  19.842  19.759   2.459
25168W        W98236  35.468  17.597  11.462
25169W        W98237  41.790  26.188   3.814
25170W        W98238  37.500  41.023  14.392
25171W        W98239  21.114  30.396   1.092
25172W        W98240  31.643  21.108  14.305
25173W        W98241  24.808  34.489  12.995
25174W        W98242  39.435  34.960   3.159
25175W        W98243  11.046  13.875   1.967
25176W        W98244  30.320  28.654  11.027
25177W        W98245  15.681  27.654   1.866
25178W        W98246  13.205  30.703   5.315
25179W        W98247  35.434   7.073   0.468
25180W        W98248  15.549  39.569   2.596
25181W        W98249   8.852  32.386  13.573
25182W        W98250   0.461  42.980  13.368
25183W        W98251  37.116  32.002  14.789
25184W        W98252  23.201  15.739   1.727
25185W        W98253  36.379  10.889   0.524
25186W        W98254   1.913  25.232   2.535
25187W        W98255  17.728  21.870   2.877
25188W        W98256  11.218   8.425  12.126
25189W        W98257   6.220  11.193  14.388
25190W        W98258  16.120  29.914   1.250
25191W        W98259   9.789  13.163   1.246
25192W        W98260  37.847  27.907  13.512
25193W        W98261  15.516   1.069   4.178
25194W        W98262  37.587  34.561  10.753
25195W        W98263  10.216  19.501   2.761
25196W        W98264  30.660  33.954  12.004
25197W        W98265  35.530  23.572  13.484
25198W        W98266  30.583  37.568  12.805
25199W        W98267   0.385  10.451  12.125
25200W        W98268  33.172  29.104  10.529
25201W        W98269  17.557  25.399   4.840
25202W        W98270  41.501  17.258   0.412
25203W        W98271  33.553  38.553   3.683
25204W        W98272  23.034  35.450  14.132
25205W        W98273  36.674  21.188   1.680
25206W        W98274   2.570  28.515   3.004
25207W        W98275  44.906   3.980   1.881
25208W        W98276  12.651  42.919  14.458
25209W        W98277  14.883  16.235  13.383
25210W        W98278  43.770  20.502   0.018
25211W        W98279  34.755  29.699  14.933
25212W        W98280  10.228  10.785   1.888
25213W        W98281  33.188   6.431  13.001
25214W        W98282  23.844  26.590  12.855
25215W        W98283  34.723  27.858   0.908
25216W        W98284   1.233  11.830   2.890
25217W        W98285  41.101  22.131  14.466
25218W        W98286   8.886  28.711  11.983
25219W        W98287  31.109   5.969  10.501
25220W        W98288  19.753  13.142   4.491
25221W        W98289  17.334  27.685   4.597
25222W        W98290   5.731  35.312  11.195
25223W        W98291   1.867  18.786   0.431
25224W        W98292  27.370  27.053  12.166
25225W        W98293  43.340   3.480   4.234
25226W        W98294  23.622  19.999  10.270
25227W        W98295  22.223  25.985  11.029
25228W        W98296   7.320   2.659   1.273
25229W        W98297   1.740  26.880  11.211
25230W        W98298  25.171  41.087   0.780
25231W        W98299  37.022  17.490   2.823
25232W        W98300  38.902   5.279  14.325
25233W        W98301  25.718  43.005   4.129
25234W        W98302  14.532  19.573   2.651
25235W        W98303  12.316  35.445  12.575
25236W        W98304  37.461  15.066   3.575
25237W        W98305  21.454  40.192   4.114
25238W        W98306   1.714  38.498   3.735
25239W        W98307  34.765   2.421  11.227
25240W        W98308  41.311  29.060  13.446
25241W        W98309  25.878  24.222   0.171
25242W        W98310  16.106  44.432   4.512
25243W        W98311  35.395   1.823  13.246
25244W        W98312  30.929  29.780  11.546
25245W        W98313   3.796  18.252   2.813
25246W        W98314   2.590  11.166  14.115
25247W        W98315  23.629  26.068   3.610
25248W        W98316   0.048  10.476  12.999
25249W        W98317   6.233  42.922  10.591
25250W        W98318  25.147  33.638  12.309
25251W        W98319   5.818  28.589   4.886
25252W        W98320  43.817  12.834   2.690
25253W        W98321   8.077  41.122   3.605
25254W        W98322  41.939  35.601   0.374
25255W        W98323   0.807  44.564  14.544
25256W        W98324  38.590  26.458  14.812
25257W        W98325  42.791  34.496  11.125
25258W        W98326  29.746   5.344   2.762
25259W        W98327   7.677   4.494   4.073
25260W        W98328  38.028  26.471   3.348
25261W        W98329  26.296  13.314  13.981
25262W        W98330  34.605  33.047   1.379
25263W        W98331  19.731  40.524  13.578
25264W        W98332  43.694  21.199  12.520
25265W        W98333   9.823   1.936  10.691
25266W        W98334   4.822  28.106   3.197
25267W        W98335   3.305  29.209  13.117
25268W        W98336  12.781   0.280  14.282
25269W        W98337   0.762  31.008   4.270
25270W        W98338  43.051  10.221   2.206
25271W        W98339  37.535   5.223  11.520
25272W        W98340   9.690   2.022  14.353
25273W        W98341  26.018   5.823   0.884
25274W        W98342   8.612  20.222  13.658
25275W        W98343  14.267   4.313  11.251
25276W        W98344  12.845  28.175  13.567
25277W        W98345  16.221  17.116  14.061
25278W        W98346  32.727  24.797  11.205
25279W        W98347  16.563  33.782  14.501
25280W        W98348  23.079   3.946   2.220
25281W        W98349  35.829  27.135   1.775
25282W        W98350   6.251  44.999   4.613
25283W        W98351  13.655  29.901   4.683
25284W        W98352  43.389  27.910  12.466
25285W        W98353  21.905  23.166  12.897
25286W        W98354  20.014  10.342   2.351
25287W        W98355  29.865  28.061   2.867
25288W        W98356  26.891   1.863  11.343
25289W        W98357  34.070  20.880   4.073
25290W        W98358  29.926  10.879   1.634
25291W        W98359   6.397  42.631   4.863
25292W        W98360  20.946  38.270   1.374
25293W        W98361  22.861   2.785  14.323
25294W        W98362  39.114  10.812   1.776
25295W        W98363  44.287  26.597  12.369
25296W        W98364  23.880  23.913  14.568
25297W        W98365   7.163  43.884  11.665
25298W        W98366  12.734  28.469  11.641
25299W        W98367  22.607   1.244   4.760
25300W        W98368  40.413  36.513  14.980
25301W        W98369  17.731  20.729   4.103
25302W        W98370  15.707  31.417   3.730
25303W        W98371  33.624  14.471   0.942
25304W        W98372  27.145  19.293  10.640
25305W        W98373  44.497  41.019   3.250
25306W        W98374   1.744  16.799  10.939
25307W        W98375  37.054  38.450  10.593
25308W        W98376  28.098  12.273  14.337
25309W        W98377  34.629  25.290  11.293
25310W        W98378  28.533   6.660  10.792
25311W        W98379   2.768   4.035  13.001
25312W        W98380  10.818  15.002   3.625
25313W        W98381   9.865  39.601  14.634
25314W        W98382  33.002  21.934   0.816
25315W        W98383   4.298  32.160  10.397
25316W        W98384   5.030  14.768  11.093
25317W        W98385  36.724  42.421  13.836
25318W        W98386  12.312   7.240  11.955
25319W        W98387  12.139  25.969  13.367
25320W        W98388  13.419  13.087   1.844
25321W        W98389  17.190   2.728   2.135
25322W        W98390   1.602   4.657  14.835
25323W        W98391  27.143   0.205  12.666
25324W        W98392   3.558  17.934   1.887
25325W        W98393   8.918  43.832   1.300
25326W        W98394  32.529  29.970  10.513
25327W        W98395  17.486   6.953   0.245
25328W        W98396  24.527   4.974   0.328
25329W        W98397   2.742  37.192   1.354
25330W        W98398  16.030  13.806  13.062
25331W        W98399   7.243  23.095  12.618
25332W        W98400   7.054  24.601  11.417
25333W        W98401  24.419   7.778  14.000
25334W        W98402  24.861  10.541  12.924
25335W        W98403   7.571  44.326   3.040
25336W        W98404  33.108  16.155   1.973
25337W        W98405  24.466  29.505   1.253
25338W        W98406   3.766  26.963   1.871
25339W        W98407  31.962   5.371  14.368
25340W        W98408  14.148  42.879   0.657
25341W        W98409   2.300  27.540  13.950
25342W        W98410  10.353  33.888   4.570
25343W        W98411   5.420   8.957  13.376
25344W        W98412  44.209  24.536  10.622
25345W        W98413  44.671   8.693   4.972
25346W        W98414   9.365  44.688  11.648
25347W        W98415   3.395  33.887  10.666
25348W        W98416  35.923  22.494  11.106
25349W        W98417  29.019  20.988  11.195
25350W        W98418  40.122  34.421  11.847
25351W        W98419   5.300  17.750   3.769
25352W        W98420  41.802  38.898  14.890
25353W        W98421  18.312   5.693  13.877
25354W        W98422   8.774  35.537   4.040
25355W        W98423  20.750  19.140   3.248
25356W        W98424  37.353  17.526   0.741
25357W        W98425  28.562  41.852  14.534
25358W        W98426  23.775  32.420   2.270
25359W        W98427  27.657  27.232   1.522
25360W        W98428  43.732  13.038   3.190
25361W        W98429  20.493  41.054  14.330
25362W        W98430  22.259  12.043  11.154
25363W        W98431  34.761  39.620  11.205
25364W        W98432  35.784  28.403   2.502
25365W        W98433  19.593  29.091   1.681
25366W        W98434   4.208  27.885   4.649
25367W        W98435   9.885   6.149   3.640
25368W        W98436   7.280   9.474  11.818
25369W        W98437  13.223  15.842  12.401
25370W        W98438   7.723  24.224  13.966
25371W        W98439  30.501   2.707   0.944
25372W        W98440  38.233  34.076   3.515
25373W        W98441  14.609  23.072  14.294
25374W        W98442   5.446  24.363  11.448
25375W        W98443   3.938   6.772   2.756
25376W        W98444  32.523   8.660   2.437
25377W        W98445  11.645  27.908   4.612
25378W        W98446  18.843  32.303   2.428
25379W        W98447  28.435  23.417   3.741
25380W        W98448  13.653   0.712  11.079
25381W        W98449  43.571  13.984   2.577
25382W        W98450   3.704  10.588  12.071
25383W        W98451  44.234  15.127  11.596
25384W        W98452  42.795  15.472   0.668
25385W        W98453  16.250  25.549   4.327
25386W        W98454  28.969   1.790   0.327
25387W        W98455  16.402  24.423  11.171
25388W        W98456   7.686  42.770  12.951
25389W        W98457  25.153  13.113  13.425
25390W        W98458   7.082  19.559  14.915
25391W        W98459  25.505  28.240   1.190
25392W        W98460  24.254   1.387  14.069
25393W        W98461  40.885  38.644  13.399
25394W        W98462  16.077   1.673  14.275
25395W        W98463  44.274  11.404  12.480
25396W        W98464  37.818  34.478   1.074
25397W        W98465  25.170  30.489  12.215
25398W        W98466  38.499  10.954   2.832
25399W        W98467  43.812  25.427   2.065
25400W        W98468  13.161   1.936  11.184
25401W        W98469  12.286  42.805   2.284
25402W        W98470   7.646  10.326  10.750
25403W        W98471   8.258  14.200  13.757
25404W        W98472  23.714  33.163  13.447
25405W        W98473  15.655  10.651  11.633
25406W        W98474  41.157   4.607  12.052
25407W        W98475  15.108  12.774  12.919
25408W        W98476   3.589  13.213  11.667
25409W        W98477  39.553   9.300  11.580
25410W        W98478  39.307  16.111  11.169
25411W        W98479  36.418  20.269   1.495
25412W        W98480  36.295  36.343  14.965
25413W        W98481  13.238   7.736   0.141
25414W        W98482   1.843  25.207   4.769
25415W        W98483  41.269   2.906   2.475
25416W        W98484  41.501  17.498   3.305
25417W        W98485   1.017  40.058   4.114
25418W        W98486  23.998  40.407   1.779
25419W        W98487  33.253  12.292   3.559
25420W        W98488  16.298  31.405  10.762
25421W        W98489  22.697  13.045  11.628
25422W        W98490  39.831  41.514  13.837
25423W        W98491  43.747  19.321   3.198
25424W        W98492  11.601  33.329  14.101
25425W        W98493  43.487  19.456   2.731
25426W        W98494  15.158   3.238   3.735
25427W        W98495  21.665  35.199   3.176
25428W        W98496  35.837  15.637   2.928
25429W        W98497  36.946   5.357  10.461
25430W        W98498  22.835  32.838   0.914
25431W        W98499   8.855  18.071   4.121
25432W        W98500   2.263  32.897   3.687
25433W        W98501  31.652  41.811  13.780
25434W        W98502  11.700  35.007   4.620
25435W        W98503  15.566  26.921   0.702
25436W        W98504   8.169  44.287  14.926
25437W        W98505  16.840  32.060   3.390
25438W        W98506  30.218  38.366  13.322
25439W        W98507   8.045  15.814   2.373
25440W        W98508  17.599  32.971   3.642
25441W        W98509  36.591  21.540  14.807
25442W        W98510  34.790  26.598   2.824
25443W        W98511  10.059  29.045  10.535
25444W        W98512  43.488   5.187   1.514
25445W        W98513  27.421  17.794   2.675
25446W        W98514  31.044  20.454  11.672
25447W        W98515  44.488  32.355  10.595
25448W        W98516  20.702  26.895  14.987
25449W        W98517   3.465  25.280  11.507
25450W        W98518  30.667  10.440   1.820
25451W        W98519  16.707  11.554   3.222
25452W        W98520   8.884  20.587   4.893
25453W        W98521  38.604  13.153   5.171
25454W        W98522   8.970   7.838   1.499
25455W        W98523  11.298   2.230   3.603
25456W        W98524  18.455  36.990   1.836
25457W        W98525  27.870  42.974   0.270
25458W        W98526  29.654  31.522   2.802
25459W        W98527   9.326  13.603  14.336
25460W        W98528  16.644  29.511   4.049
25461W        W98529  34.523  11.549  12.753
25462W        W98530  33.855  39.416  11.230
25463W        W98531  29.056  23.438   2.394
25464W        W98532  36.738  24.042   2.303
25465W        W98533  13.260   6.374   1.517
25466W        W98534  22.602  22.971   1.373
25467W        W98535  42.606   0.277   1.065
25468W        W98536  31.923  37.024  13.859
25469W        W98537  40.895  37.626  13.180
25470W        W98538  16.967  18.124   4.217
25471W        W98539  16.198  11.075   4.866
25472W        W98540  25.165  28.601   2.830
25473W        W98541   7.243   7.522  14.142
25474W        W98542  30.905  11.856  11.573
25475W        W98543  43.359  19.188  14.926
25476W        W98544  43.261  27.391  12.441
25477W        W98545   7.235  12.295  13.833
25478W        W98546  40.344  19.089  12.245
25479W        W98547   3.242  41.877   0.519
25480W        W98548  23.470   1.330  10.717
25481W        W98549  44.266  26.300   2.322
25482W        W98550  35.537  35.328   1.596
25483W        W98551  41.044  13.666  11.680
25484W        W98552  24.136  39.859  11.963
25485W        W98553  37.476   0.928   4.774
25486W        W98554  15.758  32.092   3.131
25487W        W98555   8.907  28.065  14.839
25488W        W98556  42.365  21.783  13.519
25489W        W98557   7.450  30.089   0.216
25490W        W98558  12.620  23.142  10.641
25491W        W98559  29.127  27.593   2.504
25492W        W98560  38.307   7.174   3.976
25493W        W98561  10.448  42.037  12.604
25494W        W98562   6.337   0.003   0.698
25495W        W98563  15.632  30.392   1.893
25496W        W98564  24.165  44.064   2.271
25497W        W98565  13.355  26.991  11.199
25498W        W98566   2.717  18.790   2.317
25499W        W98567  36.886  31.317  14.245
25500W        W98568  17.061  27.556  10.728
25501W        W98569   2.753  11.291   2.924
25502W        W98570  25.802  12.783   2.205
25503W        W98571   5.681   7.915   3.403
25504W        W98572   3.780  10.760   3.582
25505W        W98573   9.187   6.440   2.601
25506W        W98574   0.371  24.469   1.746
25507W        W98575  23.660   1.150  12.551
25508W        W98576  23.121   2.962  13.811
25509W        W98577  34.851  10.793  13.306
25510W        W98578  43.868   9.293   0.234
25511W        W98579  41.036  24.599  13.498
25512W        W98580  17.655   7.126  14.760
25513W        W98581   0.122  17.847   0.718
25514W        W98582  31.085  25.268   5.169
25515W        W98583  37.865  29.399  12.024
25516W        W98584   3.397  12.376   3.333
25517W        W98585  38.605   6.680  10.169
25518W        W98586  40.044   2.795  12.030
25519W        W98587  24.396  10.610  11.827
25520W        W98588  25.486  34.161   2.468
25521W        W98589   1.220   5.935   2.181
25522W        W98590   3.834  15.255  11.668
25523W        W98591  39.393  43.520  13.914
25524W        W98592  18.083  25.119  10.771
25525W        W98593  41.658  30.316   4.158
25526W        W98594   4.646  14.105   2.185
25527W        W98595  22.323  22.957   2.637
25528W        W98596  28.846  43.095   1.397
25529W        W98597  18.675  25.934  14.550
25530W        W98598  40.981  32.112  11.404
25531W        W98599   3.911  36.940   4.666
25532W        W98600  19.750  40.264   3.730
25533W        W98601  12.339  41.218  11.522
25534W        W98602  17.742  26.957  13.885
25535W        W98603  22.211  17.103  11.583
25536W        W98604  20.316  24.411   0.067
25537W        W98605  30.642  21.755  14.801
25538W        W98606   8.319  33.868   2.443
25539W        W98607  12.817  14.467   0.841
25540W        W98608   8.786  35.666  13.418
25541W        W98609   9.889  16.635  13.394
25542W        W98610  35.831  22.214  10.665
25543W        W98611  21.731  43.419   5.087
25544W        W98612  38.393   7.747  13.500
25545W        W98613  13.185  36.907   4.312
25546W        W98614  38.108  11.451   4.155
25547W        W98615  25.443  35.999   2.394
25548W        W98616  25.780  23.605   2.155
25549W        W98617  13.223  39.815   2.133
25550W        W98618  37.118  30.189  13.075
25551W        W98619  11.571  11.835  11.492
25552W        W98620  42.038  23.775  14.410
25553W        W98621  22.342  11.388   2.292
25554W        W98622  15.301  38.540   3.659
25555W        W98623  11.111   3.509  14.063
25556W        W98624   9.261   7.209  10.609
25557W        W98625  32.289  25.334   5.063
25558W        W98626   7.104  27.869   3.660
25559W        W98627   2.981  18.703   3.645
25560W        W98628  14.609  13.130   1.641
25561W        W98629  31.522  24.480   2.335
25562W        W98630  26.105  27.221  12.029
25563W        W98631   5.811  36.646  10.703
25564W        W98632  16.655  35.318   3.228
25565W        W98633   1.984  10.315   1.709
25566W        W98634  18.950  23.172   2.240
25567W        W98635  25.768   8.847  12.975
25568W        W98636  15.526  38.257  12.438
25569W        W98637   2.410  42.338   0.356
25570W        W98638   5.769  38.748  12.976
25571W        W98639   5.889   1.814   3.217
25572W        W98640  10.338  18.716  14.777
25573W        W98641  41.965   6.195   0.453
25574W        W98642   1.564  27.084   2.600
25575W        W98643  28.528  43.048  12.991
25576W        W98644  22.481  44.028   3.204
25577W        W98645  27.998  29.622   0.621
25578W        W98646  32.260  41.224   3.832
25579W        W98647   6.085   8.654   1.406
25580W        W98648  34.684  16.809  13.750
25581W        W98649   5.394  17.254  11.901
25582W        W98650  21.838  16.575   3.752
25583W        W98651  21.457   0.341   0.387
25584W        W98652  43.844  40.237  12.009
25585W        W98653   9.201  38.124   1.419
25586W        W98654   9.737   7.041   2.659
25587W        W98655  11.006  18.830  13.770
25588W        W98656   8.889  42.028   4.656
25589W        W98657   5.927  18.230   1.917
25590W        W98658  40.871  33.209   3.451
25591W        W98659  25.379  26.718  14.431
25592W        W98660  18.130  10.842   2.338
25593W        W98661  44.936  31.599  13.344
25594W        W98662  33.535   0.869  13.029
25595W        W98663  18.691  17.072   0.398
25596W        W98664  23.128  17.301  10.677
25597W        W98665  43.425  26.850   5.044
25598W        W98666  41.947  34.001  14.427
25599W        W98667   3.277  20.700   2.696
25600W        W98668  19.783  14.729  11.089
25601W        W98669  12.907  36.797  14.281
25602W        W98670  24.982  18.197   2.366
25603W        W98671  11.768  33.271   3.823
25604W        W98672   5.797  22.211  14.079
25605W        W98673  22.606  11.665  11.104
25606W        W98674  29.217  27.160  14.044
25607W        W98675  20.596  33.088  14.889
25608W        W98676  39.622  24.983   3.829
25609W        W98677   9.261  25.524  10.596
25610W        W98678  19.096  35.375   4.164
25611W        W98679  28.105  18.611   1.881
25612W        W98680  41.946   1.015  13.607
25613W        W98681   1.815  41.837  14.972
25614W        W98682  31.839  20.555   0.961
25615W        W98683   3.785  43.902   4.158
25616W        W98684  37.289  39.013   1.701
25617W        W98685  34.486  21.009   1.020
25618W        W98686  35.822   1.250   4.414
25619W        W98687  26.966   2.857  12.876
25620W        W98688   0.509  15.596  10.469
25621W        W98689  41.538  33.438   2.067
25622W        W98690  25.720   5.395   0.902
25623W        W98691  16.058  40.467  10.773
25624W        W98692   9.247  13.862  11.433
25625W        W98693  18.438  43.930   0.992
25626W        W98694  44.984  28.955   1.837
25627W        W98695  36.429  30.957  12.010
25628W        W98696  27.214   6.602   2.988
25629W        W98697  36.546  18.057   2.171
25630W        W98698  16.113  26.306   0.371
25631W        W98699  42.420   3.437   3.711
25632W        W98700  17.169  28.633  12.114
25633W        W98701  40.997   1.463   2.802
25634W        W98702  22.900  24.819  13.056
25635W        W98703  10.219  38.597  10.187
25636W        W98704   5.722  13.704   4.185
25637W        W98705  40.597  34.476  13.191
25638W        W98706  10.120  27.557  14.745
25639W        W98707  36.099  18.013  12.917
25640W        W98708  31.067  25.927  11.868
25641W        W98709   1.278   5.939  12.524
25642W        W98710  10.189  20.615   3.672
25643W        W98711  13.699  12.552  13.400
25644W        W98712  37.866   0.368  12.251
25645W        W98713  16.688  31.613  12.485
25646W        W98714  25.450  38.442  12.953
25647W        W98715  41.229  33.502  12.550
25648W        W98716   2.772  10.878   1.228
25649W        W98717   4.884  12.568   0.485
25650W        W98718  34.220  30.444   2.359
25651W        W98719  10.218  21.982  13.341
25652W        W98720   1.912  28.040   1.315
25653W        W98721   3.587  31.175  11.104
25654W        W98722  24.407  20.542  13.601
25655W        W98723   0.307   1.492   1.460
25656W        W98724  14.524  22.524   1.360
25657W        W98725  16.078  36.902   2.082
25658W        W98726  42.329  33.880   4.938
25659W        W98727  29.758  13.828   4.672
25660W        W98728  15.228  17.130   3.143
25661W        W98729   5.223  13.978   0.370
25662W        W98730  27.546   8.613   0.460
25663W        W98731  11.980  44.692   4.599
25664W        W98732  29.012   6.888  11.652
25665W        W98733   4.882   1.361  14.345
25666W        W98734  15.719  18.797  12.988
25667W        W98735   5.308  27.953  13.884
25668W        W98736  41.745   6.187   0.940
25669W        W98737   4.926  40.114   3.243
25670W        W98738  37.613  15.635   0.964
25671W        W98739  23.246  43.454   4.117
25672W        W98740  41.345  26.334   9.907
25673W        W98741  20.331  12.587   4.085
25674W        W98742  22.876  10.649  11.978
25675W        W98743  18.791  16.126   4.595
25676W        W98744  25.680  39.487   0.699
25677W        W98745  44.247  28.682  14.337
25678W        W98746  35.351  35.793  13.905
25679W        W98747  14.732  25.135   1.885
25680W        W98748  26.717  10.203   0.769
25681W        W98749  11.210  42.278  14.782
25682W        W98750   8.995  44.947   2.663
25683W        W98751   1.341  29.576   2.761
25684W        W98752  42.531  18.780   0.355
25685W        W98753  34.383  37.930   0.847
25686W        W98754  26.438   7.217   1.558
25687W        W98755  19.248  38.367   0.353
25688W        W98756   8.288  39.569   1.954
25689W        W98757   2.275  32.550   1.894
25690W        W98758  20.198  21.946  10.221
25691W        W98759   8.761  41.041   1.792
25692W        W98760  13.882  17.171   0.359
25693W        W98761   4.784   7.220  10.907
25694W        W98762  13.253   7.833   1.787
25695W        W98763  24.749  15.419   2.633
25696W        W98764   6.074   8.164  10.235
25697W        W98765  11.584  22.897  10.394
25698W        W98766  25.939  42.481  12.472
25699W        W98767   5.428  36.350  12.454
25700W        W98768  13.266  35.552   1.433
25701W        W98769  23.692  13.252   4.792
25702W        W98770  35.968  38.629  11.613
25703W        W98771  22.087  38.592  10.673
25704W        W98772   2.673  16.962  13.763
25705W        W98773  29.532  25.254   4.925
25706W        W98774  10.691  13.636   2.758
25707W        W98775  22.981  19.334   1.289
25708W        W98776  25.355  29.655   0.864
25709W        W98777  17.664   0.070  10.675
25710W        W98778  31.934   4.838   1.396
25711W        W98779   4.214   5.918   3.259
25712W        W98780  13.074   4.726   4.903
25713W        W98781  19.103  26.380  14.852
25714W        W98782  40.588   8.493   4.093
25715W        W98783  26.742  37.784   1.720
25716W        W98784  38.966  21.169   3.783
25717W        W98785  24.474  34.128  12.077
25718W        W98786   8.948  18.454   1.946
25719W        W98787   0.305  23.442  14.129
25720W        W98788  15.575  15.882  13.755
25721W        W98789   3.460  41.366  10.027
25722W        W98790  36.152   1.589   3.299
25723W        W98791  23.009   3.759   1.338
25724W        W98792  23.250  20.288   1.551
25725W        W98793  36.077  10.448  10.193
25726W        W98794  32.101   7.058  14.905
25727W        W98795  30.932   7.693  10.682
25728W        W98796  36.359  43.215   1.130
25729W        W98797  20.051  28.444  12.339
25730W        W98798  36.177  30.572   1.484
25731W        W98799  38.437  16.838  13.621
25732W        W98800  42.053  33.547   1.147
25733W        W98801  14.100   0.523   0.809
25734W        W98802  23.140   8.359  12.883
25735W        W98803  15.594  25.387   3.441
25736W        W98804  25.143  20.159  12.140
25737W        W98805  11.106   2.520  13.770
25738W        W98806  15.544  23.687   3.606
25739W        W98807  15.780  42.913   2.278
25740W        W98808  16.898  32.717   0.382
25741W        W98809  17.500   6.048   4.252
25742W        W98810  18.868  30.148  13.924
25743W        W98811  42.245   5.437   4.744
25744W        W98812  17.177  34.168   3.653
25745W        W98813  26.579  42.778  13.625
25746W        W98814  29.535  11.418  13.035
25747W        W98815   7.360  20.698   2.426
25748W        W98816  31.038  21.916   4.235
25749W        W98817  20.595  26.144   3.289
25750W        W98818   9.227  22.228  12.150
25751W        W98819  30.201   1.770   0.315
25752W        W98820  18.614  42.035  14.497
25753W        W98821  23.113  33.372  10.500
25754W        W98822  22.168   2.298   0.809
25755W        W98823   6.101  28.702   1.939
25756W        W98824  33.528  37.831  12.207
25757W        W98825  23.717  40.361  13.865
25758W        W98826   6.940  14.477  13.961
25759W        W98827   0.033  19.518   3.690
25760W        W98828   3.740   1.183  13.395
25761W        W98829  12.812  23.181   2.309
25762W        W98830  43.252  20.012   3.671
25763W        W98831  11.109  16.286  12.237
25764W        W98832  17.518  27.453   0.403
25765W        W98833  12.845  42.146   2.295
25766W        W98834  22.599  10.085  11.126
25767W        W98835  19.278  30.486   2.467
25768W        W98836  40.532   7.932   5.414
25769W        W98837  41.352  29.166   1.161
25770W        W98838   5.180   2.933   2.753
25771W        W98839  32.399  33.279   3.644
25772W        W98840  15.645  10.104  12.672
25773W        W98841   7.500  44.749  12.709
25774W        W98842  28.633  12.740  14.971
25775W        W98843  16.106  31.663   1.889
25776W        W98844  28.430   2.280   0.256
25777W        W98845  44.798  21.220   4.406
25778W        W98846  43.257  24.198  11.092
25779W        W98847  13.684  32.601   1.703
25780W        W98848  32.586  29.026  10.616
25781W        W98849  12.859  22.739   0.421
25782W        W98850  10.628  32.726  12.106
25783W        W98851   7.827  20.786   4.376
25784W        W98852  23.186  35.579   4.282
25785W        W98853   7.654  15.637  14.047
25786W        W98854  17.589  20.437   2.657
25787W        W98855  11.104  15.183   4.862
25788W        W98856  11.245   4.965  13.886
25789W        W98857   1.905  34.254  12.414
25790W        W98858  33.870  40.003  12.855
25791W        W98859  13.669  32.515  12.052
25792W        W98860  44.222  42.666  14.815
25793W        W98861  17.630   5.128   4.256
25794W        W98862  25.616   6.287   1.374
25795W        W98863  28.691   1.655   4.621
25796W        W98864  42.979  10.520  14.821
25797W        W98865  26.052  10.060   4.736
25798W        W98866   2.210  41.037  12.846
25799W        W98867  28.392  41.601  11.613
25800W        W98868  42.740  32.522  12.652
25801W        W98869  42.271  38.635   0.730
25802W        W98870  19.131   2.206   2.289
25803W        W98871   6.952  14.126   1.902
25804W        W98872  42.232  18.747  13.749
25805W        W98873  43.033  36.596   4.481
25806W        W98874   7.745  23.370  10.717
25807W        W98875  40.322  28.573   1.355
25808W        W98876   5.433  32.270  12.988
25809W        W98877  23.112   0.954   1.413
25810W        W98878   5.265  13.878  14.376
25811W        W98879  18.134  40.395  11.138
25812W        W98880  29.597  16.739   3.684
25813W        W98881   9.777  29.560   1.618
25814W        W98882  38.556  25.600  13.066
25815W        W98883  15.277   5.705  11.107
25816W        W98884  40.784  11.916  10.668
25817W        W98885  37.270  25.454   3.957
25818W        W98886  17.781  16.459  14.303
25819W        W98887   2.249   3.531  13.279
25820W        W98888  37.980  29.518   2.383
25821W        W98889   2.474  20.450   0.535
25822W        W98890  23.198   1.265   4.211
25823W        W98891  35.589  29.969   1.204
25824W        W98892  24.937  33.982  13.880
25825W        W98893   6.129   4.777   5.060
25826W        W98894  24.965  41.701  12.354
25827W        W98895   8.836  23.562  13.997
25828W        W98896  27.567  42.826   2.990
25829W        W98897  38.360  13.461  14.403
25830W        W98898  30.364   1.122   0.020
25831W        W98899  27.728  37.063  10.807
25832W        W98900  29.996  17.315  10.475
25833W        W98901  24.493   6.779   0.656
25834W        W98902  16.226  38.730  11.040
25835W        W98903  37.829   4.974   4.593
25836W        W98904  28.506  33.042   0.899
25837W        W98905  35.658   4.300   0.486
25838W        W98906  13.859  38.965   2.621
25839W        W98907  20.600  36.524  12.491
25840W        W98908  40.048  43.389   3.733
25841W        W98909  44.767  21.061  12.591
25842W        W98910  26.184  24.987   2.300
25843W        W98911  33.814  17.064  10.776
25844W        W98912  43.495  41.765   0.411
25845W        W98913  41.956  14.741  13.983
25846W        W98914  31.073  23.620   5.053
25847W        W98915  20.139  26.615  11.224
25848W        W98916  36.621  12.342  11.928
25849W        W98917  42.484  36.628  11.073
25850W        W98918  35.345  44.773   1.874
25851W        W98919  36.345  10.727  14.751
25852W        W98920  33.572   3.358  14.269
25853W        W98921   6.941  29.598  11.596
25854W        W98922  42.942  36.420   0.002
25855W        W98923  26.240  36.084  11.583
25856W        W98924  20.744  27.030  14.083
25857W        W98925  36.194  34.895   2.917
25858W        W98926  17.994  43.503   2.330
25859W        W98927  21.220  41.733  13.626
25860W        W98928  34.980  17.653  11.657
25861W        W98929  11.643  29.447   2.884
25862W        W98930  22.612  41.110  12.486
25863W        W98931  41.209  28.967   4.151
25864W        W98932  15.780   3.524  11.019
25865W        W98933   3.967  27.723  14.398
25866W        W98934  29.193  17.247  10.687
25867W        W98935   7.136  30.254   2.582
25868W        W98936  33.252  44.531   0.252
25869W        W98937  22.433  13.884   1.772
25870W        W98938   3.212  27.598  11.329
25871W        W98939  13.505  19.171   4.292
25872W        W98940  22.414  19.175  14.880
25873W        W98941  32.904  18.718  13.529
25874W        W98942  18.486  15.508  13.032
25875W        W98943  44.325  38.084  11.953
25876W        W98944  26.486  20.836   4.082
25877W        W98945  21.657  19.696  11.630
25878W        W98946   0.313  12.339   1.169
25879W        W98947  29.118  42.452   0.285
25880W        W98948  21.713  22.441   0.722
25881W        W98949  25.550  37.914   9.860
25882W        W98950  26.691  37.044  11.628
25883W        W98951  23.963  11.895  10.357
25884W        W98952  18.507   9.757  12.555
25885W        W98953  37.819   3.204  10.723
25886W        W98954  43.571   3.087  10.271
25887W        W98955  18.980   1.185  14.219
25888W        W98956  37.868  29.197  12.500
25889W        W98957   4.902  22.771  10.956
25890W        W98958  38.524  43.533   3.124
25891W        W98959  31.722  44.006  11.070
25892W        W98960   0.413  11.706   2.879
25893W        W98961   5.899  33.374   4.576
25894W        W98962   3.734   0.663  13.447
25895W        W98963  40.374  18.860   0.887
25896W        W98964  39.326  29.603   4.177
25897W        W98965  33.405  25.006   0.811
25898W        W98966  22.223  14.813   2.602
25899W        W98967  11.567   0.869   0.216
25900W        W98968   9.958  32.099   2.693
25901W        W98969  33.078  36.312  11.608
25902W        W98970  36.555  18.349   4.061
25903W        W98971  12.131  29.685  10.782
25904W        W98972  12.998  12.053  11.528
25905W        W98973  23.703  42.811   4.434
25906W        W98974   4.183  24.496   2.853
25907W        W98975  25.999  19.040   3.731
25908W        W98976  27.022   7.898  13.903
25909W        W98977  25.667  22.000   3.421
25910W        W98978  17.991  21.121  12.447
25911W        W98979  23.226   3.427   2.213
25912W        W98980  38.362  41.058  13.778
25913W        W98981  42.052  10.622  14.340
25914W        W98982   4.433  15.718   2.396
25915W        W98983  14.723  30.805  14.845
25916W        W98984  19.566  44.427   0.417
25917W        W98985   7.929  30.324   1.283
25918W        W98986  18.634  16.562   3.152
25919W        W98987  28.121  31.036  12.415
25920W        W98988  29.218  25.145   0.891
25921W        W98989  40.158  26.984   2.704
25922W        W98990  30.537  22.789   1.826
25923W        W98991   6.437  27.039  13.653
25924W        W98992  10.167  19.328  13.783
25925W        W98993  30.628  24.659  14.322
25926W        W98994  37.964  10.234   0.675
25927W        W98995   5.304  30.013   3.456
25928W        W98996  10.335  18.813   1.855
25929W        W98997  32.011  18.792   3.666
25930W        W98998  31.814  34.183   1.385
25931W        W98999   3.901  40.309   2.328
25932W        W99000  17.277   7.708   1.722
25933W        W99001  30.137  12.221  14.442
25934W        W99002  16.859  10.895  14.769
25935W        W99003  44.505   7.962   3.367
25936W        W99004  36.596  43.518   1.484
25937W        W99005  18.586  16.358   4.170
25938W        W99006  25.145  28.364  13.429
25939W        W99007  28.261  38.040   3.611
25940W        W99008  39.290  16.880  13.040
25941W        W99009  25.112  43.751  13.161
25942W        W99010  36.623  36.381   0.367
25943W        W99011  15.052  38.058  11.550
25944W        W99012   6.816   5.725  12.653
25945W        W99013  25.386   9.892  12.069
25946W        W99014  20.636  43.782   5.150
25947W        W99015  21.095  33.090   3.280
25948W        W99016  27.007   9.648  10.750
25949W        W99017   6.929   1.396  12.010
25950W        W99018   5.544  34.464  13.517
25951W        W99019  28.380  38.849  14.910
25952W        W99020  11.142  26.693  14.776
25953W        W99021  35.893  16.282   1.610
25954W        W99022  29.109  17.512  14.263
25955W        W99023  12.332   1.978   3.828
25956W        W99024   4.433  14.285  14.308
25957W        W99025  22.054  15.741   2.387
25958W        W99026  19.301  26.599   2.587
25959W        W99027  39.778  21.971  10.674
25960W        W99028  31.948  18.088  12.068
25961W        W99029  15.020  23.546  14.855
25962W        W99030  10.606  24.521   4.303
25963W        W99031  28.687  17.174  14.797
25964W        W99032   6.497  37.450   1.432
25965W        W99033   3.705  38.545  12.452
25966W        W99034  25.013  42.217  12.419
25967W        W99035  34.279   8.560  11.704
25968W        W99036  40.480  35.193   4.605
25969W        W99037  18.507  10.830   1.247
25970W        W99038   7.196  12.281  11.897
25971W        W99039  14.542   1.290   2.239
25972W        W99040   8.276  17.650   3.400
25973W        W99041  39.052   6.324  10.730
25974W        W99042  28.794  17.781   2.839
25975W        W99043  27.457  19.598   2.803
25976W        W99044  13.717   7.284   0.782
25977W        W99045  40.303  37.581   4.190
25978W        W99046  23.043   1.464   0.444
25979W        W99047   4.014  24.118  11.233
25980W        W99048  13.532  35.516  12.051
25981W        W99049   9.853  37.855  13.350
25982W        W99050  40.840  26.458   1.386
25983W        W99051  42.439   1.339   0.393
25984W        W99052  27.946  11.414  11.186
25985W        W99053  43.248   5.888   0.171
25986W        W99054   2.655  14.575  11.574
25987W        W99055  31.492   4.902   1.899
25988W        W99056  20.704  42.579  10.783
25989W        W99057  31.513  17.592   2.906
25990W        W99058   3.473  12.243   0.362
25991W        W99059   3.524  24.541  11.966
25992W        W99060  21.127  34.317   2.415
25993W        W99061  23.131  40.683   0.435
25994W        W99062   1.656  18.042  12.944
25995W        W99063   9.162  43.468  12.165
25996W        W99064  44.451  17.189   1.449
25997W        W99065  23.144   7.716  11.318
25998W        W99066  33.049  18.535   4.690
25999W        W99067  36.938  10.516   0.838
26000W        W99068  27.146  36.121   4.039
26001W        W99069  18.995   3.009  10.771
26002W        W99070  41.886  35.307  14.471
26003W        W99071  21.614   2.762  13.995
26004W        W99072  36.794  36.380   2.751
26005W        W99073  44.406  26.153  14.029
26006W        W99074  14.551  25.101   4.505
26007W        W99075  12.576  26.083   2.407
26008W        W99076   4.461   9.663  12.476
26009W        W99077  26.406  42.078   2.878
26010W        W99078  40.112  16.268   4.462
26011W        W99079  18.837  31.167  13.929
26012W        W99080  10.620   0.881  10.415
26013W        W99081  44.203  26.555  14.754
26014W        W99082  25.508  37.784   1.244
26015W        W99083  32.761  28.156  14.816
26016W        W99084  34.855  29.665  12.007
26017W        W99085  41.311  22.996  12.928
26018W        W99086  29.305   6.775   4.831
26019W        W99087  36.103  36.098   2.248
26020W        W99088  39.708  44.799   3.603
26021W        W99089  21.974  14.805   1.751
26022W        W99090  33.360  24.428  14.360
26023W        W99091  17.687  44.321  13.962
26024W        W99092  25.991   3.492   2.301
26025W        W99093  33.815   4.969  13.629
26026W        W99094  29.020  35.163  13.303
26027W        W99095  38.809  18.066  11.147
26028W        W99096  16.965   3.163  12.139
26029W        W99097  24.219  26.621   0.566
26030W        W99098   7.881   0.732   3.966
26031W        W99099   2.010  18.182  14.873
26032W        W99100   8.374  32.950  11.235
26033W        W99101   6.921  23.145  11.661
26034W        W99102  31.085  14.036   1.485
26035W        W99103  17.828  10.689  11.004
26036W        W99104  17.038  24.575   2.734
26037W        W99105  15.843  42.912   4.226
26038W        W99106  10.598  28.538  12.590
26039W        W99107  17.756  23.611   3.150
26040W        W99108  21.834  34.606  11.501
26041W        W99109  32.484  22.750  11.123
26042W        W99110  25.000  35.173   1.512
26043W        W99111  29.412  13.718  12.445
26044W        W99112  41.408   2.411   1.822
26045W        W99113  11.755  10.849  14.857
26046W        W99114  35.992  38.705   4.651
26047W        W99115  26.391  14.336   4.353
26048W        W99116  14.363  36.404  14.231
26049W        W99117  10.620  10.921   2.722
26050W        W99118  42.553  26.999  10.638
26051W        W99119  18.752   3.402   2.761
26052W        W99120  27.917  38.941  10.690
26053W        W99121   2.843  16.731   2.264
26054W        W99122  27.470  17.082   3.249
26055W        W99123  20.543  43.389   5.486
26056W        W99124  36.380  24.687   1.366
26057W        W99125  44.832  34.196  11.085
26058W        W99126   0.424  17.105   0.449
26059W        W99127  26.626   4.868  13.302
26060W        W99128   1.901   4.744   4.967
26061W        W99129  35.149  23.896   1.544
26062W        W99130  19.323  16.041  12.108
26063W        W99131  38.010  44.455   4.760
26064W        W99132  35.547  13.188  11.649
26065W        W99133   7.211  33.395  10.762
26066W        W99134  44.116  14.681  11.859
26067W        W99135  33.607  26.720  12.167
26068W        W99136  13.713  10.431  11.740
26069W        W99137  19.244  36.852  14.433
26070W        W99138  40.811   3.678   4.689
26071W        W99139  32.913  11.926  14.743
26072W        W99140   2.745  35.640  11.326
26073W        W99141  22.969  27.218   0.519
26074W        W99142  20.273  39.273  13.026
26075W        W99143  28.474   5.163   2.212
26076W        W99144   2.276  40.522   4.362
26077W        W99145  43.548  18.724  12.454
26078W        W99146   0.043  24.120  11.623
26079W        W99147  12.720  11.105  12.730
26080W        W99148   6.503  20.405   2.798
26081W        W99149   6.562  41.231  10.678
26082W        W99150   0.395  18.146   0.295
26083W        W99151  35.351  14.958   2.951
26084W        W99152  17.630  30.443  11.081
26085W        W99153   0.850   4.456   0.888
26086W        W99154  41.434  14.234  10.617
26087W        W99155  37.778   3.688  12.173
26088W        W99156   3.947  42.731  14.727
26089W        W99157  44.299  12.581  10.691
26090W        W99158  42.309   1.469  14.623
26091W        W99159  29.290  30.427  14.866
26092W        W99160   9.419  34.432   3.625
26093W        W99161  39.964  20.772   3.819
26094W        W99162  31.896  15.447  13.878
26095W        W99163  27.719  16.055  11.558
26096W        W99164   7.693  25.546  14.952
26097W        W99165   1.014  10.810   2.944
26098W        W99166   8.289  12.177  14.694
26099W        W99167  12.167  22.656   0.093
26100W        W99168  26.473  37.576  13.965
26101W        W99169  39.936  35.676  13.803
26102W        W99170  39.500  43.758   0.925
26103W        W99171  33.647  27.897   0.049
26104W        W99172  38.536   7.294  11.199
26105W        W99173  20.036  19.062   3.982
26106W        W99174   7.452  29.531   4.671
26107W        W99175   4.243  34.938   4.515
26108W        W99176  42.316  43.811   4.983
26109W        W99177  15.291  12.296  14.847
26110W        W99178  28.278   5.266  11.654
26111W        W99179  23.296  21.488   0.082
26112W        W99180  37.577  10.430   3.265
26113W        W99181  35.953  18.833   3.221
26114W        W99182  25.164  44.471   4.601
26115W        W99183  38.893   9.862  10.602
26116W        W99184  10.395  29.155  13.764
26117W        W99185  26.678   7.147  12.074
26118W        W99186  23.738  21.997   0.871
26119W        W99187  13.242  43.337   4.512
26120W        W99188  28.042   0.727  13.222
26121W        W99189  40.703   7.161   3.693
26122W        W99190  10.102  16.578  11.145
26123W        W99191  18.496  31.413   3.346
26124W        W99192   4.463   0.239  13.760
26125W        W99193  44.930  31.132   1.836
26126W        W99194  10.806  32.850  11.223
26127W        W99195   3.889  10.046  14.614
26128W        W99196  20.639  18.232  13.297
26129W        W99197  42.760  28.155  11.204
26130W        W99198  15.133  19.570   0.322
26131W        W99199   7.647  27.219  11.334
26132W        W99200  37.324  11.369   3.180
26133W        W99201  30.253   7.278   3.623
26134W        W99202  32.218  16.136  13.211
26135W        W99203  16.810   7.722  10.505
26136W        W99204  40.098   6.923  13.757
26137W        W99205  28.241   5.067  12.962
26138W        W99206  10.281  26.082   2.862
26139W        W99207   1.974  37.456   3.179
26140W        W99208  27.631  12.668  13.259
26141W        W99209  21.117   1.421  11.562
26142W        W99210  40.059  19.289   0.896
26143W        W99211  42.939  20.009  12.556
26144W        W99212  13.262  34.953  14.602
26145W        W99213  26.986  21.385   4.099
26146W        W99214  40.336   9.841   3.965
26147W        W99215   2.189   8.666  14.462
26148W        W99216  42.347  15.935  14.928
26149W        W99217  25.606   5.970   1.777
26150W        W99218  37.982   7.257  10.503
26151W        W99219  38.812   0.598  11.268
26152W        W99220   0.664   3.325  11.710
26153W        W99221  29.100  16.186   1.696
26154W        W99222  12.544  35.384  13.102
26155W        W99223   2.999  15.570  13.691
26156W        W99224  41.874   8.761   1.282
26157W        W99225  10.315  23.526   1.504
26158W        W99226  24.419  16.205   2.241
26159W        W99227  21.657  18.348   1.290
26160W        W99228  31.497  44.331   3.300
26161W        W99229   7.973  12.854   4.251
26162W        W99230  13.073  34.669   3.152
26163W        W99231  36.153  21.639   0.059
26164W        W99232  31.968   7.659  14.490
26165W        W99233  41.849  24.723  10.798
26166W        W99234  29.420  13.299  11.569
26167W        W99235  22.935   3.992  12.656
26168W        W99236  37.467  12.376   3.359
26169W        W99237  12.153  26.228  11.522
26170W        W99238  21.747  18.659  10.735
26171W        W99239  27.524  14.140   1.108
26172W        W99240  27.418  23.510  14.804
26173W        W99241  25.740  10.373   1.121
26174W        W99242  11.242  37.771  14.032
26175W        W99243  18.528  23.322  10.826
26176W        W99244  27.287  35.932   1.808
26177W        W99245  13.846  21.237  12.401
26178W        W99246  18.331  22.918  11.082
26179W        W99247   9.310  31.134  10.587
26180W        W99248   4.836   3.088   1.884
26181W        W99249   0.529  22.285   1.694
26182W        W99250  12.033  13.065   9.913
26183W        W99251  44.585  16.362   2.772
26184W        W99252  30.384  30.192  12.228
26185W        W99253  19.985   2.157   1.436
26186W        W99254  41.414  34.872   4.113
26187W        W99255  43.749  42.414   1.266
26188W        W99256  31.636  30.939   2.378
26189W        W99257   2.055  12.317   2.807
26190W        W99258  23.730  44.564   3.781
26191W        W99259   4.040  26.002  14.793
26192W        W99260  32.962  44.686  14.786
26193W        W99261  10.409   4.103  13.165
26194W        W99262  44.420   3.983  14.392
26195W        W99263  44.843  30.585  12.546
26196W        W99264  10.230   8.088   3.550
26197W        W99265   7.444  15.372  13.274
26198W        W99266  24.014  12.131   2.404
26199W        W99267  12.622  39.931   3.250
26200W        W99268   2.462  27.003  13.774
26201W        W99269   0.002   7.225  13.825
26202W        W99270   5.800  30.506   4.943
26203W        W99271   1.471  12.621   1.257
26204W        W99272   2.027  31.950  14.825
26205W        W99273   9.885  43.871   1.594
26206W        W99274   6.880  22.124   0.865
26207W        W99275  29.545  35.360   0.847
26208W        W99276   1.278  39.495   3.881
26209W        W99277  42.762  38.018   5.089
26210W        W99278  35.365  27.274   0.847
26211W        W99279   7.123  39.443  12.499
26212W        W99280  35.743  33.092  13.039
26213W        W99281  32.407  25.983  11.887
26214W        W99282   7.240  43.427  13.379
26215W        W99283  16.408   2.354   4.188
26216W        W99284  37.384  25.220   4.819
26217W        W99285  23.463  36.092  14.411
26218W        W99286  11.205  33.615   1.065
26219W        W99287  31.821  42.819   0.281
26220W        W99288  13.670  42.477   3.284
26221W        W99289  44.769  17.339   1.939
26222W        W99290  33.152  13.630   3.266
26223W        W99291  25.006  19.684  14.408
26224W        W99292  25.901  15.729   3.254
26225W        W99293  42.252   7.748   3.058
26226W        W99294  31.349  26.263  13.070
26227W        W99295  20.944  16.583   0.743
26228W        W99296  19.752   7.451  14.500
26229W        W99297  14.272  10.966   1.796
26230W        W99298   3.649  19.154  12.332
26231W        W99299  34.648  42.056   4.382
26232W        W99300  17.569  27.166   4.486
26233W        W99301  40.656  36.571  12.183
26234W        W99302  24.396   7.731   3.605
26235W        W99303  25.403  25.189   2.690
26236W        W99304  27.521   8.271   4.662
26237W        W99305  20.080   5.649  13.415
26238W        W99306  29.976  40.904   0.434
26239W        W99307   7.952  12.685   0.165
26240W        W99308   9.641  16.689   3.740
26241W        W99309  12.605  38.379  10.740
26242W        W99310  36.832  32.916  10.277
26243W        W99311  42.793  13.317  12.058
26244W        W99312  11.679  10.335   0.034
26245W        W99313  11.211   8.226   0.965
26246W        W99314   8.280  15.830  13.035
26247W        W99315  40.931  10.771   4.951
26248W        W99316  28.605  35.438  12.963
26249W        W99317  16.121  30.012   0.289
26250W        W99318   2.815  13.670  11.616
26251W        W99319   3.974  13.661   0.387
26252W        W99320  43.265   1.009   4.708
26253W        W99321  15.421  12.243   2.711
26254W        W99322   6.965  44.322  10.631
26255W        W99323  15.139  44.789   1.812
26256W        W99324  44.369   0.554   3.961
26257W        W99325  43.380   8.814   4.859
26258W        W99326  40.472  20.251   3.629
26259W        W99327  15.196  24.845  13.757
26260W        W99328   9.690   2.306   3.466
26261W        W99329   3.011  23.540   4.454
26262W        W99330  29.573   2.681   0.840
26263W        W99331  17.056  31.854  11.628
26264W        W99332  10.187  37.854  10.705
26265W        W99333  34.432  20.545   2.807
26266W        W99334  35.956   4.699   0.652
26267W        W99335  43.548  23.230   3.240
26268W        W99336  32.697  11.351  13.202
26269W        W99337   0.346   1.427   2.963
26270W        W99338  11.180  18.624  14.220
26271W        W99339   2.318  44.591   4.899
26272W        W99340  34.974  27.203   4.195
26273W        W99341  40.303  23.692   2.815
26274W        W99342  16.080  36.483  12.824
26275W        W99343  19.837   2.270   4.710
26276W        W99344  28.103   9.071  14.718
26277W        W99345  32.841  12.106  12.003
26278W        W99346   3.217  40.139   2.708
26279W        W99347   8.736  34.172  12.871
26280W        W99348  32.004  18.567  13.299
26281W        W99349  42.820  41.352  14.632
26282W        W99350  26.965  34.619   2.213
26283W        W99351   3.332   1.924  11.368
26284W        W99352  19.247  18.348   0.136
26285W        W99353  34.014  32.331  14.540
26286W        W99354  24.024  38.910   3.175
26287W        W99355  39.829  27.107  13.954
26288W        W99356   7.098  33.867   4.289
26289W        W99357  16.897  25.456   3.340
26290W        W99358  44.342  36.407  11.253
26291W        W99359  15.693   8.420   4.220
26292W        W99360  35.995   9.819   0.347
26293W        W99361  30.324  34.026  12.903
26294W        W99362   5.414  32.083   2.191
26295W        W99363  34.800  38.972   0.884
26296W        W99364   8.816  37.162  14.417
26297W        W99365   5.763  40.813   3.049
26298W        W99366  27.836  12.798  14.483
26299W        W99367  32.265  30.358   0.265
26300W        W99368   4.529  26.848   4.995
26301W        W99369   4.848  18.762   1.772
26302W        W99370  24.998   0.437  10.690
26303W        W99371  43.425  35.983   1.822
26304W        W99372  13.142  16.640  14.491
26305W        W99373  44.007   7.665   4.360
26306W        W99374  34.827   8.936  11.604
26307W        W99375  39.017   6.479  14.806
26308W        W99376  40.343  25.059   3.176
26309W        W99377  30.125   0.676  14.867
26310W        W99378  39.116  24.589   3.138
26311W        W99379  10.334  17.098  13.443
26312W        W99380  44.280  43.473  14.334
26313W        W99381   2.031   5.913   0.915
26314W        W99382  15.497  44.613   3.169
26315W        W99383  24.950  21.593   2.669
26316W        W99384  22.075  27.185  13.237
26317W        W99385   1.856  42.199   4.852
26318W        W99386  28.974  43.334   2.159
26319W        W99387  18.555   6.932   0.909
26320W        W99388   9.885  39.923   5.099
26321W        W99389   0.929  12.093  12.032
26322W        W99390   2.677   4.851   0.689
26323W        W99391   2.938  23.885  11.686
26324W        W99392  42.917  33.888  13.303
26325W        W99393   4.794  15.723   4.566
26326W        W99394  10.347  31.693   3.677
26327W        W99395  30.798  23.447  14.273
26328W        W99396  38.353  35.673  12.943
26329W        W99397  26.971  15.987  13.587
26330W        W99398  26.689   3.990   3.675
26331W        W99399   9.090  24.132   4.653
26332W        W99400  14.416   1.650   1.471
26333W        W99401  11.747  44.028  14.706
26334W        W99402  28.033   0.884  11.754
26335W        W99403  13.532  43.380   3.277
26336W        W99404  37.711  13.529   2.830
26337W        W99405   5.883  31.654   3.459
26338W        W99406  43.739  10.342   1.262
26339W        W99407   1.455   0.299   2.131
26340W        W99408  44.885  36.656   3.329
26341W        W99409  24.958   8.718   0.154
26342W        W99410  13.186   7.084   1.864
26343W        W99411   4.009  41.875  14.117
26344W        W99412  42.245  12.296  13.532
26345W        W99413  15.751  19.577   3.832
26346W        W99414  40.798  17.280  12.055
26347W        W99415  35.795   3.693   2.740
26348W        W99416  26.948   9.566  11.936
26349W        W99417  22.955   5.449   2.238
26350W        W99418  18.214   2.813   2.376
26351W        W99419   3.001  40.724  13.444
26352W        W99420  14.670  21.703  13.244
26353W        W99421  32.750  12.223   4.736
26354W        W99422  23.982  33.181  12.157
26355W        W99423  31.455  14.627  10.638
26356W        W99424  42.608  19.978  11.849
26357W        W99425  40.502  16.993   4.136
26358W        W99426  25.301  16.183   0.009
26359W        W99427   9.768  30.824   4.467
26360W        W99428   5.262   4.836  11.879
26361W        W99429   9.085  35.378   4.430
26362W        W99430  12.973   7.853  12.983
26363W        W99431   5.663   9.159  14.062
26364W        W99432  16.040  20.150   3.653
26365W        W99433  12.797   9.277   2.369
26366W        W99434  29.181   6.942   3.402
26367W        W99435  37.659  28.988   4.055
26368W        W99436  28.635  43.340  14.911
26369W        W99437  39.601  41.140  14.444
26370W        W99438  16.737  39.699   4.643
26371W        W99439  17.059  22.529   4.142
26372W        W99440  35.378  40.483   3.439
26373W        W99441  17.759  27.482  14.028
26374W        W99442  18.007  24.717   3.743
26375W        W99443   4.461  27.001   2.746
26376W        W99444   8.727   8.823   3.872
26377W        W99445  26.053  14.564   4.041
26378W        W99446  27.265  38.918   2.191
26379W        W99447   4.829  43.574  14.103
26380W        W99448  21.646  36.328  14.546
26381W        W99449  17.247   9.401  11.267
26382W        W99450  14.489   6.871  13.821
26383W        W99451   0.827  19.551   4.701
26384W        W99452   4.904  32.440   4.115
26385W        W99453  13.142  11.096   1.356
26386W        W99454   9.132  22.565   1.166
26387W        W99455  38.284  27.986   3.448
26388W        W99456  17.211  21.183  14.356
26389W        W99457  24.724  29.157   3.968
26390W        W99458  31.362  17.658   3.914
26391W        W99459  27.263  15.052  13.893
26392W        W99460   1.344  28.461  12.152
26393W        W99461   6.931  32.855   0.768
26394W        W99462  40.026  10.213  13.425
26395W        W99463  28.643  11.813  13.746
26396W        W99464  19.939  19.810  14.086
26397W        W99465  17.723  13.279   1.822
26398W        W99466  21.291   8.022  12.159
26399W        W99467  29.054  41.440   2.719
26400W        W99468  39.103  26.926   3.679
26401W        W99469  42.055  23.306  11.984
26402W        W99470   3.771   0.943   4.296
26403W        W99471  22.999   6.209  12.020
26404W        W99472   7.188  19.037   3.666
26405W        W99473  37.572  30.804   4.783
26406W        W99474  40.510  10.826   4.250
26407W        W99475  12.287  32.705   2.722
26408W        W99476  33.906  35.821   4.128
26409W        W99477  26.552  41.678   0.287
26410W        W99478   3.623  37.181  12.402
26411W        W99479   9.586  17.925   2.357
26412W        W99480  41.198   0.313   4.603
26413W        W99481  38.831  40.963   2.879
26414W        W99482  43.825  37.833   2.012
26415W        W99483  44.119  31.110   1.846
26416W        W99484  19.898  26.058  14.261
26417W        W99485  34.445  41.100   3.996
26418W        W99486   3.757   9.439   4.074
26419W        W99487   9.783  20.203   1.582
26420W        W99488   3.136   0.733   3.105
26421W        W99489  14.728  42.005   0.047
26422W        W99490   2.438   4.706  10.329
26423W        W99491  13.637   1.444  14.441
26424W        W99492  24.581  23.151   2.216
26425W        W99493  23.133   8.843  14.369
26426W        W99494   2.339  31.274   4.589
26427W        W99495   7.856   8.500  10.918
26428W        W99496  34.167  14.764  11.587
26429W        W99497  39.828  39.047  10.618
26430W        W99498   2.287  18.524   0.210
26431W        W99499  11.639  24.940   0.729
26432W        W99500  26.544  10.150   4.118
26433W        W99501  18.208  36.917   3.624
26434W        W99502  30.556   0.823   2.702
26435W        W99503   4.832  16.966  13.408
26436W        W99504  25.175   8.896  13.698
26437W        W99505  19.034  19.213   2.641
26438W        W99506  13.344   2.716   0.154
26439W        W99507  40.540   7.767   1.851
26440W        W99508  36.847  22.414  13.048
26441W        W99509  35.583  40.054   2.881
26442W        W99510  42.836  35.908   0.163
26443W        W99511  20.334  27.518  12.000
26444W        W99512  26.439   8.364  12.463
26445W        W99513  39.793  42.355  12.526
26446W        W99514   3.784  34.070  12.012
26447W        W99515  26.182  16.751   2.154
26448W        W99516  16.720  24.083   0.443
26449W        W99517  20.028  42.119   2.729
26450W        W99518  32.472   4.349   2.702
26451W        W99519   9.138  40.957   0.941
26452W        W99520  11.185  22.961  12.985
26453W        W99521  22.556  25.050   4.530
26454W        W99522  19.173  44.482  10.137
26455W        W99523   7.878  42.487   1.444
26456W        W99524   6.781  43.326   1.716
26457W        W99525  23.554  40.088   1.021
26458W        W99526  28.219  28.503   4.354
26459W        W99527  43.003  38.821  12.479
26460W        W99528  15.256  20.992   2.684
26461W        W99529  17.297  11.835   4.101
26462W        W99530  44.777  23.755  11.866
26463W        W99531  25.129   9.798   1.272
26464W        W99532  12.426  17.049   4.543
26465W        W99533  26.026  41.466   0.704
26466W        W99534  39.011  37.092   0.060
26467W        W99535  12.094  26.437   3.692
26468W        W99536  15.030   9.727   1.393
26469W        W99537  19.084   5.802   1.200
26470W        W99538  16.762  20.140   3.178
26471W        W99539   6.404  40.331   1.402
26472W        W99540  18.957   4.447   0.074
26473W        W99541   5.314  23.493  13.255
26474W        W99542  25.472   6.732  14.281
26475W        W99543   9.893  19.350  12.113
26476W        W99544  40.389  25.654   0.346
26477W        W99545  13.104  13.126   4.625
26478W        W99546  15.461  18.242   0.970
26479W        W99547   9.400  10.658   3.711
26480W        W99548  25.631  32.874   1.318
26481W        W99549  38.063   2.451   3.724
26482W        W99550  16.240  37.556  12.072
26483W        W99551  22.970  34.672   3.864
26484W        W99552  37.550  17.168  13.566
26485W        W99553  12.619  29.936   1.327
26486W        W99554  34.541  30.876   1.978
26487W        W99555  10.863  41.099  11.485
26488W        W99556  39.956   1.002  13.453
26489W        W99557  41.412  33.335  14.462
26490W        W99558  19.346  28.063  14.076
26491W        W99559   4.962  19.584   0.217
26492W        W99560   8.892  36.080  14.733
26493W        W99561   4.259  28.443   3.739
26494W        W99562  22.492  16.877   5.445
26495W        W99563  10.793   6.139   1.796
26496W        W99564  37.463  12.871   2.840
26497W        W99565   3.149  31.736   4.968
26498W        W99566  24.488  38.604   2.775
26499W        W99567   6.413   0.072  13.766
26500W        W99568  35.938  35.590   2.187
26501W        W99569  37.707  11.345   2.837
26502W        W99570   7.859  37.121   0.086
26503W        W99571  19.544  37.492   2.959
26504W        W99572   3.195  35.344  13.212
26505W        W99573  11.404  17.499  10.325
26506W        W99574  12.764  29.877   0.368
26507W        W99575  29.037   9.480  13.521
26508W        W99576  41.405  20.304   0.361
26509W        W99577  34.620  38.452  11.525
26510W        W99578  17.809  16.669   4.564
26511W        W99579  21.191  43.072   4.254
26512W        W99580   8.591  25.061   4.505
26513W        W99581   6.068  13.618  13.476
26514W        W99582  28.005  10.261  11.335
26515W        W99583  41.489  35.806  13.515
26516W        W99584   6.684  29.110  12.435
26517W        W99585  42.835  39.445  10.758
26518W        W99586  43.748  37.397   4.310
26519W        W99587  36.769  42.493   1.637
26520W        W99588   3.470   5.519   0.910
26521W        W99589   5.049  11.155  10.082
26522W        W99590  13.897  12.125  13.685
26523W        W99591  35.970  25.583   1.400
26524W        W99592  43.396   7.213   2.757
26525W        W99593  32.111  37.036   4.279
26526W        W99594  13.723  17.996   0.070
26527W        W99595  25.723  44.754  14.400
26528W        W99596  13.898   5.333   4.773
26529W        W99597  10.081  36.874   4.945
26530W        W99598  35.607  35.528  10.645
26531W        W99599  43.725  12.225  12.620
26532W        W99600   3.872  39.278   4.700
26533W        W99601  18.743  40.168   0.493
26534W        W99602   5.048  22.129  12.082
26535W        W99603  13.134   7.440   4.243
26536W        W99604  14.832   1.361   0.760
26537W        W99605  23.481  13.319   2.276
26538W        W99606  24.570  23.477   3.637
26539W        W99607  29.473  27.857  14.362
26540W        W99608  20.809  39.328   2.228
26541W        W99609  17.070  19.647  11.467
26542W        W99610  40.408  37.872  12.907
26543W        W99611   4.696   6.776   1.962
26544W        W99612  37.027  28.838  12.229
26545W        W99613  37.620  32.221   2.766
26546W        W99614  22.896  26.777  12.960
26547W        W99615  39.603  42.519  12.072
26548W        W99616   7.341  38.583  14.803
26549W        W99617  23.349  10.754  12.159
26550W        W99618   8.141  32.595  13.460
26551W        W99619  24.490  16.551   4.594
26552W        W99620  13.815  38.480  10.988
26553W        W99621  27.211  24.546   0.287
26554W        W99622  14.252  32.602   3.850
26555W        W99623  44.770  34.281   1.233
26556W        W99624   0.360  29.220  13.059
26557W        W99625  17.319   6.070  14.856
26558W        W99626  35.035  32.421  10.198
26559W        W99627  13.852  14.707   4.262
26560W        W99628  22.938  13.204   3.245
26561W        W99629   1.745  27.283   0.910
26562W        W99630  43.085  24.906   2.749
26563W        W99631  14.943  11.616  14.871
26564W        W99632   5.391   8.697   2.613
26565W        W99633  32.404  11.367  12.767
26566W        W99634   6.848  44.899   4.562
26567W        W99635  22.621   2.948   3.055
26568W        W99636  27.574  43.489   4.301
26569W        W99637  31.358  36.518  11.893
26570W        W99638  31.989  43.059   1.386
26571W        W99639  27.711  28.342   0.637
26572W        W99640  44.296  32.500  11.039
26573W        W99641  43.541  40.403   3.894
26574W        W99642  25.157  13.614  13.299
26575W        W99643   3.218  43.865   3.424
26576W        W99644  12.716  33.958   2.928
26577W        W99645  11.359  32.111  14.276
26578W        W99646  38.820   8.773   1.319
26579W        W99647  44.016   3.723  12.421
26580W        W99648  34.141  23.743   1.622
26581W        W99649  29.597  25.184  14.984
26582W        W99650   9.451  33.742  12.494
26583W        W99651  13.057  29.062  12.597
26584W        W99652  11.851  39.578  10.799
26585W        W99653  16.863   8.035   1.376
26586W        W99654  17.378   2.268   0.202
26587W        W99655  39.489   2.908  11.112
26588W        W99656  18.235   7.681   4.600
26589W        W99657  10.158  13.614   2.808
26590W        W99658  18.850  16.787  13.607
26591W        W99659   5.631   4.415  12.120
26592W        W99660  29.203  25.224  11.484
26593W        W99661  13.781  39.558  14.339
26594W        W99662   7.108  42.069   2.711
26595W        W99663  19.402  37.870   1.302
26596W        W99664  19.787  19.392   4.753
26597W        W99665  17.167  30.652  11.112
26598W        W99666  24.495   9.884   4.621
26599W        W99667  28.200  25.784  10.968
26600W        W99668  14.714  12.432  13.501
26601W        W99669   0.770   8.372   0.011
26602W        W99670  11.655  29.792   1.151
26603W        W99671  18.263  44.073   4.668
26604W        W99672  42.222   2.127   1.451
26605W        W99673  14.378  12.757   2.807
26606W        W99674   7.458  43.557  12.440
26607W        W99675  18.278   9.299   0.351
26608W        W99676  28.787  31.030   2.275
26609W        W99677  34.577  33.545   5.352
26610W        W99678  17.756  22.724  12.379
26611W        W99679  29.619  19.614   1.564
26612W        W99680  14.661  27.518  11.981
26613W        W99681  27.242   7.822   0.016
26614W        W99682  22.032  31.504  13.986
26615W        W99683  20.055  26.763   2.332
26616W        W99684   1.046   4.353  13.453
26617W        W99685   5.097  44.206   1.822
26618W        W99686   4.345  22.649   3.058
26619W        W99687  13.317  25.803   2.644
26620W        W99688  19.786   0.763  12.918
26621W        W99689  44.024  20.269   0.392
26622W        W99690  43.317  20.716   4.163
26623W        W99691   1.769  21.035  10.740
26624W        W99692  27.419  14.340   2.843
26625W        W99693  35.408  36.891   1.303
26626W        W99694  27.551  33.587  14.731
26627W        W99695   2.833   6.729  13.864
26628W        W99696  15.195  17.864  11.663
26629W        W99697   7.739  25.646   2.262
26630W        W99698  44.981   1.968  11.140
26631W        W99699  28.136  29.393   3.187
26632W        W99700  14.157  31.188  13.346
26633W        W99701  41.446  27.625  10.558
26634W        W99702  18.158  38.419   0.170
26635W        W99703  42.274  28.868  14.321
26636W        W99704  18.490   6.769   2.762
26637W        W99705  29.168  10.281  14.834
26638W        W99706  20.571  29.295  11.953
26639W        W99707  41.687  43.509   1.289
26640W        W99708  38.543  32.081   4.177
26641W        W99709  35.614  33.798  12.913
26642W        W99710  38.067  10.356  11.079
26643W        W99711  38.892  17.288  11.493
26644W        W99712   4.663  32.262  10.933
26645W        W99713  32.074  22.303   2.619
26646W        W99714  15.785  17.604   4.557
26647W        W99715  24.553  23.061   4.642
26648W        W99716  28.362  34.787   3.136
26649W        W99717  40.481  13.772  12.839
26650W        W99718  40.052   1.777   9.850
26651W        W99719  14.298  14.635   1.169
26652W        W99720  22.406   7.865   3.572
26653W        W99721  36.513   4.914   1.793
26654W        W99722  35.006  31.653   1.679
26655W        W99723  10.401  20.360   3.247
26656W        W99724  41.759  23.236  13.379
26657W        W99725  17.994  29.897  11.633
26658W        W99726   2.288  34.862  11.265
26659W        W99727  18.654  39.475  14.809
26660W        W99728  22.871  38.792   1.821
26661W        W99729  26.218  19.485   0.791
26662W        W99730  41.267  14.587   2.588
26663W        W99731  24.264  19.254   1.896
26664W        W99732  18.081  25.566   2.158
26665W        W99733  14.245  11.763   2.996
26666W        W99734  24.087  16.093   1.863
26667W        W99735  13.859   7.872  10.658
26668W        W99736  37.144   3.486   4.186
26669W        W99737  44.424  23.637   1.812
26670W        W99738  33.949   2.581   4.366
26671W        W99739  35.851  23.500  12.342
26672W        W99740  18.968  15.621   3.752
26673W        W99741  27.115  11.834   4.801
26674W        W99742  35.176  25.081  12.467
26675W        W99743   4.783  23.130   0.210
26676W        W99744  10.878   9.108   2.250
26677W        W99745  12.100   3.948   1.291
26678W        W99746  24.963  20.588   3.336
26679W        W99747  13.520  31.838  10.668
26680W        W99748  10.094  22.662   0.355
26681W        W99749  27.480   7.282  11.609
26682W        W99750  17.623  26.471  13.754
26683W        W99751  10.318  43.835  14.461
26684W        W99752  28.030  27.181   3.116
26685W        W99753  43.874  23.667   4.150
26686W        W99754  29.598  10.827  13.138
26687W        W99755  13.703  13.535  14.917
26688W        W99756  25.285  18.824  12.379
26689W        W99757  33.792   7.774   1.663
26690W        W99758  25.479  23.490   4.138
26691W        W99759   7.905  12.465   1.023
26692W        W99760  19.243  24.658  11.140
26693W        W99761  12.694  25.708   1.400
26694W        W99762  26.507  22.540  11.621
26695W        W99763  35.677  36.470  10.768
26696W        W99764  16.739   2.303   1.928
26697W        W99765   6.503  27.373   4.489
26698W        W99766  20.738  13.230   1.505
26699W        W99767  31.958  37.049   0.667
26700W        W99768  30.992  22.517  12.157
26701W        W99769   1.861  31.013  13.773
26702W        W99770  14.249  33.533   0.248
26703W        W99771  24.045  29.190  13.274
26704W        W99772  44.610  44.268   3.769
26705W        W99773   8.320  18.633   0.790
26706W        W99774  43.745  21.516   3.660
26707W        W99775  20.753  24.585   0.309
26708W        W99776   9.142  34.164  12.533
26709W        W99777  20.933  31.155   0.469
26710W        W99778  14.247  26.481   4.114
26711W        W99779  43.480  25.876  11.558
26712W        W99780  32.895  13.786   2.313
26713W        W99781   6.412  11.269   2.749
26714W        W99782  31.954   9.782   3.307
26715W        W99783   4.788  42.434  14.022
26716W        W99784  28.626  43.038  10.864
26717W        W99785  40.267  39.794  10.308
26718W        W99786  31.540  15.340   2.665
26719W        W99787   4.945  13.528   0.274
26720W        W99788   6.260  12.705   2.340
26721W        W99789  43.198  34.680  12.979
26722W        W99790  20.069   8.579  13.823
26723W        W99791  34.548  31.816  14.085
26724W        W99792  18.263   5.925  14.976
26725W        W99793   9.858  17.559  11.170
26726W        W99794   7.239  41.455  13.995
26727W        W99795  39.711  13.813   3.762
26728W        W99796   1.326   7.280   4.863
26729W        W99797  17.664  14.818  11.958
26730W        W99798  36.519   0.860   3.304
26731W        W99799  12.274  32.754   0.589
26732W        W99800  25.163  29.418   0.443
26733W        W99801  19.800  42.334  12.849
26734W        W99802  34.486  23.841   4.088
26735W        W99803  13.005   4.235  14.057
26736W        W99804  27.709  11.258  12.363
26737W        W99805  43.211   6.170   5.124
26738W        W99806   0.391  20.775   3.712
26739W        W99807  20.795  21.023  10.178
26740W        W99808  23.226  30.464  11.473
26741W        W99809  35.832  37.609   0.400
26742W        W99810  29.174  24.194  12.930
26743W        W99811  42.784  38.392  13.349
26744W        W99812  26.551  33.855   1.981
26745W        W99813  26.087   8.798  10.845
26746W        W99814  19.770  22.553   2.748
26747W        W99815  21.290  26.225   2.702
26748W        W99816  23.957  25.717  11.092
26749W        W99817  24.116   9.301  13.534
26750W        W99818  18.943  30.873   2.765
26751W        W99819   0.744  25.613   1.868
26752W        W99820   9.128  40.507  11.203
26753W        W99821   8.860  34.596   2.100
26754W        W99822  10.817   5.361   3.253
26755W        W99823  23.223   9.586   3.557
26756W        W99824  18.515  32.328   4.550
26757W        W99825   2.578  30.879   3.795
26758W        W99826   5.283  31.244  10.695
26759W        W99827  32.516  10.606  10.581
26760W        W99828  20.264   4.238  14.391
26761W        W99829   4.657  13.158   0.011
26762W        W99830  44.174  31.604  11.046
26763W        W99831   1.883  30.425  13.075
26764W        W99832   2.679  31.877  13.284
26765W        W99833   8.683  24.028  13.816
26766W        W99834  43.858  28.528   3.081
26767W        W99835  19.730  13.250   3.499
26768W        W99836  33.312   1.847   1.896
26769W        W99837  20.207  20.253   0.853
26770W        W99838  17.675  15.094   0.656
26771W        W99839  12.337  34.897  14.558
26772W        W99840  36.459  29.631   0.500
26773W        W99841  44.411  16.855   0.240
26774W        W99842   6.014  28.303   2.339
26775W        W99843  26.019   3.521  13.325
26776W        W99844  16.601  16.682   1.234
26777W        W99845  18.556  25.191   3.281
26778W        W99846   9.904   2.579   3.094
26779W        W99847  12.458  42.084   0.406
26780W        W99848  33.622  16.269   3.275
26781W        W99849  15.648   2.187   3.764
26782W        W99850   2.982  33.979   1.770
26783W        W99851   5.305  35.852  12.514
26784W        W99852  16.054  29.988  11.561
26785W        W99853   2.780  22.121  14.437
26786W        W99854  11.188  14.902  13.367
26787W        W99855  17.761  18.631  13.928
26788W        W99856  20.693   5.869   0.418
26789W        W99857   9.406  27.509  14.288
26790W        W99858  32.836  36.858   3.718
26791W        W99859  15.247  40.907   2.369
26792W        W99860  29.575   3.419  12.132
26793W        W99861   0.359  19.830  10.773
26794W        W99862  41.309  31.359  11.172
26795W        W99863  41.900  10.267  13.051
26796W        W99864  14.081  15.761  10.662
26797W        W99865  18.258  17.309  13.799
26798W        W99866  34.544   5.783  11.388
26799W        W99867  29.856   4.301  10.731
26800W        W99868  39.828  31.521  13.034
26801W        W99869  36.747   9.464  11.687
26802W        W99870   6.335  35.315   2.746
26803W        W99871   9.898  26.664   2.350
26804W        W99872  34.013  42.880   1.917
26805W        W99873  43.975  13.733  12.081
26806W        W99874  27.637   5.732  13.089
26807W        W99875  37.462  34.679   3.356
26808W        W99876  21.748   4.661   3.177
26809W        W99877   1.981   6.979   2.827
26810W        W99878  41.892   4.715   0.934
26811W        W99879  31.947   4.660   4.250
26812W        W99880  15.802  20.419  12.543
26813W        W99881   2.827  26.017  11.785
26814W        W99882  30.025   7.237   2.128
26815W        W99883  39.523  14.065  10.745
26816W        W99884   7.862   9.882   3.769
26817W        W99885  43.881  37.962   3.328
26818W        W99886  39.076  10.204   4.526
26819W        W99887  29.054  42.905   2.448
26820W        W99888   5.809  34.303  11.565
26821W        W99889   7.791   3.976  11.000
26822W        W99890  18.268  28.574  13.504
26823W        W99891  25.082   4.298   0.734
26824W        W99892  37.409  22.149   2.467
26825W        W99893  42.899  38.990  14.961
26826W        W99894   7.997  28.209  12.953
26827W        W99895  35.958  42.573  10.757
26828W        W99896   2.738  23.937  12.138
26829W        W99897   9.556  20.567   3.626
26830W        W99898  24.116  43.423   3.394
26831W        W99899  25.370  11.910  10.219
26832W        W99900   4.236   0.546   0.432
26833W        W99901  20.201  28.174   4.889
26834W        W99902  43.789  23.480   4.613
26835W        W99903  38.966  18.991   1.085
26836W        W99904  39.563  43.723   4.632
26837W        W99905  19.495  43.409   3.120
26838W        W99906  37.069  19.539  13.580
26839W        W99907  34.987  41.480  10.850
26840W        W99908  20.834   7.814  11.230
26841W        W99909   0.029  29.362   2.196
26842W        W99910  18.118  10.566  11.390
26843W        W99911  40.373  10.090   3.126
26844W        W99912  12.162  40.588   1.947
26845W        W99913  26.921  23.073   3.424
26846W        W99914  41.826   9.538  14.768
26847W        W99915   6.254   5.184  14.443
26848W        W99916  40.105  20.535  11.648
26849W        W99917   4.066   6.812   1.897
26850W        W99918  42.338   2.506   4.799
26851W        W99919  39.461  29.405  14.289
26852W        W99920  12.884   7.497   2.000
26853W        W99921  41.402  33.596  12.085
26854W        W99922  10.005  36.582   2.631
26855W        W99923  11.281   7.130  10.729
26856W        W99924  35.638  30.058  12.082
26857W        W99925   8.800  16.529  11.841
26858W        W99926  44.095   0.964   4.178
26859W        W99927  33.853  21.335   4.137
26860W        W99928  17.325  35.558   2.727
26861W        W99929  16.835   6.433  14.004
26862W        W99930  34.797  32.428   4.072
26863W        W99931  36.963   3.942   3.298
26864W        W99932  27.193   3.297  10.390
26865W        W99933  30.027   1.718  12.678
26866W        W99934   4.414  42.586  13.469
26867W        W99935  43.042   6.911   3.824
26868W        W99936  27.950   1.377   0.317
26869W        W99937  11.570  18.200  14.007
26870W        W99938  12.414  18.119   3.631
26871W        W99939  28.751  14.017   0.036
26872W        W99940   5.829  37.074  10.982
26873W        W99941  40.971  15.839  14.046
26874W        W99942  28.095   4.382  12.495
26875W        W99943  16.426  16.544  10.669
26876W        W99944  15.621  36.294   1.681
26877W        W99945  34.008  42.782  13.881
26878W        W99946  14.247  36.316   4.619
26879W        W99947  25.670  41.199   3.847
26880W        W99948  25.226  33.483  14.118
26881W        W99949  22.260  31.578  13.503
26882W        W99950  27.872  14.387  11.034
26883W        W99951  40.391  27.094  13.116
26884W        W99952  25.751   0.160  12.549
26885W        W99953  27.272  18.585  13.817
26886W        W99954  36.070  26.737  11.716
26887W        W99955   6.176  16.312   0.945
26888W        W99956   4.116  10.284  10.805
26889W        W99957   7.200  28.436  12.871
26890W        W99958   3.238  40.482   0.648
26891W        W99959   7.264  17.468  10.833
26892W        W99960  24.971   7.597  11.580
26893W        W99961   9.635  26.923   4.199
26894W        W99962  38.112  32.678   1.320
26895W        W99963  41.883  40.854  10.644
26896W        W99964   9.354  37.610   4.142
26897W        W99965  17.784  28.084  10.048
26898W        W99966  28.051   5.038  11.237
26899W        W99967  38.772  24.256  12.064
26900W        W99968  29.988   4.368   0.032
26901W        W99969  40.506  18.107   0.749
26902W        W99970  17.778  14.103   0.199
26903W        W99971  30.701  18.990  14.024
26904W        W99972   0.300  36.428  14.266
26905W        W99973  16.106  12.695   4.252
26906W        W99974  35.116  43.902   4.660
26907W        W99975  34.002  41.054   1.854
26908W        W99976  13.664  21.848   0.550
26909W        W99977  22.493  26.999  10.613
26910W        W99978  19.775  13.862   2.351
26911W        W99979  34.897   6.667   1.280
26912W        W99980  27.933  35.939   3.723
26913W        W99981  37.148  33.334   4.166
26914W        W99982   0.325  40.351  14.900
26915W        W99983  30.620  18.843  11.149
26916W        W99984  43.028  42.482   1.996
26917W        W99985   5.162   1.203   4.163
26918W        W99986   2.885   6.020  11.443
26919W        W99987  40.479  26.978   3.118
26920W        W99988  27.079  33.925  12.355
26921W        W99989  29.734  23.601  10.394
26922W        W99990  17.371  36.359  13.685
26923W        W99991   6.883   2.772  14.961
26924W        W99992  40.852   3.804  13.919
26925W        W99993  21.249  36.747   2.297
26926W        W99994  20.762   8.264  11.440
26927W        W99995  20.200  27.623   2.623
26928W        W99996  21.545  30.270  14.312
26929W        W99997  17.913   5.166   1.363
26930W        W99998  36.363  35.043  12.422
26931W        W99999  44.864  35.918   2.837
26932W        W    0  27.947  16.657  13.197
26933W        W    1  19.075  44.289  13.470
26934W        W    2  31.235  25.136  10.354
26935W        W    3  10.544  36.041  13.303
26936W        W    4  26.871  43.336   2.392
26937W        W    5  16.274   6.735  10.979
26938W        W    6   1.329  29.981  13.875
26939W        W    7  40.005  13.936  12.826
26940W        W    8   5.796  33.995  11.011
26941W        W    9  43.438   6.081   4.655
26942W        W   10  22.311  25.006   1.409
26943W        W   11  11.336  38.875   0.277
26944W        W   12  14.182  16.692  14.250
26945W        W   13  36.653  11.036   0.050
26946W        W   14   3.325  39.495  12.164
26947W        W   15   3.377  30.249   4.150
26948W        W   16   2.871  28.190  12.032
26949W        W   17  22.216  20.418  12.244
26950W        W   18  39.774  40.936   2.252
26951W        W   19  20.635  21.004   2.615
26952W        W   20  39.980  25.844   1.338
26953W        W   21   4.717  16.878   3.821
26954W        W   22  27.382   4.832  12.919
26955W        W   23  36.906   6.203  11.482
26956W        W   24  31.976  22.096  13.974
26957W        W   25   4.924  15.697   1.663
26958W        W   26  40.521  16.316   2.818
26959W        W   27  26.698  34.604  10.467
26960W        W   28  29.881   0.212   2.910
26961W        W   29   8.155  11.077  10.847
26962W        W   30  39.766  15.868  11.421
26963W        W   31  25.140  40.555   0.805
26964W        W   32  35.245  14.652   0.125
26965W        W   33  19.814  37.166  12.515
26966W        W   34   6.897  36.091   4.115
26967W        W   35  26.720  18.456   2.115
26968W        W   36  41.346  30.629   0.434
26969W        W   37   6.638  30.531   1.793
26970W        W   38  13.059  12.404  13.886
26971W        W   39  16.702  29.874  13.805
26972W        W   40  38.914   5.020  11.490
26973W        W   41  14.937  22.668   2.649
26974W        W   42   8.136   4.810  13.393
26975W        W   43  35.584  23.553  14.000
26976W        W   44  26.711  28.322   1.556
26977W        W   45  36.975  25.148   3.662
26978W        W   46  42.788  19.671   1.365
26979W        W   47   5.712  44.661  10.751
26980W        W   48  22.766  19.682   0.060
26981W        W   49  38.855  29.897  13.011
26982W        W   50  22.530  23.126  13.917
26983W        W   51  35.117  33.627  11.134
26984W        W   52  38.389  12.274  12.616
26985W        W   53  15.014  21.571   0.469
26986W        W   54  21.169  40.912   0.265
26987W        W   55   3.459   1.619   3.229
26988W        W   56  36.526  36.872   3.910
26989W        W   57   2.996  28.515  11.658
26990W        W   58  38.275  24.460  10.347
26991W        W   59   1.430  11.364  12.918
26992W        W   60  27.481  43.239   1.045
26993W        W   61  17.538  30.507   1.647
26994W        W   62  25.636   4.615   2.846
26995W        W   63   8.961  34.877   2.784
26996W        W   64  10.036  29.164   1.874
26997W        W   65  43.712  28.655   1.710
26998W        W   66  34.867  22.850  11.528
26999W        W   67  35.761  12.897   0.796
27000W        W   68  11.163  41.790  14.898
27001W        W   69  22.670  27.671  11.223
27002W        W   70  33.680  33.025   3.409
27003W        W   71   6.788  28.765   1.846
27004W        W   72  18.307  31.413  11.800
27005W        W   73  17.205  37.816   0.802
27006W        W   74  13.390  13.937   0.048
27007W        W   75  18.724   1.464  13.830
27008W        W   76  36.321   6.363  14.727
27009W        W   77   6.472  10.250  13.914
27010W        W   78  20.256  11.205  11.545
27011W        W   79  33.259  44.942   4.831
27012W        W   80  30.519  42.275   0.087
27013W        W   81  24.000  27.719   4.926
27014W        W   82  41.067  40.008   1.394
27015W        W   83  34.671  11.635   4.453
27016W        W   84  27.079  25.944   2.192
27017W        W   85   7.867  11.628   2.269
27018W        W   86  25.098  37.084  14.865
27019W        W   87  33.913  22.201   4.566
27020W        W   88  33.174  36.915   0.319
27021W        W   89  22.526  10.703   4.415
27022W        W   90  10.266   8.512   4.610
27023W        W   91  39.492   9.698  12.621
27024W        W   92  25.688  36.517   3.205
27025W        W   93  42.991  41.383  14.153
27026W        W   94  35.462  17.330  13.897
27027W        W   95   7.847  24.323   3.181
27028W        W   96  30.165  38.910   4.835
27029W        W   97   0.444  17.331  14.005
27030W        W   98  32.797  29.588   4.600
27031W        W   99  24.897  42.803  11.655
27032W        W  100  31.601  11.914  14.596
27033W        W  101   3.367   9.806   3.343
27034W        W  102  43.351  15.551  12.394
27035W        W  103  35.416  23.027  13.058
27036W        W  104  12.605  34.018  11.554
27037W        W  105  33.722  42.333   1.608
27038W        W  106  27.131   9.325   1.213
27039W        W  107  27.126  24.587   4.648
27040W        W  108   5.111  44.922   0.158
27041W        W  109  36.770   8.660  10.188
27042W        W  110  31.486  32.309  11.645
27043W        W  111  28.091  36.030  13.359
27044W        W  112   7.365  35.532  10.673
27045W        W  113  22.649   9.282  13.994
27046W        W  114  11.837  43.515   1.275
27047W        W  115   6.571   0.412   3.887
27048W        W  116   7.950  34.621   1.176
27049W        W  117  11.058  22.694   3.358
27050W        W  118  24.088  27.688   4.398
27051W        W  119  40.875  34.817   2.531
27052W        W  120  17.275  39.293   1.971
27053W        W  121  30.143  26.752   1.856
27054W        W  122  39.049  23.471  11.670
27055W        W  123  23.181   3.286   1.333
27056W        W  124   6.944  41.260  11.854
27057W        W  125   3.888  20.362   0.020
27058W        W  126   9.376  41.970  11.804
27059W        W  127   1.286  28.445  14.053
27060W        W  128  10.255  26.923  13.010
27061W        W  129  37.382  17.552   3.202
27062W        W  130  13.595  28.317   4.603
27063W        W  131  38.019   0.601   3.266
27064W        W  132  36.432  29.381  13.487
27065W        W  133  19.074  22.576   3.341
27066W        W  134   0.204   3.446   2.817
27067W        W  135  37.845  23.396  13.976
27068W        W  136   2.104  12.683  12.128
27069W        W  137  16.535   8.307   4.075
27070W        W  138  15.124   8.723   2.121
27071W        W  139  28.734  21.645  14.960
27072W        W  140  41.888  28.781  13.981
27073W        W  141  40.005   5.786   2.936
27074W        W  142  27.065  11.636  12.897
27075W        W  143  11.921   4.683  10.209
27076W        W  144  27.151  15.600  10.594
27077W        W  145   2.250  37.058   2.190
27078W        W  146  22.081  16.663   4.575
27079W        W  147   4.253  17.717  10.706
27080W        W  148  24.256   2.801   4.529
27081W        W  149  42.543  14.802   3.200
27082W        W  150   5.446   9.691   2.267
27083W        W  151   2.720  24.227  10.704
27084W        W  152  17.065  19.545   1.189
27085W        W  153   7.109  38.418  11.128
27086W        W  154   3.837  26.523   4.377
27087W        W  155  33.026  30.037   4.471
27088W        W  156   0.857  39.181   3.144
27089W        W  157  22.768  10.318  11.558
27090W        W  158   4.506  26.125   0.018
27091W        W  159  23.833  31.234   0.171
27092W        W  160   8.803  12.117  11.907
27093W        W  161   7.576  20.606  13.961
27094W        W  162  17.641  14.803   3.949
27095W        W  163  11.881  22.300   2.006
27096W        W  164  15.069  26.501  13.502
27097W        W  165  12.727   4.089   3.330
27098W        W  166  36.167  41.763   3.849
27099W        W  167   3.210  12.020   2.271
27100W        W  168   5.006  16.388   4.083
27101W        W  169  38.800   1.258   4.212
27102W        W  170  43.021  18.066  10.767
27103W        W  171   0.700  12.909  12.090
27104W        W  172  22.033   7.606   1.804
27105W        W  173  16.727  37.230   2.206
27106W        W  174  23.390  13.910  11.334
27107W        W  175  18.278  26.560  13.478
27108W        W  176   9.211   4.810   1.972
27109W        W  177  29.431  27.182   4.834
27110W        W  178  42.916   8.656   1.419
27111W        W  179   6.371  12.549   1.873
27112W        W  180  21.534   1.763  13.946
27113W        W  181   6.316  25.386   4.750
27114W        W  182  26.232  26.468  10.796
27115W        W  183  11.350   9.808   3.062
27116W        W  184  10.028   3.266   3.823
27117W        W  185  39.927  12.731  10.673
27118W        W  186   3.341  17.592  11.108
27119W        W  187  36.890  35.893   2.985
27120W        W  188  44.499  31.428  14.563
27121W        W  189   2.297   1.933  10.378
27122W        W  190  37.648  29.503  11.575
27123W        W  191  36.658  21.080  14.027
27124W        W  192  19.400  27.057  12.890
27125W        W  193  42.556  18.147  10.524
27126W        W  194  41.126   5.822   2.313
27127W        W  195  12.226  10.426   2.005
27128W        W  196  25.517  43.546  14.841
27129W        W  197  41.612  16.377   1.128
27130W        W  198  27.519   3.829   3.453
27131W        W  199  18.635  22.292   1.326
27132W        W  200  33.154  19.620   1.947
27133W        W  201  20.587  22.339  12.989
27134W        W  202   6.181  17.320   0.611
27135W        W  203  32.402  10.625  10.056
27136W        W  204  13.370  21.820   1.358
27137W        W  205  38.257  35.644  14.234
27138W        W  206   5.995  16.140  14.433
27139W        W  207  12.565  23.112  14.347
27140W        W  208  33.465  38.074   3.811
27141W        W  209  15.060  12.033  13.481
27142W        W  210  12.398   5.870  12.432
27143W        W  211  40.603  44.380  14.558
27144W        W  212  30.656   7.640   3.689
27145W        W  213   4.227  13.198   4.617
27146W        W  214  19.188  14.671   2.340
27147W        W  215   3.433  24.936   4.878
27148W        W  216   2.881   2.891  12.705
27149W        W  217  34.961  12.588   1.875
27150W        W  218   7.245   4.598   2.759
27151W        W  219  18.798  22.351   1.829
27152W        W  220  21.923  29.085  14.358
27153W        W  221   3.162  38.802  13.542
27154W        W  222   3.053  35.948   2.303
27155W        W  223  34.813  38.901  14.562
27156W        W  224  23.129   8.665   0.356
27157W        W  225  32.320   2.712   4.542
27158W        W  226  38.881   5.101  13.029
27159W        W  227  16.740  16.277  14.021
27160W        W  228  34.202   2.862  11.912
27161W        W  229   5.465  26.047  13.523
27162W        W  230  36.813  11.833  10.651
27163W        W  231   0.471   7.875   4.850
27164W        W  232  19.464  13.569   2.661
27165W        W  233  43.436  23.814   4.914
27166W        W  234  32.132  36.934   1.680
27167W        W  235  32.838  25.704   0.256
27168W        W  236   5.782  41.578   0.253
27169W        W  237  12.631  10.122  11.931
27170W        W  238  21.246   4.315  14.606
27171W        W  239  44.721  10.839  13.576
27172W        W  240   0.500   2.204  11.714
27173W        W  241   6.733  33.870  14.474
27174W        W  242  27.161  41.829   2.346
27175W        W  243  15.898  21.206  11.159
27176W        W  244  23.753  33.522  11.029
27177W        W  245  11.288  29.987   4.261
27178W        W  246   8.573   5.235  12.012
27179W        W  247  42.588  37.445  14.215
27180W        W  248  26.375   0.883  13.362
27181W        W  249  39.005  25.064  14.318
27182W        W  250  31.874  31.527  10.786
27183W        W  251  29.967   6.775  10.655
27184W        W  252  20.097  29.463  10.317
27185W        W  253   9.654  18.903  12.000
27186W        W  254  30.946  37.327   0.355
27187W        W  255  28.099  16.423   0.699
27188W        W  256  15.145   9.330  12.898
27189W        W  257  34.399  27.506   4.415
27190W        W  258  40.277   2.622   3.090
27191W        W  259  39.628  14.906   2.679
27192W        W  260  22.980   1.566   4.580
27193W        W  261  44.784   9.703   1.992
27194W        W  262  28.771   5.121  11.671
27195W        W  263  28.926  11.818   3.769
27196W        W  264  25.472   6.542   2.399
27197W        W  265  30.928  13.838  11.382
27198W        W  266  23.655  10.424  10.669
27199W        W  267  19.103  12.707   3.669
27200W        W  268  24.516  28.038   3.879
27201W        W  269  44.217  24.100  12.893
27202W        W  270  31.138  37.471  11.767
27203W        W  271  28.353   3.296  13.556
27204W        W  272  29.603   0.685   2.052
27205W        W  273  10.729  32.349   0.965
27206W        W  274  29.926  19.148  14.462
27207W        W  275  26.149  24.084   4.591
27208W        W  276  36.535   2.707   0.360
27209W        W  277   3.676  39.630   3.140
27210W        W  278  29.586  10.761  14.601
27211W        W  279  16.172  34.958  12.314
27212W        W  280  40.295  25.643   1.696
27213W        W  281  43.830  29.982  12.035
27214W        W  282  14.200  42.927  10.232
27215W        W  283  21.712   7.532   3.150
27216W        W  284  17.322  24.053  12.474
27217W        W  285   1.408  23.749   1.288
27218W        W  286   2.906   0.891  12.914
27219W        W  287  35.131  24.147   2.358
27220W        W  288  11.792  37.429   1.281
27221W        W  289   5.813  42.829  12.558
27222W        W  290  36.381   3.936  14.429
27223W        W  291  41.700  27.210   4.627
27224W        W  292  36.115  43.575   0.220
27225W        W  293  12.452  26.200   0.929
27226W        W  294  41.897  33.496  14.473
27227W        W  295  10.714  16.468   3.670
27228W        W  296   0.715  23.300  12.588
27229W        W  297  25.807   3.008  11.176
27230W        W  298  42.905  29.304  10.680
27231W        W  299  32.620  41.535   4.037
27232W        W  300  37.775  30.047  14.502
27233W        W  301  11.072  35.566  14.437
27234W        W  302   8.586  19.570  13.108
27235W        W  303  12.299  37.958  11.694
27236W        W  304  12.361  23.609  10.606
27237W        W  305  24.039  21.806  13.577
27238W        W  306  27.327  24.919  12.972
27239W        W  307  22.571  30.650  11.683
27240W        W  308  44.803  27.182   1.485
27241W        W  309  12.807  31.430  13.403
27242W        W  310   5.739  13.767   3.156
27243W        W  311  33.697  20.559   0.976
27244W        W  312  35.480   4.319   2.253
27245W        W  313  36.112  40.943  14.854
27246W        W  314   5.975  33.919  11.853
27247W        W  315  28.455  25.732  11.660
27248W        W  316   8.231  23.481   3.656
27249W        W  317  11.319  38.220   3.391
27250W        W  318  27.078  13.847  14.915
27251W        W  319   2.799  41.224  12.079
27252W        W  320  36.681  23.034  13.239
27253W        W  321   8.281   0.489   2.810
27254W        W  322  39.985  19.638  14.277
27255W        W  323  11.410  31.437   4.433
27256W        W  324  33.137  27.111   0.393
27257W        W  325  18.617  28.209  14.914
27258W        W  326  41.244  33.140  14.946
27259W        W  327  24.511  12.548  13.034
27260W        W  328   5.789  19.474  10.682
27261W        W  329   6.350   0.266   2.006
27262W        W  330  19.704  19.682   1.509
27263W        W  331  11.111  25.003  11.520
27264W        W  332  33.912   9.814  11.650
27265W        W  333  21.021  10.835  13.318
27266W        W  334  42.939  21.142  13.965
27267W        W  335  23.142  29.086   1.359
27268W        W  336   9.434  28.538  11.126
27269W        W  337  32.429  11.244   3.144
27270W        W  338   1.543   0.774  11.871
27271W        W  339   2.287  31.179  12.957
27272W        W  340  23.655  18.741  12.881
27273W        W  341  29.702  29.680   2.998
27274W        W  342  12.578  35.019   2.566
27275W        W  343  17.497   8.284  11.804
27276W        W  344  32.917  11.366  12.692
27277W        W  345  26.734  16.374  12.462
27278W        W  346  34.577   3.746   1.813
27279W        W  347  25.786  33.068   2.752
27280W        W  348   1.334   3.026  11.694
27281W        W  349  25.875  28.613   0.468
27282W        W  350   0.203   4.122  14.814
27283W        W  351  11.289  14.422  11.533
27284W        W  352   2.200  43.455   3.131
27285W        W  353  17.158   5.901   0.341
27286W        W  354   3.759  27.647  13.515
27287W        W  355  40.158  41.262   2.300
27288W        W  356  37.101   5.728  14.854
27289W        W  357  27.633  23.984   1.581
27290W        W  358  23.547  36.400   4.413
27291W        W  359  24.069  42.272   2.698
27292W        W  360  19.677   2.559   1.305
27293W        W  361  29.481  13.624  14.039
27294W        W  362  37.161  41.152   0.537
27295W        W  363  34.926  14.759  14.200
27296W        W  364  18.663  31.697   2.943
27297W        W  365  25.766  39.066   2.977
27298W        W  366   1.734  38.915  14.945
27299W        W  367  24.026  33.109   4.371
27300W        W  368  19.082  18.935  14.995
27301W        W  369  14.934  11.532  13.464
27302W        W  370  34.321  25.372  10.853
27303W        W  371   9.336  16.685   0.979
27304W        W  372  30.938   3.951  11.120
27305W        W  373  12.335  29.450  14.851
27306W        W  374  20.824  22.331   1.873
27307W        W  375  39.001  44.317  10.647
27308W        W  376  32.543  34.618   3.209
27309W        W  377  40.356  43.489  12.954
27310W        W  378  44.983  32.027  13.057
27311W        W  379  35.557  34.133   5.360
27312W        W  380  27.914  31.383  13.957
27313W        W  381  31.268  21.205  14.814
27314W        W  382   2.317  31.945   3.123
27315W        W  383  34.645  34.469   3.768
27316W        W  384  31.630  19.144   4.170
27317W        W  385  13.633   6.228   0.767
27318W        W  386   4.668   1.664   2.376
27319W        W  387   2.299  28.180  11.167
27320W        W  388  10.408  23.730   1.983
27321W        W  389  41.390  42.180   3.334
27322W        W  390  22.671   0.449  14.638
27323W        W  391  32.977  24.965   3.567
27324W        W  392  34.582  13.220   2.446
27325W        W  393  11.646   7.385   2.575
27326W        W  394  39.036  34.045  12.434
27327W        W  395  32.454  30.149  11.539
27328W        W  396  31.592  21.492   0.501
27329W        W  397   6.816  31.487   0.437
27330W        W  398  44.814  25.228   2.964
27331W        W  399  44.830  29.299  13.056
27332W        W  400  13.222  34.168  12.815
27333W        W  401  16.300  29.831   3.191
27334W        W  402  23.158  18.184  12.491
27335W        W  403  35.979  22.917   4.757
27336W        W  404   6.454   9.433   3.081
27337W        W  405  11.599  24.779  14.852
27338W        W  406  12.520  40.411  11.915
27339W        W  407  13.200   6.215   4.918
27340W        W  408  28.240  10.611   1.893
27341W        W  409   7.623   1.849   0.241
27342W        W  410  31.993  41.461  10.759
27343W        W  411  43.799   9.351  13.013
27344W        W  412  29.407  43.841   1.911
27345W        W  413   0.153  23.971   3.678
27346W        W  414  32.845  14.854   4.541
27347W        W  415  44.306  11.514  11.245
27348W        W  416   1.809  11.641   1.994
27349W        W  417   2.192   4.226   4.127
27350W        W  418  29.067  18.792  12.523
27351W        W  419  24.188  29.035  10.631
27352W        W  420  34.403  13.586  14.229
27353W        W  421  32.496   5.397  14.270
27354W        W  422  21.562  11.591   3.125
27355W        W  423   5.049   2.738  11.717
27356W        W  424  19.619  17.332   2.852
27357W        W  425  26.453  22.211   3.763
27358W        W  426  23.035   3.903  12.156
27359W        W  427  43.198   6.389   3.838
27360W        W  428  28.659  22.001  10.993
27361W        W  429  27.743   3.723   1.255
27362W        W  430  25.711   5.728  13.085
27363W        W  431  16.174  22.257   0.301
27364W        W  432  14.619  31.703   4.294
27365W        W  433  43.387  10.773   1.185
27366W        W  434  24.209  22.188   0.726
27367W        W  435  26.030  36.916  10.597
27368W        W  436   1.108  38.084   1.293
27369W        W  437  31.026   4.679   1.731
27370W        W  438  21.135  32.171   3.410
27371W        W  439  38.818   1.171  14.888
27372W        W  440  38.002  44.741  11.997
27373W        W  441  34.018  25.951  11.294
27374W        W  442  30.688  39.162  11.047
27375W        W  443  26.441  14.714  11.996
27376W        W  444  32.349  28.162   0.140
27377W        W  445   0.415  40.550  14.435
27378W        W  446  19.323  15.139   1.221
27379W        W  447  10.319  11.135   2.357
27380W        W  448   6.279  34.426  13.854
27381W        W  449  21.648   0.227  11.732
27382W        W  450  43.126  11.273   2.248
27383W        W  451  25.286  15.281   2.651
27384W        W  452  29.986  39.933   3.714
27385W        W  453   5.810  12.626  13.824
27386W        W  454  40.562  31.000   0.964
27387W        W  455  42.316  12.309   2.840
27388W        W  456  29.082  39.377   4.387
27389W        W  457  28.879  40.362   0.873
27390W        W  458  37.515   3.464  11.016
27391W        W  459  19.651   0.908   2.685
27392W        W  460  41.227  23.491   1.702
27393W        W  461  15.319  40.497  11.145
27394W        W  462  25.956  27.234   1.858
27395W        W  463  25.514  40.530  12.867
27396W        W  464  18.193  36.884  14.047
27397W        W  465  24.216   3.401  12.867
27398W        W  466  12.195  41.763   0.762
27399W        W  467   9.548  32.045  10.990
27400W        W  468  28.148  11.800  14.005
27401W        W  469  16.738  22.390  14.456
27402W        W  470  27.831  36.431  13.125
27403W        W  471  20.207  37.437  10.385
27404W        W  472  29.147   7.959  12.525
27405W        W  473  29.899  18.091  11.192
27406W        W  474  12.526  25.323   1.755
27407W        W  475  44.040  38.529  12.027
27408W        W  476  38.915  13.246   2.819
27409W        W  477  18.058  18.209  14.037
27410W        W  478  12.659   9.875  14.927
27411W        W  479  25.668  31.991   4.670
27412W        W  480   5.614  43.236  11.130
27413W        W  481  10.378  29.133   3.001
27414W        W  482  22.196  20.796  10.704
27415W        W  483   4.367  26.253   3.277
27416W        W  484  39.333   5.495   1.877
27417W        W  485  11.357  41.381   4.877
27418W        W  486   6.084   2.244   4.113
27419W        W  487   8.181  42.867  11.585
27420W        W  488  39.028  33.362  12.041
27421W        W  489  16.374  36.451  13.788
27422W        W  490  12.614   5.305   2.484
27423W        W  491   9.602  35.943  12.185
27424W        W  492   0.944  31.706  10.230
27425W        W  493  39.895   1.030  10.273
27426W        W  494  21.263  37.950  11.086
27427W        W  495  41.020  15.236   1.708
27428W        W  496  37.278   3.386  10.555
27429W        W  497   6.614  42.409   4.132
27430W        W  498  15.682  23.046  14.707
27431W        W  499  12.888   4.651   1.423
27432W        W  500  30.326  42.864   1.448
27433W        W  501   7.873   1.449   4.631
27434W        W  502  32.027  33.418  12.424
27435W        W  503  24.148   7.246   9.823
27436W        W  504  33.330  33.203   1.249
27437W        W  505  12.818  41.860   1.418
27438W        W  506  38.108  15.056  13.389
27439W        W  507  14.339  25.100   3.189
27440W        W  508  10.192  13.379  13.240
27441W        W  509  11.195  39.578   0.786
27442W        W  510   7.713   1.984  13.825
27443W        W  511  40.945   7.043   1.475
27444W        W  512  36.370  17.945  12.504
27445W        W  513  38.037  22.911   0.879
27446W        W  514  33.419  17.079  14.010
27447W        W  515   5.939  32.491   1.472
27448W        W  516  22.058  28.701  10.337
27449W        W  517  14.121  11.350  11.683
27450W        W  518  20.649  42.960   3.554
27451W        W  519  23.257  42.377   0.751
27452W        W  520   4.474  18.629  13.094
27453W        W  521   9.354  15.613   1.327
27454W        W  522   3.962  26.830  13.894
27455W        W  523  32.667  26.354  12.148
27456W        W  524  27.349  22.492   4.567
27457W        W  525  10.609  21.126   0.811
27458W        W  526   2.245  26.110  14.426
27459W        W  527  33.854  42.943   3.702
27460W        W  528   5.140   4.798  14.525
27461W        W  529  30.392  14.893   3.924
27462W        W  530  21.595  32.550  13.024
27463W        W  531  16.643   5.817   1.634
27464W        W  532  40.440  16.589  13.358
27465W        W  533  12.851  19.020   2.269
27466W        W  534  38.427   4.896  10.706
27467W        W  535  22.425  31.706  10.233
27468W        W  536  20.710  25.112   3.197
27469W        W  537   7.911  33.245  11.491
27470W        W  538  21.650  33.109  12.327
27471W        W  539   7.735   6.928  13.021
27472W        W  540   5.772  10.671   3.683
27473W        W  541  30.551  30.434   4.507
27474W        W  542  31.606   2.328  13.997
27475W        W  543  28.472  18.924   0.721
27476W        W  544   9.004  32.950  10.688
27477W        W  545   3.996  36.828  11.179
27478W        W  546  11.805   8.655  12.904
27479W        W  547  37.052  16.833  12.471
27480W        W  548  28.424  40.327  13.468
27481W        W  549  26.703  38.958   2.229
27482W        W  550  23.181   2.383  13.845
27483W        W  551  13.474   2.200   4.070
27484W        W  552  41.579  29.487  14.498
27485W        W  553  41.884  35.459   2.298
27486W        W  554   7.755  40.618   0.605
27487W        W  555  39.865  33.627  12.372
27488W        W  556   8.794   3.468  14.519
27489W        W  557  36.386   5.469  14.946
27490W        W  558  31.221  33.833  12.145
27491W        W  559  21.558   2.197   2.288
27492W        W  560  32.069  13.308  11.160
27493W        W  561  42.251   7.944  12.594
27494W        W  562  19.321  22.047  12.433
27495W        W  563   4.621  39.579   0.750
27496W        W  564  43.706  35.325  11.647
27497W        W  565  43.783  25.604   4.308
27498W        W  566   7.767  19.371   4.723
27499W        W  567  39.559  33.099  12.158
27500W        W  568  23.400  20.606  14.469
27501W        W  569  34.454  19.558   3.304
27502W        W  570   1.786   1.746  12.040
27503W        W  571  22.542   2.074   0.278
27504W        W  572  19.708  25.955  12.028
27505W        W  573  23.512  41.345   1.796
27506W        W  574   6.046   6.741   3.172
27507W        W  575  22.938  24.050   3.299
27508W        W  576  28.297  44.035  11.430
27509W        W  577   7.164  39.402   3.684
27510W        W  578  38.293  42.538   4.583
27511W        W  579  16.517   7.962  10.870
27512W        W  580  40.937  26.771  12.420
27513W        W  581  26.036   8.819   0.330
27514W        W  582  29.766  40.563   5.018
27515W        W  583  44.218  40.987   0.361
27516W        W  584  32.891  32.872   4.117
27517W        W  585   0.549  35.542  13.337
27518W        W  586  39.249  24.081   4.198
27519W        W  587  28.212   6.312  13.510
27520W        W  588   0.807  29.944   0.431
27521W        W  589   5.409  16.000   4.172
27522W        W  590  28.439  35.518  14.008
27523W        W  591   1.256   7.740  14.389
27524W        W  592  21.037   1.255   3.658
27525W        W  593   2.328  13.666   1.684
27526W        W  594   8.162  17.157   2.860
27527W        W  595  32.378  25.748   3.960
27528W        W  596  11.879  44.826   0.758
27529W        W  597  31.470   7.729  14.618
27530W        W  598  38.989  35.011   1.323
27531W        W  599  33.261  10.008  13.774
27532W        W  600  16.088  19.303   4.746
27533W        W  601   6.265  11.874  10.056
27534W        W  602  29.614  31.404   1.750
27535W        W  603  39.000  25.527  11.575
27536W        W  604  41.975  14.043  10.698
27537W        W  605   9.916  40.009  12.848
27538W        W  606  13.194  30.747   3.890
27539W        W  607  28.874  32.155  12.435
27540W        W  608  22.360  27.788   5.019
27541W        W  609  29.660  34.135   4.117
27542W        W  610   6.679  19.563   2.342
27543W        W  611  36.556  43.580  11.092
27544W        W  612  24.264  36.835  11.675
27545W        W  613   9.766  36.549   0.821
27546W        W  614  25.891   5.441  13.687
27547W        W  615  29.003   8.305  11.787
27548W        W  616  23.132  42.326  13.072
27549W        W  617  18.820  44.710  11.080
27550W        W  618  27.689  11.087   1.237
27551W        W  619  27.650  25.490  11.553
27552W        W  620  30.568  41.157  13.102
27553W        W  621   9.832  42.725  10.144
27554W        W  622  42.333  43.310  13.026
27555W        W  623  40.527  36.084   2.304
27556W        W  624  39.906  21.506  11.566
27557W        W  625  37.342   4.294  10.123
27558W        W  626  43.780  44.401  14.351
27559W        W  627  44.311  28.909  10.716
27560W        W  628  26.156   7.346  12.803
27561W        W  629  23.992  35.957  11.231
27562W        W  630   9.737  15.212   1.423
27563W        W  631   0.224   2.870  13.992
27564W        W  632  42.789  30.481   0.859
27565W        W  633  34.545  24.250  13.452
27566W        W  634  10.902  29.444  13.479
27567W        W  635  25.598  18.036  13.656
27568W        W  636   3.785  27.964  12.124
27569W        W  637   5.189  27.215  10.451
27570W        W  638  30.491  27.755   0.357
27571W        W  639  40.204  28.234  14.691
27572W        W  640  28.607   9.946   4.210
27573W        W  641   3.353  24.210   3.087
27574W        W  642  33.298  41.265  14.258
27575W        W  643  40.498  42.894  11.185
27576W        W  644  35.243  40.833  14.511
27577W        W  645  16.926  15.792  10.265
27578W        W  646  21.193   4.119   0.998
27579W        W  647  21.436  33.593  12.433
27580W        W  648  35.472  22.784   4.242
27581W        W  649  28.464  23.505   1.929
27582W        W  650  43.871  25.118  11.321
27583W        W  651  44.498  17.317  10.269
27584W        W  652  34.646  33.200  14.384
27585W        W  653  27.168  13.166  14.516
27586W        W  654   4.142  19.529  12.079
27587W        W  655  17.383  20.555   4.926
27588W        W  656  18.876  43.248  14.847
27589W        W  657  42.350  13.748   9.898
27590W        W  658  33.895  42.221  12.505
27591W        W  659  41.483  15.656  14.956
27592W        W  660  33.047  16.069   0.075
27593W        W  661  38.622  23.762  12.128
27594W        W  662   0.836  13.894  13.975
27595W        W  663  44.826  17.787  12.606
27596W        W  664   9.919  12.569  12.387
27597W        W  665  34.974  33.903   0.946
27598W        W  666  31.284  10.747  12.407
27599W        W  667   4.982  18.659   0.705
27600W        W  668   4.684  30.923   0.020
27601W        W  669  43.318  12.874  11.171
27602W        W  670  30.992  32.214   3.692
27603W        W  671  26.794   3.228  11.249
27604W        W  672  14.114  18.209   4.319
27605W        W  673  43.221  23.743   3.899
27606W        W  674  42.351   8.976  14.076
27607W        W  675   2.014  33.006   1.022
27608W        W  676  17.737  26.178   0.011
27609W        W  677  11.762  32.955  13.736
27610W        W  678   9.769   7.356   0.340
27611W        W  679   0.868  25.508   3.268
27612W        W  680  44.984   7.690  14.524
27613W        W  681  24.422   3.473   2.923
27614W        W  682  39.612   8.600   0.300
27615W        W  683   1.042  11.555   3.687
27616W        W  684  42.883   6.683   2.891
27617W        W  685   2.845  37.771   4.198
27618W        W  686  13.233  38.298  12.199
27619W        W  687  33.431   6.908  13.874
27620W        W  688  16.761   5.645  12.847
27621W        W  689  22.848  44.080   4.549
27622W        W  690   1.319  30.012  10.447
27623W        W  691   1.450   2.165  12.022
27624W        W  692  31.201  44.579   2.653
27625W        W  693  31.988  43.541   4.701
27626W        W  694  43.039  24.101  14.419
27627W        W  695  37.348   8.234   0.529
27628W        W  696   4.000   0.992   0.321
27629W        W  697  28.467  10.306   4.600
27630W        W  698  36.345   8.797  11.495
27631W        W  699  18.293  39.483  11.706
27632W        W  700  30.101  12.172  11.642
27633W        W  701   9.351  31.437   0.129
27634W        W  702   1.901   8.720   1.956
27635W        W  703   7.621  23.813  14.256
27636W        W  704  34.416  37.432   4.064
27637W        W  705  30.936  10.180  14.447
27638W        W  706  13.212  26.117   0.369
27639W        W  707  34.170  31.378  14.287
27640W        W  708  34.456   4.463  14.245
27641W        W  709   0.476  13.626   2.748
27642W        W  710  24.332  35.797   2.570
27643W        W  711  39.622  20.726   0.766
27644W        W  712  20.770   2.442  10.555
27645W        W  713  12.100  20.110   0.930
27646W        W  714  42.526  32.218   1.287
27647W        W  715  18.688  44.908   4.754
27648W        W  716  30.886  39.531  13.595
27649W        W  717  44.221   3.566   3.840
27650W        W  718  31.967  16.462  12.871
27651W        W  719   7.638  10.702   2.620
27652W        W  720  30.071  39.545  11.258
27653W        W  721  28.161  32.204   2.777
27654W        W  722  32.591  38.542   0.478
27655W        W  723  25.598   5.668   2.197
27656W        W  724   6.919  16.539   4.118
27657W        W  725  22.002  17.554   1.636
27658W        W  726  21.237  10.727   2.777
27659W        W  727  44.195   8.885  11.627
27660W        W  728  25.098  21.008   4.253
27661W        W  729  25.678  11.220  14.492
27662W        W  730  18.319  42.041   4.510
27663W        W  731  39.557  14.066  14.424
27664W        W  732  10.344  39.439   3.835
27665W        W  733   7.850  22.441   2.732
27666W        W  734  24.094   0.789   0.042
27667W        W  735   3.787  44.445  12.086
27668W        W  736  26.688  25.216  10.345
27669W        W  737  31.550  35.651   1.775
27670W        W  738  21.298  29.960   4.722
27671W        W  739  33.199   0.706   2.469
27672W        W  740  17.066  37.493  11.057
27673W        W  741  10.706  29.549   3.269
27674W        W  742  30.560  38.538  12.057
27675W        W  743  15.727  23.069   1.544
27676W        W  744   8.435  34.913   2.776
27677W        W  745  10.221   4.904  14.622
27678W        W  746  41.347  26.233  14.045
27679W        W  747  23.740  11.135  14.764
27680W        W  748  41.805   7.664  13.340
27681W        W  749  19.471  43.997   2.451
27682W        W  750  30.381  41.855   4.146
27683W        W  751  41.476  36.513   3.336
27684W        W  752   7.966   4.987   2.747
27685W        W  753  31.314  39.329   0.428
27686W        W  754   1.523  17.525   1.456
27687W        W  755  24.420   5.281   4.665
27688W        W  756  19.215   0.910   4.553
27689W        W  757  11.202  14.036   3.355
27690W        W  758  30.858  15.379  14.032
27691W        W  759  27.202  13.698   4.570
27692W        W  760   5.191  40.308   4.115
27693W        W  761  25.078  40.855   5.366
27694W        W  762  25.061   8.797   3.872
27695W        W  763  37.048  32.649   2.266
27696W        W  764  25.249   4.793   2.026
27697W        W  765  34.339  42.446   0.827
27698W        W  766  28.541  41.478   1.887
27699W        W  767  11.154   7.119   0.808
27700W        W  768  20.747  38.955  10.573
27701W        W  769  44.203  15.642  12.316
27702W        W  770  27.925  42.271  13.989
27703W        W  771  35.976  28.255   4.112
27704W        W  772  44.468  44.489  11.980
27705W        W  773  33.624  24.997  12.015
27706W        W  774  44.492   5.392  14.392
27707W        W  775  26.033  27.511   0.492
27708W        W  776  29.661  18.005   1.867
27709W        W  777  21.556  22.800  13.044
27710W        W  778   3.030  34.456  13.172
27711W        W  779   7.825  14.363   4.183
27712W        W  780   4.225  31.147  14.998
27713W        W  781  19.764  37.542   1.462
27714W        W  782   6.246  34.509  12.987
27715W        W  783  18.598   7.929   0.734
27716W        W  784  17.864  27.853   2.947
27717W        W  785  23.069  39.771   1.911
27718W        W  786  11.669  33.188   2.467
27719W        W  787  34.555   4.891  11.900
27720W        W  788   8.393  14.216  10.830
27721W        W  789  20.099  25.257  11.635
27722W        W  790   5.419  41.803   1.029
27723W        W  791   7.761   1.300  12.451
27724W        W  792  30.029   3.693   0.255
27725W        W  793  29.525  33.375   2.744
27726W        W  794  13.670  12.162  14.557
27727W        W  795  41.841  27.055   0.175
27728W        W  796  44.548  37.412  11.599
27729W        W  797  31.481  16.094   3.152
27730W        W  798  27.616  33.720  11.622
27731W        W  799  41.084   6.424  13.338
27732W        W  800  22.690  41.236  13.047
27733W        W  801  18.854  23.235   1.625
27734W        W  802  36.942  21.395  10.592
27735W        W  803  20.764  36.774  11.239
27736W        W  804  44.740  31.115   4.045
27737W        W  805   6.761  16.855  14.456
27738W        W  806  35.922  21.590  12.214
27739W        W  807  25.125   5.381  13.353
27740W        W  808  22.149  19.000  10.692
27741W        W  809  40.689   1.074   5.458
27742W        W  810   8.851   2.463  11.532
27743W        W  811  25.628  28.612  13.149
27744W        W  812   7.265  32.296  13.934
27745W        W  813  32.576  42.251  13.314
27746W        W  814  44.910   0.235   3.167
27747W        W  815  24.984  37.973   2.205
27748W        W  816   5.911   5.262  12.968
27749W        W  817   6.447  34.129   1.308
27750W        W  818  24.605   2.419   1.774
27751W        W  819  15.203  36.965  14.390
27752W        W  820  10.790  28.768   0.106
27753W        W  821  29.910  35.646  12.097
27754W        W  822  39.886  14.667   3.361
27755W        W  823   5.766  38.230  12.857
27756W        W  824   4.369  28.200   2.295
27757W        W  825  44.062  25.543   0.592
27758W        W  826  25.691  34.814   5.038
27759W        W  827  41.232  10.713  10.545
27760W        W  828   9.595  42.018  13.055
27761W        W  829  18.044  19.558  12.445
27762W        W  830  15.405  42.031   1.477
27763W        W  831   8.723  11.717   3.492
27764W        W  832  21.149   3.766  12.311
27765W        W  833  13.639  34.864  14.949
27766W        W  834  39.509  26.937   4.487
27767W        W  835  36.653  26.440   4.143
27768W        W  836  17.004  24.252   3.168
27769W        W  837  23.509  41.038  11.026
27770W        W  838  10.840  33.833  14.551
27771W        W  839  14.848  13.671   3.809
27772W        W  840  35.103  43.904  13.141
27773W        W  841  23.528  41.384  14.037
27774W        W  842   8.478  12.864   0.950
27775W        W  843  22.007  23.543   0.886
27776W        W  844  20.697  23.413   3.799
27777W        W  845  24.282  44.839   1.904
27778W        W  846   2.201  11.297   3.016
27779W        W  847   0.271  25.928  12.016
27780W        W  848   4.295  14.258  13.306
27781W        W  849  30.082   9.317   0.799
27782W        W  850  40.412  44.040   1.345
27783W        W  851   8.259   0.501   2.297
27784W        W  852  19.788   8.996  14.362
27785W        W  853  17.995  19.046  13.731
27786W        W  854  36.941   2.196  11.185
27787W        W  855  43.733  18.784  13.893
27788W        W  856  13.388  37.426  13.385
27789W        W  857  20.518  35.060   2.059
27790W        W  858   0.642  18.138  14.412
27791W        W  859   6.713  39.870  10.299
27792W        W  860  25.990   1.632  12.813
27793W        W  861  10.750  39.156  11.578
27794W        W  862  38.200  39.367   1.018
27795W        W  863  23.542  43.284   1.323
27796W        W  864  40.420  38.038  13.939
27797W        W  865  13.792  31.389  12.777
27798W        W  866  36.145  16.693  13.885
27799W        W  867  39.864  11.562   2.792
27800W        W  868  25.552  12.502   5.052
27801W        W  869  32.412  24.023   3.695
27802W        W  870  15.211  21.782   3.335
27803W        W  871  25.588  28.587  13.640
27804W        W  872  32.416   7.141  11.988
27805W        W  873   6.228  19.726  14.465
27806W        W  874  37.910  29.606  14.252
27807W        W  875  11.705  33.534   4.684
27808W        W  876  19.224  13.079  14.997
27809W        W  877   2.694   0.216  13.364
27810W        W  878  29.978  20.555   3.765
27811W        W  879   8.851  30.770   2.478
27812W        W  880  22.100  38.015   1.216
27813W        W  881  30.836  28.612  12.503
27814W        W  882   5.812  41.995  13.803
27815W        W  883   7.690  28.964   4.594
27816W        W  884   2.397  10.798   2.938
27817W        W  885  25.689  35.376  12.956
27818W        W  886  15.733   2.341  11.514
27819W        W  887   8.330   8.175   2.986
27820W        W  888  29.126  21.777  12.457
27821W        W  889  19.673   5.775  13.040
27822W        W  890   6.756   2.946   0.823
27823W        W  891  27.690  25.904  11.114
27824W        W  892  38.518  31.539  13.073
27825W        W  893  33.637  10.221  12.674
27826W        W  894  18.411  38.744  13.910
27827W        W  895  29.240  35.751   0.979
27828W        W  896  31.055   0.861   3.484
27829W        W  897  29.254  34.537   1.936
27830W        W  898  42.255  29.085   0.116
27831W        W  899  22.806  14.777  12.045
27832W        W  900  22.262  10.700  13.918
27833W        W  901  30.844   0.634  13.854
27834W        W  902  14.336  20.689  14.871
27835W        W  903  15.821  31.303  12.422
27836W        W  904   4.793  12.987  12.085
27837W        W  905   2.367  10.579  13.410
27838W        W  906  39.445   2.101  13.827
27839W        W  907  22.527  39.824  12.106
27840W        W  908  22.666  38.842   2.533
27841W        W  909  17.339   7.230  12.088
27842W        W  910  11.410  34.590   4.498
27843W        W  911   0.043  31.707  10.680
27844W        W  912   0.427  12.030  14.221
27845W        W  913  10.818   9.320  11.143
27846W        W  914  40.928  31.486  14.237
27847W        W  915  43.795   9.571  11.621
27848W        W  916  38.111  32.342   4.194
27849W        W  917  10.351  21.622  12.410
27850W        W  918   7.651  19.166  14.445
27851W        W  919  20.223  18.695   3.682
27852W        W  920  28.446  39.916  14.568
27853W        W  921  20.488  12.793   4.558
27854W        W  922  21.548  31.953   2.651
27855W        W  923  22.717   9.208   2.269
27856W        W  924  39.070  35.442   0.299
27857W        W  925   6.220   8.441   2.776
27858W        W  926  21.792  10.360   4.065
27859W        W  927  24.480   0.480  14.387
27860W        W  928  12.054  21.424   1.400
27861W        W  929  41.153   7.221   2.364
27862W        W  930   6.339  12.370  12.307
27863W        W  931  17.797  19.593   2.385
27864W        W  932  34.520  36.015   1.828
27865W        W  933  41.217   6.222   4.544
27866W        W  934  36.338  24.088  14.000
27867W        W  935   2.548  19.523   0.473
27868W        W  936   8.554  36.691   0.361
27869W        W  937   7.705   6.441  14.959
27870W        W  938   8.752  24.564  14.471
27871W        W  939  16.680  24.164   2.743
27872W        W  940  22.262  16.785  11.977
27873W        W  941  20.011  23.782  14.376
27874W        W  942  26.937  15.522   0.823
27875W        W  943  41.763  34.183   1.669
27876W        W  944   2.225  19.130  13.027
27877W        W  945  13.122  38.056  14.951
27878W        W  946   3.932  25.037  14.740
27879W        W  947  30.125   3.319  14.895
27880W        W  948  27.459  40.612   0.907
27881W        W  949  42.012  13.875  12.122
27882W        W  950   0.901  14.954   2.090
27883W        W  951  28.515   8.741  13.412
27884W        W  952   9.899  26.206   1.483
27885W        W  953  33.949  36.375   1.743
27886W        W  954  40.572   1.438   5.122
27887W        W  955  21.020   0.853  11.503
27888W        W  956  33.435  27.674  10.869
27889W        W  957  29.164   0.287  12.351
27890W        W  958  30.441  23.539   1.301
27891W        W  959  41.460   1.087   0.407
27892W        W  960  43.574   4.783  12.365
27893W        W  961  23.722   8.659   3.603
27894W        W  962  13.140   0.856  14.877
27895W        W  963  40.909  40.405   4.821
27896W        W  964  35.961  19.106   2.175
27897W        W  965  17.287   8.779   4.496
27898W        W  966  40.113  20.146  14.449
27899W        W  967  18.874  40.305   2.285
27900W        W  968  22.170  16.802  10.658
27901W        W  969   8.807  41.566  10.611
27902W        W  970   9.233  38.385  13.570
27903W        W  971  21.229   8.745   3.829
27904W        W  972   3.812  39.100   3.224
27905W        W  973  38.401  35.491  14.709
27906W        W  974  42.849  24.820  11.000
27907W        W  975  24.210   6.465   3.204
27908W        W  976   6.158   9.199   2.705
27909W        W  977   6.641  41.460   0.344
27910W        W  978  33.080  16.318  12.237
27911W        W  979  42.031  24.062   0.058
27912W        W  980   1.825  38.283  12.813
27913W        W  981   4.808  25.633  11.532
27914W        W  982   1.975  13.207   2.769
27915W        W  983   5.316  36.199  13.780
27916W        W  984  16.272  28.035   1.839
27917W        W  985   4.816  31.124  13.908
27918W        W  986  32.950  31.486   4.051
27919W        W  987  33.013  32.468   4.390
27920W        W  988   7.981  26.572   0.484
27921W        W  989  14.719  38.792   2.207
27922W        W  990   1.942  30.426   0.506
27923W        W  991   4.905  36.342  12.453
27924W        W  992  14.592   8.617   3.893
27925W        W  993   3.108  15.410  11.208
27926W        W  994  21.198  27.725  13.108
27927W        W  995  11.540   0.332  11.053
27928W        W  996  17.645  23.242  10.677
27929W        W  997  23.264  12.613  10.637
27930W        W  998  16.706  11.052   4.100
27931W        W  999  12.570  14.915   0.663
27932W        W 1000  32.555  14.173   5.037
27933W        W 1001  12.673  28.096   1.411
27934W        W 1002  36.535  10.191  10.243
27935W        W 1003  30.340  35.420   3.169
27936W        W 1004   7.964   5.350   1.453
27937W        W 1005   3.955  33.397  11.154
27938W        W 1006   9.706   9.419  14.234
27939W        W 1007   2.409  39.915  11.926
27940W        W 1008  36.863  36.432  12.185
27941W        W 1009  32.005  26.111  14.845
27942W        W 1010   1.037  43.867   2.209
27943W        W 1011   2.353  32.586   2.425
27944W        W 1012  25.676  33.728  10.771
27945W        W 1013  40.393   9.682   2.226
27946W        W 1014  19.578  15.345   0.549
27947W        W 1015   1.978  35.910   4.172
27948W        W 1016   8.932  44.854   4.785
27949W        W 1017  30.671   2.946   3.680
27950W        W 1018   1.498  11.052  11.606
27951W        W 1019  26.112  11.423   0.293
27952W        W 1020  44.787  44.751   3.782
27953W        W 1021  17.681  38.066   2.318
27954W        W 1022   7.303  42.004   2.204
27955W        W 1023  31.185   3.400   2.209
27956W        W 1024  30.349  33.803   0.550
27957W        W 1025  35.782   7.702   2.172
27958W        W 1026  44.455  25.039   1.836
27959W        W 1027  31.199   3.523  11.294
27960W        W 1028  29.209  28.133   0.567
27961W        W 1029  26.950  15.127  14.410
27962W        W 1030   9.343  14.535  10.679
27963W        W 1031  24.030   9.745  14.295
27964W        W 1032  10.700  16.282  14.464
27965W        W 1033  12.449  20.429  12.129
27966W        W 1034  22.271  33.587   2.132
27967W        W 1035  14.267  25.967  10.469
27968W        W 1036   1.215  27.952   4.640
27969W        W 1037  34.122  16.606   4.548
27970W        W 1038   0.495  25.199   0.433
27971W        W 1039  43.389  28.575  13.318
27972W        W 1040   0.247  43.372   2.395
27973W        W 1041  15.601   8.323  12.020
27974W        W 1042  42.776   7.667  14.541
27975W        W 1043  10.249  23.580   0.977
27976W        W 1044  31.744   7.227   3.915
27977W        W 1045  33.975   3.548   4.722
27978W        W 1046  26.949  28.659  12.456
27979W        W 1047   4.599   8.754  11.161
27980W        W 1048   3.853  39.366  12.136
27981W        W 1049  35.947  35.045  13.253
27982W        W 1050  41.059  43.774   0.198
27983W        W 1051   8.700  11.704   2.785
27984W        W 1052  28.090   5.727  14.476
27985W        W 1053  38.317  17.403   3.222
27986W        W 1054  42.914  27.053   1.571
27987W        W 1055  14.660  15.108   3.674
27988W        W 1056  21.632  15.885   0.860
27989W        W 1057  44.288  34.404  12.131
27990W        W 1058  41.437  15.070   2.690
27991W        W 1059   0.039   5.617   3.338
27992W        W 1060  24.999   7.351   1.855
27993W        W 1061  40.340   7.654  12.407
27994W        W 1062  25.164  23.508   2.773
27995W        W 1063   8.843   4.114   3.682
27996W        W 1064  43.219   0.859   2.417
27997W        W 1065  17.679   3.823  12.039
27998W        W 1066  17.205  30.969   2.286
27999W        W 1067  22.035  37.410   2.417
28000W        W 1068  34.374  39.167   2.398
28001W        W 1069  32.327  14.257  13.859
28002W        W 1070  29.500  32.584   1.625
28003W        W 1071  17.795   0.588   3.785
28004W        W 1072   4.495  19.734  10.306
28005W        W 1073   8.643  22.637  14.729
28006W        W 1074  32.233  25.534   4.547
28007W        W 1075  44.779  23.093  12.470
28008W        W 1076   4.528  35.878   2.705
28009W        W 1077  29.435  19.159  13.593
28010W        W 1078  15.283  42.235   0.233
28011W        W 1079  32.953  34.198  14.047
28012W        W 1080  16.699  24.883   0.044
28013W        W 1081  21.306  28.139   0.858
28014W        W 1082  14.214  35.365   5.002
28015W        W 1083  18.344  21.080   3.587
28016W        W 1084  15.209  42.377  12.530
28017W        W 1085  13.207  14.440  14.977
28018W        W 1086   2.217  23.750   4.133
28019W        W 1087   9.853  38.108   4.137
28020W        W 1088  18.481  41.012  11.045
28021W        W 1089  10.645   1.363  10.629
28022W        W 1090  40.512  14.240  14.564
28023W        W 1091  28.723  29.415  12.083
28024W        W 1092  43.447  37.305   1.497
28025W        W 1093   4.611   5.466  13.330
28026W        W 1094  11.109  10.873  12.799
28027W        W 1095  32.890  30.174   1.920
28028W        W 1096  23.982  19.009  11.133
28029W        W 1097  42.932  28.607  13.561
28030W        W 1098  32.168   7.859   0.433
28031W        W 1099   1.526  22.219  12.218
28032W        W 1100  15.038  13.835   1.414
28033W        W 1101  11.697  31.054   0.300
28034W        W 1102   0.842  25.115  12.822
28035W        W 1103  44.779  42.366   4.696
28036W        W 1104  21.301  14.902   4.067
28037W        W 1105  23.609   4.366  12.787
28038W        W 1106   9.078   1.843   0.736
28039W        W 1107  23.499  30.096  11.184
28040W        W 1108  40.299  20.534  12.967
28041W        W 1109  32.100  15.543   1.298
28042W        W 1110  27.144  16.125   3.335
28043W        W 1111  27.696  37.014   0.256
28044W        W 1112  27.927  34.866   2.840
28045W        W 1113  21.552   0.113   4.428
28046W        W 1114   7.851   6.794  13.863
28047W        W 1115  44.710  25.646  13.368
28048W        W 1116  22.671   8.689   2.319
28049W        W 1117   8.608  12.620  14.328
28050W        W 1118  23.991  34.922  14.925
28051W        W 1119   9.564  21.447   3.292
28052W        W 1120  29.266  11.678   2.325
28053W        W 1121   2.367   3.437  14.774
28054W        W 1122  11.603  37.584   0.239
28055W        W 1123  22.723  17.021  11.529
28056W        W 1124  10.657  19.740   1.243
28057W        W 1125  31.525  42.921  10.680
28058W        W 1126  35.819  34.605  14.510
28059W        W 1127  38.849  16.911   3.687
28060W        W 1128  30.678  24.935  12.599
28061W        W 1129  41.101  44.628  10.097
28062W        W 1130  30.934  14.724  12.410
28063W        W 1131  16.116  43.042  13.955
28064W        W 1132  13.598   1.903   1.878
28065W        W 1133  14.641  28.707   3.829
28066W        W 1134  35.623  28.273  14.010
28067W        W 1135  17.145  38.928  12.010
28068W        W 1136  21.112  11.977   1.556
28069W        W 1137   8.405  30.185   3.197
28070W        W 1138   8.408  21.847   1.276
28071W        W 1139  44.962  43.597   0.326
28072W        W 1140   7.840  33.049   4.597
28073W        W 1141  33.636   8.321  10.433
28074W        W 1142  20.341  17.308   2.249
28075W        W 1143  34.457  34.739  14.400
28076W        W 1144  29.074  42.264   3.105
28077W        W 1145  26.439   2.105  13.526
28078W        W 1146  18.377  26.440   4.646
28079W        W 1147  27.112   4.312  14.333
28080W        W 1148  18.729   2.195  11.545
28081W        W 1149  42.876  40.845  14.829
28082W        W 1150  39.361  41.013   0.242
28083W        W 1151  27.904  11.207   5.020
28084W        W 1152  12.344  17.655  12.134
28085W        W 1153  23.573  10.253  14.642
28086W        W 1154  23.452   5.790   3.107
28087W        W 1155  32.351  40.354  14.860
28088W        W 1156  24.156   7.351  11.503
28089W        W 1157   1.038  38.698   3.077
28090W        W 1158   4.944  43.772  13.148
28091W        W 1159  36.982  19.059   1.952
28092W        W 1160  12.062  31.118   1.720
28093W        W 1161  44.704   4.071  10.810
28094W        W 1162  15.084   8.889   1.343
28095W        W 1163   5.289   6.469   1.723
28096W        W 1164   6.985  32.054  11.343
28097W        W 1165  39.520  23.285  11.586
28098W        W 1166   8.910  27.884   4.148
28099W        W 1167  37.418  42.228  13.500
28100W        W 1168  25.476  23.949   0.354
28101W        W 1169  15.096  14.800  12.015
28102W        W 1170   4.160  21.271  13.002
28103W        W 1171  19.308  43.457  11.425
28104W        W 1172  23.680  20.831   3.355
28105W        W 1173  31.566   2.202   0.038
28106W        W 1174  16.856  21.042  14.720
28107W        W 1175  10.373   1.273  12.551
28108W        W 1176  19.036  43.725   3.824
28109W        W 1177  14.365   8.991  13.915
28110W        W 1178  32.119  40.940  14.031
28111W        W 1179  37.137  22.468  14.499
28112W        W 1180   5.730  16.150  11.979
28113W        W 1181   4.995  34.131   0.344
28114W        W 1182  14.863  15.048   1.730
28115W        W 1183  25.446  30.003  13.854
28116W        W 1184  30.833  12.893   0.858
28117W        W 1185  40.961  42.371  14.329
28118W        W 1186   7.676  32.925   0.258
28119W        W 1187  23.590  15.840  11.426
28120W        W 1188   1.183  10.323   2.757
28121W        W 1189   4.716  24.268   0.347
28122W        W 1190  19.018  10.615   1.970
28123W        W 1191  31.949  35.588  11.018
28124W        W 1192  36.488  11.637   0.887
28125W        W 1193  28.414   6.550   4.311
28126W        W 1194  18.914  27.498   0.377
28127W        W 1195  27.426  11.675  14.947
28128W        W 1196  14.638   8.587   3.367
28129W        W 1197  32.056   8.720   2.742
28130W        W 1198  27.136  44.314  14.878
28131W        W 1199  43.028  32.801   4.739
28132W        W 1200  35.593  37.886   2.144
28133W        W 1201   4.295  34.656   4.064
28134W        W 1202  23.606  26.143  11.680
28135W        W 1203  44.498  44.875   3.306
28136W        W 1204  41.838  10.709   0.702
28137W        W 1205   1.786   4.867   1.358
28138W        W 1206   0.503   8.715   1.387
28139W        W 1207   8.260  24.662   2.846
28140W        W 1208  34.306  20.037   2.273
28141W        W 1209  36.363  40.012   4.263
28142W        W 1210  44.979  13.800  14.884
28143W        W 1211  26.284  39.041  10.095
28144W        W 1212  16.825  11.357   3.695
28145W        W 1213   0.535  28.101   1.703
28146W        W 1214  24.233  40.919  12.460
28147W        W 1215   8.309  27.649  12.872
28148W        W 1216  11.129   2.972  10.932
28149W        W 1217  24.763  38.294   5.045
28150W        W 1218  17.025  42.797   1.411
28151W        W 1219  15.387  39.085  12.145
28152W        W 1220  20.110  27.605  14.725
28153W        W 1221  38.898  11.553   2.281
28154W        W 1222  16.126  24.689   3.145
28155W        W 1223  12.357  16.893  13.347
28156W        W 1224  20.370  28.518   3.679
28157W        W 1225  24.982  39.533   1.395
28158W        W 1226  26.033  38.230   4.441
28159W        W 1227  24.395  28.845   0.776
28160W        W 1228  19.632  17.776  10.673
28161W        W 1229  34.061   4.447   2.312
28162W        W 1230   6.850   2.543  12.684
28163W        W 1231   0.926  24.904  10.743
28164W        W 1232  37.511   6.704  12.567
28165W        W 1233  11.268   5.759   4.525
28166W        W 1234   1.245  13.884  12.779
28167W        W 1235  24.212  41.308   0.836
28168W        W 1236  12.886   6.435  13.050
28169W        W 1237   4.017  40.347   1.464
28170W        W 1238  39.424   6.351  13.941
28171W        W 1239  13.605  12.329   0.864
28172W        W 1240  36.798   3.095   0.599
28173W        W 1241  21.285  10.524  12.947
28174W        W 1242  39.919  39.523   2.319
28175W        W 1243  15.373  19.878  11.285
28176W        W 1244  43.987   3.337   0.271
28177W        W 1245  37.464  11.339  11.596
28178W        W 1246  27.410   6.562   4.294
28179W        W 1247   0.219   7.429   4.713
28180W        W 1248   0.483  37.042   2.722
28181W        W 1249  42.283  38.404  13.366
28182W        W 1250  26.861  40.998   1.017
28183W        W 1251   3.151  39.551   0.720
28184W        W 1252  43.454  36.476   2.272
28185W        W 1253   4.281   0.836   3.849
28186W        W 1254   2.841  43.864  10.917
28187W        W 1255  23.199   0.875  10.612
28188W        W 1256  31.236  22.010  13.487
28189W        W 1257   1.945  44.704   3.728
28190W        W 1258  14.836   8.775  11.946
28191W        W 1259  13.282  25.453   2.269
28192W        W 1260  16.744  10.940   2.228
28193W        W 1261  32.620  36.760  13.367
28194W        W 1262  16.834  14.994  12.421
28195W        W 1263   7.273  30.659  10.675
28196W        W 1264  25.045  38.093   4.627
28197W        W 1265  15.541  24.235   4.588
28198W        W 1266   9.774  44.842   3.078
28199W        W 1267  33.360  14.754  14.990
28200W        W 1268  23.282  42.406   3.211
28201W        W 1269   1.804  24.420  13.424
28202W        W 1270   2.521  42.674   2.757
28203W        W 1271  28.128  35.006  14.894
28204W        W 1272   7.198   5.280   0.296
28205W        W 1273  34.586  14.313  12.409
28206W        W 1274   4.729  43.363  12.532
28207W        W 1275  34.134  34.835  11.626
28208W        W 1276  42.325  37.746   3.230
28209W        W 1277   5.110  43.933  11.400
28210W        W 1278  22.954   1.234   3.338
28211W        W 1279  24.407  39.344  13.645
28212W        W 1280  40.726   6.375   0.410
28213W        W 1281  16.215  14.137   4.999
28214W        W 1282  38.125  14.848   1.836
28215W        W 1283   4.426  12.773  12.445
28216W        W 1284  10.244  16.061   2.562
28217W        W 1285  33.924  18.828   1.294
28218W        W 1286  36.664  41.771   1.889
28219W        W 1287  10.109  24.960  13.384
28220W        W 1288  21.608  23.929  12.491
28221W        W 1289   0.479  34.066  11.538
28222W        W 1290  14.465  44.931   2.176
28223W        W 1291  44.650   6.736  12.972
28224W        W 1292  13.671  28.082   1.925
28225W        W 1293  42.411  21.455   1.610
28226W        W 1294  28.900  22.636  12.001
28227W        W 1295  19.326  20.150   1.396
28228W        W 1296  35.054   8.227   0.019
28229W        W 1297  44.915   1.490   0.622
28230W        W 1298  20.164  27.119  14.930
28231W        W 1299  34.526  40.761   3.580
28232W        W 1300  38.472  43.425   1.249
28233W        W 1301   7.311  13.106  13.435
28234W        W 1302  37.246  28.623   3.600
28235W        W 1303  44.288  39.312  12.455
28236W        W 1304  40.566  12.803   3.547
28237W        W 1305  15.332  37.303   1.548
28238W        W 1306  25.034   9.551   4.586
28239W        W 1307   8.801  22.935   3.838
28240W        W 1308  23.476  16.871  11.490
28241W        W 1309  40.563   3.812  12.195
28242W        W 1310  35.737   9.468   1.804
28243W        W 1311  14.909   2.986  12.952
28244W        W 1312   6.763   8.829   3.737
28245W        W 1313   2.835  25.408  14.209
28246W        W 1314  28.401  28.560  14.883
28247W        W 1315   0.406  30.853   4.608
28248W        W 1316  29.175  44.707   3.163
28249W        W 1317  44.920  33.622  12.550
28250W        W 1318  20.698  35.103   2.549
28251W        W 1319  37.490  35.855  12.876
28252W        W 1320   8.791  33.440  10.708
28253W        W 1321   9.102  19.202   3.954
28254W        W 1322   3.454  16.786  14.701
28255W        W 1323  42.710   5.131   3.187
28256W        W 1324  31.168  37.430  12.313
28257W        W 1325  40.662  19.518   2.462
28258W        W 1326  36.847  36.878  14.291
28259W        W 1327   5.781  44.533   1.114
28260W        W 1328  26.298  44.477   2.285
28261W        W 1329  13.079  24.685  11.917
28262W        W 1330  10.505  35.173  12.095
28263W        W 1331  27.634   8.123  11.911
28264W        W 1332  35.220   6.530  12.796
28265W        W 1333  21.516   1.222   0.340
28266W        W 1334  38.975  13.770   2.301
28267W        W 1335  20.297  38.909   4.885
28268W        W 1336  23.788  17.216  13.112
28269W        W 1337  16.763  34.109  14.135
28270W        W 1338   2.619  20.225  14.349
28271W        W 1339  35.741  40.479  14.910
28272W        W 1340   8.357  38.017   0.404
28273W        W 1341  41.826  29.176  11.170
28274W        W 1342  21.067  33.959  11.913
28275W        W 1343   6.887  42.678   3.751
28276W        W 1344  38.321  19.629   4.444
28277W        W 1345  36.363  24.960  13.866
28278W        W 1346  16.833  26.729  13.453
28279W        W 1347  18.343  12.067  14.691
28280W        W 1348  23.264  20.164   3.063
28281W        W 1349  30.200  37.998   4.147
28282W        W 1350  16.269  18.206   2.689
28283W        W 1351  35.622  27.654   1.119
28284W        W 1352  40.414  10.133   0.719
28285W        W 1353  39.335  28.507  13.053
28286W        W 1354  16.500  15.660  13.941
28287W        W 1355  37.430  43.472  14.843
28288W        W 1356   3.010  43.427  13.541
28289W        W 1357  30.921  21.430  14.477
28290W        W 1358  12.358  21.098   1.681
28291W        W 1359   5.121  32.659  12.079
28292W        W 1360  35.786  11.935  10.923
28293W        W 1361   1.278  37.427  12.477
28294W        W 1362  36.445   8.534   1.532
28295W        W 1363  34.434  13.739   3.739
28296W        W 1364   9.162  41.814  13.298
28297W        W 1365  21.157  31.393   0.880
28298W        W 1366  27.660  26.574   2.734
28299W        W 1367  18.556  19.205   0.814
28300W        W 1368  33.471  32.600   4.166
28301W        W 1369  10.226   5.660  13.060
28302W        W 1370  12.662   9.034   0.897
28303W        W 1371  32.488  34.511   0.716
28304W        W 1372  31.915   5.662   1.799
28305W        W 1373  26.688   8.264   4.090
28306W        W 1374   0.249  41.113   0.222
28307W        W 1375  37.323  25.222  12.484
28308W        W 1376   7.695  19.313   0.736
28309W        W 1377  35.516  13.266   2.372
28310W        W 1378  31.892   1.633  10.781
28311W        W 1379  24.018   4.984   0.327
28312W        W 1380  24.835  39.960  13.153
28313W        W 1381  40.535  34.945  14.515
28314W        W 1382  38.853  20.012  11.534
28315W        W 1383  44.413  24.979   0.900
28316W        W 1384  21.037  24.138  13.979
28317W        W 1385   9.237  10.340  11.533
28318W        W 1386  28.410  37.801   2.714
28319W        W 1387  10.724  43.560   2.144
28320W        W 1388  28.195  21.327   3.723
28321W        W 1389  15.543  11.326  13.806
28322W        W 1390  15.690  11.145   1.110
28323W        W 1391  37.976  25.978   3.151
28324W        W 1392   0.244  14.280   4.656
28325W        W 1393  34.569  35.102   0.745
28326W        W 1394  22.542   8.872  11.580
28327W        W 1395   8.963  24.152   3.115
28328W        W 1396  35.895   0.671  14.310
28329W        W 1397  26.562  36.586  13.996
28330W        W 1398   8.293  30.118   1.622
28331W        W 1399  39.449   8.939   1.818
28332W        W 1400   5.738  20.742  13.340
28333W        W 1401  19.633   7.611  13.088
28334W        W 1402   1.474  27.603  13.465
28335W        W 1403  26.266  22.132   4.247
28336W        W 1404   1.046  29.104   3.675
28337W        W 1405  18.810  17.855  12.569
28338W        W 1406   6.244  10.998   3.157
28339W        W 1407  15.896  16.292   0.863
28340W        W 1408   0.707  20.198  10.665
28341W        W 1409  15.812   4.382   0.466
28342W        W 1410   7.193  23.000   1.885
28343W        W 1411  44.322   6.748  11.161
28344W        W 1412  37.561  11.084  11.082
28345W        W 1413  31.117  37.599  14.697
28346W        W 1414  21.050   6.116  13.974
28347W        W 1415  10.462  32.461   1.828
28348W        W 1416   4.742  40.333   1.781
28349W        W 1417  22.505   7.736  13.003
28350W        W 1418  28.214  12.424  10.081
28351W        W 1419  18.887  29.869   2.872
28352W        W 1420  36.315  10.200   2.714
28353W        W 1421   5.906  10.382  10.730
28354W        W 1422  28.601  33.482  14.698
28355W        W 1423   9.810  22.615   3.617
28356W        W 1424  17.867   7.271  14.306
28357W        W 1425  38.136  32.176   1.437
28358W        W 1426  32.656  14.837   3.719
28359W        W 1427  32.851   2.718   4.566
28360W        W 1428   4.630  22.627   0.185
28361W        W 1429  11.938  11.502  13.792
28362W        W 1430  35.957  17.178  13.921
28363W        W 1431  41.898  38.888   1.464
28364W        W 1432   0.135   6.681  13.184
28365W        W 1433  24.483  20.859   2.114
28366W        W 1434  14.049  35.386  12.865
28367W        W 1435  20.643   9.098  11.893
28368W        W 1436   5.721  31.497  13.046
28369W        W 1437   6.688  44.233   0.901
28370W        W 1438  27.064  44.398   0.977
28371W        W 1439   0.023   4.322   4.593
28372W        W 1440  38.821  28.093  10.441
28373W        W 1441  44.844  16.787  13.884
28374W        W 1442  40.389   6.605  14.023
28375W        W 1443  38.421  32.470  12.588
28376W        W 1444  21.600   0.343  14.021
28377W        W 1445  35.773   7.303  11.105
28378W        W 1446  19.986  43.506   4.638
28379W        W 1447  25.413  12.461  12.959
28380W        W 1448  44.526  25.696   3.114
28381W        W 1449   4.198   2.252   4.504
28382W        W 1450  17.582  27.479  10.665
28383W        W 1451  38.012   1.261   0.336
28384W        W 1452  15.833   7.480   0.007
28385W        W 1453  25.531  22.935   0.121
28386W        W 1454  36.419  12.821   1.744
28387W        W 1455  26.539   9.212  14.759
28388W        W 1456   9.939  35.246  13.900
28389W        W 1457  21.335  30.141   3.255
28390W        W 1458  28.977  16.664  11.572
28391W        W 1459  31.650  40.346   1.931
28392W        W 1460  44.311   5.435  13.575
28393W        W 1461   0.760   7.694   3.548
28394W        W 1462   0.414  20.181  13.931
28395W        W 1463   8.439  36.123  11.125
28396W        W 1464  22.688   4.465  11.336
28397W        W 1465  28.171  35.406  14.532
28398W        W 1466  36.987  44.280  12.409
28399W        W 1467  41.741  16.942   2.876
28400W        W 1468   6.413  30.450   3.605
28401W        W 1469  41.857   7.621   4.210
28402W        W 1470   1.399  32.725   0.596
28403W        W 1471  20.500  16.647  13.893
28404W        W 1472  40.615   5.854   2.375
28405W        W 1473  32.960  11.849  13.316
28406W        W 1474   5.627  44.981   1.439
28407W        W 1475  37.960  10.912  13.698
28408W        W 1476  44.444   7.871  12.459
28409W        W 1477   2.743  21.211   0.260
28410W        W 1478   5.969  29.012  12.931
28411W        W 1479  37.482   0.243  11.361
28412W        W 1480  30.112  43.366  13.367
28413W        W 1481  38.309  27.635  13.021
28414W        W 1482  41.668  12.896   0.386
28415W        W 1483   0.680   6.992   0.455
28416W        W 1484  11.226  25.117   2.772
28417W        W 1485  39.074  39.751  11.452
28418W        W 1486  12.290  22.714  11.207
28419W        W 1487  33.368   7.653   3.099
28420W        W 1488   0.393  26.467  13.656
28421W        W 1489  29.688  30.801   5.131
28422W        W 1490   7.965  10.207  11.706
28423W        W 1491   3.806  40.577   0.468
28424W        W 1492  32.202   7.188   4.162
28425W        W 1493  30.207  30.471   0.437
28426W        W 1494  28.947  38.830  10.649
28427W        W 1495  18.462  10.742   0.723
28428W        W 1496  32.456   4.341  12.166
28429W        W 1497  21.833   5.905  14.261
28430W        W 1498   1.743  32.855  14.985
28431W        W 1499  26.981   2.334  11.070
28432W        W 1500   6.833  20.080  12.368
28433W        W 1501  40.892  30.351   3.327
28434W        W 1502  19.797  12.176   4.814
28435W        W 1503  18.986  32.109   1.212
28436W        W 1504  25.462  39.030  12.236
28437W        W 1505   3.621   0.541   1.302
28438W        W 1506  37.097  28.190  11.262
28439W        W 1507   1.955  42.816   0.838
28440W        W 1508   4.271  11.381  11.102
28441W        W 1509  18.111  38.628   2.594
28442W        W 1510  33.731   0.078  12.574
28443W        W 1511  29.397  27.085   1.824
28444W        W 1512  26.173  24.555   2.612
28445W        W 1513  41.134  21.734  11.036
28446W        W 1514  22.202  15.316  14.990
28447W        W 1515  20.497  21.947  10.760
28448W        W 1516  38.901  30.081  11.217
28449W        W 1517  30.895   4.321  10.746
28450W        W 1518  10.833  18.225   2.894
28451W        W 1519  43.507   6.385   0.916
28452W        W 1520  36.035  24.233   0.414
28453W        W 1521  21.016  43.861  10.170
28454W        W 1522  32.560   8.729   4.566
28455W        W 1523   8.467  18.557  13.877
28456W        W 1524  39.912   6.701  14.218
28457W        W 1525  18.263  34.148  13.412
28458W        W 1526  44.051   5.274  11.855
28459W        W 1527  25.684  18.298  14.758
28460W        W 1528  33.370   5.590   4.086
28461W        W 1529   0.204  25.950   3.561
28462W        W 1530  11.283  25.698   3.632
28463W        W 1531  27.397  40.452  14.503
28464W        W 1532  16.123  10.852  11.533
28465W        W 1533  31.207  42.488   1.805
28466W        W 1534  21.967  10.826  11.562
28467W        W 1535  10.634  19.071  14.066
28468W        W 1536   7.956  18.696  13.808
28469W        W 1537  10.660   2.347  11.886
28470W        W 1538  15.889  44.975   2.278
28471W        W 1539  11.706  32.998   2.997
28472W        W 1540   3.905  15.903  10.023
28473W        W 1541  31.593  11.786   2.768
28474W        W 1542   4.597  39.165   1.455
28475W        W 1543   8.822   8.662  14.419
28476W        W 1544   8.930   2.239   1.511
28477W        W 1545  12.252  14.458  11.547
28478W        W 1546   3.572  30.961   1.380
28479W        W 1547  36.363  15.330  11.528
28480W        W 1548  44.015  24.615   3.219
28481W        W 1549  13.922  31.264   1.958
28482W        W 1550  24.166  38.188   2.638
28483W        W 1551   0.525  15.997   1.655
28484W        W 1552   9.857  31.601   2.630
28485W        W 1553  44.457  13.558  14.014
28486W        W 1554  32.013  37.555   5.147
28487W        W 1555  22.811   7.124  13.611
28488W        W 1556  26.445  36.189  14.906
28489W        W 1557  28.964   8.859  11.944
28490W        W 1558  40.291  11.400  13.937
28491W        W 1559  17.946  34.943  11.576
28492W        W 1560  27.029  29.174  12.418
28493W        W 1561  24.301  41.852   1.729
28494W        W 1562   7.669   5.483   4.223
28495W        W 1563  43.715  28.118   3.365
28496W        W 1564  37.275  22.546  11.933
28497W        W 1565  21.814  31.923  13.803
28498W        W 1566   8.269  32.008   3.702
28499W        W 1567  13.944  44.435  10.752
28500W        W 1568  35.452  42.493   3.603
28501W        W 1569  12.821   7.400  12.049
28502W        W 1570  36.525  17.625  12.938
28503W        W 1571  40.772  29.540   0.790
28504W        W 1572  22.561   0.478  10.244
28505W        W 1573  34.353  20.543  14.426
28506W        W 1574   5.355   3.288   4.192
28507W        W 1575  19.742   6.758  13.163
28508W        W 1576  17.690  17.593  13.292
28509W        W 1577  18.280   3.028  11.648
28510W        W 1578  21.007  41.080   3.329
28511W        W 1579  16.008  41.248   2.640
28512W        W 1580  28.483  16.271   0.077
28513W        W 1581  11.759  44.754   4.115
28514W        W 1582  29.853  43.015  14.893
28515W        W 1583  12.230  16.100   4.565
28516W        W 1584   0.899   2.060  11.045
28517W        W 1585   5.403  28.891  11.243
28518W        W 1586   6.332  43.721   3.834
28519W        W 1587  12.105  10.246   2.847
28520W        W 1588  31.721  16.371   1.292
28521W        W 1589  37.830  24.978  11.086
28522W        W 1590  39.073  15.587  14.209
28523W        W 1591  43.438   7.249   3.878
28524W        W 1592  37.537  34.048  12.566
28525W        W 1593  44.672  39.885  14.848
28526W        W 1594  43.586  15.482  14.994
28527W        W 1595  42.906   4.163  14.467
28528W        W 1596  32.706  34.599   2.267
28529W        W 1597  22.123  20.428  14.897
28530W        W 1598  43.339  10.975  12.457
28531W        W 1599  25.077   1.951   2.315
28532W        W 1600  37.805  32.962  12.828
28533W        W 1601  17.579  40.036  13.575
28534W        W 1602   7.326   7.727   0.924
28535W        W 1603  32.339  37.056   2.409
28536W        W 1604  43.465  31.522   4.120
28537W        W 1605  13.068  21.556  12.435
28538W        W 1606  37.378  28.865   0.623
28539W        W 1607  35.345  24.266   0.025
28540W        W 1608  17.819  16.580   1.606
28541W        W 1609   6.254  35.064   3.248
28542W        W 1610  42.808  44.077   3.130
28543W        W 1611  17.803   0.957  10.557
28544W        W 1612  14.520  12.051  10.537
28545W        W 1613  42.275  17.508  11.530
28546W        W 1614  38.989  24.779  12.949
28547W        W 1615   2.997   5.350  14.861
28548W        W 1616   5.790  43.393   0.860
28549W        W 1617  23.747  26.663  14.584
28550W        W 1618  23.199   0.250   3.226
28551W        W 1619   7.522  42.854   2.178
28552W        W 1620  19.493  16.668  12.908
28553W        W 1621  30.729  22.789  10.606
28554W        W 1622  26.447  42.067   3.676
28555W        W 1623   5.691   2.976  12.966
28556W        W 1624  33.408  20.501   2.725
28557W        W 1625  41.496  14.313  13.477
28558W        W 1626  27.629   6.673   0.377
28559W        W 1627   1.907  14.422   2.247
28560W        W 1628   1.683  22.799  10.976
28561W        W 1629  31.368  23.343  12.007
28562W        W 1630  22.060  14.797  14.910
28563W        W 1631  27.609  28.872  11.185
28564W        W 1632  23.956   2.603   2.048
28565W        W 1633   7.328  37.313   0.294
28566W        W 1634  32.925  30.898  12.377
28567W        W 1635  11.798  15.339  14.027
28568W        W 1636  18.705  29.823   3.337
28569W        W 1637  13.616   2.966  13.406
28570W        W 1638  41.938   6.588   4.104
28571W        W 1639  23.637  26.087   3.096
28572W        W 1640  17.629  24.432   3.592
28573W        W 1641  32.163  19.179  10.715
28574W        W 1642   4.182  22.784   2.580
28575W        W 1643  24.185  42.494   1.274
28576W        W 1644  43.331   5.774  13.294
28577W        W 1645   3.788   0.072   2.686
28578W        W 1646  42.918  23.975   4.246
28579W        W 1647   6.921  43.390  11.521
28580W        W 1648   1.283  18.786   3.177
28581W        W 1649  18.907  17.239  14.960
28582W        W 1650  28.506  36.008   0.434
28583W        W 1651  22.945  27.940  13.094
28584W        W 1652   6.971  22.039   3.725
28585W        W 1653  17.525  35.081  11.949
28586W        W 1654  23.910  11.781  11.636
28587W        W 1655  15.574   5.448  13.501
28588W        W 1656  12.825  13.294   3.272
28589W        W 1657  14.207  27.771   1.712
28590W        W 1658  37.399  14.369   4.618
28591W        W 1659   5.477   7.349  12.569
28592W        W 1660   0.737   8.736  12.229
28593W        W 1661   2.879  24.756  13.362
28594W        W 1662   4.691   1.652  11.197
28595W        W 1663  36.799  11.357  11.928
28596W        W 1664   9.486  38.780   1.941
28597W        W 1665  41.488  32.428  11.186
28598W        W 1666  44.836  31.598   2.770
28599W        W 1667   8.021  36.076  10.886
28600W        W 1668  25.258   2.672   3.692
28601W        W 1669  35.832   8.779  12.428
28602W        W 1670  28.661  32.099   0.456
28603W        W 1671   8.007  34.811   2.434
28604W        W 1672  38.627  32.922   2.930
28605W        W 1673   9.089  25.951  11.941
28606W        W 1674  11.115  34.920  12.727
28607W        W 1675  39.968  14.127  13.294
28608W        W 1676  21.607   8.797  13.490
28609W        W 1677  25.457   5.729  13.523
28610W        W 1678   5.456   7.370   2.183
28611W        W 1679  24.206  30.134   3.894
28612W        W 1680  29.613  36.550   0.900
28613W        W 1681  38.305  42.817   3.649
28614W        W 1682   3.481  13.012   1.358
28615W        W 1683  30.593  18.826   2.735
28616W        W 1684   2.611   5.804   4.558
28617W        W 1685  44.020  38.375   1.325
28618W        W 1686   5.597  40.936  13.538
28619W        W 1687  12.127   6.390   5.091
28620W        W 1688  40.209  15.057  13.461
28621W        W 1689  25.451  11.177   3.987
28622W        W 1690  13.652  19.115   1.808
28623W        W 1691  13.337  34.326   1.199
28624W        W 1692  42.765  32.799   2.354
28625W        W 1693  13.750  38.931  12.633
28626W        W 1694  24.217  21.515  12.818
28627W        W 1695  25.303   9.031  11.142
28628W        W 1696  34.553  26.897  10.800
28629W        W 1697  41.362  17.221  14.881
28630W        W 1698  20.226  32.485   4.153
28631W        W 1699   0.693   2.952  11.346
28632W        W 1700  29.691  37.351  10.242
28633W        W 1701  29.959   5.819   0.571
28634W        W 1702  21.534  10.993  14.938
28635W        W 1703  26.507  25.413   4.491
28636W        W 1704  43.909  23.102   4.212
28637W        W 1705  24.235  26.437  13.338
28638W        W 1706   9.783  27.938  11.452
28639W        W 1707  17.283  38.416   1.761
28640W        W 1708  39.712   0.436   2.818
28641W        W 1709  15.571   0.726  13.450
28642W        W 1710   4.787   3.719   3.190
28643W        W 1711  17.512  17.385  12.768
28644W        W 1712  10.385  25.070   4.087
28645W        W 1713  20.304  37.348  13.974
28646W        W 1714   8.470  40.808  13.741
28647W        W 1715  42.385  31.199   2.309
28648W        W 1716  15.400  22.585  12.590
28649W        W 1717  28.118  26.511  14.027
28650W        W 1718  37.117   9.710   3.588
28651W        W 1719  29.164  12.310  14.321
28652W        W 1720   1.860  29.052  13.395
28653W        W 1721   3.457  42.917  11.936
28654W        W 1722  35.289  23.139   2.437
28655W        W 1723   0.866  15.978   4.225
28656W        W 1724  18.549  32.339   3.696
28657W        W 1725   8.669   2.289   1.951
28658W        W 1726   5.675  43.741  14.483
28659W        W 1727  13.929  39.941   0.020
28660W        W 1728  40.826  13.764  10.727
28661W        W 1729  16.296  35.953   1.423
28662W        W 1730   3.237  34.330  14.992
28663W        W 1731   2.226  36.951   0.527
28664W        W 1732  31.456   1.200   0.812
28665W        W 1733  20.621  39.719   4.482
28666W        W 1734  27.472   5.249  11.117
28667W        W 1735  14.899   5.855  14.008
28668W        W 1736   9.214  11.567   4.013
28669W        W 1737   0.620  20.073   3.131
28670W        W 1738  22.808   8.410   4.071
28671W        W 1739  39.342   1.996   2.181
28672W        W 1740   7.686   3.587   1.994
28673W        W 1741  12.737  28.166   2.304
28674W        W 1742  11.655   9.182   4.644
28675W        W 1743  37.649   9.167   4.748
28676W        W 1744  20.995  31.671  10.919
28677W        W 1745  35.354  27.616  12.953
28678W        W 1746   1.245  14.611   2.257
28679W        W 1747   3.298  44.460  14.835
28680W        W 1748  14.714   1.877  14.305
28681W        W 1749   7.285  42.501  13.123
28682W        W 1750  30.506  13.146  13.518
28683W        W 1751  15.834  20.591   1.271
28684W        W 1752  35.022   1.490  12.506
28685W        W 1753  27.167  11.907  10.737
28686W        W 1754   2.720  34.435   1.860
28687W        W 1755  26.566  35.678  11.892
28688W        W 1756  11.516  18.680  13.832
28689W        W 1757  28.487  34.944   0.276
28690W        W 1758  24.370   1.130   3.132
28691W        W 1759  28.117  23.372  14.293
28692W        W 1760  37.589  34.594  12.543
28693W        W 1761   1.314  15.896  11.055
28694W        W 1762  21.083  20.190   4.130
28695W        W 1763   5.422   7.753   4.773
28696W        W 1764   4.136   3.951  14.367
28697W        W 1765  40.506  25.893   4.272
28698W        W 1766  24.673  19.340  12.961
28699W        W 1767  40.599  19.372   4.615
28700W        W 1768  15.889   9.870   1.780
28701W        W 1769  32.020  12.127   2.731
28702W        W 1770  37.413  11.116  12.525
28703W        W 1771   4.758  32.595   1.913
28704W        W 1772   8.958   6.624   2.147
28705W        W 1773  11.706  14.030  11.935
28706W        W 1774  33.029   0.246  11.585
28707W        W 1775  34.957  20.337   3.176
28708W        W 1776   9.049   2.286  13.871
28709W        W 1777   7.147   5.634  11.165
28710W        W 1778   2.757  28.815   0.852
28711W        W 1779   2.375  19.863  12.541
28712W        W 1780  20.430  37.904  13.043
28713W        W 1781  44.221  22.640  11.764
28714W        W 1782  43.165  44.492  13.392
28715W        W 1783  14.493  36.890  12.046
28716W        W 1784   4.211  10.804   4.476
28717W        W 1785   9.416  30.383   4.144
28718W        W 1786  22.900  41.338  14.827
28719W        W 1787   2.704  25.796  14.573
28720W        W 1788  34.682  26.098   0.389
28721W        W 1789  29.393  11.941   3.090
28722W        W 1790  31.028  40.313   1.293
28723W        W 1791  24.162  25.467   4.156
28724W        W 1792  43.365  13.278   0.261
28725W        W 1793   6.344  29.764  11.933
28726W        W 1794  29.930   2.819   2.674
28727W        W 1795  37.106  29.097   1.900
28728W        W 1796  39.433  12.368  12.286
28729W        W 1797  28.157  44.036   3.546
28730W        W 1798   6.821   9.218   3.407
28731W        W 1799   4.178  27.688  13.849
28732W        W 1800  26.159  33.921  14.928
28733W        W 1801  41.483  19.294   3.815
28734W        W 1802   0.642  17.634   3.629
28735W        W 1803  24.056   7.385   2.785
28736W        W 1804   8.237   6.222   4.329
28737W        W 1805  38.146  42.712  12.001
28738W        W 1806  10.575  37.087   3.792
28739W        W 1807  40.554   3.774   2.897
28740W        W 1808  13.265  20.525  13.391
28741W        W 1809  36.013   0.501   3.292
28742W        W 1810  31.015   4.498  13.579
28743W        W 1811  29.606  21.699   0.376
28744W        W 1812  36.409  39.594  12.695
28745W        W 1813   6.766  30.120  12.520
28746W        W 1814  43.582  24.373  12.385
28747W        W 1815  33.542  39.392   2.754
28748W        W 1816  43.298  31.544   1.923
28749W        W 1817  40.047  36.568   2.763
28750W        W 1818  44.888  16.157  11.726
28751W        W 1819  44.454  26.108   1.833
28752W        W 1820  25.523  16.282  13.176
28753W        W 1821  23.176  10.286   4.571
28754W        W 1822  31.491  31.719  10.484
28755W        W 1823  10.202   7.228   4.255
28756W        W 1824  16.252  15.912   0.812
28757W        W 1825  22.526  10.587  11.149
28758W        W 1826  31.076  40.820   1.352
28759W        W 1827  43.900  15.772  13.053
28760W        W 1828  43.556   2.512   4.853
28761W        W 1829  40.997  20.535  10.686
28762W        W 1830  14.774  26.641  12.999
28763W        W 1831  26.110  26.454   1.373
28764W        W 1832  16.846  44.598   3.701
28765W        W 1833  32.478  39.892   0.706
28766W        W 1834  15.115  10.741   3.697
28767W        W 1835  16.644  24.854  12.461
28768W        W 1836  14.199  43.115   4.628
28769W        W 1837  15.016   5.222   3.319
28770W        W 1838  37.211   0.511   4.925
28771W        W 1839   6.877   3.763   2.732
28772W        W 1840  35.016  36.660  12.835
28773W        W 1841   6.655  34.372  11.198
28774W        W 1842   5.711  29.533   2.797
28775W        W 1843  21.702  34.518   0.825
28776W        W 1844  37.847  41.479  11.161
28777W        W 1845  24.932  43.447   2.316
28778W        W 1846  12.089  27.081  14.954
28779W        W 1847   6.954  30.016   3.057
28780W        W 1848   8.406   0.883   4.120
28781W        W 1849  29.886   8.203  14.458
28782W        W 1850   8.299  10.320  11.339
28783W        W 1851   3.494   5.570  14.819
28784W        W 1852   4.448  21.718  14.753
28785W        W 1853  18.680  17.694   2.239
28786W        W 1854  30.509  41.667  13.004
28787W        W 1855  41.976   5.306   3.572
28788W        W 1856  19.697  42.768  10.774
28789W        W 1857  11.611  11.766  12.432
28790W        W 1858  43.512  15.426   3.594
28791W        W 1859  20.537   6.880  11.113
28792W        W 1860  40.111   3.894  12.435
28793W        W 1861  43.818  33.627  10.569
28794W        W 1862  21.473  25.174   2.694
28795W        W 1863  27.099  30.841   2.862
28796W        W 1864  16.719  13.207   4.512
28797W        W 1865  44.797  13.923  10.800
28798W        W 1866  36.582  44.423  10.776
28799W        W 1867   4.227  39.307  13.989
28800W        W 1868   0.036   6.786   1.680
28801W        W 1869  35.838  30.346   2.433
28802W        W 1870  22.998  13.713   3.404
28803W        W 1871  33.878  17.167  12.602
28804W        W 1872  11.703  17.545   1.586
28805W        W 1873  30.739  16.711  11.342
28806W        W 1874  42.053   5.926   4.801
28807W        W 1875  26.459  13.819  13.311
28808W        W 1876   0.423  29.460   4.043
28809W        W 1877  23.573   3.814   2.301
28810W        W 1878  16.164  15.572   0.417
28811W        W 1879  26.724  43.997   2.642
28812W        W 1880  26.182  12.366   1.330
28813W        W 1881   7.835  23.236   4.206
28814W        W 1882  20.539  38.068   3.770
28815W        W 1883  11.771   9.238  11.174
28816W        W 1884  20.739   0.837   2.751
28817W        W 1885  39.049   1.313  10.222
28818W        W 1886  35.441  16.112   1.891
28819W        W 1887  10.179  21.726   0.988
28820W        W 1888   1.727  18.212  13.984
28821W        W 1889  38.982  26.871   4.578
28822W        W 1890   4.701  38.344   4.172
28823W        W 1891  10.350  24.169   2.299
28824W        W 1892  34.493  25.578   4.076
28825W        W 1893   4.808  25.952   3.257
28826W        W 1894   1.255  20.782  11.195
28827W        W 1895   0.068  28.194  11.499
28828W        W 1896  35.507  40.798  13.073
28829W        W 1897  36.009  26.223  12.517
28830W        W 1898   7.839   8.187  11.313
28831W        W 1899  18.724  36.432  12.879
28832W        W 1900  34.432  25.428   2.293
28833W        W 1901  42.838  28.392   3.172
28834W        W 1902  20.239  18.087   1.866
28835W        W 1903  19.127  21.688  11.104
28836W        W 1904  21.076  28.829  14.632
28837W        W 1905  43.441  26.646   4.584
28838W        W 1906  22.029   5.300   2.232
28839W        W 1907  44.666   1.828   2.278
28840W        W 1908  32.505  15.235   1.275
28841W        W 1909  22.464  37.143   3.242
28842W        W 1910  17.726   6.739  11.632
28843W        W 1911  19.637  43.572   2.171
28844W        W 1912  29.085  31.454   2.369
28845W        W 1913  18.311   1.529   5.076
28846W        W 1914  15.092  20.151  10.900
28847W        W 1915  32.362  33.595   0.696
28848W        W 1916  20.254  31.923  13.879
28849W        W 1917  35.090  11.136  13.940
28850W        W 1918   6.326  14.187   3.693
28851W        W 1919   5.851  43.392  14.927
28852W        W 1920  23.068   5.925  11.502
28853W        W 1921  42.358  13.688  14.415
28854W        W 1922  24.239  26.667   2.872
28855W        W 1923  10.307  10.248   0.653
28856W        W 1924   5.214  39.488   4.405
28857W        W 1925  43.950  12.873  10.971
28858W        W 1926  40.739  16.061   1.257
28859W        W 1927   6.906   6.843   0.869
28860W        W 1928  32.008  19.511   4.825
28861W        W 1929   2.659  18.361  14.266
28862W        W 1930  38.538  22.004  12.264
28863W        W 1931  19.274   4.272  12.210
28864W        W 1932  30.704  17.579   2.213
28865W        W 1933   4.666  30.317  11.096
28866W        W 1934  20.216   5.171  14.329
28867W        W 1935  40.865  33.963   0.468
28868W        W 1936  38.904  12.168  10.376
28869W        W 1937   9.557   0.137   1.917
28870W        W 1938  37.263  43.386   2.200
28871W        W 1939   5.800   3.616   3.209
28872W        W 1940  12.847  35.565   1.126
28873W        W 1941   8.225  29.484  12.262
28874W        W 1942  41.012  19.238   4.155
28875W        W 1943  41.005  25.513   1.194
28876W        W 1944  38.842  17.127  10.663
28877W        W 1945  33.881   6.365   1.271
28878W        W 1946   9.228  42.795  10.571
28879W        W 1947  35.906  41.319   0.907
28880W        W 1948  35.658   4.372   3.662
28881W        W 1949  32.282   1.909   1.959
28882W        W 1950  25.185   4.335   2.851
28883W        W 1951   8.245  42.560  12.020
28884W        W 1952  39.279  13.424   3.681
28885W        W 1953  36.858   4.438   0.614
28886W        W 1954   4.428  27.265  13.448
28887W        W 1955  30.090  10.879  14.440
28888W        W 1956   4.686  44.834  12.612
28889W        W 1957  26.706  10.904   0.346
28890W        W 1958  35.689  37.171  14.076
28891W        W 1959   2.874  41.096   4.425
28892W        W 1960  39.978  27.661   0.922
28893W        W 1961  22.553  27.031  13.384
28894W        W 1962  27.527  43.512  11.185
28895W        W 1963  42.335   8.008  14.453
28896W        W 1964  36.959  40.098  11.649
28897W        W 1965  44.384   4.204   0.230
28898W        W 1966  33.035  38.066  12.918
28899W        W 1967   1.321  37.941  11.474
28900W        W 1968  26.616   5.304   2.674
28901W        W 1969  11.595  40.296  12.309
28902W        W 1970  12.406  20.789   4.034
28903W        W 1971  39.588  39.745  11.490
28904W        W 1972   5.718  21.817  11.208
28905W        W 1973   8.929  44.221  14.433
28906W        W 1974  17.685  19.567   1.846
28907W        W 1975  27.664   9.231  10.460
28908W        W 1976  28.204   9.550  14.799
28909W        W 1977  27.116  12.744   4.831
28910W        W 1978   3.247  36.424  11.858
28911W        W 1979  30.941  24.231   3.579
28912W        W 1980  37.815  14.302   1.148
28913W        W 1981   9.194  39.731  14.409
28914W        W 1982   1.328  31.113  13.926
28915W        W 1983  25.707  42.779   1.113
28916W        W 1984  22.978   5.826   4.524
28917W        W 1985   4.433  35.039  14.961
28918W        W 1986  30.938  29.097   3.839
28919W        W 1987  19.963  12.275   0.968
28920W        W 1988  12.664  16.475  13.455
28921W        W 1989  30.949  10.008   1.838
28922W        W 1990   7.469   3.659  11.251
28923W        W 1991  36.397  27.484  14.676
28924W        W 1992  35.782  19.791  13.463
28925W        W 1993  26.506  21.685   3.724
28926W        W 1994  14.683   4.136  11.510
28927W        W 1995   1.269  28.583   4.503
28928W        W 1996  36.313  27.944   3.290
28929W        W 1997   8.794  26.679  13.905
28930W        W 1998   2.275   3.682  12.195
28931W        W 1999   9.005   4.613  11.437
28932W        W 2000  29.121  14.497  13.333
28933W        W 2001  28.023   6.328   0.224
28934W        W 2002  19.521   0.147  13.709
28935W        W 2003   1.342   6.374  10.528
28936W        W 2004  10.388  19.572  10.680
28937W        W 2005  44.946  22.516   4.682
28938W        W 2006  30.380   1.938   3.196
28939W        W 2007  42.975  37.360   0.196
28940W        W 2008   1.816  37.615  13.894
28941W        W 2009  11.380  25.216  11.156
28942W        W 2010   8.402  39.856   2.770
28943W        W 2011  15.126  11.757   4.214
28944W        W 2012  23.651  26.606   4.778
28945W        W 2013  22.888   3.436  13.898
28946W        W 2014  18.074   7.547   2.439
28947W        W 2015  38.417   1.188   2.129
28948W        W 2016  38.002  22.351   1.881
28949W        W 2017  41.008  12.621   3.809
28950W        W 2018  37.886  22.069   3.887
28951W        W 2019   4.865  33.461  12.699
28952W        W 2020  20.766  13.596  13.912
28953W        W 2021  24.204  20.844   4.572
28954W        W 2022  12.890  32.049   0.995
28955W        W 2023  18.157  36.022  12.408
28956W        W 2024   5.857  27.894   0.029
28957W        W 2025   2.963  41.828   2.392
28958W        W 2026  38.615  42.240   0.369
28959W        W 2027  12.647  23.558  11.934
28960W        W 2028   3.327  22.679   0.004
28961W        W 2029   6.011  37.525   1.282
28962W        W 2030  22.667  38.218  10.514
28963W        W 2031  19.997  26.060   2.553
28964W        W 2032  12.766  19.506   2.430
28965W        W 2033  12.389  30.141  10.686
28966W        W 2034  43.886  26.175  11.636
28967W        W 2035  44.187  17.412   2.818
28968W        W 2036  29.842  29.499   0.360
28969W        W 2037  24.980  24.417   2.788
28970W        W 2038   1.125  18.982   0.943
28971W        W 2039  21.551  42.454   4.960
28972W        W 2040   0.026  21.648   1.380
28973W        W 2041  30.965  21.115   4.615
28974W        W 2042  15.862   6.264   2.290
28975W        W 2043  32.665  10.207   2.257
28976W        W 2044   7.840  11.319   1.845
28977W        W 2045  36.414  19.217   0.696
28978W        W 2046  25.414  20.313  10.758
28979W        W 2047   8.526   7.091  14.641
28980W        W 2048  36.863  26.639   2.785
28981W        W 2049   7.145  38.761  13.964
28982W        W 2050  32.995   4.096  14.936
28983W        W 2051  40.814  39.978  14.036
28984W        W 2052  36.371  10.831   2.673
28985W        W 2053  28.393  13.627   0.057
28986W        W 2054  19.596  20.585   1.533
28987W        W 2055   0.896  29.652   1.250
28988W        W 2056  21.188   8.630   2.685
28989W        W 2057  35.222  17.093  14.532
28990W        W 2058  10.201  44.893  11.227
28991W        W 2059  42.391  16.849   4.079
28992W        W 2060  41.404  16.955   9.997
28993W        W 2061  39.093   5.711   3.315
28994W        W 2062  43.839  22.644  12.127
28995W        W 2063  21.851   6.749  13.520
28996W        W 2064  35.815  40.959   4.308
28997W        W 2065  42.295  32.356   0.034
28998W        W 2066  38.056  19.486   2.165
28999W        W 2067   2.695  23.591   0.750
29000W        W 2068   7.003  32.522  11.165
29001W        W 2069  23.390  41.909   1.029
29002W        W 2070  10.635   8.622   0.043
29003W        W 2071  21.010  40.301  10.682
29004W        W 2072  32.645  13.078  14.279
29005W        W 2073   3.346  14.315  13.492
29006W        W 2074  16.537   7.271  12.507
29007W        W 2075  27.468   2.763   3.632
29008W        W 2076  16.367  21.327   1.272
29009W        W 2077  10.000  41.138   2.187
29010W        W 2078  23.290  17.336   4.246
29011W        W 2079  36.416  32.708   3.962
29012W        W 2080  10.450  25.858   3.802
29013W        W 2081  14.058  33.979  13.537
29014W        W 2082  11.211  17.330   4.056
29015W        W 2083  23.103  38.462  10.726
29016W        W 2084   8.816   3.225   0.923
29017W        W 2085  22.327  21.032   4.620
29018W        W 2086  29.659  43.218  14.035
29019W        W 2087  29.166  38.446  11.425
29020W        W 2088  38.936  34.222   2.911
29021W        W 2089  13.850   3.132  14.982
29022W        W 2090  34.640  23.533   3.712
29023W        W 2091  11.387   6.475   3.197
29024W        W 2092   0.828  39.979   2.756
29025W        W 2093  21.789  35.070   2.271
29026W        W 2094  20.457  13.564   2.838
29027W        W 2095  15.827  39.947   4.767
29028W        W 2096  40.804  32.166   2.326
29029W        W 2097  16.671   8.547  11.089
29030W        W 2098  37.144  30.767   0.360
29031W        W 2099  36.339   4.413   1.858
29032W        W 2100  26.456  42.743   0.386
29033W        W 2101  22.938  11.849   3.697
29034W        W 2102  16.398  41.831  12.474
29035W        W 2103  15.260  16.312   4.716
29036W        W 2104  12.288  36.736  13.034
29037W        W 2105   9.323  33.462   4.900
29038W        W 2106  11.291  35.853  12.322
29039W        W 2107  23.772   6.592  11.059
29040W        W 2108  41.469  13.417  14.302
29041W        W 2109  25.048   7.874   2.752
29042W        W 2110  22.718  36.777  14.472
29043W        W 2111   0.211   9.245   0.586
29044W        W 2112  18.992  10.642   3.766
29045W        W 2113  34.340  35.932   2.427
29046W        W 2114  40.907  22.297   4.162
29047W        W 2115   4.862  28.156  11.472
29048W        W 2116   6.824   7.690  13.830
29049W        W 2117   5.929  15.725   2.878
29050W        W 2118  21.784   9.608  13.022
29051W        W 2119   0.097  32.099   1.975
29052W        W 2120   4.673   7.394   3.309
29053W        W 2121  43.926  40.999   1.321
29054W        W 2122  25.162  40.308   0.347
29055W        W 2123  26.068  15.161  11.284
29056W        W 2124  29.630  22.659   2.745
29057W        W 2125  28.188   1.057  10.939
29058W        W 2126  18.764  39.766   0.919
29059W        W 2127  21.791  32.009  10.691
29060W        W 2128  35.988  17.115   3.687
29061W        W 2129   0.848  26.412   0.415
29062W        W 2130  18.747  44.346   0.909
29063W        W 2131  36.726  15.114   1.856
29064W        W 2132  30.882  20.804  14.915
29065W        W 2133  16.818  27.381  14.809
29066W        W 2134   8.918  28.232   2.394
29067W        W 2135   5.570  44.046   1.774
29068W        W 2136  26.968  27.900  13.814
29069W        W 2137  34.456  30.026  11.644
29070W        W 2138   9.919  23.626   1.817
29071W        W 2139  25.750   5.372  14.184
29072W        W 2140  27.351  28.363  11.178
29073W        W 2141   5.883  24.266  11.708
29074W        W 2142   0.815  42.189   3.170
29075W        W 2143  19.299  34.540  11.413
29076W        W 2144  34.658  14.556  10.324
29077W        W 2145  18.149  25.383   4.095
29078W        W 2146  11.102   1.566   0.875
29079W        W 2147  27.163   9.986  11.118
29080W        W 2148  40.614  20.216  14.591
29081W        W 2149   2.912  37.628   3.273
29082W        W 2150   5.376  20.338   1.614
29083W        W 2151   7.758  11.518   4.476
29084W        W 2152  37.825  24.585  13.425
29085W        W 2153  39.018  42.582  14.329
29086W        W 2154  35.223  41.610   0.492
29087W        W 2155  11.050  43.066   0.821
29088W        W 2156  42.745   5.993  11.089
29089W        W 2157  11.362  17.837  14.900
29090W        W 2158   0.570  13.125   2.749
29091W        W 2159  40.499  13.677  11.847
29092W        W 2160  28.447  15.665   0.149
29093W        W 2161  44.483  15.960  11.482
29094W        W 2162  10.835   6.054   2.687
29095W        W 2163  44.727   6.951  11.467
29096W        W 2164  29.731   9.834  12.264
29097W        W 2165  17.627  40.389   3.908
29098W        W 2166  30.977   3.481  10.832
29099W        W 2167   6.971  37.309   1.294
29100W        W 2168  30.073   3.519   0.762
29101W        W 2169  22.710   6.252  12.505
29102W        W 2170   7.940  43.506   2.082
29103W        W 2171  31.928  17.232   2.903
29104W        W 2172  16.122   9.357   2.839
29105W        W 2173   1.802  30.874  12.809
29106W        W 2174   7.060  40.513   2.846
29107W        W 2175  12.764  28.729  12.074
29108W        W 2176   7.094  32.281  12.094
29109W        W 2177  24.202  17.159  14.559
29110W        W 2178  36.251  35.099  11.870
29111W        W 2179   7.968  44.372   5.032
29112W        W 2180  16.219  36.108  12.531
29113W        W 2181  42.403  37.541   4.638
29114W        W 2182  22.231  21.795  14.377
29115W        W 2183  38.976  34.704   0.784
29116W        W 2184  10.109  29.930  14.565
29117W        W 2185  41.382   4.828  11.614
29118W        W 2186  39.449  38.749   9.925
29119W        W 2187  43.874   3.170   3.618
29120W        W 2188  16.286  14.625   3.691
29121W        W 2189  37.650  32.555   4.255
29122W        W 2190  36.889  26.663   3.676
29123W        W 2191  37.435  14.781   3.165
29124W        W 2192  23.012  42.973   1.888
29125W        W 2193  33.107  10.982  12.960
29126W        W 2194  43.994  36.306   3.637
29127W        W 2195  22.234   4.997   0.898
29128W        W 2196   0.838  20.289  13.005
29129W        W 2197  29.208  14.297   1.747
29130W        W 2198  27.675  28.479   3.055
29131W        W 2199   5.334  27.701  10.495
29132W        W 2200  30.010  13.839   2.255
29133W        W 2201  13.371   5.291  14.892
29134W        W 2202   3.773  22.667   1.250
29135W        W 2203  30.009   6.472   3.223
29136W        W 2204  39.114  38.554   3.292
29137W        W 2205  17.636   2.731   0.351
29138W        W 2206  40.538  13.588   4.148
29139W        W 2207  24.145  29.558  12.396
29140W        W 2208  42.733   7.573   3.267
29141W        W 2209  43.000  39.597   2.281
29142W        W 2210   5.935  39.417   2.756
29143W        W 2211  35.055  27.618   1.864
29144W        W 2212  40.090  30.115  10.615
29145W        W 2213   3.627  42.856  10.550
29146W        W 2214  20.626  37.848   0.807
29147W        W 2215  34.388  18.160   2.407
29148W        W 2216  20.556   7.334  14.501
29149W        W 2217   7.502  43.233  10.673
29150W        W 2218  11.963  36.470  13.361
29151W        W 2219   6.628  18.511   1.412
29152W        W 2220  26.762  30.893  14.341
29153W        W 2221  31.552  23.633  11.156
29154W        W 2222  20.026   4.698  14.467
29155W        W 2223  22.065  31.031  14.235
29156W        W 2224  36.040  33.383  10.218
29157W        W 2225  20.644  41.254   1.593
29158W        W 2226  43.337  14.365   3.427
29159W        W 2227  34.506  34.880  12.167
29160W        W 2228   3.702   5.732   3.643
29161W        W 2229  28.642  21.142   4.660
29162W        W 2230  11.794  42.209  13.490
29163W        W 2231  19.562   9.279  10.665
29164W        W 2232   2.414  22.855   4.234
29165W        W 2233  41.997  16.204   4.407
29166W        W 2234  28.568  13.013   2.371
29167W        W 2235  21.716  39.554  10.844
29168W        W 2236  27.043  21.193   2.387
29169W        W 2237  41.990  35.705  13.377
29170W        W 2238  36.836  41.412   4.692
29171W        W 2239   5.023   0.279   2.291
29172W        W 2240  34.227   0.011  14.216
29173W        W 2241  13.561  28.862  14.368
29174W        W 2242  14.692   4.104   0.040
29175W        W 2243  29.590   0.974   1.602
29176W        W 2244   0.916  24.500  14.367
29177W        W 2245  12.722  22.293  12.884
29178W        W 2246  36.004  41.842  13.515
29179W        W 2247  19.290  43.059  10.635
29180W        W 2248  12.766  43.364   2.762
29181W        W 2249   6.739  39.050  13.882
29182W        W 2250   6.810  34.380  12.444
29183W        W 2251  31.724  37.737   3.392
29184W        W 2252   4.519  13.836   3.861
29185W        W 2253   5.642   0.368  14.362
29186W        W 2254  35.111  23.029   4.899
29187W        W 2255   9.714  28.464  11.562
29188W        W 2256  42.850   9.100  13.967
29189W        W 2257  37.751  38.500   4.237
29190W        W 2258  24.200   8.345   3.067
29191W        W 2259   2.876  20.744  10.942
29192W        W 2260  44.297  14.841  10.564
29193W        W 2261  13.602  41.021  12.143
29194W        W 2262  44.015  43.477   3.810
29195W        W 2263  36.018   4.291  14.296
29196W        W 2264   2.451  31.062   2.760
29197W        W 2265  16.330  24.593  14.326
29198W        W 2266  16.155  33.668   1.823
29199W        W 2267  11.326  33.862  13.158
29200W        W 2268   8.246  27.546   2.957
29201W        W 2269  24.815  41.347  10.676
29202W        W 2270   7.702   5.309  12.535
29203W        W 2271  27.156  18.602   2.354
29204W        W 2272  33.873  42.554  13.452
29205W        W 2273   6.844  28.184  11.121
29206W        W 2274  28.671  23.008  13.978
29207W        W 2275  36.964  20.139  12.908
29208W        W 2276  23.930  10.465   1.758
29209W        W 2277  19.353  23.103   4.090
29210W        W 2278   4.322  23.483   0.090
29211W        W 2279  21.508  29.054  10.876
29212W        W 2280   6.227   6.698   2.287
29213W        W 2281  41.370  12.008   4.648
29214W        W 2282  21.126  31.563   4.641
29215W        W 2283  19.341  26.325  12.011
29216W        W 2284  30.599  14.333   0.375
29217W        W 2285  28.167   2.351   1.775
29218W        W 2286  39.448  15.173  13.394
29219W        W 2287   3.224  26.063   4.172
29220W        W 2288   5.591  16.545  11.676
29221W        W 2289  24.109  26.165   0.333
29222W        W 2290  33.068  42.258   2.446
29223W        W 2291  24.908   8.964  14.536
29224W        W 2292  12.832  14.770   2.578
29225W        W 2293  25.467  43.403   2.168
29226W        W 2294   5.744  31.566  11.336
29227W        W 2295  21.634  36.345  13.379
29228W        W 2296  37.329   4.823  11.801
29229W        W 2297  19.842  24.828  14.432
29230W        W 2298  34.827  10.162   2.768
29231W        W 2299  44.414   1.447   1.989
29232W        W 2300  14.097  36.403  12.935
29233W        W 2301  26.800  19.978  14.289
29234W        W 2302   6.774  37.058  13.358
29235W        W 2303  34.689  42.501  11.331
29236W        W 2304  11.195  28.161   4.795
29237W        W 2305  21.676  20.617   1.155
29238W        W 2306  20.503  43.363   4.589
29239W        W 2307  16.046  19.414  10.868
29240W        W 2308  13.325  17.550   3.233
29241W        W 2309   4.021  41.404  13.010
29242W        W 2310  22.930  39.612   2.848
29243W        W 2311  16.840  38.811  14.282
29244W        W 2312  36.927   0.014   3.247
29245W        W 2313   8.596   3.016  14.370
29246W        W 2314  13.236  35.953  10.890
29247W        W 2315  16.091  44.852  10.598
29248W        W 2316  21.962  15.784  14.267
29249W        W 2317  36.230  20.384   2.360
29250W        W 2318  38.558  42.043   2.913
29251W        W 2319  36.425  24.029  11.701
29252W        W 2320  35.004  37.117   3.848
29253W        W 2321  34.243  22.330   2.101
29254W        W 2322  11.411  33.508  10.016
29255W        W 2323   1.517  34.645   1.266
29256W        W 2324   2.867  32.562   0.686
29257W        W 2325  28.510  38.371   4.490
29258W        W 2326  32.468  25.213  10.740
29259W        W 2327  40.016  20.949   0.490
29260W        W 2328  30.785  42.274  12.051
29261W        W 2329  29.049   1.205  14.978
29262W        W 2330  19.139  36.542  14.038
29263W        W 2331  41.454  17.824   3.786
29264W        W 2332  32.765  30.393   0.173
29265W        W 2333  38.435  23.707  12.655
29266W        W 2334   5.368  34.065   2.085
29267W        W 2335  16.512  22.134  11.974
29268W        W 2336  10.311  42.555   1.376
29269W        W 2337  32.142  19.979   4.545
29270W        W 2338  25.996   4.193   0.721
29271W        W 2339  12.867  35.997   2.879
29272W        W 2340  40.801  24.200   1.343
29273W        W 2341  44.265  38.518   0.835
29274W        W 2342   9.017  12.354   2.279
29275W        W 2343  28.157   8.146   0.387
29276W        W 2344  44.833  44.553  11.587
29277W        W 2345  37.144  40.367  14.506
29278W        W 2346  23.478  18.794   0.746
29279W        W 2347  21.751  27.904  14.268
29280W        W 2348  43.287  37.439   2.527
29281W        W 2349  10.303  29.820  12.932
29282W        W 2350   0.281   8.549   0.005
29283W        W 2351  38.373   1.020  11.504
29284W        W 2352   5.203   1.658   2.199
29285W        W 2353  36.243  16.583  12.109
29286W        W 2354  13.555  28.339   3.782
29287W        W 2355  32.505  30.005   4.645
29288W        W 2356  15.863  24.052   3.830
29289W        W 2357   5.667  41.037   1.179
29290W        W 2358  32.671  40.836   4.677
29291W        W 2359  22.061   4.728  14.440
29292W        W 2360  33.069   7.401   4.352
29293W        W 2361  15.954  24.977  12.088
29294W        W 2362  12.620  29.704   3.250
29295W        W 2363  15.370  35.003  12.929
29296W        W 2364  28.416  25.229   3.941
29297W        W 2365  34.521  34.505   1.777
29298W        W 2366  20.524  34.366   1.177
29299W        W 2367  43.792  10.689  11.596
29300W        W 2368  16.105  26.397   3.594
29301W        W 2369   8.446  22.746  10.732
29302W        W 2370   5.385  34.651   0.982
29303W        W 2371  33.335  43.379   0.946
29304W        W 2372  36.103  42.510   4.255
29305W        W 2373  22.789  36.504  12.035
29306W        W 2374  16.540   8.769  14.847
29307W        W 2375  32.705  24.965   2.661
29308W        W 2376  27.186  16.198  12.619
29309W        W 2377   6.348  26.655   4.955
29310W        W 2378  28.057  21.249   1.906
29311W        W 2379  32.218  34.500  12.966
29312W        W 2380  21.986  17.035   3.908
29313W        W 2381   8.247   5.091  11.635
29314W        W 2382  32.381  13.724   4.835
29315W        W 2383  29.940   2.217   0.255
29316W        W 2384   7.111  25.278   4.466
29317W        W 2385  31.132   0.212  13.927
29318W        W 2386  27.435  43.769  14.353
29319W        W 2387  11.795  33.545   2.823
29320W        W 2388   0.871   1.788   1.372
29321W        W 2389  19.166  36.829   1.233
29322W        W 2390   2.255  33.015  14.985
29323W        W 2391  18.288  41.934  11.235
29324W        W 2392  24.213  31.080  13.852
29325W        W 2393  38.031  28.991   3.560
29326W        W 2394  41.073   0.270   3.694
29327W        W 2395  26.231  27.049   3.800
29328W        W 2396  28.883  15.496  12.107
29329W        W 2397  32.532  29.012   0.160
29330W        W 2398  28.987   0.694  10.604
29331W        W 2399   0.930   5.206  11.251
29332W        W 2400   3.921  15.863   4.166
29333W        W 2401  44.398  22.571   4.658
29334W        W 2402   4.482   5.317  14.455
29335W        W 2403  32.261  26.479   3.687
29336W        W 2404   3.499  14.468  13.953
29337W        W 2405  13.312  41.877   1.216
29338W        W 2406   0.767   5.736  12.518
29339W        W 2407   3.170  32.030   3.303
29340W        W 2408  41.483  31.045  13.838
29341W        W 2409  26.603  42.763   3.246
29342W        W 2410  11.248  42.927  14.460
29343W        W 2411  36.555  20.059   3.666
29344W        W 2412  26.020  15.169  10.780
29345W        W 2413  35.481   0.943   4.135
29346W        W 2414  16.471  30.618   3.413
29347W        W 2415  23.581  44.944   4.083
29348W        W 2416  40.391  33.908  14.469
29349W        W 2417  24.494  33.106  12.080
29350W        W 2418   1.162  33.216  10.462
29351W        W 2419   8.657  33.997   0.868
29352W        W 2420  35.869   3.217   1.779
29353W        W 2421  19.875  43.400   1.705
29354W        W 2422  22.130  28.156   0.962
29355W        W 2423  41.730   1.265  12.393
29356W        W 2424  24.062  15.357  13.820
29357W        W 2425  36.929  43.793  14.313
29358W        W 2426  23.144  39.936  12.379
29359W        W 2427  24.609   7.623   0.313
29360W        W 2428  12.961  38.752   4.061
29361W        W 2429  38.844  28.030  10.956
29362W        W 2430   1.980  32.894  12.410
29363W        W 2431  43.334  20.866   4.653
29364W        W 2432   1.503  30.924   4.918
29365W        W 2433  34.858  33.612  12.491
29366W        W 2434   0.242  14.458   2.338
29367W        W 2435   5.864  28.222   4.101
29368W        W 2436   4.786  39.461   1.837
29369W        W 2437  27.631  43.809  10.750
29370W        W 2438  30.538  43.750   2.135
29371W        W 2439  29.291  39.285  12.464
29372W        W 2440   1.909   9.095  14.368
29373W        W 2441  34.246  35.237   0.211
29374W        W 2442  44.990  35.665  14.957
29375W        W 2443  30.950   5.940   3.273
29376W        W 2444   9.671  18.675   1.249
29377W        W 2445  42.472  34.815   3.276
29378W        W 2446  11.195   8.130  11.710
29379W        W 2447  32.546   4.888   2.722
29380W        W 2448  19.864  11.200  12.100
29381W        W 2449  13.675  38.603  13.380
29382W        W 2450  15.969  41.163  13.881
29383W        W 2451  29.061   8.843   0.186
29384W        W 2452  36.419  31.697  12.468
29385W        W 2453  38.561  28.098   2.486
29386W        W 2454  11.347  20.698  10.071
29387W        W 2455  16.267  24.137  14.063
29388W        W 2456  13.631  12.259   2.716
29389W        W 2457  19.676  26.674  13.097
29390W        W 2458  32.143   8.332  12.559
29391W        W 2459  13.811  27.399   1.750
29392W        W 2460   0.422  39.376   2.905
29393W        W 2461  29.111  14.680   3.098
29394W        W 2462  41.857  33.551   4.354
29395W        W 2463  10.213  32.781   3.832
29396W        W 2464  30.478  35.058  13.397
29397W        W 2465  10.290  43.729   3.366
29398W        W 2466  30.451  21.291   4.633
29399W        W 2467  36.627  26.731   1.756
29400W        W 2468  44.443  25.355  10.216
29401W        W 2469  24.568  11.571   2.331
29402W        W 2470  19.089  15.772   3.260
29403W        W 2471  14.790  10.536  13.384
29404W        W 2472  41.719  37.151   0.414
29405W        W 2473  20.143  42.286  12.436
29406W        W 2474  17.740  26.866  11.654
29407W        W 2475  17.684   7.931   0.323
29408W        W 2476  24.052  11.625   2.344
29409W        W 2477  40.448   5.207   4.094
29410W        W 2478   0.371   5.797   4.662
29411W        W 2479  29.920   1.376   0.129
29412W        W 2480  12.377  11.099  12.356
29413W        W 2481   2.189  15.702   2.629
29414W        W 2482  21.935   4.251  11.018
29415W        W 2483  36.790  15.942  13.346
29416W        W 2484  38.394   7.644  12.953
29417W        W 2485   9.264  19.563   2.708
29418W        W 2486   8.730  44.523  10.631
29419W        W 2487  30.007  29.456   0.896
29420W        W 2488  10.399   0.489   2.798
29421W        W 2489  23.175  31.162   3.587
29422W        W 2490   1.237  31.033   1.643
29423W        W 2491  41.249  14.182  13.928
29424W        W 2492  15.167   5.966  12.468
29425W        W 2493  34.401  42.282  10.516
29426W        W 2494  40.964  24.684  12.415
29427W        W 2495   7.189   6.137  11.077
29428W        W 2496  31.115  23.858  10.511
29429W        W 2497  32.125  20.042  12.525
29430W        W 2498  18.770  13.171   1.764
29431W        W 2499  16.238   9.802  13.104
29432W        W 2500  14.099   3.368   0.454
29433W        W 2501   7.352  10.232   0.905
29434W        W 2502   9.396  27.100   0.412
29435W        W 2503  14.218  23.516   4.520
29436W        W 2504  12.343   0.518  12.044
29437W        W 2505   5.983   3.825  14.721
29438W        W 2506  15.512  32.072   4.223
29439W        W 2507  38.587   5.675  11.090
29440W        W 2508  16.301  22.661  14.321
29441W        W 2509  18.862  37.373   4.081
29442W        W 2510  33.637   6.350   1.753
29443W        W 2511   2.646  43.731  14.540
29444W        W 2512  13.272  40.929  12.547
29445W        W 2513  36.513  10.134  13.152
29446W        W 2514  38.303  19.152   0.368
29447W        W 2515  15.337  42.830   4.125
29448W        W 2516   6.598   8.098  13.596
29449W        W 2517  16.753  21.533   3.112
29450W        W 2518  28.172  33.543   1.882
29451W        W 2519  42.857  18.124   0.375
29452W        W 2520  13.270  41.737  13.300
29453W        W 2521  14.164  27.061   4.146
29454W        W 2522  41.691  37.115  13.835
29455W        W 2523  20.834  13.430  11.328
29456W        W 2524  13.110  14.988  13.349
29457W        W 2525  38.608  29.973  12.217
29458W        W 2526  23.743  24.900  11.022
29459W        W 2527  18.700  14.772   0.362
29460W        W 2528  22.586  41.717  11.660
29461W        W 2529  41.383  40.653   1.186
29462W        W 2530  42.871   2.811  11.497
29463W        W 2531  27.206  30.449  12.023
29464W        W 2532  24.723  18.190   1.910
29465W        W 2533  32.208   3.755   4.620
29466W        W 2534   6.655  44.990  12.419
29467W        W 2535  10.108   1.678  14.394
29468W        W 2536  44.332  26.617  10.676
29469W        W 2537  11.593  44.006  13.766
29470W        W 2538  13.237  26.097   4.282
29471W        W 2539  12.814  21.469  13.415
29472W        W 2540  41.385  36.765   1.342
29473W        W 2541  29.863  30.902  14.417
29474W        W 2542  29.704  11.267   0.832
29475W        W 2543  43.559  33.358  13.785
29476W        W 2544  44.666  36.209  12.947
29477W        W 2545   2.810  42.341  13.474
29478W        W 2546   3.593  21.602   2.484
29479W        W 2547  35.252  35.361  11.340
29480W        W 2548   0.706  37.547  13.508
29481W        W 2549  20.883  17.197  10.498
29482W        W 2550  15.267  19.745   3.158
29483W        W 2551   4.951  10.839  12.199
29484W        W 2552  35.030  20.695  11.922
29485W        W 2553   2.340  24.098  12.463
29486W        W 2554   3.801  14.290  13.113
29487W        W 2555   6.027  26.678  14.495
29488W        W 2556  37.160  29.618   1.903
29489W        W 2557  39.128  20.134   2.814
29490W        W 2558  20.129  44.946   1.806
29491W        W 2559   9.288  36.067  12.586
29492W        W 2560  11.130  19.628  14.012
29493W        W 2561  12.615  24.450  12.953
29494W        W 2562  27.230   4.159  12.610
29495W        W 2563  10.653  22.324   0.485
29496W        W 2564   4.266  28.577   1.622
29497W        W 2565  30.116   7.877  14.076
29498W        W 2566  39.446  19.345   3.974
29499W        W 2567  16.288  39.740   4.946
29500W        W 2568  12.912  26.955  13.054
29501W        W 2569   2.524  38.801   2.744
29502W        W 2570  31.603  12.775   1.597
29503W        W 2571  18.062  42.464   4.652
29504W        W 2572  39.324  22.039   2.777
29505W        W 2573   1.444   3.464  11.995
29506W        W 2574  39.942   4.833   2.865
29507W        W 2575  16.670  40.829  11.167
29508W        W 2576   1.247   4.926   1.372
29509W        W 2577  31.180  18.691  12.954
29510W        W 2578   4.979   8.631   3.665
29511W        W 2579  21.100  38.801  12.421
29512W        W 2580  21.844  22.268   4.061
29513W        W 2581  31.065  17.222   3.849
29514W        W 2582  20.763  35.700  11.980
29515W        W 2583  36.688  25.005  11.447
29516W        W 2584  13.054  44.921  12.143
29517W        W 2585  15.242  34.761   4.922
29518W        W 2586  36.464  33.973  12.787
29519W        W 2587  24.144  39.882  13.019
29520W        W 2588  39.461  29.536  12.608
29521W        W 2589  17.133  42.927  13.527
29522W        W 2590  31.984   4.327  11.966
29523W        W 2591  19.645  26.389   0.057
29524W        W 2592   4.804  41.761  14.767
29525W        W 2593   8.227  31.622   4.780
29526W        W 2594  42.582  20.174   4.359
29527W        W 2595  39.444  22.738  13.353
29528W        W 2596  11.411   3.254  12.336
29529W        W 2597   9.090   8.140  11.745
29530W        W 2598   7.280  43.515   0.976
29531W        W 2599  16.085  18.783  11.458
29532W        W 2600  40.493   2.755   1.080
29533W        W 2601  24.210  31.987   3.635
29534W        W 2602  32.678  26.843  14.895
29535W        W 2603  23.638  19.117  10.212
29536W        W 2604  12.162  43.395   1.672
29537W        W 2605  37.934  18.701   0.989
29538W        W 2606  37.848  11.875   4.335
29539W        W 2607  42.456  17.599   4.478
29540W        W 2608  14.495   0.377   1.112
29541W        W 2609   8.850  33.030  12.462
29542W        W 2610   1.303  44.980  12.446
29543W        W 2611  25.395  38.327   1.374
29544W        W 2612   9.409  12.427  12.424
29545W        W 2613  17.153   1.739  14.880
29546W        W 2614   6.724  33.169  12.948
29547W        W 2615  21.329  17.706   4.197
29548W        W 2616  42.829  30.520  12.432
29549W        W 2617  15.585  13.584  14.643
29550W        W 2618  34.172  25.676  13.006
29551W        W 2619  26.535  35.708   2.202
29552W        W 2620   2.765  19.467   4.203
29553W        W 2621  34.924  30.589   4.555
29554W        W 2622  28.935  27.525   3.938
29555W        W 2623  30.256  37.272  12.516
29556W        W 2624  41.390   1.444   0.035
29557W        W 2625  17.292  41.623   3.134
29558W        W 2626  30.123  25.170  10.939
29559W        W 2627  38.480  11.633   1.123
29560W        W 2628   8.861   7.020   3.260
29561W        W 2629  30.355   5.464  11.364
29562W        W 2630  36.813   4.404  12.134
29563W        W 2631  15.653  36.579   4.591
29564W        W 2632  17.399  35.324  10.983
29565W        W 2633   5.932  20.509  12.881
29566W        W 2634   5.886  12.333   1.814
29567W        W 2635  30.495  10.508  14.481
29568W        W 2636   2.611  36.065  11.041
29569W        W 2637  29.448  37.399   1.405
29570W        W 2638  24.510  14.856  11.832
29571W        W 2639  41.344  24.317  12.557
29572W        W 2640  12.282  11.548  11.734
29573W        W 2641  31.571  23.902  12.775
29574W        W 2642  41.343   3.386   3.669
29575W        W 2643   3.934   2.707   0.799
29576W        W 2644  31.571   0.268  12.553
29577W        W 2645  17.570   9.032  11.078
29578W        W 2646  38.495  31.403   0.406
29579W        W 2647  38.776  42.560  13.423
29580W        W 2648  41.381  20.686  13.383
29581W        W 2649   0.270  24.521   0.749
29582W        W 2650   0.673  31.477   2.775
29583W        W 2651  43.016   3.961  10.701
29584W        W 2652  44.116   2.403   0.372
29585W        W 2653  33.955  12.944   2.622
29586W        W 2654   6.438  26.071   3.732
29587W        W 2655   3.322  21.843  13.146
29588W        W 2656  13.614  19.122   0.804
29589W        W 2657  20.215  30.509   4.092
29590W        W 2658  33.373  40.098   0.846
29591W        W 2659  24.511  24.046   2.287
29592W        W 2660   0.472   0.444   0.000
29593W        W 2661   7.732  33.648   1.375
29594W        W 2662  29.301  42.097   1.786
29595W        W 2663   1.524  23.941  11.560
29596W        W 2664   0.506  15.347  10.924
29597W        W 2665   2.345  27.105  14.269
29598W        W 2666  43.349  26.637   0.895
29599W        W 2667   8.633  31.882   4.057
29600W        W 2668  26.621   7.700   3.424
29601W        W 2669   6.209  27.092  12.650
29602W        W 2670  15.489  39.345   3.329
29603W        W 2671  38.508  29.475   1.863
29604W        W 2672   6.173   8.829  13.012
29605W        W 2673  17.892   7.134   2.165
29606W        W 2674   5.995  40.894   0.766
29607W        W 2675  23.500  42.167  13.394
29608W        W 2676  10.573   0.334  13.370
29609W        W 2677  41.802  23.867   3.599
29610W        W 2678  40.347  37.004   2.708
29611W        W 2679  31.458  29.912  11.508
29612W        W 2680  39.944  32.082  14.415
29613W        W 2681  19.519   3.278   3.230
29614W        W 2682  17.705   5.269   0.839
29615W        W 2683   3.952   5.663  12.926
29616W        W 2684  36.616  44.773  10.362
29617W        W 2685   2.177  13.608  12.201
29618W        W 2686  22.064  10.006   3.799
29619W        W 2687  34.929  35.472  13.981
29620W        W 2688  39.363  43.553  10.613
29621W        W 2689  19.877  32.358  11.552
29622W        W 2690  42.926  24.504  11.406
29623W        W 2691  33.424  21.629  12.655
29624W        W 2692  13.072  11.655   2.355
29625W        W 2693  26.921   7.417   0.134
29626W        W 2694   5.833   0.360  14.835
29627W        W 2695  20.353  41.408   3.986
29628W        W 2696  25.955  29.446  12.429
29629W        W 2697  36.346  24.568   4.748
29630W        W 2698   6.191   7.735   1.380
29631W        W 2699   3.458  37.429   2.592
29632W        W 2700   3.150  41.061  11.618
29633W        W 2701  26.848  24.776  13.874
29634W        W 2702   8.917   2.849   3.264
29635W        W 2703  11.295  44.284  13.420
29636W        W 2704  26.499  38.097  11.931
29637W        W 2705   4.583   1.504  13.936
29638W        W 2706  21.600  30.799  14.307
29639W        W 2707  27.830  18.452   4.848
29640W        W 2708  43.052   1.756   1.853
29641W        W 2709  38.994   6.451   5.106
29642W        W 2710  14.483   1.398   4.672
29643W        W 2711  41.363  24.901  14.746
29644W        W 2712   7.404  40.045  14.448
29645W        W 2713   8.311  31.452  12.964
29646W        W 2714   2.483  10.137   1.656
29647W        W 2715  42.136  15.207  14.774
29648W        W 2716  28.885  28.222  11.482
29649W        W 2717  39.089  42.796   4.528
29650W        W 2718  42.561  15.205  10.645
29651W        W 2719   9.057  40.392  10.711
29652W        W 2720  21.320  42.962  12.122
29653W        W 2721   4.844   6.579  11.743
29654W        W 2722  25.373  24.211  14.884
29655W        W 2723  32.612   5.192   3.139
29656W        W 2724  38.892  44.555  13.446
29657W        W 2725  29.439   1.159  11.152
29658W        W 2726  30.473  40.774  12.779
29659W        W 2727  17.627  41.869  10.796
29660W        W 2728   6.829   0.066  14.102
29661W        W 2729  31.444  20.202   1.223
29662W        W 2730  20.462  43.435   0.857
29663W        W 2731  16.600  21.897  13.578
29664W        W 2732  12.540  14.764   3.806
29665W        W 2733  41.768  43.866  12.772
29666W        W 2734   5.295  34.058  11.013
29667W        W 2735  43.912  43.057   0.977
29668W        W 2736  28.478  21.978   0.825
29669W        W 2737  14.742  29.554   1.098
29670W        W 2738  33.902  39.701   3.639
29671W        W 2739  35.097  20.990  13.881
29672W        W 2740  38.538  22.615  12.963
29673W        W 2741  22.196  16.152   4.537
29674W        W 2742  12.117  16.133   3.684
29675W        W 2743   3.439  30.430  11.593
29676W        W 2744  43.832  43.873  10.702
29677W        W 2745  25.394  42.216  13.839
29678W        W 2746   1.424  27.139   2.095
29679W        W 2747  26.862  10.818   1.157
29680W        W 2748  22.896  42.311   0.370
29681W        W 2749   1.490   3.857   1.900
29682W        W 2750  14.594  20.163   4.884
29683W        W 2751  31.233  27.060   3.278
29684W        W 2752  33.301  25.087  13.893
29685W        W 2753  19.661   3.397  10.699
29686W        W 2754  34.325  42.267  13.510
29687W        W 2755  39.791  43.879  11.605
29688W        W 2756  23.050  44.863  14.892
29689W        W 2757  32.134  24.691  13.493
29690W        W 2758  40.919  20.151   3.874
29691W        W 2759   6.165  26.679  13.348
29692W        W 2760  11.209  37.873  12.707
29693W        W 2761  26.714   4.958  12.331
29694W        W 2762   6.098  36.609  14.511
29695W        W 2763  29.164  39.125   2.585
29696W        W 2764   9.300  24.714   0.744
29697W        W 2765  34.024  20.244  12.874
29698W        W 2766  13.439  40.006   4.930
29699W        W 2767   7.022  36.966  12.813
29700W        W 2768   5.502  28.591  14.619
29701W        W 2769  44.384  23.635  11.573
29702W        W 2770  27.453  37.836   0.455
29703W        W 2771  24.267  27.120  12.099
29704W        W 2772  34.489  36.904   4.690
29705W        W 2773  18.020   3.666   2.574
29706W        W 2774  28.960  34.144   1.541
29707W        W 2775  21.333  21.061   0.318
29708W        W 2776  38.575  15.746  13.986
29709W        W 2777  21.822   0.230   3.577
29710W        W 2778  38.007  26.190   2.185
29711W        W 2779  12.903  28.990  10.339
29712W        W 2780  14.427  11.655  14.908
29713W        W 2781  14.064  17.659   4.059
29714W        W 2782   1.057  23.584  12.000
29715W        W 2783  11.560   6.674   1.399
29716W        W 2784  32.165  41.771  11.124
29717W        W 2785   7.416  23.996  12.696
29718W        W 2786  38.769   6.518   3.648
29719W        W 2787  10.168  32.381   4.217
29720W        W 2788  41.840  22.576   0.823
29721W        W 2789  10.706   2.262   4.337
29722W        W 2790  32.631  32.325   0.429
29723W        W 2791  25.563  29.372   1.284
29724W        W 2792   1.189   8.587  14.380
29725W        W 2793  32.135   3.740  14.953
29726W        W 2794  35.217  34.154  13.377
29727W        W 2795  26.586   7.196  14.062
29728W        W 2796  25.752  36.032  11.766
29729W        W 2797   7.226  42.968  11.856
29730W        W 2798  30.908   4.729   4.505
29731W        W 2799  32.338   7.793   1.951
29732W        W 2800   3.384   7.874  10.618
29733W        W 2801   3.927  40.937   0.850
29734W        W 2802  27.176  31.492   1.642
29735W        W 2803  41.760  11.731  12.556
29736W        W 2804  36.507  34.140   3.739
29737W        W 2805   5.872  43.529  14.018
29738W        W 2806  25.493  19.801  12.007
29739W        W 2807  35.953  40.482   0.932
29740W        W 2808   0.393  42.240   0.262
29741W        W 2809  31.438  11.058   2.770
29742W        W 2810   5.604  27.116  11.781
29743W        W 2811  22.762  16.645  11.137
29744W        W 2812  11.648  38.799   4.128
29745W        W 2813  24.579  10.365  11.013
29746W        W 2814  27.572  39.491  12.210
29747W        W 2815  21.752  40.398  12.963
29748W        W 2816   8.225  14.840   3.098
29749W        W 2817  41.004  19.086  13.042
29750W        W 2818  33.777  33.692  10.580
29751W        W 2819  34.320  22.191  10.313
29752W        W 2820  36.928   7.361  13.486
29753W        W 2821   2.407  24.383   0.371
29754W        W 2822  12.961  17.865   1.798
29755W        W 2823  36.851   8.369   3.391
29756W        W 2824   7.425   7.546  12.019
29757W        W 2825   4.957  24.142   4.224
29758W        W 2826  18.569  26.492   1.288
29759W        W 2827   3.769  17.243   2.924
29760W        W 2828  42.166  38.575  12.109
29761W        W 2829  28.555  15.682   3.900
29762W        W 2830  40.788   9.148  13.568
29763W        W 2831   4.269  23.904   1.310
29764W        W 2832  38.503   9.675  11.629
29765W        W 2833  16.140   2.005  14.701
29766W        W 2834  28.870   7.383   0.284
29767W        W 2835  17.276  17.681  10.693
29768W        W 2836  28.048  16.260  12.897
29769W        W 2837  39.943   7.980  11.603
29770W        W 2838  11.819   5.330  11.511
29771W        W 2839  17.198  22.294  14.095
29772W        W 2840  29.205  44.391  11.972
29773W        W 2841  14.890   2.265  12.505
29774W        W 2842  31.865  22.039   0.404
29775W        W 2843   4.136  12.861  12.903
29776W        W 2844  27.932   4.386  14.914
29777W        W 2845   6.320  15.288  12.395
29778W        W 2846  38.188  29.055   0.299
29779W        W 2847  36.593  18.721   0.772
29780W        W 2848  33.040  35.640   0.010
29781W        W 2849   5.630  23.729   4.693
29782W        W 2850  20.256  30.887   2.358
29783W        W 2851  16.883  28.952  13.449
29784W        W 2852  24.997  24.910  13.884
29785W        W 2853  16.098  12.652  13.284
29786W        W 2854  29.319  15.803  13.106
29787W        W 2855  24.413  27.588  12.231
29788W        W 2856  29.595  16.330   4.405
29789W        W 2857   8.012  16.890   1.825
29790W        W 2858  32.325  21.993  10.768
29791W        W 2859  31.736   6.725  11.968
29792W        W 2860  14.185   7.395  13.924
29793W        W 2861  30.131  28.917  13.010
29794W        W 2862  35.530  20.509  11.508
29795W        W 2863  12.892  13.751  13.755
29796W        W 2864  30.807  33.970   0.372
29797W        W 2865  19.007  31.652  13.811
29798W        W 2866   0.293  38.460   2.256
29799W        W 2867  38.621  14.280  12.541
29800W        W 2868   2.761  30.747  11.038
29801W        W 2869  28.463  23.363  13.660
29802W        W 2870  41.096  24.305   4.233
29803W        W 2871  20.996  28.099   1.271
29804W        W 2872  14.312  18.161  14.288
29805W        W 2873  23.820  16.573   2.634
29806W        W 2874  36.408  10.455  11.633
29807W        W 2875  21.672   0.399  13.119
29808W        W 2876  31.471  16.119   2.168
29809W        W 2877  31.555  38.289   4.212
29810W        W 2878  30.952  40.647   0.867
29811W        W 2879   6.489  13.475  13.806
29812W        W 2880  31.401  31.608  13.011
29813W        W 2881  21.599  26.011  13.584
29814W        W 2882  42.557  43.711  14.370
29815W        W 2883  25.530  34.002  13.073
29816W        W 2884  10.282  18.984   3.728
29817W        W 2885  42.993  43.972  14.409
29818W        W 2886  20.047  22.506   1.429
29819W        W 2887  23.211  44.872   1.357
29820W        W 2888  35.315  29.385  12.152
29821W        W 2889  41.677  27.115   3.777
29822W        W 2890  39.053  34.605   1.669
29823W        W 2891  22.577  23.085  10.880
29824W        W 2892  34.017  23.322   1.881
29825W        W 2893  40.410   5.600  12.928
29826W        W 2894   6.875  10.790   1.870
29827W        W 2895  19.683  11.702  13.897
29828W        W 2896   7.737  32.927  13.265
29829W        W 2897  40.998  15.272   4.234
29830W        W 2898  25.749  16.300   0.918
29831W        W 2899   0.311  25.995  13.868
29832W        W 2900  14.072  38.950  12.185
29833W        W 2901  28.166  35.855   2.763
29834W        W 2902  10.242   1.047   5.015
29835W        W 2903  29.562  12.380   1.279
29836W        W 2904  22.212  32.413   2.206
29837W        W 2905  11.594  25.186   2.419
29838W        W 2906  38.452  27.742   4.672
29839W        W 2907   4.938  23.244   2.888
29840W        W 2908  14.226  15.859  13.366
29841W        W 2909  20.593  23.233   4.790
29842W        W 2910  22.161  11.067   3.712
29843W        W 2911  13.117  10.182  13.381
29844W        W 2912   1.950  39.553   1.321
29845W        W 2913  17.151  22.792   4.592
29846W        W 2914  42.328   0.401   0.641
29847W        W 2915  16.642  27.394   0.756
29848W        W 2916  17.757  15.274   4.158
29849W        W 2917   3.406  36.836  14.446
29850W        W 2918   9.573  11.949  12.407
29851W        W 2919  40.613  15.034  10.741
29852W        W 2920  40.402  39.040   1.356
29853W        W 2921  34.493  18.603  10.713
29854W        W 2922   5.416   1.885  11.361
29855W        W 2923  32.072  19.519   4.316
29856W        W 2924   9.550  26.663  10.283
29857W        W 2925  40.551  36.773  12.937
29858W        W 2926  42.959  43.962   2.235
29859W        W 2927  40.114  37.959   0.745
29860W        W 2928   5.874  33.331   0.953
29861W        W 2929   8.289   4.609  11.454
29862W        W 2930   8.273  36.775   4.563
29863W        W 2931  24.466  35.520   3.751
29864W        W 2932  18.401  18.980   1.665
29865W        W 2933  21.336  17.236  12.995
29866W        W 2934  11.720  27.684   3.260
29867W        W 2935  43.919   8.117   4.071
29868W        W 2936  40.001  27.856   2.271
29869W        W 2937  31.564  13.405  11.244
29870W        W 2938  33.568   2.339   1.796
29871W        W 2939  39.046  44.862   0.928
29872W        W 2940   1.490  33.546   4.797
29873W        W 2941  26.881  22.580  13.931
29874W        W 2942   6.348  38.032   4.690
29875W        W 2943   1.864  21.976   2.350
29876W        W 2944  15.595  41.806  10.666
29877W        W 2945  29.189  43.822   4.377
29878W        W 2946  38.789  37.550   0.031
29879W        W 2947   8.158  22.710   1.452
29880W        W 2948  31.242   4.479   2.184
29881W        W 2949  37.958  37.564  10.487
29882W        W 2950  26.590  44.896   4.077
29883W        W 2951  30.895  37.821   0.499
29884W        W 2952  25.035  29.379   1.805
29885W        W 2953  36.296  33.444   5.084
29886W        W 2954  43.457   3.383  13.015
29887W        W 2955  38.040   5.009  11.566
29888W        W 2956   2.431  34.526  13.825
29889W        W 2957   7.673  41.944  11.136
29890W        W 2958  13.064  39.843   0.738
29891W        W 2959   5.711  42.388   2.862
29892W        W 2960  28.966  18.823  13.058
29893W        W 2961  42.262  40.947  14.076
29894W        W 2962  14.085  16.272   4.090
29895W        W 2963   3.488  30.400  14.274
29896W        W 2964  17.063  30.096  14.187
29897W        W 2965  26.489  31.880   0.431
29898W        W 2966  34.880  41.795   2.272
29899W        W 2967  44.795  41.048   3.674
29900W        W 2968  43.753  12.668  11.396
29901W        W 2969  40.280  40.848  11.993
29902W        W 2970  40.866  42.857   1.940
29903W        W 2971  18.474  30.618  14.507
29904W        W 2972  33.049  40.255   3.595
29905W        W 2973  27.496  21.557   3.305
29906W        W 2974  38.929  38.910  11.773
29907W        W 2975  38.869   6.949  13.536
29908W        W 2976  11.332  29.114  13.944
29909W        W 2977  14.354  43.014   2.894
29910W        W 2978  37.341  37.793  12.761
29911W        W 2979  34.801  21.042   0.195
29912W        W 2980   4.521  16.677  14.921
29913W        W 2981  16.825  38.943  10.497
29914W        W 2982  13.873   6.386   4.624
29915W        W 2983  19.536  18.273   1.302
29916W        W 2984  26.983  26.138   4.825
29917W        W 2985   2.773  40.934   1.276
29918W        W 2986   8.493  29.940  12.424
29919W        W 2987  19.608   7.675  13.594
29920W        W 2988  28.581  18.653  12.452
29921W        W 2989   0.045  22.559   3.797
29922W        W 2990   7.573   6.196  11.927
29923W        W 2991   9.144  42.425   0.431
29924W        W 2992  40.003  14.935  11.064
29925W        W 2993  17.009  27.204  14.357
29926W        W 2994  22.783   0.745  11.906
29927W        W 2995  20.463   6.787  14.978
29928W        W 2996  40.045   8.690  13.934
29929W        W 2997  16.160  15.532  12.493
29930W        W 2998  29.356   9.877   0.921
29931W        W 2999  41.731  44.277   1.486
29932W        W 3000  11.112  28.151   2.772
29933W        W 3001  30.674  25.006   0.836
29934W        W 3002  19.467  44.594   2.944
29935W        W 3003  29.732  38.523  13.158
29936W        W 3004  31.065  16.142   0.357
29937W        W 3005  17.002  13.259   3.373
29938W        W 3006  31.393   7.515   4.158
29939W        W 3007   1.019  35.873  12.468
29940W        W 3008  28.731  30.682  11.128
29941W        W 3009  20.531  42.572   3.863
29942W        W 3010  17.790  44.614   3.672
29943W        W 3011  18.960  31.916  11.646
29944W        W 3012   4.375   2.348  12.952
29945W        W 3013   0.316  27.558   2.344
29946W        W 3014   5.490  23.940  11.158
29947W        W 3015  19.142   9.892  13.292
29948W        W 3016   3.826  27.157  11.177
29949W        W 3017  24.149  34.420  14.034
29950W        W 3018  19.557  18.356   4.569
29951W        W 3019  44.005  31.621   2.728
29952W        W 3020   9.586   3.914  13.176
29953W        W 3021  41.374  13.565  14.789
29954W        W 3022  27.164  38.589  10.622
29955W        W 3023  39.686  41.631  14.325
29956W        W 3024   9.771  24.553  14.300
29957W        W 3025  15.207   9.783  12.560
29958W        W 3026  37.860  19.704   4.157
29959W        W 3027   9.917  37.457  12.451
29960W        W 3028  24.284  34.521  12.847
29961W        W 3029  10.108  33.037  12.121
29962W        W 3030  14.048  41.577  10.220
29963W        W 3031  18.477  27.038  11.017
29964W        W 3032   8.354  39.771   5.012
29965W        W 3033  37.598  30.233  12.356
29966W        W 3034   8.332  42.850   0.590
29967W        W 3035  43.009   7.293  14.868
29968W        W 3036  26.100  34.655  13.605
29969W        W 3037  36.094  18.193  10.754
29970W        W 3038  37.883  32.093  13.864
29971W        W 3039  38.857  20.728   1.746
29972W        W 3040  39.016  31.027   2.382
29973W        W 3041  33.507  42.985  11.409
29974W        W 3042  44.084  30.087  12.454
29975W        W 3043   2.391  16.882   4.061
29976W        W 3044  27.766   9.242   2.420
29977W        W 3045  29.958  41.436  13.611
29978W        W 3046   8.779  36.196  12.602
29979W        W 3047  41.488  27.790   2.785
29980W        W 3048  36.595  25.652  12.018
29981W        W 3049  35.527   4.685   3.194
29982W        W 3050  44.294  30.060  13.506
29983W        W 3051  35.283   3.308   0.879
29984W        W 3052   9.239   6.220   4.653
29985W        W 3053  39.824  10.528   4.152
29986W        W 3054   6.323  26.554  13.838
29987W        W 3055  32.028  22.284   3.633
29988W        W 3056  19.808  32.514   1.505
29989W        W 3057  16.284   3.392  10.853
29990W        W 3058  44.671  42.771  13.862
29991W        W 3059  41.956  36.438  11.218
29992W        W 3060   7.812  44.717   2.115
29993W        W 3061   6.480  28.997  11.234
29994W        W 3062  17.570  23.425   1.204
29995W        W 3063  16.596  35.508   4.777
29996W        W 3064  24.984  39.498  10.664
29997W        W 3065  16.413  14.581  12.445
29998W        W 3066   9.471   1.339  13.170
29999W        W 3067  31.103  28.652   0.479
30000W        W 3068  18.705  34.377  12.579
30001W        W 3069  27.105  12.643   2.470
30002W        W 3070   5.457  23.378   3.744
30003W        W 3071  22.309  44.204  14.395
30004W        W 3072   3.522   4.897   4.214
30005W        W 3073  41.933  21.572   0.775
30006W        W 3074  21.555  30.276   3.758
30007W        W 3075  29.021  26.924   2.149
30008W        W 3076  19.038  35.066  12.539
30009W        W 3077  41.732   4.230  12.786
30010W        W 3078  13.819  20.248  12.384
30011W        W 3079  37.267  21.755   2.165
30012W        W 3080  32.284   5.909  13.854
30013W        W 3081  18.931   0.412   1.970
30014W        W 3082  29.716  36.109   0.095
30015W        W 3083  11.819  23.517  14.439
30016W        W 3084  30.092   0.994   0.894
30017W        W 3085  44.738  29.458  10.758
30018W        W 3086  44.668  13.493   0.250
30019W        W 3087  32.884  28.245   4.035
30020W        W 3088  21.338  16.580  13.543
30021W        W 3089  22.060  31.191  11.903
30022W        W 3090  24.943  18.438   5.743
30023W        W 3091  20.092   9.348  10.677
30024W        W 3092  40.892   7.677  13.805
30025W        W 3093  35.378  41.006  12.624
30026W        W 3094  35.255  22.025   2.094
30027W        W 3095  25.375  42.548  14.751
30028W        W 3096  44.185  12.078  10.700
30029W        W 3097   4.423  35.453  10.717
30030W        W 3098  40.025  31.092  14.652
30031W        W 3099  14.219  22.122   3.845
30032W        W 3100  44.743   1.482   3.643
30033W        W 3101   3.801   1.176   1.907
30034W        W 3102   4.177   8.655   4.187
30035W        W 3103  21.534  20.136   1.004
30036W        W 3104   7.893  19.055   1.720
30037W        W 3105  29.607  42.062  10.554
30038W        W 3106   4.748  23.634  10.776
30039W        W 3107  38.805  22.351  13.615
30040W        W 3108   6.811   8.769   3.124
30041W        W 3109  26.902   4.765  10.617
30042W        W 3110  29.017  17.527   4.289
30043W        W 3111  28.177  31.089   3.387
30044W        W 3112  32.126  11.103   0.596
30045W        W 3113  13.799  29.043  13.930
30046W        W 3114  40.909  12.123  13.444
30047W        W 3115  35.857  11.209  13.355
30048W        W 3116  39.798  39.350   2.797
30049W        W 3117  31.929   3.740   3.041
30050W        W 3118  33.443  15.846  11.526
30051W        W 3119  17.077  29.268  13.070
30052W        W 3120  39.045  39.125  12.290
30053W        W 3121  24.034  43.525  13.421
30054W        W 3122  24.199  15.084  14.678
30055W        W 3123  31.518  43.043   2.263
30056W        W 3124   7.652  34.908   3.410
30057W        W 3125  33.948  25.996   1.722
30058W        W 3126  31.991  35.170   3.591
30059W        W 3127  22.026  30.753   1.384
30060W        W 3128  40.394  26.583   3.421
30061W        W 3129  27.404  30.564   3.259
30062W        W 3130  22.905  40.512   0.863
30063W        W 3131  17.326  35.005  13.624
30064W        W 3132   2.869  42.249  12.014
30065W        W 3133   9.412  44.803  13.882
30066W        W 3134  33.145  26.501  13.999
30067W        W 3135  25.191  14.266  11.529
30068W        W 3136  21.127   6.657   3.639
30069W        W 3137  10.728   6.316  14.325
30070W        W 3138  18.379  32.906   0.433
30071W        W 3139  18.376  44.539  10.552
30072W        W 3140  11.790  40.886  13.730
30073W        W 3141  12.450  31.792  11.196
30074W        W 3142   8.569  27.701  13.288
30075W        W 3143  27.001  24.211   2.888
30076W        W 3144  10.794  39.304   3.607
30077W        W 3145  38.778  22.745   1.565
30078W        W 3146   2.873  34.394   4.615
30079W        W 3147  43.392  30.136   0.271
30080W        W 3148  23.733  18.531   5.127
30081W        W 3149  39.543  20.120  12.130
30082W        W 3150  13.188  11.883  13.005
30083W        W 3151   7.359  21.310   0.599
30084W        W 3152  13.636  31.048   3.835
30085W        W 3153  26.127  32.664  11.054
30086W        W 3154  13.217  17.048   3.206
30087W        W 3155  35.275   0.768  11.535
30088W        W 3156   8.403  31.208   0.715
30089W        W 3157  30.979  18.830   3.696
30090W        W 3158   1.135  14.086   1.104
30091W        W 3159  26.460  33.655  13.809
30092W        W 3160  17.764   7.868  13.959
30093W        W 3161  39.385  18.441   3.571
30094W        W 3162   3.014   7.802   4.115
30095W        W 3163   4.686  43.232   0.006
30096W        W 3164   8.159  18.987  11.547
30097W        W 3165  16.643   8.612  11.994
30098W        W 3166   2.370  41.331   2.814
30099W        W 3167   9.634   9.340   2.819
30100W        W 3168   1.509  38.658   2.778
30101W        W 3169  14.025  38.998   0.075
30102W        W 3170  13.185  31.656   3.973
30103W        W 3171  17.225  12.448  12.508
30104W        W 3172  29.479  19.846   4.119
30105W        W 3173   9.476   9.838  13.565
30106W        W 3174  36.974  32.378  10.996
30107W        W 3175  11.705  26.716  10.192
30108W        W 3176   9.192  29.650   0.319
30109W        W 3177  44.813  39.854  11.149
30110W        W 3178  39.182   8.382   9.795
30111W        W 3179   1.180  10.657  12.495
30112W        W 3180  25.410  24.530   3.080
30113W        W 3181   2.364  25.002  11.136
30114W        W 3182  42.747   1.001  10.626
30115W        W 3183   3.340   7.269   0.002
30116W        W 3184  28.431  34.873   2.014
30117W        W 3185   3.436  25.747  12.820
30118W        W 3186  42.031   1.935  13.499
30119W        W 3187   1.716  28.664  12.474
30120W        W 3188  16.852  30.376   0.451
30121W        W 3189  42.687  29.107  10.233
30122W        W 3190  22.716  32.452   2.343
30123W        W 3191   9.514  43.825  11.103
30124W        W 3192   7.200  26.638  13.926
30125W        W 3193  32.849  34.044   1.322
30126W        W 3194  11.311  24.070   3.200
30127W        W 3195   8.825   9.150  13.456
30128W        W 3196  16.749   3.359   1.416
30129W        W 3197   7.192  35.913  13.348
30130W        W 3198  32.139  32.860  12.989
30131W        W 3199  41.803  24.449   1.717
30132W        W 3200  18.461  43.309   4.597
30133W        W 3201  28.700  38.067   3.925
30134W        W 3202  10.636  37.418   3.209
30135W        W 3203  37.010  15.185  12.564
30136W        W 3204  18.332  20.294  12.200
30137W        W 3205  13.204  20.675   3.266
30138W        W 3206  18.338  32.020   2.401
30139W        W 3207   6.660  17.343   2.810
30140W        W 3208  37.130  42.410   1.267
30141W        W 3209  37.846   0.020  10.449
30142W        W 3210  37.006   8.890   2.937
30143W        W 3211  29.252  13.506   3.844
30144W        W 3212  27.550  30.835  13.847
30145W        W 3213  26.950  31.544  13.889
30146W        W 3214  28.609  19.233   4.383
30147W        W 3215   4.141   8.034  12.964
30148W        W 3216  10.664  31.562  12.893
30149W        W 3217  16.325  14.279  14.842
30150W        W 3218   5.560  20.550  11.494
30151W        W 3219  21.055  10.320  13.873
30152W        W 3220  44.874  34.357   4.539
30153W        W 3221   7.157  20.322   0.927
30154W        W 3222  42.546  35.048  11.188
30155W        W 3223  23.410  22.970  11.562
30156W        W 3224  29.336  24.863  11.076
30157W        W 3225  33.867  26.421  11.218
30158W        W 3226  15.229  31.231   1.698
30159W        W 3227  27.060  18.124   0.054
30160W        W 3228  37.743   6.458  10.446
30161W        W 3229  35.286  24.176  12.855
30162W        W 3230  12.843  19.515   0.918
30163W        W 3231  24.494  25.169  10.488
30164W        W 3232  15.797  30.718   1.317
30165W        W 3233  35.611  41.017   2.735
30166W        W 3234  36.882  33.649   2.717
30167W        W 3235  21.564  25.071   0.927
30168W        W 3236  23.117  18.299  10.520
30169W        W 3237  35.907  21.018  12.285
30170W        W 3238  34.216  15.635   4.452
30171W        W 3239  36.407  43.533  12.011
30172W        W 3240  29.919  13.540  11.544
30173W        W 3241  31.681   2.564   4.002
30174W        W 3242  22.699  10.696   2.912
30175W        W 3243  43.420  34.163   1.229
30176W        W 3244  38.680  34.767   4.973
30177W        W 3245  12.923   6.157  14.846
30178W        W 3246   6.603  21.740   1.188
30179W        W 3247  40.420  37.804   0.361
30180W        W 3248   9.187   1.991  12.594
30181W        W 3249  36.415   1.892  13.266
30182W        W 3250  41.043  13.664   4.187
30183W        W 3251  34.997   1.021  10.971
30184W        W 3252  35.589  28.547  10.850
30185W        W 3253  12.981  19.731  12.510
30186W        W 3254   3.301  23.656   2.156
30187W        W 3255  21.800  36.966   3.640
30188W        W 3256   3.432  29.005   4.553
30189W        W 3257  15.078  28.116   2.309
30190W        W 3258  15.736  44.169   3.607
30191W        W 3259  12.544   6.107  13.582
30192W        W 3260  23.476  36.080  13.481
30193W        W 3261   7.637  28.451   3.862
30194W        W 3262   0.263  22.435   4.251
30195W        W 3263  42.546  36.401   1.767
30196W        W 3264   6.924  18.158   3.912
30197W        W 3265  30.117  18.467  12.432
30198W        W 3266  35.407  40.818  11.721
30199W        W 3267  32.177  44.416   2.720
30200W        W 3268  16.218  38.414   2.725
30201W        W 3269  36.767  30.468   4.164
30202W        W 3270   8.037  38.832  10.317
30203W        W 3271  16.575  15.036   2.766
30204W        W 3272   1.975  35.439   4.369
30205W        W 3273  38.051  19.068  11.081
30206W        W 3274  10.804  40.749   2.186
30207W        W 3275  44.442  43.316  11.206
30208W        W 3276   2.224  10.134   0.722
30209W        W 3277   3.672  23.945  12.399
30210W        W 3278  40.213  42.505   1.621
30211W        W 3279  43.836  14.865   2.613
30212W        W 3280  37.919   0.326   3.685
30213W        W 3281   2.823  42.724  12.248
30214W        W 3282  39.247   8.271  10.681
30215W        W 3283  30.901  13.338  10.701
30216W        W 3284  40.898  30.486   3.823
30217W        W 3285  29.558   5.875  12.804
30218W        W 3286  37.596   0.491  14.300
30219W        W 3287  15.158  19.181  13.521
30220W        W 3288  16.145  37.373   3.610
30221W        W 3289  14.203  37.207  11.194
30222W        W 3290   7.765  29.599  13.058
30223W        W 3291   3.432   0.755  11.165
30224W        W 3292  32.380  43.020  11.615
30225W        W 3293  17.834  39.482   2.372
30226W        W 3294  13.329  18.229  14.796
30227W        W 3295  22.144   0.709   2.358
30228W        W 3296   8.696  41.535   4.112
30229W        W 3297  15.082  27.723  12.162
30230W        W 3298  39.965  39.983  14.979
30231W        W 3299   3.281   6.142  12.808
30232W        W 3300   5.278  17.701  11.144
30233W        W 3301   5.725  40.444  13.395
30234W        W 3302  24.201  14.361  10.814
30235W        W 3303  35.012  20.532  10.816
30236W        W 3304  16.205  42.962   3.284
30237W        W 3305  43.827   2.834   0.334
30238W        W 3306  12.205  30.160  12.092
30239W        W 3307   3.224  37.509  12.248
30240W        W 3308   8.369  38.752   3.281
30241W        W 3309  26.895  12.394   3.263
30242W        W 3310  23.519  33.049   4.631
30243W        W 3311  28.665  15.288   1.850
30244W        W 3312  39.475  34.681  14.005
30245W        W 3313  37.962  37.834   0.829
30246W        W 3314  18.553   9.085  11.024
30247W        W 3315  16.743  19.729   4.391
30248W        W 3316  33.109  38.911   4.622
30249W        W 3317  28.952  28.959   3.770
30250W        W 3318  20.322  32.336   3.377
30251W        W 3319   0.891  29.915  10.751
30252W        W 3320  44.773  19.783   0.380
30253W        W 3321  39.285  36.979  13.698
30254W        W 3322   9.684  28.824  13.534
30255W        W 3323   1.319  36.773  10.777
30256W        W 3324  22.456  13.630  14.361
30257W        W 3325  21.618   8.213  14.756
30258W        W 3326  37.689  43.881  11.977
30259W        W 3327  17.567   0.261  13.929
30260W        W 3328  13.696  23.095   1.787
30261W        W 3329   2.211  14.519  14.509
30262W        W 3330  26.148   2.257   1.076
30263W        W 3331   1.114  18.805  12.465
30264W        W 3332  11.751  21.131   3.241
30265W        W 3333  42.947  24.915   0.727
30266W        W 3334  15.320  18.332  12.210
30267W        W 3335  43.532  18.045   4.149
30268W        W 3336  28.129  11.748   5.080
30269W        W 3337  11.226  25.636  13.794
30270W        W 3338  14.784  23.099   0.707
30271W        W 3339  29.410  39.795  11.044
30272W        W 3340  11.031   5.010  11.714
30273W        W 3341  27.461   6.475  14.306
30274W        W 3342  16.670  18.793  14.325
30275W        W 3343  29.456  16.277   1.316
30276W        W 3344  19.509  30.011  11.496
30277W        W 3345   4.858  39.863   1.498
30278W        W 3346  37.581  12.309   1.323
30279W        W 3347   2.438   9.505  11.472
30280W        W 3348  37.128  34.123   0.367
30281W        W 3349   4.852   8.420   4.111
30282W        W 3350  37.475  36.392   5.018
30283W        W 3351  19.270  31.676   1.167
30284W        W 3352  39.224  27.220   5.120
30285W        W 3353  14.758   8.125  11.725
30286W        W 3354  43.192  31.986  13.348
30287W        W 3355  43.296  21.260  13.314
30288W        W 3356  19.805   4.214   2.707
30289W        W 3357  20.590  31.654   4.507
30290W        W 3358   9.915  38.777   2.777
30291W        W 3359  19.548  14.045   4.487
30292W        W 3360  21.769   1.406   4.335
30293W        W 3361  25.719  31.581  12.543
30294W        W 3362  13.987  15.032  13.758
30295W        W 3363  16.760   4.360  12.197
30296W        W 3364  32.650  15.761  10.228
30297W        W 3365  14.341   4.825   2.319
30298W        W 3366  44.514  34.389  14.598
30299W        W 3367  13.342   8.230   0.959
30300W        W 3368  19.298  37.812  11.906
30301W        W 3369  28.449  44.905  10.350
30302W        W 3370  31.994  18.567   0.658
30303W        W 3371   1.287  42.182   2.673
30304W        W 3372   6.917  29.379  12.057
30305W        W 3373   4.222   9.590   3.523
30306W        W 3374  19.528  38.991  14.922
30307W        W 3375  14.174   8.390   3.673
30308W        W 3376  14.104  28.972   2.637
30309W        W 3377  12.781   5.982   4.667
30310W        W 3378  15.751  25.009  13.116
30311W        W 3379  10.819  43.258   4.554
30312W        W 3380   1.247  21.058  10.733
30313W        W 3381  38.191  15.655   3.651
30314W        W 3382   6.839  33.003   4.034
30315W        W 3383   0.947   4.612  14.835
30316W        W 3384  40.325  31.258   1.914
30317W        W 3385  28.933  42.180  12.164
30318W        W 3386  23.578  10.287   3.425
30319W        W 3387  34.856   4.144  13.470
30320W        W 3388  15.936  25.143   4.234
30321W        W 3389   7.155  35.436   3.804
30322W        W 3390  40.058  11.390   4.464
30323W        W 3391  15.398   2.433   4.152
30324W        W 3392  27.240  29.357   1.484
30325W        W 3393   3.456  35.207   4.937
30326W        W 3394  35.136  27.422   3.343
30327W        W 3395  15.620  14.732  12.039
30328W        W 3396   0.760  22.858  12.833
30329W        W 3397  36.141  28.968   1.345
30330W        W 3398  19.705  24.246  11.060
30331W        W 3399  34.192  42.631   2.915
30332W        W 3400  11.121  16.720   1.845
30333W        W 3401  14.006  26.493   1.915
30334W        W 3402   4.700  18.618   2.607
30335W        W 3403  32.438  29.510   0.337
30336W        W 3404   3.384  34.902   1.415
30337W        W 3405  41.044  35.355  12.496
30338W        W 3406  25.686  27.646   4.045
30339W        W 3407  36.427  44.968   3.487
30340W        W 3408  17.790  26.229   0.904
30341W        W 3409  43.468  16.562   2.136
30342W        W 3410   9.395  26.467   4.126
30343W        W 3411   8.216  13.632  12.902
30344W        W 3412  43.873   7.192  10.574
30345W        W 3413  11.038   2.418  10.735
30346W        W 3414  30.892  38.565  11.513
30347W        W 3415  23.092   7.110   0.469
30348W        W 3416  41.699  26.034  11.690
30349W        W 3417  27.254  20.856   1.006
30350W        W 3418  42.942  28.973  13.937
30351W        W 3419  23.004  33.088  14.312
30352W        W 3420  39.439  34.669   0.550
30353W        W 3421  25.045  23.034  13.315
30354W        W 3422  20.180  11.759  10.875
30355W        W 3423   6.348  10.404  11.995
30356W        W 3424   0.945   9.478  14.493
30357W        W 3425  24.187   9.763   3.139
30358W        W 3426  22.448  12.741   3.656
30359W        W 3427   8.183  34.816  10.794
30360W        W 3428  12.104  17.131  11.028
30361W        W 3429  20.653  38.570   3.631
30362W        W 3430  31.869   7.161  10.391
30363W        W 3431   4.886  42.739   1.800
30364W        W 3432  35.903  29.077   4.724
30365W        W 3433  22.489  37.392  10.403
30366W        W 3434  19.189  27.055  11.587
30367W        W 3435  26.155   2.807   0.189
30368W        W 3436  11.410  10.075   4.576
30369W        W 3437  14.547  43.504  13.930
30370W        W 3438  27.037  33.654  13.397
30371W        W 3439  37.084  38.053   1.428
30372W        W 3440  12.127  18.821  10.349
30373W        W 3441  33.312  17.515   4.170
30374W        W 3442  41.879   9.761   2.823
30375W        W 3443  32.439  43.775   4.664
30376W        W 3444  24.032  40.053   2.726
30377W        W 3445  38.845  31.941   3.253
30378W        W 3446  44.831  31.640  11.860
30379W        W 3447  11.236  38.755  13.126
30380W        W 3448  20.657  13.306   0.986
30381W        W 3449   7.224  14.181  14.976
30382W        W 3450  41.048  28.748   3.122
30383W        W 3451  43.436   5.811   2.085
30384W        W 3452  28.173  39.992   4.968
30385W        W 3453   5.138  16.820   2.847
30386W        W 3454  10.181  44.404   3.720
30387W        W 3455   3.720   7.981  14.904
30388W        W 3456  22.090  11.868  14.796
30389W        W 3457  38.788  31.920  14.954
30390W        W 3458  19.040  32.358  11.381
30391W        W 3459  41.992  19.792   0.264
30392W        W 3460  23.618   8.441  11.648
30393W        W 3461   8.718  37.071  14.958
30394W        W 3462  34.322  44.861   1.845
30395W        W 3463  14.373  40.955   4.718
30396W        W 3464  30.937   1.833  14.394
30397W        W 3465  27.515  12.213  11.140
30398W        W 3466  10.081  40.097  10.932
30399W        W 3467   2.303   2.540   1.401
30400W        W 3468   8.215  16.591  11.088
30401W        W 3469   5.282  22.662  12.904
30402W        W 3470  37.025   7.090  11.498
30403W        W 3471  33.668  36.819   4.215
30404W        W 3472   8.757   9.820   4.799
30405W        W 3473  21.653   7.014   3.172
30406W        W 3474  15.684   3.195   1.445
30407W        W 3475   0.037  37.102  13.994
30408W        W 3476   5.979  13.571  11.946
30409W        W 3477  24.186  12.396  14.795
30410W        W 3478   7.996  10.635   3.239
30411W        W 3479  18.534  35.501   4.550
30412W        W 3480  32.361  14.731  11.139
30413W        W 3481  12.781   2.982   3.781
30414W        W 3482  11.736   9.533   3.294
30415W        W 3483   4.483   8.840  14.502
30416W        W 3484   7.492   4.141   3.667
30417W        W 3485  29.400  10.133   2.765
30418W        W 3486  35.561  28.026   0.489
30419W        W 3487  36.371  35.887   1.192
30420W        W 3488  33.682  35.149  13.016
30421W        W 3489   5.844  19.513   3.856
30422W        W 3490   2.812  39.399  12.517
30423W        W 3491  41.410  12.667  10.778
30424W        W 3492   3.978  16.900   3.247
30425W        W 3493   3.002  28.286  13.054
30426W        W 3494   0.051  35.656   2.422
30427W        W 3495  43.327  36.137  12.884
30428W        W 3496  20.567  21.835  13.115
30429W        W 3497   0.495   6.334  11.950
30430W        W 3498  35.572  12.850  10.770
30431W        W 3499   1.914  19.876  11.886
30432W        W 3500  36.994  11.428   0.775
30433W        W 3501  10.589   2.402   3.868
30434W        W 3502  17.818  21.997   0.300
30435W        W 3503  26.080  12.591   4.293
30436W        W 3504  32.608  13.337  14.713
30437W        W 3505  15.668  24.868   3.303
30438W        W 3506  11.153  43.427  10.692
30439W        W 3507   7.841  33.196   1.645
30440W        W 3508  44.272  33.094   0.374
30441W        W 3509  39.577  23.235   4.271
30442W        W 3510   1.762   0.358  10.954
30443W        W 3511  33.344  19.014   2.371
30444W        W 3512  22.533  24.704  11.004
30445W        W 3513  22.265  19.802  11.034
30446W        W 3514   2.782   9.162  12.110
30447W        W 3515  34.646  33.111   1.909
30448W        W 3516  30.671  34.464  12.050
30449W        W 3517   9.306  42.872  12.993
30450W        W 3518  40.796  41.468   3.189
30451W        W 3519  32.882  22.476   4.116
30452W        W 3520  32.239  20.246   3.595
30453W        W 3521  23.911   5.465   4.670
30454W        W 3522  22.015  42.740   2.488
30455W        W 3523   5.831   7.975  11.933
30456W        W 3524  36.143  15.300  12.476
30457W        W 3525  22.765  26.066   0.201
30458W        W 3526  29.975   1.971  10.434
30459W        W 3527  15.673  22.435  10.558
30460W        W 3528  16.684  28.010  13.774
30461W        W 3529   4.297   7.671   3.511
30462W        W 3530  16.210   8.859  12.606
30463W        W 3531  34.363  25.253  13.605
30464W        W 3532  30.270  26.427  11.687
30465W        W 3533  13.485  33.372  13.778
30466W        W 3534   1.710   9.268   3.680
30467W        W 3535  33.009  34.522   1.443
30468W        W 3536  20.501   4.169  13.444
30469W        W 3537   4.444  37.850   1.749
30470W        W 3538  44.424   1.223   3.314
30471W        W 3539  14.273  34.943  12.602
30472W        W 3540  29.282  10.249  12.411
30473W        W 3541  31.121   3.659  13.971
30474W        W 3542   3.776   3.377   3.209
30475W        W 3543   4.210   1.399  12.154
30476W        W 3544   3.867  10.703  10.630
30477W        W 3545  44.980   9.344  12.075
30478W        W 3546  11.235  35.324   0.270
30479W        W 3547  16.782  28.064   0.329
30480W        W 3548  17.755  13.546  10.704
30481W        W 3549   6.740  10.215   4.267
30482W        W 3550  29.199   1.556  13.958
30483W        W 3551  35.800  23.302  12.850
30484W        W 3552   2.680  33.963   0.558
30485W        W 3553  34.608  30.001  14.518
30486W        W 3554   6.912  15.142   0.488
30487W        W 3555  19.393   9.697  12.844
30488W        W 3556  16.043  18.241   3.183
30489W        W 3557   7.197  16.015   0.972
30490W        W 3558  25.566  37.338  13.245
30491W        W 3559  11.282  15.710  14.782
30492W        W 3560  32.858  11.465   0.386
30493W        W 3561  30.078  20.222  10.612
30494W        W 3562  12.582  32.965  11.638
30495W        W 3563  15.542  12.879   5.086
30496W        W 3564  15.018  33.076   1.201
30497W        W 3565  11.233  33.642   2.005
30498W        W 3566  35.440   5.910   2.673
30499W        W 3567   4.385   8.803   0.434
30500W        W 3568  15.609   3.431   2.383
30501W        W 3569  23.746  35.369  14.778
30502W        W 3570  44.973   5.491   4.556
30503W        W 3571  40.265  18.784   3.660
30504W        W 3572  26.609  41.903   1.630
30505W        W 3573  35.669  30.140  12.994
30506W        W 3574  21.468  33.376  14.549
30507W        W 3575   1.376  29.665  11.534
30508W        W 3576  30.169  11.957   3.755
30509W        W 3577  12.676   9.528   0.715
30510W        W 3578  35.253  26.676   3.747
30511W        W 3579  34.548  42.274  11.776
30512W        W 3580  42.343  33.500   4.550
30513W        W 3581  16.717  44.819   1.114
30514W        W 3582  29.389  20.428  14.809
30515W        W 3583   3.858  11.120   3.213
30516W        W 3584  37.555  41.878  14.454
30517W        W 3585  37.732  20.301   2.941
30518W        W 3586  41.624  28.620  13.361
30519W        W 3587   8.556   2.817  12.812
30520W        W 3588   6.372  21.682   0.295
30521W        W 3589  34.951  30.964  13.385
30522W        W 3590  27.583  32.460   4.108
30523W        W 3591  34.426  37.814  14.217
30524W        W 3592  11.999  39.098   2.072
30525W        W 3593  25.694   5.118   2.766
30526W        W 3594  29.730  26.611   5.157
30527W        W 3595  37.509  43.379   1.713
30528W        W 3596   0.029   8.239   2.671
30529W        W 3597  30.119   1.899  10.929
30530W        W 3598  18.812  10.497   3.205
30531W        W 3599  29.645  38.439   0.554
30532W        W 3600  27.551  34.043   4.567
30533W        W 3601  13.658  43.375  11.552
30534W        W 3602  22.984  11.702  12.044
30535W        W 3603   0.283  18.500  14.288
30536W        W 3604  10.249  11.835   5.042
30537W        W 3605  15.715   1.817   0.549
30538W        W 3606  40.606   4.257   4.366
30539W        W 3607  15.106  40.798   4.153
30540W        W 3608  31.598   2.122   4.275
30541W        W 3609  32.842  14.761  12.622
30542W        W 3610   4.387  34.800  13.865
30543W        W 3611  39.466   9.704   3.331
30544W        W 3612  28.358  31.657  11.600
30545W        W 3613  25.597   5.289  14.673
30546W        W 3614  11.850  38.351  14.311
30547W        W 3615  25.968  17.539   3.904
30548W        W 3616  19.071  14.148   1.321
30549W        W 3617  39.312   2.089   3.885
30550W        W 3618  40.006  34.130  14.999
30551W        W 3619   4.317  17.088   2.676
30552W        W 3620   9.740  10.447  12.311
30553W        W 3621  28.251  41.616   3.674
30554W        W 3622   8.511  37.581  13.912
30555W        W 3623  23.163  19.014  13.078
30556W        W 3624  17.052  26.183   3.554
30557W        W 3625  10.808  34.667   3.682
30558W        W 3626   4.812  35.500   3.190
30559W        W 3627  43.027  16.804  11.165
30560W        W 3628  25.009  15.873  10.689
30561W        W 3629  12.005  25.503  10.682
30562W        W 3630  36.232  34.670  14.809
30563W        W 3631  21.681  41.545  12.553
30564W        W 3632  33.355  17.342  12.625
30565W        W 3633   6.659   2.221  11.181
30566W        W 3634  13.435  41.706  14.226
30567W        W 3635   0.956  42.857   0.959
30568W        W 3636  27.114  18.304  12.898
30569W        W 3637  32.671   1.973   4.193
30570W        W 3638  39.920  23.579  11.739
30571W        W 3639  11.134  19.222  13.461
30572W        W 3640  40.206  24.326   4.480
30573W        W 3641   1.293  26.055  14.418
30574W        W 3642  25.232  28.151  14.280
30575W        W 3643  30.555  30.936   3.701
30576W        W 3644  20.751  28.030   4.761
30577W        W 3645  41.260   5.350   5.102
30578W        W 3646  13.764   6.987  11.184
30579W        W 3647  30.611  30.987   3.190
30580W        W 3648  44.571  34.100   0.189
30581W        W 3649  38.618  12.377  14.846
30582W        W 3650  33.629  38.495   9.777
30583W        W 3651  33.203  10.282   2.232
30584W        W 3652  25.654  17.866  12.892
30585W        W 3653  23.409  21.620  12.476
30586W        W 3654  32.162  13.382   2.204
30587W        W 3655   8.902  21.738   1.237
30588W        W 3656  10.901   7.352  14.319
30589W        W 3657  21.574   8.513   4.768
30590W        W 3658  36.002   3.786  11.978
30591W        W 3659   5.839  26.511   0.796
30592W        W 3660  26.199  28.612  12.919
30593W        W 3661   5.484  20.454  14.419
30594W        W 3662  15.395  38.025  13.866
30595W        W 3663  33.688   6.532   4.000
30596W        W 3664  21.047  15.106   4.475
30597W        W 3665  28.585  34.433  13.435
30598W        W 3666  20.151  19.085   4.495
30599W        W 3667  26.477  25.261  11.773
30600W        W 3668  21.569  14.281   4.696
30601W        W 3669  30.879  28.643  14.999
30602W        W 3670   3.732   8.496  14.839
30603W        W 3671  17.204  12.012  13.844
30604W        W 3672   0.023  34.664  12.546
30605W        W 3673  28.573  40.287   4.746
30606W        W 3674  13.826  41.979   2.386
30607W        W 3675  35.615  21.110  10.751
30608W        W 3676  32.967   9.374  12.899
30609W        W 3677   1.426  40.746  12.289
30610W        W 3678  35.755  39.110  11.129
30611W        W 3679   2.957  31.056  12.037
30612W        W 3680   6.136  34.145   3.387
30613W        W 3681  30.088  28.099  13.970
30614W        W 3682  20.955  24.954  10.759
30615W        W 3683  34.039   1.123   3.980
30616W        W 3684  23.309  18.727  12.494
30617W        W 3685  21.604  28.163   0.229
30618W        W 3686  19.531   6.642   2.756
30619W        W 3687  12.569  40.797  14.270
30620W        W 3688  38.983  28.954  14.883
30621W        W 3689  25.659  24.222   1.360
30622W        W 3690   9.351  33.625  13.396
30623W        W 3691  29.581  12.922  14.097
30624W        W 3692   8.894  11.499  11.190
30625W        W 3693   3.269  11.130   2.785
30626W        W 3694  29.177   0.320   4.305
30627W        W 3695  34.554   1.457  13.267
30628W        W 3696  15.021  29.908  11.563
30629W        W 3697  14.651  16.062   2.646
30630W        W 3698  12.825  44.878   1.922
30631W        W 3699  42.748   0.160  11.043
30632W        W 3700  18.514  12.483  13.532
30633W        W 3701  12.992  42.042  13.832
30634W        W 3702   8.430   1.045  14.917
30635W        W 3703  20.274   6.820   1.398
30636W        W 3704  34.843  35.480   0.429
30637W        W 3705  27.722  31.563   4.607
30638W        W 3706  35.791  18.649   4.531
30639W        W 3707  43.189  25.358   0.778
30640W        W 3708  39.035   7.679  14.024
30641W        W 3709  29.520  36.110  12.039
30642W        W 3710  36.410  30.424  11.910
30643W        W 3711  16.294  30.936   1.306
30644W        W 3712  12.034  37.027  13.989
30645W        W 3713   7.221  16.089   2.863
30646W        W 3714   5.678  23.673   2.152
30647W        W 3715   9.898  15.728  10.655
30648W        W 3716  16.899  14.295   4.609
30649W        W 3717   4.436  28.658  12.215
30650W        W 3718  17.282  10.786   2.226
30651W        W 3719   7.164  18.993  14.434
30652W        W 3720   3.300  33.937  11.622
30653W        W 3721  26.580  18.172   3.666
30654W        W 3722  13.985  25.398   0.224
30655W        W 3723  27.942  32.937   3.048
30656W        W 3724   1.356  18.557   0.460
30657W        W 3725   2.266  31.659   1.886
30658W        W 3726  13.102  34.585   1.577
30659W        W 3727  35.491   3.459  13.014
30660W        W 3728  42.051   5.854   1.528
30661W        W 3729   9.909  22.061   2.139
30662W        W 3730  14.322  32.031   1.679
30663W        W 3731  21.020  15.603  12.149
30664W        W 3732  28.421  23.322  12.383
30665W        W 3733  10.843  31.121  11.633
30666W        W 3734  31.410  35.395   1.275
30667W        W 3735  29.911   5.557   2.306
30668W        W 3736  40.338   9.664  10.557
30669W        W 3737  22.186  28.700   0.967
30670W        W 3738   9.170  10.585  14.758
30671W        W 3739  33.442  23.624  14.871
30672W        W 3740  44.439  38.450  10.585
30673W        W 3741   5.388   2.499  11.184
30674W        W 3742  31.613   9.331   4.057
30675W        W 3743   3.648  27.001  13.039
30676W        W 3744  39.557  26.547  11.910
30677W        W 3745  12.187  40.758  14.985
30678W        W 3746   8.313  23.099  11.846
30679W        W 3747  41.737   1.824  13.912
30680W        W 3748  12.577  13.800   3.226
30681W        W 3749   5.795  20.641   2.324
30682W        W 3750  38.797  30.594   3.290
30683W        W 3751  19.127  39.415  14.091
30684W        W 3752  44.354  38.342   0.275
30685W        W 3753  30.106  31.395  11.631
30686W        W 3754   3.219  14.354   4.188
30687W        W 3755  17.649  11.796   3.728
30688W        W 3756  30.005   6.006  11.959
30689W        W 3757  21.872  33.818   2.769
30690W        W 3758   7.443   8.085  11.621
30691W        W 3759  20.521  14.827   3.002
30692W        W 3760  17.220  26.196   0.186
30693W        W 3761   3.794   6.693   4.519
30694W        W 3762   3.205  11.774  14.073
30695W        W 3763  40.949  26.506   4.705
30696W        W 3764  24.450  38.288   3.613
30697W        W 3765  10.410   7.835  14.260
30698W        W 3766  40.116  20.452  13.863
30699W        W 3767   9.717  36.099   4.851
30700W        W 3768  42.966  30.110  14.929
30701W        W 3769  13.337   9.850  10.803
30702W        W 3770  31.221  25.144  14.758
30703W        W 3771  18.090  33.567   1.707
30704W        W 3772  34.495  15.212   4.770
30705W        W 3773  38.030  42.281  10.754
30706W        W 3774  20.026  29.903   2.691
30707W        W 3775  18.998  17.111  12.022
30708W        W 3776  42.881  14.162   0.285
30709W        W 3777   3.937  10.402   0.006
30710W        W 3778  33.411  29.158  11.040
30711W        W 3779   2.742   4.324   3.247
30712W        W 3780  38.510   2.188   3.622
30713W        W 3781   1.822  17.250  10.690
30714W        W 3782  31.239  29.079  11.111
30715W        W 3783  39.398  39.962   0.838
30716W        W 3784  13.711  43.105  11.990
30717W        W 3785  11.335  36.976   1.779
30718W        W 3786  20.627  32.184   2.618
30719W        W 3787  12.171  20.218  14.993
30720W        W 3788  38.842  12.835  14.968
30721W        W 3789  10.188  42.581  11.967
30722W        W 3790  21.656   6.278  11.261
30723W        W 3791  42.494   4.940   0.254
30724W        W 3792  36.155  39.366   3.871
30725W        W 3793   4.336  21.675   4.096
30726W        W 3794   2.014  23.812   2.840
30727W        W 3795  16.873  34.161  11.086
30728W        W 3796  31.565  16.862   4.741
30729W        W 3797  21.494   9.416  12.224
30730W        W 3798   1.650  27.997   3.984
30731W        W 3799  17.640  28.944   4.560
30732W        W 3800   9.390  21.794  11.154
30733W        W 3801  21.680  23.760  14.524
30734W        W 3802  19.125  39.497  13.591
30735W        W 3803  12.622   2.494   3.720
30736W        W 3804   9.446  13.309   3.239
30737W        W 3805  14.844  23.775   1.568
30738W        W 3806  30.101  15.389  13.514
30739W        W 3807  26.460   5.949  10.765
30740W        W 3808  23.991  33.416  12.627
30741W        W 3809  15.197  20.299  14.848
30742W        W 3810   8.477  29.609  11.271
30743W        W 3811  37.602  16.847   3.208
30744W        W 3812  41.862  14.137   4.170
30745W        W 3813  20.304  20.637   0.305
30746W        W 3814   3.970  12.728  10.169
30747W        W 3815   8.390  20.278   4.852
30748W        W 3816  28.494  37.559  11.116
30749W        W 3817  32.071  29.629  14.403
30750W        W 3818  30.629  29.904   0.156
30751W        W 3819  17.286  23.238   4.408
30752W        W 3820  11.200  17.888  11.082
30753W        W 3821   0.713  12.129  14.951
30754W        W 3822  12.723  38.296   1.762
30755W        W 3823  30.601  31.177  13.117
30756W        W 3824   3.769  24.629   0.537
30757W        W 3825   6.156   5.973   1.802
30758W        W 3826  36.181  44.782  12.398
30759W        W 3827  31.475  29.646   2.746
30760W        W 3828  42.689  27.897   1.317
30761W        W 3829  22.204   1.800  12.628
30762W        W 3830  42.334  42.926   2.020
30763W        W 3831  33.630  18.620  14.819
30764W        W 3832  17.610   9.496  13.309
30765W        W 3833  17.884  19.175   1.501
30766W        W 3834   9.607  38.511  13.914
30767W        W 3835  30.915   4.802  14.927
30768W        W 3836   7.977   9.180   3.864
30769W        W 3837  25.443  30.619   1.732
30770W        W 3838  36.561   9.322   3.142
30771W        W 3839  17.269  18.600  13.811
30772W        W 3840  36.822  37.014   1.259
30773W        W 3841  37.889  18.620   4.668
30774W        W 3842  15.127  18.619  14.748
30775W        W 3843   9.824  43.837   4.600
30776W        W 3844   6.466   6.094  13.068
30777W        W 3845  18.367  13.090  12.313
30778W        W 3846  27.717   3.380   1.853
30779W        W 3847   4.373  10.058   3.732
30780W        W 3848  37.789  11.058   3.263
30781W        W 3849  42.269   1.930  13.980
30782W        W 3850  10.201  25.682   3.244
30783W        W 3851  43.003   0.387   2.329
30784W        W 3852  21.638   0.352   2.557
30785W        W 3853  14.538  29.609  12.052
30786W        W 3854  34.822  44.632   4.076
30787W        W 3855  40.237  16.110  14.113
30788W        W 3856  25.546   9.434   0.862
30789W        W 3857  17.539   4.802  10.859
30790W        W 3858  41.802  17.284  10.095
30791W        W 3859  11.937  16.811   9.750
30792W        W 3860   3.875  39.903  11.663
30793W        W 3861  13.419  10.288  11.328
30794W        W 3862  31.548  26.233  11.467
30795W        W 3863  10.291  19.224   5.420
30796W        W 3864  37.601  28.448  11.531
30797W        W 3865   7.859  30.164   1.927
30798W        W 3866  43.969  44.345   0.845
30799W        W 3867  25.987  35.392  14.793
30800W        W 3868  32.926  14.523  14.397
30801W        W 3869   4.766  34.950   3.708
30802W        W 3870  34.150  43.972   2.773
30803W        W 3871   0.788  22.224   4.716
30804W        W 3872  28.391  43.824  13.474
30805W        W 3873  42.968   1.721   3.748
30806W        W 3874  15.358  34.640   2.762
30807W        W 3875   7.206  24.586   0.877
30808W        W 3876   8.615   7.511   1.238
30809W        W 3877  27.061  40.504   3.885
30810W        W 3878  26.160  24.483   2.118
30811W        W 3879  32.556  20.392   2.977
30812W        W 3880  26.553  44.264  11.955
30813W        W 3881  26.999  23.961  12.514
30814W        W 3882  11.279  25.486  14.295
30815W        W 3883  34.554   7.694   1.955
30816W        W 3884  43.515  21.072   3.851
30817W        W 3885  11.025  21.144   5.049
30818W        W 3886  20.867  20.894   0.897
30819W        W 3887   0.717  20.577   3.344
30820W        W 3888  15.121  36.109   2.169
30821W        W 3889   5.500  42.214  14.475
30822W        W 3890   3.474  24.757   2.321
30823W        W 3891  18.224  37.161   2.589
30824W        W 3892   7.420  11.126  12.466
30825W        W 3893  24.587  42.223   3.770
30826W        W 3894  41.295  11.557   2.315
30827W        W 3895  32.868  40.262   0.930
30828W        W 3896   5.608   0.115   0.475
30829W        W 3897   5.317  38.234   1.379
30830W        W 3898  26.167  23.193   1.185
30831W        W 3899   3.315  16.803  13.367
30832W        W 3900  35.932  14.356   3.309
30833W        W 3901  38.355  15.681  10.272
30834W        W 3902  11.833  29.395  11.890
30835W        W 3903  34.756   2.308   4.268
30836W        W 3904  23.421  15.866   0.397
30837W        W 3905  15.306   4.885   2.666
30838W        W 3906  12.371  34.830   0.889
30839W        W 3907  24.634  35.497   1.907
30840W        W 3908  23.753  39.742  14.809
30841W        W 3909  13.753   3.893  14.306
30842W        W 3910  42.041   6.937  12.902
30843W        W 3911  30.807  43.527  10.840
30844W        W 3912  40.760  42.050   2.344
30845W        W 3913  37.809  23.018   4.238
30846W        W 3914  41.366   9.483   4.348
30847W        W 3915  33.848  42.769   1.344
30848W        W 3916  39.947  20.826  12.134
30849W        W 3917  44.601  38.938   0.893
30850W        W 3918  13.369   2.304  14.802
30851W        W 3919  12.451  21.526  13.050
30852W        W 3920   3.260  28.926   0.753
30853W        W 3921   2.076  28.140  13.235
30854W        W 3922   6.632  18.961   4.281
30855W        W 3923  27.755   2.310   1.410
30856W        W 3924  13.666  10.123   3.160
30857W        W 3925  24.479  17.597   3.211
30858W        W 3926   3.536  29.197   0.304
30859W        W 3927   3.523  31.624  12.294
30860W        W 3928   1.531  38.287  11.153
30861W        W 3929  16.658  12.076   3.260
30862W        W 3930  10.893  41.362   2.981
30863W        W 3931  43.006  19.623   0.328
30864W        W 3932  41.854   0.858  10.425
30865W        W 3933  20.489  21.634  13.598
30866W        W 3934  42.734  42.329   2.853
30867W        W 3935  39.474  41.492   3.254
30868W        W 3936   8.933   0.767  13.821
30869W        W 3937  21.195  28.724   1.928
30870W        W 3938   8.335   0.940   3.614
30871W        W 3939  44.915   0.579  11.748
30872W        W 3940   4.684  43.263   2.661
30873W        W 3941   1.750  44.581  13.537
30874W        W 3942  15.232  28.204  12.678
30875W        W 3943   4.323  36.796   2.206
30876W        W 3944  33.855  41.290   2.811
30877W        W 3945  41.701   5.385   4.834
30878W        W 3946  19.080   1.959   1.008
30879W        W 3947  15.661  20.011   2.317
30880W        W 3948  28.571  22.044   4.100
30881W        W 3949  10.159  33.089  13.561
30882W        W 3950  14.184  38.770  10.116
30883W        W 3951  44.047  39.708   1.314
30884W        W 3952  30.028  39.936   4.977
30885W        W 3953  11.692  42.063   4.501
30886W        W 3954  29.952  26.778  13.545
30887W        W 3955   8.904  38.372   2.276
30888W        W 3956  34.569   3.722   3.255
30889W        W 3957  24.883  34.615   1.983
30890W        W 3958  29.502  34.349   4.571
30891W        W 3959  15.374  44.418   2.697
30892W        W 3960   2.990  24.577  12.030
30893W        W 3961  16.595  15.545  11.527
30894W        W 3962  31.656  11.820  11.026
30895W        W 3963  15.013  20.224  13.590
30896W        W 3964  20.195   5.711   1.626
30897W        W 3965  23.057  32.900   1.410
30898W        W 3966  11.376   3.253  14.831
30899W        W 3967   7.973  37.169   1.448
30900W        W 3968  37.036  23.059   2.260
30901W        W 3969   6.303  30.993   0.658
30902W        W 3970   0.386  18.466   2.190
30903W        W 3971  25.271   9.635  14.859
30904W        W 3972  33.453  42.562  11.080
30905W        W 3973  35.143  42.085   4.547
30906W        W 3974  43.528  16.093  13.391
30907W        W 3975  44.497  44.383   0.835
30908W        W 3976  11.202  22.602   0.476
30909W        W 3977  11.680  18.255   1.801
30910W        W 3978  17.803  21.037   0.274
30911W        W 3979  28.066  36.909   2.878
30912W        W 3980  28.214  18.074   4.726
30913W        W 3981  24.934  11.177  10.169
30914W        W 3982  26.090  32.186   0.583
30915W        W 3983  18.071   0.475   1.915
30916W        W 3984   1.537  17.547  12.817
30917W        W 3985   2.500  44.713  13.947
30918W        W 3986  24.577   7.982   2.289
30919W        W 3987  37.955  13.582  11.173
30920W        W 3988  29.888  12.042   2.893
30921W        W 3989  44.943  44.843   4.329
30922W        W 3990  26.054  41.361   4.520
30923W        W 3991  36.341  27.714  11.983
30924W        W 3992   8.187  39.328  14.341
30925W        W 3993  35.041  42.970   0.873
30926W        W 3994  13.849  17.242   4.676
30927W        W 3995  29.176  38.295   0.325
30928W        W 3996   0.982  34.560   1.306
30929W        W 3997   6.340  16.733   4.511
30930W        W 3998  10.172  18.020   0.951
30931W        W 3999  37.544  12.570   2.187
30932W        W 4000  44.500  36.929   3.544
30933W        W 4001  32.064  17.881  11.146
30934W        W 4002   2.808   0.243   3.681
30935W        W 4003   9.412  27.475   0.796
30936W        W 4004  33.069   8.655   3.672
30937W        W 4005  14.757  36.403  11.981
30938W        W 4006   6.771   1.726   2.818
30939W        W 4007  17.835   1.441   4.614
30940W        W 4008  39.214  19.804   3.977
30941W        W 4009  44.464  38.010  10.037
30942W        W 4010  24.179  14.113  11.754
30943W        W 4011  22.953  34.101  13.778
30944W        W 4012  34.409  35.061  13.996
30945W        W 4013  38.389   2.849  13.399
30946W        W 4014   8.437  19.109  11.960
30947W        W 4015  33.593  22.488  11.925
30948W        W 4016   5.224  25.259  14.426
30949W        W 4017   4.720   9.899   4.103
30950W        W 4018  17.557  16.219   2.648
30951W        W 4019  24.028   0.487   3.748
30952W        W 4020  42.430  37.589   0.032
30953W        W 4021   1.038  13.338   2.796
30954W        W 4022  34.324  34.577   0.864
30955W        W 4023  42.741  31.642  10.991
30956W        W 4024   5.466   2.374  13.983
30957W        W 4025  38.056  24.190   1.234
30958W        W 4026  35.762   2.445   0.450
30959W        W 4027  37.291  41.501   3.701
30960W        W 4028  38.880  41.897   4.792
30961W        W 4029  19.723   5.541   1.838
30962W        W 4030  24.448  34.812  14.696
30963W        W 4031  27.362  42.811   0.234
30964W        W 4032  22.205  40.879   3.295
30965W        W 4033  23.952  15.688   0.396
30966W        W 4034  29.141  39.356  11.064
30967W        W 4035  34.560  18.246  14.046
30968W        W 4036  13.138  11.909   4.058
30969W        W 4037  11.196  34.023   2.360
30970W        W 4038  17.607  35.163  14.019
30971W        W 4039   4.506   8.333  14.720
30972W        W 4040   7.203  11.105   3.515
30973W        W 4041   4.326   0.375   1.717
30974W        W 4042  19.285  29.431   0.837
30975W        W 4043  41.247  28.134   2.489
30976W        W 4044  35.995   8.200   2.790
30977W        W 4045  11.457  44.540  13.845
30978W        W 4046  31.670  37.424  10.508
30979W        W 4047  23.509  37.160   3.148
30980W        W 4048  18.490  10.946  11.578
30981W        W 4049  10.243  23.651  12.445
30982W        W 4050  15.766  13.592   3.720
30983W        W 4051  19.793   6.822   3.313
30984W        W 4052  28.437  37.851   4.323
30985W        W 4053  15.186  15.834  10.975
30986W        W 4054  42.185  25.104   0.394
30987W        W 4055  42.535  19.807   2.980
30988W        W 4056  12.357  41.595  13.231
30989W        W 4057  17.295  38.864  14.805
30990W        W 4058  27.004  38.443  14.975
30991W        W 4059  37.854   8.354   3.752
30992W        W 4060   8.646   4.166   0.816
30993W        W 4061  36.040  13.053  11.698
30994W        W 4062  44.678  38.962   2.710
30995W        W 4063  19.166   1.372  12.621
30996W        W 4064  20.217  32.494   1.841
30997W        W 4065  25.467  15.992   3.144
30998W        W 4066  36.301  11.716  12.011
30999W        W 4067  13.119  10.191  10.377
31000W        W 4068  38.923  34.109   1.864
31001W        W 4069   3.317  38.572   1.929
31002W        W 4070  21.127  36.609  13.388
31003W        W 4071  17.478  40.984  13.537
31004W        W 4072  36.177  17.604   3.688
31005W        W 4073   3.684  32.208   3.662
31006W        W 4074   7.841  37.905   4.215
31007W        W 4075  41.541  10.245   0.451
31008W        W 4076  29.197   4.332   0.395
31009W        W 4077  17.642  28.527   4.165
31010W        W 4078  16.373  19.081  11.174
31011W        W 4079  29.092   5.700  12.042
31012W        W 4080  19.185  23.468  12.535
31013W        W 4081   0.690   6.921  10.782
31014W        W 4082  44.003  28.633  12.452
31015W        W 4083  24.529   5.152  11.122
31016W        W 4084   0.426   7.255  12.521
31017W        W 4085  21.545  10.885   4.234
31018W        W 4086  28.976   8.474  13.495
31019W        W 4087  43.857  31.382  12.115
31020W        W 4088  24.772   7.499  14.434
31021W        W 4089  26.122  14.158   1.861
31022W        W 4090   3.961   0.252   0.768
31023W        W 4091  12.683   2.772   4.230
31024W        W 4092  40.407  30.832  11.630
31025W        W 4093  11.803  22.247  12.947
31026W        W 4094  30.237  36.998  11.528
31027W        W 4095  43.462  44.765  10.693
31028W        W 4096  40.786  10.429  12.291
31029W        W 4097   5.418   7.205  14.487
31030W        W 4098  26.461   9.312   4.572
31031W        W 4099  42.940  32.484  11.163
31032W        W 4100  33.370  33.493   0.768
31033W        W 4101  37.901  28.411  11.110
31034W        W 4102  26.709  39.405  12.512
31035W        W 4103  36.932  24.154  14.788
31036W        W 4104  38.066  33.156   0.372
31037W        W 4105  12.812  36.598   3.559
31038W        W 4106  33.104  20.825   0.367
31039W        W 4107  17.390  28.257   0.863
31040W        W 4108  37.715  33.337  10.729
31041W        W 4109  15.965  11.581   4.569
31042W        W 4110  14.147   5.244   3.116
31043W        W 4111  24.024  40.443  12.547
31044W        W 4112  14.171  32.599   4.427
31045W        W 4113  18.520  30.032  12.449
31046W        W 4114  36.610   6.394  14.292
31047W        W 4115  17.766  42.794  11.219
31048W        W 4116   6.803  25.473  14.301
31049W        W 4117  29.656  43.094  10.718
31050W        W 4118  16.807  32.205  12.933
31051W        W 4119  11.691  34.732  10.264
31052W        W 4120  37.192  32.035  10.669
31053W        W 4121  31.067   6.649   4.501
31054W        W 4122  34.437   7.203   4.617
31055W        W 4123  15.229  13.644   2.326
31056W        W 4124   2.924  19.246   0.226
31057W        W 4125  35.964  33.672  14.410
31058W        W 4126  17.047  33.890  10.630
31059W        W 4127  36.188  31.265  10.295
31060W        W 4128  17.621  23.406  13.464
31061W        W 4129   7.517   8.709   2.488
31062W        W 4130  28.122   2.979   0.958
31063W        W 4131  42.715   4.245  11.071
31064W        W 4132  28.650   0.321  12.194
31065W        W 4133  20.599  10.852  11.578
31066W        W 4134   4.869   5.826  11.024
31067W        W 4135  44.561  13.782   0.757
31068W        W 4136  26.125  42.921   3.201
31069W        W 4137  40.850  23.674  10.381
31070W        W 4138  15.533  21.521   0.271
31071W        W 4139  19.418  38.401  13.966
31072W        W 4140  21.247  41.169  11.521
31073W        W 4141  37.660  32.912   1.173
31074W        W 4142  18.535  34.149   2.871
31075W        W 4143  32.807  21.359  12.016
31076W        W 4144  26.942  39.410  11.636
31077W        W 4145   2.564  12.202  12.480
31078W        W 4146   7.118  28.083   4.766
31079W        W 4147   5.761  39.932  13.492
31080W        W 4148   0.405  31.472  12.531
31081W        W 4149  40.096  29.946   3.280
31082W        W 4150  15.820   1.041   2.393
31083W        W 4151   9.395  25.546  11.872
31084W        W 4152  28.815  11.177   2.773
31085W        W 4153  21.984  17.536  11.734
31086W        W 4154  35.092   4.956  13.549
31087W        W 4155  40.487  35.715   4.640
31088W        W 4156   4.330  27.512   3.701
31089W        W 4157   4.174  33.070   4.849
31090W        W 4158  24.279  43.478   0.454
31091W        W 4159  16.314  40.377   2.643
31092W        W 4160   1.478  16.262  13.490
31093W        W 4161  15.813   9.114   3.175
31094W        W 4162  42.554   5.456   0.748
31095W        W 4163  33.621  44.338  12.039
31096W        W 4164   4.177  37.173  10.264
31097W        W 4165  32.355  33.324   1.625
31098W        W 4166  34.898  29.340  13.960
31099W        W 4167   4.902  24.172  14.860
31100W        W 4168  44.486  27.992   1.705
31101W        W 4169   9.827  41.918  13.526
31102W        W 4170  26.972  35.590   0.687
31103W        W 4171  40.923  10.130  13.275
31104W        W 4172  43.276  43.099  13.469
31105W        W 4173  21.509  30.820  11.097
31106W        W 4174  44.756  40.359  13.432
31107W        W 4175   7.677  23.640  14.764
31108W        W 4176  32.599  13.104  13.367
31109W        W 4177  42.658   2.844  12.144
31110W        W 4178  24.503  34.169   3.086
31111W        W 4179   5.564   7.039   3.033
31112W        W 4180  16.348   3.404  13.555
31113W        W 4181  36.626  31.988   0.614
31114W        W 4182   9.011  24.706  11.480
31115W        W 4183  18.642  32.694  11.932
31116W        W 4184  36.456  33.420   1.198
31117W        W 4185   0.758  13.771  11.621
31118W        W 4186  16.148  39.295  11.209
31119W        W 4187  36.873  10.289  11.846
31120W        W 4188  24.403   8.294   1.481
31121W        W 4189  44.890   2.944  13.365
31122W        W 4190  26.459  22.049   0.425
31123W        W 4191   3.185  11.578   3.743
31124W        W 4192  12.143  14.986   2.975
31125W        W 4193  19.191   3.743  12.319
31126W        W 4194  28.964  17.137   0.954
31127W        W 4195  23.189  38.363  13.605
31128W        W 4196   8.883  14.764   2.231
31129W        W 4197  38.486  27.011   1.517
31130W        W 4198  44.856  27.313   4.591
31131W        W 4199  18.510   3.349   5.027
31132W        W 4200   1.801  17.587   2.373
31133W        W 4201  26.649  20.253  13.000
31134W        W 4202  39.892   6.310   5.049
31135W        W 4203   0.358   1.675   2.304
31136W        W 4204   9.815  17.552   3.769
31137W        W 4205   4.991  15.065   2.390
31138W        W 4206  40.541   6.362  11.056
31139W        W 4207  35.312  39.556  13.416
31140W        W 4208  37.969  15.127  11.130
31141W        W 4209  27.156  16.281   0.488
31142W        W 4210  10.879   4.693   3.749
31143W        W 4211   3.261  25.474   2.822
31144W        W 4212  44.448  39.350   4.297
31145W        W 4213   7.867   5.863   1.210
31146W        W 4214  20.486  13.798  11.565
31147W        W 4215  33.714   1.227  14.472
31148W        W 4216  42.843  42.403  13.102
31149W        W 4217  21.299  31.951  13.827
31150W        W 4218  33.080   3.929  13.163
31151W        W 4219  10.584   4.905   3.356
31152W        W 4220  19.197   2.516   2.681
31153W        W 4221  22.574   8.614  12.445
31154W        W 4222   7.897  25.511   0.431
31155W        W 4223   1.376   4.432  12.662
31156W        W 4224  26.712  23.532  12.565
31157W        W 4225   2.327  42.577  13.532
31158W        W 4226  42.268  34.025   2.316
31159W        W 4227  25.400  11.750   5.390
31160W        W 4228  16.504  16.098  14.494
31161W        W 4229  36.160   8.871   3.313
31162W        W 4230   4.245  17.063   3.657
31163W        W 4231  15.315  41.560   3.927
31164W        W 4232   6.815  27.741   3.217
31165W        W 4233   2.841   5.620   0.514
31166W        W 4234  43.452  34.543   0.006
31167W        W 4235   0.049   7.311   4.242
31168W        W 4236  44.202  40.592   2.358
31169W        W 4237  44.699  17.053  10.732
31170W        W 4238  21.300  25.652   3.603
31171W        W 4239  20.075  41.421   4.591
31172W        W 4240   6.706  16.754   4.895
31173W        W 4241  18.261   2.446   1.113
31174W        W 4242  18.414  16.670  12.658
31175W        W 4243  12.130  21.792  10.620
31176W        W 4244  19.430  26.746  10.340
31177W        W 4245  25.357  22.698   2.357
31178W        W 4246  39.039  20.624   4.067
31179W        W 4247   0.371  12.290  12.871
31180W        W 4248   0.164  10.979  13.896
31181W        W 4249  12.222  28.686  11.697
31182W        W 4250  22.647  21.239   9.870
31183W        W 4251  20.763  20.153  11.556
31184W        W 4252  28.031  30.584  10.747
31185W        W 4253  35.424  23.066  13.575
31186W        W 4254  14.327  27.263   1.688
31187W        W 4255  13.226   9.807  12.138
31188W        W 4256  11.751  12.685  12.590
31189W        W 4257  24.997  43.354  14.654
31190W        W 4258  38.633   9.802   2.852
31191W        W 4259  19.672  14.253   5.136
31192W        W 4260  15.407  18.490   1.825
31193W        W 4261  24.884  27.513  13.113
31194W        W 4262  16.839   3.730   0.374
31195W        W 4263  36.216  21.877   0.541
31196W        W 4264  42.473  33.032   3.693
31197W        W 4265  19.808  15.779  13.291
31198W        W 4266  44.163  19.045  13.977
31199W        W 4267  28.453   1.319   3.296
31200W        W 4268   3.364  39.585   2.048
31201W        W 4269   9.477  11.551   5.031
31202W        W 4270   0.702  34.957   4.250
31203W        W 4271  18.571  31.166  13.019
31204W        W 4272  12.322  18.713   2.924
31205W        W 4273  44.723  26.287   3.538
31206W        W 4274  18.173  40.006  10.539
31207W        W 4275  44.027   1.147   2.215
31208W        W 4276  23.469  27.567   0.779
31209W        W 4277   3.186   3.235  11.517
31210W        W 4278  21.596  26.545  12.818
31211W        W 4279  42.942  34.152  14.353
31212W        W 4280  15.648  14.934   1.283
31213W        W 4281  32.128  39.564   3.868
31214W        W 4282  35.008   7.171   1.290
31215W        W 4283  16.758  31.688  10.736
31216W        W 4284  36.163   9.640   0.857
31217W        W 4285  38.966  19.970  10.577
31218W        W 4286   8.941   6.092  12.920
31219W        W 4287   0.261  28.958  14.873
31220W        W 4288   3.960   8.402   3.258
31221W        W 4289  11.905  24.585   1.030
31222W        W 4290  11.551  38.982  13.553
31223W        W 4291  15.737  16.294  14.004
31224W        W 4292  23.181  37.049   3.945
31225W        W 4293  38.540  19.578  12.072
31226W        W 4294   3.959   4.386   3.658
31227W        W 4295   0.766   9.313  14.971
31228W        W 4296  12.803  18.611  13.493
31229W        W 4297  33.732   5.643  11.178
31230W        W 4298  39.468   1.022   4.585
31231W        W 4299  35.575   7.982   3.293
31232W        W 4300   7.027  35.913  12.850
31233W        W 4301   0.289  35.973  13.990
31234W        W 4302   8.299  30.381  14.825
31235W        W 4303  13.677  13.776  14.468
31236W        W 4304  29.745  27.397   3.145
31237W        W 4305  15.579  27.179   3.132
31238W        W 4306  30.697  27.039   3.219
31239W        W 4307  33.760  24.144  13.801
31240W        W 4308  22.653   0.877  14.290
31241W        W 4309  17.801  11.853   0.923
31242W        W 4310   9.075   8.333  13.110
31243W        W 4311  19.020  18.332  12.547
31244W        W 4312  39.095  14.317  14.985
31245W        W 4313  18.506   0.283   3.323
31246W        W 4314  23.027  18.242  11.493
31247W        W 4315  21.127  14.617  11.430
31248W        W 4316  24.741  17.120   5.723
31249W        W 4317   3.051  12.327  11.476
31250W        W 4318  44.466  18.708  10.579
31251W        W 4319  44.706  24.675  12.335
31252W        W 4320  25.600  30.825  14.786
31253W        W 4321  28.359  20.140  11.156
31254W        W 4322   4.807  44.310   2.250
31255W        W 4323  14.781  37.547   3.871
31256W        W 4324   8.922   2.956   4.591
31257W        W 4325  10.462  34.360  13.906
31258W        W 4326  29.684  21.056  10.229
31259W        W 4327  40.682  29.087   3.266
31260W        W 4328  35.190  31.398  10.217
31261W        W 4329  39.928   5.954  14.936
31262W        W 4330  40.821   6.364  12.556
31263W        W 4331  18.345  17.954   2.782
31264W        W 4332  21.994   6.670  11.315
31265W        W 4333  43.727  40.751  14.665
31266W        W 4334   9.218  14.628  12.946
31267W        W 4335  13.225  18.227   1.467
31268W        W 4336  13.326  17.775   4.561
31269W        W 4337  25.180  30.916   4.179
31270W        W 4338   1.500  38.650   4.234
31271W        W 4339  35.866  29.119  13.585
31272W        W 4340  36.130  24.969  13.378
31273W        W 4341   4.685  24.780   0.608
31274W        W 4342  25.957  35.137  14.321
31275W        W 4343  20.004  33.223   0.559
31276W        W 4344  21.135  37.916   0.677
31277W        W 4345  36.350  12.266  13.498
31278W        W 4346  33.109   3.671   4.593
31279W        W 4347   5.355  38.008  14.425
31280W        W 4348   0.230  35.194  10.909
31281W        W 4349   6.393  25.620   0.439
31282W        W 4350  31.681  31.093   0.842
31283W        W 4351   8.923   1.194   0.201
31284W        W 4352  20.223  26.532  13.577
31285W        W 4353  15.357  29.181  11.985
31286W        W 4354  37.467  40.021  11.555
31287W        W 4355  23.025  10.377  14.762
31288W        W 4356   5.252  42.793   0.505
31289W        W 4357  25.090  24.747   0.300
31290W        W 4358  33.007  21.707   1.256
31291W        W 4359   7.215  11.224   1.030
31292W        W 4360  28.044  22.078   4.110
31293W        W 4361   1.549  43.941   2.139
31294W        W 4362   8.192  15.362   3.229
31295W        W 4363  31.980  17.661  10.684
31296W        W 4364  18.215  44.836   2.964
31297W        W 4365   1.341  29.164   2.366
31298W        W 4366  37.796  24.086  11.921
31299W        W 4367  19.850  33.841   1.301
31300W        W 4368  29.225  18.711  11.100
31301W        W 4369  20.833  16.672  13.491
31302W        W 4370  32.999   6.961   0.885
31303W        W 4371  29.217  12.172   3.540
31304W        W 4372   8.823  31.085  12.336
31305W        W 4373  31.446  36.332   3.992
31306W        W 4374  38.877  15.553   4.169
31307W        W 4375  35.102   3.006   3.657
31308W        W 4376  22.133  20.054  10.431
31309W        W 4377  33.091  13.222  13.433
31310W        W 4378  39.344   8.452  13.378
31311W        W 4379  35.445  41.228  11.402
31312W        W 4380  17.724  37.219  13.256
31313W        W 4381  15.045  26.490  12.604
31314W        W 4382   9.138  11.136  12.023
31315W        W 4383   3.326  38.277   1.429
31316W        W 4384   1.251  11.159  14.471
31317W        W 4385  38.610  27.579   1.186
31318W        W 4386  23.826  40.052   1.451
31319W        W 4387  20.258   5.104  12.648
31320W        W 4388  36.628   3.671  14.823
31321W        W 4389  39.955  22.506   4.639
31322W        W 4390  16.235  15.808  11.122
31323W        W 4391  28.978  14.566  12.847
31324W        W 4392   0.500   2.393   1.717
31325W        W 4393  26.433  41.402   2.369
31326W        W 4394   7.254   4.469  11.480
31327W        W 4395  41.734  35.061  10.687
31328W        W 4396  17.076   1.879   0.389
31329W        W 4397  35.888  35.211  12.245
31330W        W 4398   1.395  36.185  12.265
31331W        W 4399  35.281  30.293  14.347
31332W        W 4400   0.881  10.396   4.507
31333W        W 4401  22.521   9.423   1.798
31334W        W 4402  33.359  39.499  14.289
31335W        W 4403  20.104  32.597  14.157
31336W        W 4404   4.768  15.695   3.037
31337W        W 4405   5.923   1.399  10.778
31338W        W 4406   8.992  43.001  14.938
31339W        W 4407  26.977  10.806  12.578
31340W        W 4408  15.830   9.626  14.365
31341W        W 4409  39.574  32.485   3.423
31342W        W 4410  19.225   6.213   2.895
31343W        W 4411  12.394  27.749   1.749
31344W        W 4412  18.691  39.465  12.834
31345W        W 4413   4.848  36.283   5.014
31346W        W 4414  23.692  20.547   1.488
31347W        W 4415  21.546  16.189   0.431
31348W        W 4416  14.736  40.081  14.722
31349W        W 4417  33.790  44.357  11.007
31350W        W 4418  10.652  38.115  10.736
31351W        W 4419  26.258  34.354   2.662
31352W        W 4420   0.345  39.452   0.308
31353W        W 4421  32.420  35.949  14.497
31354W        W 4422  13.833  26.540   3.729
31355W        W 4423  44.778   1.952  13.891
31356W        W 4424   5.741  11.874  12.516
31357W        W 4425  26.641   5.227  14.381
31358W        W 4426  18.911  26.575  10.383
31359W        W 4427  21.057  44.913  11.501
31360W        W 4428   9.429   2.755   3.812
31361W        W 4429  13.830  14.366  10.762
31362W        W 4430  27.580  32.149  14.514
31363W        W 4431  10.328  25.401  14.272
31364W        W 4432  20.106  42.868   2.797
31365W        W 4433  35.564   2.530  14.489
31366W        W 4434  40.607  17.431  12.533
31367W        W 4435  10.742  27.915   4.573
31368W        W 4436  44.524   5.398  12.066
31369W        W 4437  21.711   4.770  13.878
31370W        W 4438   0.769  41.861   4.132
31371W        W 4439  23.099  22.154   0.257
31372W        W 4440  13.287  36.526  11.616
31373W        W 4441  25.727  16.550   4.084
31374W        W 4442  26.356  18.334  11.091
31375W        W 4443  28.565   0.675   0.807
31376W        W 4444  32.643   4.453  13.951
31377W        W 4445  13.762  26.375   0.958
31378W        W 4446  27.504  41.753  13.324
31379W        W 4447  44.854  18.491  14.865
31380W        W 4448   4.253  26.124  13.001
31381W        W 4449  34.539   5.985  13.725
31382W        W 4450  31.358  25.211   1.045
31383W        W 4451  30.629  12.534  12.764
31384W        W 4452   9.174  13.831  13.332
31385W        W 4453  41.556   5.863   4.683
31386W        W 4454  39.802  40.580   1.268
31387W        W 4455  36.620  40.367  11.983
31388W        W 4456  28.692  28.540  10.810
31389W        W 4457  12.363  30.644   4.543
31390W        W 4458   8.268  29.233   2.757
31391W        W 4459   1.358  37.328   0.233
31392W        W 4460   4.785  23.663   0.249
31393W        W 4461  23.520  19.459   9.813
31394W        W 4462  23.376  24.981   1.697
31395W        W 4463   8.953  19.046  11.945
31396W        W 4464  39.589  28.090  12.901
31397W        W 4465  19.477  32.566   0.591
31398W        W 4466  16.428  25.944  14.439
31399W        W 4467  11.863  13.669   4.309
31400W        W 4468  18.201  19.162  11.527
31401W        W 4469   2.229  42.923   3.138
31402W        W 4470   5.460  31.836   3.185
31403W        W 4471  38.525  28.394  11.617
31404W        W 4472  29.471  27.525  10.709
31405W        W 4473   9.868  27.590   4.582
31406W        W 4474  11.676  30.062   4.618
31407W        W 4475  32.663  25.508   0.698
31408W        W 4476   3.914  27.190   1.412
31409W        W 4477   4.148  21.238  10.738
31410W        W 4478  11.615  16.561   0.360
31411W        W 4479  29.996   1.508   3.195
31412W        W 4480  30.494  32.917   3.235
31413W        W 4481   1.390   5.152  13.189
31414W        W 4482  16.937  14.514  12.514
31415W        W 4483  44.327  18.666  11.497
31416W        W 4484  29.115  15.596   2.867
31417W        W 4485   8.817   4.983  13.982
31418W        W 4486  19.801  31.648   4.131
31419W        W 4487  30.880  24.630  11.180
31420W        W 4488  43.354   9.124  12.848
31421W        W 4489  39.328  38.358  13.347
31422W        W 4490   4.204  26.845  14.368
31423W        W 4491   2.491   7.939  11.703
31424W        W 4492  17.284  26.451   4.135
31425W        W 4493   6.545  13.569  14.832
31426W        W 4494   1.113  25.497  12.261
31427W        W 4495  25.962  12.361  10.911
31428W        W 4496  15.543  33.067  14.818
31429W        W 4497  15.793   0.042   3.263
31430W        W 4498  41.312  35.579   0.773
31431W        W 4499  40.435  16.995  11.354
31432W        W 4500   7.904  42.351   4.756
31433W        W 4501  24.680  40.169   4.582
31434W        W 4502   7.504  32.921   0.797
31435W        W 4503  44.856   3.365  10.779
31436W        W 4504  31.736  38.249   3.262
31437W        W 4505  11.970  12.308   4.801
31438W        W 4506  24.568  34.980   1.723
31439W        W 4507   7.940   2.649   0.768
31440W        W 4508  28.467  24.741   3.244
31441W        W 4509  16.326  29.112  11.065
31442W        W 4510  33.629  21.978   3.617
31443W        W 4511  13.696  12.672   4.227
31444W        W 4512  42.449   7.200   1.237
31445W        W 4513  38.815  33.882  13.504
31446W        W 4514  25.694  25.384  11.966
31447W        W 4515  34.548   6.151   1.769
31448W        W 4516   1.202  31.668  13.036
31449W        W 4517  43.086   4.132   3.308
31450W        W 4518  37.080  19.063  13.036
31451W        W 4519  36.421   1.824  10.772
31452W        W 4520  25.692  36.577  14.325
31453W        W 4521  33.442  42.621   5.071
31454W        W 4522  20.192  29.462   0.696
31455W        W 4523  39.424   6.637  11.175
31456W        W 4524  16.894  13.668  11.607
31457W        W 4525   6.925   0.269   2.698
31458W        W 4526  13.798  18.306  14.102
31459W        W 4527   1.928  20.523   4.175
31460W        W 4528   4.567  27.495  10.454
31461W        W 4529  24.526  27.034   1.833
31462W        W 4530  27.206  42.591  11.615
31463W        W 4531  27.936  38.531  13.469
31464W        W 4532  31.162  38.322   2.267
31465W        W 4533  31.006   2.325   2.328
31466W        W 4534  19.190  34.599  11.903
31467W        W 4535  22.856  10.378  13.490
31468W        W 4536  23.230  33.764   3.257
31469W        W 4537  21.544   1.514  10.983
31470W        W 4538  44.488   1.728   4.952
31471W        W 4539  24.284  16.912  13.839
31472W        W 4540  21.439  35.920  12.951
31473W        W 4541   0.341  41.922  10.912
31474W        W 4542  13.050  17.628   4.984
31475W        W 4543   6.558  44.107   3.269
31476W        W 4544  10.716  37.399  12.032
31477W        W 4545  23.065  20.033  12.933
31478W        W 4546   5.780  10.361  14.716
31479W        W 4547  39.442   9.938   0.929
31480W        W 4548  34.120  34.625   2.095
31481W        W 4549  26.274   8.369  14.139
31482W        W 4550  31.616   3.977  10.771
31483W        W 4551  20.202  43.876  14.440
31484W        W 4552   1.140  21.506   4.071
31485W        W 4553   3.511  27.473   3.030
31486W        W 4554  15.712  30.752   4.166
31487W        W 4555  16.133  12.677  11.906
31488W        W 4556   6.182  19.047  10.694
31489W        W 4557  29.776  21.987  11.490
31490W        W 4558  13.596  20.982   2.278
31491W        W 4559  39.055  34.848   4.033
31492W        W 4560  12.131  11.143   2.785
31493W        W 4561  43.323  12.817   3.421
31494W        W 4562  19.179  35.279   1.163
31495W        W 4563  41.444  17.119   4.222
31496W        W 4564  19.024  16.221   3.039
31497W        W 4565  35.881   5.790   2.335
31498W        W 4566  27.588  18.514  12.867
31499W        W 4567  17.577   4.468  11.513
31500W        W 4568   8.318  14.212   2.680
31501W        W 4569  39.017   2.673  13.464
31502W        W 4570  41.897  30.661  11.561
31503W        W 4571  24.476  36.003   1.227
31504W        W 4572   1.761   6.784   2.267
31505W        W 4573  43.695   6.438   3.837
31506W        W 4574  37.668  16.604  13.850
31507W        W 4575   1.829  37.305   0.012
31508W        W 4576  44.229  31.406  13.558
31509W        W 4577  17.310  34.735   1.817
31510W        W 4578   3.993  31.769  12.426
31511W        W 4579   6.185   5.269  13.458
31512W        W 4580  43.884  34.868   5.056
31513W        W 4581  18.776  29.622   4.377
31514W        W 4582  11.903   3.279  10.831
31515W        W 4583  12.638  12.616  13.680
31516W        W 4584  25.602  43.801  10.940
31517W        W 4585  40.345  24.150   2.574
31518W        W 4586  40.811  21.907   2.701
31519W        W 4587  40.731  25.012   4.200
31520W        W 4588  40.889  16.940  14.741
31521W        W 4589   5.358  20.259   2.706
31522W        W 4590   4.351  20.993   3.306
31523W        W 4591  44.836   8.639   3.995
31524W        W 4592  13.879  22.147  10.800
31525W        W 4593   1.744  39.632  12.039
31526W        W 4594  20.248  28.637   4.605
31527W        W 4595  38.509   9.205   3.827
31528W        W 4596  19.504  43.073   2.259
31529W        W 4597  31.635  18.292  13.625
31530W        W 4598  27.915  22.156  10.704
31531W        W 4599  10.465  22.563  11.126
31532W        W 4600  32.918  13.465   1.831
31533W        W 4601  23.020   9.073  11.545
31534W        W 4602  11.161  28.180  12.863
31535W        W 4603  43.320  38.029  14.234
31536W        W 4604  19.351  43.440   1.722
31537W        W 4605  14.623  16.239  13.838
31538W        W 4606  37.588  10.211  14.301
31539W        W 4607  15.807  38.294  13.124
31540W        W 4608  12.244  28.831   0.374
31541W        W 4609  38.989   0.455  10.798
31542W        W 4610   7.428  39.418  10.479
31543W        W 4611  15.603  12.065   0.672
31544W        W 4612  29.576  41.037  11.684
31545W        W 4613  40.681  11.074  11.589
31546W        W 4614  39.274   1.401   4.310
31547W        W 4615   9.570  36.457  12.389
31548W        W 4616  18.312  28.449  10.888
31549W        W 4617   6.885  33.136   2.225
31550W        W 4618   4.301  12.701   2.896
31551W        W 4619   7.103   8.205   2.415
31552W        W 4620  21.322  14.816  13.401
31553W        W 4621  15.538   8.328  11.097
31554W        W 4622  14.626  30.562   3.729
31555W        W 4623  15.692  29.067   3.248
31556W        W 4624  32.221  26.609  14.851
31557W        W 4625  17.339  13.589   1.625
31558W        W 4626   7.389  37.275  13.940
31559W        W 4627  42.888  40.329   0.049
31560W        W 4628  17.551  20.322   0.712
31561W        W 4629  25.112  36.897   2.576
31562W        W 4630   1.412  25.150  13.531
31563W        W 4631   9.576  37.488   3.438
31564W        W 4632  19.968  35.527  12.152
31565W        W 4633  28.493  24.766  14.237
31566W        W 4634   6.401  29.438   0.317
31567W        W 4635  24.777  22.104   2.685
31568W        W 4636   9.719   7.424  10.401
31569W        W 4637  30.760  36.403  11.069
31570W        W 4638  40.838  27.745  12.604
31571W        W 4639   3.843   4.367   4.647
31572W        W 4640   5.774   9.876  13.494
31573W        W 4641  23.703  13.794   2.188
31574W        W 4642  35.424  12.696   1.692
31575W        W 4643   2.011  19.020  13.486
31576W        W 4644  21.952  38.934   1.767
31577W        W 4645  11.463   7.243   2.108
31578W        W 4646  44.814  44.161  10.632
31579W        W 4647  33.650  40.368   3.197
31580W        W 4648   1.296  24.206   0.498
31581W        W 4649  26.929  26.052   3.767
31582W        W 4650  38.574   5.585   2.276
31583W        W 4651  44.254  38.973  14.917
31584W        W 4652  39.104  17.577   4.349
31585W        W 4653  28.546  44.478   4.272
31586W        W 4654  40.980  28.237   4.345
31587W        W 4655   1.200   5.945  10.769
31588W        W 4656  37.773  29.403   0.265
31589W        W 4657  37.662  35.474   1.694
31590W        W 4658  24.772  17.745   2.183
31591W        W 4659  34.011  26.388   4.904
31592W        W 4660  36.480  25.705   0.076
31593W        W 4661  11.636  32.687   0.914
31594W        W 4662  12.191   2.037   0.358
31595W        W 4663  16.284   5.011   0.295
31596W        W 4664  29.510   8.616   2.768
31597W        W 4665  20.405  30.474   1.656
31598W        W 4666  21.923  42.317  12.141
31599W        W 4667  36.578  44.330  11.640
31600W        W 4668  23.029  12.734   1.635
31601W        W 4669  25.114   7.905  11.946
31602W        W 4670  23.094  32.813   2.857
31603W        W 4671  19.769  31.035  14.931
31604W        W 4672   4.524   9.853   3.206
31605W        W 4673  25.501  30.626   0.691
31606W        W 4674  25.899  42.950   1.560
31607W        W 4675  20.838  10.116  11.295
31608W        W 4676   4.373  30.692  12.130
31609W        W 4677  31.012  10.901  12.883
31610W        W 4678  37.388  39.107  13.869
31611W        W 4679   6.845  28.580   2.591
31612W        W 4680   1.787   7.426  11.191
31613W        W 4681   5.610  30.988   1.074
31614W        W 4682  30.437  38.320  11.570
31615W        W 4683  13.082  24.714  13.852
31616W        W 4684  42.207   2.851  10.732
31617W        W 4685  26.214  13.092   4.256
31618W        W 4686   7.119  34.537  14.058
31619W        W 4687  14.194  20.450   4.056
31620W        W 4688   9.216  11.869   3.577
31621W        W 4689  10.396  40.297   3.796
31622W        W 4690  26.601   3.504   0.410
31623W        W 4691  10.657  13.581   1.177
31624W        W 4692  33.628  31.427  13.049
31625W        W 4693  42.078  27.571   1.847
31626W        W 4694  24.012  40.958  11.961
31627W        W 4695  43.274  20.765  13.515
31628W        W 4696  14.780  18.568   4.439
31629W        W 4697   5.302   3.872  11.884
31630W        W 4698  39.075   3.945  14.872
31631W        W 4699  26.732  30.048   3.345
31632W        W 4700   5.840   4.309  14.596
31633W        W 4701  31.658  25.173   2.886
31634W        W 4702  44.774  32.644  10.923
31635W        W 4703  33.028   6.919  12.905
31636W        W 4704  23.287  15.624  10.093
31637W        W 4705  17.006   0.492   3.236
31638W        W 4706   1.454  14.762  13.475
31639W        W 4707  11.199  35.825  11.021
31640W        W 4708   4.682  30.393   2.231
31641W        W 4709  28.459  23.017   1.685
31642W        W 4710  38.634   6.235  10.447
31643W        W 4711  40.684  31.865  11.882
31644W        W 4712  43.442  23.310   4.206
31645W        W 4713  30.121  37.769  12.425
31646W        W 4714  33.088  33.378  11.377
31647W        W 4715  11.616  21.643  10.583
31648W        W 4716   6.876  29.529   0.465
31649W        W 4717  40.608  26.314  14.699
31650W        W 4718  43.723  11.795  14.292
31651W        W 4719  43.972  38.219  13.058
31652W        W 4720  21.178  27.223   1.425
31653W        W 4721  22.512   4.364   4.436
31654W        W 4722  19.094  29.559  10.755
31655W        W 4723   6.320  39.043  11.928
31656W        W 4724   8.793   8.320   1.706
31657W        W 4725  32.409   0.753  14.008
31658W        W 4726  32.869  12.963   2.001
31659W        W 4727  40.500  17.738   2.647
31660W        W 4728   1.968   0.476   2.331
31661W        W 4729  40.521  13.723  14.304
31662W        W 4730  14.373  22.155  14.880
31663W        W 4731   6.800  31.857  13.298
31664W        W 4732  32.486   6.324   4.690
31665W        W 4733  25.588  39.544   2.424
31666W        W 4734  35.505  24.549   2.712
31667W        W 4735  15.036  15.215  14.281
31668W        W 4736  29.376   8.396  12.611
31669W        W 4737  25.270  33.144   1.591
31670W        W 4738   9.771  13.324   1.764
31671W        W 4739  41.107  40.384  13.992
31672W        W 4740  30.885  44.030   1.859
31673W        W 4741  15.062  30.343  11.289
31674W        W 4742  17.015  16.732   0.286
31675W        W 4743  38.474  29.046  14.863
31676W        W 4744   9.724  30.292  11.331
31677W        W 4745  27.584  24.966  14.050
31678W        W 4746  19.914   4.404  14.048
31679W        W 4747  32.701  23.642  12.014
31680W        W 4748   4.431  31.368   2.344
31681W        W 4749  43.400   4.345  13.247
31682W        W 4750  10.722  44.735  12.345
31683W        W 4751  43.980  25.275  14.439
31684W        W 4752  42.324  26.980   2.394
31685W        W 4753   6.608  10.856  14.320
31686W        W 4754  25.163  41.497  11.905
31687W        W 4755  39.726  40.044   4.848
31688W        W 4756  19.294  37.313   1.344
31689W        W 4757  44.060  35.158   2.198
31690W        W 4758  21.297  37.042  10.688
31691W        W 4759  32.988  33.135   2.811
31692W        W 4760  39.130  14.330   0.844
31693W        W 4761  11.504  29.395   5.012
31694W        W 4762  25.488  12.305   1.871
31695W        W 4763  31.015   8.315   4.846
31696W        W 4764  35.445   9.501   2.380
31697W        W 4765  24.137  28.432  11.748
31698W        W 4766  43.006   6.991  12.578
31699W        W 4767  11.189   7.953   0.535
31700W        W 4768   1.275  16.588   1.230
31701W        W 4769  27.447  29.773  12.460
31702W        W 4770   3.908  40.908   3.883
31703W        W 4771  39.828  13.795   1.880
31704W        W 4772  28.239  22.193  11.220
31705W        W 4773  15.749  24.548  12.868
31706W        W 4774  19.068  27.461  12.842
31707W        W 4775  42.586  42.730  14.013
31708W        W 4776  27.591  17.019   1.169
31709W        W 4777  28.334  11.334  10.820
31710W        W 4778   7.917  27.396  13.854
31711W        W 4779   6.892  44.756   4.067
31712W        W 4780  40.660  41.480  10.995
31713W        W 4781   7.336   8.090   1.932
31714W        W 4782  24.982  13.984   3.694
31715W        W 4783  30.509   3.933   4.151
31716W        W 4784  30.922  25.600  11.426
31717W        W 4785  39.146  22.969   4.158
31718W        W 4786   3.732  33.965   4.090
31719W        W 4787   2.503  33.150  13.124
31720W        W 4788  19.193   5.277   1.866
31721W        W 4789  15.082  22.213  11.628
31722W        W 4790   3.792  30.406  10.346
31723W        W 4791  39.471  29.358   1.673
31724W        W 4792  13.747  10.874   3.725
31725W        W 4793   3.722   2.841  14.879
31726W        W 4794  43.509   9.888   4.366
31727W        W 4795  40.369   1.674  13.062
31728W        W 4796  19.289   0.928  12.911
31729W        W 4797  35.532  43.538   1.360
31730W        W 4798   6.686   5.220  12.452
31731W        W 4799   8.910  14.720  12.517
31732W        W 4800  31.938   3.382   0.296
31733W        W 4801  39.038  11.291   4.072
31734W        W 4802   7.630  10.195   5.123
31735W        W 4803  41.256  43.736   0.673
31736W        W 4804  32.974  13.113  10.792
31737W        W 4805  33.334  33.789   3.200
31738W        W 4806   4.462  43.808   0.803
31739W        W 4807  25.231  38.337   0.126
31740W        W 4808  12.902   5.278  10.926
31741W        W 4809   2.426  22.443  13.406
31742W        W 4810  33.174  35.873  11.842
31743W        W 4811  38.094  27.752   1.456
31744W        W 4812  10.957   9.665  14.321
31745W        W 4813  40.848  18.155   4.767
31746W        W 4814  20.729  40.460  11.130
31747W        W 4815  21.036  22.064   1.481
31748W        W 4816   9.489  11.655   3.205
31749W        W 4817  36.368   3.370   1.867
31750W        W 4818  34.066   0.342  14.965
31751W        W 4819  35.499  26.057  12.157
31752W        W 4820   0.289  44.878   1.999
31753W        W 4821  42.378  34.559   1.055
31754W        W 4822   8.415  26.629   2.767
31755W        W 4823  13.553  15.829   2.671
31756W        W 4824  14.023  44.008   2.801
31757W        W 4825  28.053  20.523   4.742
31758W        W 4826  39.862  33.929  11.926
31759W        W 4827  17.253  30.447   2.243
31760W        W 4828  10.218   4.171   2.783
31761W        W 4829   2.391  35.994  13.911
31762W        W 4830  19.437  26.019  11.600
31763W        W 4831  44.660  34.621   3.155
31764W        W 4832  35.973  14.651   4.476
31765W        W 4833   6.440   7.959  14.052
31766W        W 4834  23.580  10.199  11.139
31767W        W 4835  13.688  38.613   4.514
31768W        W 4836  13.410   5.695  14.296
31769W        W 4837  34.568  44.967  13.831
31770W        W 4838   8.959  14.858  10.788
31771W        W 4839   8.677   9.359   4.558
31772W        W 4840   4.241   0.417  12.072
31773W        W 4841  44.068  29.566  14.314
31774W        W 4842  35.689   7.124   4.461
31775W        W 4843   3.854  16.156  14.444
31776W        W 4844  44.732  22.580   2.849
31777W        W 4845  41.393   9.918   0.853
31778W        W 4846  16.361  19.138  11.691
31779W        W 4847  17.370  14.330  12.733
31780W        W 4848  19.106  10.855   4.264
31781W        W 4849  29.533  32.500  14.392
31782W        W 4850  34.427  29.301   3.280
31783W        W 4851  41.943  27.630  13.802
31784W        W 4852  42.032  21.438   1.973
31785W        W 4853  36.874  43.513   3.276
31786W        W 4854  22.533  27.609  10.304
31787W        W 4855  19.366  29.126   0.216
31788W        W 4856  16.572  20.629   3.206
31789W        W 4857  16.355  29.085   2.426
31790W        W 4858  20.693  32.335   1.645
31791W        W 4859  20.119  30.455   2.627
31792W        W 4860  22.435  44.820   0.745
31793W        W 4861  41.040   5.433  13.582
31794W        W 4862   4.968  18.256   1.686
31795W        W 4863  37.423   5.353   3.388
31796W        W 4864  24.681  35.787   0.041
31797W        W 4865   6.376  12.359   2.743
31798W        W 4866  41.023  31.314  13.768
31799W        W 4867  14.783   7.238  14.071
31800W        W 4868   9.918  32.100   0.785
31801W        W 4869  33.644  10.939  13.859
31802W        W 4870   4.049  10.134  13.978
31803W        W 4871   0.140   3.809  10.946
31804W        W 4872   5.960  24.681   3.567
31805W        W 4873  19.027  20.959   4.135
31806W        W 4874  20.765  35.171  11.929
31807W        W 4875  33.182  25.949  13.040
31808W        W 4876  42.919  20.539  14.780
31809W        W 4877  34.988  44.388   2.019
31810W        W 4878   2.194  34.452   1.867
31811W        W 4879  16.189  18.570  12.908
31812W        W 4880  29.533  34.385   3.670
31813W        W 4881  24.206  18.179   1.922
31814W        W 4882  41.868  25.364  14.054
31815W        W 4883  33.512  17.798  13.842
31816W        W 4884  18.632  27.920  13.515
31817W        W 4885  10.265  14.412  14.291
31818W        W 4886  31.960   8.491  11.044
31819W        W 4887  17.348  10.769  14.902
31820W        W 4888  28.512  20.136   4.251
31821W        W 4889  29.260  42.765   4.356
31822W        W 4890  20.203  14.681  14.424
31823W        W 4891  41.014  15.884  11.064
31824W        W 4892   2.510  12.444  14.471
31825W        W 4893   2.724   4.831   1.207
31826W        W 4894  28.068  30.300  10.321
31827W        W 4895  33.558   9.038   0.886
31828W        W 4896  33.924   2.746  11.499
31829W        W 4897   6.506  32.028   0.697
31830W        W 4898  23.836  43.778   3.165
31831W        W 4899  10.635  10.262  10.733
31832W        W 4900  33.347   3.997   2.798
31833W        W 4901  32.510  40.833   3.634
31834W        W 4902   4.599  21.663  14.268
31835W        W 4903  23.443  19.806  10.726
31836W        W 4904   7.470  24.455  11.167
31837W        W 4905   5.390   2.240   0.734
31838W        W 4906  31.820   0.682  11.719
31839W        W 4907  39.339  15.559   2.048
31840W        W 4908  22.160  34.915   2.588
31841W        W 4909   1.386   5.928  14.415
31842W        W 4910  28.676  42.656   2.141
31843W        W 4911  18.312  18.607   0.426
31844W        W 4912  18.230  28.557  12.977
31845W        W 4913  13.018  41.177   4.402
31846W        W 4914   9.436  37.084   1.220
31847W        W 4915  42.338  29.406   4.108
31848W        W 4916   2.231   2.021  11.880
31849W        W 4917   1.826  43.209  12.529
31850W        W 4918  38.882  37.520  13.113
31851W        W 4919   1.839  17.201   0.837
31852W        W 4920  26.677  29.293  14.947
31853W        W 4921  28.027  36.242  12.038
31854W        W 4922  24.743  18.649   4.538
31855W        W 4923  32.815  43.181  14.691
31856W        W 4924   3.871   4.257   3.159
31857W        W 4925  39.069   9.598  11.039
31858W        W 4926  10.782   6.632  10.979
31859W        W 4927  20.215  13.064   4.191
31860W        W 4928  36.473   4.900  13.745
31861W        W 4929  22.267  37.644  11.649
31862W        W 4930  25.941  11.341   4.704
31863W        W 4931  26.788  25.894  11.088
31864W        W 4932  27.204  17.750   4.130
31865W        W 4933  43.146   5.168   4.104
31866W        W 4934   1.862   7.186   4.104
31867W        W 4935  14.363   9.248   2.297
31868W        W 4936  11.178  21.899  14.925
31869W        W 4937   1.969  19.295   0.590
31870W        W 4938  18.625   7.344  10.726
31871W        W 4939   3.851   7.463  11.688
31872W        W 4940  33.312  11.872   3.237
31873W        W 4941  42.896  42.392   3.334
31874W        W 4942  34.081  12.415  13.272
31875W        W 4943  37.071  17.684  13.018
31876W        W 4944  25.550  37.335  13.770
31877W        W 4945   2.437  44.338  11.895
31878W        W 4946  40.258  35.452  11.161
31879W        W 4947   7.281  10.703   4.514
31880W        W 4948   6.479  41.921   9.898
31881W        W 4949  11.106  42.808   4.742
31882W        W 4950  26.962  40.018   0.948
31883W        W 4951  31.393   7.653   3.252
31884W        W 4952   0.325   8.667   2.794
31885W        W 4953  36.896   8.430   0.718
31886W        W 4954  12.565   0.869   2.454
31887W        W 4955  22.146   4.965  14.907
31888W        W 4956  36.319   9.824   2.328
31889W        W 4957   0.502  43.326   3.888
31890W        W 4958   1.444   7.259  11.549
31891W        W 4959  30.811   7.705  13.007
31892W        W 4960  37.396  29.651  13.365
31893W        W 4961  23.437  31.150  12.813
31894W        W 4962  44.446   2.309   0.780
31895W        W 4963   5.168  43.468   4.638
31896W        W 4964  22.173   8.141  13.136
31897W        W 4965  22.159  29.669  12.919
31898W        W 4966   4.981  14.102  10.700
31899W        W 4967  36.574  39.081   2.873
31900W        W 4968  13.971  20.041   3.300
31901W        W 4969  40.760  31.664  12.360
31902W        W 4970  25.556  21.839  14.460
31903W        W 4971  32.217   5.870   1.444
31904W        W 4972  40.788  11.292  13.794
31905W        W 4973  42.523  36.540   4.535
31906W        W 4974  35.047  43.758   2.218
31907W        W 4975  41.975  16.604   0.830
31908W        W 4976  39.962  34.899  10.561
31909W        W 4977  43.496  20.425  13.890
31910W        W 4978   3.439  21.771   4.184
31911W        W 4979  29.714   4.492   0.464
31912W        W 4980  17.614  20.784  12.427
31913W        W 4981   1.930  23.334  12.035
31914W        W 4982  13.207  25.785   3.781
31915W        W 4983  26.341  10.227   0.385
31916W        W 4984   3.362  38.199   0.372
31917W        W 4985  18.677  43.097   0.330
31918W        W 4986  33.524  20.580  13.483
31919W        W 4987  20.502  31.425   0.329
31920W        W 4988   9.359  41.929   2.247
31921W        W 4989  28.394   7.136  11.745
31922W        W 4990  36.121  15.566   1.302
31923W        W 4991  29.968   6.757   2.758
31924W        W 4992  20.142  18.144  13.383
31925W        W 4993  24.511  12.026  12.971
31926W        W 4994  31.474  43.380  14.778
31927W        W 4995  35.790  10.119  14.956
31928W        W 4996  30.886   4.979   3.616
31929W        W 4997  25.558  10.976   4.773
31930W        W 4998  35.847  23.279   1.865
31931W        W 4999  43.740  31.336   2.408
31932W        W 5000  17.092  34.445   3.214
31933W        W 5001   2.822   2.997  14.282
31934W        W 5002  32.446   8.238   0.693
31935W        W 5003  14.186  30.078  11.089
31936W        W 5004  23.769  22.056   1.757
31937W        W 5005  25.573  13.237   5.034
31938W        W 5006  28.183  11.524   9.951
31939W        W 5007  38.440  38.928   1.278
31940W        W 5008  24.214  44.980  11.675
31941W        W 5009  16.708  36.937  12.520
31942W        W 5010   4.752   0.344  13.322
31943W        W 5011  20.716  19.082  12.981
31944W        W 5012  15.121  14.503   0.083
31945W        W 5013  27.539   8.687  12.852
31946W        W 5014  19.071  14.426   1.862
31947W        W 5015  34.957  28.632   0.942
31948W        W 5016  17.776  30.115   0.865
31949W        W 5017  15.492   4.754  10.886
31950W        W 5018   5.885  21.241  13.578
31951W        W 5019  24.704  25.928   3.282
31952W        W 5020   5.067  23.356   1.587
31953W        W 5021  13.777  22.184   3.614
31954W        W 5022  31.472   6.632  11.193
31955W        W 5023  21.178  27.198   0.895
31956W        W 5024  41.198  15.724   1.837
31957W        W 5025  43.853  17.137  13.061
31958W        W 5026  40.336  31.756  12.639
31959W        W 5027  20.235  20.957   3.921
31960W        W 5028   3.866  12.135   3.466
31961W        W 5029  12.675   5.571   1.495
31962W        W 5030  37.146   4.023   0.850
31963W        W 5031  23.069  41.255   2.335
31964W        W 5032  36.879  15.217   1.019
31965W        W 5033  34.112  25.424  14.841
31966W        W 5034  19.965   6.177  13.375
31967W        W 5035  36.201  28.626  11.572
31968W        W 5036  10.982  29.544   3.691
31969W        W 5037  12.771   0.870  11.242
31970W        W 5038  40.849   3.522  11.519
31971W        W 5039  24.966  27.016   4.398
31972W        W 5040   2.435  35.496   4.057
31973W        W 5041  37.130  27.462  11.887
31974W        W 5042  42.029   7.891  10.747
31975W        W 5043  14.591  21.329   0.291
31976W        W 5044  15.236  24.700   3.676
31977W        W 5045  40.392   7.368  13.765
31978W        W 5046  13.809  20.122  10.658
31979W        W 5047  25.944  33.656  11.229
31980W        W 5048   2.716  18.568  11.305
31981W        W 5049  29.854  27.650   0.672
31982W        W 5050  29.213  16.948   0.500
31983W        W 5051   5.311  30.857  14.025
31984W        W 5052  13.214  33.022   0.720
31985W        W 5053  29.761  28.692  10.499
31986W        W 5054  34.283  39.871   0.615
31987W        W 5055  17.175  19.229   4.630
31988W        W 5056  29.446  38.044  11.567
31989W        W 5057  33.377  30.474   0.134
31990W        W 5058   6.351  38.890   4.631
31991W        W 5059  41.431  40.554  10.578
31992W        W 5060  33.976  26.231  11.737
31993W        W 5061  38.950   9.592   3.292
31994W        W 5062  26.996  11.385  12.028
31995W        W 5063  14.361  35.385   3.490
31996W        W 5064   7.284  40.314   4.244
31997W        W 5065   7.269  13.930  13.335
31998W        W 5066  25.993  39.736   3.783
31999W        W 5067  35.354   3.907   3.682
32000W        W 5068  24.737  28.601   0.336
32001W        W 5069   3.965   9.405   2.320
32002W        W 5070   9.866   9.856   4.113
32003W        W 5071  12.033   8.213   4.602
32004W        W 5072  15.112  11.803   0.737
32005W        W 5073  37.052  38.144   3.595
32006W        W 5074  26.386  33.983   0.918
32007W        W 5075  28.407  25.686  14.289
32008W        W 5076  40.411   3.671  14.530
32009W        W 5077  44.889  34.973  13.025
32010W        W 5078  20.054  20.014  11.145
32011W        W 5079  23.679  21.537  14.657
32012W        W 5080  33.983  40.224  13.989
32013W        W 5081  17.718  11.861   0.422
32014W        W 5082  32.991   9.698  10.717
32015W        W 5083  33.967  35.924   0.638
32016W        W 5084   3.065  25.609  11.566
32017W        W 5085  15.823  40.027   1.292
32018W        W 5086  27.421  29.071   4.396
32019W        W 5087  40.312  21.787  13.793
32020W        W 5088  11.714  35.195   3.522
32021W        W 5089  14.589  39.733  12.438
32022W        W 5090  19.831   1.882   3.586
32023W        W 5091  30.712  37.291   4.579
32024W        W 5092  29.928  39.122  11.551
32025W        W 5093  31.865  34.864  13.801
32026W        W 5094   0.997   6.826  13.768
32027W        W 5095  38.772  19.688   3.731
32028W        W 5096  43.870   6.237  14.799
32029W        W 5097  10.352   1.752   4.513
32030W        W 5098  24.989  35.989  10.829
32031W        W 5099  25.652  30.148  11.633
32032W        W 5100  22.277  29.056   1.336
32033W        W 5101   0.960  40.948  12.831
32034W        W 5102  13.754  14.581  14.358
32035W        W 5103   9.920  44.471   4.162
32036W        W 5104   5.872  37.965   3.937
32037W        W 5105  35.120  21.029  10.657
32038W        W 5106  27.709  15.209   4.566
32039W        W 5107  40.984  19.682   4.784
32040W        W 5108  32.920  28.661  13.098
32041W        W 5109  39.475  15.532  14.531
32042W        W 5110  17.129  31.902  12.444
32043W        W 5111  36.056   2.753   2.670
32044W        W 5112  39.035  20.115  14.884
32045W        W 5113  29.717   8.744  12.442
32046W        W 5114   9.640  25.979   4.137
32047W        W 5115  34.921  28.474   2.492
32048W        W 5116  27.684   2.632  11.709
32049W        W 5117   4.849  35.356   2.382
32050W        W 5118   4.284  37.544  14.911
32051W        W 5119  18.162  30.407  13.276
32052W        W 5120  23.502  26.724   0.027
32053W        W 5121   3.786  34.559  14.382
32054W        W 5122   5.964  10.928  13.361
32055W        W 5123   6.287  28.095  14.360
32056W        W 5124  36.963  20.448  13.541
32057W        W 5125   1.807  33.880   2.369
32058W        W 5126  10.640  22.053  10.736
32059W        W 5127  20.017  39.083  11.190
32060W        W 5128  42.980   8.801  14.840
32061W        W 5129  18.281   9.846   4.633
32062W        W 5130  35.631  22.484  11.565
32063W        W 5131  36.595  13.665   1.234
32064W        W 5132  24.781  23.597   2.394
32065W        W 5133  24.775  12.609   2.375
32066W        W 5134  41.886  26.449  14.372
32067W        W 5135  30.599  25.440   1.905
32068W        W 5136  21.931  24.560   3.976
32069W        W 5137   7.826   8.686  13.414
32070W        W 5138   8.896  42.086  10.668
32071W        W 5139  30.019   3.181   1.723
32072W        W 5140   1.988  16.570   4.243
32073W        W 5141  15.360  18.677  13.380
32074W        W 5142   1.360  33.370  14.746
32075W        W 5143  12.563  17.270   5.004
32076W        W 5144  30.647   8.885   0.549
32077W        W 5145  15.268  42.852   3.618
32078W        W 5146   8.300  28.610   1.685
32079W        W 5147  41.592  30.956  10.981
32080W        W 5148  19.607  23.471  14.412
32081W        W 5149  42.701   4.316  12.643
32082W        W 5150  36.566   1.759  11.268
32083W        W 5151  33.027   9.779   4.397
32084W        W 5152  27.538  24.632  13.433
32085W        W 5153   7.247  16.321   3.291
32086W        W 5154   8.866  14.168  13.802
32087W        W 5155  34.551   0.739  11.072
32088W        W 5156  24.348   2.704  12.841
32089W        W 5157   0.746  19.979  11.131
32090W        W 5158  19.322  15.811   0.694
32091W        W 5159   9.122   0.336  11.182
32092W        W 5160   0.664  34.973   2.277
32093W        W 5161  37.102  22.699   0.783
32094W        W 5162  43.331   2.769   1.002
32095W        W 5163  24.553   5.242  14.866
32096W        W 5164  13.403  36.394  10.698
32097W        W 5165   9.829  26.543   0.764
32098W        W 5166  33.791  26.077   2.224
32099W        W 5167  16.729   7.063   3.392
32100W        W 5168   0.700   6.237  14.885
32101W        W 5169  38.689   5.415   2.754
32102W        W 5170   6.849   9.124  12.634
32103W        W 5171  33.081  33.926  12.579
32104W        W 5172  43.377   9.147  14.875
32105W        W 5173  34.262  30.950  12.626
32106W        W 5174   5.182  23.091  12.040
32107W        W 5175   6.354  18.237   0.642
32108W        W 5176  14.675  33.384  13.949
32109W        W 5177  36.348  29.632   2.725
32110W        W 5178  22.107  42.813   0.923
32111W        W 5179  26.611   0.828   2.202
32112W        W 5180  32.174  23.912   0.807
32113W        W 5181  19.851  19.563  11.219
32114W        W 5182  10.690  27.453  13.887
32115W        W 5183  40.921  37.432  14.130
32116W        W 5184  44.452  39.516  11.121
32117W        W 5185  13.201   9.715  14.782
32118W        W 5186  33.510   8.958  13.954
32119W        W 5187  30.662  38.178  11.143
32120W        W 5188  20.525  40.305  11.580
32121W        W 5189  38.944  11.684  12.590
32122W        W 5190  16.157  10.861   0.883
32123W        W 5191   3.836  40.386   3.674
32124W        W 5192   9.224  25.209   0.769
32125W        W 5193  33.811   4.209   1.906
32126W        W 5194  19.956  27.116  14.460
32127W        W 5195   6.426   2.454  14.906
32128W        W 5196   0.909  32.877  13.899
32129W        W 5197  37.498   1.963  11.078
32130W        W 5198  38.918  11.779  11.291
32131W        W 5199  18.432  20.722   4.795
32132W        W 5200  16.758  34.184   3.972
32133W        W 5201  24.440  19.277   4.141
32134W        W 5202   5.222  29.121   0.812
32135W        W 5203  13.334  37.081  14.328
32136W        W 5204  25.297  36.069  13.255
32137W        W 5205  40.874  21.197  14.001
32138W        W 5206  25.466   9.201   2.298
32139W        W 5207   4.923  13.541   3.604
32140W        W 5208  20.475   1.062   5.511
32141W        W 5209  32.665  25.919   1.153
32142W        W 5210  37.829  39.017  10.400
32143W        W 5211   3.185   3.584  14.495
32144W        W 5212  28.922  22.049  12.933
32145W        W 5213  22.516  27.406   0.868
32146W        W 5214  14.107  23.141   0.220
32147W        W 5215   0.575  26.471   2.109
32148W        W 5216  17.996  44.316  13.439
32149W        W 5217  25.155   4.845   1.435
32150W        W 5218  10.353  19.518  14.234
32151W        W 5219  12.397  22.545   0.522
32152W        W 5220   8.351   8.448  12.561
32153W        W 5221  36.384  42.723   1.875
32154W        W 5222   3.508  37.179   0.783
32155W        W 5223   6.474  12.764   4.151
32156W        W 5224  40.492  44.875  14.400
32157W        W 5225   4.522   0.197   0.811
32158W        W 5226  42.966   3.242  13.048
32159W        W 5227  32.536  36.414   1.755
32160W        W 5228  16.804  31.941  11.189
32161W        W 5229  38.718  20.974   4.263
32162W        W 5230  11.527   4.634   1.281
32163W        W 5231  40.397  27.558  12.855
32164W        W 5232  20.872  30.798  11.850
32165W        W 5233   6.972  14.334   0.387
32166W        W 5234   5.852   4.720  14.971
32167W        W 5235  24.366   9.847  13.310
32168W        W 5236   3.184  22.195  14.772
32169W        W 5237   3.710  30.085  14.862
32170W        W 5238  19.762  15.875  12.382
32171W        W 5239  34.100  38.459  10.609
32172W        W 5240  24.964  30.432   3.309
32173W        W 5241  26.221  41.924  14.652
32174W        W 5242  22.664  43.488  14.866
32175W        W 5243  42.585  34.008  14.889
32176W        W 5244  27.591   8.958  11.494
32177W        W 5245   0.316  31.556  11.584
32178W        W 5246  25.290  21.877  14.913
32179W        W 5247   7.791   9.192   2.376
32180W        W 5248  35.080   2.046   2.721
32181W        W 5249  36.615  31.211   3.613
32182W        W 5250   6.719   0.564   2.291
32183W        W 5251   3.255  35.383  12.703
32184W        W 5252  43.994  14.750  13.483
32185W        W 5253  14.135  39.876   3.447
32186W        W 5254  37.513  42.057   1.933
32187W        W 5255  11.779  39.605  12.064
32188W        W 5256   5.513  43.239   1.344
32189W        W 5257  37.304  13.875   0.501
32190W        W 5258   1.883  22.452   0.017
32191W        W 5259   9.107  25.683  11.449
32192W        W 5260  42.596  37.001   2.277
32193W        W 5261  31.831   2.018   3.763
32194W        W 5262   8.743  11.104   1.748
32195W        W 5263  26.708  30.162  10.726
32196W        W 5264  19.275  22.008   0.513
32197W        W 5265  10.883   0.413  11.630
32198W        W 5266  40.045  21.620   1.654
32199W        W 5267  24.034  40.010   5.076
32200W        W 5268  24.087   9.517  11.635
32201W        W 5269   1.862  26.719   0.882
32202W        W 5270   5.835  28.592   2.839
32203W        W 5271  14.308  41.090   2.653
32204W        W 5272  36.839  23.402   3.280
32205W        W 5273  33.615  26.587  14.917
32206W        W 5274  41.316  24.745  11.564
32207W        W 5275  31.528  32.107   2.472
32208W        W 5276  30.833  36.740   1.258
32209W        W 5277  40.529  33.097   1.139
32210W        W 5278  26.567  38.623  14.742
32211W        W 5279  38.546   4.180   0.294
32212W        W 5280  16.207  29.178  14.516
32213W        W 5281  21.177  10.627  14.739
32214W        W 5282  10.633  23.730   2.453
32215W        W 5283  11.828   4.859  14.364
32216W        W 5284  11.281  13.761   4.197
32217W        W 5285   4.845  23.599   4.343
32218W        W 5286   3.435  42.399  14.319
32219W        W 5287  32.387   6.816  13.285
32220W        W 5288  15.917  23.718   4.990
32221W        W 5289  43.207  39.312   2.675
32222W        W 5290  10.915   5.334  13.568
32223W        W 5291  35.952  13.696  12.355
32224W        W 5292  35.077  31.517  11.680
32225W        W 5293   0.381   2.005   1.382
32226W        W 5294   8.156   9.857  13.333
32227W        W 5295  27.690  14.658   0.348
32228W        W 5296   3.629  21.513   0.496
32229W        W 5297  34.605  13.077  11.659
32230W        W 5298  15.450   7.768   3.005
32231W        W 5299  30.055  12.254   0.784
32232W        W 5300  16.112  37.430  10.621
32233W        W 5301  38.658  29.711   5.306
32234W        W 5302  12.820   6.604  11.302
32235W        W 5303  16.582  10.559   4.105
32236W        W 5304  44.152  41.927  12.590
32237W        W 5305  31.655  30.051   4.106
32238W        W 5306   0.331  26.443   3.677
32239W        W 5307  43.460  44.455  14.784
32240W        W 5308  19.709  36.931   3.710
32241W        W 5309  33.590  44.454   2.252
32242W        W 5310  25.692  17.237  11.617
32243W        W 5311  16.594  12.099   0.256
32244W        W 5312  42.113  39.911   1.395
32245W        W 5313  31.166  10.833   1.388
32246W        W 5314   4.969  31.378   3.289
32247W        W 5315  44.652   4.412   1.748
32248W        W 5316  25.813  43.961   3.217
32249W        W 5317  32.915  37.404  14.142
32250W        W 5318  18.534   5.338  11.669
32251W        W 5319   6.181  42.032  10.462
32252W        W 5320   7.439   2.339  10.771
32253W        W 5321   3.994   4.754  11.071
32254W        W 5322  28.166  23.146   1.252
32255W        W 5323  39.989  31.577   3.165
32256W        W 5324  28.596  40.536   2.391
32257W        W 5325  23.694  38.626   0.725
32258W        W 5326  38.272  23.569  11.092
32259W        W 5327   3.139  43.724  12.224
32260W        W 5328  32.618  16.598  11.148
32261W        W 5329   5.145  25.168  11.028
32262W        W 5330  38.817  37.075   3.213
32263W        W 5331  13.801  37.019  14.529
32264W        W 5332  14.912  12.651  14.795
32265W        W 5333  40.840  30.037   1.970
32266W        W 5334  24.913   6.595   0.907
32267W        W 5335  26.007  21.490   3.746
32268W        W 5336  24.642   7.301   0.728
32269W        W 5337  41.249  20.033   0.800
32270W        W 5338  40.461  44.679   4.044
32271W        W 5339  37.496  22.163  13.798
32272W        W 5340  13.640  21.721  13.711
32273W        W 5341  34.675  16.111  11.867
32274W        W 5342  19.015  13.842   2.692
32275W        W 5343  22.014   7.646  13.075
32276W        W 5344  39.282  44.868  14.503
32277W        W 5345  13.695   9.203  10.934
32278W        W 5346  32.841   3.272  14.907
32279W        W 5347   4.724   6.172  12.627
32280W        W 5348  44.468  26.775  11.512
32281W        W 5349  38.845  37.924   2.197
32282W        W 5350  15.275  12.007   1.199
32283W        W 5351  33.412  31.749   4.100
32284W        W 5352  42.930  22.562   1.478
32285W        W 5353  16.582  34.215   1.285
32286W        W 5354  15.011  15.300   2.628
32287W        W 5355   6.896  17.032   0.462
32288W        W 5356  24.693  31.243  14.490
32289W        W 5357  31.175  33.941   3.195
32290W        W 5358  37.017   4.870   1.880
32291W        W 5359   6.854  13.557  13.446
32292W        W 5360  31.425  10.389  13.521
32293W        W 5361   8.212  21.155   0.467
32294W        W 5362  26.923  41.065   2.711
32295W        W 5363   0.415  28.955  13.549
32296W        W 5364  19.827  13.870   4.073
32297W        W 5365  20.194  15.522   1.675
32298W        W 5366  21.063  37.440   0.878
32299W        W 5367  18.715   2.486   2.397
32300W        W 5368   6.947  19.588  11.147
32301W        W 5369  28.093   8.337   2.134
32302W        W 5370  28.270  22.780   0.422
32303W        W 5371   1.426  31.602  10.698
32304W        W 5372  34.578  19.029   4.333
32305W        W 5373  37.858  20.720  13.485
32306W        W 5374   9.628  15.321   3.454
32307W        W 5375  11.283  22.652  14.599
32308W        W 5376  27.783  43.393   1.440
32309W        W 5377  16.523  25.481  12.845
32310W        W 5378  40.872   1.060   4.956
32311W        W 5379  37.913  32.528  12.603
32312W        W 5380  39.172   9.729   2.856
32313W        W 5381   7.668  12.071  11.677
32314W        W 5382  36.561  25.876  13.079
32315W        W 5383  24.223  19.590   4.536
32316W        W 5384   5.708  26.101  14.601
32317W        W 5385  20.672  43.563   9.858
32318W        W 5386  43.910  35.821   3.723
32319W        W 5387  31.543  27.137   0.881
32320W        W 5388  24.517  43.302  10.744
32321W        W 5389  27.691  36.966  12.520
32322W        W 5390  19.188  16.189   1.143
32323W        W 5391  38.825  39.521  10.996
32324W        W 5392  24.668  28.534   1.710
32325W        W 5393  17.550  28.930  11.891
32326W        W 5394  43.204  15.793   4.524
32327W        W 5395  13.196   8.859  13.042
32328W        W 5396  44.049  18.361   2.845
32329W        W 5397  30.652  25.073   3.784
32330W        W 5398  19.190  32.616  14.959
32331W        W 5399  33.067  25.753  13.526
32332W        W 5400  39.439   8.311  14.496
32333W        W 5401  12.690  18.169  13.796
32334W        W 5402   1.307  23.755  11.119
32335W        W 5403  12.207  18.208  10.265
32336W        W 5404  22.571  20.616   1.668
32337W        W 5405   5.655  33.010   4.868
32338W        W 5406  11.966   0.400   2.958
32339W        W 5407  37.858  14.746   0.894
32340W        W 5408  43.366  39.956   2.247
32341W        W 5409  34.937  29.444   3.760
32342W        W 5410  33.487  11.624  11.608
32343W        W 5411  32.583   7.868  14.283
32344W        W 5412  35.114   3.470  12.650
32345W        W 5413  33.393  19.424  11.208
32346W        W 5414  22.000  24.817  13.372
32347W        W 5415   4.928  43.892   0.974
32348W        W 5416  26.972  11.150   4.155
32349W        W 5417  44.537  25.553  12.425
32350W        W 5418   0.250  41.067   2.303
32351W        W 5419   6.250  27.932   1.264
32352W        W 5420  34.333  13.180   3.776
32353W        W 5421   1.694   2.335   3.145
32354W        W 5422   2.513  34.652   2.808
32355W        W 5423   4.345  17.695  12.142
32356W        W 5424  40.478   9.246  11.428
32357W        W 5425  33.359  26.996  13.086
32358W        W 5426  24.754   2.847  11.074
32359W        W 5427  18.602   1.455  13.009
32360W        W 5428   8.723  16.094   0.507
32361W        W 5429  28.006  41.904  12.997
32362W        W 5430  22.019  26.536   2.211
32363W        W 5431  43.585  25.136   4.161
32364W        W 5432  17.664  36.129  12.566
32365W        W 5433  15.621  34.425   4.876
32366W        W 5434  42.253  33.384   1.619
32367W        W 5435  34.483  10.607  12.920
32368W        W 5436  24.572   3.202  11.594
32369W        W 5437  28.292  35.611  10.338
32370W        W 5438  18.244  33.923   4.580
32371W        W 5439  35.506  40.287  12.908
32372W        W 5440  32.467  33.165   2.228
32373W        W 5441  27.071  17.890  14.188
32374W        W 5442  15.273   5.961  14.395
32375W        W 5443  42.360   1.789   3.685
32376W        W 5444  21.876  33.504   3.229
32377W        W 5445  39.963  36.438   4.842
32378W        W 5446  34.552   1.057  11.884
32379W        W 5447  30.125  22.475   0.291
32380W        W 5448   6.472   7.829   3.725
32381W        W 5449  31.105  39.808   1.306
32382W        W 5450   2.519  21.475  13.185
32383W        W 5451  18.696  27.189   0.012
32384W        W 5452  38.499  33.373  12.098
32385W        W 5453  32.892  20.851   2.280
32386W        W 5454  25.255  38.838   1.459
32387W        W 5455  28.231  34.065   3.486
32388W        W 5456  38.540  20.710  10.734
32389W        W 5457  18.484  44.014  10.482
32390W        W 5458  30.019  37.637  14.528
32391W        W 5459  14.382  19.755  12.014
32392W        W 5460  17.155  36.460   4.809
32393W        W 5461   0.905  38.751   2.223
32394W        W 5462   4.628  15.744  12.150
32395W        W 5463  14.306   3.391  11.213
32396W        W 5464  44.422   1.868   4.213
32397W        W 5465  27.558  12.105  12.019
32398W        W 5466  10.236  15.083   2.880
32399W        W 5467  18.156  40.559  14.481
32400W        W 5468  29.095  18.104  13.398
32401W        W 5469  22.367  27.877   4.263
32402W        W 5470  22.127  35.330  11.525
32403W        W 5471  44.980   3.262   0.237
32404W        W 5472  39.407  28.459  12.545
32405W        W 5473  32.948  43.957  12.524
32406W        W 5474   7.971  24.906  11.700
32407W        W 5475  42.920  41.144  12.476
32408W        W 5476  22.990  30.881  13.338
32409W        W 5477  14.583  20.088   4.023
32410W        W 5478  18.696   7.798  12.888
32411W        W 5479   6.607   7.967  11.354
32412W        W 5480  30.179  13.919  13.847
32413W        W 5481  40.546  11.621   1.846
32414W        W 5482  18.088  36.355  10.769
32415W        W 5483  23.176   9.513   2.236
32416W        W 5484   5.887   2.620  11.122
32417W        W 5485   8.451  17.786   4.851
32418W        W 5486  26.857  27.677  10.232
32419W        W 5487  15.104  21.266   2.260
32420W        W 5488  31.078  22.603   2.848
32421W        W 5489  24.267  12.585   2.375
32422W        W 5490  36.708  23.701  11.980
32423W        W 5491  35.782  36.489  14.756
32424W        W 5492  39.522   5.866  14.281
32425W        W 5493  40.028   7.671  14.241
32426W        W 5494  26.417  12.256   0.850
32427W        W 5495  44.503   1.321  11.695
32428W        W 5496  14.261  14.099  12.838
32429W        W 5497   7.110  16.906  12.801
32430W        W 5498  27.671  37.299  14.754
32431W        W 5499  11.301  41.656   2.884
32432W        W 5500  27.775  33.395  13.021
32433W        W 5501  14.178   2.442  14.488
32434W        W 5502   5.884  38.306   0.851
32435W        W 5503   3.160  33.100  11.135
32436W        W 5504   9.366   5.481  11.129
32437W        W 5505   6.842  12.004   3.656
32438W        W 5506  29.475  25.506   3.202
32439W        W 5507  39.648  18.008   3.727
32440W        W 5508  38.366  41.799   4.500
32441W        W 5509   3.941   4.878   3.894
32442W        W 5510  39.235  34.495  12.258
32443W        W 5511  44.492  17.305   0.449
32444W        W 5512  31.815  42.422  14.901
32445W        W 5513   1.798  30.136  14.091
32446W        W 5514   7.754  33.340  14.059
32447W        W 5515  13.209  10.764   4.110
32448W        W 5516  30.494   1.278  12.054
32449W        W 5517  33.352  22.907   0.960
32450W        W 5518   5.716  32.363   4.648
32451W        W 5519  11.762  33.677  14.466
32452W        W 5520  14.012  23.181  12.523
32453W        W 5521  16.007   3.101  13.048
32454W        W 5522   2.281  38.851  13.740
32455W        W 5523  17.619  25.991   0.464
32456W        W 5524  18.812  21.489  11.532
32457W        W 5525  17.729  20.075   1.661
32458W        W 5526  36.190  12.083  13.037
32459W        W 5527  43.922  40.234   4.235
32460W        W 5528  34.102  44.248   1.270
32461W        W 5529  21.585   7.251   2.675
32462W        W 5530  43.578  32.226   3.675
32463W        W 5531  19.138   6.445  14.861
32464W        W 5532  27.049  32.849   2.220
32465W        W 5533  23.014  37.086  12.030
32466W        W 5534   5.923  38.804   3.887
32467W        W 5535  33.076  19.095   2.819
32468W        W 5536  16.627   9.738  12.322
32469W        W 5537  25.560  12.137   0.228
32470W        W 5538  41.026   2.371  14.311
32471W        W 5539   0.201  24.760  14.831
32472W        W 5540  40.323  38.310  14.407
32473W        W 5541   1.976  15.182   0.408
32474W        W 5542  23.199   6.341  12.525
32475W        W 5543  19.406  43.719  13.817
32476W        W 5544  34.957  13.214   3.606
32477W        W 5545  36.988   5.476   2.236
32478W        W 5546  29.436  20.694   0.263
32479W        W 5547  44.201  18.190  11.652
32480W        W 5548  28.890  17.066  14.314
32481W        W 5549  36.570   3.904   1.849
32482W        W 5550   3.513  43.431  12.020
32483W        W 5551  40.831  44.467   0.948
32484W        W 5552   6.803   1.504   2.311
32485W        W 5553  39.851  35.571  11.996
32486W        W 5554  16.116  39.470   0.242
32487W        W 5555   2.266  42.782  14.148
32488W        W 5556  17.656   6.649   2.104
32489W        W 5557  41.438  39.003  11.605
32490W        W 5558   6.107   5.140  11.065
32491W        W 5559  42.988  16.779  13.026
32492W        W 5560  35.004  29.986  10.994
32493W        W 5561  26.562  43.809  11.134
32494W        W 5562  38.250  12.696  12.387
32495W        W 5563   6.386   6.448  14.167
32496W        W 5564  41.369  10.949   0.893
32497W        W 5565   7.882   3.326  14.593
32498W        W 5566  31.525  13.833   4.954
32499W        W 5567   1.002  35.274   4.552
32500W        W 5568  43.656  34.461  13.015
32501W        W 5569  35.200  16.047  11.973
32502W        W 5570  30.025  33.372   1.455
32503W        W 5571  20.725  30.948  11.371
32504W        W 5572  16.269  38.558   0.759
32505W        W 5573  17.547  22.177   1.309
32506W        W 5574   8.675   3.323   2.259
32507W        W 5575  41.029  37.284  10.786
32508W        W 5576  38.323  11.580   0.202
32509W        W 5577   2.103   2.746  13.111
32510W        W 5578  39.830  18.840   0.973
32511W        W 5579  38.222  24.096  11.045
32512W        W 5580   1.403  22.088   1.348
32513W        W 5581  24.035  25.681   0.555
32514W        W 5582  19.545   5.659  12.544
32515W        W 5583  39.564  13.267  12.672
32516W        W 5584  36.885  37.200   3.697
32517W        W 5585   7.206   8.797   0.760
32518W        W 5586  39.537  37.502  13.081
32519W        W 5587   9.747  42.377   4.495
32520W        W 5588  14.831   1.491  12.108
32521W        W 5589  24.985  11.488  12.272
32522W        W 5590  24.593  19.663   1.994
32523W        W 5591  31.609  32.123   1.436
32524W        W 5592  41.533  33.936   1.245
32525W        W 5593  26.505  17.503   1.740
32526W        W 5594  40.388  10.935  14.106
32527W        W 5595  25.204  23.264   3.228
32528W        W 5596  36.423  32.210   0.177
32529W        W 5597  23.598   4.321   3.567
32530W        W 5598  10.111  24.646   4.205
32531W        W 5599  15.387  12.842  14.906
32532W        W 5600  11.956   9.596  13.458
32533W        W 5601  14.276  35.829  11.649
32534W        W 5602  41.840   4.939   5.037
32535W        W 5603   7.360  28.694   4.250
32536W        W 5604  40.981  43.215  12.428
32537W        W 5605  12.750  44.218   4.232
32538W        W 5606  32.233   7.212  14.434
32539W        W 5607  18.268  20.205  13.583
32540W        W 5608  39.285  28.181   4.227
32541W        W 5609  31.468  20.137   0.696
32542W        W 5610   1.341  20.259   3.704
32543W        W 5611  43.395  12.361   4.198
32544W        W 5612  28.272  32.958   1.354
32545W        W 5613   6.198   5.047   0.191
32546W        W 5614  37.789  23.317   2.743
32547W        W 5615  11.397   6.662   0.743
32548W        W 5616   2.529  13.815   2.757
32549W        W 5617  37.932  36.702   2.279
32550W        W 5618  40.140  43.961   3.588
32551W        W 5619  28.363  11.864   3.362
32552W        W 5620  30.167  16.830  12.025
32553W        W 5621   3.824  39.307  11.249
32554W        W 5622   4.004  34.762   9.908
32555W        W 5623  38.533  41.099  12.496
32556W        W 5624  38.285   4.609   0.416
32557W        W 5625   2.505   2.389  11.586
32558W        W 5626  25.437   3.562  13.795
32559W        W 5627  37.489   1.733   0.401
32560W        W 5628  10.959   3.005  12.386
32561W        W 5629  25.000  23.367  13.748
32562W        W 5630  11.715   5.449   3.765
32563W        W 5631  44.914  20.004   3.766
32564W        W 5632   0.638   8.846  11.375
32565W        W 5633   6.773  34.101   2.202
32566W        W 5634   9.292  30.158  13.560
32567W        W 5635  14.682  25.006   0.981
32568W        W 5636   7.199   3.928  11.575
32569W        W 5637  41.513   9.161  14.620
32570W        W 5638   7.900  18.664   3.280
32571W        W 5639   9.141  15.357  13.937
32572W        W 5640   4.073  13.724  13.941
32573W        W 5641  27.437   6.139   1.297
32574W        W 5642  41.288  33.627   4.055
32575W        W 5643  16.534  23.444   1.924
32576W        W 5644   2.049  30.936   4.886
32577W        W 5645  14.879   4.609  11.517
32578W        W 5646  23.273  25.644   3.048
32579W        W 5647  29.030  33.486   2.950
32580W        W 5648  43.442  21.747   1.214
32581W        W 5649   5.899  33.886   0.069
32582W        W 5650  38.524  38.578  14.333
32583W        W 5651  44.994  12.846  13.905
32584W        W 5652   7.285  18.481   3.702
32585W        W 5653  10.966  35.330  13.977
32586W        W 5654  11.860  19.163  10.655
32587W        W 5655  29.544  18.567   3.244
32588W        W 5656  39.515   6.723  12.885
32589W        W 5657  33.485  35.884   4.425
32590W        W 5658  25.016  30.543  10.947
32591W        W 5659  13.405  22.201  10.505
32592W        W 5660  36.816  19.682   4.542
32593W        W 5661  28.604  41.990   3.680
32594W        W 5662   0.127  24.895   4.179
32595W        W 5663  27.381  36.379  12.894
32596W        W 5664  26.022  43.398   3.433
32597W        W 5665  19.554  17.273  10.607
32598W        W 5666  14.864   1.263   2.666
32599W        W 5667  30.633  17.650  10.935
32600W        W 5668   3.686  44.761   0.760
32601W        W 5669   0.566  26.923  12.854
32602W        W 5670  29.607  11.847  11.060
32603W        W 5671  25.467  31.463   2.828
32604W        W 5672  30.233  44.776  14.646
32605W        W 5673  22.980  24.658   1.833
32606W        W 5674  33.668  14.340  14.858
32607W        W 5675  31.435  21.020   1.769
32608W        W 5676  36.654  40.315  10.603
32609W        W 5677  10.380   2.810   0.517
32610W        W 5678   7.600   7.246   0.796
32611W        W 5679  18.549  42.073   1.725
32612W        W 5680  34.865  13.273   0.529
32613W        W 5681  43.495  25.647   1.710
32614W        W 5682  23.246  15.228   4.849
32615W        W 5683  30.551  41.418   3.594
32616W        W 5684  40.511   9.017   4.204
32617W        W 5685  37.962  39.441   1.464
32618W        W 5686  43.825  11.159  12.546
32619W        W 5687  24.576  36.495  12.678
32620W        W 5688  19.800  33.995  11.537
32621W        W 5689  11.595   4.727   3.045
32622W        W 5690  23.616   8.152   3.679
32623W        W 5691  33.347   4.739   3.520
32624W        W 5692  20.553  21.325   0.909
32625W        W 5693  40.911  43.955   1.083
32626W        W 5694  21.492  35.236  10.747
32627W        W 5695  14.590  43.772  11.478
32628W        W 5696  12.349  29.986  11.661
32629W        W 5697  21.239  27.674   1.726
32630W        W 5698  22.126  11.845   0.363
32631W        W 5699  27.339  15.094   3.520
32632W        W 5700  24.320   3.421   1.952
32633W        W 5701  42.716  28.921   0.205
32634W        W 5702  26.663  33.715  10.668
32635W        W 5703   3.586   8.163  11.147
32636W        W 5704   7.811  32.551   2.269
32637W        W 5705   2.956  26.983  13.943
32638W        W 5706  22.549  11.611  12.923
32639W        W 5707  23.908  31.033  10.804
32640W        W 5708  42.629   2.206  11.169
32641W        W 5709  36.578  22.954   3.199
32642W        W 5710  11.776   7.809  14.201
32643W        W 5711  30.635   2.127  14.766
32644W        W 5712   5.518  27.561  12.009
32645W        W 5713  13.333  41.531  10.581
32646W        W 5714  34.553   5.566  14.057
32647W        W 5715  30.438  44.048   2.579
32648W        W 5716  32.614  44.731  14.416
32649W        W 5717  27.734  23.612  13.178
32650W        W 5718  34.723  41.193  12.121
32651W        W 5719  44.063  28.480  13.873
32652W        W 5720  10.828   7.497   5.037
32653W        W 5721   0.446   0.400   2.814
32654W        W 5722  16.059  17.938   4.240
32655W        W 5723  10.960  17.678   0.884
32656W        W 5724  29.854   2.251  11.172
32657W        W 5725  29.707  29.987  10.596
32658W        W 5726  21.735   8.589   2.120
32659W        W 5727   1.376  17.297   4.251
32660W        W 5728  29.748  23.271  13.771
32661W        W 5729  21.143  22.096  12.182
32662W        W 5730  32.539   0.212  12.319
32663W        W 5731  27.798  34.874  12.822
32664W        W 5732   7.322  22.542  13.026
32665W        W 5733   7.794  24.561  12.077
32666W        W 5734   8.881   8.887   0.946
32667W        W 5735  42.836  18.932  13.548
32668W        W 5736  35.276   1.530   2.675
32669W        W 5737  21.907   1.866  13.593
32670W        W 5738   6.512  19.481  14.886
32671W        W 5739  25.092  29.623   1.326
32672W        W 5740  38.792  17.424   3.410
32673W        W 5741  42.175  43.934  10.459
32674W        W 5742  39.549   5.768   5.532
32675W        W 5743  23.547  19.300  12.883
32676W        W 5744  42.778   5.398   2.352
32677W        W 5745  26.812  31.105   1.689
32678W        W 5746  14.079  23.023  14.312
32679W        W 5747   8.874  38.154   1.005
32680W        W 5748   3.299  17.513   2.798
32681W        W 5749  39.244  42.903   1.742
32682W        W 5750   2.210  22.190  14.667
32683W        W 5751  16.108  17.970  12.561
32684W        W 5752   9.676  23.231  12.982
32685W        W 5753   8.623  14.968  12.098
32686W        W 5754  15.363  10.315   2.330
32687W        W 5755  12.178  18.230   1.666
32688W        W 5756  38.549  37.446   3.424
32689W        W 5757  15.519   8.725   3.389
32690W        W 5758  29.330   9.384  13.935
32691W        W 5759  10.249  37.264  12.885
32692W        W 5760  20.821   0.475  12.518
32693W        W 5761   0.760  10.312  10.310
32694W        W 5762   7.811  22.617  14.509
32695W        W 5763  28.649   4.447   2.865
32696W        W 5764  38.937  32.386   4.098
32697W        W 5765  44.387  23.600  13.034
32698W        W 5766   3.439   8.880   0.894
32699W        W 5767  22.135   4.675   3.912
32700W        W 5768  11.363  33.609   3.424
32701W        W 5769  29.270  32.078   1.149
32702W        W 5770  40.422  32.631   3.828
32703W        W 5771  14.719   9.825   0.523
32704W        W 5772  39.668  27.999  13.835
32705W        W 5773   4.814   8.703  11.623
32706W        W 5774  31.218   2.860   3.826
32707W        W 5775  24.699  27.558   1.697
32708W        W 5776  26.565   0.423  11.583
32709W        W 5777  36.885  27.747  12.969
32710W        W 5778   7.615   3.641   3.471
32711W        W 5779  42.517   4.283   1.903
32712W        W 5780  34.286  25.217   4.394
32713W        W 5781   6.905  31.003   3.264
32714W        W 5782  19.074  39.775  12.632
32715W        W 5783  31.096   0.682  12.972
32716W        W 5784   3.168   8.435   0.905
32717W        W 5785   7.885   9.221  13.462
32718W        W 5786  30.400  13.645   1.823
32719W        W 5787   7.827  19.980   0.200
32720W        W 5788  24.419  17.170  13.408
32721W        W 5789  35.170  26.815  12.432
32722W        W 5790  12.700  20.044   0.006
32723W        W 5791  34.493  32.143  14.469
32724W        W 5792  22.237  10.383  11.527
32725W        W 5793  44.832  44.757  13.233
32726W        W 5794  24.155  14.672   2.409
32727W        W 5795  14.062  35.876   0.696
32728W        W 5796   1.335  43.040  12.556
32729W        W 5797  12.781  16.982   5.431
32730W        W 5798   8.813   7.957   1.012
32731W        W 5799  44.806  11.728  13.396
32732W        W 5800   1.092  22.940  11.136
32733W        W 5801  17.235  37.924   4.501
32734W        W 5802  25.589  41.374   0.962
32735W        W 5803  36.859  16.822   4.721
32736W        W 5804  35.443  35.534   3.811
32737W        W 5805  30.181  24.699   2.158
32738W        W 5806   8.400  10.205   0.714
32739W        W 5807  32.005  32.102  13.281
32740W        W 5808  24.227  26.475  11.519
32741W        W 5809  17.227  25.001  11.559
32742W        W 5810  20.318  19.867   2.189
32743W        W 5811  33.692  13.222   4.590
32744W        W 5812   8.171  32.057  10.778
32745W        W 5813  43.725  20.979  10.670
32746W        W 5814  16.646  23.746  13.311
32747W        W 5815  23.020  22.728  11.769
32748W        W 5816   8.105  37.959   3.768
32749W        W 5817  12.360  19.164  14.058
32750W        W 5818  34.234  42.909  13.003
32751W        W 5819  20.578  26.630   2.324
32752W        W 5820  32.898  11.809  12.432
32753W        W 5821  17.295  22.968  10.964
32754W        W 5822  24.786  11.796   3.156
32755W        W 5823  14.804  25.169   0.396
32756W        W 5824  14.061  42.684  13.374
32757W        W 5825   8.213  13.268   4.683
32758W        W 5826  18.065   2.903  13.209
32759W        W 5827  30.867  29.495  14.922
32760W        W 5828  37.010  34.445  14.986
32761W        W 5829  23.937  12.817   1.493
32762W        W 5830  15.050   5.841  14.905
32763W        W 5831  44.523   0.206  14.887
32764W        W 5832  21.785  14.889  14.472
32765W        W 5833  25.977  27.727  12.070
32766W        W 5834  41.859  25.575  12.597
32767W        W 5835  29.870  41.163  12.105
32768W        W 5836  20.729   5.644   4.162
32769W        W 5837   7.913   2.487   4.815
32770W        W 5838   2.350  33.690   2.346
32771W        W 5839  34.885  18.037   0.435
32772W        W 5840  27.234  42.405   3.156
32773W        W 5841   1.427   1.154  11.258
32774W        W 5842  39.066  20.769   5.076
32775W        W 5843  29.855  27.710  14.692
32776W        W 5844  44.091  25.948  11.219
32777W        W 5845  35.385   0.782   1.805
32778W        W 5846  43.851   4.650  13.254
32779W        W 5847  41.923  37.456  11.992
32780W        W 5848  42.071   7.842   0.886
32781W        W 5849   8.129  11.886   1.853
32782W        W 5850  17.779  19.043  11.240
32783W        W 5851  17.394  10.244  10.767
32784W        W 5852  22.009  14.723  10.468
32785W        W 5853  38.815   0.862   4.991
32786W        W 5854  24.257  25.583   3.150
32787W        W 5855  16.773  13.408   3.827
32788W        W 5856  12.657  11.187  10.600
32789W        W 5857  38.835   4.203   4.122
32790W        W 5858  41.188  30.811  11.246
32791W        W 5859  41.204  26.128  14.526
32792W        W 5860  44.509  22.079  14.107
32793W        W 5861  36.311  40.083   4.944
32794W        W 5862  11.782  20.998  10.742
32795W        W 5863  15.329   4.262   0.523
32796W        W 5864   3.462   2.921   0.824
32797W        W 5865  14.130   9.650  11.175
32798W        W 5866  19.225  13.946   1.773
32799W        W 5867  25.508   9.808   5.440
32800W        W 5868  23.377  39.756  11.043
32801W        W 5869  32.707  17.588   0.922
32802W        W 5870  28.982  10.457  13.370
32803W        W 5871  18.000  15.052   3.680
32804W        W 5872  29.148   7.122  14.872
32805W        W 5873  38.940  27.462  10.062
32806W        W 5874  44.035   5.220   4.530
32807W        W 5875   1.739   1.209   1.207
32808W        W 5876  11.368   4.186  13.402
32809W        W 5877   9.776   4.155   0.004
32810W        W 5878   8.499  20.168  13.146
32811W        W 5879  19.594  44.833   0.789
32812W        W 5880  12.608   1.897  13.539
32813W        W 5881  41.615  21.281   3.780
32814W        W 5882  42.926  44.517   2.879
32815W        W 5883  38.060   8.226   2.429
32816W        W 5884   9.111  38.917   0.491
32817W        W 5885  19.666  43.077   0.353
32818W        W 5886  42.461  16.814  12.935
32819W        W 5887  34.119  20.732   0.730
32820W        W 5888  20.697  12.579  11.251
32821W        W 5889  12.775   3.893   3.838
32822W        W 5890  42.032  43.301   0.462
32823W        W 5891  38.090   3.185   0.975
32824W        W 5892  13.662  42.660   1.487
32825W        W 5893  10.894  34.390   1.673
32826W        W 5894  21.905  12.871  12.444
32827W        W 5895  35.769  36.880  11.477
32828W        W 5896  21.563  31.836  14.268
32829W        W 5897  43.265  17.171  14.063
32830W        W 5898  34.377   4.981   2.629
32831W        W 5899   9.432  13.404  12.445
32832W        W 5900   0.767   1.814  14.904
32833W        W 5901  26.823  42.487  10.682
32834W        W 5902  25.549  27.454   0.765
32835W        W 5903   6.452   4.967  14.025
32836W        W 5904   7.167   2.869   2.713
32837W        W 5905   5.922  29.942  10.511
32838W        W 5906  28.872   2.303   3.388
32839W        W 5907   1.407   5.163   3.161
32840W        W 5908  42.337   9.956   2.656
32841W        W 5909   8.729  20.258  12.480
32842W        W 5910  25.100  39.482  14.402
32843W        W 5911  43.448  32.686   0.298
32844W        W 5912  42.264   9.232   4.069
32845W        W 5913  13.658  26.900   1.886
32846W        W 5914  19.297  12.157   1.676
32847W        W 5915  23.507  31.527   0.769
32848W        W 5916  10.259  15.743   3.069
32849W        W 5917  35.104  40.977   4.780
32850W        W 5918  10.733   6.145  12.031
32851W        W 5919  43.035   1.934   3.158
32852W        W 5920   2.910  15.774  12.978
32853W        W 5921  24.643  28.196  13.428
32854W        W 5922   5.226  37.539   3.867
32855W        W 5923  32.634   8.676  12.064
32856W        W 5924  22.942  29.856  13.482
32857W        W 5925  26.393  33.973  12.028
32858W        W 5926  25.178  26.050  12.287
32859W        W 5927  24.957   8.421  11.188
32860W        W 5928  41.865  24.420   0.729
32861W        W 5929  14.671  10.635   1.712
32862W        W 5930   8.740   5.609  11.139
32863W        W 5931  38.411  25.644   0.138
32864W        W 5932  17.697  28.431   3.282
32865W        W 5933  13.838  26.736   2.790
32866W        W 5934  29.091  16.251   4.529
32867W        W 5935  34.078  38.425  11.107
32868W        W 5936  43.533  22.194   3.202
32869W        W 5937   1.809  11.204   0.225
32870W        W 5938  40.518   1.166  12.970
32871W        W 5939  35.507  26.054  12.660
32872W        W 5940   5.252  36.504  11.199
32873W        W 5941  40.723   7.458  10.707
32874W        W 5942  39.972  30.964   0.689
32875W        W 5943  34.506  14.788   3.992
32876W        W 5944   4.281   1.469   0.296
32877W        W 5945  22.586  23.489  12.143
32878W        W 5946   6.363  10.828   0.054
32879W        W 5947   4.906  32.216  12.300
32880W        W 5948  36.433  27.538   3.615
32881W        W 5949  22.509  19.752   2.005
32882W        W 5950  26.592  17.783   2.714
32883W        W 5951  16.199  24.125   2.437
32884W        W 5952  12.085  12.151   0.871
32885W        W 5953  21.127  18.987  13.609
32886W        W 5954  35.213  16.635  14.819
32887W        W 5955  15.044  40.993  11.974
32888W        W 5956  18.295  36.987   1.324
32889W        W 5957  30.183  30.425   3.675
32890W        W 5958  14.724  37.944   2.604
32891W        W 5959  23.083  31.376  13.472
32892W        W 5960  28.386  14.920  11.783
32893W        W 5961  22.199   6.231   2.960
32894W        W 5962  30.105  34.855   4.213
32895W        W 5963  12.646   6.602  10.816
32896W        W 5964   6.404  35.012  12.873
32897W        W 5965  38.076  14.256  14.827
32898W        W 5966  37.153  44.234   2.712
32899W        W 5967  36.932  36.965   3.190
32900W        W 5968  32.501  25.343   2.965
32901W        W 5969  36.129  11.309   0.688
32902W        W 5970  22.065  33.934  12.050
32903W        W 5971  34.167  23.613   4.428
32904W        W 5972  17.336  26.096   2.248
32905W        W 5973  30.433  33.884   2.740
32906W        W 5974  42.411  10.133  11.051
32907W        W 5975  19.708   5.796   2.356
32908W        W 5976   8.661  41.274  13.798
32909W        W 5977  41.594  27.980  13.523
32910W        W 5978   6.631  30.608  13.851
32911W        W 5979  12.033  42.795   4.350
32912W        W 5980  26.884  36.340  10.681
32913W        W 5981  31.461  18.008   1.641
32914W        W 5982  42.305  12.901   1.896
32915W        W 5983  12.357  27.106   4.588
32916W        W 5984  39.307  42.444   2.961
32917W        W 5985   9.327  22.772   2.840
32918W        W 5986   1.024  22.170  12.114
32919W        W 5987  24.603   3.512  12.551
32920W        W 5988  38.521  42.826  11.202
32921W        W 5989  11.207  37.891   4.834
32922W        W 5990   9.263   0.241  12.522
32923W        W 5991  30.905  12.568   2.215
32924W        W 5992  42.396  38.924  10.635
32925W        W 5993  27.215   4.866  13.807
32926W        W 5994  10.756  22.031   4.824
32927W        W 5995  40.603  10.201   3.646
32928W        W 5996   5.221  29.665  13.036
32929W        W 5997  14.501  24.474  11.165
32930W        W 5998  10.192  21.116   1.799
32931W        W 5999  31.665  12.632   3.154
32932W        W 6000  28.170  43.423   4.527
32933W        W 6001  34.766  19.035   1.446
32934W        W 6002  27.110  24.938  13.455
32935W        W 6003  11.079  34.729  13.223
32936W        W 6004   1.977   9.642  12.355
32937W        W 6005   2.222   4.575   2.326
32938W        W 6006  41.169  13.374  10.780
32939W        W 6007  15.300   5.662   1.781
32940W        W 6008   5.224   8.738   1.236
32941W        W 6009  20.153  38.967   0.820
32942W        W 6010  17.149   4.712   4.608
32943W        W 6011  40.429  31.813  10.549
32944W        W 6012  28.398  12.292  14.808
32945W        W 6013  38.525  17.837  11.990
32946W        W 6014  31.422   3.434  11.903
32947W        W 6015  38.624  34.104   3.843
32948W        W 6016  39.580  29.189   1.154
32949W        W 6017  15.729  34.151  13.333
32950W        W 6018  30.162  39.604   1.958
32951W        W 6019  17.640   6.369   3.074
32952W        W 6020  11.249  11.221   2.373
32953W        W 6021  27.418   4.317  13.060
32954W        W 6022  25.944  30.547  11.495
32955W        W 6023   1.363  16.079  14.361
32956W        W 6024  11.386  17.044  13.433
32957W        W 6025  34.982  32.488  11.641
32958W        W 6026  26.531  43.542  13.463
32959W        W 6027  38.127  10.606  13.337
32960W        W 6028  17.235  19.733   4.560
32961W        W 6029  34.465   5.844   1.331
32962W        W 6030  44.393   1.695   0.740
32963W        W 6031  34.350  37.421   4.582
32964W        W 6032  37.122   4.439   2.550
32965W        W 6033  13.216   3.806   1.825
32966W        W 6034   8.548  23.815  10.347
32967W        W 6035  26.223  13.071  14.448
32968W        W 6036  18.779  25.315  12.542
32969W        W 6037  31.446  43.871   3.525
32970W        W 6038  17.856   9.335   1.314
32971W        W 6039  24.029  35.477  13.862
32972W        W 6040  19.208  37.554  14.031
32973W        W 6041  42.381  44.224   0.262
32974W        W 6042   3.720  26.673  13.465
32975W        W 6043   6.968  22.628  12.619
32976W        W 6044  11.678  31.215  12.453
32977W        W 6045  21.822  30.984   3.231
32978W        W 6046  16.139  26.044  12.004
32979W        W 6047  17.740  40.398   0.439
32980W        W 6048  33.130  19.597   5.025
32981W        W 6049  40.900   2.456   1.694
32982W        W 6050   5.766  34.029   2.453
32983W        W 6051   2.704   5.331  13.551
32984W        W 6052  13.399  35.880   4.558
32985W        W 6053  32.969  14.160   0.355
32986W        W 6054  43.931   1.862   3.480
32987W        W 6055  23.086   2.688  14.783
32988W        W 6056  20.936   6.970  11.466
32989W        W 6057  34.255  26.501  12.532
32990W        W 6058  34.842   0.535   0.653
32991W        W 6059   5.977   4.372  10.657
32992W        W 6060   1.347  11.661   4.385
32993W        W 6061  40.512  35.505  14.755
32994W        W 6062  26.151  42.953  12.386
32995W        W 6063  41.249  10.676   0.460
32996W        W 6064  23.032  24.094  14.002
32997W        W 6065   3.793  11.071  12.898
32998W        W 6066   7.956  14.933   2.551
32999W        W 6067  26.654   8.141   3.126
33000W        W 6068  32.991   7.403  13.145
33001W        W 6069  15.129  24.006  10.714
33002W        W 6070  26.594  32.935  10.297
33003W        W 6071  43.980   8.355  13.776
33004W        W 6072  11.245  21.163   1.659
33005W        W 6073  31.083  39.540   0.856
33006W        W 6074  30.335  25.174   1.209
33007W        W 6075  25.464  30.631  11.670
33008W        W 6076  34.463  41.996  13.923
33009W        W 6077   2.293   7.264  11.139
33010W        W 6078  16.702  24.577   4.523
33011W        W 6079  13.967  35.895  12.941
33012W        W 6080  29.541  12.422  12.808
33013W        W 6081  22.554  40.527   2.152
33014W        W 6082  23.215  44.864   4.416
33015W        W 6083   2.338  18.093  10.451
33016W        W 6084  17.615  32.299   1.962
33017W        W 6085  10.345  31.910   1.843
33018W        W 6086  27.569   8.188   3.616
33019W        W 6087  11.741  34.702   2.081
33020W        W 6088   9.366   2.099  14.777
33021W        W 6089  38.887  32.229   0.959
33022W        W 6090   6.214  17.036   2.747
33023W        W 6091  10.266  30.575  14.036
33024W        W 6092  34.023  40.812   3.696
33025W        W 6093  22.189  33.679  14.271
33026W        W 6094  38.982  15.808   2.737
33027W        W 6095  12.027  39.343   4.773
33028W        W 6096  27.424  31.410   0.244
33029W        W 6097   4.663  19.926  14.433
33030W        W 6098  37.940  24.080  13.413
33031W        W 6099   4.252   5.240  13.037
33032W        W 6100  40.073  15.572   4.120
33033W        W 6101   5.101   9.932  11.866
33034W        W 6102  18.664  10.028   3.372
33035W        W 6103  27.644  42.944  11.978
33036W        W 6104  28.568  43.368   0.484
33037W        W 6105   2.035  21.599  11.551
33038W        W 6106  12.262  10.238  11.559
33039W        W 6107  18.733  38.341   2.919
33040W        W 6108  32.956   1.272   3.899
33041W        W 6109  32.126   2.258   4.123
33042W        W 6110  17.086   5.480  14.005
33043W        W 6111   3.701  37.823   0.270
33044W        W 6112  34.065  44.711   2.273
33045W        W 6113  38.988  17.600  11.927
33046W        W 6114  25.750  39.755  14.929
33047W        W 6115  15.325   2.401   3.175
33048W        W 6116  27.800  34.412  13.097
33049W        W 6117  25.600  33.218   2.249
33050W        W 6118  14.615  16.812   0.001
33051W        W 6119   9.313   0.209  10.730
33052W        W 6120   7.377  32.580   4.646
33053W        W 6121  30.855  11.381  12.864
33054W        W 6122  10.659  42.911  14.269
33055W        W 6123  34.565  36.112   3.344
33056W        W 6124  33.418  38.778   5.029
33057W        W 6125   4.175   7.768  14.836
33058W        W 6126  42.803  20.501  13.445
33059W        W 6127  10.305  44.555   0.005
33060W        W 6128  10.159  41.034   1.019
33061W        W 6129  39.273  13.624  13.394
33062W        W 6130  30.794  26.153   3.238
33063W        W 6131  38.515  32.518   3.266
33064W        W 6132  26.011  27.247   0.928
33065W        W 6133  38.118   0.554  13.541
33066W        W 6134  19.437   5.381   1.415
33067W        W 6135  16.231  20.038   1.863
33068W        W 6136  12.220   0.647  11.477
33069W        W 6137   8.817  39.765   0.278
33070W        W 6138  33.952   3.054   4.578
33071W        W 6139  26.593  32.928   2.471
33072W        W 6140  28.431  10.821  13.511
33073W        W 6141  28.684   7.818  11.182
33074W        W 6142  36.239  37.428  12.232
33075W        W 6143   8.157   6.277   2.421
33076W        W 6144  29.283  25.176  14.564
33077W        W 6145  14.053  31.639   2.407
33078W        W 6146  22.143  33.084   3.463
33079W        W 6147  32.917  23.619  11.508
33080W        W 6148   5.128   1.305  11.644
33081W        W 6149  30.080   9.413  11.991
33082W        W 6150   3.148  33.975  12.660
33083W        W 6151  42.250  27.908  10.809
33084W        W 6152  30.541  29.940   3.178
33085W        W 6153  38.824  35.069   1.830
33086W        W 6154  34.593  39.179  14.207
33087W        W 6155  32.868  36.258   2.418
33088W        W 6156  12.610  25.235  12.449
33089W        W 6157   2.391  28.674  14.474
33090W        W 6158  32.474  37.543   2.373
33091W        W 6159  23.302  12.268  13.018
33092W        W 6160  32.298  30.371   2.632
33093W        W 6161  42.279   8.509   2.583
33094W        W 6162  32.852  15.573  10.674
33095W        W 6163  44.932  32.446   4.344
33096W        W 6164  12.902  18.759   0.405
33097W        W 6165  25.925  22.998   3.620
33098W        W 6166  35.917  40.507   2.432
33099W        W 6167  28.660  10.460   4.132
33100W        W 6168  30.114  41.035   1.842
33101W        W 6169  24.236  26.241  12.852
33102W        W 6170  21.087  10.997   0.181
33103W        W 6171  12.823  20.927   1.848
33104W        W 6172   7.128  25.187   3.968
33105W        W 6173  33.920  25.547   4.292
33106W        W 6174  22.671  17.477   2.728
33107W        W 6175  43.636   4.623  13.730
33108W        W 6176   3.124   2.670   4.782
33109W        W 6177   1.540  19.239   1.862
33110W        W 6178  17.483  43.192  14.868
33111W        W 6179  29.356   7.694   0.687
33112W        W 6180   7.907   8.761   1.022
33113W        W 6181  34.145  27.173  11.520
33114W        W 6182  23.816  15.696   3.804
33115W        W 6183  13.274  42.181  14.278
33116W        W 6184  10.592   2.768  12.146
33117W        W 6185  14.017  11.422  13.106
33118W        W 6186  20.966  33.185  11.699
33119W        W 6187  12.540  32.992   3.886
33120W        W 6188  10.701  38.341   3.115
33121W        W 6189   4.296  11.367   3.289
33122W        W 6190  32.472  26.373   3.204
33123W        W 6191  26.213  38.241   3.940
33124W        W 6192  19.115  38.993  11.528
33125W        W 6193  32.417  41.219   4.404
33126W        W 6194  27.506  22.857   4.231
33127W        W 6195  37.209  21.791   3.361
33128W        W 6196  21.284  26.055  14.034
33129W        W 6197  21.841  28.998   4.588
33130W        W 6198  11.433  41.825   2.419
33131W        W 6199   2.470  28.619  11.916
33132W        W 6200   0.836   4.264   4.716
33133W        W 6201   0.433  17.728  12.132
33134W        W 6202  44.046  11.080   2.364
33135W        W 6203  26.111  33.526  14.589
33136W        W 6204  24.414   0.442  11.728
33137W        W 6205  43.274  23.346   4.729
33138W        W 6206   2.416  13.598   4.015
33139W        W 6207   1.482   3.506   1.168
33140W        W 6208   1.283  44.869  13.487
33141W        W 6209  38.231  37.530   2.446
33142W        W 6210  40.741  39.870   4.755
33143W        W 6211  28.067  19.357  14.495
33144W        W 6212   5.664  29.628   0.017
33145W        W 6213   6.475  17.643  10.567
33146W        W 6214  35.918  29.140  11.680
33147W        W 6215  37.793  18.776   4.150
33148W        W 6216   2.988  23.471  12.179
33149W        W 6217  10.552  44.540  11.073
33150W        W 6218  19.646  20.770  12.983
33151W        W 6219   6.747  12.833   1.654
33152W        W 6220  11.849  15.192  13.532
33153W        W 6221   3.796  40.266  13.532
33154W        W 6222  40.735  39.339   2.746
33155W        W 6223  34.498  37.352   2.656
33156W        W 6224  37.071   1.682  11.126
33157W        W 6225  27.211  25.542  11.792
33158W        W 6226  38.822  21.695   4.695
33159W        W 6227  42.823  35.420  11.998
33160W        W 6228   9.914  17.786  13.023
33161W        W 6229  11.334  31.479   4.940
33162W        W 6230  23.063  33.287   1.072
33163W        W 6231  34.251  33.415  13.158
33164W        W 6232  38.069  20.694   3.672
33165W        W 6233   8.418  27.433   2.302
33166W        W 6234  14.094   0.532   3.594
33167W        W 6235  36.944   0.953   3.616
33168W        W 6236  21.679  23.521   3.717
33169W        W 6237  38.877   0.376   4.780
33170W        W 6238  44.420  25.603  12.949
33171W        W 6239  43.505  13.414   1.619
33172W        W 6240   9.300  28.364  12.981
33173W        W 6241  43.534   1.797   0.773
33174W        W 6242   7.705   6.739   0.846
33175W        W 6243  34.033  24.685   4.393
33176W        W 6244  24.946  19.038  13.895
33177W        W 6245  23.190  14.283   4.644
33178W        W 6246  28.657  41.963   3.173
33179W        W 6247  12.644   7.788   1.239
33180W        W 6248  37.392  11.022   3.607
33181W        W 6249  26.746  34.542   2.720
33182W        W 6250  20.578  18.175   1.232
33183W        W 6251  13.606  17.165  13.994
33184W        W 6252  28.117  15.325   1.021
33185W        W 6253  21.846  23.205   3.132
33186W        W 6254  27.729  12.881  12.818
33187W        W 6255  11.224   1.908   1.261
33188W        W 6256  17.272  23.543  10.411
33189W        W 6257  14.364   6.394  12.697
33190W        W 6258   6.649  40.970  12.526
33191W        W 6259  22.614   1.382  14.478
33192W        W 6260  19.310  10.486   0.999
33193W        W 6261  10.307  17.741  13.868
33194W        W 6262  16.662  25.968  13.970
33195W        W 6263  41.365  13.232  11.997
33196W        W 6264  27.045  14.263   0.888
33197W        W 6265  20.143   1.009   4.532
33198W        W 6266  36.543  34.977   0.546
33199W        W 6267   2.923  40.195  13.387
33200W        W 6268  17.654  19.129   0.335
33201W        W 6269   8.167  38.924   1.327
33202W        W 6270  44.241  10.190  12.902
33203W        W 6271  36.878  22.445   1.418
33204W        W 6272  17.598  18.109   3.385
33205W        W 6273   5.448  39.507   1.066
33206W        W 6274   2.143  40.594  12.557
33207W        W 6275  38.731  23.074  10.561
33208W        W 6276  28.715  10.173   0.805
33209W        W 6277  44.889   0.523  13.886
33210W        W 6278  44.730  24.142  10.240
33211W        W 6279  16.266  36.798  14.762
33212W        W 6280  28.694  11.524   9.966
33213W        W 6281  42.095  36.899  14.800
33214W        W 6282  17.679  15.302  12.572
33215W        W 6283   4.448  25.932   2.881
33216W        W 6284   3.462  24.211  14.805
33217W        W 6285  10.186  22.460   1.896
33218W        W 6286  16.370  35.913   2.682
33219W        W 6287  43.568  25.153  12.082
33220W        W 6288  26.241  43.108   1.175
33221W        W 6289  38.003  11.858  13.857
33222W        W 6290  40.417  28.181   0.205
33223W        W 6291  10.313   8.612   3.618
33224W        W 6292  24.974  18.855  10.759
33225W        W 6293  36.899   8.273   1.628
33226W        W 6294  17.484  43.828  14.837
33227W        W 6295   5.190  19.735  11.112
33228W        W 6296  25.541  32.561  13.529
33229W        W 6297   0.755  23.107   3.766
33230W        W 6298  35.509  31.695   1.891
33231W        W 6299  31.133   6.697   2.203
33232W        W 6300  31.366  29.529   0.282
33233W        W 6301  31.352  12.259   2.942
33234W        W 6302  27.043   8.379   4.887
33235W        W 6303  37.055  17.079   0.895
33236W        W 6304   4.662  29.152  12.365
33237W        W 6305  24.639  10.210  11.520
33238W        W 6306  37.447  19.296   0.770
33239W        W 6307   8.903   6.237  14.254
33240W        W 6308   7.792  30.886  10.653
33241W        W 6309  33.126  31.545  12.002
33242W        W 6310  23.734  40.831  12.370
33243W        W 6311  32.780  31.519  10.782
33244W        W 6312  38.089  37.026   2.693
33245W        W 6313  12.873   5.759  10.729
33246W        W 6314  43.652  11.982  10.688
33247W        W 6315  16.738  34.644  14.057
33248W        W 6316  43.498  31.786   2.327
33249W        W 6317  36.259   1.593  10.313
33250W        W 6318  25.928  15.738   0.517
33251W        W 6319  20.465  38.548  10.423
33252W        W 6320   4.133  25.947  12.531
33253W        W 6321   8.832   4.474  14.032
33254W        W 6322   8.711  18.705  14.323
33255W        W 6323  40.448  34.967  13.412
33256W        W 6324  28.670  15.117  11.393
33257W        W 6325   8.693   3.645   2.777
33258W        W 6326   3.108  11.935  12.472
33259W        W 6327  31.417  28.912  14.280
33260W        W 6328   1.246  34.038  12.014
33261W        W 6329  31.156  41.689   4.097
33262W        W 6330   5.964  44.657  12.045
33263W        W 6331  44.223  43.485   0.963
33264W        W 6332  12.631  16.467   4.567
33265W        W 6333  33.630  23.697   1.679
33266W        W 6334   0.923  29.384  11.544
33267W        W 6335  28.094  16.297   3.370
33268W        W 6336  13.818  34.549   2.844
33269W        W 6337   1.999   2.733   4.909
33270W        W 6338  12.897  24.169   1.252
33271W        W 6339   3.479   1.226   1.012
33272W        W 6340  36.081  37.444  13.687
33273W        W 6341  16.383  28.966  13.529
33274W        W 6342  44.956  21.662  12.426
33275W        W 6343  21.117   7.019   2.668
33276W        W 6344  32.756  15.102  11.366
33277W        W 6345  11.020  35.090  10.747
33278W        W 6346  20.687  36.169   4.860
33279W        W 6347  19.137   2.268  11.174
33280W        W 6348  21.544   5.895  10.392
33281W        W 6349  12.702  13.594   2.225
33282W        W 6350  39.743  19.618  13.840
33283W        W 6351  40.907  14.408   4.463
33284W        W 6352  12.402  38.483  13.442
33285W        W 6353   5.247  30.036   4.911
33286W        W 6354  27.095   8.285   0.841
33287W        W 6355  21.024   6.353  11.727
33288W        W 6356   0.222  38.324  12.837
33289W        W 6357  30.364  22.701  12.994
33290W        W 6358  38.011  10.850  11.188
33291W        W 6359  44.933   0.892  13.511
33292W        W 6360   8.502  14.679  10.632
33293W        W 6361  35.601  33.657  10.277
33294W        W 6362  31.646   5.923   3.812
33295W        W 6363  44.888  14.660  14.418
33296W        W 6364  44.361  28.687   3.803
33297W        W 6365  11.546  11.322   1.022
33298W        W 6366  39.903  42.098  12.978
33299W        W 6367  38.998   3.017   1.286
33300W        W 6368  26.537   4.148  14.569
33301W        W 6369   0.583   8.009  12.916
33302W        W 6370  15.538  31.155  12.025
33303W        W 6371   2.154  29.086   2.761
33304W        W 6372  12.245  30.389   0.145
33305W        W 6373  26.370  17.006  11.112
33306W        W 6374  23.687  11.736   1.986
33307W        W 6375  35.175   9.942   0.816
33308W        W 6376  30.063  11.028   0.558
33309W        W 6377  42.269  10.676   0.382
33310W        W 6378  20.793  44.239   0.369
33311W        W 6379   4.772   4.029  13.388
33312W        W 6380   3.528  26.214   2.297
33313W        W 6381   8.193  41.959  12.397
33314W        W 6382   9.487  33.464   4.418
33315W        W 6383  33.030  26.124  11.221
33316W        W 6384  40.443  21.142  14.277
33317W        W 6385   0.831  29.065   2.322
33318W        W 6386  10.738  42.031   0.800
33319W        W 6387  40.219  26.064  14.469
33320W        W 6388  17.578   6.399   2.568
33321W        W 6389  40.731  29.989  11.226
33322W        W 6390   1.304  18.860  13.435
33323W        W 6391  14.274   6.472   4.247
33324W        W 6392  11.268  28.681  14.870
33325W        W 6393  44.147   9.594   2.783
33326W        W 6394   7.120  41.688  14.899
33327W        W 6395  17.569  29.858  12.471
33328W        W 6396  27.856   1.976  13.441
33329W        W 6397  17.442   2.204   4.105
33330W        W 6398   8.280  19.206   4.846
33331W        W 6399  15.621  30.321   4.433
33332W        W 6400  35.005  36.357   0.735
33333W        W 6401  21.506  38.788  13.225
33334W        W 6402   9.343  24.366  13.004
33335W        W 6403  10.830  37.893  13.293
33336W        W 6404  13.482  36.676   2.825
33337W        W 6405  30.888   1.459  11.172
33338W        W 6406  32.141  37.904   0.322
33339W        W 6407  17.332  37.981   3.090
33340W        W 6408  18.193  15.357  14.837
33341W        W 6409  32.892  44.715  10.909
33342W        W 6410  12.103  19.772   0.283
33343W        W 6411  23.724   9.269  11.959
33344W        W 6412  44.047  13.327  12.435
33345W        W 6413   6.172  26.214  12.617
33346W        W 6414  10.811   5.219  14.060
33347W        W 6415  33.312  27.038  14.050
33348W        W 6416   7.711  28.108  11.153
33349W        W 6417   5.924  25.687   2.650
33350W        W 6418  26.199  43.030   2.618
33351W        W 6419  31.089  38.827  11.117
33352W        W 6420   9.323  23.221  11.985
33353W        W 6421  29.610  26.286   4.188
33354W        W 6422  44.856  42.077  11.634
33355W        W 6423  32.990   2.123  10.874
33356W        W 6424  42.960  17.146   0.432
33357W        W 6425  17.769   4.659  13.050
33358W        W 6426  15.064  10.271   3.315
33359W        W 6427  33.480  27.903   4.499
33360W        W 6428  20.048  23.438  14.773
33361W        W 6429  31.697  28.419  10.944
33362W        W 6430  41.388   4.916   0.913
33363W        W 6431  22.373  44.552   1.859
33364W        W 6432  39.520  29.265  11.478
33365W        W 6433  40.011   7.758   1.892
33366W        W 6434   7.126   0.431  13.867
33367W        W 6435   3.700   2.733   3.908
33368W        W 6436  28.242  16.479  11.065
33369W        W 6437  31.037  25.425   0.704
33370W        W 6438  20.436  36.589   0.841
33371W        W 6439  34.520   1.333   1.816
33372W        W 6440  22.210  30.553  10.992
33373W        W 6441  34.652   6.146  12.887
33374W        W 6442  10.609   8.684   3.164
33375W        W 6443  44.295  13.571  10.688
33376W        W 6444   4.310  20.033   4.629
33377W        W 6445  21.717   9.390   3.120
33378W        W 6446  31.610   6.086  14.953
33379W        W 6447  15.961  35.559   1.353
33380W        W 6448  32.152  30.646  14.402
33381W        W 6449  25.623  12.629   0.031
33382W        W 6450   8.911  23.032  13.944
33383W        W 6451  18.026   5.096  13.131
33384W        W 6452  36.063  13.844  14.348
33385W        W 6453  34.055  27.039  13.482
33386W        W 6454  37.392  42.804  13.444
33387W        W 6455   1.327  41.445  12.832
33388W        W 6456  26.705  26.768   2.409
33389W        W 6457   2.856  21.773  14.820
33390W        W 6458  41.298  41.309  13.121
33391W        W 6459  41.525  12.441   0.185
33392W        W 6460   4.746  36.358   3.771
33393W        W 6461   0.959  31.974  11.626
33394W        W 6462  23.676   9.730  13.907
33395W        W 6463  35.502  20.292   0.312
33396W        W 6464  24.656  21.016   3.564
33397W        W 6465   5.330  10.608  11.234
33398W        W 6466  19.285   3.363   2.763
33399W        W 6467  12.732  20.972   2.341
33400W        W 6468  23.972   5.257   2.381
33401W        W 6469   2.492   4.120   2.240
33402W        W 6470   7.309  12.296  14.758
33403W        W 6471  11.793  27.139  13.953
33404W        W 6472  29.259  37.087  11.609
33405W        W 6473  16.286  41.869  11.143
33406W        W 6474  25.999  41.555  13.507
33407W        W 6475  38.057  22.127  11.573
33408W        W 6476  44.823   3.199   3.133
33409W        W 6477  40.942  31.618  11.497
33410W        W 6478  20.454  44.447   3.204
33411W        W 6479  28.159  27.211   2.270
33412W        W 6480  11.596   1.358   1.758
33413W        W 6481   8.822  33.895   1.693
33414W        W 6482  32.929  22.206   3.652
33415W        W 6483  44.357   0.152   4.973
33416W        W 6484  12.142   2.236   1.808
33417W        W 6485  20.810  36.593   0.497
33418W        W 6486  19.511  27.623  12.383
33419W        W 6487   7.427  44.367   2.181
33420W        W 6488  38.905  21.544  11.588
33421W        W 6489  25.173  40.333   2.516
33422W        W 6490   8.016  43.993   1.939
33423W        W 6491  38.984   2.291  12.967
33424W        W 6492  33.512  12.113   2.770
33425W        W 6493  19.922   2.041  10.492
33426W        W 6494  20.648  31.233  13.374
33427W        W 6495  26.737   4.529   3.675
33428W        W 6496   4.693  29.650  11.144
33429W        W 6497  31.032  44.439   9.897
33430W        W 6498  15.801  23.219   0.738
33431W        W 6499   1.973  13.182  13.888
33432W        W 6500  36.119  12.861   0.303
33433W        W 6501  41.005  26.091   4.396
33434W        W 6502  22.349  21.026   0.475
33435W        W 6503  44.054  34.979   1.366
33436W        W 6504  10.338  34.379   0.273
33437W        W 6505   3.423   5.029   2.389
33438W        W 6506  27.287  19.844  14.188
33439W        W 6507  28.023  30.212   2.921
33440W        W 6508  31.916   7.521  12.352
33441W        W 6509  39.081  27.547   2.381
33442W        W 6510  40.272   2.005   0.441
33443W        W 6511  14.510  29.066  10.085
33444W        W 6512  24.309   7.197   2.365
33445W        W 6513   3.782  34.858   4.749
33446W        W 6514   2.999  31.899  12.226
33447W        W 6515  40.953  33.748  13.623
33448W        W 6516  27.824  27.268   1.055
33449W        W 6517  27.094  22.760  12.882
33450W        W 6518   4.176   1.878   2.335
33451W        W 6519  33.332   8.705  12.581
33452W        W 6520  37.357   6.084   3.282
33453W        W 6521  27.899  37.597   5.222
33454W        W 6522  26.781  24.238   1.756
33455W        W 6523  41.926  31.922  13.924
33456W        W 6524  30.664  37.460  14.487
33457W        W 6525  38.409  21.290   1.299
33458W        W 6526   5.751  24.540  12.151
33459W        W 6527  14.100  21.071   2.305
33460W        W 6528  27.175  36.530  14.395
33461W        W 6529  44.159  44.805   0.727
33462W        W 6530  42.379  38.141   0.889
33463W        W 6531  21.457  43.961  13.432
33464W        W 6532   5.926   4.795  14.079
33465W        W 6533   3.715  23.491   2.438
33466W        W 6534  17.660  38.096   0.861
33467W        W 6535  10.360  27.979   0.024
33468W        W 6536  40.706  28.182  13.863
33469W        W 6537  21.514  35.288   3.668
33470W        W 6538  42.276   6.503   1.791
33471W        W 6539  31.560  27.629   0.365
33472W        W 6540   2.359  35.452  12.612
33473W        W 6541  32.878  25.991  14.831
33474W        W 6542  25.979  13.117  12.526
33475W        W 6543  30.567  44.423  11.688
33476W        W 6544  22.485  31.329  14.257
33477W        W 6545   5.155  36.333   3.408
33478W        W 6546  13.075   3.285  12.983
33479W        W 6547  17.086  21.548  11.548
33480W        W 6548   0.241   3.339  13.390
33481W        W 6549  26.207  35.640   1.314
33482W        W 6550  19.493  32.775  12.387
33483W        W 6551  43.867  37.029   0.376
33484W        W 6552  14.065  27.298   4.691
33485W        W 6553   8.668   6.980   4.235
33486W        W 6554  36.461   2.766  10.745
33487W        W 6555  26.242  21.562  11.156
33488W        W 6556  17.877  24.767  14.325
33489W        W 6557  31.508   5.958   4.300
33490W        W 6558   0.710  24.686  14.811
33491W        W 6559  35.376  34.526  14.777
33492W        W 6560  11.129  31.059   4.733
33493W        W 6561  16.629  32.199  11.616
33494W        W 6562  23.701   0.072   3.086
33495W        W 6563  24.934  16.900  10.503
33496W        W 6564  30.952  40.057  14.277
33497W        W 6565  25.627  40.596  13.374
33498W        W 6566  38.749  29.722   3.355
33499W        W 6567  24.653  16.812  14.814
33500W        W 6568  44.837  29.548   0.262
33501W        W 6569  36.344  24.620  14.496
33502W        W 6570  29.260  34.402  10.726
33503W        W 6571   4.987  25.568  12.702
33504W        W 6572  41.237  12.051   2.194
33505W        W 6573  27.181  18.278   1.914
33506W        W 6574  12.419   1.371   1.259
33507W        W 6575  17.826  40.429   2.262
33508W        W 6576  17.798  39.094  11.181
33509W        W 6577   7.199  38.915   0.298
33510W        W 6578  43.936  34.005  12.305
33511W        W 6579  26.111   9.376  12.000
33512W        W 6580  20.407  33.868  12.351
33513W        W 6581  12.069   2.920  13.565
33514W        W 6582  44.037  29.396   1.320
33515W        W 6583  41.832   5.634  11.055
33516W        W 6584   0.321  11.864   1.388
33517W        W 6585  36.342  36.032  11.481
33518W        W 6586  10.305  12.569   1.877
33519W        W 6587  14.841  25.201   4.103
33520W        W 6588   4.141  44.482   1.609
33521W        W 6589  19.714  25.916   3.221
33522W        W 6590  27.125   4.823   0.669
33523W        W 6591  28.608  16.322  12.060
33524W        W 6592  23.715  14.254  12.033
33525W        W 6593  32.982  37.598  13.136
33526W        W 6594  19.736  30.722   2.387
33527W        W 6595  39.457  27.533  12.325
33528W        W 6596  29.951  38.108  11.498
33529W        W 6597  39.780   8.360  14.869
33530W        W 6598   7.534  32.577  12.048
33531W        W 6599  33.584  14.043  12.564
33532W        W 6600  30.442   5.818  11.728
33533W        W 6601  24.618  23.177   1.699
33534W        W 6602  22.018  36.571  10.846
33535W        W 6603  14.385  19.634  11.136
33536W        W 6604   2.928  16.372   0.507
33537W        W 6605  22.228  41.558  13.452
33538W        W 6606   3.420  36.137   4.773
33539W        W 6607  10.794  20.669   1.484
33540W        W 6608  37.353  32.971   2.556
33541W        W 6609  21.048   3.474   2.373
33542W        W 6610  10.203   2.443   4.218
33543W        W 6611  16.145  41.340  14.741
33544W        W 6612  25.167   1.751   1.820
33545W        W 6613   6.883  29.387  14.601
33546W        W 6614   3.694  29.052  14.777
33547W        W 6615  14.526  28.971  11.538
33548W        W 6616  10.878   8.897  11.455
33549W        W 6617  33.677  31.533  14.363
33550W        W 6618  16.714  37.743   2.264
33551W        W 6619  10.971  30.110  11.280
33552W        W 6620  40.600  19.692  14.879
33553W        W 6621   8.611  44.615   2.756
33554W        W 6622   1.414  31.081   2.151
33555W        W 6623  17.215  16.048   4.072
33556W        W 6624  22.647  14.290   4.648
33557W        W 6625  22.179  41.255   2.398
33558W        W 6626  33.399   4.742  11.348
33559W        W 6627  34.582   3.702  12.189
33560W        W 6628  13.543   8.277  11.391
33561W        W 6629  16.716  31.051   3.252
33562W        W 6630  26.790   9.825  10.150
33563W        W 6631  11.958  24.571   3.899
33564W        W 6632  29.626  34.986   1.236
33565W        W 6633   7.973  29.386   1.286
33566W        W 6634  22.170  39.786   2.192
33567W        W 6635  30.580  22.634   2.712
33568W        W 6636  33.115  13.787  11.771
33569W        W 6637  12.144  42.554  13.639
33570W        W 6638  21.309  41.016   2.025
33571W        W 6639  26.801  33.611  12.048
33572W        W 6640  16.200  41.533  10.630
33573W        W 6641  24.170  34.984   2.732
33574W        W 6642  21.144   4.304   3.670
33575W        W 6643  26.636  14.860   1.968
33576W        W 6644   1.240  44.902   4.020
33577W        W 6645  24.595  39.812  14.923
33578W        W 6646  23.433   1.824   0.692
33579W        W 6647  11.910  14.186  13.374
33580W        W 6648   4.615  28.501   0.634
33581W        W 6649  37.664  44.340   1.276
33582W        W 6650  38.488  43.521  10.865
33583W        W 6651  28.054  26.295   0.766
33584W        W 6652  20.816  16.780   0.252
33585W        W 6653  20.342  37.348   3.121
33586W        W 6654  30.595  26.883  14.230
33587W        W 6655  22.115  11.518  11.191
33588W        W 6656   2.845  29.841  10.509
33589W        W 6657   9.423  24.574   2.296
33590W        W 6658  25.610  38.048   4.156
33591W        W 6659   6.780  41.315   2.132
33592W        W 6660  17.293   5.779  13.582
33593W        W 6661  24.916  32.130  13.483
33594W        W 6662  35.174  28.344  13.751
33595W        W 6663  40.937  39.061   3.215
33596W        W 6664  13.772  38.124   1.656
33597W        W 6665  14.048  33.546  10.956
33598W        W 6666  32.450   2.351  12.830
33599W        W 6667  10.987   8.653  11.004
33600W        W 6668  43.404   0.396   1.570
33601W        W 6669  16.346  20.349  14.149
33602W        W 6670  36.729  39.027   0.405
33603W        W 6671  26.956  18.072   0.553
33604W        W 6672  35.643  29.414   1.740
33605W        W 6673  30.983  33.403   3.272
33606W        W 6674   5.198  40.015   4.535
33607W        W 6675  32.057  22.263   4.616
33608W        W 6676  24.520  39.079  11.610
33609W        W 6677  35.126   5.443  14.145
33610W        W 6678   0.511  33.726  13.133
33611W        W 6679  16.207  34.176   0.920
33612W        W 6680   7.257  38.287  13.791
33613W        W 6681  27.151  25.409  12.810
33614W        W 6682  43.263   3.351  14.541
33615W        W 6683  42.903  34.590   1.895
33616W        W 6684  43.726  22.622   4.087
33617W        W 6685  27.242  31.704  13.492
33618W        W 6686  14.575  42.552  11.881
33619W        W 6687   1.256   4.943  14.569
33620W        W 6688  21.634  16.516  13.107
33621W        W 6689   7.732  30.379  10.615
33622W        W 6690  39.613  38.315  10.707
33623W        W 6691  33.351   2.539   1.367
33624W        W 6692   8.760  38.053   4.258
33625W        W 6693  30.152  19.035  12.199
33626W        W 6694  33.054  33.914   0.827
33627W        W 6695  19.595  43.620   0.198
33628W        W 6696  15.739   1.353  12.828
33629W        W 6697  14.667  12.237  11.853
33630W        W 6698  31.418  40.901   0.727
33631W        W 6699  43.737  13.639   1.185
33632W        W 6700  11.854  35.530   2.284
33633W        W 6701  27.179  34.608   0.401
33634W        W 6702  21.567  15.345  11.481
33635W        W 6703  22.620  18.327   2.331
33636W        W 6704  42.683   8.880   0.927
33637W        W 6705  26.678  32.480   2.228
33638W        W 6706  32.756  40.937   3.193
33639W        W 6707  11.167  21.185   4.559
33640W        W 6708  35.249  13.294   1.258
33641W        W 6709   4.054  17.731   0.216
33642W        W 6710   5.876  25.385   0.775
33643W        W 6711  14.135   7.851   2.264
33644W        W 6712  15.098  11.930   4.942
33645W        W 6713  15.575  43.943   2.716
33646W        W 6714  12.846  43.675   1.012
33647W        W 6715  13.192  17.200  11.390
33648W        W 6716  44.028  33.055   2.852
33649W        W 6717  39.005  16.221  13.412
33650W        W 6718  16.484  27.636  12.541
33651W        W 6719  24.046  30.257  11.200
33652W        W 6720  23.292   2.245   0.027
33653W        W 6721  25.005   4.275  11.856
33654W        W 6722  22.128   7.904  12.658
33655W        W 6723  31.070  43.028   4.074
33656W        W 6724  14.011  42.382   0.776
33657W        W 6725   3.854   6.880   3.246
33658W        W 6726  40.049  39.269   4.590
33659W        W 6727  26.417  28.775   0.277
33660W        W 6728  36.121   2.694   3.686
33661W        W 6729  17.987  31.114  11.547
33662W        W 6730  27.694  33.102  13.562
33663W        W 6731  36.392  22.618   4.626
33664W        W 6732  23.971   7.779  13.619
33665W        W 6733  34.602  12.718   3.719
33666W        W 6734  30.689  23.538   0.826
33667W        W 6735  43.531  10.373   3.591
33668W        W 6736  27.970  19.376   2.650
33669W        W 6737  23.087  36.114  11.027
33670W        W 6738  33.618  15.360  13.552
33671W        W 6739  19.757  41.386  11.635
33672W        W 6740  31.908  13.115   1.852
33673W        W 6741  32.662  19.990  12.435
33674W        W 6742   9.189  33.880   0.957
33675W        W 6743   4.936  17.307   4.035
33676W        W 6744  15.316  12.703   4.658
33677W        W 6745  36.545  12.655  10.683
33678W        W 6746   0.852  41.324   3.697
33679W        W 6747  28.536  24.052  13.941
33680W        W 6748  40.437   2.422  10.147
33681W        W 6749  12.543  40.414   4.759
33682W        W 6750  36.505  32.670  12.865
33683W        W 6751  10.000  40.621   0.726
33684W        W 6752  36.491   5.317   2.139
33685W        W 6753  36.416  33.696   0.186
33686W        W 6754   0.939   7.249  14.469
33687W        W 6755  15.102  45.000  14.409
33688W        W 6756  20.096  12.686   1.863
33689W        W 6757   0.440  35.397   3.046
33690W        W 6758  39.978  18.078  12.502
33691W        W 6759  17.749  40.170  11.415
33692W        W 6760  42.550   7.228   2.214
33693W        W 6761  40.625  29.931   3.305
33694W        W 6762  22.174  30.150  13.796
33695W        W 6763   4.971   6.776   0.294
33696W        W 6764  23.208  44.380  14.812
33697W        W 6765  13.140   3.609  13.938
33698W        W 6766  19.550  36.582   2.467
33699W        W 6767  42.312  21.920   0.771
33700W        W 6768  27.913  12.398  12.901
33701W        W 6769   6.456   3.444   0.115
33702W        W 6770  26.953  12.595   5.850
33703W        W 6771  31.610  30.505   3.858
33704W        W 6772  15.821   4.688  11.290
33705W        W 6773  41.404  15.667  12.284
33706W        W 6774  14.208  37.325  14.571
33707W        W 6775  26.674  40.982  14.825
33708W        W 6776  41.477  11.152   0.429
33709W        W 6777   8.117  41.776   0.692
33710W        W 6778  41.896  24.246   2.191
33711W        W 6779   6.656  13.768   3.709
33712W        W 6780   4.911   5.180  11.686
33713W        W 6781  28.595  41.797   4.847
33714W        W 6782   2.554  12.747   2.225
33715W        W 6783  17.178   0.074   0.946
33716W        W 6784   5.882   6.469   1.939
33717W        W 6785  22.502  35.411  13.908
33718W        W 6786   1.851  40.835  13.260
33719W        W 6787  12.589  36.918   1.206
33720W        W 6788   1.348  43.324  11.042
33721W        W 6789  18.011  25.602   0.418
33722W        W 6790   6.154   5.688  14.445
33723W        W 6791   7.776  29.566  13.572
33724W        W 6792  40.333  13.157  13.949
33725W        W 6793  32.314   0.980  10.434
33726W        W 6794  28.506  21.492   1.925
33727W        W 6795  43.796   8.830   4.533
33728W        W 6796  25.635  42.462   4.742
33729W        W 6797   0.490  41.439  11.614
33730W        W 6798  13.583  44.262  14.115
33731W        W 6799   6.866  20.457   4.260
33732W        W 6800  40.356  37.620  11.485
33733W        W 6801   5.239  23.404  12.447
33734W        W 6802  15.828  34.943  14.789
33735W        W 6803  34.915   6.898  12.515
33736W        W 6804  22.041  12.927  13.830
33737W        W 6805  36.824   1.820  12.475
33738W        W 6806  24.114  42.496   3.771
33739W        W 6807   4.018  10.646   3.147
33740W        W 6808  43.280  40.578   3.260
33741W        W 6809  12.440   0.396   0.280
33742W        W 6810   1.169  12.599  14.398
33743W        W 6811  30.583   3.792   3.276
33744W        W 6812  22.635  21.785   3.761
33745W        W 6813   8.687  40.043   3.243
33746W        W 6814  20.942   4.864  12.468
33747W        W 6815   4.991  25.179  12.359
33748W        W 6816  30.009  40.343   4.621
33749W        W 6817  12.653   5.845   2.417
33750W        W 6818  28.736  23.672   0.103
33751W        W 6819  34.293   5.253   4.077
33752W        W 6820  36.332  13.129   2.577
33753W        W 6821  14.699  15.575   3.949
33754W        W 6822   5.441  33.629   0.733
33755W        W 6823  24.292  21.618  10.979
33756W        W 6824   4.674   6.515  12.245
33757W        W 6825  19.907  38.132  12.429
33758W        W 6826  28.011  23.652  12.357
33759W        W 6827   8.782  41.380  12.921
33760W        W 6828   1.223  36.278  13.573
33761W        W 6829  19.171  21.603  13.599
33762W        W 6830  21.688  11.092  12.632
33763W        W 6831   8.915  40.342   4.595
33764W        W 6832  15.995  26.282  13.576
33765W        W 6833  40.465  41.292   4.116
33766W        W 6834  29.978  44.923  10.827
33767W        W 6835  23.654  41.241  13.325
33768W        W 6836   7.701   6.242   2.151
33769W        W 6837  18.027   1.061   3.774
33770W        W 6838  20.385  39.567   4.950
33771W        W 6839  32.637  37.816   2.801
33772W        W 6840  24.507  40.277  12.836
33773W        W 6841  26.996  11.645   1.493
33774W        W 6842  22.354  32.948   4.845
33775W        W 6843  27.667  24.017  12.859
33776W        W 6844   3.804  21.806   0.904
33777W        W 6845   8.442  31.094  13.405
33778W        W 6846  27.450  14.281   3.716
33779W        W 6847  41.542  32.229   0.329
33780W        W 6848  42.019  24.041   2.635
33781W        W 6849  30.050   3.875   2.680
33782W        W 6850  38.909   0.856  10.009
33783W        W 6851  17.783  35.588  10.764
33784W        W 6852  16.063  11.893   0.887
33785W        W 6853   3.227  20.096   4.659
33786W        W 6854  21.871   1.032   4.685
33787W        W 6855  39.602   8.681   9.711
33788W        W 6856  22.444  19.844   2.893
33789W        W 6857  41.643  40.482   0.761
33790W        W 6858  34.468  26.182   4.702
33791W        W 6859  17.015  12.309   0.452
33792W        W 6860  31.474   8.669  13.727
33793W        W 6861  43.595  21.712  12.435
33794W        W 6862  43.315  39.353  13.411
33795W        W 6863  31.145  24.554   1.678
33796W        W 6864  36.923  30.343   3.685
33797W        W 6865  38.114  31.629   0.702
33798W        W 6866  33.814   1.874   1.767
33799W        W 6867  35.597  43.939  12.601
33800W        W 6868  37.609  28.135  10.066
33801W        W 6869  25.502  35.555   2.761
33802W        W 6870  30.608   1.282   4.847
33803W        W 6871  17.817  36.772   1.278
33804W        W 6872   1.662  32.330  14.806
33805W        W 6873  17.618  30.896  11.816
33806W        W 6874  13.339  33.090   3.344
33807W        W 6875   1.973  30.500   4.239
33808W        W 6876   8.805   8.680   2.473
33809W        W 6877  12.917  16.906   4.441
33810W        W 6878   4.904   4.659  14.983
33811W        W 6879   4.834  10.860  12.689
33812W        W 6880  44.468  20.628   1.355
33813W        W 6881  39.467  10.111  12.329
33814W        W 6882  14.444  21.986  11.980
33815W        W 6883   4.348  10.739   0.669
33816W        W 6884  14.446  17.813  14.897
33817W        W 6885  16.603  16.146   3.666
33818W        W 6886  41.389  43.472  12.676
33819W        W 6887  25.283  35.865  11.263
33820W        W 6888  24.500  26.043  10.683
33821W        W 6889  15.320   1.392  14.818
33822W        W 6890   0.206  24.565  12.375
33823W        W 6891   5.646  32.193  10.679
33824W        W 6892  15.653   5.218   4.743
33825W        W 6893  32.986  13.697  14.688
33826W        W 6894  44.822  27.490  13.106
33827W        W 6895  11.238  12.410   1.702
33828W        W 6896  30.969  14.062  14.370
33829W        W 6897  27.587  19.632   2.304
33830W        W 6898  32.548   5.915  10.742
33831W        W 6899  14.049   6.747  12.476
33832W        W 6900  42.432   1.518  12.881
33833W        W 6901  27.969  15.257   1.499
33834W        W 6902  16.791  42.525   3.315
33835W        W 6903   8.266  29.025  11.537
33836W        W 6904   8.382  38.156   4.971
33837W        W 6905  21.245  33.345  14.031
33838W        W 6906  41.616  16.101  10.654
33839W        W 6907   6.538  42.914   1.882
33840W        W 6908  29.380  19.571  12.652
33841W        W 6909  14.144   8.568   3.183
33842W        W 6910   8.209   0.952   2.576
33843W        W 6911  30.111  15.321  14.878
33844W        W 6912  15.566   5.172   1.797
33845W        W 6913   0.751  32.332  13.459
33846W        W 6914  20.608  15.386   4.743
33847W        W 6915  23.042   3.552  11.496
33848W        W 6916  35.419  28.663   2.233
33849W        W 6917  11.206  35.512  13.547
33850W        W 6918  18.137  16.507  13.921
33851W        W 6919   2.389   1.922   0.493
33852W        W 6920  13.168  38.608   4.526
33853W        W 6921  40.796  30.473  14.013
33854W        W 6922  26.973  35.479   0.176
33855W        W 6923   8.259  31.577  10.577
33856W        W 6924  14.214  33.574  10.439
33857W        W 6925  14.308  31.080   2.228
33858W        W 6926   7.831   2.656   3.866
33859W        W 6927   4.124   4.360   0.296
33860W        W 6928  25.842   3.273  10.746
33861W        W 6929  10.134  24.813   0.514
33862W        W 6930  35.673   7.828  12.965
33863W        W 6931  18.156   0.126  12.951
33864W        W 6932  19.579  34.356   1.193
33865W        W 6933  29.872  38.584  14.248
33866W        W 6934  43.811  21.815  11.039
33867W        W 6935  42.795   3.585  13.387
33868W        W 6936  43.416  38.100   3.957
33869W        W 6937  20.221  35.777   3.247
33870W        W 6938   4.888  35.894   3.543
33871W        W 6939  34.107  37.166   2.304
33872W        W 6940  18.515  14.652  14.877
33873W        W 6941  38.903  19.660  10.133
33874W        W 6942  35.208  38.008   0.906
33875W        W 6943   6.001  24.036  12.148
33876W        W 6944  18.177  22.033   3.763
33877W        W 6945  17.206  39.400   0.982
33878W        W 6946  27.830  33.507  12.064
33879W        W 6947  36.817  44.758   1.487
33880W        W 6948  30.866  44.988   1.701
33881W        W 6949  42.014  29.238   2.345
33882W        W 6950  19.949  27.253   2.366
33883W        W 6951  39.887  24.612  12.616
33884W        W 6952  13.993  24.696  11.117
33885W        W 6953  21.122  15.956  10.540
33886W        W 6954  30.442   1.645  14.853
33887W        W 6955  29.124  43.468   1.670
33888W        W 6956   4.665  15.519  13.893
33889W        W 6957  37.327  14.687   0.965
33890W        W 6958  42.207  21.721   0.313
33891W        W 6959  20.865  17.423  14.323
33892W        W 6960  16.649  20.599  11.195
33893W        W 6961  41.825  21.530  11.666
33894W        W 6962  40.328  30.454   4.482
33895W        W 6963   3.427  44.226  13.854
33896W        W 6964  20.102   4.188   1.837
33897W        W 6965  29.981  15.550  10.772
33898W        W 6966  42.054  15.740   5.636
33899W        W 6967  20.459  29.423   1.517
33900W        W 6968  33.020  18.391   2.296
33901W        W 6969  41.912  31.736   4.544
33902W        W 6970   2.808  29.580   2.433
33903W        W 6971  40.496   3.517  13.699
33904W        W 6972   5.749  43.410  13.383
33905W        W 6973   3.712  12.644  12.029
33906W        W 6974  32.366  30.631  13.924
33907W        W 6975  39.990  26.504  13.323
33908W        W 6976   0.428  15.743   2.105
33909W        W 6977  20.636  27.196   0.442
33910W        W 6978  18.776  44.917  11.545
33911W        W 6979  24.513  22.504   3.902
33912W        W 6980  24.521  16.487  10.124
33913W        W 6981  32.546  31.066   1.680
33914W        W 6982  24.053   8.795   2.875
33915W        W 6983  21.787  43.307  10.178
33916W        W 6984   5.471   8.044  13.181
33917W        W 6985  44.217  35.594   3.046
33918W        W 6986   0.439   2.770   0.912
33919W        W 6987  38.441  42.146   4.899
33920W        W 6988  24.226  11.153  12.804
33921W        W 6989  25.790   8.373   1.828
33922W        W 6990   6.319  37.592   2.813
33923W        W 6991   7.920  24.744  12.945
33924W        W 6992  15.824  11.293  13.326
33925W        W 6993  10.616  14.755  11.149
33926W        W 6994  18.467  33.314  13.344
33927W        W 6995  31.642  30.500   4.950
33928W        W 6996  20.509  30.943   1.896
33929W        W 6997  38.837  36.480  14.536
33930W        W 6998  15.663  28.278   0.370
33931W        W 6999  10.694  28.740   3.175
33932W        W 7000  16.693  32.358   1.920
33933W        W 7001   3.548  23.240   4.255
33934W        W 7002  32.044  32.083   4.528
33935W        W 7003  39.612  31.651   2.387
33936W        W 7004  29.550  28.636  10.962
33937W        W 7005   3.032  17.528   3.771
33938W        W 7006  40.984  19.241   3.647
33939W        W 7007  21.559  18.242   5.012
33940W        W 7008   2.436  12.313  11.985
33941W        W 7009  44.050  10.450   3.750
33942W        W 7010   3.985  18.565  13.367
33943W        W 7011  44.708  26.465   4.305
33944W        W 7012  39.818  15.394   1.834
33945W        W 7013   5.254   9.647   2.777
33946W        W 7014  42.977   3.732   4.904
33947W        W 7015  29.042   3.036  14.143
33948W        W 7016  30.607   6.823  12.114
33949W        W 7017  14.114  10.463   1.840
33950W        W 7018  40.774  13.708   2.837
33951W        W 7019  13.387   5.666   3.645
33952W        W 7020  11.283   6.264  12.878
33953W        W 7021  41.381  16.834   1.020
33954W        W 7022  14.440  22.750  11.109
33955W        W 7023  44.029  21.254   4.722
33956W        W 7024  14.865  24.340   3.604
33957W        W 7025  22.854  21.001   4.540
33958W        W 7026   2.246  43.959  12.698
33959W        W 7027  21.799  11.723   4.502
33960W        W 7028  15.625  37.605   3.675
33961W        W 7029  14.476  39.265   4.217
33962W        W 7030  43.365   0.022  12.509
33963W        W 7031  10.178  15.671   4.121
33964W        W 7032  39.693   1.274   3.407
33965W        W 7033  37.393  23.194  12.836
33966W        W 7034   6.387   5.513   0.385
33967W        W 7035  28.027   2.895  11.419
33968W        W 7036  27.502   5.417  12.095
33969W        W 7037  36.046  16.149  14.809
33970W        W 7038   4.247  16.257  14.782
33971W        W 7039   9.740  36.919  13.346
33972W        W 7040  25.543   2.196  14.386
33973W        W 7041  44.227  20.018   2.115
33974W        W 7042   1.320  22.467  10.309
33975W        W 7043  30.517  22.001  13.882
33976W        W 7044  37.154  16.588  13.815
33977W        W 7045  13.724   7.769  14.454
33978W        W 7046  12.618  12.154  13.973
33979W        W 7047  17.783  29.040   4.068
33980W        W 7048  25.598  18.878  13.067
33981W        W 7049  27.400  20.744  12.363
33982W        W 7050  11.044  33.161  10.731
33983W        W 7051  10.740  36.563   2.254
33984W        W 7052   0.823   0.584  14.470
33985W        W 7053  31.623  31.834   4.400
33986W        W 7054  11.885  17.814   4.703
33987W        W 7055   6.585  31.429   1.772
33988W        W 7056  37.023  34.249   5.553
33989W        W 7057   0.984  23.637  10.715
33990W        W 7058  22.843   3.176  10.674
33991W        W 7059  11.688  42.357  12.087
33992W        W 7060  14.034  27.562   4.260
33993W        W 7061  25.169  32.083   3.311
33994W        W 7062  11.203   5.246   2.486
33995W        W 7063  22.124   8.158  10.526
33996W        W 7064  21.798  36.326   0.973
33997W        W 7065  38.262  23.209  14.276
33998W        W 7066  33.195  33.339  12.495
33999W        W 7067  40.234  24.337   1.717
34000W        W 7068   8.278  15.895  14.858
34001W        W 7069  10.736  40.044   1.530
34002W        W 7070  13.631  25.744  12.421
34003W        W 7071  16.840   6.491   4.690
34004W        W 7072  24.474  17.539  11.477
34005W        W 7073  42.204  12.275   0.009
34006W        W 7074  36.758  16.701   0.714
34007W        W 7075  22.695   9.169   0.043
34008W        W 7076  32.012  37.499  11.748
34009W        W 7077  28.735  34.654  11.586
34010W        W 7078  31.451  17.583  11.344
34011W        W 7079  20.558   5.075   2.768
34012W        W 7080  10.894  36.508  12.077
34013W        W 7081  42.466  43.534   2.328
34014W        W 7082  33.840  27.117   2.152
34015W        W 7083  15.398  43.510  13.598
34016W        W 7084   1.668   2.766   2.252
34017W        W 7085   2.236  22.500   0.397
34018W        W 7086  10.471   0.048  12.943
34019W        W 7087   5.575  37.459  10.739
34020W        W 7088   1.343   4.681   0.924
34021W        W 7089  27.399  20.307  13.504
34022W        W 7090  15.140  44.516  13.089
34023W        W 7091  27.095  16.931   2.693
34024W        W 7092  29.025  30.066   4.597
34025W        W 7093  26.186  33.604   1.695
34026W        W 7094  24.702  11.023  13.001
34027W        W 7095  44.333  15.492   1.349
34028W        W 7096   8.433  33.454  11.260
34029W        W 7097  43.994   1.072   1.298
34030W        W 7098  34.218   0.794  10.689
34031W        W 7099  16.993  30.951   4.734
34032W        W 7100  33.081  29.757  10.342
34033W        W 7101  38.332  30.664  12.073
34034W        W 7102  32.129  39.208  14.755
34035W        W 7103  44.895  26.047  13.061
34036W        W 7104  16.662  34.325   3.478
34037W        W 7105  11.617  41.399  13.666
34038W        W 7106  22.717  42.419  12.772
34039W        W 7107  12.545   3.170  12.075
34040W        W 7108  23.740  10.656  13.891
34041W        W 7109  40.382   6.373   0.791
34042W        W 7110  26.266   4.903   4.696
34043W        W 7111   2.812  39.879  14.739
34044W        W 7112  27.108   0.889  12.632
34045W        W 7113   2.018  14.157  11.593
34046W        W 7114  39.956  40.719   1.742
34047W        W 7115   5.140  33.632  14.905
34048W        W 7116  39.141   4.715   4.225
34049W        W 7117  35.936  39.989   4.585
34050W        W 7118  18.744   6.003  13.900
34051W        W 7119  20.945  44.964  12.071
34052W        W 7120  35.018  38.989  10.533
34053W        W 7121  41.309  34.369   0.349
34054W        W 7122  19.507  39.425   0.459
34055W        W 7123   1.891   6.470  12.236
34056W        W 7124   6.370   2.866  11.082
34057W        W 7125  36.604  17.290  12.045
34058W        W 7126   6.261   3.196   4.125
34059W        W 7127   5.861  22.258  10.959
34060W        W 7128  16.609   9.866  14.038
34061W        W 7129   3.731   8.720  13.452
34062W        W 7130   2.540  18.697  12.968
34063W        W 7131   0.418  24.374  11.942
34064W        W 7132  11.770  20.934   1.033
34065W        W 7133   1.927   8.164   3.193
34066W        W 7134  41.776  37.278  10.994
34067W        W 7135  44.783   0.374  13.408
34068W        W 7136  22.960  29.770   0.805
34069W        W 7137  42.047  31.081  10.649
34070W        W 7138  39.398   0.342   0.944
34071W        W 7139   6.778  14.368   4.940
34072W        W 7140  41.531  12.354  11.184
34073W        W 7141  12.729  19.526  14.986
34074W        W 7142  24.624  24.034   0.764
34075W        W 7143  28.027  34.628  11.274
34076W        W 7144  32.738  28.154  13.009
34077W        W 7145  43.351  23.759   1.187
34078W        W 7146  43.310  31.741   4.578
34079W        W 7147   9.376   0.721   2.277
34080W        W 7148  42.452  22.285  14.747
34081W        W 7149   4.762   3.853   0.286
34082W        W 7150  16.204  32.529  11.583
34083W        W 7151  15.477  11.006  12.565
34084W        W 7152   4.583  38.010  12.123
34085W        W 7153  44.441  31.666   3.116
34086W        W 7154  27.407  23.738  11.883
34087W        W 7155  31.588  23.166   1.833
34088W        W 7156  21.747  13.192   0.049
34089W        W 7157  16.662  10.764   2.744
34090W        W 7158  44.255  20.066   0.821
34091W        W 7159  26.729  32.029   1.421
34092W        W 7160  29.499   4.724   3.132
34093W        W 7161  22.610  24.302  12.455
34094W        W 7162  11.192  37.756   0.499
34095W        W 7163  36.926  28.720   0.978
34096W        W 7164   1.685  11.370   2.907
34097W        W 7165   8.501  28.151  12.833
34098W        W 7166  37.701  42.134   3.783
34099W        W 7167  38.985   3.915  10.478
34100W        W 7168  26.194  18.186  12.623
34101W        W 7169  32.182  34.028  13.145
34102W        W 7170  35.795   2.450   3.378
34103W        W 7171  34.459  12.704   1.769
34104W        W 7172   6.022  27.554  11.999
34105W        W 7173  11.746  25.720  12.627
34106W        W 7174   8.738   2.810  11.897
34107W        W 7175  33.705  13.034   2.158
34108W        W 7176  21.671   5.186  13.322
34109W        W 7177  24.406  40.331   0.788
34110W        W 7178   2.744  44.493   4.623
34111W        W 7179  42.969  15.862  13.963
34112W        W 7180  36.606  38.102  13.459
34113W        W 7181   4.827  16.494  14.535
34114W        W 7182  22.257  41.806  12.958
34115W        W 7183   6.004  37.150  11.557
34116W        W 7184   5.402  11.076  13.891
34117W        W 7185  16.571   2.246  11.841
34118W        W 7186   5.772  17.117   4.420
34119W        W 7187   7.883  11.098   4.203
34120W        W 7188   7.507  27.056  13.999
34121W        W 7189  37.979  23.801   4.651
34122W        W 7190  27.666  10.652   1.966
34123W        W 7191   0.722   8.414   4.862
34124W        W 7192   9.424  38.081   0.367
34125W        W 7193  34.623  21.479  14.286
34126W        W 7194  33.560  39.793  10.471
34127W        W 7195  32.633  36.580  11.645
34128W        W 7196  33.543  23.715   2.548
34129W        W 7197  24.985  31.610  13.564
34130W        W 7198  19.181  14.288   0.805
34131W        W 7199  22.515  10.451   1.648
34132W        W 7200  24.478  28.903  12.059
34133W        W 7201  35.499  22.260  14.901
34134W        W 7202  13.618   8.672   0.886
34135W        W 7203   1.986   2.840   3.876
34136W        W 7204   1.519  16.721   4.444
34137W        W 7205  20.681   1.285   5.050
34138W        W 7206  37.905   9.929  13.945
34139W        W 7207  21.816  29.912   4.576
34140W        W 7208   8.373   0.614   1.282
34141W        W 7209  43.930  22.128   1.065
34142W        W 7210  12.713  14.758  11.542
34143W        W 7211   3.853  34.628   3.719
34144W        W 7212   0.792  22.527   4.295
34145W        W 7213  33.120  33.136   0.277
34146W        W 7214  41.820  22.001  12.562
34147W        W 7215  16.724  12.214   4.766
34148W        W 7216  40.548  11.096  11.070
34149W        W 7217   9.734  16.428  12.104
34150W        W 7218   2.638  21.992   4.652
34151W        W 7219  17.300  44.372  12.595
34152W        W 7220  43.623  39.053   4.238
34153W        W 7221   6.412   6.497   0.649
34154W        W 7222  26.492  37.340   1.672
34155W        W 7223  19.937  13.381   2.412
34156W        W 7224  42.362  34.451  13.978
34157W        W 7225  10.304  21.401  11.937
34158W        W 7226   0.744  23.992  12.031
34159W        W 7227  31.081  36.957  11.610
34160W        W 7228  18.879  39.884   4.431
34161W        W 7229  17.719  44.781  12.967
34162W        W 7230  15.381  24.193   3.649
34163W        W 7231  40.447   7.843  13.488
34164W        W 7232   6.923  23.793  12.849
34165W        W 7233  28.684  33.086   2.813
34166W        W 7234  12.135   8.635   2.439
34167W        W 7235   7.532  18.266   3.271
34168W        W 7236  21.612  16.218   3.223
34169W        W 7237   0.048  12.340  13.909
34170W        W 7238   4.581  36.346  13.276
34171W        W 7239  18.925   1.854  12.881
34172W        W 7240  22.290  37.470   3.560
34173W        W 7241   8.844   5.701  11.989
34174W        W 7242  20.093  14.781   2.182
34175W        W 7243   9.443  44.062   4.965
34176W        W 7244  24.202   2.779  14.684
34177W        W 7245   7.140   8.717  12.848
34178W        W 7246   3.852   0.679  14.481
34179W        W 7247  37.618  19.329  11.102
34180W        W 7248  22.007  11.549   3.851
34181W        W 7249  20.079  13.879  11.239
34182W        W 7250  13.606  18.207  12.166
34183W        W 7251   6.233  39.801  13.282
34184W        W 7252  22.464  40.907   2.834
34185W        W 7253   1.215  37.972   0.801
34186W        W 7254   2.412  29.055   4.590
34187W        W 7255  25.091   8.588  13.287
34188W        W 7256   1.320  18.776  11.180
34189W        W 7257  43.893  31.105  10.819
34190W        W 7258  15.875  33.372  11.630
34191W        W 7259   6.772  32.456   0.459
34192W        W 7260  40.781  38.918   3.852
34193W        W 7261  37.548  14.885  12.052
34194W        W 7262  15.725  37.369  12.973
34195W        W 7263  22.522  10.225  12.012
34196W        W 7264  36.347   0.479   4.116
34197W        W 7265  13.831  35.507   4.250
34198W        W 7266  43.179  22.501   2.787
34199W        W 7267  42.915  37.088  14.350
34200W        W 7268  26.837  26.636  11.420
34201W        W 7269  41.992  38.342  12.950
34202W        W 7270  35.897   3.781  14.370
34203W        W 7271   4.036  12.745  14.627
34204W        W 7272   6.801  10.423   2.327
34205W        W 7273  11.279  26.574  11.565
34206W        W 7274   1.678  37.962   1.766
34207W        W 7275   3.237   2.306   3.883
34208W        W 7276  36.604  41.740  11.679
34209W        W 7277  43.708   5.492   0.338
34210W        W 7278   3.863  42.983   0.607
34211W        W 7279  38.590  17.238  14.709
34212W        W 7280  39.652   8.122   9.767
34213W        W 7281   9.747  28.865   1.553
34214W        W 7282  39.912  38.849   3.681
34215W        W 7283  41.862  19.231  13.115
34216W        W 7284   6.903  35.922   0.766
34217W        W 7285  27.696  28.838   0.816
34218W        W 7286  44.974  36.589  10.513
34219W        W 7287  40.730  16.597   0.360
34220W        W 7288   7.701   6.107   3.165
34221W        W 7289  22.059  42.547   4.176
34222W        W 7290  32.071  33.765   1.527
34223W        W 7291  16.961  15.724   0.233
34224W        W 7292  10.105  41.788   2.021
34225W        W 7293  20.848  23.654   4.628
34226W        W 7294  22.113  16.731   3.289
34227W        W 7295  25.080  44.502   1.455
34228W        W 7296  31.887  10.844   2.393
34229W        W 7297  44.402   3.280   2.294
34230W        W 7298  23.702  29.169  11.636
34231W        W 7299  36.449  39.246  14.326
34232W        W 7300   4.676  12.764   5.137
34233W        W 7301   9.217   3.468  14.836
34234W        W 7302  34.636  43.423   4.545
34235W        W 7303   2.595  18.548  10.404
34236W        W 7304  23.282  26.005   4.952
34237W        W 7305  42.666  14.993   0.525
34238W        W 7306  32.625  19.960  14.997
34239W        W 7307  32.979   2.665   3.072
34240W        W 7308  26.321  35.452   1.813
34241W        W 7309   9.828  16.921   4.161
34242W        W 7310  21.615  13.843  12.376
34243W        W 7311  30.177  43.602   2.484
34244W        W 7312  33.588  18.179  12.148
34245W        W 7313  25.869  36.518  10.876
34246W        W 7314  19.986   6.136   0.361
34247W        W 7315   7.825  41.509   2.376
34248W        W 7316   7.679  39.025  10.704
34249W        W 7317  14.642  38.136  14.589
34250W        W 7318  30.052  12.893  13.825
34251W        W 7319   4.770  30.740   4.646
34252W        W 7320  22.837  33.030   4.677
34253W        W 7321   6.170  44.205   2.935
34254W        W 7322  40.035  18.715   0.515
34255W        W 7323  35.105  36.917  13.556
34256W        W 7324  26.661  12.631   0.539
34257W        W 7325  39.335  44.979  13.921
34258W        W 7326   7.436  42.861   0.358
34259W        W 7327  25.960   5.282   3.678
34260W        W 7328  15.064  22.629   4.218
34261W        W 7329  21.269  13.532   2.204
34262W        W 7330  40.043  32.639  13.280
34263W        W 7331  42.438  32.672  11.842
34264W        W 7332  37.486  19.460  14.394
34265W        W 7333   9.086  23.881  13.036
34266W        W 7334  22.547  30.816  14.234
34267W        W 7335  30.702  15.721   2.933
34268W        W 7336   3.236   1.829   4.654
34269W        W 7337   6.221  31.190   3.339
34270W        W 7338  39.485  14.075  12.650
34271W        W 7339  35.998  43.952   0.902
34272W        W 7340  14.198  13.554   2.396
34273W        W 7341  18.517  23.353  11.351
34274W        W 7342  20.571  37.263  11.298
34275W        W 7343  22.209   7.806  10.888
34276W        W 7344  41.624  12.390   2.181
34277W        W 7345  26.816  31.074   0.152
34278W        W 7346   3.972   4.152   1.725
34279W        W 7347  38.587  31.558   0.900
34280W        W 7348  22.183   7.193   0.436
34281W        W 7349  37.260  39.948   1.868
34282W        W 7350  43.349  23.508   5.302
34283W        W 7351  44.314   5.981   4.967
34284W        W 7352  16.613  14.698  12.897
34285W        W 7353  33.576  33.661  13.945
34286W        W 7354  27.053   0.031   2.787
34287W        W 7355  10.280  19.767   0.880
34288W        W 7356  17.094  23.716  14.199
34289W        W 7357  29.660   8.829  10.763
34290W        W 7358  28.959   8.732  11.065
34291W        W 7359  34.995  17.861  14.944
34292W        W 7360   1.940  36.037  11.452
34293W        W 7361  14.219  15.787  13.863
34294W        W 7362  26.660  27.638  13.402
34295W        W 7363  27.288  42.945  13.830
34296W        W 7364  21.033  12.513  12.645
34297W        W 7365   6.412  14.615   3.964
34298W        W 7366  28.397  39.302   1.701
34299W        W 7367  23.831  16.331   1.466
34300W        W 7368  20.209  30.243   1.207
34301W        W 7369  16.621   2.849   0.527
34302W        W 7370  37.217  30.251   2.332
34303W        W 7371  13.302  16.544   1.692
34304W        W 7372  23.044  41.211  12.022
34305W        W 7373  26.975  40.959  13.034
34306W        W 7374  23.352  23.420  12.406
34307W        W 7375  32.536  40.023  11.513
34308W        W 7376  36.893  20.221  12.410
34309W        W 7377   2.318   7.342   0.631
34310W        W 7378  13.094  18.007   4.164
34311W        W 7379  39.787  37.367   2.256
34312W        W 7380  17.523  43.283   2.382
34313W        W 7381   2.545  13.275  12.353
34314W        W 7382   0.445   9.940   0.045
34315W        W 7383  18.871  23.232  13.877
34316W        W 7384  15.915  21.226   0.480
34317W        W 7385  29.017  22.197   1.909
34318W        W 7386  10.837  13.227  11.548
34319W        W 7387  37.771  15.803   0.421
34320W        W 7388  42.601  10.807  13.026
34321W        W 7389  17.885  33.091   3.116
34322W        W 7390  10.836  32.825   1.892
34323W        W 7391   3.169   4.123  14.652
34324W        W 7392  20.854   0.291   4.973
34325W        W 7393   7.467   6.858  10.781
34326W        W 7394  28.061  33.629  14.877
34327W        W 7395  30.418  41.521  10.746
34328W        W 7396   6.669  31.983  10.472
34329W        W 7397  41.018  19.506  12.565
34330W        W 7398  40.056   5.994  12.884
34331W        W 7399  26.634  34.732  11.471
34332W        W 7400  39.437  15.268   2.976
34333W        W 7401  38.127  34.725   0.710
34334W        W 7402  29.594  13.322   0.362
34335W        W 7403   6.392   6.424   1.896
34336W        W 7404  10.820   0.759   1.480
34337W        W 7405  33.074   9.417   2.347
34338W        W 7406  13.145  14.177   0.438
34339W        W 7407  42.081  26.025  12.502
34340W        W 7408  33.899  11.384  13.877
34341W        W 7409  12.206   8.953  13.794
34342W        W 7410   2.867   5.337   4.595
34343W        W 7411  12.742  23.314  13.831
34344W        W 7412  29.194  27.641   1.396
34345W        W 7413  43.708   2.292  11.510
34346W        W 7414  40.626  29.522  10.599
34347W        W 7415  39.631   1.666  12.575
34348W        W 7416  17.073   4.756   4.109
34349W        W 7417  27.463  34.034  13.267
34350W        W 7418  26.760   5.976   3.755
34351W        W 7419  40.959  10.575  13.583
34352W        W 7420  17.839  17.304   2.355
34353W        W 7421   7.191  30.536   0.353
34354W        W 7422  31.902  16.843   3.286
34355W        W 7423  12.154   9.795   4.259
34356W        W 7424  40.749  35.458   4.257
34357W        W 7425  31.241  18.757   4.920
34358W        W 7426  35.890  41.279  11.214
34359W        W 7427  19.562  24.069   1.167
34360W        W 7428  32.611   7.192   1.418
34361W        W 7429  10.164  19.497   3.670
34362W        W 7430  28.835  23.111  12.181
34363W        W 7431   8.335  25.148   1.946
34364W        W 7432  20.102  33.003   4.332
34365W        W 7433  15.721  39.478  12.912
34366W        W 7434  36.005  23.636  13.288
34367W        W 7435  41.681   5.228  12.503
34368W        W 7436  15.482  40.564   9.899
34369W        W 7437  30.449  41.468  13.482
34370W        W 7438  35.194  25.612  14.756
34371W        W 7439  32.173   9.359  12.524
34372W        W 7440   5.645  12.747  10.665
34373W        W 7441   3.982   7.735   1.770
34374W        W 7442  11.647  18.620   2.793
34375W        W 7443  20.184  31.947   4.847
34376W        W 7444  34.947  40.055   4.393
34377W        W 7445  24.711  26.064   4.201
34378W        W 7446  26.516   9.831   4.526
34379W        W 7447   0.849  11.495   5.360
34380W        W 7448  39.046  31.796  10.446
34381W        W 7449   2.892   8.871   0.695
34382W        W 7450  18.543  31.594   0.478
34383W        W 7451  42.292  15.634  13.627
34384W        W 7452  21.453  31.223  13.397
34385W        W 7453  21.108  39.014   4.716
34386W        W 7454   8.718  42.475   0.716
34387W        W 7455  30.036  42.093   3.806
34388W        W 7456  16.586  36.425   1.441
34389W        W 7457  22.694  18.142  12.159
34390W        W 7458   8.726  27.494   1.837
34391W        W 7459  39.347  19.469   1.955
34392W        W 7460  23.569  23.836  12.868
34393W        W 7461   0.442  33.649   2.322
34394W        W 7462  21.204  29.416   0.871
34395W        W 7463  25.530  16.578   1.392
34396W        W 7464  25.469  13.810   0.382
34397W        W 7465   8.660   6.795  11.520
34398W        W 7466   9.823  11.900   0.712
34399W        W 7467  12.537   8.886   4.135
34400W        W 7468  16.324  20.666   4.533
34401W        W 7469  16.689  25.399  14.765
34402W        W 7470   5.453  27.103   0.003
34403W        W 7471  20.838  10.347  13.400
34404W        W 7472  14.568  18.650   0.765
34405W        W 7473  17.257  16.563   2.302
34406W        W 7474  33.875  14.782   2.202
34407W        W 7475  14.064  21.807   0.888
34408W        W 7476  30.019  44.027  10.649
34409W        W 7477  28.911   8.693   3.590
34410W        W 7478  22.712   5.960  14.270
34411W        W 7479   4.852  37.055  14.455
34412W        W 7480   9.682  16.151  13.628
34413W        W 7481  35.954  44.398   0.525
34414W        W 7482  44.239  17.700   0.733
34415W        W 7483   4.784  29.869  11.994
34416W        W 7484  22.284  15.330   2.608
34417W        W 7485  28.198   2.177  14.774
34418W        W 7486  38.466  38.788   2.749
34419W        W 7487   8.705  11.162  12.999
34420W        W 7488  38.275  30.666   3.266
34421W        W 7489  12.702  27.749   0.964
34422W        W 7490   5.856   1.243  12.884
34423W        W 7491  30.040  36.539   3.705
34424W        W 7492  22.966  23.996   2.433
34425W        W 7493   5.048  37.282   1.213
34426W        W 7494  27.705  20.641   0.905
34427W        W 7495  17.673  21.176  10.964
34428W        W 7496  13.596  38.084   2.647
34429W        W 7497  42.358  43.898  14.829
34430W        W 7498  18.806  40.844  10.537
34431W        W 7499  34.091   9.061   1.547
34432W        W 7500  14.819  35.038  11.050
34433W        W 7501  33.123  33.320   4.195
34434W        W 7502  43.095   3.758  12.981
34435W        W 7503  44.538   1.159   0.792
34436W        W 7504  40.045  32.824   2.639
34437W        W 7505  30.116  29.098  10.454
34438W        W 7506   0.618   1.366   4.979
34439W        W 7507  41.935  18.510  12.033
34440W        W 7508   8.672   5.104   1.847
34441W        W 7509  21.361  36.431  12.940
34442W        W 7510   9.427   5.406   3.840
34443W        W 7511  37.459   3.845   3.048
34444W        W 7512   9.135  14.594   1.721
34445W        W 7513  44.865  38.679   1.436
34446W        W 7514  24.663   1.580  11.129
34447W        W 7515  36.797   1.870   1.877
34448W        W 7516  16.812  36.151  13.842
34449W        W 7517  22.633   2.187   1.213
34450W        W 7518   6.793  17.858  14.333
34451W        W 7519  21.969  24.124   2.362
34452W        W 7520  33.548  41.058   3.793
34453W        W 7521   4.035   1.483  14.725
34454W        W 7522  29.187  31.138   1.958
34455W        W 7523   2.979  25.605  10.612
34456W        W 7524   3.447  14.297   1.713
34457W        W 7525  22.239   8.869   1.258
34458W        W 7526  40.427  18.822  14.026
34459W        W 7527   9.925  11.933   3.304
34460W        W 7528   7.722  36.570  14.417
34461W        W 7529  34.914  27.070   3.686
34462W        W 7530  34.190   8.437  12.209
34463W        W 7531  43.939  27.051  12.381
34464W        W 7532  29.789  12.786   3.426
34465W        W 7533   8.537  42.114   2.819
34466W        W 7534  44.249  35.270  12.799
34467W        W 7535  26.191  14.629   3.564
34468W        W 7536   9.095   4.842   3.243
34469W        W 7537  16.436  19.029   1.610
34470W        W 7538  19.473  40.896  11.154
34471W        W 7539   4.226  38.793   1.405
34472W        W 7540  32.478  32.626   2.233
34473W        W 7541  30.030  13.222  13.317
34474W        W 7542  16.587  16.053  11.566
34475W        W 7543  21.989  18.772  13.425
34476W        W 7544  39.498  22.289  11.500
34477W        W 7545  15.232  24.003  13.934
34478W        W 7546   1.519   0.525  14.917
34479W        W 7547  33.619  43.953   1.255
34480W        W 7548  24.226  15.098   1.121
34481W        W 7549   6.208  43.948  12.078
34482W        W 7550  16.552  17.770   4.210
34483W        W 7551   2.326  42.502   1.320
34484W        W 7552  20.528  17.700  13.966
34485W        W 7553  22.569  22.018  12.382
34486W        W 7554   7.237  36.914   3.725
34487W        W 7555   2.731   7.793  13.249
34488W        W 7556  15.622  12.355  12.399
34489W        W 7557   4.422  35.538   1.195
34490W        W 7558  20.936  19.243  14.010
34491W        W 7559  11.952  21.055   2.759
34492W        W 7560  27.953  23.127  14.721
34493W        W 7561  12.876  13.992   0.016
34494W        W 7562  17.682  35.622  12.640
34495W        W 7563  35.861   5.447  14.932
34496W        W 7564  33.086   1.635  11.086
34497W        W 7565  25.174  32.507  14.685
34498W        W 7566   7.290  24.144  14.499
34499W        W 7567  39.322  29.902   4.612
34500W        W 7568  14.993  38.641   3.244
34501W        W 7569  25.522   4.357  11.985
34502W        W 7570  27.863   0.007   3.231
34503W        W 7571   1.893  27.021   1.330
34504W        W 7572   1.419  13.202   1.837
34505W        W 7573  33.139  35.979  13.362
34506W        W 7574  32.532  37.045   3.309
34507W        W 7575  29.749  16.730   1.348
34508W        W 7576  22.256  22.676   1.119
34509W        W 7577  41.106  16.608  11.555
34510W        W 7578  42.812   5.221  14.864
34511W        W 7579  35.916  11.199   2.662
34512W        W 7580  40.418  33.173  13.943
34513W        W 7581   6.184  43.869  11.535
34514W        W 7582  15.139  21.249   4.643
34515W        W 7583   7.694  36.601  13.342
34516W        W 7584  12.493  31.508  14.738
34517W        W 7585  10.299  17.078  14.359
34518W        W 7586  32.320  41.898  12.608
34519W        W 7587   7.728  21.718   3.154
34520W        W 7588  32.883  24.090   4.957
34521W        W 7589  35.033   7.685  10.801
34522W        W 7590  24.645  29.210   0.038
34523W        W 7591  21.651   9.794   4.072
34524W        W 7592  11.594  31.057   5.057
34525W        W 7593  23.234  14.364   0.458
34526W        W 7594   5.880  28.557  12.667
34527W        W 7595  38.587  41.510  12.873
34528W        W 7596  21.639  28.569   1.724
34529W        W 7597  10.609   5.925  14.677
34530W        W 7598  32.698  44.904  11.386
34531W        W 7599  44.127  41.319  11.149
34532W        W 7600   8.487  41.773   1.264
34533W        W 7601  23.496  43.797   2.789
34534W        W 7602   1.284  32.350   4.418
34535W        W 7603  26.175  31.650  10.891
34536W        W 7604  36.589   2.784   2.700
34537W        W 7605   7.083  44.521  14.970
34538W        W 7606  30.244   2.891   0.456
34539W        W 7607  34.307  24.516   2.271
34540W        W 7608   9.638  10.376   1.123
34541W        W 7609  11.553   9.709  12.505
34542W        W 7610  16.746   5.635   1.174
34543W        W 7611  25.918  28.027   4.339
34544W        W 7612  27.243   6.196   2.686
34545W        W 7613  30.943  36.870  13.971
34546W        W 7614  26.098  22.991  13.415
34547W        W 7615  25.252  29.151   0.876
34548W        W 7616   9.254  32.223  12.496
34549W        W 7617  11.701   8.119   0.296
34550W        W 7618  33.330  37.453  13.492
34551W        W 7619  37.475   8.205   4.608
34552W        W 7620  22.599  11.688   2.763
34553W        W 7621   9.925   5.055   2.730
34554W        W 7622  31.660   2.989  12.088
34555W        W 7623  42.600  19.644  12.224
34556W        W 7624  30.618  15.285  14.961
34557W        W 7625  41.923  18.725   4.922
34558W        W 7626  37.676  35.933  11.851
34559W        W 7627  41.705  28.305  13.947
34560W        W 7628  36.471  19.046   1.982
34561W        W 7629  16.144  17.996   0.466
34562W        W 7630  29.929  42.767  14.339
34563W        W 7631   5.164   9.105   2.821
34564W        W 7632  36.839  15.161   4.264
34565W        W 7633  33.101   3.273   1.775
34566W        W 7634  12.020  14.521   2.800
34567W        W 7635  21.258  13.315  11.583
34568W        W 7636  15.828  40.329   2.490
34569W        W 7637  30.680   4.254  14.596
34570W        W 7638   5.818  13.897   1.642
34571W        W 7639  18.115  21.084  10.695
34572W        W 7640  31.948   0.947  14.560
34573W        W 7641  30.169  39.414  10.761
34574W        W 7642  43.514   1.263   2.195
34575W        W 7643  35.351  36.433  14.455
34576W        W 7644  32.094  32.436   4.870
34577W        W 7645   5.471  24.060   4.351
34578W        W 7646   0.576  33.703  13.684
34579W        W 7647  15.271   6.454   0.708
34580W        W 7648  43.728   8.217  10.648
34581W        W 7649   2.673   1.897  14.992
34582W        W 7650   2.229  19.657   2.690
34583W        W 7651   0.290  17.166   3.664
34584W        W 7652  33.997   2.447  12.501
34585W        W 7653   7.968   4.359   0.310
34586W        W 7654  15.502  10.513   3.441
34587W        W 7655  27.712   4.039  12.405
34588W        W 7656  15.255  23.985   2.230
34589W        W 7657  43.963  42.466   0.771
34590W        W 7658  22.536   4.979  14.283
34591W        W 7659  10.217  23.148  11.919
34592W        W 7660  28.894   1.794   2.090
34593W        W 7661  21.586  38.613  13.756
34594W        W 7662  25.052   9.818   0.307
34595W        W 7663  38.518   2.430   0.206
34596W        W 7664  25.046  10.290  10.770
34597W        W 7665  38.303   4.737   0.936
34598W        W 7666  30.424  16.155  13.453
34599W        W 7667  24.436  15.125  12.575
34600W        W 7668   0.570   7.724   0.329
34601W        W 7669   9.350  28.105  11.696
34602W        W 7670  12.710  15.959  13.478
34603W        W 7671   4.225  11.955   3.123
34604W        W 7672  36.393  29.128   2.348
34605W        W 7673  40.956   2.669  13.871
34606W        W 7674   5.732  31.059  11.468
34607W        W 7675  35.151  27.676   1.343
34608W        W 7676   4.490   7.755   1.827
34609W        W 7677  32.021  43.251   0.504
34610W        W 7678  44.503  22.980  14.262
34611W        W 7679  36.601  12.421   0.291
34612W        W 7680  20.635   7.182   0.832
34613W        W 7681  17.824  10.928   0.087
34614W        W 7682  39.071   3.957  12.321
34615W        W 7683  36.076  23.710  12.767
34616W        W 7684  20.051  31.206   1.220
34617W        W 7685  10.218  33.580   3.127
34618W        W 7686  22.103  29.535   3.758
34619W        W 7687  16.502  22.432   2.399
34620W        W 7688  36.053  20.023  13.820
34621W        W 7689  31.461  35.932  14.553
34622W        W 7690  10.267   6.157   4.460
34623W        W 7691  26.727  21.458  11.130
34624W        W 7692  36.506  41.549   2.655
34625W        W 7693   6.671   4.483  13.419
34626W        W 7694   2.319  38.973  12.746
34627W        W 7695   7.942  16.562  14.925
34628W        W 7696   0.199  37.483   2.157
34629W        W 7697   6.226  44.266   0.085
34630W        W 7698   5.803   4.730  11.553
34631W        W 7699  26.533  33.154  13.966
34632W        W 7700  10.680  29.977   3.599
34633W        W 7701   4.677   7.890   3.254
34634W        W 7702   7.275  20.703  13.410
34635W        W 7703  25.169  38.332   4.180
34636W        W 7704  12.683  36.874   4.476
34637W        W 7705  39.060  41.775  11.675
34638W        W 7706  32.907  32.041   4.768
34639W        W 7707  26.881  28.121  10.522
34640W        W 7708  38.805  34.888  11.552
34641W        W 7709  34.930  10.834  12.768
34642W        W 7710   8.420  18.713  14.749
34643W        W 7711  26.965  10.225   2.792
34644W        W 7712  44.962  14.411   5.056
34645W        W 7713  28.066  20.289   0.899
34646W        W 7714  22.084  41.083  14.959
34647W        W 7715  38.820  12.842   0.906
34648W        W 7716  39.926  13.486  13.932
34649W        W 7717  43.235  22.470   9.897
34650W        W 7718   7.876  15.059  13.459
34651W        W 7719  32.697   0.397  11.181
34652W        W 7720  10.769  30.475   3.475
34653W        W 7721  26.926  43.190  13.463
34654W        W 7722  42.642  27.547   3.764
34655W        W 7723  20.647  12.065   0.003
34656W        W 7724   9.304  19.511   1.122
34657W        W 7725  21.981  13.451   0.444
34658W        W 7726  16.957  14.173  11.236
34659W        W 7727  43.451  14.484  12.537
34660W        W 7728   7.522   6.886  14.758
34661W        W 7729  16.783  44.903   4.114
34662W        W 7730  37.778  10.693  12.411
34663W        W 7731  25.960  34.280  12.122
34664W        W 7732  40.791  26.998   4.811
34665W        W 7733  43.798  10.203  12.650
34666W        W 7734  21.298   8.424  13.295
34667W        W 7735  15.713  27.388  13.820
34668W        W 7736  35.028   5.861  10.640
34669W        W 7737  14.815  19.486   3.054
34670W        W 7738  26.608  35.626  11.388
34671W        W 7739  41.443   7.533   0.837
34672W        W 7740  14.174  35.984  14.486
34673W        W 7741   0.986  18.483   0.904
34674W        W 7742   1.342  42.783   3.560
34675W        W 7743   9.044  33.266   4.230
34676W        W 7744  21.316  33.949   3.629
34677W        W 7745  20.799   4.856   2.362
34678W        W 7746  18.161  14.222   0.804
34679W        W 7747  38.107   2.330  11.172
34680W        W 7748  29.583   4.804   2.006
34681W        W 7749  26.377   2.908   2.812
34682W        W 7750   3.269  11.869  11.392
34683W        W 7751  30.640  28.722   2.605
34684W        W 7752  23.374  21.115   4.669
34685W        W 7753  44.598   4.047  13.123
34686W        W 7754  38.970  11.264  11.048
34687W        W 7755  27.692  32.398   2.139
34688W        W 7756  34.640   6.703   4.411
34689W        W 7757  33.614  22.102  12.963
34690W        W 7758  10.901  37.582  11.594
34691W        W 7759  31.821  23.170   3.760
34692W        W 7760  26.016   9.614   4.521
34693W        W 7761  11.795  39.848   4.996
34694W        W 7762  15.827  44.234  13.590
34695W        W 7763  23.017  12.717  12.974
34696W        W 7764  24.011  44.968  13.919
34697W        W 7765  18.716  10.766  14.926
34698W        W 7766  17.140  10.637  13.743
34699W        W 7767  36.645  18.373  12.499
34700W        W 7768  42.380  34.049   0.900
34701W        W 7769  22.058   5.479   0.834
34702W        W 7770  43.269  36.995  10.710
34703W        W 7771   8.358  26.182   1.818
34704W        W 7772  17.313  20.921  11.650
34705W        W 7773  28.313  11.116   2.732
34706W        W 7774   3.262  33.569  14.395
34707W        W 7775   2.587  11.615   1.710
34708W        W 7776  15.873  13.774   2.887
34709W        W 7777   2.643  21.392   5.133
34710W        W 7778   1.821  15.821   1.159
34711W        W 7779  16.654  12.987   1.825
34712W        W 7780  15.373  29.043   4.074
34713W        W 7781  43.231  18.124   1.420
34714W        W 7782  20.492   7.092   2.162
34715W        W 7783  42.555  37.087  14.940
34716W        W 7784   5.092  34.513   2.131
34717W        W 7785  40.925  34.095  12.706
34718W        W 7786   8.878  40.526   3.249
34719W        W 7787  28.094  20.474   3.225
34720W        W 7788  32.150  44.944  14.475
34721W        W 7789  28.322  28.852  14.181
34722W        W 7790   1.657  40.485   3.176
34723W        W 7791  37.961   5.108   4.119
34724W        W 7792  24.994   3.946  14.087
34725W        W 7793  37.052   6.479   0.745
34726W        W 7794   4.273  37.604   4.848
34727W        W 7795  26.148  10.404  10.076
34728W        W 7796  28.550   9.540   1.394
34729W        W 7797  25.129  27.650   2.466
34730W        W 7798  35.533  21.385   2.995
34731W        W 7799  26.222   1.271   2.169
34732W        W 7800  12.142  32.621   1.876
34733W        W 7801  15.295  43.416   0.283
34734W        W 7802   3.290  32.318   2.877
34735W        W 7803   5.889  28.427  14.931
34736W        W 7804  34.296  13.709   1.148
34737W        W 7805  42.474  40.323   3.067
34738W        W 7806  18.146   0.195   2.350
34739W        W 7807  15.107  13.181   2.483
34740W        W 7808  33.878  17.775  14.327
34741W        W 7809  23.370  16.865   2.564
34742W        W 7810  35.483  44.107   3.729
34743W        W 7811  37.834  14.263  14.321
34744W        W 7812  21.091  26.494  11.143
34745W        W 7813  38.872  12.605   1.353
34746W        W 7814  37.333  44.459   3.618
34747W        W 7815  20.955  44.331  14.248
34748W        W 7816  15.615   1.974   3.282
34749W        W 7817  31.621  42.826  12.147
34750W        W 7818  44.621   6.326   2.778
34751W        W 7819   4.182  14.874   1.464
34752W        W 7820   3.128   9.183   2.552
34753W        W 7821   7.486  28.855  11.968
34754W        W 7822  25.088   5.093  10.683
34755W        W 7823  11.753  12.780   4.753
34756W        W 7824  39.877  16.121   4.041
34757W        W 7825   3.941  25.464  11.417
34758W        W 7826  35.653   0.716   0.517
34759W        W 7827  39.451   5.736  14.777
34760W        W 7828  26.188  44.649  11.848
34761W        W 7829  33.937  21.646   1.667
34762W        W 7830  10.174  42.308   3.163
34763W        W 7831  24.956  28.740   0.801
34764W        W 7832  43.849  29.892   0.441
34765W        W 7833   7.513   4.748   4.853
34766W        W 7834  30.655  18.998   0.390
34767W        W 7835  43.724  42.468   0.267
34768W        W 7836   7.827   3.427  13.158
34769W        W 7837  19.755  39.812  10.635
34770W        W 7838   9.792  39.360   2.726
34771W        W 7839  27.585  20.093  12.090
34772W        W 7840  28.186  41.728   3.151
34773W        W 7841  19.296  40.612   0.957
34774W        W 7842  22.936  31.158  11.102
34775W        W 7843   5.691  25.567   4.101
34776W        W 7844   1.095  29.639  12.492
34777W        W 7845   8.713  23.724  11.571
34778W        W 7846  24.231  25.278   1.365
34779W        W 7847  41.954  16.279  14.351
34780W        W 7848  32.853  18.157  12.352
34781W        W 7849  35.445  25.766   4.784
34782W        W 7850  14.047  20.570  14.413
34783W        W 7851  37.905  43.143   1.921
34784W        W 7852  19.962  29.515   1.628
34785W        W 7853   8.477  27.733   3.376
34786W        W 7854  41.417  21.610   0.768
34787W        W 7855   4.515  23.678  14.047
34788W        W 7856  35.937  22.020  14.772
34789W        W 7857   8.248  24.294  12.078
34790W        W 7858  37.210  35.010   4.195
34791W        W 7859  15.647  15.542  11.645
34792W        W 7860   6.475  18.441   3.224
34793W        W 7861  24.961  12.629  14.317
34794W        W 7862  32.533   6.209  12.049
34795W        W 7863   5.438  41.226   2.380
34796W        W 7864  10.633   1.743  13.395
34797W        W 7865  30.778  43.097   9.926
34798W        W 7866  15.273  27.195   1.929
34799W        W 7867  38.516  43.536  13.915
34800W        W 7868  44.029  34.385  14.861
34801W        W 7869  12.353  25.045   2.160
34802W        W 7870  25.502   1.272   0.455
34803W        W 7871  36.382   2.217   1.395
34804W        W 7872  29.574  12.829   2.607
34805W        W 7873  14.115   9.831   3.230
34806W        W 7874  36.818  11.283   2.592
34807W        W 7875  36.975  22.342  13.986
34808W        W 7876  25.932  20.257  10.879
34809W        W 7877  38.087   7.741  10.371
34810W        W 7878  39.050  14.617   4.315
34811W        W 7879  41.804  31.696  13.449
34812W        W 7880  12.326  38.583   0.773
34813W        W 7881  31.239  14.732   3.311
34814W        W 7882  16.750  15.312  10.445
34815W        W 7883  11.193  37.516  11.134
34816W        W 7884   3.653  37.395  13.026
34817W        W 7885  35.343   3.949  13.466
34818W        W 7886  42.375   2.405  12.060
34819W        W 7887   2.842   4.365  10.622
34820W        W 7888  26.015  22.067  11.957
34821W        W 7889  36.905  27.730   0.904
34822W        W 7890  22.594  42.887  12.558
34823W        W 7891  29.231  25.688   3.674
34824W        W 7892   8.770  44.860   4.302
34825W        W 7893   4.871   8.654  10.746
34826W        W 7894  13.111  37.392   0.707
34827W        W 7895   9.249   7.063   1.719
34828W        W 7896  33.004  24.543   2.786
34829W        W 7897  32.357  14.598  13.502
34830W        W 7898  44.560  31.036   2.204
34831W        W 7899  30.173  29.573   2.265
34832W        W 7900  27.207  18.242   3.899
34833W        W 7901  14.808  23.416   2.438
34834W        W 7902  38.345  24.253  14.611
34835W        W 7903  34.149  31.609  12.027
34836W        W 7904  30.274   7.352  11.671
34837W        W 7905  35.834   5.802   1.791
34838W        W 7906   6.815   4.167   4.471
34839W        W 7907  24.595  11.845   1.735
34840W        W 7908  14.161  38.099  14.768
34841W        W 7909  10.494  36.233   3.793
34842W        W 7910   4.762  31.687   1.565
34843W        W 7911   1.770  17.363   1.892
34844W        W 7912  12.762   9.153   3.753
34845W        W 7913  21.451   7.909  11.483
34846W        W 7914   2.476  19.443  13.476
34847W        W 7915   8.455   4.442   3.847
34848W        W 7916  23.679  12.267   2.778
34849W        W 7917   2.991  44.346  11.160
34850W        W 7918  19.792  27.443   0.109
34851W        W 7919  40.958  12.917  10.706
34852W        W 7920   0.235  39.079   1.403
34853W        W 7921  25.975  28.656  14.952
34854W        W 7922  12.194   7.280   4.588
34855W        W 7923  35.488   7.750  11.086
34856W        W 7924  43.746  30.141   0.924
34857W        W 7925  38.852   6.447  11.704
34858W        W 7926  34.403   7.634   3.273
34859W        W 7927   5.860  22.296   0.040
34860W        W 7928  28.175  38.530   0.278
34861W        W 7929  39.967   0.433   0.427
34862W        W 7930   3.466  17.345   4.998
34863W        W 7931  24.003  19.867  11.411
34864W        W 7932  23.159  34.382  12.898
34865W        W 7933  36.523   0.738   4.884
34866W        W 7934   9.876  33.189   4.199
34867W        W 7935  40.050  32.869  11.960
34868W        W 7936  31.014  44.428   3.617
34869W        W 7937   0.540  21.676  11.556
34870W        W 7938  22.707  25.691  14.838
34871W        W 7939  25.492  44.293  14.393
34872W        W 7940  39.844  15.487  13.445
34873W        W 7941  19.672  33.691  11.987
34874W        W 7942  29.554  36.143  14.603
34875W        W 7943  37.423  34.659  14.398
34876W        W 7944   8.537  19.713   4.828
34877W        W 7945  13.653  23.940  12.960
34878W        W 7946  21.580  35.071  14.969
34879W        W 7947   7.305   6.733  11.755
34880W        W 7948  14.793  38.331   3.614
34881W        W 7949   3.829  33.606  14.080
34882W        W 7950  42.542  30.099   0.329
34883W        W 7951  36.399  37.514  11.323
34884W        W 7952  43.646  37.358   2.908
34885W        W 7953  35.276  25.743   2.462
34886W        W 7954   3.620  19.491  11.964
34887W        W 7955  21.305  21.280  13.039
34888W        W 7956  41.797  13.298   2.237
34889W        W 7957  22.838  30.470  14.659
34890W        W 7958   7.045  41.352   5.530
34891W        W 7959  13.657  30.992  11.147
34892W        W 7960  21.338  22.188  13.577
34893W        W 7961  19.050  44.759   4.386
34894W        W 7962   7.789  33.992  14.378
34895W        W 7963  38.349  42.504  11.565
34896W        W 7964  31.077   6.802  14.234
34897W        W 7965  40.095   8.050  12.816
34898W        W 7966   3.306  29.179  12.084
34899W        W 7967  16.027  19.958  11.484
34900W        W 7968  41.015  16.714   2.447
34901W        W 7969  41.373  12.646  12.187
34902W        W 7970   7.781  15.089   3.014
34903W        W 7971  21.685  27.512   1.412
34904W        W 7972  42.201   9.414  13.444
34905W        W 7973  44.585  40.535  14.020
34906W        W 7974  42.239  44.544   2.137
34907W        W 7975  33.822  10.661  13.462
34908W        W 7976  26.977  13.549   4.067
34909W        W 7977   5.544  44.867  13.821
34910W        W 7978  34.577  13.567  11.533
34911W        W 7979  44.182  10.903  13.354
34912W        W 7980  10.260  25.604   4.663
34913W        W 7981  20.026   3.301   4.683
34914W        W 7982  37.848  42.416   0.887
34915W        W 7983  30.856  19.494   0.280
34916W        W 7984   3.449   0.334  12.668
34917W        W 7985  24.721  10.245  13.311
34918W        W 7986  35.485   5.218  13.798
34919W        W 7987   3.208   7.920  11.457
34920W        W 7988  25.149  37.795   4.193
34921W        W 7989  39.970  37.603  11.128
34922W        W 7990  38.310  13.914  10.691
34923W        W 7991  39.396   0.899  10.214
34924W        W 7992  18.546  27.358  12.776
34925W        W 7993  22.692  27.506  13.214
34926W        W 7994  24.201  20.565  11.980
34927W        W 7995  31.949  37.556  13.876
34928W        W 7996   0.943  32.427   1.242
34929W        W 7997  39.781  22.327   1.893
34930W        W 7998  31.026   5.212  12.955
34931W        W 7999  34.426  12.899   4.230
34932W        W 8000  39.386   8.442   0.756
34933W        W 8001  15.780  30.413  10.186
34934W        W 8002   6.666  16.158  13.618
34935W        W 8003   3.488  25.223   3.232
34936W        W 8004  32.570  14.820  13.097
34937W        W 8005   4.408   5.742   0.393
34938W        W 8006  22.934  41.771  10.745
34939W        W 8007  15.293  32.318   4.623
34940W        W 8008  12.725  18.997  14.981
34941W        W 8009  20.020  43.163  10.764
34942W        W 8010   9.143   5.700  12.575
34943W        W 8011  10.407  40.521   3.314
34944W        W 8012  19.175  33.813  12.107
34945W        W 8013  11.604  15.512   2.601
34946W        W 8014  22.649  35.413   4.226
34947W        W 8015  43.768  30.532  11.604
34948W        W 8016  17.339  23.266   3.173
34949W        W 8017  24.713  12.358  12.580
34950W        W 8018  27.925  26.403  14.497
34951W        W 8019   5.212  23.493   1.100
34952W        W 8020  17.498  13.178  14.580
34953W        W 8021  30.856   5.888   1.951
34954W        W 8022  24.625  29.706  12.542
34955W        W 8023  29.112  29.706   2.243
34956W        W 8024  40.873  44.216  12.380
34957W        W 8025  15.061  16.503   2.318
34958W        W 8026   8.953  19.942   1.808
34959W        W 8027  42.965  10.326   0.760
34960W        W 8028  28.620   6.151  10.753
34961W        W 8029   9.342  25.408   1.261
34962W        W 8030  27.677  19.035   0.704
34963W        W 8031  35.996  36.271   2.786
34964W        W 8032  42.260  11.722  12.411
34965W        W 8033  14.640  28.573   0.981
34966W        W 8034   7.792  33.576   0.074
34967W        W 8035   2.273  39.724   2.665
34968W        W 8036  35.329  33.349  11.574
34969W        W 8037  23.926   3.995   1.339
34970W        W 8038  28.836  11.944   5.682
34971W        W 8039  19.157  18.107  10.603
34972W        W 8040  29.668  13.763   2.639
34973W        W 8041  25.467  13.156   2.251
34974W        W 8042  11.762   7.288   5.331
34975W        W 8043  37.402  12.516  10.832
34976W        W 8044  28.168  39.772  12.975
34977W        W 8045   3.497  36.819  11.103
34978W        W 8046   1.424  44.966   3.059
34979W        W 8047  24.320  17.828  10.236
34980W        W 8048  44.013   8.344   4.511
34981W        W 8049  34.102  39.310   2.786
34982W        W 8050   5.915  37.278  12.504
34983W        W 8051  36.123  20.535  13.848
34984W        W 8052  14.766  12.682   2.351
34985W        W 8053   3.019   9.358   4.553
34986W        W 8054  20.826  13.356  14.832
34987W        W 8055  31.498  22.647  12.789
34988W        W 8056  20.769  32.557   2.130
34989W        W 8057  13.313  34.000  14.867
34990W        W 8058   0.726   8.966   5.115
34991W        W 8059  34.410  18.735  13.118
34992W        W 8060  16.106  20.108  10.668
34993W        W 8061  28.413  31.994  13.380
34994W        W 8062   7.241  33.289  11.603
34995W        W 8063   5.356  15.241  14.687
34996W        W 8064  41.411   5.510  10.582
34997W        W 8065  10.725  43.872   1.690
34998W        W 8066  41.529  13.298   2.679
34999W        W 8067  25.548  24.413   1.873
35000W        W 8068  33.804   2.405  11.143
35001W        W 8069  22.616  12.347  13.587
35002W        W 8070  36.495  26.997  11.584
35003W        W 8071  35.325  13.385  12.089
35004W        W 8072  33.072   7.164   3.879
35005W        W 8073  16.784  34.124   4.498
35006W        W 8074   9.123   7.731  14.378
35007W        W 8075  11.708  15.880   1.770
35008W        W 8076  23.028  23.736  11.478
35009W        W 8077   6.901  33.333   0.998
35010W        W 8078  36.337  14.765   2.116
35011W        W 8079  10.657  14.700   0.790
35012W        W 8080  27.533  24.218  11.547
35013W        W 8081  38.775  15.386   0.694
35014W        W 8082  42.044  21.574  10.746
35015W        W 8083  37.979  40.270  14.262
35016W        W 8084  40.240  30.868   4.806
35017W        W 8085  15.889   1.538  11.390
35018W        W 8086  26.111  30.242  13.491
35019W        W 8087  25.642  42.898  12.561
35020W        W 8088  27.460  36.513  13.940
35021W        W 8089  26.787   7.782  14.762
35022W        W 8090  21.022  23.024  14.802
35023W        W 8091  43.988  22.099   2.875
35024W        W 8092  33.850  10.190   5.217
35025W        W 8093   8.657  11.321  14.318
35026W        W 8094   7.290  13.667  14.294
35027W        W 8095  20.800  36.211   0.922
35028W        W 8096  25.249  39.898  13.577
35029W        W 8097  34.024   4.405   0.646
35030W        W 8098  16.868  11.324  13.051
35031W        W 8099  14.782  32.995  10.665
35032W        W 8100   2.467  41.308   0.195
35033W        W 8101  19.461  11.453  14.788
35034W        W 8102  19.967  25.640  13.855
35035W        W 8103   0.553  27.196  11.569
35036W        W 8104  29.023  29.107   0.285
35037W        W 8105  35.430  16.420  13.527
35038W        W 8106  43.212   2.428   4.402
35039W        W 8107  33.011  11.247   1.345
35040W        W 8108  35.972  14.620   3.964
35041W        W 8109   9.084   4.705   4.139
35042W        W 8110  38.679  43.609  12.270
35043W        W 8111   6.872  35.574  13.933
35044W        W 8112  34.652   8.213   4.536
35045W        W 8113   8.432  29.482  11.783
35046W        W 8114  25.775  36.884   4.413
35047W        W 8115   3.941  18.688  11.522
35048W        W 8116  21.164  16.712  14.836
35049W        W 8117  12.287   9.210  11.058
35050W        W 8118  44.081  30.529  11.119
35051W        W 8119  36.371  20.476  11.321
35052W        W 8120  33.659   9.210  13.488
35053W        W 8121   3.411   3.773  14.943
35054W        W 8122  36.057  16.217   0.720
35055W        W 8123  38.180  33.376   2.323
35056W        W 8124  20.746  13.215   4.737
35057W        W 8125  14.197   2.798   3.839
35058W        W 8126  28.252  11.040   0.915
35059W        W 8127   9.157  28.326   4.110
35060W        W 8128   9.735   3.425  12.987
35061W        W 8129  18.681  17.591   0.287
35062W        W 8130  19.578  22.198   1.378
35063W        W 8131  42.016  29.926  11.641
35064W        W 8132  36.186  12.055  11.208
35065W        W 8133  44.743  26.654   1.515
35066W        W 8134  28.556   8.906  14.494
35067W        W 8135  10.447  40.228   1.936
35068W        W 8136   3.487  27.678  11.767
35069W        W 8137  43.475   7.347  11.956
35070W        W 8138   1.862   4.620   0.886
35071W        W 8139  40.738   0.463   2.732
35072W        W 8140  26.635  29.145   1.750
35073W        W 8141  37.922   4.168  14.467
35074W        W 8142  17.186  34.549  13.446
35075W        W 8143  41.585  31.136  11.968
35076W        W 8144  39.428  36.832  14.191
35077W        W 8145  15.237  44.361   3.591
35078W        W 8146  22.525  25.058   4.010
35079W        W 8147  20.961  20.283  14.774
35080W        W 8148  44.509  41.862  14.320
35081W        W 8149  18.793  11.249  10.524
35082W        W 8150  33.691   2.190  12.151
35083W        W 8151  39.774  40.953  13.963
35084W        W 8152   2.928  36.058   1.702
35085W        W 8153   2.941   4.788  14.862
35086W        W 8154  17.517  34.914   2.766
35087W        W 8155  11.048  42.537  10.423
35088W        W 8156  17.530  28.060   4.900
35089W        W 8157  16.778  17.706   0.126
35090W        W 8158  39.031  28.853  12.670
35091W        W 8159  41.358  32.610  12.093
35092W        W 8160  44.281  24.733  13.560
35093W        W 8161  39.268   0.543   4.485
35094W        W 8162   2.134   7.795   0.499
35095W        W 8163  26.483  37.259   2.190
35096W        W 8164  44.173  11.231   3.222
35097W        W 8165  15.341  30.486  11.701
35098W        W 8166   8.815   4.133   2.798
35099W        W 8167  25.971  26.732   1.779
35100W        W 8168  18.697  23.580   4.708
35101W        W 8169  11.705  26.596  14.812
35102W        W 8170  17.324   0.719  14.924
35103W        W 8171   5.266  16.952   2.341
35104W        W 8172  17.509  35.461   2.230
35105W        W 8173  29.818  23.705  14.061
35106W        W 8174  42.050   7.231   2.411
35107W        W 8175   4.842  31.486  10.539
35108W        W 8176   1.688  40.320  12.448
35109W        W 8177   3.199  30.022  10.857
35110W        W 8178  21.236  33.714  14.888
35111W        W 8179  35.576   2.660  11.644
35112W        W 8180  18.651  43.281   2.206
35113W        W 8181  41.460  13.817  11.403
35114W        W 8182  30.986   4.896  11.010
35115W        W 8183  26.109  39.597  13.942
35116W        W 8184   8.420  19.173  12.454
35117W        W 8185   2.881  36.970   3.884
35118W        W 8186  36.570  40.462   4.071
35119W        W 8187  14.499  37.258  11.643
35120W        W 8188   6.294  44.449   2.415
35121W        W 8189   2.902   0.034   1.775
35122W        W 8190   7.371  43.941  13.403
35123W        W 8191  43.474  19.794   4.629
35124W        W 8192  42.492  32.914  14.339
35125W        W 8193  39.391  34.008   2.663
35126W        W 8194   4.856  31.931   4.150
35127W        W 8195  16.762   4.915   2.638
35128W        W 8196  44.758  43.362  12.648
35129W        W 8197  14.522   3.150   2.754
35130W        W 8198  19.725  27.409   2.804
35131W        W 8199  29.425  38.996  11.546
35132W        W 8200  40.563  28.427  14.325
35133W        W 8201   3.423  42.518  10.217
35134W        W 8202  24.471  35.595   4.322
35135W        W 8203  20.553   7.768   4.120
35136W        W 8204   8.380  13.281   1.905
35137W        W 8205   6.730  30.434  12.088
35138W        W 8206  25.192   2.478   4.546
35139W        W 8207  38.786   6.338   1.301
35140W        W 8208  34.118  30.098  14.739
35141W        W 8209  43.402  13.756  11.021
35142W        W 8210  22.760  39.192   2.160
35143W        W 8211  44.213  30.421   1.780
35144W        W 8212  32.653  18.789  11.977
35145W        W 8213  29.074   2.396   2.917
35146W        W 8214  33.898  16.147  10.640
35147W        W 8215   2.140  42.411   3.354
35148W        W 8216  14.935  18.295   0.526
35149W        W 8217  42.324  17.487   2.971
35150W        W 8218  42.206   5.586  10.669
35151W        W 8219   2.520  24.467   3.660
35152W        W 8220  41.942  25.535   0.565
35153W        W 8221  13.146   6.345   2.922
35154W        W 8222  36.219  26.507  13.015
35155W        W 8223  40.975  37.186   4.816
35156W        W 8224  26.441  11.164   4.164
35157W        W 8225  10.333   2.787  14.136
35158W        W 8226  28.029  33.077  14.795
35159W        W 8227  29.202   8.599  14.767
35160W        W 8228  43.350  29.804   1.790
35161W        W 8229   9.347   6.663   4.934
35162W        W 8230  17.136   2.701  10.658
35163W        W 8231   8.283  34.508   3.067
35164W        W 8232  20.992  42.463  13.612
35165W        W 8233   0.472  16.314  14.340
35166W        W 8234   8.597   8.317   3.963
35167W        W 8235  15.028  44.369  13.824
35168W        W 8236  27.621  19.088   2.909
35169W        W 8237  14.068  23.667   2.564
35170W        W 8238   4.338  33.366  10.790
35171W        W 8239   9.450  12.169   3.181
35172W        W 8240  17.480  37.924  10.653
35173W        W 8241  10.146  17.745   0.469
35174W        W 8242  28.734  31.329  11.713
35175W        W 8243  15.217  32.984  12.342
35176W        W 8244  11.546  35.615   3.234
35177W        W 8245  43.528   3.152  10.774
35178W        W 8246  41.324  19.473  12.983
35179W        W 8247  10.769  23.925  10.245
35180W        W 8248  39.811   9.631   4.705
35181W        W 8249  23.491  27.349  10.786
35182W        W 8250  11.625   1.466  14.949
35183W        W 8251  39.920  32.453  12.566
35184W        W 8252  11.155  11.599  14.935
35185W        W 8253  40.080  28.592   3.927
35186W        W 8254  28.639  14.819   2.882
35187W        W 8255   8.674  40.731  12.046
35188W        W 8256  38.297  28.036   4.270
35189W        W 8257   7.903  26.420   1.842
35190W        W 8258  20.800  24.977  13.458
35191W        W 8259  24.188  29.316   3.297
35192W        W 8260   2.285  27.904  14.965
35193W        W 8261  34.863   8.644   3.565
35194W        W 8262  38.323  37.071   2.237
35195W        W 8263  19.014  35.010   1.939
35196W        W 8264   5.984  15.308   2.574
35197W        W 8265  21.765  37.803  13.412
35198W        W 8266  28.425  15.559   4.689
35199W        W 8267   0.191   3.914   3.784
35200W        W 8268   6.730  41.835  13.388
35201W        W 8269  41.577  26.361  14.799
35202W        W 8270  28.446  19.271   2.921
35203W        W 8271  24.471  18.124   2.360
35204W        W 8272  37.837  37.924   3.177
35205W        W 8273   4.273   5.063   3.153
35206W        W 8274  20.510  31.527  10.747
35207W        W 8275   9.611  20.786  12.097
35208W        W 8276  21.739  25.044  11.176
35209W        W 8277  31.994  28.900   3.185
35210W        W 8278  11.797   7.911  14.811
35211W        W 8279  20.179  21.000   4.532
35212W        W 8280  22.771   3.197   3.725
35213W        W 8281  43.539  17.709   4.575
35214W        W 8282  42.563  13.479   5.025
35215W        W 8283  29.707   7.002   4.534
35216W        W 8284   0.330   7.444  11.557
35217W        W 8285  42.893  41.898  11.829
35218W        W 8286   7.020  42.247  13.499
35219W        W 8287  42.662  33.555  14.066
35220W        W 8288  11.714  14.678  12.583
35221W        W 8289  44.764  39.788  14.335
35222W        W 8290  26.534  30.949   3.115
35223W        W 8291  14.840   3.948   1.868
35224W        W 8292   9.502  27.631   0.315
35225W        W 8293  13.171  10.621  11.692
35226W        W 8294   6.682  24.076   1.380
35227W        W 8295  12.789  18.159  13.260
35228W        W 8296  39.976  23.755   2.401
35229W        W 8297  37.494  29.986   4.083
35230W        W 8298  12.738  35.974   1.423
35231W        W 8299  37.811   4.332   1.786
35232W        W 8300  19.056  24.621  10.653
35233W        W 8301  39.806   4.994  14.487
35234W        W 8302  43.515  26.727  13.867
35235W        W 8303  14.262  38.958   2.963
35236W        W 8304   3.822  40.780  14.903
35237W        W 8305   6.709  42.035   5.128
35238W        W 8306  21.027  26.458   0.393
35239W        W 8307  30.046  39.820  12.593
35240W        W 8308  41.815  32.595   2.818
35241W        W 8309  24.469  15.136   3.930
35242W        W 8310   1.309  40.571  12.765
35243W        W 8311  18.479  15.567   3.639
35244W        W 8312   4.887  10.328  12.131
35245W        W 8313  25.256  20.512   2.336
35246W        W 8314  19.774   8.387   1.504
35247W        W 8315  21.301  44.717  12.382
35248W        W 8316  39.922  13.974  10.254
35249W        W 8317  19.184   1.337   5.049
35250W        W 8318  44.751  30.122  14.412
35251W        W 8319  15.257  20.525  13.207
35252W        W 8320  39.538   1.152  12.630
35253W        W 8321  17.888  38.634  11.947
35254W        W 8322  10.328  14.265  11.714
35255W        W 8323   6.380  39.665  10.650
35256W        W 8324  26.250   4.469  11.081
35257W        W 8325  17.207  28.215   4.522
35258W        W 8326  18.200  30.507   2.400
35259W        W 8327  17.442  38.012  11.571
35260W        W 8328  18.105  36.378  14.962
35261W        W 8329  20.670  27.984  10.604
35262W        W 8330  32.782  10.972   2.837
35263W        W 8331  44.378  23.960  14.313
35264W        W 8332  22.170  14.791   3.116
35265W        W 8333   9.200  14.845  13.441
35266W        W 8334  33.553   1.743  14.516
35267W        W 8335  40.955  29.090  12.909
35268W        W 8336   4.477   5.273   2.174
35269W        W 8337  44.028  24.264  14.577
35270W        W 8338  34.974  34.547  14.316
35271W        W 8339  12.469  10.650  12.571
35272W        W 8340  36.013  39.842  12.463
35273W        W 8341  40.339   6.621  13.430
35274W        W 8342  16.616  43.565   4.584
35275W        W 8343   4.201  34.965  14.322
35276W        W 8344  21.534  33.024  12.805
35277W        W 8345   2.524  20.212   1.466
35278W        W 8346  31.968  42.972  12.539
35279W        W 8347  18.472  30.656   2.827
35280W        W 8348   1.149  17.947  12.881
35281W        W 8349  10.152   2.985  11.998
35282W        W 8350  25.662  17.300  12.945
35283W        W 8351   6.454   8.453  11.484
35284W        W 8352   8.376  22.245   1.657
35285W        W 8353  37.164  32.579   3.404
35286W        W 8354  43.924  10.174   3.302
35287W        W 8355  11.368  22.288   4.154
35288W        W 8356  25.969  27.125   2.783
35289W        W 8357  42.441  33.810   3.357
35290W        W 8358  14.438   8.874  11.636
35291W        W 8359  42.793  10.668  13.532
35292W        W 8360  37.015   1.910   0.939
35293W        W 8361  35.252   6.782  14.389
35294W        W 8362  32.858  32.666  13.110
35295W        W 8363   2.022  15.400   3.488
35296W        W 8364  19.486  43.463   4.568
35297W        W 8365  11.822  40.135  10.791
35298W        W 8366  28.877  43.721   0.782
35299W        W 8367  34.328  22.298   4.089
35300W        W 8368  24.692   5.873  12.720
35301W        W 8369  17.739  10.651  14.099
35302W        W 8370  29.542  13.729  13.055
35303W        W 8371  41.823  34.681   1.761
35304W        W 8372  24.460  41.093   3.007
35305W        W 8373   8.264   1.889  12.980
35306W        W 8374   8.140   7.398  11.729
35307W        W 8375   4.880  25.641  11.027
35308W        W 8376  25.339   7.131   1.324
35309W        W 8377  41.460  44.310  14.880
35310W        W 8378  27.152  25.232  13.894
35311W        W 8379  11.116  21.683   3.869
35312W        W 8380  44.550  33.072   2.849
35313W        W 8381   6.921   3.229   0.238
35314W        W 8382  34.774  19.540   2.838
35315W        W 8383   3.274   9.616   2.830
35316W        W 8384  43.025  30.104   2.742
35317W        W 8385  29.896  41.444  11.599
35318W        W 8386   4.360  40.578   2.400
35319W        W 8387  22.081  24.049  13.992
35320W        W 8388   2.970  44.862  11.933
35321W        W 8389  23.023  26.917   1.388
35322W        W 8390  30.170  34.617  12.108
35323W        W 8391  28.364  22.233  12.845
35324W        W 8392   9.760   6.303  14.989
35325W        W 8393  16.596  43.041   4.581
35326W        W 8394  13.269  10.263   4.406
35327W        W 8395   4.078  19.356   0.390
35328W        W 8396  14.951  25.991  13.418
35329W        W 8397   4.072  31.090   2.643
35330W        W 8398  19.983  36.308  14.919
35331W        W 8399  25.729  32.348  14.900
35332W        W 8400  21.209  20.507  14.356
35333W        W 8401   9.634  13.243  10.704
35334W        W 8402  15.105  32.558  13.559
35335W        W 8403  41.753   5.435   1.701
35336W        W 8404  27.186  37.616  13.412
35337W        W 8405   3.321  35.903  12.025
35338W        W 8406  14.877  12.857   2.815
35339W        W 8407   4.728  40.912   2.103
35340W        W 8408  33.294   8.463  13.867
35341W        W 8409  35.322  14.314  12.999
35342W        W 8410   6.683  10.042  12.063
35343W        W 8411  30.917  16.170  12.515
35344W        W 8412  15.519   8.816  13.154
35345W        W 8413  32.523  24.194   1.714
35346W        W 8414  31.044  25.483   1.650
35347W        W 8415   2.553   6.194  11.117
35348W        W 8416  15.540  25.928   0.713
35349W        W 8417  16.091   0.068   1.798
35350W        W 8418  38.394  13.614   4.193
35351W        W 8419   3.852  12.776  14.113
35352W        W 8420  37.855  18.724  12.867
35353W        W 8421  43.297   0.977  12.260
35354W        W 8422  17.560  38.430   3.256
35355W        W 8423  18.268  42.435   4.108
35356W        W 8424  22.500  30.438  12.124
35357W        W 8425   7.433  33.739   2.646
35358W        W 8426  12.974  24.531   3.676
35359W        W 8427  15.989  29.197   0.560
35360W        W 8428  28.189  19.721  13.860
35361W        W 8429   9.255  16.166   2.218
35362W        W 8430   0.850  10.048   0.401
35363W        W 8431   4.683  24.165   4.655
35364W        W 8432  12.538  38.052   0.773
35365W        W 8433  44.624  41.591   4.334
35366W        W 8434  14.188  24.766  14.602
35367W        W 8435  34.140  39.564   3.220
35368W        W 8436  20.930  29.166   1.840
35369W        W 8437  18.067  41.392   4.046
35370W        W 8438  22.627  37.270  10.884
35371W        W 8439  27.638  31.804  13.819
35372W        W 8440  29.610   6.358   5.019
35373W        W 8441  33.906   7.833  12.449
35374W        W 8442   1.752  36.546  13.533
35375W        W 8443   0.283  33.106   3.182
35376W        W 8444  27.107  26.574   4.520
35377W        W 8445  36.813  13.046   2.708
35378W        W 8446  41.524  38.770  14.491
35379W        W 8447  41.752  39.165  12.694
35380W        W 8448  24.928   9.362   4.110
35381W        W 8449   0.073  28.697   3.682
35382W        W 8450  19.551   1.554   3.878
35383W        W 8451  24.261  25.360   0.864
35384W        W 8452  30.393  39.362  11.677
35385W        W 8453   0.186  34.988   4.267
35386W        W 8454   5.825  27.037  13.158
35387W        W 8455   1.821   1.504   2.707
35388W        W 8456  13.722  16.123   0.612
35389W        W 8457  23.571   9.000  12.393
35390W        W 8458  20.415   6.166   3.680
35391W        W 8459   1.335  38.319  13.002
35392W        W 8460  23.667  28.059   0.015
35393W        W 8461   3.442   3.309  11.082
35394W        W 8462   1.712  32.031   1.275
35395W        W 8463  28.873   3.448  11.599
35396W        W 8464  36.066   3.446   3.264
35397W        W 8465  22.579  23.672   0.087
35398W        W 8466  24.193   1.981   1.393
35399W        W 8467  27.484  35.501  10.813
35400W        W 8468  37.434  24.338   0.926
35401W        W 8469  24.507  42.420  13.902
35402W        W 8470   0.508  16.723   2.649
35403W        W 8471  27.209  26.172  11.116
35404W        W 8472   9.402   2.718  11.228
35405W        W 8473   6.734  36.520  12.034
35406W        W 8474  35.186  35.997   3.749
35407W        W 8475   6.421  33.448   4.513
35408W        W 8476  35.057   6.985  11.432
35409W        W 8477  11.056   4.976   1.794
35410W        W 8478   6.901  20.560  11.178
35411W        W 8479  10.727   6.727   3.713
35412W        W 8480  27.853  42.528   3.721
35413W        W 8481   1.430   3.878  14.412
35414W        W 8482  23.548  26.255  13.630
35415W        W 8483  17.591  39.890  12.072
35416W        W 8484   7.601  21.928   0.251
35417W        W 8485  29.521  43.854  12.004
35418W        W 8486  29.070   1.684  14.839
35419W        W 8487  31.989  20.110   0.776
35420W        W 8488  44.711  35.464  12.907
35421W        W 8489  33.577  10.241   0.324
35422W        W 8490  41.910  17.595   0.828
35423W        W 8491  24.065  11.010   0.320
35424W        W 8492  26.574   0.932  11.583
35425W        W 8493  40.070   5.850  11.158
35426W        W 8494  30.461   7.463   5.018
35427W        W 8495  14.442  26.609   1.432
35428W        W 8496  36.904  32.741  12.266
35429W        W 8497   4.348  34.562  10.319
35430W        W 8498  38.872  28.295   5.060
35431W        W 8499  28.577  25.218  10.773
35432W        W 8500  27.648  21.127  12.098
35433W        W 8501  28.975  29.592  11.638
35434W        W 8502   1.936  11.782   4.127
35435W        W 8503   0.284   5.441  12.389
35436W        W 8504  39.300  35.462   1.420
35437W        W 8505  11.103   8.871  13.073
35438W        W 8506  27.269   1.963   0.167
35439W        W 8507  40.690   0.447  11.641
35440W        W 8508  15.484   6.582   1.630
35441W        W 8509   7.395  12.189   4.134
35442W        W 8510  13.945   1.234  11.914
35443W        W 8511  16.120  23.599  12.930
35444W        W 8512   6.009  13.650  14.791
35445W        W 8513  19.855  15.872   2.807
35446W        W 8514   9.938  44.852   3.582
35447W        W 8515   6.189  15.821  12.470
35448W        W 8516   9.477  12.165   2.373
35449W        W 8517  40.401   2.838   1.624
35450W        W 8518  33.693  33.101   0.847
35451W        W 8519   2.415   2.446   0.497
35452W        W 8520  40.818  38.851  13.920
35453W        W 8521   7.160  29.062   1.371
35454W        W 8522  11.870   4.291  13.327
35455W        W 8523  36.789  28.099   3.232
35456W        W 8524  31.947  20.009  11.611
35457W        W 8525   6.325   2.970  14.908
35458W        W 8526   7.872  36.383   4.374
35459W        W 8527   5.819   3.103   3.388
35460W        W 8528  26.531  18.276   0.329
35461W        W 8529   1.892  31.918  11.491
35462W        W 8530   8.353  40.867   2.731
35463W        W 8531   1.143  12.066   0.303
35464W        W 8532  32.637  12.518   5.137
35465W        W 8533   0.287  39.428   3.392
35466W        W 8534  17.407  26.449   0.628
35467W        W 8535  10.898  41.244   5.036
35468W        W 8536   2.363  35.660   2.285
35469W        W 8537  27.499  16.010  12.981
35470W        W 8538  15.575  38.466   4.089
35471W        W 8539  28.076  25.305  10.890
35472W        W 8540  16.748  19.750   0.810
35473W        W 8541  17.385  39.531  14.014
35474W        W 8542  32.166  14.120  12.086
35475W        W 8543   9.990  42.268   9.833
35476W        W 8544  22.443  17.615   4.975
35477W        W 8545   1.765  40.901   2.312
35478W        W 8546   6.353  20.253  14.552
35479W        W 8547  16.127  40.032  13.397
35480W        W 8548  38.985   9.684  12.786
35481W        W 8549   4.449  44.487   1.194
35482W        W 8550  42.391  21.488   4.386
35483W        W 8551  14.863  34.437   3.645
35484W        W 8552  40.448  33.075   2.812
35485W        W 8553   7.860  34.837  13.026
35486W        W 8554  39.476  34.576   3.896
35487W        W 8555  35.819  23.313  11.651
35488W        W 8556  26.957  13.086   0.443
35489W        W 8557  10.228  37.269   4.170
35490W        W 8558  44.752   6.972   2.652
35491W        W 8559   1.220  18.998   2.227
35492W        W 8560   6.284  41.446   4.592
35493W        W 8561  11.391  38.397  14.924
35494W        W 8562   4.862  43.535   3.071
35495W        W 8563  42.003  35.024   4.513
35496W        W 8564  12.824  25.158  11.984
35497W        W 8565  42.220  11.282  13.166
35498W        W 8566   5.178  35.600  12.950
35499W        W 8567  32.047  37.879  13.480
35500W        W 8568  11.265  26.641  12.983
35501W        W 8569  38.454  30.336   1.277
35502W        W 8570   8.842   7.979   4.286
35503W        W 8571   3.313  40.328  13.674
35504W        W 8572  28.217  38.236   1.851
35505W        W 8573   4.402  10.591  14.833
35506W        W 8574  28.673   6.869  14.429
35507W        W 8575  19.240  16.278  10.762
35508W        W 8576  24.635   1.786  13.955
35509W        W 8577  19.711  32.828  13.861
35510W        W 8578  16.184  25.026   0.807
35511W        W 8579  15.638  19.489  14.432
35512W        W 8580  15.570  31.741  13.406
35513W        W 8581   7.191  43.329   0.475
35514W        W 8582  39.354  16.595  13.458
35515W        W 8583  19.558  12.784   3.232
35516W        W 8584  23.514  43.340  14.319
35517W        W 8585  21.279  44.841   3.210
35518W        W 8586  35.548   5.334   4.568
35519W        W 8587  12.632   0.515   3.787
35520W        W 8588  19.783  13.005  12.485
35521W        W 8589  35.296  35.213  12.039
35522W        W 8590   8.390  36.345   4.268
35523W        W 8591  33.118  27.300  11.627
35524W        W 8592  22.664  21.045   0.898
35525W        W 8593  34.936  44.910  14.816
35526W        W 8594  24.768   1.003   5.026
35527W        W 8595  27.851  41.359   3.978
35528W        W 8596   1.226  23.365  12.454
35529W        W 8597  34.919  16.197   3.643
35530W        W 8598  18.668  28.716   2.265
35531W        W 8599   1.967  19.596   1.166
35532W        W 8600  12.581  12.288  10.583
35533W        W 8601   9.160  35.451  10.998
35534W        W 8602  38.385  12.754   1.253
35535W        W 8603   6.204  25.615   1.935
35536W        W 8604  29.404   8.128  14.614
35537W        W 8605  16.126   8.756   9.963
35538W        W 8606  42.375  25.946   2.322
35539W        W 8607  27.925   6.805  14.976
35540W        W 8608  28.460   1.830   3.248
35541W        W 8609   5.783  38.732  10.672
35542W        W 8610  36.514   5.890   2.908
35543W        W 8611  26.717  19.998  11.637
35544W        W 8612  34.614  31.666   2.636
35545W        W 8613  10.948  17.640  11.672
35546W        W 8614  17.023   3.040   1.750
35547W        W 8615   8.910   7.249   0.875
35548W        W 8616  13.302  15.934   0.848
35549W        W 8617   2.433  22.742  12.504
35550W        W 8618   6.867  16.229  10.885
35551W        W 8619  16.065   2.889  13.516
35552W        W 8620  31.142  35.012   3.928
35553W        W 8621   2.720   7.627  14.143
35554W        W 8622   1.106   3.853  11.192
35555W        W 8623  35.069  33.820  11.611
35556W        W 8624   4.217  43.534   1.681
35557W        W 8625  29.863  12.761  12.548
35558W        W 8626  34.184  36.926   2.770
35559W        W 8627  13.064  39.378  10.128
35560W        W 8628  31.602  37.106  13.456
35561W        W 8629  35.997  43.020  14.002
35562W        W 8630  33.980  20.475  11.597
35563W        W 8631  32.168  11.793  12.929
35564W        W 8632  19.578  10.519  14.401
35565W        W 8633  27.088   2.449   0.218
35566W        W 8634  34.059  44.090  13.391
35567W        W 8635   9.058  38.554   1.729
35568W        W 8636  17.906  35.398  13.082
35569W        W 8637   5.194  16.742   3.747
35570W        W 8638  34.924  34.018   1.457
35571W        W 8639  40.246   8.608   2.254
35572W        W 8640  15.832   5.286  13.058
35573W        W 8641  37.362  41.385  12.789
35574W        W 8642  42.045  23.084  13.779
35575W        W 8643   2.838  31.864  11.706
35576W        W 8644  17.793  12.664   0.995
35577W        W 8645  26.273  40.285  11.898
35578W        W 8646   2.371  18.215   1.463
35579W        W 8647   3.200   1.972   1.216
35580W        W 8648  27.599   8.368   0.910
35581W        W 8649  38.546  32.695   4.225
35582W        W 8650  29.211  14.268  11.528
35583W        W 8651  32.915  42.299  14.863
35584W        W 8652  35.115  41.932   2.703
35585W        W 8653   3.268  18.761  13.536
35586W        W 8654  24.494  40.505  11.553
35587W        W 8655  36.097  10.142   0.973
35588W        W 8656   4.377  34.468   3.087
35589W        W 8657  35.493  17.846  13.768
35590W        W 8658  41.756  11.413  10.773
35591W        W 8659   0.918  42.057  11.201
35592W        W 8660   1.865  16.827   3.256
35593W        W 8661  29.938   6.755   4.940
35594W        W 8662  36.338  13.079  14.852
35595W        W 8663  30.072  13.410   3.806
35596W        W 8664  27.707   4.409   3.696
35597W        W 8665   4.758  12.059   2.365
35598W        W 8666   9.093   8.310   1.289
35599W        W 8667   8.162  26.097   0.454
35600W        W 8668  14.721  32.031  11.145
35601W        W 8669  20.104   2.920   4.192
35602W        W 8670   5.579  19.809   0.947
35603W        W 8671  43.452  26.864  11.552
35604W        W 8672  33.443  41.759  13.431
35605W        W 8673  40.594  11.141   4.673
35606W        W 8674  13.903  28.026  10.763
35607W        W 8675  35.549  19.724   4.096
35608W        W 8676  16.199  42.513   1.409
35609W        W 8677   2.169  41.075   3.770
35610W        W 8678  30.511  29.470  11.680
35611W        W 8679   4.638  35.132  12.013
35612W        W 8680  18.229  29.637  12.585
35613W        W 8681  37.945  27.096   2.656
35614W        W 8682  10.068  22.609  10.316
35615W        W 8683  38.343   7.936   1.415
35616W        W 8684  24.965  28.007   4.605
35617W        W 8685  11.729  23.769  12.889
35618W        W 8686  24.750  16.879   4.297
35619W        W 8687   6.235  17.809   4.190
35620W        W 8688  20.178  20.159  13.731
35621W        W 8689  12.149  33.146   1.817
35622W        W 8690   4.910  29.298   9.885
35623W        W 8691  20.526  27.459   0.006
35624W        W 8692  29.976  34.863  13.449
35625W        W 8693  13.125  17.514  13.459
35626W        W 8694  27.065   1.738  13.271
35627W        W 8695  20.870   1.469   4.107
35628W        W 8696  27.695  29.629  12.903
35629W        W 8697  30.665   8.854  10.788
35630W        W 8698  18.648  32.621  14.178
35631W        W 8699  42.807  25.673  13.005
35632W        W 8700   8.777  33.644   1.250
35633W        W 8701  27.404  22.771   0.844
35634W        W 8702  32.048  21.791  12.323
35635W        W 8703   2.290  13.100   3.205
35636W        W 8704  41.521   1.905   1.757
35637W        W 8705  27.940  22.464  13.073
35638W        W 8706  37.351   9.598  11.957
35639W        W 8707  26.517  42.117  11.842
35640W        W 8708  12.906  35.332  11.433
35641W        W 8709  41.801   1.994  10.731
35642W        W 8710   0.402  12.320   3.762
35643W        W 8711  41.501  38.175  11.119
35644W        W 8712  35.154  35.384  14.466
35645W        W 8713   0.928  32.140  13.008
35646W        W 8714  21.000   5.287   2.939
35647W        W 8715   2.310  13.774   1.183
35648W        W 8716  11.250  15.789  10.394
35649W        W 8717  29.048   5.833  10.714
35650W        W 8718   0.784   1.199  10.623
35651W        W 8719  39.979  31.407  12.540
35652W        W 8720   4.184  40.958  11.563
35653W        W 8721   0.649  33.185  12.903
35654W        W 8722  38.877  16.072   3.161
35655W        W 8723  16.198  18.951  10.673
35656W        W 8724   4.749  14.815   3.246
35657W        W 8725  36.356  41.365   3.575
35658W        W 8726   2.782  35.180  12.050
35659W        W 8727   6.720  12.859   3.671
35660W        W 8728  26.677  17.272  13.879
35661W        W 8729  37.463  42.307   4.218
35662W        W 8730  20.996  41.421   1.949
35663W        W 8731  38.685  41.478   1.237
35664W        W 8732  37.431  37.592   0.185
35665W        W 8733   5.829  18.827   0.581
35666W        W 8734  43.826  36.101  14.447
35667W        W 8735  29.918  11.071  13.574
35668W        W 8736  20.415  26.201  14.356
35669W        W 8737  15.350  22.102  13.931
35670W        W 8738   1.872  31.886  13.263
35671W        W 8739   8.275  37.859  14.844
35672W        W 8740   6.177  25.401   4.249
35673W        W 8741  27.035  22.604  11.562
35674W        W 8742  11.051  44.397  10.982
35675W        W 8743  42.428  26.413  13.586
35676W        W 8744  11.640  40.353   4.059
35677W        W 8745  21.092  32.444  12.967
35678W        W 8746  14.228  25.267  14.754
35679W        W 8747   8.628   3.413   4.450
35680W        W 8748   6.912  41.014   3.015
35681W        W 8749  43.460  33.952   2.602
35682W        W 8750  20.972  35.936  14.931
35683W        W 8751  23.267  11.865  12.448
35684W        W 8752  12.354  41.580   1.937
35685W        W 8753  14.640  29.620  13.781
35686W        W 8754   4.957  25.172   0.833
35687W        W 8755  41.026  11.223   2.629
35688W        W 8756  34.012  12.728  12.460
35689W        W 8757  39.894   2.367  10.489
35690W        W 8758  31.400   1.895  14.640
35691W        W 8759  34.490  12.574  13.545
35692W        W 8760  23.642  19.302   2.371
35693W        W 8761  11.553  36.525   1.766
35694W        W 8762  43.193  44.386   3.328
35695W        W 8763   4.382  22.003  13.433
35696W        W 8764  28.858   8.330  12.773
35697W        W 8765  16.598  17.020   2.852
35698W        W 8766  30.906  29.066  14.268
35699W        W 8767  25.008   0.455  13.521
35700W        W 8768  29.493  21.300  14.449
35701W        W 8769  22.265  36.343  11.320
35702W        W 8770   2.118  38.909  13.252
35703W        W 8771  26.000  22.457  11.198
35704W        W 8772  43.482  23.115  10.719
35705W        W 8773  12.509  32.574   3.187
35706W        W 8774  15.096  26.402   0.289
35707W        W 8775  25.756  15.146   2.869
35708W        W 8776  26.145  22.319   0.852
35709W        W 8777  38.534   6.972  11.655
35710W        W 8778  37.892  10.975   1.462
35711W        W 8779  31.381  30.143  11.971
35712W        W 8780  33.923   9.745   0.454
35713W        W 8781   9.615  27.517  11.143
35714W        W 8782  21.253   1.617  13.510
35715W        W 8783  10.548  32.348  13.869
35716W        W 8784  14.219  42.153  14.968
35717W        W 8785  30.092  32.832  13.539
35718W        W 8786  29.485  26.685   1.190
35719W        W 8787  32.653  36.097   3.321
35720W        W 8788  33.406  30.718   1.356
35721W        W 8789  11.833  24.123   3.119
35722W        W 8790   5.460  22.176  10.621
35723W        W 8791  22.325  24.519   2.327
35724W        W 8792  42.700  29.071   4.283
35725W        W 8793   9.885  11.336  12.274
35726W        W 8794  34.495  30.494   1.007
35727W        W 8795   5.629  43.362   2.694
35728W        W 8796  23.091  43.158   0.049
35729W        W 8797  33.819  40.367  14.913
35730W        W 8798  41.808   2.723   1.861
35731W        W 8799  37.471   1.853  13.943
35732W        W 8800  40.171  44.523   3.616
35733W        W 8801   8.206   4.697   4.277
35734W        W 8802  36.517  30.688   3.661
35735W        W 8803  40.159  44.587   4.889
35736W        W 8804  17.092  20.487  13.055
35737W        W 8805  36.840  44.333   4.608
35738W        W 8806  23.269  25.975  13.148
35739W        W 8807  43.904  10.292  14.979
35740W        W 8808  24.472  24.415   0.026
35741W        W 8809  16.570  18.291   3.130
35742W        W 8810  33.646   0.177   0.934
35743W        W 8811  34.643  42.419   0.369
35744W        W 8812  25.269  26.574  10.654
35745W        W 8813  30.671  29.073   4.650
35746W        W 8814  29.035  11.321  13.990
35747W        W 8815  31.165  38.310  11.152
35748W        W 8816  32.698  19.318  12.960
35749W        W 8817  25.635  43.046   3.381
35750W        W 8818   8.279   1.026  10.474
35751W        W 8819  38.584  15.652  12.086
35752W        W 8820  15.311  20.658   1.281
35753W        W 8821  31.117  42.852  12.310
35754W        W 8822   4.921   7.794  13.639
35755W        W 8823  21.987  44.931  11.023
35756W        W 8824  19.237   6.711  10.651
35757W        W 8825   8.384  22.678   1.930
35758W        W 8826  31.951  10.642   2.872
35759W        W 8827  28.823  27.571  12.989
35760W        W 8828  15.287  33.342   3.212
35761W        W 8829  28.402  15.667  12.947
35762W        W 8830  16.561  16.669  13.015
35763W        W 8831  44.761  42.744  14.773
35764W        W 8832  16.713  21.032   2.867
35765W        W 8833  42.494  26.127  12.087
35766W        W 8834  16.735  31.425  11.174
35767W        W 8835   8.336   3.827   4.394
35768W        W 8836   7.859  31.849  10.396
35769W        W 8837  29.166  38.963  12.013
35770W        W 8838  41.348  39.932   0.063
35771W        W 8839   2.487  16.385   4.247
35772W        W 8840   6.214   1.866   5.121
35773W        W 8841   4.212   7.900  11.594
35774W        W 8842   9.549  18.972   4.625
35775W        W 8843  34.934  17.469  12.135
35776W        W 8844  14.851  28.538  14.938
35777W        W 8845  18.068  42.216   1.831
35778W        W 8846  36.901  25.594  13.442
35779W        W 8847  12.656  36.002  12.113
35780W        W 8848  15.683  31.357   2.761
35781W        W 8849  41.489   3.130  14.025
35782W        W 8850  38.385  19.257  11.485
35783W        W 8851  24.493  12.201   3.254
35784W        W 8852  23.962  26.635  11.086
35785W        W 8853  20.585  38.757  11.400
35786W        W 8854  20.578  18.196  14.291
35787W        W 8855  26.987  26.189  13.501
35788W        W 8856  37.286  27.385   0.188
35789W        W 8857  40.110  18.388   0.926
35790W        W 8858  33.653  29.235  14.787
35791W        W 8859  28.292   0.592  14.993
35792W        W 8860   1.926  43.745  11.570
35793W        W 8861  27.423   0.547   0.296
35794W        W 8862  43.213  29.965   2.265
35795W        W 8863  43.691  17.788   3.687
35796W        W 8864   5.780  21.530   2.842
35797W        W 8865  39.965  18.751  12.026
35798W        W 8866  16.586  34.042  12.331
35799W        W 8867   3.164  16.478  10.696
35800W        W 8868  33.295   0.428  12.890
35801W        W 8869  35.981   8.171   2.271
35802W        W 8870   9.236   2.005  13.480
35803W        W 8871  16.980  27.156   3.685
35804W        W 8872  36.276   1.321   0.815
35805W        W 8873  35.255  17.261  10.643
35806W        W 8874  14.050  23.698  11.687
35807W        W 8875  21.909  41.150  13.512
35808W        W 8876   0.309  27.519   4.798
35809W        W 8877  14.072  44.879  11.880
35810W        W 8878  43.113  41.463   4.111
35811W        W 8879  17.285  30.320  11.459
35812W        W 8880   3.942  41.880   4.176
35813W        W 8881  40.791  14.310   3.235
35814W        W 8882  18.748  20.473  11.415
35815W        W 8883  15.815  23.794   4.508
35816W        W 8884  39.257  22.549  14.822
35817W        W 8885  14.359  23.698  13.521
35818W        W 8886  34.839  24.806  11.296
35819W        W 8887  43.851  38.666  11.156
35820W        W 8888  29.712  11.285  14.626
35821W        W 8889  20.589  37.420   1.073
35822W        W 8890  21.679  32.553   4.587
35823W        W 8891  43.142  36.423  12.514
35824W        W 8892   5.937  14.607   3.755
35825W        W 8893   7.324  31.129   1.137
35826W        W 8894  17.352  36.989  10.253
35827W        W 8895  39.808  25.094   4.296
35828W        W 8896  20.424   1.161  10.402
35829W        W 8897  16.642  10.591  12.922
35830W        W 8898  36.419   4.302  12.569
35831W        W 8899  22.704  29.670   5.029
35832W        W 8900  13.625  39.809   2.441
35833W        W 8901  15.178  37.096  12.560
35834W        W 8902   5.956  28.460  12.151
35835W        W 8903  10.612  23.697  11.508
35836W        W 8904   5.918  27.950   1.958
35837W        W 8905  12.694   0.163  13.344
35838W        W 8906   0.423  21.318  11.136
35839W        W 8907  20.605  22.339  12.135
35840W        W 8908  14.373  11.786  11.605
35841W        W 8909   0.406  42.195   3.858
35842W        W 8910  26.506  26.149   0.193
35843W        W 8911  36.231   1.214   3.628
35844W        W 8912  39.830  10.078  14.055
35845W        W 8913   1.364  18.002   1.338
35846W        W 8914  15.541   5.921   1.384
35847W        W 8915  42.154  33.422  13.993
35848W        W 8916   8.821  28.322   3.270
35849W        W 8917  35.884  20.921   1.473
35850W        W 8918   0.019  33.702   3.345
35851W        W 8919  17.805  29.555  10.319
35852W        W 8920   2.503  20.181   2.889
35853W        W 8921  39.840  30.062   1.939
35854W        W 8922  22.992  38.371  12.068
35855W        W 8923  18.032   0.933   1.623
35856W        W 8924  23.543  20.183  12.730
35857W        W 8925  42.400  22.058  12.955
35858W        W 8926   2.942  22.428   3.235
35859W        W 8927  33.148  19.755   3.743
35860W        W 8928  31.871  21.942  11.017
35861W        W 8929  40.646  22.518   1.194
35862W        W 8930  12.869  40.223   1.402
35863W        W 8931  37.468  43.061  12.431
35864W        W 8932   5.844  16.588   4.525
35865W        W 8933  37.513   4.740   1.895
35866W        W 8934  34.142   6.457   1.887
35867W        W 8935  39.841  20.465   0.348
35868W        W 8936  38.474  28.267   4.702
35869W        W 8937  31.993  10.207   3.595
35870W        W 8938  35.414  27.197  12.146
35871W        W 8939  28.973   9.154  14.782
35872W        W 8940  19.996  36.018  13.814
35873W        W 8941  33.154   9.574  11.178
35874W        W 8942  10.811  36.061  12.315
35875W        W 8943   9.889  17.297   2.911
35876W        W 8944  15.920  33.926  10.595
35877W        W 8945  11.851  36.740   4.178
35878W        W 8946  29.176  16.501  12.016
35879W        W 8947  32.523  28.583  10.339
35880W        W 8948  31.889  12.822  12.379
35881W        W 8949  44.288   2.107  10.796
35882W        W 8950  16.778  31.364  12.057
35883W        W 8951  38.012  31.737   1.673
35884W        W 8952  42.997  42.874  10.658
35885W        W 8953  19.673  23.582  12.048
35886W        W 8954  24.523   9.135  13.261
35887W        W 8955  35.927  43.113   3.161
35888W        W 8956  32.019  36.454   1.794
35889W        W 8957  10.437  23.238   0.223
35890W        W 8958  11.203  22.295   4.658
35891W        W 8959   4.311  21.230   1.422
35892W        W 8960  16.270   1.340  13.882
35893W        W 8961  33.028  34.529  14.978
35894W        W 8962  35.473  17.244  12.906
35895W        W 8963  15.713  29.404  14.244
35896W        W 8964  12.327   6.379  12.587
35897W        W 8965  39.791  16.304   2.169
35898W        W 8966  31.376  26.723  10.869
35899W        W 8967  41.153  35.079  13.986
35900W        W 8968  15.878  31.573  13.759
35901W        W 8969  23.104  39.966  10.660
35902W        W 8970   9.436  11.656   2.311
35903W        W 8971  40.054  42.866   4.221
35904W        W 8972  20.261  24.030  12.928
35905W        W 8973  13.899   8.757  12.659
35906W        W 8974  41.099  39.609  13.810
35907W        W 8975   3.228  21.192   0.847
35908W        W 8976  12.689  41.192   2.166
35909W        W 8977   4.710  36.624  12.850
35910W        W 8978  24.213  14.837   4.317
35911W        W 8979  34.853  27.693   4.293
35912W        W 8980  17.806  31.623  13.373
35913W        W 8981  29.136  40.365  11.696
35914W        W 8982   9.290  43.131   3.827
35915W        W 8983   1.003  27.125  12.668
35916W        W 8984  29.507  42.526   3.031
35917W        W 8985   9.368  40.809   2.763
35918W        W 8986  43.324   2.376   3.902
35919W        W 8987  34.057  22.664  11.970
35920W        W 8988   5.711  39.777   3.642
35921W        W 8989   5.824  43.490   3.986
35922W        W 8990  14.298  32.609   2.897
35923W        W 8991  11.201  26.045   4.037
35924W        W 8992  34.971  29.348  11.610
35925W        W 8993   1.108  26.185  14.934
35926W        W 8994  30.053  14.295   3.246
35927W        W 8995  42.838   5.139  11.307
35928W        W 8996  17.839  36.317   2.781
35929W        W 8997   5.468  20.164  11.977
35930W        W 8998  15.346   5.233  12.881
35931W        W 8999   7.777   1.419   2.796
35932W        W 9000  36.698  31.421  10.221
35933W        W 9001  14.838  21.021  13.910
35934W        W 9002  23.677  41.517  14.556
35935W        W 9003   8.294  29.246   2.147
35936W        W 9004  29.602   0.198   2.307
35937W        W 9005  28.638  35.021   1.440
35938W        W 9006  38.288   3.730   0.322
35939W        W 9007  44.821  39.303   0.488
35940W        W 9008   3.522   5.140   1.289
35941W        W 9009  44.581  10.888  11.599
35942W        W 9010  11.518  25.236  10.242
35943W        W 9011  20.642   1.825  11.181
35944W        W 9012  42.478  31.080   2.812
35945W        W 9013   5.807  38.545  12.457
35946W        W 9014  16.866  19.072   1.330
35947W        W 9015  36.412   1.476  14.429
35948W        W 9016  25.493   9.162  14.923
35949W        W 9017  11.577  27.171   2.818
35950W        W 9018   8.162  27.690   4.233
35951W        W 9019  20.570  30.575  13.624
35952W        W 9020   0.535  25.899   0.934
35953W        W 9021  19.526  17.843   2.833
35954W        W 9022  41.379   2.898  11.401
35955W        W 9023  29.715  41.317   0.181
35956W        W 9024  20.801  43.066  10.729
35957W        W 9025   8.145  38.982  12.349
35958W        W 9026  39.396   2.473  14.698
35959W        W 9027  15.776  41.997   5.389
35960W        W 9028  18.679  22.885   0.741
35961W        W 9029  34.839  13.757  10.683
35962W        W 9030  16.713  18.566   4.539
35963W        W 9031  31.100  27.446  13.523
35964W        W 9032  10.110  16.109   0.339
35965W        W 9033  16.075   5.916  14.990
35966W        W 9034  44.950   9.892  11.529
35967W        W 9035  37.297  35.459   4.538
35968W        W 9036  26.588   0.878   1.696
35969W        W 9037   3.832   0.190   1.672
35970W        W 9038  16.503  30.995  13.279
35971W        W 9039  43.784  31.858  11.836
35972W        W 9040  35.876  35.096  10.513
35973W        W 9041  36.091   8.125  11.208
35974W        W 9042  34.407  24.961   0.822
35975W        W 9043  31.130  42.204  13.318
35976W        W 9044   3.955  10.844  14.720
35977W        W 9045  18.879  10.987   3.351
35978W        W 9046  20.697  37.474  14.857
35979W        W 9047  32.789  43.999   1.942
35980W        W 9048  19.192  44.179  13.985
35981W        W 9049  43.273  38.837  10.296
35982W        W 9050  16.272  37.223  11.107
35983W        W 9051   0.957   3.869   2.832
35984W        W 9052  36.979   8.486   2.177
35985W        W 9053  29.742  43.785  13.353
35986W        W 9054  35.129  41.998  14.367
35987W        W 9055  36.940   7.891  13.454
35988W        W 9056   9.786  17.713  10.241
35989W        W 9057   8.125  26.611  11.493
35990W        W 9058   5.885  19.974  13.820
35991W        W 9059  43.791  39.468   0.906
35992W        W 9060  34.001  38.791  12.566
35993W        W 9061  34.073  30.074   1.295
35994W        W 9062  24.241  12.263   0.278
35995W        W 9063  31.509  10.563   2.598
35996W        W 9064  34.056   6.022   1.616
35997W        W 9065  37.287   9.165  11.332
35998W        W 9066  19.500  28.226   0.418
35999W        W 9067  13.702  13.506  13.468
36000W        W 9068  37.320  12.628  13.415
36001W        W 9069   8.487  42.390  13.942
36002W        W 9070  11.414  23.724   4.523
36003W        W 9071  18.973   9.600   3.282
36004W        W 9072  17.737  26.320   4.614
36005W        W 9073  11.676   8.701   1.730
36006W        W 9074  22.734  13.615  14.943
36007W        W 9075  12.406   5.880  11.424
36008W        W 9076  26.541  22.626  10.380
36009W        W 9077   8.447  11.975   3.152
36010W        W 9078  32.534  34.039   0.896
36011W        W 9079   6.291  24.966   3.913
36012W        W 9080  18.715   4.374   2.697
36013W        W 9081  26.164  40.867   3.201
36014W        W 9082  36.493  31.086   2.139
36015W        W 9083   4.319  18.966   4.823
36016W        W 9084  22.669   2.398   0.733
36017W        W 9085  16.557  42.872   1.202
36018W        W 9086  16.702  39.076   3.445
36019W        W 9087  21.231   4.759  14.079
36020W        W 9088  31.563  28.719   2.806
36021W        W 9089  14.104   6.372   0.924
36022W        W 9090  13.328   5.461   2.666
36023W        W 9091  16.459  32.536   4.590
36024W        W 9092  44.663   1.792  11.516
36025W        W 9093  29.396  22.231   2.586
36026W        W 9094   8.570  21.826  12.461
36027W        W 9095   0.395   9.361   1.818
36028W        W 9096  31.935  15.201  13.419
36029W        W 9097  27.052  27.192  13.414
36030W        W 9098  10.674   0.058  11.945
36031W        W 9099  29.265  40.787  14.498
36032W        W 9100  16.177  17.018  10.714
36033W        W 9101  15.732   8.334   4.730
36034W        W 9102  31.027  42.668  11.125
36035W        W 9103  15.066  38.008  14.307
36036W        W 9104  13.261  37.704   2.504
36037W        W 9105  40.769  19.539  13.018
36038W        W 9106  28.401  22.862  13.510
36039W        W 9107  18.770  19.787   3.384
36040W        W 9108  19.700  12.541   0.614
36041W        W 9109  31.963  43.584  11.228
36042W        W 9110   5.327   0.856   1.135
36043W        W 9111  44.015  44.329  12.917
36044W        W 9112  18.364  23.001   0.343
36045W        W 9113   3.390   5.020  11.983
36046W        W 9114  29.184  36.415  14.321
36047W        W 9115   9.745  41.398  14.550
36048W        W 9116  14.822  24.635   1.791
36049W        W 9117  38.955   7.672  12.069
36050W        W 9118  27.982   6.704   0.965
36051W        W 9119  37.405  15.099   1.289
36052W        W 9120  43.821  16.115   3.223
36053W        W 9121  30.599  25.538   0.938
36054W        W 9122   6.184  24.059   0.446
36055W        W 9123  21.563   8.911   3.480
36056W        W 9124  14.223  35.311  10.499
36057W        W 9125  31.580  18.461   1.830
36058W        W 9126   5.890  31.371  14.402
36059W        W 9127   6.959  15.001   2.358
36060W        W 9128  16.578  35.820   3.178
36061W        W 9129  43.690   4.144   3.650
36062W        W 9130   7.683  20.706   1.214
36063W        W 9131  32.859  37.439   1.827
36064W        W 9132  38.046  18.601  12.359
36065W        W 9133  10.224   6.665   4.361
36066W        W 9134   8.918   4.498  13.514
36067W        W 9135  28.290   8.672   0.261
36068W        W 9136   0.252   3.374   3.799
36069W        W 9137  18.502   1.691   1.651
36070W        W 9138  33.890  40.108  11.229
36071W        W 9139   5.182  33.539  10.789
36072W        W 9140  28.465   7.555  10.793
36073W        W 9141  42.687  29.897   2.374
36074W        W 9142   5.786  42.510  13.878
36075W        W 9143  28.996   5.943   3.187
36076W        W 9144   0.178  10.667  12.545
36077W        W 9145  34.871  42.476   0.840
36078W        W 9146  30.052   3.230  13.155
36079W        W 9147  31.182  35.078  14.932
36080W        W 9148  20.363   1.130   4.056
36081W        W 9149   9.856  16.725   2.355
36082W        W 9150  39.496  41.827   0.782
36083W        W 9151  35.006  22.868   3.096
36084W        W 9152   8.446   6.114  14.487
36085W        W 9153   8.727  44.454  11.156
36086W        W 9154  37.429  39.787   4.113
36087W        W 9155  39.377  42.833   4.964
36088W        W 9156  13.375  29.712   3.700
36089W        W 9157   7.522  29.279   1.788
36090W        W 9158  35.160  30.423   0.201
36091W        W 9159  26.462  17.703  11.581
36092W        W 9160  10.897   3.454  12.642
36093W        W 9161  23.029  40.730   2.194
36094W        W 9162  33.179  35.448  14.535
36095W        W 9163  40.374  13.991   4.882
36096W        W 9164  20.957  31.033   2.842
36097W        W 9165  39.581  13.221  12.168
36098W        W 9166  41.383  30.977   4.512
36099W        W 9167  35.561  28.216  14.546
36100W        W 9168   3.236  17.622  13.742
36101W        W 9169  23.743  20.166   2.863
36102W        W 9170  32.792  19.493  12.493
36103W        W 9171  40.557  23.508  14.431
36104W        W 9172  18.632  35.967   3.346
36105W        W 9173   3.682  18.218   0.871
36106W        W 9174  22.295  21.587  11.119
36107W        W 9175  37.029  26.198   3.884
36108W        W 9176  32.878  34.831  11.133
36109W        W 9177  30.385  39.332   2.935
36110W        W 9178  12.416  11.786  12.162
36111W        W 9179   3.173  33.890  13.594
36112W        W 9180   7.495  34.465  12.927
36113W        W 9181  14.318  13.127   0.438
36114W        W 9182  27.239   1.470  10.757
36115W        W 9183   5.697  18.588   4.385
36116W        W 9184  27.453  40.672  11.444
36117W        W 9185  38.467  40.720  13.384
36118W        W 9186  28.757  18.530   0.952
36119W        W 9187   4.275  19.538   4.510
36120W        W 9188  43.220  13.919  11.470
36121W        W 9189   5.233  34.935   4.330
36122W        W 9190   8.188  16.096  10.328
36123W        W 9191  41.419  21.990  12.893
36124W        W 9192  28.012   0.981  12.254
36125W        W 9193  38.757  10.139   2.433
36126W        W 9194   8.449  26.168   0.017
36127W        W 9195  20.273  31.289  12.485
36128W        W 9196  17.573  11.030   3.468
36129W        W 9197  28.044  37.755  12.964
36130W        W 9198  35.644  33.397  11.130
36131W        W 9199  36.497  13.816   3.256
36132W        W 9200   2.924  36.475  10.914
36133W        W 9201  31.859  13.551   3.170
36134W        W 9202  19.678  14.950  11.533
36135W        W 9203  43.952  41.356  13.963
36136W        W 9204  41.979   0.191  12.073
36137W        W 9205   0.360  35.556   1.636
36138W        W 9206  42.725  18.074  14.228
36139W        W 9207  27.904  35.395  12.346
36140W        W 9208  38.577  30.125  14.935
36141W        W 9209   7.109   4.423  14.301
36142W        W 9210  19.211  26.691   3.089
36143W        W 9211  29.893  13.942  12.038
36144W        W 9212  39.716  19.116   0.542
36145W        W 9213  37.484  19.775  14.821
36146W        W 9214  36.524  30.630   1.866
36147W        W 9215  43.947  41.421  10.662
36148W        W 9216  18.052  19.635   0.305
36149W        W 9217  39.900   6.760  10.755
36150W        W 9218  42.511  12.662   2.316
36151W        W 9219  32.655  29.418   2.870
36152W        W 9220   3.936  11.535  12.057
36153W        W 9221   3.571  21.127   2.797
36154W        W 9222   0.825   5.156  14.388
36155W        W 9223  38.505  10.963   9.644
36156W        W 9224  19.533  27.459  11.547
36157W        W 9225  19.244   9.352   4.047
36158W        W 9226  38.202  25.583   2.851
36159W        W 9227  29.908  30.050   2.143
36160W        W 9228  43.278  42.939  14.929
36161W        W 9229  16.339  38.746  12.673
36162W        W 9230  43.958  11.873   2.764
36163W        W 9231   7.144  28.756   0.946
36164W        W 9232   6.019  18.232   3.613
36165W        W 9233  13.865   5.448  12.956
36166W        W 9234  21.696   4.949  10.600
36167W        W 9235   4.763   9.636   3.637
36168W        W 9236  27.451  23.231  11.190
36169W        W 9237  26.444  43.741  10.644
36170W        W 9238   2.371  20.660   3.216
36171W        W 9239  19.751  39.283   0.912
36172W        W 9240  25.580  39.969  12.116
36173W        W 9241  34.337  11.226   4.501
36174W        W 9242   4.303  34.480  14.474
36175W        W 9243  34.907  21.136   4.679
36176W        W 9244  36.416   6.559   1.918
36177W        W 9245  19.526  33.669  14.284
36178W        W 9246   5.452  27.596   0.247
36179W        W 9247  37.662  19.277  12.002
36180W        W 9248  33.472   3.326   4.101
36181W        W 9249  10.475  26.059   0.311
36182W        W 9250  22.124  20.641   1.412
36183W        W 9251  38.835  28.464  13.925
36184W        W 9252  19.968  30.382   4.645
36185W        W 9253   6.411  30.647  14.623
36186W        W 9254  12.190   5.194  14.434
36187W        W 9255  29.378  22.255  12.846
36188W        W 9256  31.832   7.719   0.035
36189W        W 9257  30.076  43.899  14.773
36190W        W 9258  27.447   4.510   2.136
36191W        W 9259  32.391   5.465  12.976
36192W        W 9260  39.583  36.096   4.836
36193W        W 9261  25.485  31.914  14.739
36194W        W 9262  34.037  42.717  11.618
36195W        W 9263  41.735  38.788   1.960
36196W        W 9264  12.286  25.462  11.116
36197W        W 9265  10.132  39.023  13.473
36198W        W 9266  37.439   7.252   3.594
36199W        W 9267  32.444   5.419   3.810
36200W        W 9268  16.251  19.473   1.802
36201W        W 9269  36.087  39.351  12.322
36202W        W 9270  31.854   8.372   1.309
36203W        W 9271  36.880  27.231  12.876
36204W        W 9272  13.644  38.296  13.796
36205W        W 9273  42.967  42.362  12.470
36206W        W 9274  37.266  33.036  14.750
36207W        W 9275  35.106  22.104   4.278
36208W        W 9276  14.594  37.974   1.026
36209W        W 9277   6.965  37.790  10.726
36210W        W 9278   7.170  13.687   1.386
36211W        W 9279  37.902  25.197  11.909
36212W        W 9280  40.384  41.891  12.145
36213W        W 9281   9.983  23.081   0.043
36214W        W 9282  44.240  32.949  10.090
36215W        W 9283  22.611   0.501   3.997
36216W        W 9284   0.922  42.527  12.150
36217W        W 9285  43.195   8.689  11.162
36218W        W 9286  27.023  38.080  12.635
36219W        W 9287  35.002  25.905   1.690
36220W        W 9288   4.659  33.573   2.655
36221W        W 9289  41.535  22.374   4.768
36222W        W 9290  20.950  19.142   1.251
36223W        W 9291  13.062  23.086  10.916
36224W        W 9292  14.868  24.476   0.732
36225W        W 9293  34.389  43.295  13.503
36226W        W 9294  43.297  28.649   4.758
36227W        W 9295  30.799   5.374  11.100
36228W        W 9296   5.455   0.254   2.577
36229W        W 9297  18.988  11.312   0.693
36230W        W 9298  41.548   6.178   4.156
36231W        W 9299  19.907  34.316   5.063
36232W        W 9300  40.666   0.447  14.817
36233W        W 9301  19.675  12.388   0.092
36234W        W 9302   9.275   1.974   3.287
36235W        W 9303  33.131  42.271  11.471
36236W        W 9304  39.362  36.435  13.827
36237W        W 9305  42.505   6.758   0.381
36238W        W 9306   9.240  22.647   0.162
36239W        W 9307  32.244  28.834  12.515
36240W        W 9308  17.935  42.908   4.994
36241W        W 9309   3.208  14.508   1.291
36242W        W 9310  37.612  23.816   3.736
36243W        W 9311  25.911  17.680   0.223
36244W        W 9312  25.352  11.369   1.985
36245W        W 9313  37.849  42.630   4.368
36246W        W 9314  31.587  25.259   3.811
36247W        W 9315  13.915   1.586  14.843
36248W        W 9316   9.885  17.329  11.633
36249W        W 9317  24.736  34.223   1.642
36250W        W 9318   7.709   8.463   1.983
36251W        W 9319   4.354   1.519  10.783
36252W        W 9320  17.142   2.504   1.678
36253W        W 9321   0.438  30.445   1.561
36254W        W 9322   9.293  27.101  11.647
36255W        W 9323  34.015  32.644   3.380
36256W        W 9324  32.372   2.840   1.846
36257W        W 9325   2.014  31.996   2.663
36258W        W 9326   2.135  38.402  13.467
36259W        W 9327   8.692  32.042   1.337
36260W        W 9328  31.460  17.145   2.665
36261W        W 9329  31.020   6.231  12.941
36262W        W 9330  15.822  44.949   0.990
36263W        W 9331  42.847  12.631   3.293
36264W        W 9332  28.946  44.779  11.667
36265W        W 9333  44.829  19.404  11.959
36266W        W 9334  36.829  38.441  11.049
36267W        W 9335  28.428  26.356   2.374
36268W        W 9336   8.276  36.913   3.552
36269W        W 9337  31.553   7.783   2.777
36270W        W 9338  26.006   1.429   0.654
36271W        W 9339  22.114   2.830   4.728
36272W        W 9340  34.583   9.071   3.170
36273W        W 9341  27.559  13.745  12.106
36274W        W 9342   4.705  30.412   0.211
36275W        W 9343  26.449  37.823   9.981
36276W        W 9344   8.568  33.518   2.864
36277W        W 9345  31.632  41.214  12.963
36278W        W 9346  24.595   1.683  12.424
36279W        W 9347  13.113  16.783  13.526
36280W        W 9348  12.326  27.484   0.191
36281W        W 9349  26.703  34.112  13.874
36282W        W 9350  28.083   8.385   4.106
36283W        W 9351  43.440   5.440   2.932
36284W        W 9352   5.432  34.125  13.132
36285W        W 9353  23.002  34.672  14.388
36286W        W 9354  12.780  11.237   2.323
36287W        W 9355  33.512  16.491   0.355
36288W        W 9356  35.638  23.177  11.198
36289W        W 9357   4.920  32.170   1.468
36290W        W 9358  36.106  33.383   3.329
36291W        W 9359   9.456  34.957  11.092
36292W        W 9360  37.660  26.938  14.935
36293W        W 9361  27.166  27.139   1.378
36294W        W 9362  44.610   0.876   4.287
36295W        W 9363  39.772  44.960  14.708
36296W        W 9364  44.555  29.087   2.886
36297W        W 9365  21.517  40.338  13.988
36298W        W 9366  40.470  20.851   4.943
36299W        W 9367  36.862  44.906  14.191
36300W        W 9368   5.763  19.606   2.308
36301W        W 9369  16.240  32.911   2.339
36302W        W 9370  33.105   4.530   2.346
36303W        W 9371  35.512  14.851   4.010
36304W        W 9372  44.832  22.801  10.974
36305W        W 9373  35.565  38.710  13.330
36306W        W 9374  12.212   0.397   3.433
36307W        W 9375   1.483  29.753   1.185
36308W        W 9376  37.909  15.153  14.730
36309W        W 9377  34.675  21.905   3.987
36310W        W 9378  37.393  15.510  12.479
36311W        W 9379  20.667  16.256   4.081
36312W        W 9380  15.765  19.709  10.538
36313W        W 9381  14.286  41.376  14.515
36314W        W 9382  16.266  30.501   2.638
36315W        W 9383  11.664  36.832   0.041
36316W        W 9384  38.358  35.532   2.446
36317W        W 9385  35.038  14.873  11.619
36318W        W 9386  21.659  12.478  12.126
36319W        W 9387   6.342  39.826   1.495
36320W        W 9388  28.165   0.807   0.450
36321W        W 9389  29.309  28.663  11.409
36322W        W 9390  32.578  15.785  11.615
36323W        W 9391  26.959  20.584   0.676
36324W        W 9392  16.250  40.873   1.874
36325W        W 9393  29.133  32.316  14.714
36326W        W 9394  44.294  16.203   0.747
36327W        W 9395   4.531   7.298   3.814
36328W        W 9396  18.807  44.571  12.550
36329W        W 9397  23.939  21.599   3.053
36330W        W 9398   7.782   9.024   3.367
36331W        W 9399  40.833  21.285  13.397
36332W        W 9400   5.041  28.275   1.811
36333W        W 9401  10.299  37.549  11.115
36334W        W 9402   6.851   5.995   2.678
36335W        W 9403  23.798   6.561   2.848
36336W        W 9404  37.801   7.335   4.608
36337W        W 9405  38.946  24.519  13.410
36338W        W 9406  23.686   1.980   2.596
36339W        W 9407  41.996  39.576   3.266
36340W        W 9408  26.407  23.212   1.651
36341W        W 9409  32.065   2.458   3.603
36342W        W 9410  35.657  23.744  11.913
36343W        W 9411  30.089  41.347  12.566
36344W        W 9412   0.246  22.634  11.249
36345W        W 9413  13.735  43.571   3.734
36346W        W 9414  43.312  10.946  11.576
36347W        W 9415  26.182   7.476  14.286
36348W        W 9416   1.889   3.737  13.880
36349W        W 9417  25.844  19.622   1.186
36350W        W 9418   6.413  25.527  13.929
36351W        W 9419  30.953  28.595  14.008
36352W        W 9420   3.956  37.378   2.450
36353W        W 9421   5.894   7.795  13.381
36354W        W 9422  36.848   6.233  10.959
36355W        W 9423  32.615   1.583  14.599
36356W        W 9424  22.717   8.613   5.033
36357W        W 9425  18.564  33.057  14.942
36358W        W 9426   1.776   7.735  14.286
36359W        W 9427  17.792  13.158   3.760
36360W        W 9428  38.040   5.667   4.233
36361W        W 9429   2.381  40.676  13.906
36362W        W 9430  37.090  24.294  13.283
36363W        W 9431  20.347  26.590   0.837
36364W        W 9432   4.281  43.337  12.877
36365W        W 9433  35.494  12.105   2.932
36366W        W 9434  16.578  26.737  12.645
36367W        W 9435  39.937   8.425  12.503
36368W        W 9436  16.219  32.464   1.398
36369W        W 9437  32.496  18.721   2.828
36370W        W 9438  23.111  32.066  14.427
36371W        W 9439  42.047   8.554  12.117
36372W        W 9440   3.989   5.259  14.665
36373W        W 9441  12.747  36.730  10.944
36374W        W 9442  40.294   2.291  14.847
36375W        W 9443  38.375   6.263  13.870
36376W        W 9444  10.445   0.671  11.661
36377W        W 9445  42.814  10.938   3.814
36378W        W 9446  10.703  17.049   2.214
36379W        W 9447  11.017  17.557  10.684
36380W        W 9448   7.976  23.143   2.227
36381W        W 9449  10.331  11.620   2.596
36382W        W 9450  30.992  37.340  13.770
36383W        W 9451  15.605  14.375   1.898
36384W        W 9452  33.077   1.356  13.438
36385W        W 9453  26.868  28.407   0.239
36386W        W 9454  27.632  26.978   0.085
36387W        W 9455  15.851  34.637  13.443
36388W        W 9456   1.735  13.260   4.091
36389W        W 9457  12.132  23.484  12.701
36390W        W 9458  44.604  12.885  14.933
36391W        W 9459  28.119  42.990   1.260
36392W        W 9460  21.229  14.970  12.814
36393W        W 9461  12.336   0.092   4.646
36394W        W 9462  31.845   6.603   2.150
36395W        W 9463  24.602  43.005   0.705
36396W        W 9464   0.301  30.850   1.227
36397W        W 9465  10.031   3.256   2.204
36398W        W 9466  39.581   2.255  13.300
36399W        W 9467  14.656   1.996  12.109
36400W        W 9468  22.936  43.914  10.213
36401W        W 9469   7.285  44.733  13.204
36402W        W 9470  20.682   6.168   4.200
36403W        W 9471  34.440  24.848  11.671
36404W        W 9472   0.677  22.203  14.720
36405W        W 9473  39.302   8.216  12.095
36406W        W 9474  11.121  40.006  14.392
36407W        W 9475  42.782  40.580   3.380
36408W        W 9476   4.439  22.690   1.809
36409W        W 9477   6.925  44.275  12.068
36410W        W 9478   7.599  40.981   3.702
36411W        W 9479  17.652  32.796  12.516
36412W        W 9480  42.892  15.051  11.533
36413W        W 9481  43.903  23.744  14.473
36414W        W 9482  12.927  44.188  13.048
36415W        W 9483  19.335  28.118   4.493
36416W        W 9484  22.085  36.678  13.777
36417W        W 9485  42.890  32.440  11.671
36418W        W 9486  28.649  33.511   1.734
36419W        W 9487  20.160   2.516   2.332
36420W        W 9488  11.153  12.329  10.651
36421W        W 9489  17.991  11.843  14.048
36422W        W 9490  28.656   4.347   0.311
36423W        W 9491  27.909  14.264   5.069
36424W        W 9492  30.551  24.945   2.871
36425W        W 9493  33.641  44.021  10.661
36426W        W 9494  41.297  43.976  12.577
36427W        W 9495  14.738  34.932  13.970
36428W        W 9496   5.272  44.834   2.320
36429W        W 9497  37.445  32.222  10.279
36430W        W 9498  18.162  30.849  13.037
36431W        W 9499  35.151  12.268  11.613
36432W        W 9500  21.691  30.425  12.136
36433W        W 9501  38.336   2.767   4.308
36434W        W 9502  19.282  33.954  10.636
36435W        W 9503  14.876  19.121  13.077
36436W        W 9504  15.201  19.507  13.127
36437W        W 9505  42.726  32.178   4.145
36438W        W 9506  28.158  22.256   1.799
36439W        W 9507  14.314  23.563   0.448
36440W        W 9508  19.811  17.633  11.149
36441W        W 9509  12.174  19.548  12.130
36442W        W 9510   8.185  36.173  11.927
36443W        W 9511  19.084  23.684   1.838
36444W        W 9512  33.754  13.459   1.860
36445W        W 9513  31.582  42.929   1.730
36446W        W 9514  21.860  36.378   1.725
36447W        W 9515  34.011  19.455  13.506
36448W        W 9516  27.854  26.945   1.907
36449W        W 9517  39.291   3.829   3.237
36450W        W 9518  31.904  43.969   3.729
36451W        W 9519  26.036  39.515   1.674
36452W        W 9520   7.880  26.511  13.373
36453W        W 9521  34.996  15.291  12.932
36454W        W 9522  22.294  11.219  11.590
36455W        W 9523  10.663  31.987   4.821
36456W        W 9524  40.080  40.050   3.896
36457W        W 9525  11.550  41.821   3.307
36458W        W 9526  32.473  21.648  13.320
36459W        W 9527  43.796   9.872  13.076
36460W        W 9528   6.209  37.704  12.498
36461W        W 9529  42.219  31.890  11.605
36462W        W 9530  15.823  30.426  11.476
36463W        W 9531  26.000   4.011  11.114
36464W        W 9532   4.686  36.099   1.720
36465W        W 9533  29.404  37.586   0.348
36466W        W 9534  31.867  18.637   4.144
36467W        W 9535  37.068   6.735   1.196
36468W        W 9536   5.352  22.270  14.896
36469W        W 9537   2.118  30.842   1.360
36470W        W 9538  13.824  20.639  14.880
36471W        W 9539  44.801  30.140  13.505
36472W        W 9540  29.761  17.558  12.533
36473W        W 9541  21.106   4.737  10.081
36474W        W 9542  28.016  22.718   4.721
36475W        W 9543  31.585  13.929   1.546
36476W        W 9544  36.806  33.550  12.552
36477W        W 9545   4.549   5.663   4.592
36478W        W 9546   4.458   7.663   2.775
36479W        W 9547  25.800  33.277  10.554
36480W        W 9548  19.573  17.612  11.600
36481W        W 9549  33.380  22.984  13.809
36482W        W 9550  44.366  44.370  13.498
36483W        W 9551  32.478  18.695   3.833
36484W        W 9552  17.629  40.088   1.384
36485W        W 9553  26.740  28.409  12.043
36486W        W 9554  38.565   3.462   0.979
36487W        W 9555  40.501  32.340  14.950
36488W        W 9556  27.412  37.318  12.857
36489W        W 9557   7.168  42.900   2.540
36490W        W 9558  42.995  34.681  14.369
36491W        W 9559  30.006   9.410   1.297
36492W        W 9560  38.692   3.171  12.043
36493W        W 9561   9.938  28.460   4.659
36494W        W 9562  27.623  19.630  14.561
36495W        W 9563  32.654  43.832   1.464
36496W        W 9564  26.230  25.466   1.297
36497W        W 9565  42.841   0.850   4.963
36498W        W 9566   2.864  27.283   3.739
36499W        W 9567   0.216  15.686  12.582
36500W        W 9568  37.621   4.160  13.876
36501W        W 9569   6.887  29.062   0.227
36502W        W 9570  16.571  39.737  13.394
36503W        W 9571  11.556  22.141   1.637
36504W        W 9572  16.148  31.973  12.387
36505W        W 9573  37.619  10.529   1.627
36506W        W 9574  43.039  43.415   2.526
36507W        W 9575  19.677  10.866   0.905
36508W        W 9576  22.728  35.098  11.708
36509W        W 9577  43.222  20.401  14.358
36510W        W 9578  42.023  34.750   2.985
36511W        W 9579  16.391   7.274   2.433
36512W        W 9580  44.200  22.774  10.428
36513W        W 9581   9.439  10.057   4.382
36514W        W 9582   5.401  33.512   4.807
36515W        W 9583  31.088  15.201  12.642
36516W        W 9584  10.180  37.550  10.022
36517W        W 9585  17.165  15.356  12.580
36518W        W 9586  41.235  31.070   5.039
36519W        W 9587   2.653  41.582  11.036
36520W        W 9588  24.531   0.202  12.214
36521W        W 9589  24.443  10.365   1.846
36522W        W 9590  39.772  22.427  14.847
36523W        W 9591  27.822  24.228   2.005
36524W        W 9592  10.089  39.400  13.983
36525W        W 9593  26.010   6.526   2.345
36526W        W 9594  15.811  18.761   0.484
36527W        W 9595  30.186  28.411   4.317
36528W        W 9596  21.484  27.439  14.825
36529W        W 9597  29.192  13.343   4.359
36530W        W 9598  25.803  24.031  11.507
36531W        W 9599  28.813  15.471   0.474
36532W        W 9600  26.314   6.515   2.794
36533W        W 9601   3.405  44.946   1.898
36534W        W 9602   1.921  40.136   0.500
36535W        W 9603  29.121  22.548  11.526
36536W        W 9604  32.558   1.446   2.905
36537W        W 9605  20.192  18.505   2.820
36538W        W 9606   6.426   7.323  12.008
36539W        W 9607  25.197  17.087  13.051
36540W        W 9608  10.698   5.893  13.387
36541W        W 9609  44.548  16.279   1.722
36542W        W 9610  10.152  23.540  12.949
36543W        W 9611  37.419   0.813  10.858
36544W        W 9612  15.360  22.750  13.530
36545W        W 9613  17.556  40.511  13.316
36546W        W 9614  12.683  11.293   3.652
36547W        W 9615  40.624  20.765   0.798
36548W        W 9616  39.985  43.033   0.857
36549W        W 9617  24.376  26.717   9.777
36550W        W 9618  13.280   0.482  14.249
36551W        W 9619   0.249   5.353  13.709
36552W        W 9620  39.022  37.537  12.136
36553W        W 9621   1.012  39.383  14.806
36554W        W 9622  22.598  14.656  12.942
36555W        W 9623  19.237  39.264  11.954
36556W        W 9624  39.100  14.840   1.540
36557W        W 9625  18.761  35.572   2.328
36558W        W 9626  18.484  32.559   1.684
36559W        W 9627  24.695  12.830  11.959
36560W        W 9628  38.276  25.249   4.220
36561W        W 9629  29.160  20.203   1.570
36562W        W 9630  39.810  44.018   3.166
36563W        W 9631  32.292  17.690   4.151
36564W        W 9632  31.613  17.425  13.564
36565W        W 9633  11.794  30.075   0.302
36566W        W 9634  37.135  40.469  11.379
36567W        W 9635  40.650  31.788   9.951
36568W        W 9636  22.589  40.106  10.750
36569W        W 9637  10.056  21.357  10.416
36570W        W 9638  12.836   2.939   4.693
36571W        W 9639  20.038  44.226   4.445
36572W        W 9640  39.290  25.930  14.468
36573W        W 9641  38.096  13.961  12.885
36574W        W 9642  40.185  34.523  11.339
36575W        W 9643  13.362  21.047   4.073
36576W        W 9644   3.537  11.376   0.946
36577W        W 9645  30.445   5.923   0.328
36578W        W 9646  17.064  21.806  13.337
36579W        W 9647  26.183  11.674   3.346
36580W        W 9648  42.892  24.399   0.752
36581W        W 9649  21.019  17.234   2.839
36582W        W 9650   1.299  31.172  11.464
36583W        W 9651  35.457  38.095   2.888
36584W        W 9652   7.248  24.575  14.975
36585W        W 9653  33.656  10.179   3.437
36586W        W 9654  18.057  38.384  13.706
36587W        W 9655   3.880  28.620   3.093
36588W        W 9656  21.609  40.281   1.757
36589W        W 9657  38.049  39.763   0.405
36590W        W 9658  27.241  40.863  12.551
36591W        W 9659  32.439  29.565  13.962
36592W        W 9660  15.919   3.733  11.460
36593W        W 9661  30.139  32.033  13.934
36594W        W 9662  19.268  35.328  14.287
36595W        W 9663  24.080  37.923   3.566
36596W        W 9664  37.586  19.685   2.265
36597W        W 9665   0.844   3.890  11.639
36598W        W 9666   0.562  23.961  10.677
36599W        W 9667  44.007  22.284   1.914
36600W        W 9668  25.023  17.572   1.775
36601W        W 9669  18.256  21.024   2.736
36602W        W 9670   7.396  17.711  14.994
36603W        W 9671  33.468  35.389   4.583
36604W        W 9672  38.695  39.340  11.985
36605W        W 9673  10.806  16.186  10.414
36606W        W 9674  43.774   8.436   3.617
36607W        W 9675  21.267   5.526  13.379
36608W        W 9676  28.119  33.964  11.486
36609W        W 9677  16.194  44.071  14.045
36610W        W 9678  43.864  32.943  14.545
36611W        W 9679  31.098  15.631   0.569
36612W        W 9680  28.126  20.879  14.538
36613W        W 9681  30.511  43.245   2.289
36614W        W 9682  26.621  11.879   0.542
36615W        W 9683  31.479  20.190  12.944
36616W        W 9684  30.821  13.361  11.628
36617W        W 9685  12.714  41.911   0.879
36618W        W 9686  41.038   1.741   1.882
36619W        W 9687   6.301  17.040  11.913
36620W        W 9688  42.313  34.608  13.454
36621W        W 9689   3.738   2.877   1.272
36622W        W 9690   1.423  23.898  12.525
36623W        W 9691   2.246   9.452   2.667
36624W        W 9692   5.099  18.737   2.253
36625W        W 9693  36.683  41.978  13.097
36626W        W 9694  24.576   1.888  12.893
36627W        W 9695  23.953  24.163   2.424
36628W        W 9696  43.806  42.047   2.296
36629W        W 9697  10.636  34.890  12.995
36630W        W 9698  41.207   7.340  10.667
36631W        W 9699  18.536  35.510   3.102
36632W        W 9700  42.842  26.933   3.178
36633W        W 9701  32.115  23.142   3.321
36634W        W 9702  37.472  25.067   2.601
36635W        W 9703   2.327  32.821   1.420
36636W        W 9704  35.689  19.195  12.858
36637W        W 9705  15.077  32.657   2.482
36638W        W 9706   3.326  16.062   0.331
36639W        W 9707  20.256   8.628   1.646
36640W        W 9708   8.195  20.195   3.848
36641W        W 9709  42.755   4.931   2.148
36642W        W 9710   9.286  38.830  10.301
36643W        W 9711  22.497   9.698  12.042
36644W        W 9712  39.815  11.572  13.097
36645W        W 9713   3.496  21.949   1.296
36646W        W 9714  13.322  38.563  10.791
36647W        W 9715   1.944  41.974   3.668
36648W        W 9716  24.512  38.801  12.554
36649W        W 9717  25.691  38.110   2.680
36650W        W 9718  16.512   8.300  14.077
36651W        W 9719   9.642  13.224  11.508
36652W        W 9720   2.036  39.680  10.498
36653W        W 9721  34.817  44.804  13.399
36654W        W 9722  14.809  30.576   1.454
36655W        W 9723  12.922  19.499  13.554
36656W        W 9724  43.293  15.662  10.437
36657W        W 9725  29.501  16.256   2.368
36658W        W 9726  43.819  39.789   2.005
36659W        W 9727  24.713  27.212  14.887
36660W        W 9728  25.079  36.255  10.395
36661W        W 9729  27.355  27.459  13.837
36662W        W 9730   7.333   8.446  12.031
36663W        W 9731  20.571   3.997   1.686
36664W        W 9732  12.919  17.512  11.975
36665W        W 9733  42.632  30.686   4.213
36666W        W 9734  10.801  40.827   0.167
36667W        W 9735  38.609  12.900  10.688
36668W        W 9736  40.081  31.921  11.842
36669W        W 9737  10.354  43.751  10.634
36670W        W 9738  33.490  24.721   2.898
36671W        W 9739  23.907  42.380   4.224
36672W        W 9740  19.299  35.474  11.588
36673W        W 9741  20.729   8.235  14.892
36674W        W 9742  15.267  34.413   4.021
36675W        W 9743  19.840  23.667  10.748
36676W        W 9744  35.031  36.994   2.892
36677W        W 9745  18.551  24.773  13.725
36678W        W 9746   8.045  43.347  10.759
36679W        W 9747  43.771  39.323  11.572
36680W        W 9748  43.724   5.627   3.390
36681W        W 9749  28.455  17.974  12.983
36682W        W 9750  24.518  32.810   4.192
36683W        W 9751  11.382  23.151   3.489
36684W        W 9752  32.952  15.548   2.865
36685W        W 9753  44.912  24.645  12.831
36686W        W 9754  28.644  19.214  12.345
36687W        W 9755  34.825  13.617  11.994
36688W        W 9756  37.984  32.191  11.664
36689W        W 9757  30.490   1.929  12.822
36690W        W 9758  37.113   2.246   4.675
36691W        W 9759  36.450  35.076   0.033
36692W        W 9760   4.464   8.708   4.607
36693W        W 9761  42.460  15.217  13.343
36694W        W 9762  42.154  38.073   0.414
36695W        W 9763  11.202   1.463   4.101
36696W        W 9764  44.394  10.104   0.257
36697W        W 9765   9.648  23.739  12.919
36698W        W 9766   0.243  26.068   2.244
36699W        W 9767   3.267  32.666   4.513
36700W        W 9768  16.035  10.784   2.661
36701W        W 9769  39.369   9.343  12.968
36702W        W 9770  41.043   5.270   4.163
36703W        W 9771  39.722   5.921  12.481
36704W        W 9772  44.600  31.968   2.078
36705W        W 9773  16.039  13.729   0.258
36706W        W 9774   0.770  29.009   3.240
36707W        W 9775  19.455  31.442   3.698
36708W        W 9776  20.246   1.455  14.710
36709W        W 9777  18.218  39.447   0.239
36710W        W 9778  42.536   6.006   4.546
36711W        W 9779   1.378   4.757  13.533
36712W        W 9780  33.087  38.574  12.942
36713W        W 9781  37.414  23.011  10.999
36714W        W 9782  39.717   1.475  11.372
36715W        W 9783  34.056  25.303   0.977
36716W        W 9784  29.121  32.107   3.535
36717W        W 9785  12.733  36.951   3.967
36718W        W 9786  18.177  14.077  12.462
36719W        W 9787   2.394  23.453  13.062
36720W        W 9788  15.751  36.503  11.398
36721W        W 9789   8.426  43.364  11.623
36722W        W 9790   9.814  29.088   4.316
36723W        W 9791  32.118  30.501   1.790
36724W        W 9792  14.831  27.885  13.392
36725W        W 9793   1.874  38.643  10.510
36726W        W 9794  15.688  13.100   0.890
36727W        W 9795  24.315  10.616   2.339
36728W        W 9796   0.405  29.456   1.273
36729W        W 9797  44.540  42.840   3.319
36730W        W 9798   8.180  32.629   3.203
36731W        W 9799  24.665  35.943  14.064
36732W        W 9800  31.931  19.098   2.200
36733W        W 9801  23.130  25.420  14.769
36734W        W 9802  36.362  34.518   0.707
36735W        W 9803  16.851   7.096   2.224
36736W        W 9804  27.504  36.112   1.360
36737W        W 9805   1.858  15.709   0.243
36738W        W 9806  29.105  20.257   1.058
36739W        W 9807  22.167   4.743   4.428
36740W        W 9808  31.344   4.414   3.101
36741W        W 9809  42.865   8.681   4.152
36742W        W 9810  40.391  14.864   3.058
36743W        W 9811   4.618  42.719   4.639
36744W        W 9812  44.049  40.405   3.662
36745W        W 9813  42.443  34.975   2.772
36746W        W 9814  26.245  40.971  12.569
36747W        W 9815  16.322   0.302   2.275
36748W        W 9816   7.036  14.686  14.411
36749W        W 9817  21.439  23.243   4.269
36750W        W 9818   4.788  26.391   2.302
36751W        W 9819  24.214   9.291   2.923
36752W        W 9820  19.105  28.542  12.490
36753W        W 9821  19.998  19.210  13.752
36754W        W 9822   5.731  14.798  10.589
36755W        W 9823  21.675   3.972  14.072
36756W        W 9824  25.987  15.653   1.025
36757W        W 9825  21.650  14.363   3.806
36758W        W 9826  31.206  32.984  13.124
36759W        W 9827  11.275  35.148   1.642
36760W        W 9828  44.467   8.717   0.242
36761W        W 9829   0.530  18.963   4.186
36762W        W 9830  41.569  15.196  13.025
36763W        W 9831  38.060  16.452  10.837
36764W        W 9832  39.617  14.289   5.062
36765W        W 9833   7.366   2.356  13.767
36766W        W 9834  26.658  27.040  14.185
36767W        W 9835  15.141  36.096   0.809
36768W        W 9836  28.665  29.475  12.933
36769W        W 9837  33.170  34.409   2.443
36770W        W 9838  26.757  44.287   2.179
36771W        W 9839   7.733  36.633  14.947
36772W        W 9840  43.528  12.284  14.245
36773W        W 9841   6.444  23.554   4.248
36774W        W 9842   5.249  25.913   4.236
36775W        W 9843   8.199  13.993  14.763
36776W        W 9844  26.914   4.807  14.221
36777W        W 9845  37.136  35.833   3.484
36778W        W 9846   1.013  12.852   0.439
36779W        W 9847  21.078  26.959   0.430
36780W        W 9848  16.234   9.800  11.562
36781W        W 9849  16.959   8.195  11.808
36782W        W 9850  29.720  34.668  12.972
36783W        W 9851  28.935  35.595   4.042
36784W        W 9852  36.741  22.616  13.559
36785W        W 9853  33.797  44.449   3.163
36786W        W 9854   8.868  35.546  11.904
36787W        W 9855  33.292  35.954   1.158
36788W        W 9856  36.881  42.859  14.374
36789W        W 9857  33.189  35.962  12.849
36790W        W 9858   5.972  36.167   4.158
36791W        W 9859  38.470  16.547  11.114
36792W        W 9860  44.891  10.506  10.391
36793W        W 9861   0.816  42.512   3.672
36794W        W 9862  15.748  31.343   0.269
36795W        W 9863  22.607   7.431   3.167
36796W        W 9864  27.638  44.151   3.235
36797W        W 9865   8.713  28.905   4.230
36798W        W 9866  13.984  36.497  14.586
36799W        W 9867   2.869   7.386  10.337
36800W        W 9868  32.217  19.950   5.041
36801W        W 9869  34.081   2.418   2.337
36802W        W 9870  37.817   7.790   2.270
36803W        W 9871  28.739   8.665  11.530
36804W        W 9872   5.564   2.767  11.591
36805W        W 9873  12.432  35.068   4.831
36806W        W 9874  21.785  16.810   2.167
36807W        W 9875  39.683  43.735   3.577
36808W        W 9876  10.194  27.581  11.469
36809W        W 9877   0.409  34.727   0.660
36810W        W 9878  15.905  14.353  11.112
36811W        W 9879  11.829  26.164  12.910
36812W        W 9880  21.994  11.154  14.321
36813W        W 9881  21.055  34.191  13.035
36814W        W 9882  17.299  12.621   1.190
36815W        W 9883   2.933  18.361   4.050
36816W        W 9884   0.329  36.883   0.434
36817W        W 9885  12.618  31.494  12.456
36818W        W 9886  44.883  22.905   2.447
36819W        W 9887  35.923  18.267  12.502
36820W        W 9888  38.822  42.803   3.687
36821W        W 9889  13.785  13.575   1.899
36822W        W 9890  10.667  26.918   4.417
36823W        W 9891   5.916  24.160   4.607
36824W        W 9892  18.219  11.085  13.303
36825W        W 9893  17.128  24.004  10.729
36826W        W 9894  32.147  25.081  12.007
36827W        W 9895  17.126   4.587   0.250
36828W        W 9896   9.305  43.474   0.069
36829W        W 9897   9.345  16.789   4.180
36830W        W 9898   0.567  13.962   0.930
36831W        W 9899  35.498  41.272  14.499
36832W        W 9900  12.076  34.585  14.908
36833W        W 9901  19.515   7.773  11.526
36834W        W 9902   6.882  39.025   4.238
36835W        W 9903  12.811  27.570   0.488
36836W        W 9904  10.293  25.988  10.517
36837W        W 9905   8.725  32.252   0.837
36838W        W 9906  36.483  44.936  11.393
36839W        W 9907  31.400  24.581  11.038
36840W        W 9908   5.226  21.578   4.076
36841W        W 9909   7.078  43.954  14.277
36842W        W 9910  21.591  42.848   2.197
36843W        W 9911  18.867  17.790   0.741
36844W        W 9912   7.908  23.546  13.854
36845W        W 9913  22.439   5.663   2.299
36846W        W 9914   7.539  35.597   2.357
36847W        W 9915  35.476   7.415   1.305
36848W        W 9916  32.564  15.861   3.742
36849W        W 9917  37.929  21.486  13.030
36850W        W 9918  25.156  40.704  10.285
36851W        W 9919  20.614  40.309  12.515
36852W        W 9920  34.173  35.658   2.845
36853W        W 9921   9.899  26.533  12.046
36854W        W 9922  39.471  38.811   1.282
36855W        W 9923  33.543   5.477  10.348
36856W        W 9924  27.115  27.114   2.344
36857W        W 9925   8.599   0.922  14.401
36858W        W 9926  14.185  28.398  11.836
36859W        W 9927  38.410  39.790   3.976
36860W        W 9928  10.973  18.563  11.204
36861W        W 9929  26.601  28.420   3.651
36862W        W 9930   1.839  17.725  13.755
36863W        W 9931  28.106  23.190   2.712
36864W        W 9932  10.354  29.497  12.044
36865W        W 9933  34.281  12.328   2.123
36866W        W 9934  13.177  18.635   2.355
36867W        W 9935  25.660   0.569  14.835
36868W        W 9936  13.900  17.815  14.008
36869W        W 9937  30.210  26.944  14.880
36870W        W 9938  22.673  24.249  11.603
36871W        W 9939  15.772  38.496  11.073
36872W        W 9940   6.150   1.148  13.280
36873W        W 9941   4.333   0.995  14.808
36874W        W 9942  30.127  23.208  12.919
36875W        W 9943   5.406   9.416   3.618
36876W        W 9944  15.360   5.697   3.880
36877W        W 9945  35.324  27.953  12.447
36878W        W 9946  43.957  18.229  11.176
36879W        W 9947  18.901  31.655   4.082
36880W        W 9948   4.187  39.962  13.438
36881W        W 9949  27.666  43.272   2.748
36882W        W 9950  36.137  29.979  12.021
36883W        W 9951  26.437  31.588  10.405
36884W        W 9952  43.367  36.581  11.638
36885W        W 9953  11.225  36.839  12.300
36886W        W 9954   2.779  41.783  14.801
36887W        W 9955   4.795  36.508  10.655
36888W        W 9956  19.227   2.494  11.625
36889W        W 9957  21.557  30.863   1.215
36890W        W 9958   4.297  28.411   0.246
36891W        W 9959  37.913  44.130  10.960
36892W        W 9960   1.629  22.022  14.902
36893W        W 9961  25.945  30.914  11.984
36894W        W 9962  20.025   6.511  14.985
36895W        W 9963   3.614  30.412   0.859
36896W        W 9964  20.268  36.853  11.079
36897W        W 9965  40.249  32.864   0.712
36898W        W 9966  23.291  44.731  14.430
36899W        W 9967  41.291  38.292  12.633
36900W        W 9968  16.569  40.199   4.627
36901W        W 9969  25.509  42.663  13.012
36902W        W 9970  17.716   4.775  14.350
36903W        W 9971  11.306   3.491  11.526
36904W        W 9972   8.331   5.168  14.760
36905W        W 9973  42.693   4.736  14.733
36906W        W 9974  11.730  13.122  11.875
36907W        W 9975  16.069  34.539   4.626
36908W        W 9976   2.718  12.606  12.805
36909W        W 9977  12.099  25.736  11.500
36910W        W 9978  12.083  40.092   4.048
36911W        W 9979  35.423  23.904   4.113
36912W        W 9980  14.205   0.435  13.380
36913W        W 9981  33.068  23.657   0.872
36914W        W 9982  44.331  32.069   0.246
36915W        W 9983   7.794   8.915   4.269
36916W        W 9984  19.529  39.548   3.215
36917W        W 9985  28.048  15.066  13.481
36918W        W 9986  28.507   1.238  11.686
36919W        W 9987   9.642  24.540  12.132
36920W        W 9988   2.622  22.618  10.535
36921W        W 9989   0.298   2.377  10.736
36922W        W 9990  30.172  41.602   0.927
36923W        W 9991  43.364  30.590   3.046
36924W        W 9992  12.471  31.945   4.611
36925W        W 9993  29.610   3.467   2.348
36926W        W 9994  21.453  31.464   2.900
36927W        W 9995   5.974   9.915   2.247
36928W        W 9996  32.579  18.058   0.720
36929W        W 9997  36.130  36.118  11.960
36930W        W 9998  44.418  12.662   4.933
36931W        W 9999  35.071  13.397  11.608
36932W        W10000  36.026   9.039  14.781
36933W        W10001   7.339  36.320   1.193
36934W        W10002   3.259   2.527   0.499
36935W        W10003  15.776   7.437   4.268
36936W        W10004   1.310  38.858  13.501
36937W        W10005  42.337  14.224   2.375
36938W        W10006   2.226  11.800   2.806
36939W        W10007  24.090   8.385  11.466
36940W        W10008  42.827  16.348  11.121
36941W        W10009   1.408  43.827   0.707
36942W        W10010  44.384  14.693   1.773
36943W        W10011  36.431  44.902  10.871
36944W        W10012   5.066  40.008   2.513
36945W        W10013  25.856  33.546   4.065
36946W        W10014   5.868  32.972   2.082
36947W        W10015  44.554  36.378   0.375
36948W        W10016  32.454   5.259  12.075
36949W        W10017   8.679  16.812  14.494
36950W        W10018  30.921  21.311   9.603
36951W        W10019  20.332  27.004  11.580
36952W        W10020  33.030  42.050  13.421
36953W        W10021  28.958   4.904   1.016
36954W        W10022  31.006   9.886  14.022
36955W        W10023  42.724  13.776  12.549
36956W        W10024   4.374   4.935   0.793
36957W        W10025  42.708  16.738  12.469
36958W        W10026  27.979  39.979  14.358
36959W        W10027  35.132  19.732  10.304
36960W        W10028  35.971  29.421   2.281
36961W        W10029  36.922   2.713  11.193
36962W        W10030  31.132  25.632  13.822
36963W        W10031  34.425   6.269   4.674
36964W        W10032  26.304  42.380  10.617
36965W        W10033   8.917  38.086   1.855
36966W        W10034   8.988  31.356   2.712
36967W        W10035  36.524  26.797  14.144
36968W        W10036  44.300  40.065  14.002
36969W        W10037  27.415   2.890  12.553
36970W        W10038  38.042  28.162  11.556
36971W        W10039  10.753   4.936  14.491
36972W        W10040  24.611  11.015   0.474
36973W        W10041  18.030  24.247   1.211
36974W        W10042  13.860  14.752   1.498
36975W        W10043  28.496  30.363   2.809
36976W        W10044  23.243  17.967   4.437
36977W        W10045  35.998  30.802  10.084
36978W        W10046  19.116   8.206   1.625
36979W        W10047  27.359   2.981  14.720
36980W        W10048  43.818  34.850  14.819
36981W        W10049  15.263  37.565  14.068
36982W        W10050   9.861  39.775  11.825
36983W        W10051  43.952   5.410  11.001
36984W        W10052  25.388  10.813  10.803
36985W        W10053   9.753  23.115   2.924
36986W        W10054  18.729  33.805   4.797
36987W        W10055  31.875  32.039  10.712
36988W        W10056  15.821  33.090   9.974
36989W        W10057  12.220  29.074  12.034
36990W        W10058  15.176  42.974   1.019
36991W        W10059  30.935  24.172   4.114
36992W        W10060   0.461  23.041  13.797
36993W        W10061  12.856  38.488  14.926
36994W        W10062  28.591  15.841  13.376
36995W        W10063  12.673  20.682   3.594
36996W        W10064  10.822  13.115  11.040
36997W        W10065  29.722  34.821   4.592
36998W        W10066  15.345  23.276  13.607
36999W        W10067  17.830   6.517   1.333
37000W        W10068   5.879  15.428  12.624
37001W        W10069  24.762  29.971  12.999
37002W        W10070  28.690  23.571  11.428
37003W        W10071  14.384  13.298  14.387
37004W        W10072  30.246  32.340  13.482
37005W        W10073  27.580   7.136  11.126
37006W        W10074  28.534   3.615   3.251
37007W        W10075  27.593   4.220   1.239
37008W        W10076  24.597  23.938  11.182
37009W        W10077   4.042  11.969  13.761
37010W        W10078  23.439  36.306  13.939
37011W        W10079  40.308   0.836  14.804
37012W        W10080  39.391  18.756   1.240
37013W        W10081  19.185  38.566   0.834
37014W        W10082   3.545  37.151   4.389
37015W        W10083  12.180  13.437  10.587
37016W        W10084  10.614   2.360  13.995
37017W        W10085  37.592   1.676  12.034
37018W        W10086  14.342  40.329  14.964
37019W        W10087  41.006  17.052   1.305
37020W        W10088  30.184  36.960   3.456
37021W        W10089  29.673  10.214  14.660
37022W        W10090  23.492  27.903   4.858
37023W        W10091   4.345  10.148   2.810
37024W        W10092  44.835  38.872  13.520
37025W        W10093  39.820  39.878   2.842
37026W        W10094  25.062   6.961  13.996
37027W        W10095  44.268  20.607   0.707
37028W        W10096  42.355  13.421   3.316
37029W        W10097  29.067  36.303  11.918
37030W        W10098  14.674  29.447   3.059
37031W        W10099   4.788  13.354   2.781
37032W        W10100  11.415  33.609  11.636
37033W        W10101  40.868  14.571  10.767
37034W        W10102  10.151  30.398   0.882
37035W        W10103  42.988  21.097   4.041
37036W        W10104   5.122  22.490  12.433
37037W        W10105  31.437   7.866  10.726
37038W        W10106  38.100  41.496  13.626
37039W        W10107  40.344  14.300   1.471
37040W        W10108  12.107  36.264  12.899
37041W        W10109  26.720  35.867   4.722
37042W        W10110   0.765  24.789  11.658
37043W        W10111  33.442  18.921   3.718
37044W        W10112  37.061  17.099  12.017
37045W        W10113  31.040  26.123   0.431
37046W        W10114  17.584  29.375  14.716
37047W        W10115  10.300   7.437  13.376
37048W        W10116  31.607  14.315   2.504
37049W        W10117   1.409  18.361   4.168
37050W        W10118  24.140  11.130  10.672
37051W        W10119  28.154  41.966  12.332
37052W        W10120   9.906  19.732  14.376
37053W        W10121   4.635   4.868  12.857
37054W        W10122  13.562  20.454  12.895
37055W        W10123  25.517   1.844   3.729
37056W        W10124  30.675  31.411  14.432
37057W        W10125   8.183   5.448  12.672
37058W        W10126  43.221  38.300   0.975
37059W        W10127  43.020  35.008   1.305
37060W        W10128  34.359   9.711   0.039
37061W        W10129  39.967  32.787  10.630
37062W        W10130  41.802  22.532  12.485
37063W        W10131   3.700  43.926   3.641
37064W        W10132  31.606  39.659   1.273
37065W        W10133  16.060  13.886  11.157
37066W        W10134  16.679  18.064   4.635
37067W        W10135   9.235   4.609  11.918
37068W        W10136   2.141  33.533  11.902
37069W        W10137   3.065  25.720  12.464
37070W        W10138  35.480  38.438   4.651
37071W        W10139  18.886   6.309  11.546
37072W        W10140  29.828  40.646  11.979
37073W        W10141  18.006   3.236   0.700
37074W        W10142  36.559  38.998   3.970
37075W        W10143  10.920  42.995  11.662
37076W        W10144  20.338  17.229  12.953
37077W        W10145  14.156  18.862  12.133
37078W        W10146  34.865  14.123  12.017
37079W        W10147  44.031  41.251  14.508
37080W        W10148  24.955  23.216   0.693
37081W        W10149  22.147   8.387   2.404
37082W        W10150  22.435  13.736   0.369
37083W        W10151  12.877  43.252   1.338
37084W        W10152  21.841  37.193  12.496
37085W        W10153   6.783  43.084   3.398
37086W        W10154  18.477  13.759  13.431
37087W        W10155   7.343  37.079  11.479
37088W        W10156   0.234  29.569   1.762
37089W        W10157  23.053  42.404  11.696
37090W        W10158  14.241  10.585   2.801
37091W        W10159  17.191  14.152  12.254
37092W        W10160  33.054  26.495  14.921
37093W        W10161   7.342  33.049   4.408
37094W        W10162  30.451  17.587  13.711
37095W        W10163  32.373  20.967   4.765
37096W        W10164  33.474  13.111   2.649
37097W        W10165  35.567  22.425   1.963
37098W        W10166   2.822  13.079  11.080
37099W        W10167  42.865  34.603   4.194
37100W        W10168  13.554  22.127  13.402
37101W        W10169  21.669  39.434  14.468
37102W        W10170  23.573  30.251  12.508
37103W        W10171  14.395  38.503   2.719
37104W        W10172  44.499   3.831  12.656
37105W        W10173   7.710   9.872   2.642
37106W        W10174  15.196  10.278  12.840
37107W        W10175  40.437  12.811  10.665
37108W        W10176  29.319   3.269  14.546
37109W        W10177   2.007  36.881  12.738
37110W        W10178   3.516  25.085   4.364
37111W        W10179  23.778  31.160  11.304
37112W        W10180  41.335  32.638  14.786
37113W        W10181  22.606  19.592  14.583
37114W        W10182   6.354  38.785   9.924
37115W        W10183  38.724  30.595  10.301
37116W        W10184   7.994  34.904   4.215
37117W        W10185  38.461   4.423  10.482
37118W        W10186  19.625  22.708   1.154
37119W        W10187  37.574  34.451   4.798
37120W        W10188  34.296  12.195   1.044
37121W        W10189  19.305   9.586  13.707
37122W        W10190  13.632  28.381  13.558
37123W        W10191  32.442  10.441   3.522
37124W        W10192  16.770  19.612  13.004
37125W        W10193  41.686   2.372  13.640
37126W        W10194  32.137  37.858  12.559
37127W        W10195  37.049   1.590  12.043
37128W        W10196  33.947  35.110   4.799
37129W        W10197  35.517   1.504  13.626
37130W        W10198  38.416  37.356   2.923
37131W        W10199   3.767   8.471  12.985
37132W        W10200  16.073   2.476  14.518
37133W        W10201  32.371  16.552   2.389
37134W        W10202   6.064  36.672   3.026
37135W        W10203  33.483  37.427  10.915
37136W        W10204  41.035  20.517  11.556
37137W        W10205  11.128  10.692  11.799
37138W        W10206  33.415  22.038   4.474
37139W        W10207  25.087  18.930   3.163
37140W        W10208  28.952   2.561  12.166
37141W        W10209  17.035   6.614   1.864
37142W        W10210   5.952   3.906   2.282
37143W        W10211  41.733  34.413   4.164
37144W        W10212  27.208  31.471   4.199
37145W        W10213  25.498  33.528   1.291
37146W        W10214  11.728  28.185   3.158
37147W        W10215  38.429  19.663   0.410
37148W        W10216  14.044  32.353   0.866
37149W        W10217  30.198  22.031   2.170
37150W        W10218  37.915   1.562  12.875
37151W        W10219  10.960  20.444  14.014
37152W        W10220  16.580   9.905   3.207
37153W        W10221  21.894  39.071  10.252
37154W        W10222   2.612   5.333   0.908
37155W        W10223   3.425  20.216  12.042
37156W        W10224  43.180  14.054  14.829
37157W        W10225  13.232   1.560   2.089
37158W        W10226  21.645  24.199  12.906
37159W        W10227  18.102  36.315   1.324
37160W        W10228  43.389  21.804  14.775
37161W        W10229  12.777   8.260   4.154
37162W        W10230  44.723   7.422   0.487
37163W        W10231   3.900  42.976   4.665
37164W        W10232  24.194  31.174  14.779
37165W        W10233  31.192  14.233   2.819
37166W        W10234   1.055  18.593   0.022
37167W        W10235  38.309  41.068   2.894
37168W        W10236  33.520   8.597  13.058
37169W        W10237  20.346  16.711  11.023
37170W        W10238  18.150  18.685   3.682
37171W        W10239  19.744  17.564   2.404
37172W        W10240  31.967  40.767   1.892
37173W        W10241  38.618   8.629  12.889
37174W        W10242   9.737  20.621  12.985
37175W        W10243  22.158   9.836  13.343
37176W        W10244  26.734  36.979  12.469
37177W        W10245   9.856   2.282   2.666
37178W        W10246   2.919  38.675   3.849
37179W        W10247  16.184  36.386   4.431
37180W        W10248   9.291  40.019   4.169
37181W        W10249   7.935  37.838   0.669
37182W        W10250  34.888  14.313  13.840
37183W        W10251  33.363   1.882  10.599
37184W        W10252  22.194  42.908  12.221
37185W        W10253   9.092  17.803  10.792
37186W        W10254  10.910  10.569   0.289
37187W        W10255  17.579  31.869  11.680
37188W        W10256  15.723  43.618   3.660
37189W        W10257  21.594  44.905   1.300
37190W        W10258   8.608   8.873  14.850
37191W        W10259  28.109  12.863  14.951
37192W        W10260  33.336  28.013   0.442
37193W        W10261  41.414  25.480   3.342
37194W        W10262  26.923  43.562  10.723
37195W        W10263  18.238   6.752  12.375
37196W        W10264  32.910   6.861  13.427
37197W        W10265  16.388  30.487  11.226
37198W        W10266  28.967  15.155  10.977
37199W        W10267   6.274  11.193   3.643
37200W        W10268  43.432  21.163   0.910
37201W        W10269   6.778  38.246  14.537
37202W        W10270  20.806  34.644   3.336
37203W        W10271  16.765   8.080   3.542
37204W        W10272  25.675  23.084  13.842
37205W        W10273   9.252  23.026  11.517
37206W        W10274  27.676  11.884   2.729
37207W        W10275  43.708  42.749  13.600
37208W        W10276  30.899  31.642  13.148
37209W        W10277  40.246  13.276   2.086
37210W        W10278  29.796  25.544  12.583
37211W        W10279  15.120  39.302   0.434
37212W        W10280   1.929   9.085   2.364
37213W        W10281   1.734  27.509   2.305
37214W        W10282  38.260  40.078   3.046
37215W        W10283  28.118  32.537  14.807
37216W        W10284  31.162  24.921   0.651
37217W        W10285  14.201  43.639   4.590
37218W        W10286  13.667  42.091  12.061
37219W        W10287  23.082  26.450  14.877
37220W        W10288  23.095  32.093   4.499
37221W        W10289  12.050  18.180   0.266
37222W        W10290  44.268   7.727  14.785
37223W        W10291  29.516  18.264   4.096
37224W        W10292  17.601  10.298  12.955
37225W        W10293   7.198  18.066   2.894
37226W        W10294  23.075  11.851  14.732
37227W        W10295  39.211   8.696   5.406
37228W        W10296  21.687  25.204  14.595
37229W        W10297  37.788  39.990   1.739
37230W        W10298  24.722  37.915  10.165
37231W        W10299  11.315  42.733  14.977
37232W        W10300   5.465   6.439  11.133
37233W        W10301  25.133   8.170   0.006
37234W        W10302  32.577  24.509  11.595
37235W        W10303  26.201   3.208   4.907
37236W        W10304  36.524  11.201   4.972
37237W        W10305  29.344   4.918  14.242
37238W        W10306  14.148  30.765   2.924
37239W        W10307  14.842  24.900  11.185
37240W        W10308  21.787   2.422  10.830
37241W        W10309  17.438  19.381   5.055
37242W        W10310  23.613  16.378   4.745
37243W        W10311  18.826  30.428  14.988
37244W        W10312   2.021  36.361   5.230
37245W        W10313   8.352  32.982   1.395
37246W        W10314  17.609  16.108   1.771
37247W        W10315  33.570  33.536   4.078
37248W        W10316  38.854  29.391   2.714
37249W        W10317   9.851  16.136   4.687
37250W        W10318   1.017  19.255   1.779
37251W        W10319  19.300  16.331  11.662
37252W        W10320  10.223  33.029  14.401
37253W        W10321  19.247  19.359   1.660
37254W        W10322   2.234  20.648   1.391
37255W        W10323   6.720   3.624  14.329
37256W        W10324  22.328  15.995  12.563
37257W        W10325   4.395  38.582   0.973
37258W        W10326  28.987  13.006  13.465
37259W        W10327  33.049  16.057   1.069
37260W        W10328  40.480  37.145  10.579
37261W        W10329   4.339   0.550  10.693
37262W        W10330  19.825  12.393   3.810
37263W        W10331   2.489  14.722  14.098
37264W        W10332  32.393  15.374  10.477
37265W        W10333   0.889   8.493   1.960
37266W        W10334  28.487  38.054   1.016
37267W        W10335  42.586  34.297  11.570
37268W        W10336   5.769   7.220   3.977
37269W        W10337  17.683  32.466   1.042
37270W        W10338  19.112  16.617   0.278
37271W        W10339   1.581  21.577   1.308
37272W        W10340  37.220  11.050  11.981
37273W        W10341  41.036  19.798   2.220
37274W        W10342   9.207   2.990  12.027
37275W        W10343  41.753  42.236   2.487
37276W        W10344  42.532  42.672  10.823
37277W        W10345  16.355   3.019   1.652
37278W        W10346  16.829  40.040  10.437
37279W        W10347  21.109  28.984  11.205
37280W        W10348  41.413  38.925   3.980
37281W        W10349   8.662  30.017   4.229
37282W        W10350  15.329  16.405  12.108
37283W        W10351  30.316  35.398  12.567
37284W        W10352  37.398  28.630  11.099
37285W        W10353   4.532  25.354  12.461
37286W        W10354  42.774   2.078   2.689
37287W        W10355  35.246  26.198   3.950
37288W        W10356  19.323  29.370   2.293
37289W        W10357  20.681   6.828   2.881
37290W        W10358  18.625  34.137  11.644
37291W        W10359  33.100  42.780   2.519
37292W        W10360  36.082  36.424   1.725
37293W        W10361  40.924  16.144  14.448
37294W        W10362  10.952  16.634  10.154
37295W        W10363  40.089  33.582  13.894
37296W        W10364  27.121  43.397   0.614
37297W        W10365   9.706  18.290  11.436
37298W        W10366  41.293  40.321   3.588
37299W        W10367  38.806  24.072   4.471
37300W        W10368  31.753  14.741   3.437
37301W        W10369  37.096  22.556   2.423
37302W        W10370  35.892  20.063  12.516
37303W        W10371   6.557   8.708  12.620
37304W        W10372  14.061  42.247   4.799
37305W        W10373  21.603  20.846  14.278
37306W        W10374   7.805  26.090  13.754
37307W        W10375  12.288  18.424  12.531
37308W        W10376  10.182  10.728  13.848
37309W        W10377  44.457  42.343   3.444
37310W        W10378  39.665  15.913   3.613
37311W        W10379   1.173  19.801  13.461
37312W        W10380  44.299  37.485  14.880
37313W        W10381  18.208  36.833  10.954
37314W        W10382  44.452  22.360  14.949
37315W        W10383  23.376  22.836   2.357
37316W        W10384  18.063  26.320  11.592
37317W        W10385  14.939  26.625   1.614
37318W        W10386  29.697  16.803   4.572
37319W        W10387  44.339  17.835   3.081
37320W        W10388  26.659  43.546   1.691
37321W        W10389  12.396   3.729   2.314
37322W        W10390  36.568  37.607  10.349
37323W        W10391  15.890   4.360  12.005
37324W        W10392  34.122   8.586   1.779
37325W        W10393   6.890  22.001  12.038
37326W        W10394  37.070  26.578  12.102
37327W        W10395   3.314   1.365  12.202
37328W        W10396   6.414  17.016  13.389
37329W        W10397  42.532  10.133   2.201
37330W        W10398  28.924   4.968  12.475
37331W        W10399  15.774  34.067  14.235
37332W        W10400   2.081   5.776  13.412
37333W        W10401   1.861  40.333   4.647
37334W        W10402  14.190  36.753  13.305
37335W        W10403   8.671  33.978  12.393
37336W        W10404  39.342  40.392   3.345
37337W        W10405   1.019   1.727  13.653
37338W        W10406  14.895  14.692   4.255
37339W        W10407  42.314  35.028   3.720
37340W        W10408  10.118  35.999  11.050
37341W        W10409   2.454  32.210  12.974
37342W        W10410  44.469   3.795  14.876
37343W        W10411  16.373  14.274  13.812
37344W        W10412   3.745  22.319   0.861
37345W        W10413   2.336  11.324  13.150
37346W        W10414   5.231   1.656  13.432
37347W        W10415  32.873  28.186   2.128
37348W        W10416   2.405   1.754  13.823
37349W        W10417  18.315  12.103   4.601
37350W        W10418  39.994   7.747  13.219
37351W        W10419  29.179  36.982   1.934
37352W        W10420  26.012  26.842  11.080
37353W        W10421  38.554  34.845  13.212
37354W        W10422  24.330  19.633   1.540
37355W        W10423  36.892  14.115   0.276
37356W        W10424   3.209  32.809  14.881
37357W        W10425  31.503  42.444  11.505
37358W        W10426  29.507  38.421   2.392
37359W        W10427  34.916  21.076  11.592
37360W        W10428  13.395  12.088   0.411
37361W        W10429  24.130  39.944  12.505
37362W        W10430  10.592  23.171  11.548
37363W        W10431  25.033  24.693   4.602
37364W        W10432  16.345  19.300  13.069
37365W        W10433  11.643   7.149  12.904
37366W        W10434  44.865   8.178  10.744
37367W        W10435  43.217  41.813  11.398
37368W        W10436   3.391   4.847  13.244
37369W        W10437   2.191   4.335  14.895
37370W        W10438  36.906  13.063   1.891
37371W        W10439   0.816  43.668  14.909
37372W        W10440  24.199   4.717  10.900
37373W        W10441  19.158   3.519  11.517
37374W        W10442  28.919   7.278  13.928
37375W        W10443   1.041   8.363   2.967
37376W        W10444  32.187  44.978   4.585
37377W        W10445  33.839  10.471   0.912
37378W        W10446   9.267  38.376   0.756
37379W        W10447  39.471  38.575   4.580
37380W        W10448  13.554   1.063   2.870
37381W        W10449  18.534  15.464  11.719
37382W        W10450  31.413   5.677   3.439
37383W        W10451  38.595   7.287  14.455
37384W        W10452  23.690  13.304   3.713
37385W        W10453   6.427  42.262  12.287
37386W        W10454  29.579  15.819   4.268
37387W        W10455  25.194  44.093  12.035
37388W        W10456  44.176  12.292  14.954
37389W        W10457  35.160   0.962   2.268
37390W        W10458  38.766  44.050  11.034
37391W        W10459  17.149  30.593  14.093
37392W        W10460  24.042  22.568   4.105
37393W        W10461  35.224  31.332   3.648
37394W        W10462  11.036   1.525   2.285
37395W        W10463  28.209  42.208   3.316
37396W        W10464  37.514  12.101  14.121
37397W        W10465   1.864  14.401  12.028
37398W        W10466  17.707  13.915   1.468
37399W        W10467  33.934   4.215  11.449
37400W        W10468   2.209  41.886   2.145
37401W        W10469   1.391  11.937   2.410
37402W        W10470   6.790   7.691  14.356
37403W        W10471  15.274   3.508   1.348
37404W        W10472   8.369  28.189  13.323
37405W        W10473  23.757  14.988   2.678
37406W        W10474  40.654   9.039   2.194
37407W        W10475  35.487  43.472   2.252
37408W        W10476   1.433  12.206   0.797
37409W        W10477  29.197  43.844  11.178
37410W        W10478  39.724  27.160   1.838
37411W        W10479  24.635  17.949  10.651
37412W        W10480  41.273  29.636   2.638
37413W        W10481  26.986  22.487  13.431
37414W        W10482   7.278  17.817   1.317
37415W        W10483   2.823  17.010   2.717
37416W        W10484  30.928  30.606  11.229
37417W        W10485  25.120  26.173   1.934
37418W        W10486  35.884  10.119   1.468
37419W        W10487  17.959  40.820  13.502
37420W        W10488   3.206  43.127   3.397
37421W        W10489  43.911  39.396  14.085
37422W        W10490  32.807  16.266   2.395
37423W        W10491  21.024  36.462   5.144
37424W        W10492  26.164   7.832  12.490
37425W        W10493   6.156  16.529   3.656
37426W        W10494   4.156   4.478  14.458
37427W        W10495  13.720   9.352   1.402
37428W        W10496  26.044  29.416  13.947
37429W        W10497   5.442  14.360   0.651
37430W        W10498  15.295  24.073  11.737
37431W        W10499   1.367  28.659   2.267
37432W        W10500  41.311  25.255  11.514
37433W        W10501  14.687  13.569  14.750
37434W        W10502  41.860  19.447   4.535
37435W        W10503   6.469  32.998   3.683
37436W        W10504   8.887  30.888  13.210
37437W        W10505  29.105  11.203  12.883
37438W        W10506  40.096   8.402   4.217
37439W        W10507  40.535  11.979   1.441
37440W        W10508  37.925  14.545   4.735
37441W        W10509  20.170  29.899  14.339
37442W        W10510  37.544  43.721   3.128
37443W        W10511  32.235  20.317  12.116
37444W        W10512   1.329  26.030   4.406
37445W        W10513  20.459  12.064   0.477
37446W        W10514  32.595   2.634   0.838
37447W        W10515  38.955  43.276  13.984
37448W        W10516  22.741  40.365  13.999
37449W        W10517  16.981  30.706   0.907
37450W        W10518  33.370  13.799  12.974
37451W        W10519  14.889   5.899   3.853
37452W        W10520  15.600  26.100  10.806
37453W        W10521   5.650  36.817  11.387
37454W        W10522  18.698  11.636  13.830
37455W        W10523  16.205   8.366  12.836
37456W        W10524   9.193  26.916   1.265
37457W        W10525  26.665  39.211   0.662
37458W        W10526  26.611  22.254  10.733
37459W        W10527  10.986  13.840   4.684
37460W        W10528  18.643  38.649   0.002
37461W        W10529  35.477  30.059   3.008
37462W        W10530   6.751  14.667   0.694
37463W        W10531  19.492  31.244   4.186
37464W        W10532  39.643  40.876   4.278
37465W        W10533  21.181  41.474  12.810
37466W        W10534  29.438  17.645  14.855
37467W        W10535  35.145  31.441  13.074
37468W        W10536  42.342  14.828  11.578
37469W        W10537  25.681  30.106  10.779
37470W        W10538  12.710  14.238  11.627
37471W        W10539  37.968  38.946  13.080
37472W        W10540   1.287  36.716   3.624
37473W        W10541  21.164  22.682  13.801
37474W        W10542   9.568  19.879   2.428
37475W        W10543  15.623  18.174  10.743
37476W        W10544  15.773  34.188   4.020
37477W        W10545  11.406  36.930  14.619
37478W        W10546   9.731  15.328   5.154
37479W        W10547  17.671   4.343  11.022
37480W        W10548   9.328  38.151   4.183
37481W        W10549  39.370  37.338   4.539
37482W        W10550  31.149   9.296  11.619
37483W        W10551   0.520   8.309  11.923
37484W        W10552  41.570  44.903   4.481
37485W        W10553  40.556  31.140   2.363
37486W        W10554  27.732  13.772   4.605
37487W        W10555  40.299  38.934   4.148
37488W        W10556  35.029  30.533  10.614
37489W        W10557  23.151  15.579   0.752
37490W        W10558  10.372  35.725   2.973
37491W        W10559  26.735  41.852   0.775
37492W        W10560  11.838   0.658   4.123
37493W        W10561   2.667   3.783  11.231
37494W        W10562  42.018   7.054  14.399
37495W        W10563  25.020  15.505   4.691
37496W        W10564  36.800  25.664  14.299
37497W        W10565  40.573  12.129  12.765
37498W        W10566  39.952  17.963   4.909
37499W        W10567   8.402  21.624   0.410
37500W        W10568   5.252   9.840   1.806
37501W        W10569  24.357  36.346   1.676
37502W        W10570  27.425  35.678   2.254
37503W        W10571  27.096  16.081   4.258
37504W        W10572  32.886  33.641   2.896
37505W        W10573  36.488  19.781   1.333
37506W        W10574  42.723  32.613  13.935
37507W        W10575  28.533   8.275  13.845
37508W        W10576   9.924  21.711  12.117
37509W        W10577  29.121  33.803   3.977
37510W        W10578  38.268   3.276  13.058
37511W        W10579  17.632  21.261  10.461
37512W        W10580  34.170   6.232   0.828
37513W        W10581  41.894   5.591   4.409
37514W        W10582  39.555   1.874  11.078
37515W        W10583   9.706  17.815  11.604
37516W        W10584   9.327  27.492   2.366
37517W        W10585  29.997   8.970   0.106
37518W        W10586  27.208   3.434   1.769
37519W        W10587  14.355  43.298   0.406
37520W        W10588  30.960  17.558   4.236
37521W        W10589  39.528  33.139   3.223
37522W        W10590  13.179  29.169  13.415
37523W        W10591   1.110  11.179  11.279
37524W        W10592  14.469  16.078  10.823
37525W        W10593  32.652  19.255   1.187
37526W        W10594  10.073   8.878   4.967
37527W        W10595  38.408  36.372  12.055
37528W        W10596   0.638   5.627  11.210
37529W        W10597  21.681   4.029  14.590
37530W        W10598  31.099  23.205  12.881
37531W        W10599  29.399  44.872  11.899
37532W        W10600  41.752  26.960  11.161
37533W        W10601  19.153  16.117   2.009
37534W        W10602  18.612  36.285  12.414
37535W        W10603   6.972  26.871   1.782
37536W        W10604  43.981  26.299  13.186
37537W        W10605  31.145  33.582   9.889
37538W        W10606   5.960  23.701  10.995
37539W        W10607   6.733  10.922   3.681
37540W        W10608  26.786   4.822   4.544
37541W        W10609  33.883   8.231  11.825
37542W        W10610  23.980  21.575   2.025
37543W        W10611   5.926  27.412   0.456
37544W        W10612   0.221  12.271  14.648
37545W        W10613   5.354  37.029  10.569
37546W        W10614   6.633  40.978  13.489
37547W        W10615  26.432  26.580   0.550
37548W        W10616   8.170  21.742   2.248
37549W        W10617  16.307  18.551   1.754
37550W        W10618  13.183  25.338  11.191
37551W        W10619  33.973   1.853   0.252
37552W        W10620  12.054  10.237   3.780
37553W        W10621  13.732  29.994   2.884
37554W        W10622  12.321  15.734  12.756
37555W        W10623  12.029  40.537   3.793
37556W        W10624  34.921  17.056   3.599
37557W        W10625  12.618   6.392  12.185
37558W        W10626  31.729  20.026  13.378
37559W        W10627   7.903  14.050   0.551
37560W        W10628   8.710  44.085  14.897
37561W        W10629  19.302  41.709   1.409
37562W        W10630  29.063  32.550   1.321
37563W        W10631  33.867  40.639  11.259
37564W        W10632  16.726   1.413   4.034
37565W        W10633  11.170  38.835  10.849
37566W        W10634  22.693  42.808  13.562
37567W        W10635  37.098   5.886  13.072
37568W        W10636   3.396  23.733   4.180
37569W        W10637   1.753  11.862   4.614
37570W        W10638  29.890  24.342  12.512
37571W        W10639   7.888  16.397  14.410
37572W        W10640   7.281  16.481  11.029
37573W        W10641  44.787  13.115  11.127
37574W        W10642  41.824  17.751  11.609
37575W        W10643  19.011  10.712  14.511
37576W        W10644  34.577  30.581   1.540
37577W        W10645  11.117  10.278  12.168
37578W        W10646  40.815  32.277   0.675
37579W        W10647  43.036  29.490  13.358
37580W        W10648  41.496  25.672   0.348
37581W        W10649   4.061   5.451  14.114
37582W        W10650  44.913  11.810  12.125
37583W        W10651  10.277  37.793   4.118
37584W        W10652   8.405   8.273   0.674
37585W        W10653  30.640  20.650  11.255
37586W        W10654  37.368  30.090   1.844
37587W        W10655  21.390  19.204   3.725
37588W        W10656  22.716   1.284   2.158
37589W        W10657  24.943  24.557  14.842
37590W        W10658  40.868   9.779   0.908
37591W        W10659  13.132  19.277   4.638
37592W        W10660  11.604  12.556   0.535
37593W        W10661  17.991  18.187   0.458
37594W        W10662  29.106  31.997  13.799
37595W        W10663  43.959   3.759   2.860
37596W        W10664  14.144  32.706  13.540
37597W        W10665  25.463  42.788  10.595
37598W        W10666   5.147   7.794   0.032
37599W        W10667  30.674  34.124  13.853
37600W        W10668   9.099  17.743   2.315
37601W        W10669  33.466  13.640   0.557
37602W        W10670  32.402  26.819  14.410
37603W        W10671  20.489  23.964  14.367
37604W        W10672  23.438   1.383   3.219
37605W        W10673   9.955  21.149   3.186
37606W        W10674  31.310  31.969   2.937
37607W        W10675  22.963  41.795  13.932
37608W        W10676  40.921  29.137  12.395
37609W        W10677   1.330  29.941  10.997
37610W        W10678  16.135  24.622   2.194
37611W        W10679  29.217  25.620  14.223
37612W        W10680  34.324  42.877   0.339
37613W        W10681  11.243  23.644   4.046
37614W        W10682  14.259  16.076  14.962
37615W        W10683  42.720  12.279  14.910
37616W        W10684  44.919  38.269  14.545
37617W        W10685  10.780  13.663   0.274
37618W        W10686  22.710  42.954  14.686
37619W        W10687   5.768  37.864  13.230
37620W        W10688  25.166   0.738   4.261
37621W        W10689  16.993  23.648   3.766
37622W        W10690   5.406  24.335  14.415
37623W        W10691  26.089  31.558  13.833
37624W        W10692  23.673  16.895   3.588
37625W        W10693  34.655  16.200   3.188
37626W        W10694   0.298  38.409   3.374
37627W        W10695   0.819  36.826  13.342
37628W        W10696  37.934  21.629   2.719
37629W        W10697  42.515  17.775  11.897
37630W        W10698   8.113  12.382  11.659
37631W        W10699  30.575  25.481  13.038
37632W        W10700  20.056  42.391  11.056
37633W        W10701  21.521  12.288  11.657
37634W        W10702  26.510  23.703   3.847
37635W        W10703  23.465  43.691   2.103
37636W        W10704   2.862   8.213  12.421
37637W        W10705  30.232  10.341  11.640
37638W        W10706  31.229   6.981  13.294
37639W        W10707  21.782  11.176   2.426
37640W        W10708  20.282  10.256   4.319
37641W        W10709  19.867   8.862  10.632
37642W        W10710  29.382   6.158   1.862
37643W        W10711  36.067   0.199  11.615
37644W        W10712  19.740   5.181  12.392
37645W        W10713  28.036  38.808   2.744
37646W        W10714  22.072   9.951  14.984
37647W        W10715  23.900  35.404   2.811
37648W        W10716  24.541   6.595   0.182
37649W        W10717  20.122  21.640   4.559
37650W        W10718  21.028  31.403  13.698
37651W        W10719  33.891   4.828  11.210
37652W        W10720  27.005  40.315  13.592
37653W        W10721  17.508  22.534   2.469
37654W        W10722  27.909  32.442  13.348
37655W        W10723  36.821  38.509   1.525
37656W        W10724  28.209  10.633  13.986
37657W        W10725   6.668  18.648   2.257
37658W        W10726  18.986  18.895   1.874
37659W        W10727  43.187  18.732  12.843
37660W        W10728  37.682  38.694  14.015
37661W        W10729  14.662   0.020   1.716
37662W        W10730  27.601  25.150  13.563
37663W        W10731   9.017  17.210   4.777
37664W        W10732   7.306  33.057  13.986
37665W        W10733  44.219  27.448  12.619
37666W        W10734   0.651  29.732  11.248
37667W        W10735   9.782   6.649   3.649
37668W        W10736  41.847  27.339  11.946
37669W        W10737  30.998  25.041   2.624
37670W        W10738  23.195  42.527   1.711
37671W        W10739  29.067   9.258   0.796
37672W        W10740  12.852   4.797   3.694
37673W        W10741  29.641  43.718   0.526
37674W        W10742  12.748  31.646   4.292
37675W        W10743   3.304   0.443  14.507
37676W        W10744  18.163  38.586  14.686
37677W        W10745  31.160  30.473   2.206
37678W        W10746  16.978  24.155  12.851
37679W        W10747   9.399  39.933  12.059
37680W        W10748   5.221   1.917   4.627
37681W        W10749  41.051  28.519  11.121
37682W        W10750  10.911  26.737   2.953
37683W        W10751  35.784  17.228   0.318
37684W        W10752  31.927  44.480   3.622
37685W        W10753   4.751   8.838   3.230
37686W        W10754   3.697   7.940  11.597
37687W        W10755   8.300  20.524   1.796
37688W        W10756  35.687  32.207   4.046
37689W        W10757  31.437  10.405  14.470
37690W        W10758  34.807  30.124   0.785
37691W        W10759  42.002   1.016   1.186
37692W        W10760  12.101  31.948  12.278
37693W        W10761  17.236  20.749   2.864
37694W        W10762  21.545   6.720   1.017
37695W        W10763  36.348  23.268  14.584
37696W        W10764  10.304  23.721  11.099
37697W        W10765  30.727   3.031  10.751
37698W        W10766   8.279   0.478   3.314
37699W        W10767  30.763  15.166   0.960
37700W        W10768  11.825  43.524  14.658
37701W        W10769   3.806  23.139   4.730
37702W        W10770  14.327  13.457   1.905
37703W        W10771  22.597  34.101   1.539
37704W        W10772  36.407  36.682  13.511
37705W        W10773  29.873  28.458   1.193
37706W        W10774   8.704  27.559  14.958
37707W        W10775  25.191   5.653   1.431
37708W        W10776  14.674  44.224  14.172
37709W        W10777  35.409  14.771   4.523
37710W        W10778   4.655   0.323  11.472
37711W        W10779  12.245  41.875  10.987
37712W        W10780  37.416  23.105  13.857
37713W        W10781  35.767   9.128   2.628
37714W        W10782   4.354  23.100   0.981
37715W        W10783  28.995   8.809   2.155
37716W        W10784  28.189  33.451  12.514
37717W        W10785  19.922   0.456   1.924
37718W        W10786  25.038  11.311  13.711
37719W        W10787  39.353  43.519  12.846
37720W        W10788  29.728  19.052   5.091
37721W        W10789  25.009  31.609   1.973
37722W        W10790  37.794   4.823   0.878
37723W        W10791  18.639  23.345  13.293
37724W        W10792   5.767  43.229  14.441
37725W        W10793  19.714  10.326  12.076
37726W        W10794  36.036   3.797   2.273
37727W        W10795   0.603  35.689   2.101
37728W        W10796  33.527  44.377   0.713
37729W        W10797  39.500  32.164  12.547
37730W        W10798  44.703  10.344  11.650
37731W        W10799  27.676  26.468  12.403
37732W        W10800  41.976   7.226   1.426
37733W        W10801  10.622  35.958  14.751
37734W        W10802  10.133  30.511  11.593
37735W        W10803  35.875  36.361   0.748
37736W        W10804  11.883  43.935   5.098
37737W        W10805  36.090   7.693   0.886
37738W        W10806  44.705  29.888   2.302
37739W        W10807  41.942  38.939  11.713
37740W        W10808   1.396  10.179   0.346
37741W        W10809  10.878  17.736  14.939
37742W        W10810   2.987   1.264   2.203
37743W        W10811  22.431  21.154   2.798
37744W        W10812  21.581  20.586   2.178
37745W        W10813  23.995  13.042   4.402
37746W        W10814  43.903  14.111  11.684
37747W        W10815  43.439   1.998  14.283
37748W        W10816   9.837  36.021  12.634
37749W        W10817  16.153  20.184   2.372
37750W        W10818  28.476  40.981   1.707
37751W        W10819   5.877  42.965   4.138
37752W        W10820  40.453  31.571  10.998
37753W        W10821  43.265  42.054  13.137
37754W        W10822  28.600  20.101  12.548
37755W        W10823  19.994  13.129  14.400
37756W        W10824  33.635  16.709   3.611
37757W        W10825  37.118   3.111   2.811
37758W        W10826  16.355  33.450   0.244
37759W        W10827   1.347  23.939   1.774
37760W        W10828  33.456   9.880  11.433
37761W        W10829   9.710  43.116  12.253
37762W        W10830   8.896  18.684  13.066
37763W        W10831  14.750   4.384  11.040
37764W        W10832  21.985   7.108   1.901
37765W        W10833  31.890  30.670   2.764
37766W        W10834   9.609  14.256  14.553
37767W        W10835  15.247  14.424   2.644
37768W        W10836  25.015  40.952  12.108
37769W        W10837  33.496  33.104  12.872
37770W        W10838   0.916  11.335   4.873
37771W        W10839  36.910  11.173  11.453
37772W        W10840   8.925  28.467   1.931
37773W        W10841  28.739  39.457  14.385
37774W        W10842   9.335  24.112   2.077
37775W        W10843  41.509  12.916  14.219
37776W        W10844  14.811  10.089  11.609
37777W        W10845  10.092   0.960   2.834
37778W        W10846   7.828  27.456   1.753
37779W        W10847  11.324  24.968   4.112
37780W        W10848  35.395  12.136  14.333
37781W        W10849  42.398  41.437   3.659
37782W        W10850  15.262  28.701  13.901
37783W        W10851  34.355   5.143   1.778
37784W        W10852  15.170   1.586  12.890
37785W        W10853  23.022  20.596  10.619
37786W        W10854  43.901  21.760   4.702
37787W        W10855  32.567  17.785  11.153
37788W        W10856  40.013   7.725   9.763
37789W        W10857  42.536  28.716   0.976
37790W        W10858  39.490  28.579   3.283
37791W        W10859  35.632  25.969  14.641
37792W        W10860  30.598  32.624  12.092
37793W        W10861   6.551  19.249  11.900
37794W        W10862  43.462  32.747   3.677
37795W        W10863  34.807  25.521  10.850
37796W        W10864  32.349  31.995  11.974
37797W        W10865  41.873   2.793   3.208
37798W        W10866   9.006  36.971   0.425
37799W        W10867  44.231  14.655   1.206
37800W        W10868  42.555  32.952  12.349
37801W        W10869  16.799   5.438  11.060
37802W        W10870  26.276  37.763   4.554
37803W        W10871   3.376   7.689   4.544
37804W        W10872  28.774  42.546   5.174
37805W        W10873  39.386   1.986  12.898
37806W        W10874   2.359  17.104   0.872
37807W        W10875  23.026  15.672   4.138
37808W        W10876  13.645  26.906   0.949
37809W        W10877   4.118   1.457   1.155
37810W        W10878  41.926  25.273   1.319
37811W        W10879   2.766  22.070  11.532
37812W        W10880   9.421  27.853  13.402
37813W        W10881   4.170  24.633  14.500
37814W        W10882  31.623  22.537   4.576
37815W        W10883  39.402  30.547   0.456
37816W        W10884  31.329  30.124   0.958
37817W        W10885  23.151  43.444   2.583
37818W        W10886  39.946  37.321  10.698
37819W        W10887  12.165  23.037  12.959
37820W        W10888   6.883   5.808  14.051
37821W        W10889   9.266  10.858   2.770
37822W        W10890  28.681  16.927   2.737
37823W        W10891  12.672   5.124  13.994
37824W        W10892  23.179  24.146   1.475
37825W        W10893  10.747  27.224  10.412
37826W        W10894  21.019   7.128   2.172
37827W        W10895  38.065  10.686   0.938
37828W        W10896  31.795  32.172  12.024
37829W        W10897  28.492   9.439   0.448
37830W        W10898  28.475  39.990   1.048
37831W        W10899   3.010  39.435  14.885
37832W        W10900  27.225  35.967  10.799
37833W        W10901  11.141  24.547   4.359
37834W        W10902  23.437  26.524   3.376
37835W        W10903   2.881  31.656   3.801
37836W        W10904  31.803   8.941   1.189
37837W        W10905   9.684  18.114   4.796
37838W        W10906  41.338  31.539  10.687
37839W        W10907  24.081   6.217   0.925
37840W        W10908  10.665   2.855   2.672
37841W        W10909   6.225   4.039  13.784
37842W        W10910   0.730  22.568   2.796
37843W        W10911  13.216  44.857   2.249
37844W        W10912  32.971  18.097   1.867
37845W        W10913   7.243  31.971  12.494
37846W        W10914  26.927   2.234  13.425
37847W        W10915  13.807  13.041  12.594
37848W        W10916   3.796   1.842   0.479
37849W        W10917   7.142  15.803   1.909
37850W        W10918  22.250  17.793   3.137
37851W        W10919  39.366  38.423  11.990
37852W        W10920  42.928  42.893  12.497
37853W        W10921  44.944  32.806  10.479
37854W        W10922  36.375  30.851   5.007
37855W        W10923  40.023   4.325  14.764
37856W        W10924  38.978  19.284  13.360
37857W        W10925  30.561  23.040   0.792
37858W        W10926  29.638  32.090  10.688
37859W        W10927  17.352  17.825  11.521
37860W        W10928  28.633  44.390  11.553
37861W        W10929  24.375  42.295  11.495
37862W        W10930  23.415  26.902  12.959
37863W        W10931  33.918   9.614   2.798
37864W        W10932  14.260  33.166   2.008
37865W        W10933  24.638   3.006   0.381
37866W        W10934   9.490  39.899   2.828
37867W        W10935  39.271  33.867   2.171
37868W        W10936  35.124   7.300  13.370
37869W        W10937  35.004   5.978  11.148
37870W        W10938  40.344  22.866  12.340
37871W        W10939  42.504  41.297  13.322
37872W        W10940  35.414  28.991  11.227
37873W        W10941   8.573  26.434  11.595
37874W        W10942   0.140  17.993  14.407
37875W        W10943  37.458   9.677  13.431
37876W        W10944  42.457  36.009   2.574
37877W        W10945  18.325  19.192   3.663
37878W        W10946  26.533   1.574  12.775
37879W        W10947  30.309   9.599  12.427
37880W        W10948  40.072  26.925   0.035
37881W        W10949   4.394  15.205  11.102
37882W        W10950  40.505  22.784  11.624
37883W        W10951  39.687   7.684   4.600
37884W        W10952  36.447  11.183   1.865
37885W        W10953  42.342   1.974   4.748
37886W        W10954  25.134  14.284  10.661
37887W        W10955   4.908  39.958   0.989
37888W        W10956   6.243  13.326  10.658
37889W        W10957  23.156  11.387  14.938
37890W        W10958   7.460  29.181   3.374
37891W        W10959   2.966  26.934   2.810
37892W        W10960  22.050  26.955   4.357
37893W        W10961  35.303  13.864  11.932
37894W        W10962  36.053  44.910   2.690
37895W        W10963  42.844  10.206   4.971
37896W        W10964  34.279  33.991   5.244
37897W        W10965  43.980  24.004   0.392
37898W        W10966   3.923   7.237  10.381
37899W        W10967  16.722  25.692  13.286
37900W        W10968  15.631  26.593   2.288
37901W        W10969  43.739  14.405  12.065
37902W        W10970  30.198  28.527   0.776
37903W        W10971  34.053  16.277  14.783
37904W        W10972  44.488   6.757   3.692
37905W        W10973   3.750   9.838  13.672
37906W        W10974  32.567   5.376  11.582
37907W        W10975  11.819  16.655   5.229
37908W        W10976  21.174  44.864   1.927
37909W        W10977  22.928  16.819  10.683
37910W        W10978  33.449  38.838  13.884
37911W        W10979  12.726  38.281   2.677
37912W        W10980   0.139  26.621   2.342
37913W        W10981  23.778   3.844  14.777
37914W        W10982  43.680  35.153  10.766
37915W        W10983   5.917  11.828   4.673
37916W        W10984  33.941  22.012  10.651
37917W        W10985  19.542  24.942  14.869
37918W        W10986  10.981  34.427  13.801
37919W        W10987  39.336  23.092   1.964
37920W        W10988  24.541  18.779   4.076
37921W        W10989   4.175   4.307  11.193
37922W        W10990  25.663  12.824   4.102
37923W        W10991   9.381  44.439  12.093
37924W        W10992  40.496  28.675   0.379
37925W        W10993  33.439  23.070  12.506
37926W        W10994  19.964  22.048   3.296
37927W        W10995  43.389  23.779   4.401
37928W        W10996   6.647  39.441  13.504
37929W        W10997  20.566   5.911   2.473
37930W        W10998  32.642  40.500   4.300
37931W        W10999   3.229   2.878   1.290
37932W        W11000  31.899  16.344   3.319
37933W        W11001  30.548   8.283  13.148
37934W        W11002  41.386  36.283   0.395
37935W        W11003   1.964  28.169   4.514
37936W        W11004  30.152   2.203  12.524
37937W        W11005  14.077  26.259   2.790
37938W        W11006  38.801   8.509  10.119
37939W        W11007  23.077  39.923  13.953
37940W        W11008  23.669  13.144  13.411
37941W        W11009  19.528  34.948  12.495
37942W        W11010  38.607  33.620   3.610
37943W        W11011  39.062  36.804  12.852
37944W        W11012  44.540  44.741   2.038
37945W        W11013  41.368   0.780  11.543
37946W        W11014  18.193  16.652  12.185
37947W        W11015  18.790  37.409  14.970
37948W        W11016  38.491  22.739   0.033
37949W        W11017  41.574  12.743   4.342
37950W        W11018  37.946  39.959  13.357
37951W        W11019  16.066   7.671   2.291
37952W        W11020  10.339  23.559  13.441
37953W        W11021  17.138   7.840  11.467
37954W        W11022  15.188  37.571   4.196
37955W        W11023  15.784  19.632  14.951
37956W        W11024  39.104  12.745   4.033
37957W        W11025   3.466  36.529   2.423
37958W        W11026  36.081  21.111   3.873
37959W        W11027  22.303  12.364   4.118
37960W        W11028  12.169  38.843  12.451
37961W        W11029  24.100  44.004   1.427
37962W        W11030   2.178  25.871  13.031
37963W        W11031  25.679   1.890   4.755
37964W        W11032  24.583  22.519  13.942
37965W        W11033  12.100  21.274  12.767
37966W        W11034  33.278   6.426   2.218
37967W        W11035   9.768  34.532   0.963
37968W        W11036   0.045  35.907  12.648
37969W        W11037  43.101  13.863   3.299
37970W        W11038  26.224  38.623  11.280
37971W        W11039   0.403  20.021  13.000
37972W        W11040  39.079  28.657   4.131
37973W        W11041  31.977  23.950  11.105
37974W        W11042  32.808  44.429   3.083
37975W        W11043  25.058  44.983  14.008
37976W        W11044  40.301  44.400   4.431
37977W        W11045  20.987  10.529  11.510
37978W        W11046  43.901   5.225   0.779
37979W        W11047  29.967  33.435  10.843
37980W        W11048  35.486   2.296  14.972
37981W        W11049  33.335  34.197   1.181
37982W        W11050  19.050  32.541   0.892
37983W        W11051  14.569   2.355   4.646
37984W        W11052   7.668  13.119  11.080
37985W        W11053  39.442   9.629   3.854
37986W        W11054  27.053  26.847  11.824
37987W        W11055  32.612  10.253   0.900
37988W        W11056  26.165  18.799  11.101
37989W        W11057  21.631  29.052  14.848
37990W        W11058  40.804   1.099   3.240
37991W        W11059  19.258  42.826   4.076
37992W        W11060  19.037  41.206  12.543
37993W        W11061  38.047  36.043  10.324
37994W        W11062  14.528  13.629  13.900
37995W        W11063  43.468  10.702  14.835
37996W        W11064  24.430   3.363  13.979
37997W        W11065   4.434  25.581  14.195
37998W        W11066   7.242  38.068   2.862
37999W        W11067  39.808  15.951   1.278
38000W        W11068  32.295   0.050   3.343
38001W        W11069  35.724  29.041  10.787
38002W        W11070  13.834  44.348   4.084
38003W        W11071  15.626  15.605  12.573
38004W        W11072  41.637  39.144  11.164
38005W        W11073  20.075  40.514   4.098
38006W        W11074   7.981   0.115   9.667
38007W        W11075   4.985   2.393  12.972
38008W        W11076  40.108  16.099   0.856
38009W        W11077   2.468  23.117  10.633
38010W        W11078  27.421   7.652   4.449
38011W        W11079  15.781  13.670  11.555
38012W        W11080  13.725  35.630   1.188
38013W        W11081  17.847  28.151   1.078
38014W        W11082  32.740  31.699  12.892
38015W        W11083  12.599  40.084  11.057
38016W        W11084  36.898  10.268  12.362
38017W        W11085  15.561  44.114  10.203
38018W        W11086  12.220  38.122   0.038
38019W        W11087  16.776  10.360   0.945
38020W        W11088  27.086   6.353  13.955
38021W        W11089   6.364  24.602   3.069
38022W        W11090  28.843   7.368  11.586
38023W        W11091  27.091  13.843   1.196
38024W        W11092  10.418  16.561  13.407
38025W        W11093   8.214  43.828  11.690
38026W        W11094  10.505  27.429   0.219
38027W        W11095   2.255  26.100  12.567
38028W        W11096  23.213  28.700   4.361
38029W        W11097   5.454  14.223   3.701
38030W        W11098   0.272   4.994  12.640
38031W        W11099   1.482  11.671   0.175
38032W        W11100  27.141  35.620   3.326
38033W        W11101   4.739  44.807  10.665
38034W        W11102  26.016  21.140  11.373
38035W        W11103   3.058  27.577   4.130
38036W        W11104  15.250  28.037  13.685
38037W        W11105  44.424  36.999   4.031
38038W        W11106  20.691  24.502   3.839
38039W        W11107  37.338  13.561  13.236
38040W        W11108  23.752  34.464  14.841
38041W        W11109  11.253  19.843  11.027
38042W        W11110  24.573   1.926   3.942
38043W        W11111  36.373  26.530   1.330
38044W        W11112  18.216  35.982  11.525
38045W        W11113   5.495  28.171  13.423
38046W        W11114  19.300  25.096   0.353
38047W        W11115   5.355   5.675   2.182
38048W        W11116   7.424  12.635   1.025
38049W        W11117  14.105   7.428  14.443
38050W        W11118  37.737   0.338  13.800
38051W        W11119  17.498  42.443  11.958
38052W        W11120  31.797  36.083   3.609
38053W        W11121  26.119  37.987   4.983
38054W        W11122  36.395  10.284   1.383
38055W        W11123  31.380  37.006  13.004
38056W        W11124   5.547  44.282   4.757
38057W        W11125  11.280  42.874   3.339
38058W        W11126  31.663   3.155   3.776
38059W        W11127  20.300   9.864  10.702
38060W        W11128  23.054  27.395  11.535
38061W        W11129  29.507   9.134   2.912
38062W        W11130  17.708   2.607  14.037
38063W        W11131  10.407  38.436   0.388
38064W        W11132   0.431  31.152  12.951
38065W        W11133   6.355  38.978  11.429
38066W        W11134  17.895   0.740   0.633
38067W        W11135  43.715  44.245   0.217
38068W        W11136  22.622  34.488   4.718
38069W        W11137  18.242  19.005   1.166
38070W        W11138  42.103  18.093   0.879
38071W        W11139  38.632  31.681  10.751
38072W        W11140   9.198  21.045   4.750
38073W        W11141  41.501  12.984   0.888
38074W        W11142  42.409  43.991  12.047
38075W        W11143  30.664   7.256   0.052
38076W        W11144  27.441   2.479  10.865
38077W        W11145   2.258  15.344   2.215
38078W        W11146  25.260  32.066   5.101
38079W        W11147  40.499  32.293  11.543
38080W        W11148   6.448  14.206   2.684
38081W        W11149  11.800  23.261  13.992
38082W        W11150  37.055  17.233   4.498
38083W        W11151  33.394  39.924   2.689
38084W        W11152  37.880  31.365  14.771
38085W        W11153   6.189  29.017  11.644
38086W        W11154   0.551  18.617   0.121
38087W        W11155  32.991  21.669  11.550
38088W        W11156  30.958  37.779  10.432
38089W        W11157  27.595  17.334  13.940
38090W        W11158  34.412  41.591   2.138
38091W        W11159   4.274   4.439   0.783
38092W        W11160  25.159  32.128   4.592
38093W        W11161  27.493   1.182   3.789
38094W        W11162  21.443   6.479  13.758
38095W        W11163  44.539   1.905   1.755
38096W        W11164  35.395  20.080  10.611
38097W        W11165  20.781  23.266  11.125
38098W        W11166  16.807  44.896   3.264
38099W        W11167  16.458  44.533  14.154
38100W        W11168   8.499   4.937  11.123
38101W        W11169  16.551  43.021  12.626
38102W        W11170  32.126  31.815  11.143
38103W        W11171  42.182  25.704   1.889
38104W        W11172  21.023  11.537   1.843
38105W        W11173  13.626  17.626  13.438
38106W        W11174  35.901  28.468   1.998
38107W        W11175   9.978   7.841   0.449
38108W        W11176  20.126  35.343  13.866
38109W        W11177   1.227   3.217   0.800
38110W        W11178  38.522  30.165   3.177
38111W        W11179  39.779  26.380   2.315
38112W        W11180   7.816  25.203  13.871
38113W        W11181  23.240  25.107  14.395
38114W        W11182   3.688  41.039   2.905
38115W        W11183  41.545  20.976  13.798
38116W        W11184  22.585  33.347  11.664
38117W        W11185   4.959   7.721   2.857
38118W        W11186  15.772  42.287   1.230
38119W        W11187  17.111  28.343  11.203
38120W        W11188  23.191   9.384   0.004
38121W        W11189  25.420   3.383   1.067
38122W        W11190  19.306  41.794  11.042
38123W        W11191  12.150  15.197  11.905
38124W        W11192  37.761  36.852   3.654
38125W        W11193  29.457  18.294  11.347
38126W        W11194  33.843  22.066   1.368
38127W        W11195   3.465  31.820   4.042
38128W        W11196   1.631  26.026  13.401
38129W        W11197   8.830   0.435  10.708
38130W        W11198   4.155  23.977  12.598
38131W        W11199  43.244   6.231   1.829
38132W        W11200   8.245   8.691   4.089
38133W        W11201   9.331   2.533   1.468
38134W        W11202  31.919  28.365  13.249
38135W        W11203   8.108   0.937  12.164
38136W        W11204  20.858  26.420   0.890
38137W        W11205  24.116   8.440  12.917
38138W        W11206  11.454   3.897   3.429
38139W        W11207  35.398  29.351   0.442
38140W        W11208  36.283  15.870  13.284
38141W        W11209  21.926   5.668   3.217
38142W        W11210  10.402  37.545   3.683
38143W        W11211  20.010   3.725  14.874
38144W        W11212  28.030  11.393  10.406
38145W        W11213  33.807  11.228   4.449
38146W        W11214  36.854  28.018  11.693
38147W        W11215  27.264  35.931   0.910
38148W        W11216  36.509   9.937  11.758
38149W        W11217  22.196  43.079   3.230
38150W        W11218  12.606  17.875  11.766
38151W        W11219  30.941  39.497  14.486
38152W        W11220  10.260  33.636   2.202
38153W        W11221  23.780  23.747  13.358
38154W        W11222   5.322  28.478   4.766
38155W        W11223  16.331  31.738  11.151
38156W        W11224   0.993  44.198   0.039
38157W        W11225  12.353  14.170   1.600
38158W        W11226  18.534  30.992   0.284
38159W        W11227  29.318  10.500  10.094
38160W        W11228  17.265  30.842  12.621
38161W        W11229  44.343  12.723   4.397
38162W        W11230  23.059  33.922   1.689
38163W        W11231  21.259  39.368   2.943
38164W        W11232  37.597  33.411  12.854
38165W        W11233   5.934  30.876  10.625
38166W        W11234  26.914  12.736  14.352
38167W        W11235  26.900   4.855   1.143
38168W        W11236  40.476  18.527   2.234
38169W        W11237  40.076  13.373  14.949
38170W        W11238   6.451  30.487  11.656
38171W        W11239  21.635  12.731   3.410
38172W        W11240  35.380  40.361  11.057
38173W        W11241  40.833   7.851  12.411
38174W        W11242   1.278  35.863   2.292
38175W        W11243  42.051  18.844  11.158
38176W        W11244  35.823  28.611  14.353
38177W        W11245  29.019  10.701   0.143
38178W        W11246  23.448   7.657   3.615
38179W        W11247  34.383  24.018   2.001
38180W        W11248   5.353   2.020  14.382
38181W        W11249   2.600  39.426   3.179
38182W        W11250  44.789  31.853  14.446
38183W        W11251  37.469  24.587   1.383
38184W        W11252  34.589  19.610  12.555
38185W        W11253   6.214  19.215  14.603
38186W        W11254   0.205  24.996  14.085
38187W        W11255  18.569  15.708  10.696
38188W        W11256  11.383  10.412  11.443
38189W        W11257  32.429   6.716   1.518
38190W        W11258  41.924  35.566  11.416
38191W        W11259  20.316  25.545   1.652
38192W        W11260  27.272  28.705  11.553
38193W        W11261  40.495  34.093  11.667
38194W        W11262  12.912  30.065  10.616
38195W        W11263  17.419  39.566   3.852
38196W        W11264  39.912  44.519   0.927
38197W        W11265   0.801  41.839  11.635
38198W        W11266  21.706   0.699   3.125
38199W        W11267  24.678   9.857   4.135
38200W        W11268   4.121  25.171  12.986
38201W        W11269  30.748  36.459   0.358
38202W        W11270  27.501  22.505   1.257
38203W        W11271  35.011  20.123   0.475
38204W        W11272  14.337  17.610  13.109
38205W        W11273  40.075  27.236  12.581
38206W        W11274  16.684   1.198   4.507
38207W        W11275  20.775  32.494   0.248
38208W        W11276  18.955  20.215  12.918
38209W        W11277   0.768  15.731   1.038
38210W        W11278  42.069  37.396  14.084
38211W        W11279  10.300   5.365   3.449
38212W        W11280  20.504   1.826   0.820
38213W        W11281   5.818  37.382  14.086
38214W        W11282   2.362  19.300   1.452
38215W        W11283  15.574  10.542  10.687
38216W        W11284   6.317  34.179  14.328
38217W        W11285  17.318  24.526   0.841
38218W        W11286  11.688  44.674   2.347
38219W        W11287  42.507  37.800   1.361
38220W        W11288  21.825   0.007   1.768
38221W        W11289  10.769  44.620  12.847
38222W        W11290  40.225   5.295   3.639
38223W        W11291  13.399  36.309  12.538
38224W        W11292  26.666  35.885   2.667
38225W        W11293  43.037  28.035  11.600
38226W        W11294  32.440  18.826  13.704
38227W        W11295  32.110  27.523  10.012
38228W        W11296  27.064  20.675   2.574
38229W        W11297  33.580   1.379   0.322
38230W        W11298  43.336  15.175   3.995
38231W        W11299  29.800  33.814   1.246
38232W        W11300  29.866  39.083   3.763
38233W        W11301   6.733   5.863   4.551
38234W        W11302  37.600  23.067   2.320
38235W        W11303  14.324  19.433  11.605
38236W        W11304  12.131  16.458  11.483
38237W        W11305  33.465  16.219  11.892
38238W        W11306   4.160  30.413   2.175
38239W        W11307  23.269  34.634  12.423
38240W        W11308   2.229  27.529  11.054
38241W        W11309   8.941  23.015  14.933
38242W        W11310   9.791  20.799  11.625
38243W        W11311  18.030  11.340   0.346
38244W        W11312  18.113   3.929  14.429
38245W        W11313   4.575   7.459  12.388
38246W        W11314  23.144  34.552  13.912
38247W        W11315  15.014  35.950  12.093
38248W        W11316  42.361  44.308   4.861
38249W        W11317  11.111  28.901   0.866
38250W        W11318  35.390   1.844   4.506
38251W        W11319   4.975  17.729   3.348
38252W        W11320  13.837  23.121   1.256
38253W        W11321  44.220  32.202   4.089
38254W        W11322  20.554  10.818  12.530
38255W        W11323  31.379  44.045   2.599
38256W        W11324  10.295  32.611  12.503
38257W        W11325  15.254  24.004  14.833
38258W        W11326  24.062  32.366   2.717
38259W        W11327  14.661  27.616   1.933
38260W        W11328  44.316  40.428   5.003
38261W        W11329  10.539   0.408   4.664
38262W        W11330  23.555  29.078   2.615
38263W        W11331  25.760  43.828   2.147
38264W        W11332   2.885   0.529   4.509
38265W        W11333  18.856   0.707   1.254
38266W        W11334  25.032   2.825  10.647
38267W        W11335  23.280  42.061   1.954
38268W        W11336   3.635   6.267  11.068
38269W        W11337  14.968  11.838   3.725
38270W        W11338  41.368  20.969  11.194
38271W        W11339   8.569  36.508   2.135
38272W        W11340  41.884  41.687  13.297
38273W        W11341  43.481  10.672  12.865
38274W        W11342  34.144  39.243   3.681
38275W        W11343  18.589  33.297   2.109
38276W        W11344   3.511  15.101  14.498
38277W        W11345   5.242  42.042  14.915
38278W        W11346  27.940  35.611   3.158
38279W        W11347  28.714  25.217  14.947
38280W        W11348  15.856  33.888  13.764
38281W        W11349  27.578  35.004  10.910
38282W        W11350  40.821   6.657   3.677
38283W        W11351  31.447  14.864  14.668
38284W        W11352  13.192  36.016  10.378
38285W        W11353  25.425  36.451   0.701
38286W        W11354   2.017  21.727  14.757
38287W        W11355  37.506  42.475   2.793
38288W        W11356   7.512  39.064   0.827
38289W        W11357  41.407  27.905   3.801
38290W        W11358  21.361  39.680  14.841
38291W        W11359   2.070  31.174  12.495
38292W        W11360  39.814  41.689  12.108
38293W        W11361  30.724   1.761   2.326
38294W        W11362  21.504  10.908  14.406
38295W        W11363  36.000  35.585   4.644
38296W        W11364  32.998   1.515   2.204
38297W        W11365  35.837  29.607  14.327
38298W        W11366  14.225  38.063  11.714
38299W        W11367   5.390  26.404   4.591
38300W        W11368  11.703  17.115   4.169
38301W        W11369  21.202   4.806  11.161
38302W        W11370  12.830  25.068   3.134
38303W        W11371  28.972  43.879  10.705
38304W        W11372  43.555  37.435   3.416
38305W        W11373  10.597  20.834   0.379
38306W        W11374  19.626   4.160   4.083
38307W        W11375  36.316  31.544   0.729
38308W        W11376  40.323  13.705  10.489
38309W        W11377   0.405   4.435   0.169
38310W        W11378  43.961  17.760   1.169
38311W        W11379   1.613   8.540  12.109
38312W        W11380   3.919  22.657  12.319
38313W        W11381  35.311   8.882  10.728
38314W        W11382  10.183   9.795   0.436
38315W        W11383   0.179  14.214   0.280
38316W        W11384  24.775  43.257   1.428
38317W        W11385  35.138  36.764  10.894
38318W        W11386   6.763   7.261  12.427
38319W        W11387   7.749  41.070   3.218
38320W        W11388  13.084   2.687  12.570
38321W        W11389  29.197  13.829   1.236
38322W        W11390  39.080  33.373   9.831
38323W        W11391  11.605  19.180  12.629
38324W        W11392  10.806  16.577  14.888
38325W        W11393  25.581  44.134  10.047
38326W        W11394  11.909  10.217   0.495
38327W        W11395   2.489  33.121  14.495
38328W        W11396  11.272   9.352  13.992
38329W        W11397   7.706   4.011   1.649
38330W        W11398   6.444   3.807   2.462
38331W        W11399  30.573  27.453   2.324
38332W        W11400  20.865  36.711  12.090
38333W        W11401  22.270  19.638   3.712
38334W        W11402  31.101  15.789  11.657
38335W        W11403  10.223  12.060   1.930
38336W        W11404  24.966  24.667  12.405
38337W        W11405  26.592  26.197  11.504
38338W        W11406   0.057  15.603  10.913
38339W        W11407   8.961   9.755   2.920
38340W        W11408  10.347  21.731  12.909
38341W        W11409   2.844  41.242  14.842
38342W        W11410  34.971   7.680   1.286
38343W        W11411   5.501  37.130   3.705
38344W        W11412  34.992  41.095  11.556
38345W        W11413   6.690  22.423  10.775
38346W        W11414   6.275  40.743  10.666
38347W        W11415  42.931   9.656  12.501
38348W        W11416  41.815  34.108  11.540
38349W        W11417  11.887  31.404  14.489
38350W        W11418  24.549  29.914   2.721
38351W        W11419  10.609  11.798   2.203
38352W        W11420  16.884  37.111  13.986
38353W        W11421  35.272  19.302  12.068
38354W        W11422   5.378  35.259  14.831
38355W        W11423   6.409  32.066  14.804
38356W        W11424  38.172  18.630   2.018
38357W        W11425  44.731   9.390  13.997
38358W        W11426  10.635  22.324   3.339
38359W        W11427  27.138  24.570  11.664
38360W        W11428  42.308   0.064  12.905
38361W        W11429  21.628  33.103  10.529
38362W        W11430  34.852  14.794   1.322
38363W        W11431  18.276  22.002   4.264
38364W        W11432  20.772  10.773  10.712
38365W        W11433  13.263  44.063  11.881
38366W        W11434  33.822  26.261  13.076
38367W        W11435  13.213  44.158  10.499
38368W        W11436  30.153   1.208   2.788
38369W        W11437   2.835   0.447  13.921
38370W        W11438  21.614  16.691  14.507
38371W        W11439  34.808  13.399  14.537
38372W        W11440  20.444  14.676   1.805
38373W        W11441   4.264  25.438   3.784
38374W        W11442  39.201  30.989  12.012
38375W        W11443  19.006  24.579   2.340
38376W        W11444  39.551  20.481   3.638
38377W        W11445  19.130  20.719  12.852
38378W        W11446  25.681   8.634  12.512
38379W        W11447  27.609   9.728   2.412
38380W        W11448   9.667  26.213  13.989
38381W        W11449  35.489  37.432   2.380
38382W        W11450  39.548  29.462   3.726
38383W        W11451  14.870  35.631  14.360
38384W        W11452  31.608   9.225  10.715
38385W        W11453  13.714  30.633   4.153
38386W        W11454  15.079  43.535   3.164
38387W        W11455  30.740  23.660  10.884
38388W        W11456  11.392   6.558  10.561
38389W        W11457   3.828   1.695   1.961
38390W        W11458  16.300  25.834   0.485
38391W        W11459   4.483  20.182   2.676
38392W        W11460  22.634   3.910  14.039
38393W        W11461  29.147   1.325  14.447
38394W        W11462  19.470   1.190   1.781
38395W        W11463  13.287  10.842   2.707
38396W        W11464  44.659  44.923   2.812
38397W        W11465   5.669  35.454   3.693
38398W        W11466  24.084  30.384   0.591
38399W        W11467  41.548  25.094   3.700
38400W        W11468   3.513   6.486   3.157
38401W        W11469  22.067  11.519   2.722
38402W        W11470  43.570  20.204   1.388
38403W        W11471  10.146  20.607  12.057
38404W        W11472  43.261  44.421  14.291
38405W        W11473   0.564   0.829   1.852
38406W        W11474   2.241  16.558   0.181
38407W        W11475  15.042  17.937   0.856
38408W        W11476  18.259  26.801  11.629
38409W        W11477  24.148  38.040   4.642
38410W        W11478   8.112  23.100  10.947
38411W        W11479  30.190   5.173  14.412
38412W        W11480  39.620  30.637  12.508
38413W        W11481  40.278  19.085   1.338
38414W        W11482  10.041  39.891  10.196
38415W        W11483   4.182  31.598   0.350
38416W        W11484   2.051   4.787  11.522
38417W        W11485   5.848  10.605  11.194
38418W        W11486  33.365   7.933   3.527
38419W        W11487  41.772   6.704  11.611
38420W        W11488  20.537  43.388   0.352
38421W        W11489   0.440  24.042   0.903
38422W        W11490  38.856  17.282   4.681
38423W        W11491  17.494   7.930  11.116
38424W        W11492  38.131   1.345   3.615
38425W        W11493  23.191   9.997   3.196
38426W        W11494  29.457  11.772   5.042
38427W        W11495  12.216   0.697  14.647
38428W        W11496   1.382  13.376  14.857
38429W        W11497  17.121   4.144   2.767
38430W        W11498  29.406  31.558   0.368
38431W        W11499   7.266   6.607  12.340
38432W        W11500  11.081  16.050   3.687
38433W        W11501  35.524   7.166  14.191
38434W        W11502  16.763   7.096  14.256
38435W        W11503  26.669  19.242   4.277
38436W        W11504  36.350   1.755   1.110
38437W        W11505   7.164   8.304  14.506
38438W        W11506  19.761   4.779  14.934
38439W        W11507  28.089   3.394  11.244
38440W        W11508   2.492  37.925   3.363
38441W        W11509  11.096  28.198  10.302
38442W        W11510  28.578  44.748   3.821
38443W        W11511  28.289  43.467   1.346
38444W        W11512  43.791  40.083   1.024
38445W        W11513   1.969  34.485   2.729
38446W        W11514  21.224  19.811  12.946
38447W        W11515  34.074  17.807   1.228
38448W        W11516  28.236  20.932   0.038
38449W        W11517  38.649   1.994  14.498
38450W        W11518  39.109  39.645  14.529
38451W        W11519   3.640  10.446   4.160
38452W        W11520  44.232   6.899  12.518
38453W        W11521  26.331  40.332  13.013
38454W        W11522  10.276  29.174   4.063
38455W        W11523  43.251   2.266  11.756
38456W        W11524  27.614  39.417   4.166
38457W        W11525  32.330  21.537   4.694
38458W        W11526  34.564  32.327   0.294
38459W        W11527   8.920  20.705  14.558
38460W        W11528  15.543   3.230   0.435
38461W        W11529  39.804   3.573   2.782
38462W        W11530  23.457  16.659  14.089
38463W        W11531  12.021  19.660  10.503
38464W        W11532  22.537  24.722   0.198
38465W        W11533  22.111  24.458   0.054
38466W        W11534   1.773  42.873   2.298
38467W        W11535  32.633  11.432   3.663
38468W        W11536  26.336  39.420   3.536
38469W        W11537  33.909  33.609   0.857
38470W        W11538  39.914  44.895  13.495
38471W        W11539  41.530  13.520   0.899
38472W        W11540  27.624   9.660  10.181
38473W        W11541  24.584   5.790  11.727
38474W        W11542  29.169  10.531  11.878
38475W        W11543  21.182  27.188  11.825
38476W        W11544  19.146  35.540  13.839
38477W        W11545  25.469  22.592   4.201
38478W        W11546  25.077  38.947   5.005
38479W        W11547   4.645  19.067   1.367
38480W        W11548   0.943   2.276   0.898
38481W        W11549  23.045   0.358  10.488
38482W        W11550  22.636  37.549  13.873
38483W        W11551  15.117  26.932   2.943
38484W        W11552  39.555  22.051  14.484
38485W        W11553   1.912  19.189   0.089
38486W        W11554  23.770  19.203  14.512
38487W        W11555  10.096  36.378   5.057
38488W        W11556  43.065  26.447   3.115
38489W        W11557  38.506   7.624   2.280
38490W        W11558  42.210   1.666   1.233
38491W        W11559  39.358   3.867  14.435
38492W        W11560  23.660  23.800   3.164
38493W        W11561  10.160  40.510   2.841
38494W        W11562   4.457  20.725   1.316
38495W        W11563   8.629  28.676  12.419
38496W        W11564   3.911   9.254  13.484
38497W        W11565   0.152  27.583   2.852
38498W        W11566   5.262  30.980  11.183
38499W        W11567   4.510  41.806   9.887
38500W        W11568  37.728  26.715  10.605
38501W        W11569  10.943   4.034   1.014
38502W        W11570  14.682  22.065   1.161
38503W        W11571  14.879  10.592   2.220
38504W        W11572   3.237  42.076  14.711
38505W        W11573  39.720   4.808   1.496
38506W        W11574  25.081  18.817  11.488
38507W        W11575  35.583  36.842   4.708
38508W        W11576  33.935  25.655  11.717
38509W        W11577   3.446  23.487  12.473
38510W        W11578  27.178  29.478   3.217
38511W        W11579  26.301  26.579  11.398
38512W        W11580  24.487  11.350  12.389
38513W        W11581   4.954   8.914   2.277
38514W        W11582  34.648  24.895   3.375
38515W        W11583   4.134   8.143   3.684
38516W        W11584  29.018   0.884  14.184
38517W        W11585  30.206   8.539  14.900
38518W        W11586   5.502  16.282  14.308
38519W        W11587  28.967  25.198   0.425
38520W        W11588  28.338   6.936   1.839
38521W        W11589  43.039   5.726   2.819
38522W        W11590  28.930  40.994   4.560
38523W        W11591   7.815  23.476   2.652
38524W        W11592  21.689  34.800   3.526
38525W        W11593  25.500  28.591  10.680
38526W        W11594  40.296   0.505  13.841
38527W        W11595  37.412   8.707   2.006
38528W        W11596  29.559  29.492   4.119
38529W        W11597  12.071  38.944   3.240
38530W        W11598  14.095  18.127   0.393
38531W        W11599  41.018   6.100  11.235
38532W        W11600  25.031  37.525   3.763
38533W        W11601  14.824  14.169   3.756
38534W        W11602  25.026  19.314  11.599
38535W        W11603  41.358   9.911   4.029
38536W        W11604  21.152   3.280  10.907
38537W        W11605  30.479  35.379   2.319
38538W        W11606  30.246   4.397   0.467
38539W        W11607  23.439  15.701  14.461
38540W        W11608  24.628  43.317   3.201
38541W        W11609  15.153  15.175   1.302
38542W        W11610   0.272  34.666  12.095
38543W        W11611  11.249  20.307  14.820
38544W        W11612  15.089   4.306   0.952
38545W        W11613  24.441  24.996   3.291
38546W        W11614  32.385  32.694  14.829
38547W        W11615  11.202  10.087  11.080
38548W        W11616  31.674  44.748  11.476
38549W        W11617  41.297  24.046   1.395
38550W        W11618   8.598  13.307  13.282
38551W        W11619   2.265  34.160   1.043
38552W        W11620  25.944   2.766   1.191
38553W        W11621  24.365  16.099   4.336
38554W        W11622  35.054   4.521   2.041
38555W        W11623   8.716  34.754   3.234
38556W        W11624  41.714  29.422   0.835
38557W        W11625  38.402  29.430  10.695
38558W        W11626   6.302  29.967   3.830
38559W        W11627  29.686  33.652   2.313
38560W        W11628   0.841  16.306   1.943
38561W        W11629  23.612   0.859   4.210
38562W        W11630   5.427  30.464   4.223
38563W        W11631   5.715  15.095   4.050
38564W        W11632   8.222  30.518  10.759
38565W        W11633  17.710   6.802  12.500
38566W        W11634  19.837  36.610  11.232
38567W        W11635  20.289  20.908  10.090
38568W        W11636  15.806   1.264  10.706
38569W        W11637  21.525  27.155   3.166
38570W        W11638  20.090  22.670  12.769
38571W        W11639  36.771  14.799   2.367
38572W        W11640  17.704   8.486   0.275
38573W        W11641  43.268  25.999   3.327
38574W        W11642   6.429  18.694   5.093
38575W        W11643  32.034  33.385   1.193
38576W        W11644   1.639  39.145  13.204
38577W        W11645  34.865  40.957   2.473
38578W        W11646  20.740  20.660  11.408
38579W        W11647   6.280  22.375  14.746
38580W        W11648  36.859  21.645   2.440
38581W        W11649  39.823   8.253  12.028
38582W        W11650   2.593  34.850   4.539
38583W        W11651  22.977  34.667   4.380
38584W        W11652  15.639  10.123   4.147
38585W        W11653  43.351  36.680  12.133
38586W        W11654   4.421  19.587  11.585
38587W        W11655  12.715  44.710   1.020
38588W        W11656  41.264  32.261   3.426
38589W        W11657  30.464  10.192   0.476
38590W        W11658  22.041   8.737  11.692
38591W        W11659  43.201   2.020   1.414
38592W        W11660   1.873  18.104  10.703
38593W        W11661  43.780  19.029   4.172
38594W        W11662  34.253   4.265   4.135
38595W        W11663   2.601  36.093   2.132
38596W        W11664  43.760   8.912   2.440
38597W        W11665  40.515  18.009  14.365
38598W        W11666  36.143   3.621   0.726
38599W        W11667  39.571  22.152  12.514
38600W        W11668   1.268   4.179  14.817
38601W        W11669  44.317  10.282   1.640
38602W        W11670  22.187  39.179  13.590
38603W        W11671   2.482  36.427  10.658
38604W        W11672  22.117  32.064   3.085
38605W        W11673  42.373  41.374   4.639
38606W        W11674  25.083  40.345  12.374
38607W        W11675  32.005  32.481   0.829
38608W        W11676   7.931  19.252  11.966
38609W        W11677  42.259  14.319  11.053
38610W        W11678  17.726   7.558  12.073
38611W        W11679  36.394  13.592  14.705
38612W        W11680  24.488  18.288   4.221
38613W        W11681  35.547  16.154  11.265
38614W        W11682   1.437  33.619  13.880
38615W        W11683  36.477  19.107  10.547
38616W        W11684  13.084  37.524  14.371
38617W        W11685  44.363  13.356  14.839
38618W        W11686  44.374   5.911   1.868
38619W        W11687  44.100  15.316   2.752
38620W        W11688   6.809  17.254  10.641
38621W        W11689   5.783   7.952  14.496
38622W        W11690   5.970  42.472  10.636
38623W        W11691   8.477  10.829   2.379
38624W        W11692   0.594  17.838  12.886
38625W        W11693  18.417   3.817   4.833
38626W        W11694  36.080  23.455   2.758
38627W        W11695  38.767  12.541  11.539
38628W        W11696  14.732  10.404   3.705
38629W        W11697  43.381  37.751   5.081
38630W        W11698  33.024  42.964   0.980
38631W        W11699  18.124   7.298   0.784
38632W        W11700  39.021  37.488  10.661
38633W        W11701  20.121  44.016  11.167
38634W        W11702   4.963  17.362  12.175
38635W        W11703  10.802  17.097  10.469
38636W        W11704   1.074   1.918  14.497
38637W        W11705  37.568  18.340  10.279
38638W        W11706  40.170  16.141  12.747
38639W        W11707  20.124   9.975   2.734
38640W        W11708  24.583  12.881   0.842
38641W        W11709   7.717   2.529  12.497
38642W        W11710  33.054  40.409   4.608
38643W        W11711  16.268   2.418  13.567
38644W        W11712  21.460   6.887   4.017
38645W        W11713  41.841  43.481   2.316
38646W        W11714   0.948  23.053  11.620
38647W        W11715  33.583  30.801  14.798
38648W        W11716  43.750   0.718  12.455
38649W        W11717   6.786   6.810   2.328
38650W        W11718   4.234  14.142  11.124
38651W        W11719  39.276   4.163  12.777
38652W        W11720  43.230  29.130  10.317
38653W        W11721   2.323   0.450   4.597
38654W        W11722   4.376  10.078  14.854
38655W        W11723  30.194  14.299   4.279
38656W        W11724  31.970   4.949  13.396
38657W        W11725   7.787  19.695  11.728
38658W        W11726   7.407  30.486   4.860
38659W        W11727  34.051   1.527  13.565
38660W        W11728  34.619  14.866  11.332
38661W        W11729  33.536   5.938  11.582
38662W        W11730   5.100  11.788  13.845
38663W        W11731  29.108  19.612  13.559
38664W        W11732  30.542  13.769   2.671
38665W        W11733  12.390  28.361  12.062
38666W        W11734  25.023  43.263  12.461
38667W        W11735   9.423  39.398   0.894
38668W        W11736  40.294  22.310  14.871
38669W        W11737  10.376  17.055   5.538
38670W        W11738  28.689  28.880  12.073
38671W        W11739  39.246   0.712   1.968
38672W        W11740   2.369   7.233   1.117
38673W        W11741   1.926  29.951  14.595
38674W        W11742  31.404  43.046  14.323
38675W        W11743  15.518  29.165  13.327
38676W        W11744  26.650  22.076   0.896
38677W        W11745   3.941   3.388  11.105
38678W        W11746  15.210  31.001  14.773
38679W        W11747  21.500   3.854   1.335
38680W        W11748  43.450  35.597   3.126
38681W        W11749  26.505  14.178   0.530
38682W        W11750  16.038  20.461   3.239
38683W        W11751  28.569  35.988  14.159
38684W        W11752   2.918  38.471   1.154
38685W        W11753   4.944   6.837  12.574
38686W        W11754  13.575  12.788  12.092
38687W        W11755  12.289  42.963  11.853
38688W        W11756  34.055  24.161  11.296
38689W        W11757   7.862  13.971  10.325
38690W        W11758   8.070   1.915   0.012
38691W        W11759   3.882  37.425   3.474
38692W        W11760   4.916  41.341  11.939
38693W        W11761  15.697   6.226   5.055
38694W        W11762  10.827   5.632  11.963
38695W        W11763  12.759  26.207  12.675
38696W        W11764  10.883  36.043  12.851
38697W        W11765  44.501  41.441  14.646
38698W        W11766  23.444  36.858  14.762
38699W        W11767  14.880   9.155  14.835
38700W        W11768   8.885   4.321   4.759
38701W        W11769  42.544  27.168   4.142
38702W        W11770  27.405  38.934  11.550
38703W        W11771  34.482  21.415   3.859
38704W        W11772  26.340  33.978  14.360
38705W        W11773   8.848  42.747   2.186
38706W        W11774  11.655  34.967  11.860
38707W        W11775   5.504  30.038   3.935
38708W        W11776  12.307   6.657   1.891
38709W        W11777  15.125  13.334  10.619
38710W        W11778  29.140  28.959  13.724
38711W        W11779  31.605  18.046   2.641
38712W        W11780  35.664  34.113   9.998
38713W        W11781  21.810  29.289  12.918
38714W        W11782   2.684  25.309   3.678
38715W        W11783   5.612  41.638   4.130
38716W        W11784  28.624   5.897  12.982
38717W        W11785  39.916  43.526  14.757
38718W        W11786  34.510  19.990   2.787
38719W        W11787  10.131  35.582  13.384
38720W        W11788  36.600  25.030  14.327
38721W        W11789  34.593   6.487   2.685
38722W        W11790  12.116   7.967  12.425
38723W        W11791  33.573  18.939  11.168
38724W        W11792   6.602  33.834   4.227
38725W        W11793  28.569  32.130  11.534
38726W        W11794  44.781  18.104   1.442
38727W        W11795  15.602  34.344  13.828
38728W        W11796   6.726   7.768  12.833
38729W        W11797  15.968   3.844   1.684
38730W        W11798  40.841  41.844   1.887
38731W        W11799  38.059   5.333  13.395
38732W        W11800  39.024  33.669  11.211
38733W        W11801   0.787   3.210  12.580
38734W        W11802   1.806   5.701  12.046
38735W        W11803   6.465   0.945   3.217
38736W        W11804  25.725   9.670   2.203
38737W        W11805  27.845  21.682   0.162
38738W        W11806   2.526  20.224  11.571
38739W        W11807  32.346  21.765  12.822
38740W        W11808  33.396  27.031   2.400
38741W        W11809  44.425  17.737   4.122
38742W        W11810  15.787  25.447  14.234
38743W        W11811  27.353  14.205  12.072
38744W        W11812  13.569  23.697   2.408
38745W        W11813  21.765  26.866   3.522
38746W        W11814  31.346   7.928   0.081
38747W        W11815  23.716   6.773  10.580
38748W        W11816  10.783   1.011  11.923
38749W        W11817   0.077  20.283   1.248
38750W        W11818  39.022  38.657   0.494
38751W        W11819  26.159  37.700  14.983
38752W        W11820  26.261  28.670  11.040
38753W        W11821  38.743  38.124   4.276
38754W        W11822  42.027   4.848  10.412
38755W        W11823   8.998  42.818   4.112
38756W        W11824  42.581  17.689  12.843
38757W        W11825   7.772  11.036   0.777
38758W        W11826  12.254   6.388   0.328
38759W        W11827  16.220  21.200   2.714
38760W        W11828  35.369  23.418  12.585
38761W        W11829   8.967  44.386  11.633
38762W        W11830  26.069  16.008   1.919
38763W        W11831  33.676  21.245  10.009
38764W        W11832  23.197  43.358  12.071
38765W        W11833   2.558  43.031   0.299
38766W        W11834   2.465  21.092  12.096
38767W        W11835  44.188  40.996  10.437
38768W        W11836   7.148  36.460   2.291
38769W        W11837   8.282  28.063   0.553
38770W        W11838  28.910  10.983  13.298
38771W        W11839  31.896  43.973   2.649
38772W        W11840  37.326  10.171  12.093
38773W        W11841  33.322   0.028   0.094
38774W        W11842  10.849  14.906  13.973
38775W        W11843  16.215  36.980  12.698
38776W        W11844  38.684   6.342   0.231
38777W        W11845  31.075   0.403  12.514
38778W        W11846   3.315  10.620   2.618
38779W        W11847  40.780  22.153  13.494
38780W        W11848  37.514  17.590  11.921
38781W        W11849  33.739  27.359   3.700
38782W        W11850  40.918  31.069  13.343
38783W        W11851  32.045   5.994  12.456
38784W        W11852  39.618   5.885   9.843
38785W        W11853  13.780  43.757   0.746
38786W        W11854  21.548  11.200   0.432
38787W        W11855  17.500  37.246   0.407
38788W        W11856  43.373  24.628   0.724
38789W        W11857  13.885   3.912   3.390
38790W        W11858  43.946  31.457   0.553
38791W        W11859  21.789  32.412   3.292
38792W        W11860  11.126  18.822   4.241
38793W        W11861  37.336  39.337  14.768
38794W        W11862   5.135   1.747  10.969
38795W        W11863  37.269  27.480  10.550
38796W        W11864   1.765  36.484  12.503
38797W        W11865  17.599   1.724   1.723
38798W        W11866   4.135   8.173  11.112
38799W        W11867  12.826  19.082  12.754
38800W        W11868  12.581   4.383   3.806
38801W        W11869  31.937  30.038  10.307
38802W        W11870  15.247   9.084   0.257
38803W        W11871  28.675  30.880   4.673
38804W        W11872  20.232  44.349   2.712
38805W        W11873  19.568  44.292  12.993
38806W        W11874  43.840  11.657   3.223
38807W        W11875  42.392  35.902   1.685
38808W        W11876  39.458   0.666  10.721
38809W        W11877  25.631  16.161  13.654
38810W        W11878  10.063   0.442  11.405
38811W        W11879   8.314  16.604  14.155
38812W        W11880  44.039  20.750  12.067
38813W        W11881  16.260  30.130  13.929
38814W        W11882  32.417  24.114   3.186
38815W        W11883  16.198  38.977   2.389
38816W        W11884   7.768  16.645   2.205
38817W        W11885  39.947  43.905   1.159
38818W        W11886  16.107  25.248   1.278
38819W        W11887   5.645  18.649  14.101
38820W        W11888   7.846  29.406  14.504
38821W        W11889   4.650  28.577  11.196
38822W        W11890  31.370  28.588   4.293
38823W        W11891   3.188   0.030   0.256
38824W        W11892   4.655  34.827  11.136
38825W        W11893  15.542  20.290   4.909
38826W        W11894  11.005   1.959   3.265
38827W        W11895  23.902  10.171   0.044
38828W        W11896  43.135   2.205   2.316
38829W        W11897  20.627  36.053   3.012
38830W        W11898  13.160   8.423  11.105
38831W        W11899   5.785  13.741   2.654
38832W        W11900   8.176  43.333   0.254
38833W        W11901  31.365   8.965   2.358
38834W        W11902  12.885   7.193   0.448
38835W        W11903  35.009  33.365  12.029
38836W        W11904  41.421  22.507  12.867
38837W        W11905  10.589  41.505  14.362
38838W        W11906  29.985   5.300  14.864
38839W        W11907  36.579  27.887  12.552
38840W        W11908   9.154  30.426  11.893
38841W        W11909  43.080   2.388  11.284
38842W        W11910  30.058  28.098   0.512
38843W        W11911  33.999  12.818  11.588
38844W        W11912  13.931   4.332  13.406
38845W        W11913  25.070   7.842  12.742
38846W        W11914   6.028   6.632  11.043
38847W        W11915  38.492  16.592   1.944
38848W        W11916   7.243   7.651   0.057
38849W        W11917   6.375  38.076  13.829
38850W        W11918  13.617  11.586  13.730
38851W        W11919  23.676  31.145  11.827
38852W        W11920  23.440  12.093  13.881
38853W        W11921  15.805  43.061  10.279
38854W        W11922  17.140   4.356  10.217
38855W        W11923  17.429  27.835  11.010
38856W        W11924  18.759  23.781   3.168
38857W        W11925  12.552   8.247   4.622
38858W        W11926  25.724  14.144  14.958
38859W        W11927  39.648  23.764  13.229
38860W        W11928  37.359  42.744   4.486
38861W        W11929  37.900   0.308   0.735
38862W        W11930  37.951  32.120   4.634
38863W        W11931   1.727  40.088  13.362
38864W        W11932  42.712  17.198   3.637
38865W        W11933  28.476   6.192  12.554
38866W        W11934   5.199  12.908   3.810
38867W        W11935  22.741  15.233   0.700
38868W        W11936  34.557  24.352   3.185
38869W        W11937  30.158  14.773   4.599
38870W        W11938   8.746  18.221  14.578
38871W        W11939   3.587  26.181  13.080
38872W        W11940  34.926  17.281   4.633
38873W        W11941  32.209   6.659   0.657
38874W        W11942   1.661   2.671   1.384
38875W        W11943  12.261   3.871  13.057
38876W        W11944  23.960  14.711   0.871
38877W        W11945  25.508  26.742  11.093
38878W        W11946   4.756   9.711   1.677
38879W        W11947  44.265  21.681   2.723
38880W        W11948  40.060   3.025   0.261
38881W        W11949  19.814  40.677   4.521
38882W        W11950   3.501  37.077   1.673
38883W        W11951  11.125  31.585  11.566
38884W        W11952  19.805  25.101   0.339
38885W        W11953   0.994  41.297  12.439
38886W        W11954  22.410   1.006   3.956
38887W        W11955  22.702  37.958  11.973
38888W        W11956  19.750   8.194  11.749
38889W        W11957  10.198   8.924   0.061
38890W        W11958  44.507  43.008   4.208
38891W        W11959  25.585  36.954   1.940
38892W        W11960  15.660  33.466  13.973
38893W        W11961   3.511  33.412  10.928
38894W        W11962  32.614  29.084   4.492
38895W        W11963  42.364  25.606   4.598
38896W        W11964   1.633  42.866   4.529
38897W        W11965  43.996  33.994   4.841
38898W        W11966  22.081  21.937  11.522
38899W        W11967  42.823   7.164   0.328
38900W        W11968  16.598  17.264   3.311
38901W        W11969  10.879  14.070  11.361
38902W        W11970  29.766  23.748  14.922
38903W        W11971   3.740  38.558   1.639
38904W        W11972   8.223  32.853   2.417
38905W        W11973  40.736  21.017   2.717
38906W        W11974  40.355  38.594  12.547
38907W        W11975  11.707   2.560   4.515
38908W        W11976  39.504  18.160   1.831
38909W        W11977  38.103  31.579   2.182
38910W        W11978   7.691  42.319  14.928
38911W        W11979   1.833   7.642   0.096
38912W        W11980  12.682  24.070   0.786
38913W        W11981  42.849  34.526  12.480
38914W        W11982  35.087  28.208   0.641
38915W        W11983  10.716  33.340  11.094
38916W        W11984  13.433  14.177   9.801
38917W        W11985  29.818  16.208  14.470
38918W        W11986   1.549  20.140  11.654
38919W        W11987  34.553  33.974   3.686
38920W        W11988  28.070  39.228  14.751
38921W        W11989  32.877  24.074   2.933
38922W        W11990  26.839   5.126  14.893
38923W        W11991  34.540  44.485   2.295
38924W        W11992  22.223  41.923   0.015
38925W        W11993  26.049  34.079  13.014
38926W        W11994  21.058   2.441  11.530
38927W        W11995  41.867   2.424   4.049
38928W        W11996  43.610  43.582  13.321
38929W        W11997  33.956  36.113   4.583
38930W        W11998  19.343  37.363   2.177
38931W        W11999  39.490   8.823  14.815
38932W        W12000  17.366  23.983   1.854
38933W        W12001   6.372  28.401  12.464
38934W        W12002  42.018   5.053  11.734
38935W        W12003  24.165  20.152   0.372
38936W        W12004  30.030  14.232  13.417
38937W        W12005   8.670  42.390  10.003
38938W        W12006  12.792  33.425  14.389
38939W        W12007  26.589  27.092  11.871
38940W        W12008  43.461  20.557  11.474
38941W        W12009  44.336  35.346   0.177
38942W        W12010   9.384   7.791   4.183
38943W        W12011  41.965  24.563  12.583
38944W        W12012  39.101  27.611   3.360
38945W        W12013  19.084  31.518  10.718
38946W        W12014  21.589   2.842   0.974
38947W        W12015   8.652  26.268   2.219
38948W        W12016  27.293   7.374   0.907
38949W        W12017  24.073  24.029   4.143
38950W        W12018   5.730   6.889  10.659
38951W        W12019  33.572  44.283  13.430
38952W        W12020  17.348  12.391   2.333
38953W        W12021  36.397  32.903  14.475
38954W        W12022  30.431   3.827  11.117
38955W        W12023  12.599  37.829   0.264
38956W        W12024  23.205  13.612  13.581
38957W        W12025   2.556   4.810  11.359
38958W        W12026  17.009  13.537   0.409
38959W        W12027   6.523  16.588  12.121
38960W        W12028  12.611  30.127  12.852
38961W        W12029  36.072  35.453  11.500
38962W        W12030   3.374  34.395  14.045
38963W        W12031  21.760  21.608   3.324
38964W        W12032  43.791  23.936  12.604
38965W        W12033  37.619  40.337  10.538
38966W        W12034  31.058  17.554   2.638
38967W        W12035  36.138  15.415  13.485
38968W        W12036  17.473  12.485   2.847
38969W        W12037  34.898  36.384  14.221
38970W        W12038  31.935  24.543   2.642
38971W        W12039  13.374  30.299  10.507
38972W        W12040  20.119  23.113  11.518
38973W        W12041  16.154   1.178  13.110
38974W        W12042   2.247   1.752  12.322
38975W        W12043  40.124  43.060   3.302
38976W        W12044  26.445  34.798   2.396
38977W        W12045  30.703  11.545  14.464
38978W        W12046  25.411   0.892   3.696
38979W        W12047  37.131  42.360   0.304
38980W        W12048  19.625  34.838   3.749
38981W        W12049   0.030  28.901  12.776
38982W        W12050  26.501   4.436  10.639
38983W        W12051  23.549  17.576   0.337
38984W        W12052  12.147   8.219   2.774
38985W        W12053  23.028  36.582  14.103
38986W        W12054  21.079  30.952   5.048
38987W        W12055  20.443  22.526   4.139
38988W        W12056  14.298  35.841   4.802
38989W        W12057   4.043   3.947  13.434
38990W        W12058  41.551  25.843  14.849
38991W        W12059  33.922  38.419   2.777
38992W        W12060  33.854  23.529   1.240
38993W        W12061  14.333   1.465   3.605
38994W        W12062   0.360   4.836   4.822
38995W        W12063  31.611  21.975  12.097
38996W        W12064  10.622  13.249   4.600
38997W        W12065   9.060  33.324  13.027
38998W        W12066  37.320  42.580   0.786
38999W        W12067   1.470  40.958   3.280
39000W        W12068  27.842  37.328   2.015
39001W        W12069  14.681   1.131   3.786
39002W        W12070  38.800  10.301   4.093
39003W        W12071  33.537  20.094  13.652
39004W        W12072  12.391  25.106   0.228
39005W        W12073  26.378  10.569  11.440
39006W        W12074   0.459  23.086  11.851
39007W        W12075  44.885  11.311  10.731
39008W        W12076  25.708  16.226  10.621
39009W        W12077  37.666  36.109  13.532
39010W        W12078   2.999  25.066   3.337
39011W        W12079  26.482  14.800   0.691
39012W        W12080  33.765  38.909   2.758
39013W        W12081  40.988   3.566  12.437
39014W        W12082  12.243   9.188   3.663
39015W        W12083  26.387  14.291  13.506
39016W        W12084  33.996  18.522  13.387
39017W        W12085   9.366  32.574   3.202
39018W        W12086  33.167   5.141   1.435
39019W        W12087  14.439  38.444   1.324
39020W        W12088  42.034  42.487  14.837
39021W        W12089  20.996  44.718   0.094
39022W        W12090  14.684   9.114  12.907
39023W        W12091   2.407  36.227   1.234
39024W        W12092  44.147  26.964   0.911
39025W        W12093  32.035  17.676  12.398
39026W        W12094  31.740  14.209  10.506
39027W        W12095   8.734  28.404  11.586
39028W        W12096  29.771  14.734   2.335
39029W        W12097  28.121  17.262   4.885
39030W        W12098  20.178  44.008  13.847
39031W        W12099  26.679  14.214  13.956
39032W        W12100  16.582  30.063   1.448
39033W        W12101  34.536  32.201   1.881
39034W        W12102   0.917  40.592   4.811
39035W        W12103  26.810  10.231  14.491
39036W        W12104  14.698  39.635   0.509
39037W        W12105  22.265  22.687  11.962
39038W        W12106  44.997   3.633  12.602
39039W        W12107  27.733  16.558   4.635
39040W        W12108  36.311  41.354  11.490
39041W        W12109  10.584  25.040  14.729
39042W        W12110   2.250  25.543   1.870
39043W        W12111   3.735  38.939  14.764
39044W        W12112   2.144  44.787  12.603
39045W        W12113  24.204   7.324  13.725
39046W        W12114  13.333   6.794   3.163
39047W        W12115  20.631  11.901   3.763
39048W        W12116  37.885  17.525  13.942
39049W        W12117  36.911  25.437  11.202
39050W        W12118   7.397   2.716  14.923
39051W        W12119  28.673   9.383   1.881
39052W        W12120   4.498   5.464   3.395
39053W        W12121  23.498  20.040   4.700
39054W        W12122  25.697  42.281   1.232
39055W        W12123  20.702   3.389   4.081
39056W        W12124  10.542   8.805   1.449
39057W        W12125  27.216   9.749   9.877
39058W        W12126   4.173  18.071  14.508
39059W        W12127  35.003  37.121  14.415
39060W        W12128  17.818  34.779   3.181
39061W        W12129   0.829  11.862  13.407
39062W        W12130  20.633  26.556  11.409
39063W        W12131  36.311  31.412  13.389
39064W        W12132  33.483  29.396  11.556
39065W        W12133   8.307  33.106   1.921
39066W        W12134   9.389  31.981  12.942
39067W        W12135  21.015  14.603  10.466
39068W        W12136   2.536  16.733   0.555
39069W        W12137  36.924  40.399  13.092
39070W        W12138   4.404  34.864   2.776
39071W        W12139  37.733  31.659   4.552
39072W        W12140  14.138  29.677   1.422
39073W        W12141  24.676  17.109  11.697
39074W        W12142  23.082  21.484   3.560
39075W        W12143  23.539  43.363  14.860
39076W        W12144  12.750  36.807  10.437
39077W        W12145  26.528   2.778  13.516
39078W        W12146  36.074  40.504  11.641
39079W        W12147  38.024  41.023  13.395
39080W        W12148  37.998  42.299   2.954
39081W        W12149  23.720  41.363   4.101
39082W        W12150  21.309  10.336  10.022
39083W        W12151  42.078   9.344  12.691
39084W        W12152  22.675  41.902   4.588
39085W        W12153  17.377  26.541   2.757
39086W        W12154  30.849  23.148  10.939
39087W        W12155  43.703   7.385  11.460
39088W        W12156  15.790  20.075   1.183
39089W        W12157   6.162  43.386  10.272
39090W        W12158  32.474  39.144  14.018
39091W        W12159  43.719  40.330   3.271
39092W        W12160  25.246  13.250  10.723
39093W        W12161  26.021  17.328  14.503
39094W        W12162  21.127   5.337  14.779
39095W        W12163  17.227  35.857  12.418
39096W        W12164   9.132   8.243  14.529
39097W        W12165  41.593   9.024  14.089
39098W        W12166  30.181   5.863   1.287
39099W        W12167  24.689  15.290  11.060
39100W        W12168  17.928  36.849  12.962
39101W        W12169  29.370  36.971  13.121
39102W        W12170  44.164  10.038  13.375
39103W        W12171   0.958  15.183   4.719
39104W        W12172  27.176  20.873  11.919
39105W        W12173  42.945  42.351  10.584
39106W        W12174   2.116  10.355  12.443
39107W        W12175  38.503  11.475  11.098
39108W        W12176   9.352  14.690  14.369
39109W        W12177  19.853  33.110   3.277
39110W        W12178  22.058  26.493   4.554
39111W        W12179   2.858  19.213   3.725
39112W        W12180  32.991  13.508   4.255
39113W        W12181  30.055   9.023   1.649
39114W        W12182  28.094  13.411  12.020
39115W        W12183  12.131  32.610   0.096
39116W        W12184  18.677   8.904  13.842
39117W        W12185  19.252  17.807   0.163
39118W        W12186  23.735  37.547   0.166
39119W        W12187  19.747   6.488   2.223
39120W        W12188  21.221  37.998   3.172
39121W        W12189  33.610  25.638  11.324
39122W        W12190  38.447  13.801   3.197
39123W        W12191  19.324   1.959  14.482
39124W        W12192  25.618  30.147   4.038
39125W        W12193  19.141  16.603   3.409
39126W        W12194   1.213  12.843   2.771
39127W        W12195   2.267   8.707   2.322
39128W        W12196  36.783  32.724   3.107
39129W        W12197  21.705   5.673  12.014
39130W        W12198  37.263  37.365   4.534
39131W        W12199  28.171   5.998  13.938
39132W        W12200   0.821   8.818   2.776
39133W        W12201  33.846  17.557  10.515
39134W        W12202  42.092  15.628   3.667
39135W        W12203  37.379   4.347   3.188
39136W        W12204   8.772  16.120   1.958
39137W        W12205  12.723  44.886   2.426
39138W        W12206  38.268  34.051   4.399
39139W        W12207  27.259  30.008   3.319
39140W        W12208   9.904  23.198   1.502
39141W        W12209  11.887  10.419   2.387
39142W        W12210  38.047  34.580  14.612
39143W        W12211   3.821  22.632  13.830
39144W        W12212   5.747  38.874   4.881
39145W        W12213  12.249  16.634  10.613
39146W        W12214  22.132  38.522  14.924
39147W        W12215  21.694  40.767   3.474
39148W        W12216  37.394  26.541   1.287
39149W        W12217  40.950  30.926   0.011
39150W        W12218  40.727  15.202  13.459
39151W        W12219  40.780  37.010   1.733
39152W        W12220  29.465  26.174   2.756
39153W        W12221   4.007  43.552  11.914
39154W        W12222   6.829  38.376  12.887
39155W        W12223  24.199  15.945  12.738
39156W        W12224  44.806   7.267  14.304
39157W        W12225   0.371   7.785  12.487
39158W        W12226   2.199  24.924   2.205
39159W        W12227  23.597  22.627   4.356
39160W        W12228  25.570  41.281   0.454
39161W        W12229   5.657  20.765   1.821
39162W        W12230   6.831  41.149   1.651
39163W        W12231  18.530  40.407   3.667
39164W        W12232  23.945  38.223  11.098
39165W        W12233  21.610  44.435   4.170
39166W        W12234  19.036   3.307   5.061
39167W        W12235  32.022   8.486   3.641
39168W        W12236  29.590  24.016  13.523
39169W        W12237   0.908  14.776  14.139
39170W        W12238  21.118  38.305   3.643
39171W        W12239  12.329  38.799   2.332
39172W        W12240  21.218  28.214   1.731
39173W        W12241  22.758  28.533   4.571
39174W        W12242   6.398  24.743   0.432
39175W        W12243  18.556  32.528   3.221
39176W        W12244   3.891  38.864  12.126
39177W        W12245  41.965  39.583   3.788
39178W        W12246  18.051  39.942   2.351
39179W        W12247  17.359  38.490  12.901
39180W        W12248  19.865  15.839   1.374
39181W        W12249  38.939  42.340  12.972
39182W        W12250  21.963   7.904   0.857
39183W        W12251  13.854  38.496   2.816
39184W        W12252  15.201  12.529  13.381
39185W        W12253  23.463  31.545   2.721
39186W        W12254   5.126  22.016   3.192
39187W        W12255  23.085  33.839  12.880
39188W        W12256  25.718  11.827   4.531
39189W        W12257   7.743   2.488  14.548
39190W        W12258   6.174   2.698   1.799
39191W        W12259   7.977  34.067   4.623
39192W        W12260  29.440  37.369  11.187
39193W        W12261  28.585   2.237   2.956
39194W        W12262  31.615  35.597   4.752
39195W        W12263   5.413   1.495  12.964
39196W        W12264  30.143  41.844   1.377
39197W        W12265  24.750  14.656   1.433
39198W        W12266  24.696   1.767  10.655
39199W        W12267  36.136   9.705  11.429
39200W        W12268  37.550  17.103   4.493
39201W        W12269  24.056  43.892   3.610
39202W        W12270  18.728  43.949   0.581
39203W        W12271  37.489   0.894  13.121
39204W        W12272  29.787  23.883  10.852
39205W        W12273   4.014   8.112   1.424
39206W        W12274  43.541   7.816  12.719
39207W        W12275   4.682  24.593   4.947
39208W        W12276   0.428   3.834  13.444
39209W        W12277  37.323  30.577  14.836
39210W        W12278  30.558  42.498   1.147
39211W        W12279  20.264   5.535  10.980
39212W        W12280  15.748  26.601   4.175
39213W        W12281  16.433  41.574  13.342
39214W        W12282  25.059   6.280   2.911
39215W        W12283  11.786  30.251   4.134
39216W        W12284  20.626  35.506   0.475
39217W        W12285  23.742  27.999   0.903
39218W        W12286  13.369  25.088   3.158
39219W        W12287  23.029  29.707  12.028
39220W        W12288  31.983   9.222  12.996
39221W        W12289  17.510  43.434  11.653
39222W        W12290   0.185  24.021  14.035
39223W        W12291  25.556  29.161  10.403
39224W        W12292  39.114   3.392   2.349
39225W        W12293  19.784   8.609   2.858
39226W        W12294  29.764  15.458  13.993
39227W        W12295  26.363   6.272  14.485
39228W        W12296   2.366   2.388   1.905
39229W        W12297  33.653  20.636  11.246
39230W        W12298   7.442  41.923   1.215
39231W        W12299  20.540  11.613  13.170
39232W        W12300  15.580   8.632   0.247
39233W        W12301  12.256  16.708  14.710
39234W        W12302  34.943  28.515   1.981
39235W        W12303  37.560  38.572  14.498
39236W        W12304  43.416   1.945   3.579
39237W        W12305  26.013   7.801  12.994
39238W        W12306  10.622  25.128   2.199
39239W        W12307  37.240  34.851  12.951
39240W        W12308  23.498  29.080  10.751
39241W        W12309  11.165   3.884   4.419
39242W        W12310  42.888  32.930   0.254
39243W        W12311   3.529   3.650  11.586
39244W        W12312  43.596  13.204  13.350
39245W        W12313  23.651  29.138  13.629
39246W        W12314   7.840  30.639  14.865
39247W        W12315  16.977  15.361   2.854
39248W        W12316   3.622  32.462  14.896
39249W        W12317  32.202  34.581   4.080
39250W        W12318  30.399  23.159   2.792
39251W        W12319  31.354   0.406   2.176
39252W        W12320  17.594  44.257   4.542
39253W        W12321  18.391  20.167   3.226
39254W        W12322   2.345  30.943  10.751
39255W        W12323   0.520  22.541  13.581
39256W        W12324  14.105  36.166  13.392
39257W        W12325  15.657  30.986   4.694
39258W        W12326  16.352  11.986  12.385
39259W        W12327  17.163  19.577   1.740
39260W        W12328  37.098  15.562  13.484
39261W        W12329  17.560  12.618   3.340
39262W        W12330  20.450  17.174  10.773
39263W        W12331   9.885   5.950  10.443
39264W        W12332  11.389   4.621  14.317
39265W        W12333  11.886  35.794   1.282
39266W        W12334  21.639  15.105  13.133
39267W        W12335  13.614  43.683  11.130
39268W        W12336  21.742  33.451   4.290
39269W        W12337  11.204  19.372  11.248
39270W        W12338  31.638  24.931   3.393
39271W        W12339   6.872  36.638   4.082
39272W        W12340  11.096  23.433  12.828
39273W        W12341  23.688  12.600   3.195
39274W        W12342  24.713  29.691   4.106
39275W        W12343   6.635  33.978   3.317
39276W        W12344  16.306  43.321   0.320
39277W        W12345   6.269  13.749   1.916
39278W        W12346  11.152   1.396  11.990
39279W        W12347  19.535  16.363   3.705
39280W        W12348  29.700  11.376   0.338
39281W        W12349  16.507   5.428  13.242
39282W        W12350  17.093  17.159   2.888
39283W        W12351  44.715  33.298  13.512
39284W        W12352  41.782  40.412   3.783
39285W        W12353  10.311  14.372   3.724
39286W        W12354  42.872  38.048  11.697
39287W        W12355  41.754  28.129   2.488
39288W        W12356  11.156  37.881   2.418
39289W        W12357  41.254  31.612  12.551
39290W        W12358  13.553  26.133  12.018
39291W        W12359  28.491  38.042  12.518
39292W        W12360   1.686  20.237   2.362
39293W        W12361   0.849  11.842  13.956
39294W        W12362  31.397   7.966  11.541
39295W        W12363  37.303  20.603   0.730
39296W        W12364  25.166  38.419   1.954
39297W        W12365  38.093  19.763  13.601
39298W        W12366  14.559  36.368   4.219
39299W        W12367  11.363  22.129   2.111
39300W        W12368   7.735   8.132   0.963
39301W        W12369  16.206   7.919  14.286
39302W        W12370  26.688  44.314   0.650
39303W        W12371  35.873   7.841  10.393
39304W        W12372   0.536  38.957  11.541
39305W        W12373  43.498  38.889  11.595
39306W        W12374   6.304  32.772   1.855
39307W        W12375  40.256   3.395  14.951
39308W        W12376  39.824  14.423  12.884
39309W        W12377  36.912  24.981  10.963
39310W        W12378  15.010   3.394  11.944
39311W        W12379  19.674   4.828  13.041
39312W        W12380   6.670  18.413  12.132
39313W        W12381  32.853   1.823   3.179
39314W        W12382  38.060  33.079  13.800
39315W        W12383  15.285  35.501  13.575
39316W        W12384  34.322   9.256  14.784
39317W        W12385  25.183   9.937  13.507
39318W        W12386  18.644  20.989  11.445
39319W        W12387  16.694  26.439   3.285
39320W        W12388  17.736  30.722  13.423
39321W        W12389  22.835  36.429   1.905
39322W        W12390   9.693   8.921   2.022
39323W        W12391  28.040   8.279   3.054
39324W        W12392  13.474  37.799   0.692
39325W        W12393  30.749   2.852  14.277
39326W        W12394  26.932  17.764   4.666
39327W        W12395  41.087  30.667   2.800
39328W        W12396  18.533  16.845  13.123
39329W        W12397   7.460  25.659   2.755
39330W        W12398  22.275   5.711  14.429
39331W        W12399  10.143  31.284  12.955
39332W        W12400  10.705  34.406  14.361
39333W        W12401  26.447  23.778  12.192
39334W        W12402  22.088  19.223   3.978
39335W        W12403  31.219  40.418  10.667
39336W        W12404  39.525  34.885   4.300
39337W        W12405   5.677   1.091   4.191
39338W        W12406   9.891  14.300   0.935
39339W        W12407  43.579  30.621  11.140
39340W        W12408  39.073  27.433  14.380
39341W        W12409  39.660   3.918  11.097
39342W        W12410   4.781  38.871  12.668
39343W        W12411  20.541  43.774  12.493
39344W        W12412  38.942   0.380  13.653
39345W        W12413  34.887  10.796  11.333
39346W        W12414  30.774  13.868  10.752
39347W        W12415  12.544  10.046   1.872
39348W        W12416  17.983  38.601  14.167
39349W        W12417  32.125  33.601  13.404
39350W        W12418  10.341  37.578   4.582
39351W        W12419   5.342  18.155  14.037
39352W        W12420  25.656  32.879   1.854
39353W        W12421  21.427  10.848   4.863
39354W        W12422  20.607  36.598   3.081
39355W        W12423  41.042   7.617  11.159
39356W        W12424  22.804  25.814  13.926
39357W        W12425  43.930  35.101  14.383
39358W        W12426   6.454  21.168   1.829
39359W        W12427  28.598  42.565  10.679
39360W        W12428  38.460   6.577   0.666
39361W        W12429  43.311   4.685   4.646
39362W        W12430  15.327   1.298   1.148
39363W        W12431  17.335  13.594   3.146
39364W        W12432  18.523   8.826   0.821
39365W        W12433  32.968  30.900  11.836
39366W        W12434  27.402  43.796   1.510
39367W        W12435  22.989   4.926  12.512
39368W        W12436  39.060   0.027  13.284
39369W        W12437  20.473  12.398   0.898
39370W        W12438   9.166   3.459   2.337
39371W        W12439  42.497  23.856  10.786
39372W        W12440  44.524  42.268  14.907
39373W        W12441   5.683  26.540  14.884
39374W        W12442  32.376  21.944  11.433
39375W        W12443   5.490  21.078  11.024
39376W        W12444   2.311   7.886  12.539
39377W        W12445  13.901  16.492   3.612
39378W        W12446  17.002   6.010  11.651
39379W        W12447   2.942   7.368   2.428
39380W        W12448  32.070  44.290  12.031
39381W        W12449   7.178   6.854  13.425
39382W        W12450  38.892  36.052   1.832
39383W        W12451   7.842  40.675   1.476
39384W        W12452  38.041  30.457  11.122
39385W        W12453   5.340  37.904  10.619
39386W        W12454  28.408  37.994   0.514
39387W        W12455   0.668  11.231   2.918
39388W        W12456   1.969  28.772   1.714
39389W        W12457  43.222  27.122   4.609
39390W        W12458  26.989  41.468   3.522
39391W        W12459  28.996   1.232  11.886
39392W        W12460  21.716  23.152   1.505
39393W        W12461   4.328  22.648  11.563
39394W        W12462  44.171  31.532   3.561
39395W        W12463  39.066  22.500  10.652
39396W        W12464   6.658  27.964  12.451
39397W        W12465  18.372  44.920  11.179
39398W        W12466  36.505  28.067   9.869
39399W        W12467  41.576   0.205   2.814
39400W        W12468  12.349   0.262   1.595
39401W        W12469  41.970  13.957  12.970
39402W        W12470   4.705  33.429   9.980
39403W        W12471  29.600   6.332   2.305
39404W        W12472  27.600  20.169  13.950
39405W        W12473  24.152  33.650   1.346
39406W        W12474   9.602  23.632   2.233
39407W        W12475  40.990   9.244   3.126
39408W        W12476  41.095  19.274   1.557
39409W        W12477  37.037   2.952   0.132
39410W        W12478  18.256  27.921   3.811
39411W        W12479   3.837   1.189  14.331
39412W        W12480  20.787  37.181   2.907
39413W        W12481   3.391  44.754  11.223
39414W        W12482  29.150   4.450   1.243
39415W        W12483  44.788  32.553  13.830
39416W        W12484  16.240  14.179   2.871
39417W        W12485   7.391   7.179   2.076
39418W        W12486   2.461  33.755  10.179
39419W        W12487  22.771  17.184  10.228
39420W        W12488  31.999  25.975   4.676
39421W        W12489  40.552  21.524  12.004
39422W        W12490  25.262  39.438  13.881
39423W        W12491  23.477  13.543  14.431
39424W        W12492  12.174   0.825  10.638
39425W        W12493  14.677  14.343   0.342
39426W        W12494  22.146   1.423   4.855
39427W        W12495  44.427   4.820  12.602
39428W        W12496  25.930  14.139   4.635
39429W        W12497  42.826  15.181   2.320
39430W        W12498   9.701  10.861   0.914
39431W        W12499  15.513  13.891  13.094
39432W        W12500  38.725   1.724  13.553
39433W        W12501  19.358  17.042   3.211
39434W        W12502  35.986  28.329  14.827
39435W        W12503  24.718   5.220  14.362
39436W        W12504   4.819  23.432  12.134
39437W        W12505  20.213  19.251  11.446
39438W        W12506  15.393  41.542  12.249
39439W        W12507  26.139  36.559   1.203
39440W        W12508  17.155  17.073  10.928
39441W        W12509   4.535   6.225  13.861
39442W        W12510   4.492  14.172   0.835
39443W        W12511   0.191  21.774  11.123
39444W        W12512   6.406   6.875  12.292
39445W        W12513   9.696  16.754  12.897
39446W        W12514  34.304  16.776  12.801
39447W        W12515  15.299  31.753   1.822
39448W        W12516   7.898  25.397   1.811
39449W        W12517  36.709   0.474  13.552
39450W        W12518  37.599  25.891   2.267
39451W        W12519   1.954  39.536  14.516
39452W        W12520  11.728  43.410  11.893
39453W        W12521   3.731   7.883   2.253
39454W        W12522  25.187   5.231   1.760
39455W        W12523  21.693  40.869   0.229
39456W        W12524  23.110   8.872  14.887
39457W        W12525  37.519  15.694   1.481
39458W        W12526  12.069  32.870   3.694
39459W        W12527  24.592  25.800   2.788
39460W        W12528   0.007  34.157  13.931
39461W        W12529  30.653   1.252   4.343
39462W        W12530   6.807  25.413   3.162
39463W        W12531  19.563  12.668   2.140
39464W        W12532   5.425   7.938   1.913
39465W        W12533  24.289  22.651   0.928
39466W        W12534  12.358  13.542  11.454
39467W        W12535  14.293   5.093   4.527
39468W        W12536  31.187  26.528  14.809
39469W        W12537   8.847  28.232   1.426
39470W        W12538  40.242  33.619  11.603
39471W        W12539  12.173  28.424   3.484
39472W        W12540  19.862  40.061   4.188
39473W        W12541   3.795   5.901   2.295
39474W        W12542  10.469  25.658  12.497
39475W        W12543  13.144  21.271   2.137
39476W        W12544  22.294  25.998  14.006
39477W        W12545  27.177  23.273   4.250
39478W        W12546  11.408   3.294  10.681
39479W        W12547  30.353  30.952   1.235
39480W        W12548  19.934  30.745   0.343
39481W        W12549  20.977  38.371  14.483
39482W        W12550   3.757  28.957  11.964
39483W        W12551  43.557  16.943  12.578
39484W        W12552  35.623  24.073  13.340
39485W        W12553  14.632  25.634  14.324
39486W        W12554  14.454  18.756   1.742
39487W        W12555  38.920  44.475   4.696
39488W        W12556  21.626   8.349  10.599
39489W        W12557  29.510  36.340  10.547
39490W        W12558  29.234  44.017   0.364
39491W        W12559   9.834  15.423   2.992
39492W        W12560  41.752   8.189  14.580
39493W        W12561  24.993  25.221   4.586
39494W        W12562   0.918  44.807   0.000
39495W        W12563  17.948  37.860  11.558
39496W        W12564   4.041   2.511  13.904
39497W        W12565   0.175  20.127  13.464
39498W        W12566  15.192  18.208   1.419
39499W        W12567  27.702  11.361  13.923
39500W        W12568  40.821  10.771   2.393
39501W        W12569  16.098  13.834   3.379
39502W        W12570   6.199  35.487  12.804
39503W        W12571   7.379  33.728  13.316
39504W        W12572  41.449   0.054   0.453
39505W        W12573   0.185  21.567   4.569
39506W        W12574  35.130  15.841   1.292
39507W        W12575  23.920  38.367   1.359
39508W        W12576  41.906  20.777   0.006
39509W        W12577  14.279   4.375  14.251
39510W        W12578  34.367  32.328   0.772
39511W        W12579   5.375  11.799  13.412
39512W        W12580  17.854  43.194   2.763
39513W        W12581  10.643  43.056  11.163
39514W        W12582  43.025   6.195  13.280
39515W        W12583  40.382  44.363  11.110
39516W        W12584  30.492  24.972  13.092
39517W        W12585  31.522  40.931  11.488
39518W        W12586  29.251   6.758  11.155
39519W        W12587  41.234   5.169  12.861
39520W        W12588  32.110  10.342  12.188
39521W        W12589   3.273   9.622  14.415
39522W        W12590  32.548  11.618  14.510
39523W        W12591  31.508  27.120  11.957
39524W        W12592  41.963  38.546  14.337
39525W        W12593  39.278  43.257  12.414
39526W        W12594   5.144  35.005  12.070
39527W        W12595  42.484   1.509  10.697
39528W        W12596   4.379   7.125  13.946
39529W        W12597  42.472   2.510  12.988
39530W        W12598  41.529  26.134  11.196
39531W        W12599  44.044   1.567   1.507
39532W        W12600  39.598  34.109  12.351
39533W        W12601  34.590  24.147  14.368
39534W        W12602   7.423  36.104  14.734
39535W        W12603  20.503  30.985   4.112
39536W        W12604  34.125  18.638   3.591
39537W        W12605  22.953   1.514  11.207
39538W        W12606   5.092  17.737   4.261
39539W        W12607  32.478  28.585   1.417
39540W        W12608   7.504   1.760  12.449
39541W        W12609  14.423  39.820   0.066
39542W        W12610   0.742  16.628  10.552
39543W        W12611  35.626  29.075  14.483
39544W        W12612   3.254   3.646   2.224
39545W        W12613  42.529  34.511   0.033
39546W        W12614  13.335  13.863  13.519
39547W        W12615   5.202  19.056  14.925
39548W        W12616  20.764  40.412  13.536
39549W        W12617  17.265   5.232  11.094
39550W        W12618   4.566  32.563   1.438
39551W        W12619  28.870   9.873  12.554
39552W        W12620  12.215  39.030   1.590
39553W        W12621  16.748  33.608   2.117
39554W        W12622   9.687  19.069  11.099
39555W        W12623  32.049   5.467  13.406
39556W        W12624  12.156  13.176   4.289
39557W        W12625  26.099   7.393   4.674
39558W        W12626  23.750  23.128   4.459
39559W        W12627  42.912  33.915   3.181
39560W        W12628  19.609  20.598   2.588
39561W        W12629   6.648   9.294   4.413
39562W        W12630   5.354  37.979  14.945
39563W        W12631  18.261  36.016   2.871
39564W        W12632  36.389   0.355   2.595
39565W        W12633  30.673  38.563   2.325
39566W        W12634  21.666   7.718  12.422
39567W        W12635  32.482  23.299  14.912
39568W        W12636  11.209  37.051  10.919
39569W        W12637   1.809  31.375  13.045
39570W        W12638   6.091  25.010  12.982
39571W        W12639  44.879  41.289  14.335
39572W        W12640  39.246  15.875  12.825
39573W        W12641  27.165  31.519  14.771
39574W        W12642  24.216  12.385   3.648
39575W        W12643  23.936  29.468   3.734
39576W        W12644  21.751  30.468  13.873
39577W        W12645  28.014   0.797   4.664
39578W        W12646  44.223  25.682   4.030
39579W        W12647  25.101   9.741  13.974
39580W        W12648  29.713   6.249  14.906
39581W        W12649   4.692   6.464   4.503
39582W        W12650  11.690  18.605  14.313
39583W        W12651  21.580  31.953   3.165
39584W        W12652  32.846  38.548   1.258
39585W        W12653  43.886   3.406   2.145
39586W        W12654  43.100  21.069   3.045
39587W        W12655  42.345   2.447   1.818
39588W        W12656  43.438   0.277  10.752
39589W        W12657  15.914  22.254  11.266
39590W        W12658  28.450  26.042  12.978
39591W        W12659  41.385   7.887  12.555
39592W        W12660  16.062  14.653   1.986
39593W        W12661  44.971  19.291   4.945
39594W        W12662   4.900   9.053  14.266
39595W        W12663  38.355  41.309  12.067
39596W        W12664  12.105  29.037   4.406
39597W        W12665  25.480  17.539  12.528
39598W        W12666   2.142  32.161   0.992
39599W        W12667  18.021  39.464   0.756
39600W        W12668   8.956  40.544  14.798
39601W        W12669   6.896  27.451  10.661
39602W        W12670  41.807  36.102   3.141
39603W        W12671   6.904  44.805  11.993
39604W        W12672  23.164  18.045   3.103
39605W        W12673   4.470  10.696   2.198
39606W        W12674   2.829  37.055  12.596
39607W        W12675  24.084   4.850  13.423
39608W        W12676  11.316  31.453   0.468
39609W        W12677  21.653  33.105   2.218
39610W        W12678  40.377  43.270   0.610
39611W        W12679  17.107  37.985  11.962
39612W        W12680  30.161   2.373  13.503
39613W        W12681  29.375  28.657   1.323
39614W        W12682  34.954  43.015   4.577
39615W        W12683  25.026  24.445   1.932
39616W        W12684  21.603  16.716   3.331
39617W        W12685   9.786   5.263   4.608
39618W        W12686   3.764  29.720   1.431
39619W        W12687  41.879  21.995  13.495
39620W        W12688  21.044  16.233  12.404
39621W        W12689   9.790  18.353   0.809
39622W        W12690  43.108  29.578  12.443
39623W        W12691   7.796  20.508  11.070
39624W        W12692   8.729  22.311  12.357
39625W        W12693  12.796  39.049   2.251
39626W        W12694  39.470   6.826  12.348
39627W        W12695  34.806   6.275  10.327
39628W        W12696   2.471  42.997  14.559
39629W        W12697  43.520  29.504   2.180
39630W        W12698   9.612  44.853   3.995
39631W        W12699  42.243  27.241   4.585
39632W        W12700  20.226   1.945   4.543
39633W        W12701  30.003  23.428  10.997
39634W        W12702   0.379  29.669   0.335
39635W        W12703  34.519   5.348  12.178
39636W        W12704  42.867  18.689  14.808
39637W        W12705  44.447   2.653   4.928
39638W        W12706  26.500  25.206   5.044
39639W        W12707   2.544  18.145  13.594
39640W        W12708  25.763   5.763   3.673
39641W        W12709  39.169   0.894   4.102
39642W        W12710  23.184  15.511  13.530
39643W        W12711  23.234  32.488   2.245
39644W        W12712  15.291  25.457   4.153
39645W        W12713  22.959   1.689  12.103
39646W        W12714  19.222  15.132  12.357
39647W        W12715  26.994   5.315  13.978
39648W        W12716   4.697   9.425   1.250
39649W        W12717  38.488   2.274  12.785
39650W        W12718  31.787  20.054   0.268
39651W        W12719  27.077  31.368   0.641
39652W        W12720  22.055  20.231  13.791
39653W        W12721  38.286   8.258   1.809
39654W        W12722  38.982  34.043   3.412
39655W        W12723  17.193  31.461   4.530
39656W        W12724  38.562  24.327  11.370
39657W        W12725  29.429   1.032   4.672
39658W        W12726  44.916   3.160   5.040
39659W        W12727  12.274  42.309   4.558
39660W        W12728  21.667  29.539   2.672
39661W        W12729  16.820  21.285   1.642
39662W        W12730   1.957  32.126  12.810
39663W        W12731   3.685  26.710  14.317
39664W        W12732   5.723   2.391  13.473
39665W        W12733  10.467  23.997  13.212
39666W        W12734  12.523  44.890  12.060
39667W        W12735  35.477  13.812  12.980
39668W        W12736  25.372  42.898   3.781
39669W        W12737   3.878   3.890   4.863
39670W        W12738  38.039  38.850  14.526
39671W        W12739  13.717  25.834   3.640
39672W        W12740  32.641  42.834  12.037
39673W        W12741  16.323  20.792   1.287
39674W        W12742  39.857  30.417   3.215
39675W        W12743   7.316   1.260   2.166
39676W        W12744   3.102  41.907   1.032
39677W        W12745  39.383  42.063  12.967
39678W        W12746  38.585  32.510  11.856
39679W        W12747  32.922   6.757  11.128
39680W        W12748   8.991  43.795   3.234
39681W        W12749  14.735   5.716  12.568
39682W        W12750  16.603  23.916   3.201
39683W        W12751  13.219  39.868  14.410
39684W        W12752  25.016  39.031  14.737
39685W        W12753   1.490   3.442  14.063
39686W        W12754  35.069  26.678   4.257
39687W        W12755  32.013  33.842   4.703
39688W        W12756  29.868  28.936   4.791
39689W        W12757  14.917  32.985   3.262
39690W        W12758  38.964   8.949  13.992
39691W        W12759  36.756   2.042  12.031
39692W        W12760  23.719  15.891  12.552
39693W        W12761  31.611  35.125   2.698
39694W        W12762  25.627  37.437  10.007
39695W        W12763  31.167  11.815   1.593
39696W        W12764  40.048  29.968  13.740
39697W        W12765  35.903  15.542   1.906
39698W        W12766   5.133  26.203  14.318
39699W        W12767   4.679  21.215  12.939
39700W        W12768  43.203   1.042  12.769
39701W        W12769   8.980  32.326   1.770
39702W        W12770   8.303  29.939   3.837
39703W        W12771   3.835   6.385   4.926
39704W        W12772  43.027  23.317   3.234
39705W        W12773  26.056  37.551   2.295
39706W        W12774  29.921  31.651  12.985
39707W        W12775  31.178   6.062   2.786
39708W        W12776  21.118  31.572  14.185
39709W        W12777  16.520  21.400  12.628
39710W        W12778  21.711  16.731   4.218
39711W        W12779   5.941   2.635  13.877
39712W        W12780  20.244  26.732   3.241
39713W        W12781  19.991  29.206  13.892
39714W        W12782   1.408   9.665  14.333
39715W        W12783  20.907  35.965   3.893
39716W        W12784  23.180  26.108   3.877
39717W        W12785  17.119   3.150   0.941
39718W        W12786  10.695  29.169  11.865
39719W        W12787  40.040  29.167  10.571
39720W        W12788   9.133  14.459   0.424
39721W        W12789   5.419  37.741  12.355
39722W        W12790  23.701  29.973   3.690
39723W        W12791  31.010  22.956  11.386
39724W        W12792  33.030  24.479   4.207
39725W        W12793  16.055  27.656   4.068
39726W        W12794  42.344  22.991   4.949
39727W        W12795  13.332  31.861   1.736
39728W        W12796  41.745  39.413   0.753
39729W        W12797   2.372  17.740  13.870
39730W        W12798  18.525   9.716   4.194
39731W        W12799  39.537  26.941   3.973
39732W        W12800   8.792  22.023   1.876
39733W        W12801   8.973  35.559   2.255
39734W        W12802  31.867  36.545   3.177
39735W        W12803  27.526  27.044   4.219
39736W        W12804   6.075  11.392   9.956
39737W        W12805  16.366  19.395   0.890
39738W        W12806  27.920  33.536   3.498
39739W        W12807  32.215   1.728   1.180
39740W        W12808   4.290  20.139  11.511
39741W        W12809  32.248   3.968   1.290
39742W        W12810  29.584  26.801  12.041
39743W        W12811  33.401   6.549   1.297
39744W        W12812   5.123   1.986   0.300
39745W        W12813  12.015  43.192  11.071
39746W        W12814  41.287  37.755  14.403
39747W        W12815  29.444  10.974  14.098
39748W        W12816  42.035  33.989   3.045
39749W        W12817  32.856   6.397  10.762
39750W        W12818   7.830  17.490   2.667
39751W        W12819   0.820   3.922   0.912
39752W        W12820   2.241   7.371  14.202
39753W        W12821  36.424  37.387   0.372
39754W        W12822  26.739  11.166  14.363
39755W        W12823  21.286  22.871   1.313
39756W        W12824   9.308  30.969   1.830
39757W        W12825  29.076  10.243   1.325
39758W        W12826  12.360   5.042  11.131
39759W        W12827  16.137  17.640  11.196
39760W        W12828  33.996   4.910  12.207
39761W        W12829   5.252   8.422   1.752
39762W        W12830   8.592  19.653  12.536
39763W        W12831  27.068   7.215  12.419
39764W        W12832  14.163  33.531  11.962
39765W        W12833  35.490   8.037  13.473
39766W        W12834  39.027  32.568   0.576
39767W        W12835  39.978   1.126   2.784
39768W        W12836   0.398   9.810   0.831
39769W        W12837  24.533   6.820  11.171
39770W        W12838  18.018  44.384  14.343
39771W        W12839  37.596  14.375  12.575
39772W        W12840  21.895  42.810  10.069
39773W        W12841  29.871  23.472   4.640
39774W        W12842  38.559   3.334   3.179
39775W        W12843  44.047  31.493  10.169
39776W        W12844  16.343  20.352   2.831
39777W        W12845  14.866  26.640  10.551
39778W        W12846  17.322   6.782   3.378
39779W        W12847   4.961  38.583  14.203
39780W        W12848   8.380  24.893   0.648
39781W        W12849  42.302  23.643  14.890
39782W        W12850  15.725   2.416  13.678
39783W        W12851  32.459  19.777  12.853
39784W        W12852  11.391  17.533  13.008
39785W        W12853  16.495  44.527  12.852
39786W        W12854  29.679  11.289   3.687
39787W        W12855  36.644  41.568   1.369
39788W        W12856  29.683   6.708  14.338
39789W        W12857  29.191  36.255  11.069
39790W        W12858   0.401  40.836   1.775
39791W        W12859  21.270  27.928  14.894
39792W        W12860  37.444  39.957  13.515
39793W        W12861  42.020  37.616   1.265
39794W        W12862  35.662  17.506   3.754
39795W        W12863   4.362   4.891  14.765
39796W        W12864  17.369   9.312   0.498
39797W        W12865  25.945   1.979   1.982
39798W        W12866  19.094  18.009  12.172
39799W        W12867   0.454  21.106   0.791
39800W        W12868  27.438  11.635   2.373
39801W        W12869  31.393   6.276   4.688
39802W        W12870  13.388  19.830  10.720
39803W        W12871  40.358  29.081   4.581
39804W        W12872   9.101  30.637  12.369
39805W        W12873  42.362  32.507   2.836
39806W        W12874  22.432  11.197   4.165
39807W        W12875  13.666  19.170  13.373
39808W        W12876  35.364   2.505   1.483
39809W        W12877  36.456  16.891  11.744
39810W        W12878  39.474  15.180   1.418
39811W        W12879   9.266  20.420  11.956
39812W        W12880  35.244  12.233   0.872
39813W        W12881  30.065  41.836  12.790
39814W        W12882  41.127   5.740   1.466
39815W        W12883  24.099  27.751  13.840
39816W        W12884  22.318  31.137  13.790
39817W        W12885  34.366  41.285   2.719
39818W        W12886  25.108  22.694   0.368
39819W        W12887  36.087  12.583  13.097
39820W        W12888  20.513  22.693   1.649
39821W        W12889  38.131   5.783  13.144
39822W        W12890  29.574   7.155   5.074
39823W        W12891  13.658  38.269  10.536
39824W        W12892  39.989   7.180   1.315
39825W        W12893  33.019  17.349  10.639
39826W        W12894   7.734  36.337   0.419
39827W        W12895   8.053  30.015  13.046
39828W        W12896  25.661  18.104  11.567
39829W        W12897  12.199  39.771  12.579
39830W        W12898  23.144   6.680  14.528
39831W        W12899  16.298  32.913   4.249
39832W        W12900  32.488   2.239  10.719
39833W        W12901  34.524  12.943   0.253
39834W        W12902  36.054  31.805   1.867
39835W        W12903  14.998  34.987   2.687
39836W        W12904  25.705   6.687  13.239
39837W        W12905  35.132  17.510   3.710
39838W        W12906   4.815   7.206   1.674
39839W        W12907  12.178  40.612  12.854
39840W        W12908  30.679  44.043  12.011
39841W        W12909  43.532  17.153  14.525
39842W        W12910   6.159  35.209   2.242
39843W        W12911  18.164   5.922  12.814
39844W        W12912  11.747  35.705  11.143
39845W        W12913  39.864  21.751  11.132
39846W        W12914   6.203   0.403  14.450
39847W        W12915  33.186  32.501  14.077
39848W        W12916  39.436  11.419  14.852
39849W        W12917  41.445  25.406   1.430
39850W        W12918  26.674  25.139  12.221
39851W        W12919  36.496  11.209  11.157
39852W        W12920  30.434  25.106  14.089
39853W        W12921  20.590  22.174  11.233
39854W        W12922   9.816  27.355   1.109
39855W        W12923  26.610   8.581   5.075
39856W        W12924  22.015  13.804   4.130
39857W        W12925  24.329  39.354   3.287
39858W        W12926  43.829  34.381   3.176
39859W        W12927  15.179   5.927   4.306
39860W        W12928  41.940  12.769  14.442
39861W        W12929  17.134  24.242   2.249
39862W        W12930  10.887   3.303  10.592
39863W        W12931  36.086  36.271  14.185
39864W        W12932   9.699  10.883  13.031
39865W        W12933  27.428  36.213   2.382
39866W        W12934  42.326   1.020  13.972
39867W        W12935  16.331  43.053   4.131
39868W        W12936  15.730  33.420   4.911
39869W        W12937  15.821   9.225   1.420
39870W        W12938   7.736   1.075   2.416
39871W        W12939  30.958  41.002   0.464
39872W        W12940   0.845  15.105  14.537
39873W        W12941  25.629  31.605  14.348
39874W        W12942  37.380  25.615   0.054
39875W        W12943  12.187  28.969   3.389
39876W        W12944  41.925  42.731  11.021
39877W        W12945  30.979   2.820  12.504
39878W        W12946  11.656  26.257  10.467
39879W        W12947  29.103   5.777   4.610
39880W        W12948  30.058  25.160  12.881
39881W        W12949   6.339  16.759   3.213
39882W        W12950  37.278  16.369  12.420
39883W        W12951   1.252  15.250   3.880
39884W        W12952  19.269  14.352   4.805
39885W        W12953  25.245  40.965  11.641
39886W        W12954   2.595  29.510  13.404
39887W        W12955  24.190  27.956  13.376
39888W        W12956  21.617  33.334  11.116
39889W        W12957  22.418  42.022   1.402
39890W        W12958  14.791  17.355   1.306
39891W        W12959  33.962   4.729   1.859
39892W        W12960   1.806  16.106  11.110
39893W        W12961   2.700  40.929   2.914
39894W        W12962  38.490   6.417   4.529
39895W        W12963  34.077  20.984  10.383
39896W        W12964  39.508   2.308   1.247
39897W        W12965  17.747  44.951  14.327
39898W        W12966  24.438  34.112   0.746
39899W        W12967  26.492  16.736   1.241
39900W        W12968  11.829  40.512  11.543
39901W        W12969  20.095  38.419  12.032
39902W        W12970  12.654  18.793  11.239
39903W        W12971  34.024  26.024  12.646
39904W        W12972  27.714  10.996   4.138
39905W        W12973  20.470   5.332  12.230
39906W        W12974  28.486  26.758  13.343
39907W        W12975   4.333   2.045   3.155
39908W        W12976   6.970  36.780  11.672
39909W        W12977  43.919  24.187   4.171
39910W        W12978   9.223  15.099  14.673
39911W        W12979   7.118  29.352   3.834
39912W        W12980   1.379   6.135   3.334
39913W        W12981  39.767  44.707   2.346
39914W        W12982  14.062  14.168  14.486
39915W        W12983  43.857   1.744  13.574
39916W        W12984  29.094  13.519   0.819
39917W        W12985  39.013   5.287   0.366
39918W        W12986  17.322  10.293  11.488
39919W        W12987   3.290   8.815  14.814
39920W        W12988  10.770  43.875  14.223
39921W        W12989  28.691  30.008   4.160
39922W        W12990  24.703  37.881   1.752
39923W        W12991  19.285  17.603  12.476
39924W        W12992  17.934   2.150   4.321
39925W        W12993  34.987  11.763  12.637
39926W        W12994  11.975  18.302   3.041
39927W        W12995   6.485  28.234  11.981
39928W        W12996  10.358  12.531  12.096
39929W        W12997  13.363   3.348  14.821
39930W        W12998  17.686  19.941   2.805
39931W        W12999  31.177  37.411  10.771
39932W        W13000  39.569  21.211   0.463
39933W        W13001  37.147  27.929   2.238
39934W        W13002  31.938  29.021  14.324
39935W        W13003  13.114   4.318  13.008
39936W        W13004  15.800  39.018  13.995
39937W        W13005  43.266  30.854   4.946
39938W        W13006  26.409  19.130  11.412
39939W        W13007  39.735   4.485  14.371
39940W        W13008  36.311  39.318   0.290
39941W        W13009  38.248  25.667   3.899
39942W        W13010   6.942  18.528   2.937
39943W        W13011  19.994   8.535   5.093
39944W        W13012  28.494  24.375  12.478
39945W        W13013  38.444  19.281  14.880
39946W        W13014   7.789  41.548   3.746
39947W        W13015  43.916  19.782   0.511
39948W        W13016  41.146  36.347  10.578
39949W        W13017  26.727  25.650  12.057
39950W        W13018  31.085   9.690  11.941
39951W        W13019  17.075   7.760   4.474
39952W        W13020  35.218  19.574   2.536
39953W        W13021  25.033  19.894   4.111
39954W        W13022  27.644  29.733   2.332
39955W        W13023  26.045  30.183   3.696
39956W        W13024   8.973  40.523   0.704
39957W        W13025  39.461  23.646   3.158
39958W        W13026   9.357  43.110   2.891
39959W        W13027   4.288  37.555   0.877
39960W        W13028  19.452   5.876   3.339
39961W        W13029  44.785  18.144  13.011
39962W        W13030  18.951  12.361  10.463
39963W        W13031  41.803  14.793  11.740
39964W        W13032  18.630  21.790   3.641
39965W        W13033  26.271   6.354  13.577
39966W        W13034  21.742   3.188   4.675
39967W        W13035  40.278   5.801  13.408
39968W        W13036  42.965  31.807   2.218
39969W        W13037  43.519  42.933   3.166
39970W        W13038  23.501   7.413  14.288
39971W        W13039   2.386   1.270  12.408
39972W        W13040  23.355  35.595  14.532
39973W        W13041  18.691   6.527  13.975
39974W        W13042  13.013   6.723  10.427
39975W        W13043  27.208  41.887   3.247
39976W        W13044  29.086  39.838  11.855
39977W        W13045   1.867  32.389   2.289
39978W        W13046  19.461  35.537  12.063
39979W        W13047   3.148   5.360  14.044
39980W        W13048   8.381  19.751  13.575
39981W        W13049  39.844   0.318  10.816
39982W        W13050  26.529  14.172  10.760
39983W        W13051  32.545   0.299   1.177
39984W        W13052  14.932  18.951  13.931
39985W        W13053  24.697  14.320  13.378
39986W        W13054  37.747   9.888   4.100
39987W        W13055  36.487  43.185   0.325
39988W        W13056   4.235  29.476  11.359
39989W        W13057  39.574  36.359   1.427
39990W        W13058   2.182   4.884   0.543
39991W        W13059  33.998  23.209   3.549
39992W        W13060  43.988  40.049  11.541
39993W        W13061  21.298   2.202   0.945
39994W        W13062  43.358  27.585   3.232
39995W        W13063  19.731  25.430  12.933
39996W        W13064  34.044   3.955  11.886
39997W        W13065   3.805  27.731  12.575
39998W        W13066   0.334  43.228  14.263
39999W        W13067  39.928  16.151  14.508
40000W        W13068  10.173   5.841  11.375
40001W        W13069  35.480  43.194   0.953
40002W        W13070  12.923   9.415   4.178
40003W        W13071  34.401  33.557   1.972
40004W        W13072   4.209  11.286   4.196
40005W        W13073  31.414  23.637   1.275
40006W        W13074   7.785  21.784  12.923
40007W        W13075  44.478  30.047   4.777
40008W        W13076  44.803  18.672  12.849
40009W        W13077   9.259  29.586   3.666
40010W        W13078  15.519   0.399  13.852
40011W        W13079  20.703  25.987   3.771
40012W        W13080  20.080  10.713  10.980
40013W        W13081   5.353  34.425  14.452
40014W        W13082   5.074  21.487   0.996
40015W        W13083  20.991  12.333  10.891
40016W        W13084   9.299   4.743  14.079
40017W        W13085  11.771  13.761  14.036
40018W        W13086   9.392  38.820  14.344
40019W        W13087   3.977  12.308  11.758
40020W        W13088   5.894  20.613   1.395
40021W        W13089  30.515  12.660  13.742
40022W        W13090  28.026  29.034   3.551
40023W        W13091   9.192  44.388   3.488
40024W        W13092  17.358  38.845  11.142
40025W        W13093  29.416  21.499   1.834
40026W        W13094  28.449   2.822  13.324
40027W        W13095  12.117  42.542   2.700
40028W        W13096  17.641  18.492  14.428
40029W        W13097  39.627   4.401   4.573
40030W        W13098  38.234   0.891  13.128
40031W        W13099  15.567   1.322  14.349
40032W        W13100  16.146  33.394   1.386
40033W        W13101  38.835  10.712   4.497
40034W        W13102  35.794  16.304  13.869
40035W        W13103  33.646   7.122  14.903
40036W        W13104  38.827  33.199  11.333
40037W        W13105  28.963   2.672   1.467
40038W        W13106   3.177  21.954   3.309
40039W        W13107  25.706  17.820   2.616
40040W        W13108   0.239  32.583   3.234
40041W        W13109  18.098  19.025   0.647
40042W        W13110  13.214  23.531  14.475
40043W        W13111  12.763  30.700   4.211
40044W        W13112   8.730   2.499   4.378
40045W        W13113   3.803  28.911  12.852
40046W        W13114  23.962  22.194   2.226
40047W        W13115  36.088  14.270   0.797
40048W        W13116  16.317  30.732  14.524
40049W        W13117  15.386  23.035   4.200
40050W        W13118  32.588  20.933   1.309
40051W        W13119  27.436  16.087  11.125
40052W        W13120  44.292  24.064   2.885
40053W        W13121  10.280  42.879   3.819
40054W        W13122  44.374  40.231   2.668
40055W        W13123  30.456  35.925  12.750
40056W        W13124   0.754  26.479  11.919
40057W        W13125  39.023   6.327  14.288
40058W        W13126  26.536  17.843  11.083
40059W        W13127  14.852  22.573  13.522
40060W        W13128  36.933  38.573   0.219
40061W        W13129   2.000   3.944  12.526
40062W        W13130  26.409  30.589  10.660
40063W        W13131  36.199  29.711   3.588
40064W        W13132   9.289  12.073   4.038
40065W        W13133  20.977  30.122  11.054
40066W        W13134   1.292  16.086  11.541
40067W        W13135  14.677   6.682   4.571
40068W        W13136  32.346  10.903  13.471
40069W        W13137  42.346  23.022  11.057
40070W        W13138  29.069  13.623  14.830
40071W        W13139  16.383  33.494  12.552
40072W        W13140  23.866  36.462   1.834
40073W        W13141  33.141  21.698   0.394
40074W        W13142  30.915  32.826  11.228
40075W        W13143  15.409  42.742   2.613
40076W        W13144  43.991   2.917   4.886
40077W        W13145  31.516  15.857   0.303
40078W        W13146  42.274   1.940  10.940
40079W        W13147  37.249  34.879  14.823
40080W        W13148  30.532   6.283  12.029
40081W        W13149  42.900   7.201   2.953
40082W        W13150  22.225   8.973  14.889
40083W        W13151  37.647  33.443   2.152
40084W        W13152  39.060  31.413  11.649
40085W        W13153  20.308  25.222   4.663
40086W        W13154  14.179   2.960   2.406
40087W        W13155  34.994  25.512   0.741
40088W        W13156   2.752  11.196  12.869
40089W        W13157   4.373  30.470   4.839
40090W        W13158  16.734  30.551   2.966
40091W        W13159  38.972   1.388  12.811
40092W        W13160  38.816  10.829  12.345
40093W        W13161  25.092  27.189   3.177
40094W        W13162   9.450  21.312  14.903
40095W        W13163  29.689  43.993   0.090
40096W        W13164   0.265   4.304  11.121
40097W        W13165   6.905  29.368   4.904
40098W        W13166   7.720  17.639  11.007
40099W        W13167   2.442  22.961  11.625
40100W        W13168  19.662  18.135  11.497
40101W        W13169  36.067  15.411   0.272
40102W        W13170  20.747  22.109   4.109
40103W        W13171  22.266   4.306   3.583
40104W        W13172  13.261  33.730  13.074
40105W        W13173   2.289   7.381   0.119
40106W        W13174   0.350  26.126   0.460
40107W        W13175  29.132  10.270  10.539
40108W        W13176  18.619   4.215   1.770
40109W        W13177   1.039  37.876  12.492
40110W        W13178   0.070  18.278   0.993
40111W        W13179  15.124  11.841  14.429
40112W        W13180  24.779  43.427   0.411
40113W        W13181  42.562  14.695  13.559
40114W        W13182  37.937  18.350   0.151
40115W        W13183  19.546  30.936   1.933
40116W        W13184  28.064  25.485  11.876
40117W        W13185   6.797  27.972  14.291
40118W        W13186   6.719  44.764  10.689
40119W        W13187  29.497  34.952  11.120
40120W        W13188  13.220  18.281  10.012
40121W        W13189   4.688  36.551  14.237
40122W        W13190  31.823  19.626   2.315
40123W        W13191  27.010  20.094  13.810
40124W        W13192  27.062  39.051   3.150
40125W        W13193  31.434   2.284  10.947
40126W        W13194  12.614  43.102  11.103
40127W        W13195  44.071  33.683   2.340
40128W        W13196  26.646  19.502  11.650
40129W        W13197   2.612  40.797  14.380
40130W        W13198  39.500   7.306   1.506
40131W        W13199  28.478  19.067  14.302
40132W        W13200  20.061  15.007   1.700
40133W        W13201  17.418  31.921   0.416
40134W        W13202  26.760  40.140  12.030
40135W        W13203  35.379  41.473   2.675
40136W        W13204  37.092  41.964  14.686
40137W        W13205  38.681   1.182  11.109
40138W        W13206  43.406  29.376   4.179
40139W        W13207  30.903  15.629  12.958
40140W        W13208  31.638   4.299  14.356
40141W        W13209  38.494  24.709   3.525
40142W        W13210   8.755  10.694   2.802
40143W        W13211  12.164   1.390  14.069
40144W        W13212  29.468  17.560  13.834
40145W        W13213  41.932  17.735  14.783
40146W        W13214  33.465  30.020  10.961
40147W        W13215  17.521  17.352   0.932
40148W        W13216   7.940  37.398   4.375
40149W        W13217   4.102   2.965  10.817
40150W        W13218   8.380  12.011   4.158
40151W        W13219  32.420   2.846  13.788
40152W        W13220  29.566   7.648   1.582
40153W        W13221   6.426  44.522   0.523
40154W        W13222  32.659  43.012   3.272
40155W        W13223  15.382   3.308   4.244
40156W        W13224   4.467  26.565  12.133
40157W        W13225  16.012   0.733  14.659
40158W        W13226  35.557  19.510  11.683
40159W        W13227  17.742  23.465   4.446
40160W        W13228  29.486  23.180   0.645
40161W        W13229  21.409  28.455   1.276
40162W        W13230  28.095  39.265   4.205
40163W        W13231   0.860  17.218  14.351
40164W        W13232  34.525  16.356  13.030
40165W        W13233  32.442  22.533  14.424
40166W        W13234  39.302   9.345  10.225
40167W        W13235  23.992   7.682  10.687
40168W        W13236  21.511  26.673   0.307
40169W        W13237  16.567  18.602  11.417
40170W        W13238   2.204  33.010  14.092
40171W        W13239   1.872  34.780   0.546
40172W        W13240  22.440  15.108  13.213
40173W        W13241   3.308  24.236  12.668
40174W        W13242  13.174  43.898   4.467
40175W        W13243  38.408  42.585   3.157
40176W        W13244  20.253   9.620  13.122
40177W        W13245  25.434  30.922  12.099
40178W        W13246  42.070  39.069   3.202
40179W        W13247  37.919  44.043   3.272
40180W        W13248   8.932  41.974   0.324
40181W        W13249  44.993  27.000   0.621
40182W        W13250   6.238  30.492   0.521
40183W        W13251   5.020  35.696   2.730
40184W        W13252  17.104  17.163  12.478
40185W        W13253  38.036  18.974  14.942
40186W        W13254   5.769  25.273  11.543
40187W        W13255   5.219  17.959  14.945
40188W        W13256   0.431  38.412   0.314
40189W        W13257  35.027  36.393   1.643
40190W        W13258  44.285  44.751   3.752
40191W        W13259  20.972  24.176   2.086
40192W        W13260  23.986  27.543   0.808
40193W        W13261  22.545  42.228   0.937
40194W        W13262   4.800  20.137   4.837
40195W        W13263   8.617  30.554  14.419
40196W        W13264  22.963  17.718   1.023
40197W        W13265  37.999  16.546  13.409
40198W        W13266  41.901  42.192  13.359
40199W        W13267  38.992  12.573  14.516
40200W        W13268   9.716  15.664   3.831
40201W        W13269  37.168   4.851  11.297
40202W        W13270   7.382   9.240   2.702
40203W        W13271  19.484  31.039   0.354
40204W        W13272  15.817  18.237   3.653
40205W        W13273  25.035  22.780   3.233
40206W        W13274  22.602  36.766   3.540
40207W        W13275  26.551  21.018   0.081
40208W        W13276  10.217  20.311  12.874
40209W        W13277  25.555  28.862   1.480
40210W        W13278  15.368  33.401  11.446
40211W        W13279  21.702  20.424  12.505
40212W        W13280   6.953  21.495  10.753
40213W        W13281  36.437  34.132  10.036
40214W        W13282  35.060  24.676  14.878
40215W        W13283  21.721   4.050   0.910
40216W        W13284  15.705  22.193   3.084
40217W        W13285  26.011   1.701   2.421
40218W        W13286  20.234  29.711  11.096
40219W        W13287  42.397  39.438   3.588
40220W        W13288  31.047  41.521   0.548
40221W        W13289   4.783  32.616   4.726
40222W        W13290  27.216  10.567  12.967
40223W        W13291  36.386  13.926  11.494
40224W        W13292  15.475   2.508  11.097
40225W        W13293  29.226  29.480  12.064
40226W        W13294  18.588  34.151  14.342
40227W        W13295  23.686  43.223   3.180
40228W        W13296  27.499  44.173   1.149
40229W        W13297   2.279  43.780  11.168
40230W        W13298  19.492  21.107  14.425
40231W        W13299  10.022  31.637   1.084
40232W        W13300   3.920  23.028   2.193
40233W        W13301   5.849  24.534  13.039
40234W        W13302   5.348  35.404  10.803
40235W        W13303   9.467  16.198   3.797
40236W        W13304  11.661  14.102   4.091
40237W        W13305  28.673  24.190  10.778
40238W        W13306   6.733  25.519  13.035
40239W        W13307  30.742  15.747   0.197
40240W        W13308  14.802  44.865  14.991
40241W        W13309  22.969  30.231  12.024
40242W        W13310  33.951  41.968   0.197
40243W        W13311   3.706   7.192   3.643
40244W        W13312  24.398  29.883  12.081
40245W        W13313  21.790  35.572   1.423
40246W        W13314   4.940  43.826  12.635
40247W        W13315  24.533  15.450  11.601
40248W        W13316  13.307  40.347   0.685
40249W        W13317  34.719  22.037  11.316
40250W        W13318  11.570  44.448  11.018
40251W        W13319  27.669   4.956   3.767
40252W        W13320  35.817  15.659  13.026
40253W        W13321  20.599  15.284   3.246
40254W        W13322   9.341  22.687  11.910
40255W        W13323  35.596  15.481  12.527
40256W        W13324  34.089  25.548   4.776
40257W        W13325  39.848  42.927  14.022
40258W        W13326  44.358  29.583   4.504
40259W        W13327  41.025  10.294  10.308
40260W        W13328  44.847  23.713  14.317
40261W        W13329   9.901  27.098  12.370
40262W        W13330  30.027  40.493   2.478
40263W        W13331  26.225  36.490   3.146
40264W        W13332  35.049  19.542  14.262
40265W        W13333   2.049  28.758   0.809
40266W        W13334  39.978   8.934  12.565
40267W        W13335  33.906  29.836  13.384
40268W        W13336  38.433  18.231   3.967
40269W        W13337  18.516  25.350  10.627
40270W        W13338  38.920  42.807  11.652
40271W        W13339  13.400   4.604  12.532
40272W        W13340  16.535  22.900  12.006
40273W        W13341   3.714   1.717  12.078
40274W        W13342  11.159  20.504  12.821
40275W        W13343  35.624  21.654  11.081
40276W        W13344  34.055   9.474   2.305
40277W        W13345   6.639   1.402   3.393
40278W        W13346  43.009  20.497  10.749
40279W        W13347  21.777  31.576   3.945
40280W        W13348  41.335  27.121   0.358
40281W        W13349  39.373  12.763  13.884
40282W        W13350  36.892  15.530  13.964
40283W        W13351  29.669  24.744   2.264
40284W        W13352  38.040  27.198  14.201
40285W        W13353  42.223  19.115   2.391
40286W        W13354  27.198  13.354   1.336
40287W        W13355  39.362  10.857  13.006
40288W        W13356   1.685  24.790   2.669
40289W        W13357  35.007  18.805  12.425
40290W        W13358  41.552  36.252  12.020
40291W        W13359   9.223  39.904  12.969
40292W        W13360   7.330  27.680   1.735
40293W        W13361   5.645   3.049  14.674
40294W        W13362  37.489  13.666   4.724
40295W        W13363  17.822  34.651  12.033
40296W        W13364  10.667  37.568  12.922
40297W        W13365  40.034  41.984   4.659
40298W        W13366  15.186  15.463  11.863
40299W        W13367   9.336  18.501   4.665
40300W        W13368  21.803  35.345  11.930
40301W        W13369  12.200  21.155   0.285
40302W        W13370  42.590  23.675  13.637
40303W        W13371  18.991  38.088   1.743
40304W        W13372   0.736   1.071  14.406
40305W        W13373  25.500   8.508  11.159
40306W        W13374  14.767   3.441   1.996
40307W        W13375   2.197  29.059  10.674
40308W        W13376  28.179  14.278   1.290
40309W        W13377  18.252  38.978   0.890
40310W        W13378  32.414  35.792  14.988
40311W        W13379  26.137  37.396   9.944
40312W        W13380  12.984  39.079   4.467
40313W        W13381  22.508  10.743  14.951
40314W        W13382  37.220  40.960  12.112
40315W        W13383  12.864  17.572  11.472
40316W        W13384  26.613   4.112  11.091
40317W        W13385   2.073  42.024   4.153
40318W        W13386   1.469  34.086  14.111
40319W        W13387  19.299   4.744  10.741
40320W        W13388  15.972  27.026  13.469
40321W        W13389  24.253  39.343   4.020
40322W        W13390   4.182   0.559  11.599
40323W        W13391   0.990  11.656  12.949
40324W        W13392   8.334  34.890   1.352
40325W        W13393  22.403  33.632  13.468
40326W        W13394  20.799  36.408  13.906
40327W        W13395  16.496   6.823  14.877
40328W        W13396  43.485   1.471  14.336
40329W        W13397  12.957  34.846  11.606
40330W        W13398  14.758   8.120  13.046
40331W        W13399  25.736  39.718  10.242
40332W        W13400   2.469  14.335   2.756
40333W        W13401  34.634  20.450   1.881
40334W        W13402   2.848  39.744  10.730
40335W        W13403   8.435  17.588  12.021
40336W        W13404  17.155  18.571  12.828
40337W        W13405  32.610   3.493   4.199
40338W        W13406  21.943  18.613  10.275
40339W        W13407  23.187  38.427   1.574
40340W        W13408   4.421   1.921   4.133
40341W        W13409   8.093  14.607   1.749
40342W        W13410  22.022  33.835   0.354
40343W        W13411  26.957  35.496   2.461
40344W        W13412   3.764  24.963  12.531
40345W        W13413  41.425  13.407   9.507
40346W        W13414  22.226  23.246  12.467
40347W        W13415   7.591  27.587   1.306
40348W        W13416  17.499  11.177  11.640
40349W        W13417  27.669  27.057  14.057
40350W        W13418  12.207  12.355  14.368
40351W        W13419  24.851   4.913  12.514
40352W        W13420  27.215  20.931   4.607
40353W        W13421  13.822  21.185  14.855
40354W        W13422   9.338  32.036   5.119
40355W        W13423   4.452  14.875  12.901
40356W        W13424  21.463  31.619  10.731
40357W        W13425  35.388  33.356   4.651
40358W        W13426  12.656  23.941  12.893
40359W        W13427   2.708  43.951  12.441
40360W        W13428   7.774  22.731   3.153
40361W        W13429  26.893  39.553   0.339
40362W        W13430  20.581  43.755  11.142
40363W        W13431  33.942  15.462   0.821
40364W        W13432   9.378  12.352   1.473
40365W        W13433   9.913  39.139  14.420
40366W        W13434  28.575  11.875   2.887
40367W        W13435  40.997  30.371   1.300
40368W        W13436  39.965  24.519  10.931
40369W        W13437  30.394  18.514  13.733
40370W        W13438   0.381  10.348   3.434
40371W        W13439   2.913   7.024  14.874
40372W        W13440   5.965  38.367  11.973
40373W        W13441  27.958  26.710   4.201
40374W        W13442  17.360  44.844   2.803
40375W        W13443  20.789  43.398  14.882
40376W        W13444  13.111  26.914   0.850
40377W        W13445   2.605  38.405   3.504
40378W        W13446  19.424  12.133   0.458
40379W        W13447  25.726   4.494  14.049
40380W        W13448  24.437  30.549   0.222
40381W        W13449  33.987   8.743   0.791
40382W        W13450   3.380   1.532   0.506
40383W        W13451  12.653  43.791  12.402
40384W        W13452  21.524  19.986   0.501
40385W        W13453   7.417  15.843   0.526
40386W        W13454  42.471  43.340   1.758
40387W        W13455  10.788   3.723   4.030
40388W        W13456  36.649  34.137   4.665
40389W        W13457  17.997  25.493   4.591
40390W        W13458  33.848  13.806  10.995
40391W        W13459  17.380  32.955   3.151
40392W        W13460  19.746  34.975  14.006
40393W        W13461  20.723   5.716   3.670
40394W        W13462  19.025  22.185  13.895
40395W        W13463  37.112  12.320  12.112
40396W        W13464  16.557   9.182   2.627
40397W        W13465   2.917  20.561   3.289
40398W        W13466  39.252  42.358  14.757
40399W        W13467  21.130  43.684   5.031
40400W        W13468  18.286  18.122   1.932
40401W        W13469  28.135  28.415   1.741
40402W        W13470  29.156   4.508  11.290
40403W        W13471  22.570  14.288   3.803
40404W        W13472   0.701  19.567  13.362
40405W        W13473  41.801   6.654   0.664
40406W        W13474  40.016  35.952   4.566
40407W        W13475  16.576  24.284  12.473
40408W        W13476  11.199  23.937  12.835
40409W        W13477  24.591  19.812   2.485
40410W        W13478  38.547   9.817  14.910
40411W        W13479  22.608  12.112   4.441
40412W        W13480   5.423   1.225   0.756
40413W        W13481  20.545  16.240   3.189
40414W        W13482  31.463   6.532  13.059
40415W        W13483  37.285  31.005  11.657
40416W        W13484  17.331  23.252  12.989
40417W        W13485  41.432   1.435  13.000
40418W        W13486  41.854   9.725   0.961
40419W        W13487  16.889  26.728  12.208
40420W        W13488  43.809  23.059  12.479
40421W        W13489  38.002  27.999   4.693
40422W        W13490  25.454  10.637   3.820
40423W        W13491  37.970  12.359  14.049
40424W        W13492  36.015  29.593   3.107
40425W        W13493  14.660   1.998  11.193
40426W        W13494  35.361  25.544  13.398
40427W        W13495  41.746  35.376   4.205
40428W        W13496  21.634  30.001   0.240
40429W        W13497  24.461  37.459  14.559
40430W        W13498   3.061  38.331  11.132
40431W        W13499  11.344  24.944   4.633
40432W        W13500  34.931  37.569  12.895
40433W        W13501  21.477   6.699  12.613
40434W        W13502  40.774  26.480  12.835
40435W        W13503  30.118  26.136   4.378
40436W        W13504  22.681  18.836   2.442
40437W        W13505  22.908  38.560   0.259
40438W        W13506   6.429  21.775  12.052
40439W        W13507  35.711  34.665   2.849
40440W        W13508  13.804  20.570   3.268
40441W        W13509  25.534  40.582   2.260
40442W        W13510  34.469  21.287  11.723
40443W        W13511  29.350  21.709  12.899
40444W        W13512  44.537  39.392   2.337
40445W        W13513   1.751  35.954   2.878
40446W        W13514   6.408  29.259  12.029
40447W        W13515  36.788  32.295  11.496
40448W        W13516  27.626   9.160   0.457
40449W        W13517  43.454  33.612  11.653
40450W        W13518   8.645   5.469  14.000
40451W        W13519   1.407  44.448  14.808
40452W        W13520  23.685   1.390   4.111
40453W        W13521  13.628   1.985  14.313
40454W        W13522  23.449  38.734   2.756
40455W        W13523  25.973   4.404   2.434
40456W        W13524   5.930  22.327   2.243
40457W        W13525  43.228  14.329  13.024
40458W        W13526  21.253  21.694  13.697
40459W        W13527   5.007   8.278  11.411
40460W        W13528   3.687  40.236  11.326
40461W        W13529  13.430   1.790  14.760
40462W        W13530  22.966  24.130  14.500
40463W        W13531   5.230  29.900  14.936
40464W        W13532  44.476  19.714  10.582
40465W        W13533  10.452  21.586   4.920
40466W        W13534  44.065  37.472  10.706
40467W        W13535  10.901  20.959  13.958
40468W        W13536   9.897  43.393   3.297
40469W        W13537  15.832  29.950   4.119
40470W        W13538  22.993  27.706  14.814
40471W        W13539  11.806  33.501   0.873
40472W        W13540  34.146  29.842  14.280
40473W        W13541  16.656  28.432  14.126
40474W        W13542  43.446   0.804  13.517
40475W        W13543   9.130  32.323  11.103
40476W        W13544  32.036   9.722  12.859
40477W        W13545   5.347   8.088  11.756
40478W        W13546  43.029   0.587   2.817
40479W        W13547  33.391  40.212  13.419
40480W        W13548  36.490  20.693  13.440
40481W        W13549  30.748   1.256   2.507
40482W        W13550   5.264  34.492   3.018
40483W        W13551  26.124   5.195   1.748
40484W        W13552  26.138   6.477   4.212
40485W        W13553  34.612   0.433  13.516
40486W        W13554  41.070  19.439   1.065
40487W        W13555   2.860  10.566   4.899
40488W        W13556  28.637  10.965  14.004
40489W        W13557  32.182  12.618   0.979
40490W        W13558  32.212   7.642  11.131
40491W        W13559  33.030  19.142  11.910
40492W        W13560  35.397  38.416  10.850
40493W        W13561   8.285   4.015   2.875
40494W        W13562  18.016  40.968   1.155
40495W        W13563  41.437  27.486  12.271
40496W        W13564  30.628   9.251  13.254
40497W        W13565  10.755  44.199  14.629
40498W        W13566  30.944  31.210   3.962
40499W        W13567   6.303  39.564   1.046
40500W        W13568  32.783  13.598  14.225
40501W        W13569  43.179   8.799   0.975
40502W        W13570  16.449  24.054  12.049
40503W        W13571  19.254  25.872   3.627
40504W        W13572  35.059   3.866   4.205
40505W        W13573  24.448   0.526   1.800
40506W        W13574  37.011  37.863  12.355
40507W        W13575  16.755   1.804   1.845
40508W        W13576   8.247  44.447   1.923
40509W        W13577  36.286  37.901  12.500
40510W        W13578  15.671  43.183  11.701
40511W        W13579  27.734  17.468   2.297
40512W        W13580  18.681  32.076  13.889
40513W        W13581   2.317  28.842   2.090
40514W        W13582  35.877  14.001  11.571
40515W        W13583  29.171  16.705  14.076
40516W        W13584   2.289  40.482   0.378
40517W        W13585  18.810  40.392   4.578
40518W        W13586  44.663  21.805  11.034
40519W        W13587  36.041  12.562  11.561
40520W        W13588  39.021  40.774  11.587
40521W        W13589  14.620  21.562  12.253
40522W        W13590  32.215   4.872   0.939
40523W        W13591   7.494   4.283  12.878
40524W        W13592  19.285  31.512   1.678
40525W        W13593   1.870  11.767  14.433
40526W        W13594  27.159  14.261  12.998
40527W        W13595   2.355  24.205  13.953
40528W        W13596  28.472  30.021   4.632
40529W        W13597  25.607  32.161  11.660
40530W        W13598  42.875   4.799  11.911
40531W        W13599   9.792   7.926   3.813
40532W        W13600  40.494  17.475  11.614
40533W        W13601  35.159  44.382  12.950
40534W        W13602  43.963  17.385   2.346
40535W        W13603  23.522  36.613  14.328
40536W        W13604  17.567  38.866   1.918
40537W        W13605  10.434  33.143  14.954
40538W        W13606   0.847  15.509  13.004
40539W        W13607  41.422  37.931   4.574
40540W        W13608   5.786  31.926   1.814
40541W        W13609  24.052  28.451   0.868
40542W        W13610  31.045  19.674  13.938
40543W        W13611  37.206  36.439   4.565
40544W        W13612  26.611   8.859   2.742
40545W        W13613  10.181  21.232   4.604
40546W        W13614  23.960  42.973   1.364
40547W        W13615   3.682  12.274   3.916
40548W        W13616   4.571  11.808  13.864
40549W        W13617  40.900  17.422  14.926
40550W        W13618  29.899  21.106  11.504
40551W        W13619  41.501   1.448   3.704
40552W        W13620  24.967  24.935   2.706
40553W        W13621  18.635  17.141   4.526
40554W        W13622  37.641  41.792  11.551
40555W        W13623  40.930  40.835  10.767
40556W        W13624  10.157  35.598   3.426
40557W        W13625  13.821  41.889  11.180
40558W        W13626  37.995  14.766  14.384
40559W        W13627  23.442  40.491  11.480
40560W        W13628  23.984  29.556   1.037
40561W        W13629   7.391  43.209  14.052
40562W        W13630  29.690  16.574  12.139
40563W        W13631  26.260   4.801  12.008
40564W        W13632  34.042  20.660   3.608
40565W        W13633  20.478  38.489  14.787
40566W        W13634  29.413  42.987  13.063
40567W        W13635  40.300  18.186  12.089
40568W        W13636  29.820  38.010  13.333
40569W        W13637  27.591   1.962  12.592
40570W        W13638  18.573  11.086  12.432
40571W        W13639   3.800  20.696  10.964
40572W        W13640  18.808  42.999   9.971
40573W        W13641  10.818   2.664  11.159
40574W        W13642  22.518  38.443  11.814
40575W        W13643  44.717  38.101  14.981
40576W        W13644  11.358   3.818   2.941
40577W        W13645  24.991  19.660  11.978
40578W        W13646   8.709   3.296  12.098
40579W        W13647  18.658  18.708   1.287
40580W        W13648   1.508   6.147  12.066
40581W        W13649  37.631   8.963   0.488
40582W        W13650   3.321  19.368  14.886
40583W        W13651  28.135  38.823   0.730
40584W        W13652  16.019  20.219  11.920
40585W        W13653  35.703  30.753  11.488
40586W        W13654  19.335  11.165   3.522
40587W        W13655  33.616  20.405   3.487
40588W        W13656  15.582   5.162   0.875
40589W        W13657   1.731   1.295  13.055
40590W        W13658  17.254  25.300  11.122
40591W        W13659  12.591  33.471  12.967
40592W        W13660  42.950   3.640  14.254
40593W        W13661   8.267  12.759   4.664
40594W        W13662  29.975  35.877  13.468
40595W        W13663  27.958   7.136  11.466
40596W        W13664   9.683  37.454   0.945
40597W        W13665  11.108  26.987   4.141
40598W        W13666   6.452   6.096  14.545
40599W        W13667  27.196  32.800  14.410
40600W        W13668  17.243   4.151  12.101
40601W        W13669  36.678  25.985   0.491
40602W        W13670  38.983  11.355  14.044
40603W        W13671   6.184  13.218   2.213
40604W        W13672  18.067  31.386   0.354
40605W        W13673  18.888  18.490  14.769
40606W        W13674  29.184   5.391  14.566
40607W        W13675   5.655  37.629   3.167
40608W        W13676  29.575  24.663   4.485
40609W        W13677   3.969  19.829   1.270
40610W        W13678   0.467  21.773  12.445
40611W        W13679  32.681  21.741  11.051
40612W        W13680  35.502  10.205  11.363
40613W        W13681  21.140   3.493   3.302
40614W        W13682  10.657  36.497   3.370
40615W        W13683  32.490  21.541  10.594
40616W        W13684   6.152  32.595   2.329
40617W        W13685   0.932  29.167  10.657
40618W        W13686   5.147  39.990  12.056
40619W        W13687  27.511  38.349   0.453
40620W        W13688   7.447  41.312   4.635
40621W        W13689  14.694  19.383   1.389
40622W        W13690  27.260  30.903   1.506
40623W        W13691   8.686  22.794  12.552
40624W        W13692   1.518   1.990   1.851
40625W        W13693  20.846  11.707   4.174
40626W        W13694  43.252  21.857  13.278
40627W        W13695  13.900  41.057   1.703
40628W        W13696   7.785  41.130   1.229
40629W        W13697   2.004  23.731  10.652
40630W        W13698   5.161  29.724   0.772
40631W        W13699  27.692  23.252   4.465
40632W        W13700  27.784   0.470  12.400
40633W        W13701  13.760  17.787   0.562
40634W        W13702   5.454  33.632   2.369
40635W        W13703  11.875  41.707   1.216
40636W        W13704  21.094  23.930   3.355
40637W        W13705  39.856  29.984  14.542
40638W        W13706   8.469   1.539   1.367
40639W        W13707  43.196  36.615   0.988
40640W        W13708   2.598   0.269   4.170
40641W        W13709   0.999  11.593  12.079
40642W        W13710   8.367  10.475  11.848
40643W        W13711  28.480   4.431  10.786
40644W        W13712  10.193  18.263   0.491
40645W        W13713  36.702  36.140  11.000
40646W        W13714  10.806  34.098   4.706
40647W        W13715  23.303  17.504  10.231
40648W        W13716  39.630  26.687  14.821
40649W        W13717  37.630  27.193   4.642
40650W        W13718   6.771  33.292   4.868
40651W        W13719  20.553  42.009  12.067
40652W        W13720  19.331  34.506   1.757
40653W        W13721  30.081  27.253   1.800
40654W        W13722  38.886  34.987  12.543
40655W        W13723  40.298  27.958   3.325
40656W        W13724  32.366  16.588   3.293
40657W        W13725  21.844  25.617   3.436
40658W        W13726   6.811  10.025  14.236
40659W        W13727   5.781  24.702   2.403
40660W        W13728  11.580  31.944  11.128
40661W        W13729  35.591  30.027  10.847
40662W        W13730  38.816   5.293   1.909
40663W        W13731  22.715   6.223   3.164
40664W        W13732  34.583  41.405   3.192
40665W        W13733   5.321  24.222  13.044
40666W        W13734  23.711  12.311  10.614
40667W        W13735  43.295  34.795  10.720
40668W        W13736  33.802  26.538   1.254
40669W        W13737  36.551  38.863   2.384
40670W        W13738  10.328  29.902   3.162
40671W        W13739  27.705  37.846  13.367
40672W        W13740  10.260  33.109   3.377
40673W        W13741  28.661  42.566  11.684
40674W        W13742   1.798  25.490  10.716
40675W        W13743  37.358  44.739  11.739
40676W        W13744   8.416  10.833  14.321
40677W        W13745  27.109   0.902   2.423
40678W        W13746   9.650  33.015  13.526
40679W        W13747  20.978  31.529   2.712
40680W        W13748  36.605  43.955   3.348
40681W        W13749  15.546  13.483   0.534
40682W        W13750  23.580   1.423   0.357
40683W        W13751  28.646  12.427  11.699
40684W        W13752  33.936  25.532  13.448
40685W        W13753   4.207  32.935   1.405
40686W        W13754   9.205  26.406  14.114
40687W        W13755  39.934  23.249   3.909
40688W        W13756  32.092  41.460   1.715
40689W        W13757  19.199  33.688  13.005
40690W        W13758   6.371  21.536  12.952
40691W        W13759  40.007  42.034   0.859
40692W        W13760  29.433  19.200  11.131
40693W        W13761  24.244  23.231   1.346
40694W        W13762  37.971  30.739   0.966
40695W        W13763  40.606  19.522   1.284
40696W        W13764   3.477  36.938  13.936
40697W        W13765  34.846   1.421   3.148
40698W        W13766   2.469  23.035   1.878
40699W        W13767  33.164   4.162   4.815
40700W        W13768  41.530   7.962   2.664
40701W        W13769  19.247   7.715   4.574
40702W        W13770  44.362  39.402   0.791
40703W        W13771   4.885  32.934  13.373
40704W        W13772   7.412  31.515   0.797
40705W        W13773  26.533  22.126  11.983
40706W        W13774   4.728   1.726  12.551
40707W        W13775  38.360  27.593   2.713
40708W        W13776  10.332  24.518  12.984
40709W        W13777   8.421  12.635   0.440
40710W        W13778   2.866  29.308  14.668
40711W        W13779  19.476  17.763   2.018
40712W        W13780  40.428  13.074   4.830
40713W        W13781  21.699  31.488   3.370
40714W        W13782  17.055  34.542   4.210
40715W        W13783  44.049   9.039   2.838
40716W        W13784  29.331  40.076  10.612
40717W        W13785  38.268  36.824  13.388
40718W        W13786  34.349  10.643  14.399
40719W        W13787  16.327   6.276   0.273
40720W        W13788  14.834  20.838  10.036
40721W        W13789  25.780   1.245   2.437
40722W        W13790  28.974   8.981  13.562
40723W        W13791  14.166  17.697  14.451
40724W        W13792  23.247  40.596  13.624
40725W        W13793  44.412  13.691   3.646
40726W        W13794   6.102   8.212   3.652
40727W        W13795  21.019   3.890   1.465
40728W        W13796  22.100  43.403   0.553
40729W        W13797  36.939  37.366   2.390
40730W        W13798  40.417  18.762   2.698
40731W        W13799  39.912  34.457   3.630
40732W        W13800  44.464  39.560   3.838
40733W        W13801  31.190  32.379   0.277
40734W        W13802  16.497  44.215   0.323
40735W        W13803  28.084   4.879   2.004
40736W        W13804   1.946   5.266   3.191
40737W        W13805   7.238  38.891   1.240
40738W        W13806  44.890  29.873   3.197
40739W        W13807  40.989  34.333  11.893
40740W        W13808  44.730  27.227  11.164
40741W        W13809  11.303  20.159   0.477
40742W        W13810   2.958  41.613   4.438
40743W        W13811  30.078  14.386   3.781
40744W        W13812  36.026  24.939   1.860
40745W        W13813  22.011   6.730   4.269
40746W        W13814  34.353   5.692   0.823
40747W        W13815  31.256  20.775  12.490
40748W        W13816   5.798  19.565   4.371
40749W        W13817  10.793   2.482   2.368
40750W        W13818  27.420  33.081  14.785
40751W        W13819  37.988   3.137  14.430
40752W        W13820   3.916   7.467   3.242
40753W        W13821  40.437  34.002  13.625
40754W        W13822   8.661  30.908   4.473
40755W        W13823  17.671   0.958  11.494
40756W        W13824   9.073  25.247   4.574
40757W        W13825  10.807  37.992  13.796
40758W        W13826  11.134  32.382   0.243
40759W        W13827  28.058  23.043  11.437
40760W        W13828  39.072  13.348   0.026
40761W        W13829   8.612  30.596  12.501
40762W        W13830  20.546  10.911   1.162
40763W        W13831  43.039   3.367   3.109
40764W        W13832  34.660  21.654   3.089
40765W        W13833   7.931  43.955   0.389
40766W        W13834  32.158   2.198   1.380
40767W        W13835  37.828  38.370  11.299
40768W        W13836  36.153  14.341  11.297
40769W        W13837  15.117  20.097   4.091
40770W        W13838   1.242   9.378   2.369
40771W        W13839  40.507  38.418  13.014
40772W        W13840  26.534  19.646  11.155
40773W        W13841   0.869  35.858  10.558
40774W        W13842   2.225   6.471  11.387
40775W        W13843  42.790  33.591   4.234
40776W        W13844  13.338  23.896  13.396
40777W        W13845  32.666  44.768   4.630
40778W        W13846  39.054  29.663  10.329
40779W        W13847  22.082  35.058   0.214
40780W        W13848  33.019  17.057   4.972
40781W        W13849  20.021  11.854  14.284
40782W        W13850  30.684  24.119  12.364
40783W        W13851  21.726  17.057  10.522
40784W        W13852  29.650   0.469  14.793
40785W        W13853  28.449  20.519  14.171
40786W        W13854  27.379   3.811   4.346
40787W        W13855  22.402  33.786   2.613
40788W        W13856  18.055  15.647  10.519
40789W        W13857  15.589  25.224  10.791
40790W        W13858  21.092  23.218   0.870
40791W        W13859  20.974  32.672  11.568
40792W        W13860  21.765  19.698   0.907
40793W        W13861  24.610  18.687   3.187
40794W        W13862   6.846  27.796   1.882
40795W        W13863   5.430  17.696  10.648
40796W        W13864  10.813  44.339  11.467
40797W        W13865  14.829  25.779   2.258
40798W        W13866  36.734  28.962  14.391
40799W        W13867  35.315  38.939   0.886
40800W        W13868  34.605  36.899  13.507
40801W        W13869  32.139  12.608   2.888
40802W        W13870   4.254   8.929  14.021
40803W        W13871  22.217  43.726   2.387
40804W        W13872  44.744  27.602   1.919
40805W        W13873  20.710  25.155  13.968
40806W        W13874  37.864  39.522  10.560
40807W        W13875  39.132   4.276   0.992
40808W        W13876  35.014  16.136  14.878
40809W        W13877  13.602  27.502  10.776
40810W        W13878  19.224  30.676  13.165
40811W        W13879  41.839  12.894  12.109
40812W        W13880   1.965   1.498   4.153
40813W        W13881  35.363  39.814   2.436
40814W        W13882  33.126   9.407  11.665
40815W        W13883  42.093  15.010  12.996
40816W        W13884  40.875   3.029  11.653
40817W        W13885  41.197  39.978  11.161
40818W        W13886  11.200  22.191   3.672
40819W        W13887  37.406  17.615   4.595
40820W        W13888   4.037   7.830   0.418
40821W        W13889  12.115   5.906   4.179
40822W        W13890  28.974  37.864  12.496
40823W        W13891  38.204  31.002   4.155
40824W        W13892  20.247  11.647   2.997
40825W        W13893  12.731  25.254  11.011
40826W        W13894  26.918  11.717   2.422
40827W        W13895  10.133  44.929   4.053
40828W        W13896  41.999  30.752   1.298
40829W        W13897  25.000  14.397   2.740
40830W        W13898  23.161  21.504   2.063
40831W        W13899  26.089   4.141  10.614
40832W        W13900  36.329  21.481   1.916
40833W        W13901  16.626  14.409   4.167
40834W        W13902  39.396  38.092   4.753
40835W        W13903   9.247  34.762   0.974
40836W        W13904  35.875  15.791  11.027
40837W        W13905  12.732  32.040  12.635
40838W        W13906  39.029   6.638   0.960
40839W        W13907  25.802  18.411  11.143
40840W        W13908  10.058  22.014  12.606
40841W        W13909  29.225  37.426  12.461
40842W        W13910  16.799  28.573  12.481
40843W        W13911  32.085  42.937  10.255
40844W        W13912  15.116  33.532   1.495
40845W        W13913   8.355  15.171   4.688
40846W        W13914  16.841  17.189  13.833
40847W        W13915   5.320  34.520  11.625
40848W        W13916  19.762   6.628   4.087
40849W        W13917  17.782  38.605   4.729
40850W        W13918  16.455  43.904  11.886
40851W        W13919  15.666  41.512  12.920
40852W        W13920  26.426  44.984   1.583
40853W        W13921  26.887  22.092   1.372
40854W        W13922   7.871  25.057  13.373
40855W        W13923   0.070  34.949   0.323
40856W        W13924  15.676  40.989  12.880
40857W        W13925  19.528  44.257   4.412
40858W        W13926  23.543   8.075   1.374
40859W        W13927  40.874  39.574  11.136
40860W        W13928  24.085  18.477   2.338
40861W        W13929  43.832  14.584  11.464
40862W        W13930   0.221  26.971   3.660
40863W        W13931   8.392  41.619  10.281
40864W        W13932  42.892  25.328  11.096
40865W        W13933  12.227  31.872  10.380
40866W        W13934   5.922   7.463  11.914
40867W        W13935  34.294   2.393  12.075
40868W        W13936  38.414  35.905   4.124
40869W        W13937  32.579  29.572   0.856
40870W        W13938  26.305  33.480  12.132
40871W        W13939  24.510  21.633   4.401
40872W        W13940  16.647   9.189  13.060
40873W        W13941  41.068  37.219   3.697
40874W        W13942  26.292  21.944   2.894
40875W        W13943  27.752   3.239   2.731
40876W        W13944  44.807   8.600   0.960
40877W        W13945  44.544  43.536  12.195
40878W        W13946  27.576  44.250  13.816
40879W        W13947  37.048  21.308   0.320
40880W        W13948   9.723   2.729  13.807
40881W        W13949  23.010  19.521  10.654
40882W        W13950   5.280   5.420   1.730
40883W        W13951  40.583  28.557  10.849
40884W        W13952  31.480   8.225  11.104
40885W        W13953  26.666  39.295   3.901
40886W        W13954  10.173  19.158   2.328
40887W        W13955  33.782  24.029   3.748
40888W        W13956  18.360  34.507  12.172
40889W        W13957  21.097  40.594   3.223
40890W        W13958  41.699  32.779   0.776
40891W        W13959  16.276  16.676   0.832
40892W        W13960  20.081   1.631   3.226
40893W        W13961  27.529  22.548  14.311
40894W        W13962  17.824  21.765   1.155
40895W        W13963  31.418   6.907   0.081
40896W        W13964   9.305  29.981  12.103
40897W        W13965  17.354  20.113   0.080
40898W        W13966  19.259   5.395   3.401
40899W        W13967  19.514  21.943   3.578
40900W        W13968  44.894  18.270   0.365
40901W        W13969  42.135   1.493   3.312
40902W        W13970   3.768   0.316  11.379
40903W        W13971   7.867  32.388  11.653
40904W        W13972  16.581  27.492  13.846
40905W        W13973  25.799  34.144  11.205
40906W        W13974  11.095   2.275   1.596
40907W        W13975  37.411  24.706  11.041
40908W        W13976   8.479  31.620  13.428
40909W        W13977  44.411  17.820  12.071
40910W        W13978  41.003  27.675   3.245
40911W        W13979  33.365   6.769   3.186
40912W        W13980   9.664  14.739   1.692
40913W        W13981   2.443   8.683   4.482
40914W        W13982  13.519   6.526  11.127
40915W        W13983  32.108  22.342  13.511
40916W        W13984   7.160   0.766  14.371
40917W        W13985  40.002  35.551   2.712
40918W        W13986  31.074  28.201   0.713
40919W        W13987   7.065  11.870  14.935
40920W        W13988  20.079  38.930  12.101
40921W        W13989  40.720  15.675   1.631
40922W        W13990  29.458   1.797  14.526
40923W        W13991   0.190  22.660   0.655
40924W        W13992  23.858  27.094   0.206
40925W        W13993  11.540  35.938  13.626
40926W        W13994  25.072  29.945  12.472
40927W        W13995  15.415   0.245   2.350
40928W        W13996  40.628   6.015   5.158
40929W        W13997  10.196  41.816  11.734
40930W        W13998  12.337  34.217   2.680
40931W        W13999  27.108   1.177   4.165
40932W        W14000  26.421   2.364   5.121
40933W        W14001   6.388  37.097   2.990
40934W        W14002   3.076   7.485   0.409
40935W        W14003  25.613  28.362   2.902
40936W        W14004  35.709  38.838   3.376
40937W        W14005  44.749  15.623   4.694
40938W        W14006  40.259  15.687  11.448
40939W        W14007  11.298  44.181  11.391
40940W        W14008  27.194  17.131   0.359
40941W        W14009   8.826  13.535  12.053
40942W        W14010  39.538   5.280   2.369
40943W        W14011  30.244  17.252  14.812
40944W        W14012   5.390  19.785   3.797
40945W        W14013   6.895  23.033  12.202
40946W        W14014  17.051   4.766  10.990
40947W        W14015   7.693  14.937   1.680
40948W        W14016  22.249   8.352  13.598
40949W        W14017  18.351  39.462   1.135
40950W        W14018  33.859  14.476   1.773
40951W        W14019  40.760  25.648  10.688
40952W        W14020  16.283  42.745   2.412
40953W        W14021  23.942  26.483   5.212
40954W        W14022   4.208  30.351  14.300
40955W        W14023   5.264  36.963  13.289
40956W        W14024  24.218  35.500  11.976
40957W        W14025  10.014  22.532  12.663
40958W        W14026  30.564  44.098   4.191
40959W        W14027  17.292   2.287   0.703
40960W        W14028  15.601   2.469   0.732
40961W        W14029   0.831   3.805   4.437
40962W        W14030   6.874  33.957  13.362
40963W        W14031  35.436  11.819   3.353
40964W        W14032  28.503  13.547  12.498
40965W        W14033  26.205  21.799   1.715
40966W        W14034  26.763  39.506  14.804
40967W        W14035  34.053  17.301   1.294
40968W        W14036  20.064   1.873  13.815
40969W        W14037  36.060  10.298   2.237
40970W        W14038   6.835   2.047  11.666
40971W        W14039   4.398   6.898  14.415
40972W        W14040  29.067  28.066  13.672
40973W        W14041  37.583   5.683   1.364
40974W        W14042  13.676  11.154  14.030
40975W        W14043  22.206  39.432  12.014
40976W        W14044  39.427   4.297  10.818
40977W        W14045  14.342  10.799  13.453
40978W        W14046  35.067   3.818   1.620
40979W        W14047  12.823  30.143   4.168
40980W        W14048   3.048  25.978   2.836
40981W        W14049  28.918   0.732  12.513
40982W        W14050  36.871   3.444  13.894
40983W        W14051  43.620  29.574  12.528
40984W        W14052   0.703  37.098   4.514
40985W        W14053  29.399  21.149  13.038
40986W        W14054   2.494  27.084  10.872
40987W        W14055  14.898  10.201  13.743
40988W        W14056  34.323   9.237  12.855
40989W        W14057  11.590  32.042   3.691
40990W        W14058  11.326  19.706   9.618
40991W        W14059  40.243   3.353   5.028
40992W        W14060  39.522  27.398   4.256
40993W        W14061  16.107  17.099  12.081
40994W        W14062  17.791   8.393  13.088
40995W        W14063  27.636  11.689   4.912
40996W        W14064  15.489  32.569   2.168
40997W        W14065  43.774  22.440  13.125
40998W        W14066  39.978  44.351   1.413
40999W        W14067  25.471  29.784  14.724
41000W        W14068   6.817   9.689   0.194
41001W        W14069  38.238  30.224   0.756
41002W        W14070   2.377   8.410   1.302
41003W        W14071  13.409  32.679  11.300
41004W        W14072  34.349   4.885  11.430
41005W        W14073  24.748  44.401  12.044
41006W        W14074  37.001  15.514  10.392
41007W        W14075  18.991  27.736   4.580
41008W        W14076  20.385  40.083   4.161
41009W        W14077  29.329   6.230  10.893
41010W        W14078  30.343  22.735  14.408
41011W        W14079  14.240  34.401  11.513
41012W        W14080  29.186  19.615   3.398
41013W        W14081  13.032  26.153  10.877
41014W        W14082   8.888  41.464   4.633
41015W        W14083  20.742   8.347   3.302
41016W        W14084  13.042  22.007  13.462
41017W        W14085   6.934  28.584   1.400
41018W        W14086  30.214  40.937  11.823
41019W        W14087   1.981  36.948   1.776
41020W        W14088  10.283  33.298   3.875
41021W        W14089   3.873  36.087  10.718
41022W        W14090  27.136  30.113   1.952
41023W        W14091   8.142  26.637   1.374
41024W        W14092  27.876  23.470  11.145
41025W        W14093  27.052   6.171   0.953
41026W        W14094  28.642  30.515  13.593
41027W        W14095  26.480  40.474  12.338
41028W        W14096  17.432   8.447  14.799
41029W        W14097  29.253  12.737  13.097
41030W        W14098  15.156  25.238   2.707
41031W        W14099  37.453  36.477  12.098
41032W        W14100  39.702   1.924  10.198
41033W        W14101  38.739  22.984  14.336
41034W        W14102  29.451  28.944   2.451
41035W        W14103  13.627  20.003  13.797
41036W        W14104  12.783  19.559  13.018
41037W        W14105  14.773  34.010  12.513
41038W        W14106  39.475  30.384   4.489
41039W        W14107  24.344  44.521  13.914
41040W        W14108  10.853  32.647   2.749
41041W        W14109  32.425   9.449   3.630
41042W        W14110  33.981  13.003   0.887
41043W        W14111  12.326  40.854   0.847
41044W        W14112  36.049  26.066  14.949
41045W        W14113  22.908  38.878  13.095
41046W        W14114  30.040  31.771  14.914
41047W        W14115   2.523  21.605  11.666
41048W        W14116  14.214  44.181   1.890
41049W        W14117   7.848  12.817  12.719
41050W        W14118  21.808  35.828  12.154
41051W        W14119  11.307   0.910   1.641
41052W        W14120  44.240  11.282  11.698
41053W        W14121  14.876  38.458  12.900
41054W        W14122  41.383   9.000   2.899
41055W        W14123  16.705   8.784  13.893
41056W        W14124  16.848   7.548   3.545
41057W        W14125  27.885  38.008  11.603
41058W        W14126  22.753  29.431   4.562
41059W        W14127  11.161  17.664   3.144
41060W        W14128  21.630  20.499  14.676
41061W        W14129  31.903   1.473   0.851
41062W        W14130  44.451  39.394   2.864
41063W        W14131  30.190  31.098   2.020
41064W        W14132   1.345  25.518   3.701
41065W        W14133  36.801  34.760   0.989
41066W        W14134  20.167  31.410   2.263
41067W        W14135  21.734  13.500  10.998
41068W        W14136  33.052  21.463   1.725
41069W        W14137  41.749  25.681   3.710
41070W        W14138  22.256  13.638  13.497
41071W        W14139  40.915  44.714  13.741
41072W        W14140  19.572  19.565  14.348
41073W        W14141   7.172   5.724   1.741
41074W        W14142  43.842  34.879   2.628
41075W        W14143  24.533  31.442   2.897
41076W        W14144  25.138   3.807   3.682
41077W        W14145  29.208  13.734   2.885
41078W        W14146  28.387  43.370  14.413
41079W        W14147  25.074   2.996   1.097
41080W        W14148  27.513  17.327   1.858
41081W        W14149   8.728  27.590   2.728
41082W        W14150   9.332  30.083   3.511
41083W        W14151  16.095  42.257   4.575
41084W        W14152  25.666  15.023  11.560
41085W        W14153   6.733  31.977   0.220
41086W        W14154  18.483  37.758  12.572
41087W        W14155  23.103   9.145  10.810
41088W        W14156   0.054  27.255  11.560
41089W        W14157   6.233  20.622  13.321
41090W        W14158   4.317  37.832   2.357
41091W        W14159  16.006  24.091  12.830
41092W        W14160   9.625   4.055  11.171
41093W        W14161   4.506  38.044   4.627
41094W        W14162   6.293  17.300  12.348
41095W        W14163  31.649  11.324  13.264
41096W        W14164  20.030  41.284  12.168
41097W        W14165  28.463  44.843   1.784
41098W        W14166  11.088   3.821   1.495
41099W        W14167  31.923  29.631   4.248
41100W        W14168  18.820   3.172  13.436
41101W        W14169  40.314  28.053   0.983
41102W        W14170   7.189  13.076  10.837
41103W        W14171  23.579  43.702  11.580
41104W        W14172   3.460  44.126   5.025
41105W        W14173  16.142  41.517  14.267
41106W        W14174  44.566  14.278   4.099
41107W        W14175   6.633  44.042  12.452
41108W        W14176  40.543  13.286  13.484
41109W        W14177  33.527  12.540  12.567
41110W        W14178  21.568  22.090   4.649
41111W        W14179  22.937  44.423  10.315
41112W        W14180   4.429  39.478  14.920
41113W        W14181  19.174  31.000  10.895
41114W        W14182   8.633  24.730  10.665
41115W        W14183   7.941  39.474   2.364
41116W        W14184   5.240  43.961   4.458
41117W        W14185  26.142  44.346  12.261
41118W        W14186   1.302  37.618   1.168
41119W        W14187   4.500  43.578   1.253
41120W        W14188  35.318  16.739  11.730
41121W        W14189  31.228  39.268   1.270
41122W        W14190  32.266  44.246   0.126
41123W        W14191  41.628  41.321  11.220
41124W        W14192  40.031  30.107   0.035
41125W        W14193  27.264  30.789  14.282
41126W        W14194  22.072  32.899   0.222
41127W        W14195  26.663  19.550  10.638
41128W        W14196  32.485  27.681   0.330
41129W        W14197  10.051  31.278   3.244
41130W        W14198  11.241  44.066  12.049
41131W        W14199  36.079  34.290   1.997
41132W        W14200  36.176  43.061  14.939
41133W        W14201   9.286   0.517  13.491
41134W        W14202  28.857  33.120  11.149
41135W        W14203  29.238   4.906  11.614
41136W        W14204  39.316  25.489   0.787
41137W        W14205   0.922  21.592  12.560
41138W        W14206  33.502  29.126   3.187
41139W        W14207   8.134  31.539   1.569
41140W        W14208  29.598   2.464  10.743
41141W        W14209  10.419  25.222   3.165
41142W        W14210  31.945   3.873   0.883
41143W        W14211  41.390  36.768  14.486
41144W        W14212  27.932  10.235  12.522
41145W        W14213  35.183  11.692   2.905
41146W        W14214  16.020  16.757   3.694
41147W        W14215  39.308  36.997   0.456
41148W        W14216  44.354  31.245  12.073
41149W        W14217   8.840  10.472   3.278
41150W        W14218  27.251  20.042  11.625
41151W        W14219   3.327  41.558  13.416
41152W        W14220  29.948  28.134  13.449
41153W        W14221  12.842   1.348  10.501
41154W        W14222  28.678   6.971   3.256
41155W        W14223  15.978  34.422   1.351
41156W        W14224  35.138  13.780  14.462
41157W        W14225   3.441   1.877   1.667
41158W        W14226  30.943  13.203   2.844
41159W        W14227  36.616  28.204  12.977
41160W        W14228  42.361   8.261  10.915
41161W        W14229  27.045  17.774  12.879
41162W        W14230   3.676  22.993   2.664
41163W        W14231  35.538  39.140  14.909
41164W        W14232  39.353  19.240  12.435
41165W        W14233  14.935  38.272   1.315
41166W        W14234  43.374  34.948  11.596
41167W        W14235  12.282  15.493  12.309
41168W        W14236   9.100  19.245  13.420
41169W        W14237  44.544  38.544  12.035
41170W        W14238  20.174   3.989   1.353
41171W        W14239  38.919  28.327   1.225
41172W        W14240  13.425  41.368   1.284
41173W        W14241  41.781  29.006  14.429
41174W        W14242   7.279  21.476   3.251
41175W        W14243   3.395  27.136  11.481
41176W        W14244   8.787   5.274   2.342
41177W        W14245  33.074  26.851   0.858
41178W        W14246   8.178  16.286  12.296
41179W        W14247  27.680  25.544   2.815
41180W        W14248  23.202  26.711  14.420
41181W        W14249  39.954  13.994  13.798
41182W        W14250   5.341  35.485   3.119
41183W        W14251  41.528  13.315  10.428
41184W        W14252   1.099  31.393   4.161
41185W        W14253   0.018  28.457   2.370
41186W        W14254  27.749  19.512  11.078
41187W        W14255   3.794  33.343   4.622
41188W        W14256  39.594  34.007   4.759
41189W        W14257   1.490  19.636  13.092
41190W        W14258  29.700  19.742  12.259
41191W        W14259  35.354   9.292  14.850
41192W        W14260   5.999  20.607  14.419
41193W        W14261   5.535  14.327  13.493
41194W        W14262  18.659  36.392  14.280
41195W        W14263  17.239  14.527   3.221
41196W        W14264   2.866  42.091   0.212
41197W        W14265  30.085  41.634  12.023
41198W        W14266   0.460   3.875   2.681
41199W        W14267   4.728   1.280   1.498
41200W        W14268  44.791  40.395  14.902
41201W        W14269  41.424  32.746   0.309
41202W        W14270  36.483  19.746   4.079
41203W        W14271  26.089   2.834   0.700
41204W        W14272  37.952  21.621   3.604
41205W        W14273  13.737  39.523   4.696
41206W        W14274  17.971  40.559  13.015
41207W        W14275  32.669  36.848   0.444
41208W        W14276  39.096  16.818  11.547
41209W        W14277  41.298  25.743  11.440
41210W        W14278   9.447  42.530  14.007
41211W        W14279  39.342   9.385   1.159
41212W        W14280   9.830  40.631   2.193
41213W        W14281  42.438  39.161   4.146
41214W        W14282   1.365  22.275   3.095
41215W        W14283  28.000   3.975   3.535
41216W        W14284  32.477   0.260  14.205
41217W        W14285  38.767  29.926   1.393
41218W        W14286  19.996  34.493  13.324
41219W        W14287  21.681   9.638   1.289
41220W        W14288   1.274  42.915   1.816
41221W        W14289  16.755  14.644   3.415
41222W        W14290  18.350   6.280  12.230
41223W        W14291  22.353  17.402   4.074
41224W        W14292  24.952  35.644  12.490
41225W        W14293   8.145  21.176  14.513
41226W        W14294   0.431  35.366   4.034
41227W        W14295  28.209   3.158  12.265
41228W        W14296   1.552  29.727  14.308
41229W        W14297  42.587  38.099  12.935
41230W        W14298  38.571  28.510   3.299
41231W        W14299  17.813  22.900   0.331
41232W        W14300  41.024  44.000   3.593
41233W        W14301  13.712  27.119   2.366
41234W        W14302  43.068  15.686   4.038
41235W        W14303  18.681  16.063   0.998
41236W        W14304  28.871  19.376   2.628
41237W        W14305  41.500   6.221   2.271
41238W        W14306  31.239  33.150   2.900
41239W        W14307  19.133  32.072  13.097
41240W        W14308  41.478   2.129   4.215
41241W        W14309  16.498   8.955   3.823
41242W        W14310  34.882   8.600   0.388
41243W        W14311  21.691  26.988   1.499
41244W        W14312  40.258  23.136   1.723
41245W        W14313   0.314  11.559  10.979
41246W        W14314  30.563  22.066   4.004
41247W        W14315  35.881  15.888  14.333
41248W        W14316   2.906  20.705  10.405
41249W        W14317  24.973  34.140   0.731
41250W        W14318  15.581  16.338  10.311
41251W        W14319  18.448  35.349   0.757
41252W        W14320  42.681  40.017  11.913
41253W        W14321  21.537   6.734   2.756
41254W        W14322  14.199   1.496  13.301
41255W        W14323  38.865   5.809   1.913
41256W        W14324  21.498   5.708   1.261
41257W        W14325  36.461  26.108  12.221
41258W        W14326  22.116  10.385  12.584
41259W        W14327  30.950  21.712  14.017
41260W        W14328  10.038   9.229  11.733
41261W        W14329   9.996   6.097   2.685
41262W        W14330  22.823  23.538  14.099
41263W        W14331  17.683  38.136   3.701
41264W        W14332  24.242  39.485   0.939
41265W        W14333  33.855  39.196   2.340
41266W        W14334  44.859  14.305  14.861
41267W        W14335   9.657  11.063   0.287
41268W        W14336  31.182  39.632   9.910
41269W        W14337  29.116  11.280  12.374
41270W        W14338  36.410   4.148   4.001
41271W        W14339  34.947  17.569   0.854
41272W        W14340  25.523  29.974   4.536
41273W        W14341  28.038  15.707   2.230
41274W        W14342   3.519  21.140  10.999
41275W        W14343  10.831  17.085  10.970
41276W        W14344   8.814  16.285  11.199
41277W        W14345  44.277  33.456  11.315
41278W        W14346  36.794  19.578  14.945
41279W        W14347   7.963  41.664  14.480
41280W        W14348   0.892  44.761  12.686
41281W        W14349  24.199  43.991  12.843
41282W        W14350  24.194  31.546  12.952
41283W        W14351   3.883  11.844   4.576
41284W        W14352   2.838  30.479   4.526
41285W        W14353  21.279  31.143   3.266
41286W        W14354   3.364  40.559  11.890
41287W        W14355   8.256  13.018  14.387
41288W        W14356  39.080  24.223  13.870
41289W        W14357   8.021  34.471  14.361
41290W        W14358  36.454  42.189   4.038
41291W        W14359  24.876  36.573  11.698
41292W        W14360  42.978  36.226  10.334
41293W        W14361  40.813  18.151  12.141
41294W        W14362  34.911  29.064  11.187
41295W        W14363   3.721  36.250  12.003
41296W        W14364  39.641   0.239  12.553
41297W        W14365  11.331  27.664  14.885
41298W        W14366  44.302  14.077  10.767
41299W        W14367  40.927  44.957   4.144
41300W        W14368  37.294  32.185  12.934
41301W        W14369  43.014  10.468  11.933
41302W        W14370  35.428  35.120   1.080
41303W        W14371   0.915  37.092   0.326
41304W        W14372  25.544  23.042  11.123
41305W        W14373  15.800   1.494   4.145
41306W        W14374  43.369  38.357   2.634
41307W        W14375  43.173  29.191  12.109
41308W        W14376  28.621   3.905  14.313
41309W        W14377   4.265  29.031   2.375
41310W        W14378  27.695   8.873   2.767
41311W        W14379   1.860  22.153   2.864
41312W        W14380  36.516   8.003   3.604
41313W        W14381  40.066  39.974  11.506
41314W        W14382  16.205  40.370   0.254
41315W        W14383  20.992  17.323   4.268
41316W        W14384  26.180  35.543  12.924
41317W        W14385  44.117  19.255   4.610
41318W        W14386  43.048  40.549  11.289
41319W        W14387   4.909  40.626   3.217
41320W        W14388  36.983  13.840  12.037
41321W        W14389  39.512  12.766  11.895
41322W        W14390   7.820  33.663   3.958
41323W        W14391   8.402  38.388   2.391
41324W        W14392  34.682  25.074   2.876
41325W        W14393  33.940  17.754  11.033
41326W        W14394  27.404  19.904   0.544
41327W        W14395  13.637  14.164  11.204
41328W        W14396  26.938  30.047   4.617
41329W        W14397   4.250  37.004   2.673
41330W        W14398  14.989  26.920  11.011
41331W        W14399  11.358  15.777   4.098
41332W        W14400   0.513  22.155  12.034
41333W        W14401  36.460  17.834   3.338
41334W        W14402  29.686  28.927  13.527
41335W        W14403  33.648   7.019   1.301
41336W        W14404   9.684  44.360  13.793
41337W        W14405  31.274  44.576   5.100
41338W        W14406   6.189   0.844  12.233
41339W        W14407  21.080   0.041  11.001
41340W        W14408   6.932   7.024   2.775
41341W        W14409  14.239  34.992   1.775
41342W        W14410  27.103  17.322   3.854
41343W        W14411  26.377  38.533   1.344
41344W        W14412  29.121  18.582   4.183
41345W        W14413  27.702  20.329   0.465
41346W        W14414  28.453  25.716  12.594
41347W        W14415  38.992  42.295   2.316
41348W        W14416  22.001  25.175  10.743
41349W        W14417  11.380  16.443   5.004
41350W        W14418  27.594  15.451  11.942
41351W        W14419  41.882   0.726  10.938
41352W        W14420  27.900  35.044  14.269
41353W        W14421  14.640   1.954   3.201
41354W        W14422  39.722  31.058  12.818
41355W        W14423  38.942   6.249   2.191
41356W        W14424  36.447  29.981  11.610
41357W        W14425  32.583  44.977  11.877
41358W        W14426   8.538   9.046  13.029
41359W        W14427  29.011  44.900   4.056
41360W        W14428  18.317  27.980   2.310
41361W        W14429  35.420  37.960  14.894
41362W        W14430  33.351   8.296  14.349
41363W        W14431  15.838  23.638  12.482
41364W        W14432  22.630   6.878  12.103
41365W        W14433   8.292  12.849  11.827
41366W        W14434  17.971  37.509   0.375
41367W        W14435  33.020   0.840   2.969
41368W        W14436  18.041  22.489  10.943
41369W        W14437  41.565   6.849  13.173
41370W        W14438  33.901   9.414   0.020
41371W        W14439  11.843   5.296   1.822
41372W        W14440  28.772  16.806  12.026
41373W        W14441   0.880  34.891   0.869
41374W        W14442   0.266  31.439   4.540
41375W        W14443   2.783  40.784   1.769
41376W        W14444   8.368  42.905  10.671
41377W        W14445  20.130  14.139  14.549
41378W        W14446  13.913  31.112   1.427
41379W        W14447  37.143  36.893   9.942
41380W        W14448  21.704  30.681  12.568
41381W        W14449   6.694   4.914  12.047
41382W        W14450  42.637  14.764  11.159
41383W        W14451   3.284   0.933  13.558
41384W        W14452  18.546  21.265   1.757
41385W        W14453  44.021  13.812  12.617
41386W        W14454  10.640  10.736  12.522
41387W        W14455  15.363   5.433  14.775
41388W        W14456  35.044  15.311   2.190
41389W        W14457  10.193   1.602  14.915
41390W        W14458  31.149  35.608  14.838
41391W        W14459   8.789  29.956   0.351
41392W        W14460  39.227  19.186  11.590
41393W        W14461   5.208  38.993  13.437
41394W        W14462  10.355  35.515   1.485
41395W        W14463  39.307  10.909  11.457
41396W        W14464   7.055  36.008  10.689
41397W        W14465  38.213  12.661   4.402
41398W        W14466  22.974  42.498   4.224
41399W        W14467  20.581   7.601  14.025
41400W        W14468  35.532  23.721  12.975
41401W        W14469  13.935   7.353   2.125
41402W        W14470  11.182  37.394  14.848
41403W        W14471  30.987   2.190  10.703
41404W        W14472  20.655  12.976   3.766
41405W        W14473   7.310  21.508  12.912
41406W        W14474  31.302   7.432  13.053
41407W        W14475  37.997  25.718  10.603
41408W        W14476  22.471  41.585  13.944
41409W        W14477  15.233   4.468  13.871
41410W        W14478   9.723  25.734   0.511
41411W        W14479   7.797  28.945   4.087
41412W        W14480  43.180   2.388   3.402
41413W        W14481  29.588   4.197   4.260
41414W        W14482  31.432  24.001  14.425
41415W        W14483   1.393  38.463  11.629
41416W        W14484  29.626  44.242   2.168
41417W        W14485  29.940  37.007  12.157
41418W        W14486  22.289  12.877   4.160
41419W        W14487  38.125   9.099   2.305
41420W        W14488   2.225   6.919   0.362
41421W        W14489  17.200  39.393   0.465
41422W        W14490  42.332  35.901  13.941
41423W        W14491  26.924   3.919  14.045
41424W        W14492  40.668  36.760   4.632
41425W        W14493  20.017  34.885   2.896
41426W        W14494   3.145   7.996   0.368
41427W        W14495   2.806  18.027   1.269
41428W        W14496  31.555   0.191   4.354
41429W        W14497   3.974  27.460   2.116
41430W        W14498  36.648  11.571  12.375
41431W        W14499  27.650   4.341  11.209
41432W        W14500  36.414  44.611   3.870
41433W        W14501  40.948  15.752   3.997
41434W        W14502   6.204  17.822  13.171
41435W        W14503  34.982   3.715  13.742
41436W        W14504  40.082  15.845  10.072
41437W        W14505  20.291  17.309  11.631
41438W        W14506  25.447  31.918   2.165
41439W        W14507   0.124   5.251   3.706
41440W        W14508   2.367  26.654  12.569
41441W        W14509  31.568   2.612  13.296
41442W        W14510  40.829  31.851   4.033
41443W        W14511  22.235   5.910  13.438
41444W        W14512   1.670  14.801  12.572
41445W        W14513  20.190  31.284   3.209
41446W        W14514  28.610  25.985  11.244
41447W        W14515  14.223  23.925   4.205
41448W        W14516   6.667  22.740   2.398
41449W        W14517   7.211   5.154  12.461
41450W        W14518  19.755  33.610  12.927
41451W        W14519  17.010  11.179  11.781
41452W        W14520   7.409  27.651  10.607
41453W        W14521  38.749  35.453  14.276
41454W        W14522  27.554   7.749   3.941
41455W        W14523  11.716  11.306   4.586
41456W        W14524  26.694  44.551   1.316
41457W        W14525  29.509  35.098  13.510
41458W        W14526   1.209  16.139   3.705
41459W        W14527  25.058  31.958  13.021
41460W        W14528  20.558  20.034  11.097
41461W        W14529  24.044  41.498  11.246
41462W        W14530  24.270  35.551  11.107
41463W        W14531   0.839  33.173   4.057
41464W        W14532  42.525   3.172   3.264
41465W        W14533  19.134  15.266  14.840
41466W        W14534  28.425   2.501   4.161
41467W        W14535  43.046  14.983   1.902
41468W        W14536  15.979  11.635   1.351
41469W        W14537  18.297  16.024   4.758
41470W        W14538  14.655  38.584  10.625
41471W        W14539  26.583  11.898  12.060
41472W        W14540  39.058  32.887  14.024
41473W        W14541  37.063  13.826  12.905
41474W        W14542  36.091  10.919   4.286
41475W        W14543  11.630   6.658  12.021
41476W        W14544  20.519  24.475  11.687
41477W        W14545  44.417  31.085  11.602
41478W        W14546   8.795  18.171   1.085
41479W        W14547   2.700  22.988  14.442
41480W        W14548  39.030  25.819  12.986
41481W        W14549  29.566  21.577   3.363
41482W        W14550  32.098  19.603   0.074
41483W        W14551   5.387  37.012   0.197
41484W        W14552  18.772  33.166   4.075
41485W        W14553   9.242  14.310  12.546
41486W        W14554  18.574  34.568  10.340
41487W        W14555   2.340  38.359  10.611
41488W        W14556  30.294  26.327  12.338
41489W        W14557  36.793  14.094  13.248
41490W        W14558  23.079  36.420   4.709
41491W        W14559  23.779   3.841   1.817
41492W        W14560  21.988  32.185  12.021
41493W        W14561   4.298  18.026  13.944
41494W        W14562  36.127   9.730  12.967
41495W        W14563  29.623  17.550  10.759
41496W        W14564  14.848  11.331  11.520
41497W        W14565  36.919  16.077   2.319
41498W        W14566   3.262  18.966  10.639
41499W        W14567  15.105  23.303   1.565
41500W        W14568  35.545  24.075  14.475
41501W        W14569  36.642  31.495  12.028
41502W        W14570  36.422  22.748  12.237
41503W        W14571  25.085  27.601   3.492
41504W        W14572  33.834  35.883  10.787
41505W        W14573  40.301  25.313  14.934
41506W        W14574  36.848   6.381   4.101
41507W        W14575  13.791  31.456  10.930
41508W        W14576  37.024  25.699  11.636
41509W        W14577   8.748  16.742   1.832
41510W        W14578  19.263  40.354   1.403
41511W        W14579   7.772  31.953   4.639
41512W        W14580   1.236  15.401  11.000
41513W        W14581  14.331  17.250   3.844
41514W        W14582  27.718  37.520  12.447
41515W        W14583   0.018  22.982  11.584
41516W        W14584  16.600  36.601   3.634
41517W        W14585  44.756   5.385   1.483
41518W        W14586   0.929   7.779  10.353
41519W        W14587   1.452   7.933  14.925
41520W        W14588   5.294  17.706  13.143
41521W        W14589  26.902  36.068  12.472
41522W        W14590   6.743  43.697   0.863
41523W        W14591  20.183  27.638   3.129
41524W        W14592  44.912  29.486   4.749
41525W        W14593   9.373  42.564   1.419
41526W        W14594  42.483   0.349  12.095
41527W        W14595  29.121   4.926  13.766
41528W        W14596  15.315  10.675   4.675
41529W        W14597  28.405  34.670  10.791
41530W        W14598   3.202  39.453  13.915
41531W        W14599  43.412   4.267  14.265
41532W        W14600   6.175  21.810   3.973
41533W        W14601   7.144  25.130  14.495
41534W        W14602  21.210   2.089   4.116
41535W        W14603  27.328  27.060   1.869
41536W        W14604  12.414  35.625  13.958
41537W        W14605  21.455  33.012  11.850
41538W        W14606  21.737  34.853  11.967
41539W        W14607  23.111  36.504  13.600
41540W        W14608  16.902  29.547   4.486
41541W        W14609  32.360  12.430   3.800
41542W        W14610  26.716  38.915   0.186
41543W        W14611  19.980  13.922   3.242
41544W        W14612  30.879  30.353  13.871
41545W        W14613  30.112  36.522   0.773
41546W        W14614  40.800  44.326   2.052
41547W        W14615   8.465  25.432  14.679
41548W        W14616  12.519   3.433   3.877
41549W        W14617  25.601  44.307  11.064
41550W        W14618  25.462  20.265   0.958
41551W        W14619  16.836  29.487  12.459
41552W        W14620   9.173  37.883  12.870
41553W        W14621   3.262  12.856  12.203
41554W        W14622  39.416  38.696  14.295
41555W        W14623  40.032   9.221   3.660
41556W        W14624   3.255  37.072   0.331
41557W        W14625   5.135  20.838  14.326
41558W        W14626  17.913   1.239  14.865
41559W        W14627  16.675  19.056  13.880
41560W        W14628   1.022   5.450   2.259
41561W        W14629   9.002  20.101  13.319
41562W        W14630  17.852  32.542  14.819
41563W        W14631  41.446  19.654   1.409
41564W        W14632  41.948  44.684   4.220
41565W        W14633  31.843  16.609   3.769
41566W        W14634  36.201  16.664  14.779
41567W        W14635  40.860  44.159   3.102
41568W        W14636   7.210  11.273   0.535
41569W        W14637   4.453  39.411   2.680
41570W        W14638   4.289  35.456   1.705
41571W        W14639  34.015  43.278   0.230
41572W        W14640   1.518  41.373   1.221
41573W        W14641   0.298  31.012  11.384
41574W        W14642  10.897   1.339  12.449
41575W        W14643  18.833  16.014  11.920
41576W        W14644  23.778  17.677  13.862
41577W        W14645  31.463   3.889   2.795
41578W        W14646  24.107  17.338   0.532
41579W        W14647  26.536  23.932  12.832
41580W        W14648  19.027  31.027  11.380
41581W        W14649  39.496  23.982   2.135
41582W        W14650  12.783  30.600  12.975
41583W        W14651  16.039  26.045   2.696
41584W        W14652  36.971   8.400  10.665
41585W        W14653  18.948  22.531  11.478
41586W        W14654  25.508  27.686   4.518
41587W        W14655   5.167   5.590  13.336
41588W        W14656   0.300  39.845   1.779
41589W        W14657  30.160  35.117   2.655
41590W        W14658  34.493  29.997  11.142
41591W        W14659  37.340   1.733  13.444
41592W        W14660   2.433   4.701   5.040
41593W        W14661  23.276   9.587  13.616
41594W        W14662  31.706   5.234  12.468
41595W        W14663   2.219  22.354   4.165
41596W        W14664  41.880   8.645   3.352
41597W        W14665   9.330   2.949   2.336
41598W        W14666  27.346   1.983  10.589
41599W        W14667   3.920  21.408   4.831
41600W        W14668   7.248  35.801  11.123
41601W        W14669  17.796  41.481   3.196
41602W        W14670   4.186  17.648   0.857
41603W        W14671   5.918  44.608   0.608
41604W        W14672  19.567  32.354  11.109
41605W        W14673  41.705  42.454   0.413
41606W        W14674  37.772  15.220  13.730
41607W        W14675  20.463  17.229   1.392
41608W        W14676  29.827   4.513   2.410
41609W        W14677  11.710  29.199   3.341
41610W        W14678   7.763  25.941  11.838
41611W        W14679  25.681  18.935  11.149
41612W        W14680  24.187  44.550   0.476
41613W        W14681  29.167  35.556  13.617
41614W        W14682  35.133  11.369   0.796
41615W        W14683  35.412  41.815   1.359
41616W        W14684  33.960  30.951   2.898
41617W        W14685  42.953  25.141   2.265
41618W        W14686  30.088  28.975  13.870
41619W        W14687  34.415  20.869  10.800
41620W        W14688  16.682  16.069   4.736
41621W        W14689  15.583  14.052   1.469
41622W        W14690  25.910   7.212   1.412
41623W        W14691  36.097  37.294   1.725
41624W        W14692  44.706  41.102  12.439
41625W        W14693  44.617   4.970  11.244
41626W        W14694  14.876  34.604  12.209
41627W        W14695  17.703  25.129   3.791
41628W        W14696   4.513   7.403  14.390
41629W        W14697  32.019  36.118  10.911
41630W        W14698   3.219   7.397   3.736
41631W        W14699  12.681  37.788   4.146
41632W        W14700  37.079  42.436   3.262
41633W        W14701   9.763  19.006  13.867
41634W        W14702  20.950  18.804  11.293
41635W        W14703  39.070  13.614  12.895
41636W        W14704  18.794   1.339   3.119
41637W        W14705  40.746  43.382   0.245
41638W        W14706  35.541  10.073   4.391
41639W        W14707  10.368  18.307   1.945
41640W        W14708  24.674  29.177   3.447
41641W        W14709  21.710  41.462   2.251
41642W        W14710  43.245  28.083   3.122
41643W        W14711  20.917   5.354   4.534
41644W        W14712  21.493   2.421  14.395
41645W        W14713  28.522  35.830   3.159
41646W        W14714  15.779  19.270   1.827
41647W        W14715  42.033  44.306  12.961
41648W        W14716  22.757  19.811   3.674
41649W        W14717  36.388  12.776  13.532
41650W        W14718  31.047  24.144  11.500
41651W        W14719   1.986  40.107   4.071
41652W        W14720  21.097  11.402   3.275
41653W        W14721   7.968  43.531   2.596
41654W        W14722   9.440  40.354   4.551
41655W        W14723  42.336  36.569   2.414
41656W        W14724  10.387  39.409  10.709
41657W        W14725  28.080  35.546   4.634
41658W        W14726   8.896  34.359  13.901
41659W        W14727  38.153   0.796   1.136
41660W        W14728  13.622   9.172   2.783
41661W        W14729  37.982  32.636   4.634
41662W        W14730   2.084  43.177   4.601
41663W        W14731  43.914   5.960   1.633
41664W        W14732  43.067  11.893   0.073
41665W        W14733  20.168   8.219   1.181
41666W        W14734  40.727   3.360  12.009
41667W        W14735  25.827  20.326   4.259
41668W        W14736  14.391   5.486  11.090
41669W        W14737  28.256  14.105   1.848
41670W        W14738  35.175  30.762  11.442
41671W        W14739  43.942  18.305  14.054
41672W        W14740  16.212  16.073  14.030
41673W        W14741  29.627  20.044   4.622
41674W        W14742  41.983   3.253  14.170
41675W        W14743  20.019  30.647   5.095
41676W        W14744  38.531  38.428  12.449
41677W        W14745  14.269  31.371  10.692
41678W        W14746  31.176  21.555  11.276
41679W        W14747   2.717  32.588   0.200
41680W        W14748  11.307  41.516  12.514
41681W        W14749  29.486   1.771  10.343
41682W        W14750  42.220  34.807  12.991
41683W        W14751  43.914   4.739   3.233
41684W        W14752  11.919  24.121   1.270
41685W        W14753  43.346  42.735   1.126
41686W        W14754  41.526  15.246   1.817
41687W        W14755  11.740  38.900   3.640
41688W        W14756  19.322   6.106  12.270
41689W        W14757  41.553  31.638  12.113
41690W        W14758  43.019  37.052  12.104
41691W        W14759  19.306   7.948  11.084
41692W        W14760  32.114  29.825  12.612
41693W        W14761   2.256  30.577   2.793
41694W        W14762   4.940  34.645   1.258
41695W        W14763  44.920  10.142   4.279
41696W        W14764  40.919  41.972  14.658
41697W        W14765  40.087   9.650  14.865
41698W        W14766  35.363  16.496  12.686
41699W        W14767  39.328  42.482  11.643
41700W        W14768  40.099  17.623  14.289
41701W        W14769  20.820  20.735   0.305
41702W        W14770   2.326  19.968  10.741
41703W        W14771   7.662  34.550  11.049
41704W        W14772  26.430   0.367   2.365
41705W        W14773   7.068  10.233   4.685
41706W        W14774  33.005  27.153  13.479
41707W        W14775   8.349  24.163  11.186
41708W        W14776  41.375  37.533  13.896
41709W        W14777  41.975  11.588  11.240
41710W        W14778   8.177  11.207   1.452
41711W        W14779  18.244   6.383   3.203
41712W        W14780  14.975  26.654   3.666
41713W        W14781   7.890  28.866   2.627
41714W        W14782   6.205  38.845   5.131
41715W        W14783   1.836  31.211   3.225
41716W        W14784  14.848  26.273   3.348
41717W        W14785  35.227   4.359  12.200
41718W        W14786   9.604   1.641  13.563
41719W        W14787  15.010  24.669  12.024
41720W        W14788   9.205  42.296   1.841
41721W        W14789   7.055  40.751  11.084
41722W        W14790  41.540  39.797  14.546
41723W        W14791  38.633   3.538   4.990
41724W        W14792  21.729  15.633  13.293
41725W        W14793  16.139  22.742  13.100
41726W        W14794  17.988  27.935   4.713
41727W        W14795  43.181  17.427   3.689
41728W        W14796  26.970  23.161   2.867
41729W        W14797  30.876   0.274   2.115
41730W        W14798   2.772  24.554   4.254
41731W        W14799   4.397  24.893   1.387
41732W        W14800  26.663  36.349  14.478
41733W        W14801  24.580   3.251   2.468
41734W        W14802  13.687   7.818   4.938
41735W        W14803  14.299  12.818  14.098
41736W        W14804   0.432   4.235   1.160
41737W        W14805   2.311  37.588   4.453
41738W        W14806  16.532   2.656  14.311
41739W        W14807  29.851   5.249   1.877
41740W        W14808  29.955  14.867   3.657
41741W        W14809   2.141  32.497  14.984
41742W        W14810  32.467  11.236   4.407
41743W        W14811  42.957  43.386   0.988
41744W        W14812  23.143  36.532   4.068
41745W        W14813  39.016   2.430  11.551
41746W        W14814  25.576  19.501  11.192
41747W        W14815  17.415  14.259  10.983
41748W        W14816  20.227  32.071   2.955
41749W        W14817  38.800  30.409  12.000
41750W        W14818   2.003  16.111  12.583
41751W        W14819   6.658  43.324  14.552
41752W        W14820  28.664   9.303  12.201
41753W        W14821  40.794   0.456  13.599
41754W        W14822  43.727  17.597   0.220
41755W        W14823  12.668  16.104   2.850
41756W        W14824  11.232  39.765   4.859
41757W        W14825  16.668  40.604   3.297
41758W        W14826  39.083  37.404   1.359
41759W        W14827  43.588  39.716   2.681
41760W        W14828  34.682  37.834   2.338
41761W        W14829  24.958  20.671  11.518
41762W        W14830  19.069  43.232  12.565
41763W        W14831   0.805   0.155   0.455
41764W        W14832  29.071  14.176   0.397
41765W        W14833  35.599  19.345  11.180
41766W        W14834   0.960   9.742   1.291
41767W        W14835   4.763  16.751  12.935
41768W        W14836   1.761  32.330  13.546
41769W        W14837  12.644  28.484   0.372
41770W        W14838  39.161  43.240  10.004
41771W        W14839   3.950  33.152  14.421
41772W        W14840  40.916  30.035  13.399
41773W        W14841  34.175   7.184   3.165
41774W        W14842  31.204   2.221   2.810
41775W        W14843  15.750  24.094  14.116
41776W        W14844  16.664  32.713  11.697
41777W        W14845  44.809  34.440  12.063
41778W        W14846  29.353  18.707  10.610
41779W        W14847  13.690  32.792  13.055
41780W        W14848   2.036  36.724   3.888
41781W        W14849   3.468  32.485  10.901
41782W        W14850   5.176  41.324   0.979
41783W        W14851  40.942  27.503   3.753
41784W        W14852  30.001   5.815  11.479
41785W        W14853  37.415  25.409   3.473
41786W        W14854  15.803  35.463  14.277
41787W        W14855  20.746  12.733   3.300
41788W        W14856  42.000  25.612  14.549
41789W        W14857  22.035  33.272  10.827
41790W        W14858  30.240  25.256  12.407
41791W        W14859  28.493  42.915  11.351
41792W        W14860  15.399   6.452  10.749
41793W        W14861  37.423  15.767   4.007
41794W        W14862   1.687  34.557  10.680
41795W        W14863   8.402  11.069   4.091
41796W        W14864   4.673  37.829   0.440
41797W        W14865  38.916  43.495  14.862
41798W        W14866   5.643  43.110   0.361
41799W        W14867  23.329  37.529  12.004
41800W        W14868  19.830   7.061   2.869
41801W        W14869  12.126  30.086  12.579
41802W        W14870   8.723  34.494  12.457
41803W        W14871  26.212  14.539  10.524
41804W        W14872  22.827  34.837   0.855
41805W        W14873  17.840  40.500   0.958
41806W        W14874   1.098  23.083   1.918
41807W        W14875  15.033  40.855   3.350
41808W        W14876  17.556  28.457  14.189
41809W        W14877  35.236  17.295   2.309
41810W        W14878  30.043  21.351   2.380
41811W        W14879   0.958  24.891   0.340
41812W        W14880   6.117   1.462  11.604
41813W        W14881   2.163  41.582  11.145
41814W        W14882   3.923   8.575   1.223
41815W        W14883  21.385  38.587   1.447
41816W        W14884  34.374  35.575   0.601
41817W        W14885  27.089  13.559  12.250
41818W        W14886  10.386  36.521  12.176
41819W        W14887   3.769  23.927   3.273
41820W        W14888  23.831  37.622  11.773
41821W        W14889  10.500   3.459  10.249
41822W        W14890  19.584  43.305  11.007
41823W        W14891   8.148   0.028   3.052
41824W        W14892  40.935   8.683   2.946
41825W        W14893  19.641  35.850  11.444
41826W        W14894  17.030   5.630  12.077
41827W        W14895  18.732  25.223   2.374
41828W        W14896   2.886   7.310   3.334
41829W        W14897  16.788  23.062  10.732
41830W        W14898  33.596  12.269  12.109
41831W        W14899  37.058  33.365  11.098
41832W        W14900  36.897  42.845  13.601
41833W        W14901  10.307  16.683   1.437
41834W        W14902  23.269  22.682   0.824
41835W        W14903  14.010  39.516  10.965
41836W        W14904  15.264  36.366  10.556
41837W        W14905  37.862  43.046  13.353
41838W        W14906  23.762  27.364  13.873
41839W        W14907  31.001  24.877  10.752
41840W        W14908  29.265  35.178  13.958
41841W        W14909  16.489  38.960  11.402
41842W        W14910  21.600   9.734  13.478
41843W        W14911  21.219  42.524   3.166
41844W        W14912  41.446  27.921   3.287
41845W        W14913  31.515   6.948  11.586
41846W        W14914  27.219  20.834   2.085
41847W        W14915  11.089  24.133   0.806
41848W        W14916  27.590  25.391  11.035
41849W        W14917   6.396  18.155   1.137
41850W        W14918  25.411  39.059   0.633
41851W        W14919   3.295  12.224  14.378
41852W        W14920  33.288  30.883  13.964
41853W        W14921   9.391  29.672   1.246
41854W        W14922  22.842  17.717   4.692
41855W        W14923  38.093  44.592  11.130
41856W        W14924  15.530  14.360  13.356
41857W        W14925  38.104  21.150  11.226
41858W        W14926  29.452  36.885   4.759
41859W        W14927   2.800  25.100  13.786
41860W        W14928  17.243  22.102  11.308
41861W        W14929  26.204   5.022  13.554
41862W        W14930  35.073  38.090   3.234
41863W        W14931  37.934  37.627   0.344
41864W        W14932  12.831  26.517  10.458
41865W        W14933  41.091  35.850  14.385
41866W        W14934  42.830  10.750  11.558
41867W        W14935  35.348   9.060   4.396
41868W        W14936   0.849  42.714   3.200
41869W        W14937  23.335   5.461   0.649
41870W        W14938  20.271  22.719  11.802
41871W        W14939  31.953  43.719   2.213
41872W        W14940   5.317  37.486   0.818
41873W        W14941  24.188  21.705   0.515
41874W        W14942   1.174  44.274   0.519
41875W        W14943  31.961  25.558   3.594
41876W        W14944  40.879  32.335   1.169
41877W        W14945   9.437  23.597  12.345
41878W        W14946  41.291  24.516  11.116
41879W        W14947  14.239  18.005   2.245
41880W        W14948  28.531  13.790   3.265
41881W        W14949  35.151  23.547   4.699
41882W        W14950   0.804  42.343   0.981
41883W        W14951   7.732  17.247  10.646
41884W        W14952  34.815  22.470   4.057
41885W        W14953  39.999   9.639   1.781
41886W        W14954  44.522  20.589  10.782
41887W        W14955  28.926  14.487   5.244
41888W        W14956  18.989  26.083  12.808
41889W        W14957  30.073  44.167   3.918
41890W        W14958  22.551   3.604  10.716
41891W        W14959  22.032  18.507   1.678
41892W        W14960  12.609  11.154  11.887
41893W        W14961  18.285  14.210   3.381
41894W        W14962  38.334   5.757   1.848
41895W        W14963  19.672  19.373  13.357
41896W        W14964  10.288  41.828   3.863
41897W        W14965  37.985  17.876   2.910
41898W        W14966  19.266  29.039   2.778
41899W        W14967  43.044  29.477  13.891
41900W        W14968  10.451  32.667  13.430
41901W        W14969   2.472  38.004   1.798
41902W        W14970  41.520  39.996  10.733
41903W        W14971  31.478  37.302  13.934
41904W        W14972  11.746  36.066   1.796
41905W        W14973   0.973  14.246  11.605
41906W        W14974  11.661  27.961  11.001
41907W        W14975  27.205  14.669  13.477
41908W        W14976  25.152  19.210  13.180
41909W        W14977  26.656  40.968  10.855
41910W        W14978   6.163  11.867   5.131
41911W        W14979  33.105  11.180  14.451
41912W        W14980  22.214  30.570   0.464
41913W        W14981  14.615  43.583  14.884
41914W        W14982  28.093   8.919   3.557
41915W        W14983  12.292   4.005   3.612
41916W        W14984  12.330   2.409  11.186
41917W        W14985  28.293  42.188  13.356
41918W        W14986  13.595  35.329  14.727
41919W        W14987  27.942  44.736   1.841
41920W        W14988  35.979  27.982   4.564
41921W        W14989   0.380  14.719   1.438
41922W        W14990   9.694   5.777   0.464
41923W        W14991   8.339  41.109  12.891
41924W        W14992  36.841  31.514   0.787
41925W        W14993  34.835  44.515  13.900
41926W        W14994  42.392  22.172  11.498
41927W        W14995  23.939  35.337  12.395
41928W        W14996  13.584  25.604  14.186
41929W        W14997   9.447   3.733  10.631
41930W        W14998  11.948  26.978   3.709
41931W        W14999  22.114  14.060  14.387
41932W        W15000  16.214  28.614  13.871
41933W        W15001  37.323  24.173   3.528
41934W        W15002  34.663  13.909   3.242
41935W        W15003  34.339  31.231   3.672
41936W        W15004  40.518  17.703  14.776
41937W        W15005  30.476  26.578   3.234
41938W        W15006   8.203  38.526  11.092
41939W        W15007  42.900  33.943  13.841
41940W        W15008  12.772  29.045   2.854
41941W        W15009  40.494  41.147  11.637
41942W        W15010  10.165  27.150  13.876
41943W        W15011   7.052  10.290   1.354
41944W        W15012  27.359  27.031   4.707
41945W        W15013  34.363  42.717   1.288
41946W        W15014  38.044   1.975   3.505
41947W        W15015  38.651   2.868   4.693
41948W        W15016  29.516  24.481  11.369
41949W        W15017  27.095  16.857   3.634
41950W        W15018  15.579  14.687  13.817
41951W        W15019  29.246  26.967   0.814
41952W        W15020   3.335   9.629   1.781
41953W        W15021  25.225  43.405   1.251
41954W        W15022   5.876   8.704  14.065
41955W        W15023  26.708  37.978   4.723
41956W        W15024  27.217  37.114  12.428
41957W        W15025  36.081  40.027   0.184
41958W        W15026  25.891  30.007  12.079
41959W        W15027  20.328  31.437  11.600
41960W        W15028  39.490   1.242  13.491
41961W        W15029   4.332  41.537  14.574
41962W        W15030  33.149   7.738   0.191
41963W        W15031  29.737  25.221   0.935
41964W        W15032  15.162  17.822  12.190
41965W        W15033   2.729  38.443   4.664
41966W        W15034  25.656  36.162  12.259
41967W        W15035  41.044  13.651  11.175
41968W        W15036  31.521  35.090   4.570
41969W        W15037  20.955  18.723   1.710
41970W        W15038  10.280  25.584   1.221
41971W        W15039  11.968  18.674   1.953
41972W        W15040  25.166   3.663   1.997
41973W        W15041  39.216  37.975  11.428
41974W        W15042  36.136  21.366   0.495
41975W        W15043  33.670  38.753  10.630
41976W        W15044  24.753  15.723   4.295
41977W        W15045  15.727  28.082   4.125
41978W        W15046   9.288  12.127  12.829
41979W        W15047   9.166   9.684   3.468
41980W        W15048  30.413  44.673   1.054
41981W        W15049  23.539  11.721  11.268
41982W        W15050  12.096  40.826  13.321
41983W        W15051  13.785  34.088   1.199
41984W        W15052  44.326   6.744   2.855
41985W        W15053   4.165  42.302  11.680
41986W        W15054  40.758  10.911  10.631
41987W        W15055  19.088  28.590   2.631
41988W        W15056  28.480  17.163   3.162
41989W        W15057   2.175  43.961  14.424
41990W        W15058  22.640  34.527  13.763
41991W        W15059   6.830  12.136   2.722
41992W        W15060  22.477  32.042  12.970
41993W        W15061  13.142  32.004  12.034
41994W        W15062   9.064  11.912  11.490
41995W        W15063   1.617   9.384  14.703
41996W        W15064  27.018  38.503   2.317
41997W        W15065   0.254   0.555   0.469
41998W        W15066  17.293  21.951  11.795
41999W        W15067  23.678   6.646   3.576
42000W        W15068  29.249  20.492   3.368
42001W        W15069  29.566  31.890   3.686
42002W        W15070  35.625  27.543  12.465
42003W        W15071  20.235  14.544   2.653
42004W        W15072   7.227  36.824  13.274
42005W        W15073   9.793  33.960  13.562
42006W        W15074   7.574  11.890  13.087
42007W        W15075  14.822   7.151   4.359
42008W        W15076   1.284   3.452   1.646
42009W        W15077  30.676   2.921   1.404
42010W        W15078  28.114   1.933   1.437
42011W        W15079   8.063  12.691   3.759
42012W        W15080   5.960  16.420   1.404
42013W        W15081   5.580  31.394   1.927
42014W        W15082  13.318  14.115   5.080
42015W        W15083  31.274   0.912   4.945
42016W        W15084  33.577  12.029  12.560
42017W        W15085  44.056   3.755  11.861
42018W        W15086  42.965  20.580   3.215
42019W        W15087   1.403  19.316   3.048
42020W        W15088   1.750  16.203  13.030
42021W        W15089  34.847  43.027  13.560
42022W        W15090   6.126  44.289  12.465
42023W        W15091  37.441  28.369   4.084
42024W        W15092  11.038   0.501  11.131
42025W        W15093  28.888  31.613   0.398
42026W        W15094  31.379   3.443   1.356
42027W        W15095  22.079   1.568   1.951
42028W        W15096  15.808  33.508  14.846
42029W        W15097  12.151  32.625  13.876
42030W        W15098  28.850  34.072   4.319
42031W        W15099  31.053  41.367   3.705
42032W        W15100   2.204  36.863  13.843
42033W        W15101  35.772   3.475   0.344
42034W        W15102  14.585  36.016   3.829
42035W        W15103   0.374  13.616  14.009
42036W        W15104   5.229  15.135  13.831
42037W        W15105   4.274  44.557  11.923
42038W        W15106  43.864  24.812   0.804
42039W        W15107  33.908  37.604  11.654
42040W        W15108   7.044  44.256   3.143
42041W        W15109  31.504   2.184  11.436
42042W        W15110  32.069  40.374   4.979
42043W        W15111  33.152  24.872  12.163
42044W        W15112  17.707  27.506   4.899
42045W        W15113  26.228  18.957   0.704
42046W        W15114  44.971  19.263   1.227
42047W        W15115   5.866  43.098   3.645
42048W        W15116  15.709  39.399   2.134
42049W        W15117  11.623  42.547   3.791
42050W        W15118  42.603   1.709  12.428
42051W        W15119  15.683  14.381   4.994
42052W        W15120   1.232  28.033   3.107
42053W        W15121  36.652   0.705   2.274
42054W        W15122  33.047  22.264   2.782
42055W        W15123   8.735  44.429   1.791
42056W        W15124  23.475  23.793   0.832
42057W        W15125  24.121  37.870   0.349
42058W        W15126  41.800  19.838  14.301
42059W        W15127   4.302  23.113  14.729
42060W        W15128  41.065  44.284   0.239
42061W        W15129  28.622  44.479  10.659
42062W        W15130  14.232  24.192   0.940
42063W        W15131  12.626   5.373  12.424
42064W        W15132   6.238  10.450  11.503
42065W        W15133   3.822  22.206  10.730
42066W        W15134  32.414  40.813   0.350
42067W        W15135  32.606  36.912   1.910
42068W        W15136  10.768  21.393  13.010
42069W        W15137  20.344  37.312  10.858
42070W        W15138  42.274  14.220   4.636
42071W        W15139  37.477  41.719  13.575
42072W        W15140  16.593   1.450   3.101
42073W        W15141  19.189  14.358   4.277
42074W        W15142   4.465   4.011  10.806
42075W        W15143  14.255  32.466   1.415
42076W        W15144  28.358  35.439  11.183
42077W        W15145  30.350  18.435   2.215
42078W        W15146  42.892  13.231   0.490
42079W        W15147  41.396   6.179  14.330
42080W        W15148  20.753   1.514   5.508
42081W        W15149  13.275  23.199  11.887
42082W        W15150  40.549   2.277   3.962
42083W        W15151  44.001  27.474   0.893
42084W        W15152  12.165  27.219   4.108
42085W        W15153  11.525  40.636  11.939
42086W        W15154  13.083   9.727   4.559
42087W        W15155  32.507   8.205   4.638
42088W        W15156  40.517   6.896  11.070
42089W        W15157  35.330  23.773   3.228
42090W        W15158  31.188  40.553  11.642
42091W        W15159   6.628  25.972  14.325
42092W        W15160  41.787   6.262  12.411
42093W        W15161  12.883   1.966   2.742
42094W        W15162  36.162   6.441  11.893
42095W        W15163   5.168  37.464   4.925
42096W        W15164  22.114  15.647   4.492
42097W        W15165  44.711  35.478   1.721
42098W        W15166   1.257  24.078  10.710
42099W        W15167  21.322  30.397  10.757
42100W        W15168  33.767   5.534   3.735
42101W        W15169  10.424  43.237   3.266
42102W        W15170   6.409  10.060   0.942
42103W        W15171  28.602  11.807  10.881
42104W        W15172  28.145   9.964  12.090
42105W        W15173  16.567  44.215   1.710
42106W        W15174  20.204   9.196   2.137
42107W        W15175  16.294  35.591  14.109
42108W        W15176  34.687   7.685  12.059
42109W        W15177  22.971  22.505   2.422
42110W        W15178   4.859   6.080  11.986
42111W        W15179  18.622   7.883   0.194
42112W        W15180  41.945  42.883  12.416
42113W        W15181  25.228   5.897  11.039
42114W        W15182  14.591  44.730   3.749
42115W        W15183   4.223  12.247   4.645
42116W        W15184   3.879  35.939   4.635
42117W        W15185  14.054  26.660  12.522
42118W        W15186   3.471  14.220   2.843
42119W        W15187  34.470  23.959  12.099
42120W        W15188  42.093  34.832  14.528
42121W        W15189  27.936  34.541  14.977
42122W        W15190   2.122   9.099  13.060
42123W        W15191  21.309  18.607   0.428
42124W        W15192  25.262   8.976   0.816
42125W        W15193  10.324  22.504   3.727
42126W        W15194  21.062  22.623  14.296
42127W        W15195  21.511  25.501  11.169
42128W        W15196  23.318   3.932   3.318
42129W        W15197  19.036  29.029  14.380
42130W        W15198  34.402  13.666  14.739
42131W        W15199  32.487  37.861   0.757
42132W        W15200  27.568  32.508   1.034
42133W        W15201  32.085   5.127   4.432
42134W        W15202  27.055  25.903  13.056
42135W        W15203  42.473  17.769  13.867
42136W        W15204  41.640  10.713  14.687
42137W        W15205  35.626  10.845   3.885
42138W        W15206   8.573  15.078  12.631
42139W        W15207  31.660  18.119  14.520
42140W        W15208  25.130  40.448  14.838
42141W        W15209  22.177  26.202   0.930
42142W        W15210  22.242  17.782  14.811
42143W        W15211  42.287  32.626   4.211
42144W        W15212  36.886  36.501   1.269
42145W        W15213  35.546  24.991  14.250
42146W        W15214  12.060   6.767   2.871
42147W        W15215  10.820  42.281  14.022
42148W        W15216  44.141  28.924   1.524
42149W        W15217  12.899  29.534   1.178
42150W        W15218  32.672  41.410  14.918
42151W        W15219  38.567  27.679   1.678
42152W        W15220  43.383  15.152   2.304
42153W        W15221  19.685  29.799  10.312
42154W        W15222  17.636  21.522  12.394
42155W        W15223  22.452  14.981  11.071
42156W        W15224   4.278  32.338  13.918
42157W        W15225   7.588   1.800  10.714
42158W        W15226  14.626   5.886  10.629
42159W        W15227  42.510  38.121  14.974
42160W        W15228  32.750  38.940  12.686
42161W        W15229  25.008  28.094   0.298
42162W        W15230   9.719  10.598  11.551
42163W        W15231   7.786   5.773  12.143
42164W        W15232  38.827  12.287   4.094
42165W        W15233   4.349  23.696   4.195
42166W        W15234   6.001  42.545   0.938
42167W        W15235  31.001  14.053   2.374
42168W        W15236  41.069  19.574   0.043
42169W        W15237   5.782   3.021   1.673
42170W        W15238  36.655  16.602  13.934
42171W        W15239  24.530  10.143   1.003
42172W        W15240  37.249   2.391  12.859
42173W        W15241  39.058  27.777  12.093
42174W        W15242  23.437  20.327  10.770
42175W        W15243  28.634  20.229   1.251
42176W        W15244  12.150   9.940  13.112
42177W        W15245   5.507  38.484   2.245
42178W        W15246  16.468  27.731   2.247
42179W        W15247  36.438  13.562  12.450
42180W        W15248  30.116  23.211   1.875
42181W        W15249  36.669  17.731   0.195
42182W        W15250  44.318  25.810   2.453
42183W        W15251  33.393  10.720  11.818
42184W        W15252  33.659  19.514   4.978
42185W        W15253  15.193  20.041   0.522
42186W        W15254  37.545  18.027  11.606
42187W        W15255  25.902  36.007  10.793
42188W        W15256  35.132  14.090  11.067
42189W        W15257   7.630  13.365  11.535
42190W        W15258   0.985  27.191   0.840
42191W        W15259  32.501  42.990   0.896
42192W        W15260  34.147  31.998   0.437
42193W        W15261  32.616  16.703   0.753
42194W        W15262  22.530  26.722   1.335
42195W        W15263  30.536  32.802   0.826
42196W        W15264  13.638  10.119  10.467
42197W        W15265   8.337   9.208   0.363
42198W        W15266  26.703  33.018   3.904
42199W        W15267  33.061   0.284   1.011
42200W        W15268   5.395  12.847  11.724
42201W        W15269  16.254   4.891  11.577
42202W        W15270  16.535  19.807  10.579
42203W        W15271   9.730   8.329   0.386
42204W        W15272  42.631  22.034   3.380
42205W        W15273  34.938  29.887  13.375
42206W        W15274  13.476   7.871  12.978
42207W        W15275  16.263  33.026  11.736
42208W        W15276  23.371  12.731  14.741
42209W        W15277   0.974   1.336  14.884
42210W        W15278  15.350  17.513  12.574
42211W        W15279  18.579  44.956   2.617
42212W        W15280   9.948  36.920   4.419
42213W        W15281  13.310   3.877   3.799
42214W        W15282   7.841   4.812  13.833
42215W        W15283  42.836  19.829  11.265
42216W        W15284   5.163  36.429  13.328
42217W        W15285  13.119   3.603  12.571
42218W        W15286   8.193  23.040  13.487
42219W        W15287  43.655  10.339   4.598
42220W        W15288  14.689   4.843  14.886
42221W        W15289  17.667   9.145   3.174
42222W        W15290   3.762   4.511  14.069
42223W        W15291  40.240  27.526  11.419
42224W        W15292  21.966   2.236  10.383
42225W        W15293  10.301  38.892  11.775
42226W        W15294  32.039  12.329   4.224
42227W        W15295  21.962   9.355  13.463
42228W        W15296  10.436  17.722  12.047
42229W        W15297  23.692  28.908  14.088
42230W        W15298  43.493   0.980  14.516
42231W        W15299   9.789  41.788  11.115
42232W        W15300  26.084   9.800  10.717
42233W        W15301  13.526  16.040   4.238
42234W        W15302  28.135  21.750   2.758
42235W        W15303  34.546  31.921  12.568
42236W        W15304  33.843  34.571   1.087
42237W        W15305   0.709  28.658  14.998
42238W        W15306  35.171  26.291  11.121
42239W        W15307  13.313  35.542   3.579
42240W        W15308  40.933   6.295  14.553
42241W        W15309  23.598  22.746  12.065
42242W        W15310  33.961  42.227   4.408
42243W        W15311   1.838  44.237   3.100
42244W        W15312  19.309  43.331   3.631
42245W        W15313  37.861   4.547   3.261
42246W        W15314  25.722  39.077   4.295
42247W        W15315  17.785   9.728   2.798
42248W        W15316  32.189   7.692  11.948
42249W        W15317  13.016  40.561   4.609
42250W        W15318  29.950  20.162  14.517
42251W        W15319  17.154  37.197   3.709
42252W        W15320  15.317  32.260   1.700
42253W        W15321  32.488  30.929   4.189
42254W        W15322  41.481   7.321  13.633
42255W        W15323  40.338  28.673   2.337
42256W        W15324  26.279  36.352  11.139
42257W        W15325  11.456  28.546   2.780
42258W        W15326  11.316  40.921   0.342
42259W        W15327  19.753  25.626  11.611
42260W        W15328  40.332  24.008  12.730
42261W        W15329  17.479  17.524  11.129
42262W        W15330  35.608   3.227  12.543
42263W        W15331  44.271  41.450   0.115
42264W        W15332   4.324  20.497   0.829
42265W        W15333  41.966  10.188  11.427
42266W        W15334   0.325  43.240  11.467
42267W        W15335  43.608   7.011   1.807
42268W        W15336   1.129  15.264  14.128
42269W        W15337  37.970   1.782   0.181
42270W        W15338  11.422  37.415   3.621
42271W        W15339  44.336   4.183   1.152
42272W        W15340  43.556  19.682   5.458
42273W        W15341  12.238  24.914   4.308
42274W        W15342  41.112   6.715  10.290
42275W        W15343  42.925  12.862  13.158
42276W        W15344  32.934   8.128  14.880
42277W        W15345  42.619   4.961  13.873
42278W        W15346   0.928  33.517   0.168
42279W        W15347  10.686   3.179  14.093
42280W        W15348  36.512  16.296   0.530
42281W        W15349   5.393  21.316  11.921
42282W        W15350  23.104  18.186   3.581
42283W        W15351  16.861   8.764  13.368
42284W        W15352  43.728  13.726  14.467
42285W        W15353  12.158   8.292   0.492
42286W        W15354  28.610  20.751  11.427
42287W        W15355  28.166   6.781   0.425
42288W        W15356   4.882  29.227   3.781
42289W        W15357  39.104  21.726  14.832
42290W        W15358  33.910  40.952  12.492
42291W        W15359  32.159  39.777  11.208
42292W        W15360   1.867  22.741   4.179
42293W        W15361  27.131  25.053  11.902
42294W        W15362  26.115   5.673   3.253
42295W        W15363   1.288  40.047   0.882
42296W        W15364   2.813   8.366  12.896
42297W        W15365  44.347  19.499  14.152
42298W        W15366  25.106   6.897   4.035
42299W        W15367   0.029  42.310  14.902
42300W        W15368   6.355  27.401  11.641
42301W        W15369  32.673   9.200   0.019
42302W        W15370  31.253   0.399   4.738
42303W        W15371  37.558  38.412   4.718
42304W        W15372   0.476  34.576  14.197
42305W        W15373  36.608  33.322   3.292
42306W        W15374  28.998   6.131   3.684
42307W        W15375  15.718  16.688  11.141
42308W        W15376  15.892  11.925  12.564
42309W        W15377  31.537  21.744   1.823
42310W        W15378   1.469  10.831  12.913
42311W        W15379   2.659   9.699   4.683
42312W        W15380  39.872  25.517   0.260
42313W        W15381  36.172  41.565   3.073
42314W        W15382  23.214  18.006  13.430
42315W        W15383  21.562  27.136   0.502
42316W        W15384  23.715  30.522   2.761
42317W        W15385  27.763   3.708   0.302
42318W        W15386   2.233  35.624  11.532
42319W        W15387  16.478  40.461   1.705
42320W        W15388   4.716  37.997   3.325
42321W        W15389   5.055  44.983   2.776
42322W        W15390  41.957  37.843  11.667
42323W        W15391  32.719  20.008  13.266
42324W        W15392  10.136  24.331  12.294
42325W        W15393   5.010  31.590  13.516
42326W        W15394   3.294   4.910  14.255
42327W        W15395  11.122  32.445  11.223
42328W        W15396  35.351   7.576  14.466
42329W        W15397  18.621  44.497   3.902
42330W        W15398  34.315  23.888  13.009
42331W        W15399  29.151  44.754   2.330
42332W        W15400  40.311  14.678   1.824
42333W        W15401   1.129  35.923  11.011
42334W        W15402   1.187  34.484  10.771
42335W        W15403  43.782  16.163   2.323
42336W        W15404  18.509  19.265  10.688
42337W        W15405  13.235  37.749   4.348
42338W        W15406  29.662  29.588   1.332
42339W        W15407  17.248  22.234  13.574
42340W        W15408  34.123  12.450   4.137
42341W        W15409  25.990  11.121   1.748
42342W        W15410  32.893   4.754   3.237
42343W        W15411  40.230  27.071  11.169
42344W        W15412   0.952  13.262   1.286
42345W        W15413   1.074  42.792  11.719
42346W        W15414   2.686   3.485  14.326
42347W        W15415  31.216  11.552  10.325
42348W        W15416  25.046  17.860  12.515
42349W        W15417  24.761  24.005   1.815
42350W        W15418  44.016  38.536   2.472
42351W        W15419   8.679  44.037   0.861
42352W        W15420  29.389  29.110   4.566
42353W        W15421  30.128  23.586   4.171
42354W        W15422  18.831  42.829  10.492
42355W        W15423  27.150  17.040  13.925
42356W        W15424  17.590  24.851   1.734
42357W        W15425  23.484  19.603   0.485
42358W        W15426  18.777   2.567   4.907
42359W        W15427  15.520   1.704  10.615
42360W        W15428  31.961  42.762   2.325
42361W        W15429  10.058  28.579  12.532
42362W        W15430  32.041  38.070  14.814
42363W        W15431  15.028  26.022   0.672
42364W        W15432  17.840  40.759   4.705
42365W        W15433   5.925   1.372   0.857
42366W        W15434  36.504  18.890  12.575
42367W        W15435   6.878  26.622  11.177
42368W        W15436  19.198   5.734   2.159
42369W        W15437   0.051   0.918   2.011
42370W        W15438  25.527   2.148   3.206
42371W        W15439  15.296  41.165   0.980
42372W        W15440  14.623  29.606   4.553
42373W        W15441  32.944  25.413   3.287
42374W        W15442  33.699  26.613   2.233
42375W        W15443  21.250  25.414  10.744
42376W        W15444   6.394  11.248  12.999
42377W        W15445  20.026  29.502  12.981
42378W        W15446  32.426  20.166  11.618
42379W        W15447   0.411  19.536   1.224
42380W        W15448   2.842  29.556   4.359
42381W        W15449  25.204  13.851   1.831
42382W        W15450  30.439  21.316  14.621
42383W        W15451  44.931   3.678   4.173
42384W        W15452  13.749  11.946   3.102
42385W        W15453  27.488  23.018  14.550
42386W        W15454   2.735  31.973  10.797
42387W        W15455  42.351  20.445  11.973
42388W        W15456  29.162  39.779  14.326
42389W        W15457  42.004  19.729   3.162
42390W        W15458   7.673  28.501  10.758
42391W        W15459  23.432   9.474   1.745
42392W        W15460  35.214   2.899  13.745
42393W        W15461  24.047  24.519   2.818
42394W        W15462  33.345  43.434   2.419
42395W        W15463  29.632  34.401   0.285
42396W        W15464  24.446   2.150  13.605
42397W        W15465  18.074  29.518  13.879
42398W        W15466  18.261   3.690  12.379
42399W        W15467   5.993  19.057   1.026
42400W        W15468  37.396  25.975   3.590
42401W        W15469  38.264   6.419  12.919
42402W        W15470   0.414   8.312   1.755
42403W        W15471  17.298   8.974  11.533
42404W        W15472   7.182  27.032  10.591
42405W        W15473   9.853  21.071   2.191
42406W        W15474  40.856  43.941  10.517
42407W        W15475  17.582  32.497   2.971
42408W        W15476   4.822  20.409   1.827
42409W        W15477  14.159   2.430  12.988
42410W        W15478   4.356   9.223  11.194
42411W        W15479   2.952   8.728   2.702
42412W        W15480  40.375  10.452  14.851
42413W        W15481  29.525   4.835  10.031
42414W        W15482  21.003  27.253  10.461
42415W        W15483  39.416  12.267  10.529
42416W        W15484  35.326   6.667  12.300
42417W        W15485   6.468  27.173   0.882
42418W        W15486  27.254  23.709  12.879
42419W        W15487  42.287  13.171   4.318
42420W        W15488   7.001  16.735   1.794
42421W        W15489   7.427   5.257   4.640
42422W        W15490  33.154   6.913  11.550
42423W        W15491  36.434  28.247   4.524
42424W        W15492   2.202   4.991   1.039
42425W        W15493  28.651  35.537   3.595
42426W        W15494  26.562   4.483   1.329
42427W        W15495  29.693  16.712  11.131
42428W        W15496  30.527  22.437   3.631
42429W        W15497  15.869  28.766   0.302
42430W        W15498  35.949  13.701   1.513
42431W        W15499  15.754  43.878   2.248
42432W        W15500  40.521  15.752  11.008
42433W        W15501  21.603   4.375  12.803
42434W        W15502  13.086  25.621   0.307
42435W        W15503  43.732  22.722   1.886
42436W        W15504  20.654  15.267   0.936
42437W        W15505  17.088  36.601   3.428
42438W        W15506  19.190  42.826   3.555
42439W        W15507  13.087   0.370  12.388
42440W        W15508  37.294   7.623   1.883
42441W        W15509   4.412  25.532  11.222
42442W        W15510  43.214   7.711   4.032
42443W        W15511  11.411  24.016  13.695
42444W        W15512   8.369  16.716  12.086
42445W        W15513  19.224   5.717   2.684
42446W        W15514  32.905   7.809   3.283
42447W        W15515  40.310  34.906  11.672
42448W        W15516  15.231  33.214   4.866
42449W        W15517  23.608   1.986  12.059
42450W        W15518  30.615  39.470   4.687
42451W        W15519   6.999  40.293   4.683
42452W        W15520  24.142  10.541   4.759
42453W        W15521  31.123  40.396   3.733
42454W        W15522   7.636  13.872   1.229
42455W        W15523  31.943  27.569   1.898
42456W        W15524  36.855  36.599   0.769
42457W        W15525   7.693  11.995  12.602
42458W        W15526   8.342   1.357  12.932
42459W        W15527  19.310  22.085  13.437
42460W        W15528   1.294   4.929   2.261
42461W        W15529   5.067  11.770  12.965
42462W        W15530  21.248  15.673   1.146
42463W        W15531  28.274  43.913   4.787
42464W        W15532  40.295  25.558  12.932
42465W        W15533  12.546  30.225   3.255
42466W        W15534   6.573  12.426   0.439
42467W        W15535  36.286  15.293   2.756
42468W        W15536  26.484   0.580   1.071
42469W        W15537  32.891  33.576   3.392
42470W        W15538  33.700  15.879  13.504
42471W        W15539  29.812  27.752   3.696
42472W        W15540   9.759  14.071  12.593
42473W        W15541  16.358   7.013  12.940
42474W        W15542  10.594  30.374   2.590
42475W        W15543  19.834  27.576  11.077
42476W        W15544  36.893  34.177   2.661
42477W        W15545  27.920  30.653   3.193
42478W        W15546   1.202  10.779   1.176
42479W        W15547  29.454  25.605   4.543
42480W        W15548  38.706  13.587   3.605
42481W        W15549  23.094  41.327  10.942
42482W        W15550   5.735   4.151  11.058
42483W        W15551   3.321  35.404  10.459
42484W        W15552  34.652   0.736  14.589
42485W        W15553  18.252  39.885   2.907
42486W        W15554  25.601   0.236  11.691
42487W        W15555  44.491  21.464  12.372
42488W        W15556  22.553  42.279   2.981
42489W        W15557  23.013  25.777  14.407
42490W        W15558   0.411  44.988   3.323
42491W        W15559  24.254  26.182  11.105
42492W        W15560  25.590   1.655  13.479
42493W        W15561  34.863  36.848  13.996
42494W        W15562  11.324  20.856   0.774
42495W        W15563   5.387  36.508   0.013
42496W        W15564   5.433  11.403  11.673
42497W        W15565  43.980  21.515   4.221
42498W        W15566  25.940   0.314   3.069
42499W        W15567  23.003  26.858   4.209
42500W        W15568  36.471  20.233  13.091
42501W        W15569  36.346  18.298  14.367
42502W        W15570   5.269  18.562  13.729
42503W        W15571  10.603  30.574   1.030
42504W        W15572  26.266  21.582  13.060
42505W        W15573   5.937  23.268  10.707
42506W        W15574   8.645  38.767   3.721
42507W        W15575  22.544  35.433   0.475
42508W        W15576  33.829  27.588  11.183
42509W        W15577  15.128  41.927  11.455
42510W        W15578  32.300  14.286   0.711
42511W        W15579  34.418  23.634   2.351
42512W        W15580  19.345  44.854   1.353
42513W        W15581   4.366  14.121  13.802
42514W        W15582  44.214  35.119  10.725
42515W        W15583   5.676   5.867   3.598
42516W        W15584  37.920  37.132   4.063
42517W        W15585  14.759  40.608  14.726
42518W        W15586   1.679  32.942   2.930
42519W        W15587  23.165  42.487   3.718
42520W        W15588   1.854  38.617  11.880
42521W        W15589   1.694  12.085  14.790
42522W        W15590  14.049  18.712  13.921
42523W        W15591  18.267  24.712   4.881
42524W        W15592  10.770  17.092   5.215
42525W        W15593  38.876  34.084   2.412
42526W        W15594  25.138  36.594  10.785
42527W        W15595  37.270  34.871   2.203
42528W        W15596  15.797  33.008  10.536
42529W        W15597  30.415  41.761  12.412
42530W        W15598  14.563   7.137   4.833
42531W        W15599  26.136  10.061  12.894
42532W        W15600   7.567   7.908  12.410
42533W        W15601   5.878   6.218   3.915
42534W        W15602  32.950  39.072  14.993
42535W        W15603  13.718  22.506  12.008
42536W        W15604  23.128  42.934  11.334
42537W        W15605  20.737  39.917  14.249
42538W        W15606  25.111  18.056  11.960
42539W        W15607  30.994  15.171  14.562
42540W        W15608   0.680  19.297  13.945
42541W        W15609  44.687  19.129   0.813
42542W        W15610  36.557  21.393   3.810
42543W        W15611   6.868  36.427   1.460
42544W        W15612  13.769  16.028   3.788
42545W        W15613   7.803  18.669  11.355
42546W        W15614  32.576  42.353   0.317
42547W        W15615  11.876  42.861   0.698
42548W        W15616   6.888  32.492   2.747
42549W        W15617  41.502  39.324  11.993
42550W        W15618  37.934  14.272  10.590
42551W        W15619   4.604  22.689   5.164
42552W        W15620   3.798  38.352   2.133
42553W        W15621  13.298  31.645  14.286
42554W        W15622  25.416  11.659  12.538
42555W        W15623  35.372   6.221   4.090
42556W        W15624  16.430  25.515   3.727
42557W        W15625  28.691  13.820   4.661
42558W        W15626  43.297  42.787   1.649
42559W        W15627   2.555  40.239   1.285
42560W        W15628  17.308  33.064  14.318
42561W        W15629  43.954   3.339  11.069
42562W        W15630  22.010  19.754   3.222
42563W        W15631  18.114  32.048   3.729
42564W        W15632  39.999  27.151   4.553
42565W        W15633  12.092  26.990  12.457
42566W        W15634   0.966   9.664  12.517
42567W        W15635  18.543  13.571   2.447
42568W        W15636  19.804  41.524  13.450
42569W        W15637  15.167  24.798  14.304
42570W        W15638  32.642   4.602   0.823
42571W        W15639  27.342  33.627  12.961
42572W        W15640   2.109  43.429  11.989
42573W        W15641  40.375  26.090   3.232
42574W        W15642  23.105  25.612   1.040
42575W        W15643  35.161  11.093   3.725
42576W        W15644  31.576  15.340  14.744
42577W        W15645  35.869  11.923  14.357
42578W        W15646  35.174  43.843   3.416
42579W        W15647   5.672  23.589   0.192
42580W        W15648  18.836   0.271   0.934
42581W        W15649   6.531  25.748  13.467
42582W        W15650  30.649  33.916   4.085
42583W        W15651  20.876  37.074   3.801
42584W        W15652  40.301  29.095  14.509
42585W        W15653  15.475  14.477  14.301
42586W        W15654  16.305  11.423  14.445
42587W        W15655  12.119  42.307  11.234
42588W        W15656  35.326   5.392   2.757
42589W        W15657  40.881  39.089   1.781
42590W        W15658   3.666  41.040  11.634
42591W        W15659  35.486  16.041  10.776
42592W        W15660  17.446  15.886   0.106
42593W        W15661  20.220  26.654  12.202
42594W        W15662  30.337  32.416   3.442
42595W        W15663  33.924  15.251   1.289
42596W        W15664  11.775   3.232  13.278
42597W        W15665  42.723  35.910   0.690
42598W        W15666  29.476  25.174  14.077
42599W        W15667   6.909  19.053  14.921
42600W        W15668  37.878  17.687   1.271
42601W        W15669   2.504  42.889   4.465
42602W        W15670  22.612  25.288   3.556
42603W        W15671   9.610  34.100   1.854
42604W        W15672  22.389  29.168  14.100
42605W        W15673  23.235  32.477  12.186
42606W        W15674  35.977  11.128  12.818
42607W        W15675  43.780   0.570   1.200
42608W        W15676  14.607  31.390  13.544
42609W        W15677  11.556  24.518   0.392
42610W        W15678  10.889  13.715  14.347
42611W        W15679   0.384  38.325   1.719
42612W        W15680  30.204   1.259  12.490
42613W        W15681  17.044  34.986  11.243
42614W        W15682   7.266  40.438   1.353
42615W        W15683   6.770  29.543  13.620
42616W        W15684   8.405  16.185  11.846
42617W        W15685   9.840  37.601   4.339
42618W        W15686  16.065   3.926   1.176
42619W        W15687  39.427   0.374   1.459
42620W        W15688  10.160  17.604  12.505
42621W        W15689  16.107  44.698  14.819
42622W        W15690  20.241  41.512  14.991
42623W        W15691  23.504  23.132   0.126
42624W        W15692  41.488  39.524   3.211
42625W        W15693   1.206  10.777   1.694
42626W        W15694  41.957   3.843   4.103
42627W        W15695   2.839   6.811   3.079
42628W        W15696   2.199  15.284   4.183
42629W        W15697  16.609  43.754  13.963
42630W        W15698   5.649  37.511   4.155
42631W        W15699  18.607  44.216  11.846
42632W        W15700  20.510   8.307  13.939
42633W        W15701  42.760  33.770  11.427
42634W        W15702   7.210  33.831  10.503
42635W        W15703  27.739  35.286  11.803
42636W        W15704  21.203   3.601   1.005
42637W        W15705  11.341  36.028   2.887
42638W        W15706  11.266  27.229   1.802
42639W        W15707  29.570  12.085   2.254
42640W        W15708   5.237   0.636  13.382
42641W        W15709  39.731  31.403   1.058
42642W        W15710  31.593  17.696  12.899
42643W        W15711  40.370  44.763   0.819
42644W        W15712  26.540  36.032  13.127
42645W        W15713  40.901   6.258   1.407
42646W        W15714  24.657  26.330  13.981
42647W        W15715   8.125  37.331  13.545
42648W        W15716   6.034  23.557   0.552
42649W        W15717  33.609  31.513  10.791
42650W        W15718  14.693  15.128   3.119
42651W        W15719  39.378  26.471   4.646
42652W        W15720  13.204  40.928  11.500
42653W        W15721  23.265  29.707  14.497
42654W        W15722  44.970  41.900   3.782
42655W        W15723  25.619  20.168  12.363
42656W        W15724  14.058   3.045   4.277
42657W        W15725   0.207  43.347  13.589
42658W        W15726  18.382  15.758   1.928
42659W        W15727  38.370  44.536  12.342
42660W        W15728   7.678  14.144  12.471
42661W        W15729  17.577  43.855   4.090
42662W        W15730  11.212  20.365  10.989
42663W        W15731   8.229  22.708   2.456
42664W        W15732  34.089  29.333  14.364
42665W        W15733  15.345  16.043   0.635
42666W        W15734  23.036  32.906  10.749
42667W        W15735  36.502  26.509   2.207
42668W        W15736  12.717   5.151  11.955
42669W        W15737  13.835  28.916  14.807
42670W        W15738  39.512  16.950  10.120
42671W        W15739  25.726  37.803   1.751
42672W        W15740   8.836   2.719   1.685
42673W        W15741  27.030  44.865   2.261
42674W        W15742  38.300  11.834   3.165
42675W        W15743  22.553  27.927   0.808
42676W        W15744  28.598   3.701   2.224
42677W        W15745  30.038  22.638   1.752
42678W        W15746  22.251  28.681   4.631
42679W        W15747  44.352   8.247  14.569
42680W        W15748  38.017   4.873  13.649
42681W        W15749  30.184   9.665   2.227
42682W        W15750  14.224   1.783   2.941
42683W        W15751   3.110  21.173   5.026
42684W        W15752  37.085   7.092   2.294
42685W        W15753   2.958   6.516   1.341
42686W        W15754  25.927  39.890   2.667
42687W        W15755  20.716  41.271  12.961
42688W        W15756  28.380  22.387  10.756
42689W        W15757  41.855  40.313  12.005
42690W        W15758  26.974  20.222   2.823
42691W        W15759   3.419  28.039  12.793
42692W        W15760  41.027  41.704  13.352
42693W        W15761  29.659   2.253  13.333
42694W        W15762  40.923  15.901  12.212
42695W        W15763  27.826  31.759   0.425
42696W        W15764  29.188  10.161  12.923
42697W        W15765   3.614   8.233   3.663
42698W        W15766  22.978  20.814  12.507
42699W        W15767  33.936  14.527  14.444
42700W        W15768  29.154  30.385  11.264
42701W        W15769  43.046  13.233   2.850
42702W        W15770  16.455  34.628  12.033
42703W        W15771  20.646   0.692  10.412
42704W        W15772  34.429  25.068   1.865
42705W        W15773  29.082  42.827  14.632
42706W        W15774  25.697  30.979  13.400
42707W        W15775  31.610  35.940   4.351
42708W        W15776  16.129   5.948  11.645
42709W        W15777  28.072   8.790  14.298
42710W        W15778  23.506   7.281  14.796
42711W        W15779  22.524  35.745   2.699
42712W        W15780  43.864  40.363  13.019
42713W        W15781   5.677  36.272   3.731
42714W        W15782  15.441  11.573   1.444
42715W        W15783  34.496  43.448  10.710
42716W        W15784  11.108  39.926  13.400
42717W        W15785  20.989   6.196   2.364
42718W        W15786  11.719  37.262   4.166
42719W        W15787  12.608   8.157  13.891
42720W        W15788   2.889  11.243  10.577
42721W        W15789   8.848  14.148   1.767
42722W        W15790   7.169  22.051   1.944
42723W        W15791  34.484  24.483  12.189
42724W        W15792  15.132  15.920   5.028
42725W        W15793  43.201   4.666   2.812
42726W        W15794  28.726  38.992  11.112
42727W        W15795  42.116  36.354  10.731
42728W        W15796  36.535  23.593   4.719
42729W        W15797  17.078  43.296   3.689
42730W        W15798   1.107  37.285  13.301
42731W        W15799  10.458  21.649  11.120
42732W        W15800  41.022  44.594   2.886
42733W        W15801  20.244  26.728   4.638
42734W        W15802  13.371  30.646   0.170
42735W        W15803  19.942   5.434   1.287
42736W        W15804  14.398  20.785  14.100
42737W        W15805  27.516  44.383   4.767
42738W        W15806  36.092  31.694  11.594
42739W        W15807  29.355  35.392  11.350
42740W        W15808  23.487  37.682  10.520
42741W        W15809  28.063   6.245   3.111
42742W        W15810  21.110  43.298   3.784
42743W        W15811   1.390   8.252   0.396
42744W        W15812  12.066  32.929   1.065
42745W        W15813   9.505  44.802  14.789
42746W        W15814  12.374  29.494   3.663
42747W        W15815  15.062   6.410  13.277
42748W        W15816  24.637   8.460   2.446
42749W        W15817   9.410  17.538   2.684
42750W        W15818  30.993  24.466  12.590
42751W        W15819  20.338   6.208   0.759
42752W        W15820  14.911  27.659   0.950
42753W        W15821  15.165  36.287   1.383
42754W        W15822   3.288   1.737  14.020
42755W        W15823  44.250  37.499   4.251
42756W        W15824  24.590  37.634   1.289
42757W        W15825  15.673  15.639   4.794
42758W        W15826  31.863  42.017  14.216
42759W        W15827  25.297   7.616  12.328
42760W        W15828  31.902   0.946  14.041
42761W        W15829  18.597   5.910   3.690
42762W        W15830  34.762  13.778   5.032
42763W        W15831   0.959  38.536   0.001
42764W        W15832  12.185   2.314   1.276
42765W        W15833   1.517  33.126   2.165
42766W        W15834  39.028  31.093   0.381
42767W        W15835  24.013  28.588   3.830
42768W        W15836  28.438  17.267   1.782
42769W        W15837   9.813  27.128  10.863
42770W        W15838  10.255   3.373  12.884
42771W        W15839  30.980   7.365   3.361
42772W        W15840  42.502   5.276  13.018
42773W        W15841  31.364  23.132   1.364
42774W        W15842  16.048  11.262  13.765
42775W        W15843  28.075  31.227  13.107
42776W        W15844  38.856  27.626   4.982
42777W        W15845  15.013  41.397   3.547
42778W        W15846  16.062   1.151  14.340
42779W        W15847  14.358  31.609   2.851
42780W        W15848  37.528  14.356  11.127
42781W        W15849  13.341  29.778  10.619
42782W        W15850  21.983  44.209   2.382
42783W        W15851  24.778   8.751  14.061
42784W        W15852  41.435   0.713   4.340
42785W        W15853  26.097  24.102  12.334
42786W        W15854  27.196  18.989  13.489
42787W        W15855  35.448  13.067  13.424
42788W        W15856   8.882  39.569   3.330
42789W        W15857  24.456  30.705  13.484
42790W        W15858  28.998  22.124  14.008
42791W        W15859  10.113  16.324   2.113
42792W        W15860   2.172   4.187  12.024
42793W        W15861  15.092   7.832   3.851
42794W        W15862  40.469   2.250   3.421
42795W        W15863   2.825   1.059   4.583
42796W        W15864  13.220  31.588   4.486
42797W        W15865  42.474   9.452  12.385
42798W        W15866  29.379   1.478   0.274
42799W        W15867  32.708   3.017  12.013
42800W        W15868  38.835   8.583   2.378
42801W        W15869   5.635   7.349   4.487
42802W        W15870  13.661   6.404   3.062
42803W        W15871  31.138  35.518  13.806
42804W        W15872  41.361  44.878  13.575
42805W        W15873  40.628  41.622  11.473
42806W        W15874  39.431  21.668  12.449
42807W        W15875  23.610  28.528  12.956
42808W        W15876  27.136  40.442  10.760
42809W        W15877  14.387   5.368   2.667
42810W        W15878  13.143  31.582   0.835
42811W        W15879  28.188   5.474  13.842
42812W        W15880  24.127  44.850   0.030
42813W        W15881  39.472  34.616   0.040
42814W        W15882  24.577  10.855   3.801
42815W        W15883  41.793  41.773   2.246
42816W        W15884  35.056  26.712   1.866
42817W        W15885  27.146   9.283   3.770
42818W        W15886  12.208  22.190   4.549
42819W        W15887  40.413  38.123   3.814
42820W        W15888  29.035  15.829  11.147
42821W        W15889   4.948  33.964   2.898
42822W        W15890  32.406  13.764  14.526
42823W        W15891  27.438  22.185   2.391
42824W        W15892   7.682   9.865   0.430
42825W        W15893  37.635  12.018   2.370
42826W        W15894  33.749   4.354   4.220
42827W        W15895  40.955  21.795   3.956
42828W        W15896  28.490  13.190  14.760
42829W        W15897  19.706  22.713   4.739
42830W        W15898  13.824   4.391  14.489
42831W        W15899   1.422   9.820  14.951
42832W        W15900   7.336  15.616  10.650
42833W        W15901  25.963  20.162   1.144
42834W        W15902  26.002  25.370   4.288
42835W        W15903  28.585   2.068  11.576
42836W        W15904   9.844   4.702  11.929
42837W        W15905  33.215  18.785   3.265
42838W        W15906   1.856  12.890  11.126
42839W        W15907  24.987   4.470   1.720
42840W        W15908  16.017  21.052   2.182
42841W        W15909  15.569   2.812  13.302
42842W        W15910  39.068   3.365   3.259
42843W        W15911  39.058  31.733   1.010
42844W        W15912   4.241   4.304  13.966
42845W        W15913  17.866  43.710   1.732
42846W        W15914  41.749  33.507   3.853
42847W        W15915  40.265  12.756  12.453
42848W        W15916  21.345  37.079  12.532
42849W        W15917  23.285  38.866  11.185
42850W        W15918  32.552  12.117   2.397
42851W        W15919   1.666   9.690  10.574
42852W        W15920  43.359   7.957   1.713
42853W        W15921  39.423   2.822   2.481
42854W        W15922   8.608  11.364   0.249
42855W        W15923  18.758   7.471   4.503
42856W        W15924  41.549   3.900   2.737
42857W        W15925  30.685  42.609  12.476
42858W        W15926  29.990  40.430  13.544
42859W        W15927   1.961   0.305  10.465
42860W        W15928  16.937  21.718  11.094
42861W        W15929  30.801   5.834  12.072
42862W        W15930  43.516  20.709  11.974
42863W        W15931  40.789  30.004  14.315
42864W        W15932  25.683   2.186  13.523
42865W        W15933   4.130  17.609   2.915
42866W        W15934  34.072  41.406  11.766
42867W        W15935   2.333  13.275  12.811
42868W        W15936   7.567   1.986   4.190
42869W        W15937  35.063   7.869   0.830
42870W        W15938  30.187  26.058  10.893
42871W        W15939   3.045  26.410   2.371
42872W        W15940  40.277  25.673   4.683
42873W        W15941  26.636  15.126  13.109
42874W        W15942  27.926  16.077  10.966
42875W        W15943  28.047  40.512  11.000
42876W        W15944  11.327   2.428  14.677
42877W        W15945  39.469  25.670  12.314
42878W        W15946  44.875  10.242  12.118
42879W        W15947  41.357  15.177  12.041
42880W        W15948   4.137   0.655  13.797
42881W        W15949   0.194  31.426  11.092
42882W        W15950  42.961   5.792   1.837
42883W        W15951  34.143  28.946   2.106
42884W        W15952  24.134   8.288  14.734
42885W        W15953  32.085  18.085   0.458
42886W        W15954  17.567  25.925   2.692
42887W        W15955  41.887   6.337   1.427
42888W        W15956  24.496  20.254  14.026
42889W        W15957  41.969   4.261   1.207
42890W        W15958  22.664   2.462  11.986
42891W        W15959  39.355  40.671  12.394
42892W        W15960   1.523  25.503   2.324
42893W        W15961   0.884  15.288   0.313
42894W        W15962   7.242   0.542   0.904
42895W        W15963  16.614  37.111   3.705
42896W        W15964  30.630   9.553  12.837
42897W        W15965  42.278  28.460   1.815
42898W        W15966  15.912   4.892  13.816
42899W        W15967  31.005  41.858  12.233
42900W        W15968  39.416  24.338   2.758
42901W        W15969  39.819  19.050   2.780
42902W        W15970   4.165  39.123   2.370
42903W        W15971  21.201   2.186   3.602
42904W        W15972   4.342  36.917  14.415
42905W        W15973  24.477  33.051  13.986
42906W        W15974  13.227   6.936  11.910
42907W        W15975  15.235  33.812  12.649
42908W        W15976  44.766   9.619  12.918
42909W        W15977  22.582  43.349   4.796
42910W        W15978  16.153  21.971  11.636
42911W        W15979  24.558  11.847   3.638
42912W        W15980  37.575  21.163  14.197
42913W        W15981  37.455  19.267  13.357
42914W        W15982  35.525  10.793   1.093
42915W        W15983  41.204  19.523  13.783
42916W        W15984  31.053  17.795  13.092
42917W        W15985  28.690   9.146   2.414
42918W        W15986  29.363   3.354  10.791
42919W        W15987  40.960  21.833   0.725
42920W        W15988  33.562  44.952  14.141
42921W        W15989  25.245  19.982  13.616
42922W        W15990  27.784   8.298  10.727
42923W        W15991   6.307  38.407  14.219
42924W        W15992  29.949  22.406   0.779
42925W        W15993  28.062   9.340   4.416
42926W        W15994  27.199  44.092  10.776
42927W        W15995  19.178  26.745  11.184
42928W        W15996  42.257   5.388   1.634
42929W        W15997  44.946  42.384   3.143
42930W        W15998  42.712  38.659  12.002
42931W        W15999  28.670   1.350   1.858
42932W        W16000  17.975  42.736   1.835
42933W        W16001  17.730  39.807   2.749
42934W        W16002  33.392  27.069   2.922
42935W        W16003   6.246  39.797  12.364
42936W        W16004  38.026  27.656  11.517
42937W        W16005   5.394  44.645   0.530
42938W        W16006   5.564  14.441   0.151
42939W        W16007  35.109  41.933  11.062
42940W        W16008  36.156   6.763  11.518
42941W        W16009  31.841  42.390  11.899
42942W        W16010  25.237  23.697  14.939
42943W        W16011  35.172   2.835  14.303
42944W        W16012   2.990  35.947  13.055
42945W        W16013  37.458  10.628  10.555
42946W        W16014  13.025  41.393   3.589
42947W        W16015  28.618  33.759   3.225
42948W        W16016  34.103   9.186   3.839
42949W        W16017   4.937  26.372  12.032
42950W        W16018  30.426  13.183   1.544
42951W        W16019   9.420   9.212   2.360
42952W        W16020  14.603  24.041   0.600
42953W        W16021   5.842  35.369   3.213
42954W        W16022   6.516  24.983   2.166
42955W        W16023  43.224  13.155  14.770
42956W        W16024  15.190  22.314   3.292
42957W        W16025  39.387  17.766   0.015
42958W        W16026  40.416  23.462   1.233
42959W        W16027   3.889  25.024  13.791
42960W        W16028  14.934  41.793   1.344
42961W        W16029  39.356  16.545   0.864
42962W        W16030  13.687   1.631  13.357
42963W        W16031  15.516  38.276  11.470
42964W        W16032  15.551   1.848  11.623
42965W        W16033   6.908  35.489   1.506
42966W        W16034  31.464  28.189   1.072
42967W        W16035  22.606  26.838   3.065
42968W        W16036  40.361  36.500  11.191
42969W        W16037   9.704  42.441   3.423
42970W        W16038  34.005  28.588   0.489
42971W        W16039  36.086  13.308  14.365
42972W        W16040  32.532  32.167  12.422
42973W        W16041  43.194  12.239  14.658
42974W        W16042  28.921  13.850  12.358
42975W        W16043  43.570  36.524  10.763
42976W        W16044  37.316  40.923  13.912
42977W        W16045   4.239  11.109  12.015
42978W        W16046  32.936  30.456   3.268
42979W        W16047  32.076  33.135   2.877
42980W        W16048  35.977  17.169   1.414
42981W        W16049   0.309  41.967   2.469
42982W        W16050  26.137   5.711   2.402
42983W        W16051  12.434   4.833   5.068
42984W        W16052   3.862   2.934   2.924
42985W        W16053  38.824   3.629  14.507
42986W        W16054  21.453  39.017  11.200
42987W        W16055  11.710  17.604  11.143
42988W        W16056  40.586  38.540   1.328
42989W        W16057  35.116  40.848   0.801
42990W        W16058  12.237  29.204   1.709
42991W        W16059   6.199  12.819   3.665
42992W        W16060  15.760  35.437   3.158
42993W        W16061  22.119  24.178  12.604
42994W        W16062  13.350  11.603  14.909
42995W        W16063  31.705   0.713   2.373
42996W        W16064  23.163  15.796   1.211
42997W        W16065   0.538  12.414  12.011
42998W        W16066   7.213  30.606  14.383
42999W        W16067  42.276  43.006   3.590
43000W        W16068  21.248  13.988  13.091
43001W        W16069  12.508  20.250  10.847
43002W        W16070   9.307  11.993  11.981
43003W        W16071  38.534  22.303   0.325
43004W        W16072  26.566  37.978   4.207
43005W        W16073  30.537   6.434   0.327
43006W        W16074   7.408   0.934  13.160
43007W        W16075  42.348  37.032   1.796
43008W        W16076   3.963  41.432  11.470
43009W        W16077  17.761  19.635  12.003
43010W        W16078  11.879   4.283  10.536
43011W        W16079  14.264  30.679   1.859
43012W        W16080  24.565  24.940   1.040
43013W        W16081  28.152  24.607   1.848
43014W        W16082  43.749   4.857  10.962
43015W        W16083  42.968  17.927  13.129
43016W        W16084  36.057  40.452   4.279
43017W        W16085  43.243  26.732   0.255
43018W        W16086  29.570  22.253   3.064
43019W        W16087  41.763   5.217   2.184
43020W        W16088  30.918  19.882   1.861
43021W        W16089   1.249  33.526  11.223
43022W        W16090  16.079   2.891  12.569
43023W        W16091   6.863  43.274   1.197
43024W        W16092   8.404  42.202   4.642
43025W        W16093  28.579  32.603   1.154
43026W        W16094  44.321  32.607   2.726
43027W        W16095   3.782  44.159   2.412
43028W        W16096   8.259  39.260   4.124
43029W        W16097   7.867   1.943  13.318
43030W        W16098  31.646  10.450   2.111
43031W        W16099   2.323   1.725   1.005
43032W        W16100  22.720  19.121  14.449
43033W        W16101   3.874  12.890   2.703
43034W        W16102  17.385   8.067   0.730
43035W        W16103  33.908  35.625   4.703
43036W        W16104  42.968  16.310   2.799
43037W        W16105  36.634   2.862   1.923
43038W        W16106  31.200  38.001   1.812
43039W        W16107  43.021  39.550   3.098
43040W        W16108  23.697  35.077   3.863
43041W        W16109  23.712   3.987   0.306
43042W        W16110  18.795  18.031   0.023
43043W        W16111  16.365  44.415  10.589
43044W        W16112  34.204   4.429  11.061
43045W        W16113  10.121  15.011   1.698
43046W        W16114  18.814  44.946   1.350
43047W        W16115  35.307  22.525  13.255
43048W        W16116  23.499  17.292   2.144
43049W        W16117  34.370   9.744   3.691
43050W        W16118  16.931   3.757  11.440
43051W        W16119   1.072  21.700   1.339
43052W        W16120  34.904  37.035  11.738
43053W        W16121   5.451  33.931  13.618
43054W        W16122  24.314  36.002  12.089
43055W        W16123  36.356   5.838   0.329
43056W        W16124  37.529  40.977  12.524
43057W        W16125   2.212  19.194  12.149
43058W        W16126   1.848  24.670   1.785
43059W        W16127   9.720   8.902  14.282
43060W        W16128  22.807  19.573  10.186
43061W        W16129  31.142  37.853  13.550
43062W        W16130  21.942  20.054   0.204
43063W        W16131  27.157  39.125   0.432
43064W        W16132   9.629   1.898  11.655
43065W        W16133   4.980  11.547  10.444
43066W        W16134   8.655  39.806  12.914
43067W        W16135   7.093   8.427   3.863
43068W        W16136  36.067  29.648  10.660
43069W        W16137  28.041  25.611  12.886
43070W        W16138  29.864  44.740   4.663
43071W        W16139  35.014  17.506   2.758
43072W        W16140  11.092   4.897   1.238
43073W        W16141  35.677  12.487   3.221
43074W        W16142  21.119  19.547  12.521
43075W        W16143  18.055  13.824  11.918
43076W        W16144  20.151  37.338   4.187
43077W        W16145   1.322   7.124  12.830
43078W        W16146  26.291   1.304  13.802
43079W        W16147  30.297  37.961   1.351
43080W        W16148  36.432  22.938  14.983
43081W        W16149  25.493   1.732  12.611
43082W        W16150  25.071   0.747   2.336
43083W        W16151  26.378  38.029   1.441
43084W        W16152  41.370   8.632   3.240
43085W        W16153  32.954  35.911  14.290
43086W        W16154  26.981   2.348  10.565
43087W        W16155  39.542  43.738  13.421
43088W        W16156  36.412   3.299  11.555
43089W        W16157  28.881   6.006   0.313
43090W        W16158  16.742  27.605   2.856
43091W        W16159   7.678  32.407  13.348
43092W        W16160  25.791  20.830  14.552
43093W        W16161   9.933  33.988  11.169
43094W        W16162   2.691  20.183  11.044
43095W        W16163  17.679   4.028  14.155
43096W        W16164  23.694  27.522   4.080
43097W        W16165   1.388   4.800  11.998
43098W        W16166  41.439   1.185   2.716
43099W        W16167  13.770  44.932   1.763
43100W        W16168  24.640  37.790   0.354
43101W        W16169   2.250   3.359   1.764
43102W        W16170  10.175   2.750   1.320
43103W        W16171   8.209  13.237   3.707
43104W        W16172   6.617  40.012  12.088
43105W        W16173  42.824  22.326  10.251
43106W        W16174  36.288  25.183   1.503
43107W        W16175   7.982  26.972  14.157
43108W        W16176  37.110   1.919   0.042
43109W        W16177  23.052  42.182  14.893
43110W        W16178  15.253  15.813   1.772
43111W        W16179  24.089  16.969  12.287
43112W        W16180  40.853  39.633  13.346
43113W        W16181  33.902  21.557  10.371
43114W        W16182  39.757  22.282   3.640
43115W        W16183  19.424   2.463  13.582
43116W        W16184  23.948   1.509  10.059
43117W        W16185  24.835  33.209   1.866
43118W        W16186  17.194  10.975  13.367
43119W        W16187  25.671  30.872  11.212
43120W        W16188  10.056  19.704   2.299
43121W        W16189  44.819  38.544   4.638
43122W        W16190  43.399  33.740   1.583
43123W        W16191   0.451  25.459  12.820
43124W        W16192  37.058   8.749  11.079
43125W        W16193  27.055   3.412   3.403
43126W        W16194   7.044  31.717   9.840
43127W        W16195  13.659   7.465   4.532
43128W        W16196  42.624  17.857   2.776
43129W        W16197   5.852  29.846  14.362
43130W        W16198  39.863   2.067   4.701
43131W        W16199  36.918  10.445  13.458
43132W        W16200  19.954   6.735  12.684
43133W        W16201  23.469  16.988  13.435
43134W        W16202   2.848   1.192   4.078
43135W        W16203   3.235   0.387  13.577
43136W        W16204  29.488  35.186  14.818
43137W        W16205   7.914  24.972   0.840
43138W        W16206  28.999  42.756   2.947
43139W        W16207  38.546  42.375   3.687
43140W        W16208  24.004   7.977   3.404
43141W        W16209  21.444  41.867   0.455
43142W        W16210  13.747   8.304  12.890
43143W        W16211  21.807  23.922   0.467
43144W        W16212   9.527  37.432  13.447
43145W        W16213  24.232  14.611   1.402
43146W        W16214  17.067  42.347   4.560
43147W        W16215  35.088  18.240  10.789
43148W        W16216  16.062   0.315  11.196
43149W        W16217  29.861  37.338   0.356
43150W        W16218   2.070  13.237  10.722
43151W        W16219  21.264  12.149  14.441
43152W        W16220  31.614  16.355   0.383
43153W        W16221   4.120  32.607   0.003
43154W        W16222  16.193   1.044  12.214
43155W        W16223  36.787  29.390   0.187
43156W        W16224   0.135  42.247   2.080
43157W        W16225   2.952  19.177  11.005
43158W        W16226  30.412  30.033   2.251
43159W        W16227  18.739  22.142   0.796
43160W        W16228  28.695   8.597  14.892
43161W        W16229  23.259  38.317   3.616
43162W        W16230   3.022   6.243   4.242
43163W        W16231   5.509  23.216   1.372
43164W        W16232  12.812  38.607  14.352
43165W        W16233  30.192  36.377  12.584
43166W        W16234  32.470  28.583  14.816
43167W        W16235  18.728  11.313   2.955
43168W        W16236   2.398  43.995   0.560
43169W        W16237  42.733  44.911  14.014
43170W        W16238   4.474  37.326   1.791
43171W        W16239  37.061   5.966  13.975
43172W        W16240  28.711  19.509   3.559
43173W        W16241   0.208   2.390  14.730
43174W        W16242  14.406  12.365   1.479
43175W        W16243   3.298  27.204   0.736
43176W        W16244  38.246   7.137  13.128
43177W        W16245  27.256  39.316  13.377
43178W        W16246  26.619  33.379   2.739
43179W        W16247  26.120  11.734  11.887
43180W        W16248  31.628  13.948   2.883
43181W        W16249  31.055  21.005  12.049
43182W        W16250   8.849  27.639  14.262
43183W        W16251  31.357  36.890  14.792
43184W        W16252  10.242   9.015   4.490
43185W        W16253   9.563   2.261  13.903
43186W        W16254  39.967  14.691   2.322
43187W        W16255  35.999  28.274  13.314
43188W        W16256  28.889  13.303  11.582
43189W        W16257   3.618  26.580  11.778
43190W        W16258  34.604  37.261   5.063
43191W        W16259  26.714  37.871  14.328
43192W        W16260  17.353   3.164   0.060
43193W        W16261  43.175  37.248  11.149
43194W        W16262   2.831   0.715  13.418
43195W        W16263   3.311  10.264  10.990
43196W        W16264  42.536   9.379   0.882
43197W        W16265  22.472  35.808  14.229
43198W        W16266  33.369  32.121   4.499
43199W        W16267  22.545   4.379  11.818
43200W        W16268  39.897  29.699  11.171
43201W        W16269   4.821  11.871  14.916
43202W        W16270  32.634  32.492   1.280
43203W        W16271  20.569  36.896  13.007
43204W        W16272  33.902  18.118   2.655
43205W        W16273  22.529  25.555  11.126
43206W        W16274  32.938  42.282  12.929
43207W        W16275  18.524  29.676  12.070
43208W        W16276   4.206  15.698  14.299
43209W        W16277  40.413  26.456  10.198
43210W        W16278  28.474  13.375   3.591
43211W        W16279   9.795  13.728  12.190
43212W        W16280  34.367   3.963  11.259
43213W        W16281   6.646  30.025  11.570
43214W        W16282  32.072   1.568   0.368
43215W        W16283  13.854  33.494   2.064
43216W        W16284   0.546  43.553  13.915
43217W        W16285  22.360  15.046  12.684
43218W        W16286  27.043   4.762  11.511
43219W        W16287   1.223   7.652   2.353
43220W        W16288  24.622  16.118   1.187
43221W        W16289   6.428   0.304   1.492
43222W        W16290  12.552  21.445  12.557
43223W        W16291  37.567  16.006   1.904
43224W        W16292   7.259  21.388  10.334
43225W        W16293   3.403  44.295  11.467
43226W        W16294  39.592   7.295   4.917
43227W        W16295  34.459  40.975  13.841
43228W        W16296  26.993  10.157  12.728
43229W        W16297  31.102  39.619  11.115
43230W        W16298  35.021  25.726   2.901
43231W        W16299  31.286  25.657   4.913
43232W        W16300   2.652  30.262  14.014
43233W        W16301  35.083  27.005  11.425
43234W        W16302  25.646  17.391   2.927
43235W        W16303  12.861  43.935   1.939
43236W        W16304   0.903   6.202   4.259
43237W        W16305  31.930  42.629  10.952
43238W        W16306  38.197  20.058  12.053
43239W        W16307   1.893  15.342  10.618
43240W        W16308  33.640  12.540  10.858
43241W        W16309  36.134  31.421  12.063
43242W        W16310   0.558   1.800   1.824
43243W        W16311  44.736  21.793   1.794
43244W        W16312  29.990   7.519  12.133
43245W        W16313   3.695  33.872  11.082
43246W        W16314   7.239   1.325  11.282
43247W        W16315  15.881  32.107  10.889
43248W        W16316  10.121   1.639  11.632
43249W        W16317   7.858  19.805   3.800
43250W        W16318  25.182  32.447  13.186
43251W        W16319  23.538  20.084   0.716
43252W        W16320  25.198  31.906  10.683
43253W        W16321  42.237   8.173   2.181
43254W        W16322   3.121  42.922  10.403
43255W        W16323  23.760  10.175   0.537
43256W        W16324  44.443  36.108   4.450
43257W        W16325  15.413   3.907  10.772
43258W        W16326  41.193  26.948   3.796
43259W        W16327  21.073  20.711  13.900
43260W        W16328  24.544   0.643   3.298
43261W        W16329  17.191   6.870  12.428
43262W        W16330   7.248  26.934   2.328
43263W        W16331  32.100  13.089   0.773
43264W        W16332   4.988  12.189   3.972
43265W        W16333  30.456  22.961   3.677
43266W        W16334  23.467  37.560  11.420
43267W        W16335  30.658   7.832  11.999
43268W        W16336  21.625  38.579   4.523
43269W        W16337  32.429   0.549   4.196
43270W        W16338   9.275  15.095   2.460
43271W        W16339  19.738  35.187   2.414
43272W        W16340  15.011   6.697   3.631
43273W        W16341  20.177  35.063   3.745
43274W        W16342   8.664  30.717   0.938
43275W        W16343  18.209  33.964  14.042
43276W        W16344   9.837  16.570  13.898
43277W        W16345  28.383  44.559  14.907
43278W        W16346   1.620  17.686  11.491
43279W        W16347   9.339  44.152   1.325
43280W        W16348  19.725  44.698  11.640
43281W        W16349   3.355  42.920   2.819
43282W        W16350   8.167  28.412   2.575
43283W        W16351  22.638   7.359  10.867
43284W        W16352  31.426  10.318  12.632
43285W        W16353   8.405   6.649   4.609
43286W        W16354  10.352  36.803   1.946
43287W        W16355  15.807  29.352  13.741
43288W        W16356  44.496  18.248  11.228
43289W        W16357  36.517  24.749   0.027
43290W        W16358  15.748  12.291  11.898
43291W        W16359  44.021  42.463   3.197
43292W        W16360  42.639  22.679   2.794
43293W        W16361   3.403  16.571  11.985
43294W        W16362  41.549  28.757  11.271
43295W        W16363  11.402  39.522  13.593
43296W        W16364   3.725  41.929   2.794
43297W        W16365  31.431  44.730   3.609
43298W        W16366  14.678   0.912   1.939
43299W        W16367  25.174   5.865  12.419
43300W        W16368  12.328  42.765  14.065
43301W        W16369  20.257  36.856  14.357
43302W        W16370  25.593  18.821  11.985
43303W        W16371  11.363   8.836  11.590
43304W        W16372  11.790  44.297   0.703
43305W        W16373  14.569   6.923  14.830
43306W        W16374   1.285   4.257   4.437
43307W        W16375   6.180  16.802   0.758
43308W        W16376  15.567  30.208   2.578
43309W        W16377  10.223  39.104  14.851
43310W        W16378  24.581  34.072   3.633
43311W        W16379  18.154  43.610  10.658
43312W        W16380  29.624  13.529  11.984
43313W        W16381  43.948  42.345   4.172
43314W        W16382  27.485  41.846   1.949
43315W        W16383  11.395  39.007   2.078
43316W        W16384   1.829  15.389   0.874
43317W        W16385  16.958  13.639  13.589
43318W        W16386  26.534  23.209  13.194
43319W        W16387  35.353  34.899  14.419
43320W        W16388  21.455  16.411   4.532
43321W        W16389  21.008  39.931  12.825
43322W        W16390   6.346  15.166  14.405
43323W        W16391  10.586   9.665   0.727
43324W        W16392  43.066  34.924  11.164
43325W        W16393  11.401   3.251   4.703
43326W        W16394  25.597  44.318   2.170
43327W        W16395  14.252  35.429   2.491
43328W        W16396  22.983   0.743   0.056
43329W        W16397  17.600  31.076   2.880
43330W        W16398  19.323  19.137  10.737
43331W        W16399  19.207   7.686  12.822
43332W        W16400   4.768   3.099   9.762
43333W        W16401  22.426  26.443  11.108
43334W        W16402  35.620  16.313  11.747
43335W        W16403  13.890  28.409  14.858
43336W        W16404  25.025  13.216   0.700
43337W        W16405  12.204  30.812   3.799
43338W        W16406  35.052   4.973  10.931
43339W        W16407  12.449  42.507   4.101
43340W        W16408   1.688  36.564   3.293
43341W        W16409  31.098  27.473  11.518
43342W        W16410  38.946  18.344   4.840
43343W        W16411  28.014   0.762  12.727
43344W        W16412  36.672  42.987   1.476
43345W        W16413  30.897  17.650  14.612
43346W        W16414  10.741  13.314  13.804
43347W        W16415  21.572  15.883  10.236
43348W        W16416  27.295   5.202  11.635
43349W        W16417  40.391   3.331  11.538
43350W        W16418   2.821  21.865  11.070
43351W        W16419  12.113  23.519  13.193
43352W        W16420  36.997  21.992  14.359
43353W        W16421   2.508  15.071  11.943
43354W        W16422  34.932  36.388   3.547
43355W        W16423  20.356   8.909   0.337
43356W        W16424  35.633  13.348  10.625
43357W        W16425  24.830  39.900   5.024
43358W        W16426  18.645  44.265   2.399
43359W        W16427   0.219  36.887   4.573
43360W        W16428  13.192  26.509  12.703
43361W        W16429  42.006  11.775  14.991
43362W        W16430  32.242  27.985  13.008
43363W        W16431  34.610  36.763  14.443
43364W        W16432  42.345   6.059  10.515
43365W        W16433  34.061  33.015   5.264
43366W        W16434  32.593  22.610   2.766
43367W        W16435   5.457  43.374  11.978
43368W        W16436  37.347  17.269  12.433
43369W        W16437  16.855  40.887  14.014
43370W        W16438  13.455  29.529   1.202
43371W        W16439  21.284  26.402   4.944
43372W        W16440  34.535  26.028  12.542
43373W        W16441  41.841  31.626   3.639
43374W        W16442  11.287  34.676  12.061
43375W        W16443   0.048  15.192  12.580
43376W        W16444  21.986  22.175   3.162
43377W        W16445  10.225   4.251   0.740
43378W        W16446  15.795  29.542  11.563
43379W        W16447   2.278  31.701  12.986
43380W        W16448  34.334  15.216  14.048
43381W        W16449  28.097  34.306   1.247
43382W        W16450  16.133   6.265   0.866
43383W        W16451   0.299  15.648   2.597
43384W        W16452  10.608  30.581  13.267
43385W        W16453  17.451  22.158   4.174
43386W        W16454  44.172   5.642   2.286
43387W        W16455   0.228   3.140  11.518
43388W        W16456   8.794  34.391   2.869
43389W        W16457  11.640  37.528  12.047
43390W        W16458  17.539  43.751   2.153
43391W        W16459  22.864  42.172   3.387
43392W        W16460  26.321  32.345   1.414
43393W        W16461  25.316  30.045   2.175
43394W        W16462  26.005  41.489   2.093
43395W        W16463   0.259  16.747   0.897
43396W        W16464  29.490  18.803   2.260
43397W        W16465   9.888  44.777  10.453
43398W        W16466   8.927   7.390  14.822
43399W        W16467  19.462  40.978  13.435
43400W        W16468  36.918  38.114   1.937
43401W        W16469  24.716  40.710  12.494
43402W        W16470  14.343  24.079  11.878
43403W        W16471  17.139  29.300   0.961
43404W        W16472  31.140   5.997  13.558
43405W        W16473  37.140   0.145  10.380
43406W        W16474  11.560  39.083  10.132
43407W        W16475   8.202   6.534   0.879
43408W        W16476  29.549  39.482  11.419
43409W        W16477  44.311  13.687   2.643
43410W        W16478  23.536  24.724  12.385
43411W        W16479  24.075  27.391  12.559
43412W        W16480  34.081   6.811   1.499
43413W        W16481  17.132  40.474  13.615
43414W        W16482  27.373   9.289   2.757
43415W        W16483  33.886  19.486  11.417
43416W        W16484  15.593  30.711  14.978
43417W        W16485  12.628   1.044   2.924
43418W        W16486  23.176  14.674   2.433
43419W        W16487   9.847  25.801   2.831
43420W        W16488  25.449  16.499   3.249
43421W        W16489  11.556  10.689  12.531
43422W        W16490  39.701   3.311  12.034
43423W        W16491  15.106  42.093  13.520
43424W        W16492  40.437  27.765  10.622
43425W        W16493   3.954  22.140   3.606
43426W        W16494  36.081  43.527   4.095
43427W        W16495  13.205  36.969   3.784
43428W        W16496  24.806  10.514   2.272
43429W        W16497  34.675  28.610  11.285
43430W        W16498  10.937  21.118   1.247
43431W        W16499   9.879  15.703   1.259
43432W        W16500   6.298  10.195  10.446
43433W        W16501   2.527   8.271  14.415
43434W        W16502  19.213  33.460   1.247
43435W        W16503   2.232  34.128   4.070
43436W        W16504  19.856  17.492   0.962
43437W        W16505  16.772  41.446  10.505
43438W        W16506  44.998  39.633   2.215
43439W        W16507   2.370  30.398   2.320
43440W        W16508  21.794  18.721   4.973
43441W        W16509  43.913  28.632  10.878
43442W        W16510  31.996  21.480   4.118
43443W        W16511  25.984  40.791   3.693
43444W        W16512  44.339  11.551  14.843
43445W        W16513   5.410  30.648   2.395
43446W        W16514  32.898  21.970   4.121
43447W        W16515  23.592  13.309   4.220
43448W        W16516   5.742  17.026   0.653
43449W        W16517  19.225  24.642  14.399
43450W        W16518  34.277  11.099  12.615
43451W        W16519  32.853  18.572   4.209
43452W        W16520  35.049  15.556   0.859
43453W        W16521  14.654  21.903   4.023
43454W        W16522  13.766   3.240   0.823
43455W        W16523   8.606  18.644   1.236
43456W        W16524  27.784  13.165  13.918
43457W        W16525  30.343  40.815   4.700
43458W        W16526   9.438  41.562  12.481
43459W        W16527  27.357  22.392   4.035
43460W        W16528  32.178  11.378  14.794
43461W        W16529   3.305  23.710   3.122
43462W        W16530  38.314  43.884  11.204
43463W        W16531  16.838  21.917  10.601
43464W        W16532   8.224   7.838  14.257
43465W        W16533  42.298  23.474   4.763
43466W        W16534  37.833  14.945  11.594
43467W        W16535  34.656  35.985  14.467
43468W        W16536   3.235   1.345   4.433
43469W        W16537  17.158  44.777   1.384
43470W        W16538  40.398  16.653  10.487
43471W        W16539  39.418  23.245   3.784
43472W        W16540  13.019   0.450   4.139
43473W        W16541  26.262  16.350  11.622
43474W        W16542  38.929  11.383  14.983
43475W        W16543  26.728  23.028  11.239
43476W        W16544  23.342  32.872  11.659
43477W        W16545  37.936  29.534   4.782
43478W        W16546  27.534  28.602  13.598
43479W        W16547  42.529  13.207  13.472
43480W        W16548  10.401  28.138  13.588
43481W        W16549  24.762  43.739  11.174
43482W        W16550  21.040  33.548   2.689
43483W        W16551  21.020  30.397   4.637
43484W        W16552  42.348  35.907   0.317
43485W        W16553  30.244   1.192  14.031
43486W        W16554   2.426  30.431   9.871
43487W        W16555  18.040  10.892   1.468
43488W        W16556  35.868  12.802  13.533
43489W        W16557  33.231  14.251   4.417
43490W        W16558  35.326  29.217  13.647
43491W        W16559  15.339   7.143  11.113
43492W        W16560  16.576  41.897  10.693
43493W        W16561  18.745   6.789   3.232
43494W        W16562   3.422   9.866  12.353
43495W        W16563  28.062  40.586  10.479
43496W        W16564  34.896  11.184   4.590
43497W        W16565  14.350  35.077  11.309
43498W        W16566   7.451  16.306  11.499
43499W        W16567  41.974  20.633   3.187
43500W        W16568  41.442  37.650  11.139
43501W        W16569  26.033  28.607   2.720
43502W        W16570  24.173  40.051  11.487
43503W        W16571  21.578  22.522  14.075
43504W        W16572  28.716  23.013  12.685
43505W        W16573  14.760   3.876  11.957
43506W        W16574  41.236   7.428  12.389
43507W        W16575  27.859  35.195   4.985
43508W        W16576  32.658  42.354   1.881
43509W        W16577  21.224  20.773   1.381
43510W        W16578  37.077  27.987   4.659
43511W        W16579  32.593  22.673   0.306
43512W        W16580  17.770  15.198   4.692
43513W        W16581  28.134  27.910  12.618
43514W        W16582  22.636   9.349  14.549
43515W        W16583  36.695  19.934   1.786
43516W        W16584  32.087  28.044  14.709
43517W        W16585  17.194  21.205   0.888
43518W        W16586  17.822   2.380  11.612
43519W        W16587  33.922  39.074   4.167
43520W        W16588  36.033  15.167  13.012
43521W        W16589  39.918  44.378  11.953
43522W        W16590  38.428   7.792  11.299
43523W        W16591  44.785  36.104   2.349
43524W        W16592  29.762   1.965   4.439
43525W        W16593  34.162  26.639  13.050
43526W        W16594   7.353  38.134  10.756
43527W        W16595  17.865  32.838   0.463
43528W        W16596  43.335  20.585   1.661
43529W        W16597  25.007  42.541   3.802
43530W        W16598  32.266  14.367  10.411
43531W        W16599  29.122  16.697  14.590
43532W        W16600  32.110  29.690   4.771
43533W        W16601  44.765   9.527  10.732
43534W        W16602  36.096  21.112   2.884
43535W        W16603  24.925  12.463   4.655
43536W        W16604  37.527  24.052   1.369
43537W        W16605  35.899  21.342  13.636
43538W        W16606  24.748  32.630   0.925
43539W        W16607  13.264  30.740  12.334
43540W        W16608  26.918  38.527   1.339
43541W        W16609  13.356  36.164   2.754
43542W        W16610  34.376  10.665   0.817
43543W        W16611   7.724  27.013   0.502
43544W        W16612   3.204  31.512  11.899
43545W        W16613   4.291   3.679   1.472
43546W        W16614  21.969   6.118  11.959
43547W        W16615   2.007  24.502   3.611
43548W        W16616   1.715  10.347  11.197
43549W        W16617   6.959  33.635   2.258
43550W        W16618  24.609  30.583   2.239
43551W        W16619  31.183  21.467   2.897
43552W        W16620  36.487  40.768  13.516
43553W        W16621  38.963  27.482  12.520
43554W        W16622   2.915  31.036   2.470
43555W        W16623  31.477  23.236  11.521
43556W        W16624   2.254  29.962  13.914
43557W        W16625  43.322  24.265   3.593
43558W        W16626  14.239   8.468  13.816
43559W        W16627   3.192  29.199   4.144
43560W        W16628  39.047   0.894  13.533
43561W        W16629  28.485  38.635   3.019
43562W        W16630   3.280  35.986  14.466
43563W        W16631   9.176  42.072  13.991
43564W        W16632  30.055  21.759  12.425
43565W        W16633   8.804  36.138  10.757
43566W        W16634  31.490   9.822   3.830
43567W        W16635  21.289  15.817  14.794
43568W        W16636  31.977   4.204   1.687
43569W        W16637  18.042  25.960   3.516
43570W        W16638  41.927  22.754  11.156
43571W        W16639  33.439  15.403  13.059
43572W        W16640  38.487  34.852   1.517
43573W        W16641  26.764  16.696  12.061
43574W        W16642  30.602   2.263  11.602
43575W        W16643  37.364   6.931   4.014
43576W        W16644   7.842  30.931  13.489
43577W        W16645  36.680  14.692  10.491
43578W        W16646  39.709  24.130   4.423
43579W        W16647  17.289  21.420  11.997
43580W        W16648   0.835  43.955   3.576
43581W        W16649  33.115   6.454   0.839
43582W        W16650  42.123   9.832   3.946
43583W        W16651  33.553  31.239   4.086
43584W        W16652  38.604  24.476   2.392
43585W        W16653   5.605   9.191   1.909
43586W        W16654  20.680  26.700   4.370
43587W        W16655  43.071  15.310  14.628
43588W        W16656  15.553  35.338   1.108
43589W        W16657  20.189  31.921  11.569
43590W        W16658   9.100  14.946  11.275
43591W        W16659   3.021  15.729   0.027
43592W        W16660  11.722  30.030   1.649
43593W        W16661  33.393  27.632   3.270
43594W        W16662  38.345  42.512   2.628
43595W        W16663  24.162  35.447   2.237
43596W        W16664  14.830  18.273  14.422
43597W        W16665  37.552  36.338  13.082
43598W        W16666  24.525  27.639   4.718
43599W        W16667  33.895  31.303  13.494
43600W        W16668   4.549  31.227   0.432
43601W        W16669  32.243  16.829   1.816
43602W        W16670  39.835   9.151  13.606
43603W        W16671  27.454   2.798   2.727
43604W        W16672  38.988   7.470  13.554
43605W        W16673  42.233   2.944   1.723
43606W        W16674   9.928   2.497  14.329
43607W        W16675  43.129  19.529  10.949
43608W        W16676  41.067  25.239  12.393
43609W        W16677  21.618  40.858  12.773
43610W        W16678  40.134  41.291  14.186
43611W        W16679  41.140   8.649  12.037
43612W        W16680   6.789   9.661  12.446
43613W        W16681   1.476  12.549   4.552
43614W        W16682  13.702  39.284  10.621
43615W        W16683  36.011  27.690  11.580
43616W        W16684  42.085   5.205   4.083
43617W        W16685  23.040  24.249   4.332
43618W        W16686   1.708  10.446   2.717
43619W        W16687   8.085  15.559  11.070
43620W        W16688  38.559  38.857  14.768
43621W        W16689  17.550  10.693  10.577
43622W        W16690  38.989  17.228   1.155
43623W        W16691  14.680  35.650   2.196
43624W        W16692   5.045   5.736   2.881
43625W        W16693  28.993  41.010  13.094
43626W        W16694  12.492  28.198  12.556
43627W        W16695  15.626  21.061   1.366
43628W        W16696   1.783   9.180  10.614
43629W        W16697  18.276  39.910   0.032
43630W        W16698  43.746  37.900  10.703
43631W        W16699  22.568  19.542   3.274
43632W        W16700  26.903  10.837   3.722
43633W        W16701  28.984   0.553   0.448
43634W        W16702  41.133  27.360   4.616
43635W        W16703  33.594  39.074  12.364
43636W        W16704  29.518  33.856   3.673
43637W        W16705  41.423  16.742  14.036
43638W        W16706  42.061  38.066   1.481
43639W        W16707  16.512  39.280   1.392
43640W        W16708  20.453   8.246   2.317
43641W        W16709  28.576  26.513   0.404
43642W        W16710   9.156  15.810   0.391
43643W        W16711  22.281  28.406  12.482
43644W        W16712  11.580  35.651   3.762
43645W        W16713  38.326  25.892  12.538
43646W        W16714  11.373  40.533   3.640
43647W        W16715  12.124  44.311  11.138
43648W        W16716  12.672  13.315  13.948
43649W        W16717   6.813  25.945   3.122
43650W        W16718   6.124  23.652   2.428
43651W        W16719   2.497  15.564  12.075
43652W        W16720   9.105  39.335   9.690
43653W        W16721  24.763  13.552  11.598
43654W        W16722  22.249  30.056   3.146
43655W        W16723  27.967  33.325   3.975
43656W        W16724  37.849  11.128   0.769
43657W        W16725  28.129   1.936   2.854
43658W        W16726  19.664  20.799  14.802
43659W        W16727  11.685   5.663   3.285
43660W        W16728  44.689  32.049  12.110
43661W        W16729  41.500  44.434  11.806
43662W        W16730  34.803  33.841  14.792
43663W        W16731  19.665  40.071  13.134
43664W        W16732   1.376  36.688  12.168
43665W        W16733  24.003  43.071  13.702
43666W        W16734  26.145  42.757  12.867
43667W        W16735  30.499   3.390  12.470
43668W        W16736  18.145  22.932   0.822
43669W        W16737  21.383  40.462   0.391
43670W        W16738  24.701  42.266  13.437
43671W        W16739  33.703  10.210   3.954
43672W        W16740  16.570  16.833   0.003
43673W        W16741  35.599   9.732  12.185
43674W        W16742  17.805  22.787  11.866
43675W        W16743  16.794  22.205  11.027
43676W        W16744  30.633  11.675   3.752
43677W        W16745  31.800  35.036  14.289
43678W        W16746  29.543  29.091  11.212
43679W        W16747  36.284  37.517   2.647
43680W        W16748  35.434   5.722  11.204
43681W        W16749  40.793  26.086  11.862
43682W        W16750  12.632  18.725   5.032
43683W        W16751  22.988  21.195   4.074
43684W        W16752   3.852  30.874   2.216
43685W        W16753  15.096  26.609   2.108
43686W        W16754  25.472  39.340  14.727
43687W        W16755  17.230  23.775   3.185
43688W        W16756   7.319   4.976   0.905
43689W        W16757  18.633  44.835  14.568
43690W        W16758   6.806  36.380   0.423
43691W        W16759   1.315  17.212  10.769
43692W        W16760  11.439  19.255   0.340
43693W        W16761  22.019  24.485   2.771
43694W        W16762  31.912  33.406   1.889
43695W        W16763  21.406  16.770  11.138
43696W        W16764  22.548  27.249  11.542
43697W        W16765  39.774  25.596   1.745
43698W        W16766   2.879  44.396   2.212
43699W        W16767  16.796  44.511   2.091
43700W        W16768  38.677   1.729   2.739
43701W        W16769  33.697  32.694  14.898
43702W        W16770  15.760  36.794   3.153
43703W        W16771   8.303  30.698   1.350
43704W        W16772  32.086  34.475  10.227
43705W        W16773  10.518   6.210  11.578
43706W        W16774  37.337  14.619   1.496
43707W        W16775  28.935  15.744   0.888
43708W        W16776  23.548  37.075  12.044
43709W        W16777  24.511  17.597   0.218
43710W        W16778   0.391   1.368  12.941
43711W        W16779  18.824  36.645   3.851
43712W        W16780  18.181   4.977  14.521
43713W        W16781   6.160  10.938  11.635
43714W        W16782  34.039  10.908  13.025
43715W        W16783  24.675   3.715  11.540
43716W        W16784   4.508  38.400  13.516
43717W        W16785  22.909  41.297  14.022
43718W        W16786  34.970  23.183  11.915
43719W        W16787  34.952  32.885  14.635
43720W        W16788  34.708  15.195  12.524
43721W        W16789  40.949   8.700   1.464
43722W        W16790  35.951   5.209   0.936
43723W        W16791  23.577  20.534   0.981
43724W        W16792  35.535   7.626  13.928
43725W        W16793  33.373  23.615   4.508
43726W        W16794   2.242   2.301  10.734
43727W        W16795  14.150   1.775   3.974
43728W        W16796   8.315  39.778   4.140
43729W        W16797  24.070  36.461   1.191
43730W        W16798  10.205  38.983   3.561
43731W        W16799  25.776  19.751   3.534
43732W        W16800  15.186   7.945   0.747
43733W        W16801  31.682  21.033   2.278
43734W        W16802  36.114  29.211  13.109
43735W        W16803  34.877  10.684   1.900
43736W        W16804  41.459  42.827  12.797
43737W        W16805   0.437   4.819   2.641
43738W        W16806  37.627  36.672   0.204
43739W        W16807  25.965  41.863  12.143
43740W        W16808   3.398  41.056  13.423
43741W        W16809  31.629  11.384   3.840
43742W        W16810  25.180   1.573   1.315
43743W        W16811  31.557  14.414  11.504
43744W        W16812  14.633  29.603  10.142
43745W        W16813  17.399  25.313   2.628
43746W        W16814  35.857   1.492  12.083
43747W        W16815  11.206   2.832   2.839
43748W        W16816  22.101  20.978  11.607
43749W        W16817   1.282  26.506  14.124
43750W        W16818  17.482  15.757   3.696
43751W        W16819  14.539  20.869  13.087
43752W        W16820   4.930  39.905  10.768
43753W        W16821  32.364  34.965  13.984
43754W        W16822  26.995  42.579  14.306
43755W        W16823  31.500   0.902  11.379
43756W        W16824  26.793   6.630  11.125
43757W        W16825  37.615  14.742  13.961
43758W        W16826  22.091  30.155  11.974
43759W        W16827  31.393  21.411   0.989
43760W        W16828  14.652   9.442  13.889
43761W        W16829  28.223  10.847   1.421
43762W        W16830  38.136  39.529   4.359
43763W        W16831  24.986  26.128   4.637
43764W        W16832  22.740  35.935   3.550
43765W        W16833  16.657  34.883  10.710
43766W        W16834  18.048   9.928   1.366
43767W        W16835  42.534  28.290  13.625
43768W        W16836  31.008  17.121   2.917
43769W        W16837  29.535  38.586  10.720
43770W        W16838   5.011  37.379   0.379
43771W        W16839   2.795  40.224  12.056
43772W        W16840  42.797  41.837  14.365
43773W        W16841  30.071  15.733  14.345
43774W        W16842  30.110   3.257  12.121
43775W        W16843   6.783  43.559  14.070
43776W        W16844  27.012  35.073  11.633
43777W        W16845  22.849   7.276   4.615
43778W        W16846  36.132  11.532  12.471
43779W        W16847  28.920  30.071   2.634
43780W        W16848  14.251   9.718  13.314
43781W        W16849  40.508  17.846   0.281
43782W        W16850   6.392  37.943   3.180
43783W        W16851  41.289  40.151   4.100
43784W        W16852  11.562  31.526   3.412
43785W        W16853  14.738  19.913   0.265
43786W        W16854   4.658  16.196  10.790
43787W        W16855  17.354  24.306  11.090
43788W        W16856  37.843  15.275  12.465
43789W        W16857   3.523   8.953  12.904
43790W        W16858  17.703  11.124  13.411
43791W        W16859  41.747   4.863  14.419
43792W        W16860  16.677  22.330  12.470
43793W        W16861  33.450  28.579  10.371
43794W        W16862  35.667  14.138   2.908
43795W        W16863  21.986   7.554   3.636
43796W        W16864  38.868  19.601  14.030
43797W        W16865  32.833   4.771  13.312
43798W        W16866  15.118  27.005  13.578
43799W        W16867  15.511  12.742  11.073
43800W        W16868  25.792   8.899   3.897
43801W        W16869  35.320  33.892  13.834
43802W        W16870  27.543   8.461  13.308
43803W        W16871  13.058  21.973  10.828
43804W        W16872  17.243  20.982  10.731
43805W        W16873  27.059  20.334  10.747
43806W        W16874   2.201   8.569  13.452
43807W        W16875  25.411  13.153   3.801
43808W        W16876  21.941  44.785   0.518
43809W        W16877   8.115  12.006  14.163
43810W        W16878   0.693  33.288   1.675
43811W        W16879  29.150  37.382  13.331
43812W        W16880  15.561  27.842  12.885
43813W        W16881  22.712  15.738   1.441
43814W        W16882  21.618  41.324   1.727
43815W        W16883  15.120   6.337   3.971
43816W        W16884   3.956  33.415  13.021
43817W        W16885  37.605  38.080  14.328
43818W        W16886  19.542   0.726  14.893
43819W        W16887  13.782  32.818   2.789
43820W        W16888  30.949  10.083   4.571
43821W        W16889  28.141   5.753  11.478
43822W        W16890  38.566  36.324   1.351
43823W        W16891   6.267  15.575   3.748
43824W        W16892  16.724  22.201   1.898
43825W        W16893   9.575  37.549   2.445
43826W        W16894  32.580  25.173   0.268
43827W        W16895  39.954   9.498   4.149
43828W        W16896  35.938  41.319   1.804
43829W        W16897   7.104   4.920  14.925
43830W        W16898   4.724  42.158   2.650
43831W        W16899   1.703   4.607   2.282
43832W        W16900  13.054  28.190   3.787
43833W        W16901  11.689  40.814  12.947
43834W        W16902  44.300   4.396  13.407
43835W        W16903  15.305  28.976  11.121
43836W        W16904  13.704  23.001  11.510
43837W        W16905  44.736  42.640   1.272
43838W        W16906  37.921   6.658  12.247
43839W        W16907  38.390  28.191  11.173
43840W        W16908   9.004   3.354  12.535
43841W        W16909   6.389  11.389   0.404
43842W        W16910   0.754  13.181  11.037
43843W        W16911  25.720   7.171  13.494
43844W        W16912  25.214  22.198  10.843
43845W        W16913  42.908  23.527  10.612
43846W        W16914  13.222  30.671  13.734
43847W        W16915  18.464   4.421   2.243
43848W        W16916   5.406  19.079   2.552
43849W        W16917  34.288   7.370   2.281
43850W        W16918  32.579  32.412   4.110
43851W        W16919  21.048  44.006  11.538
43852W        W16920  13.193  14.123   1.785
43853W        W16921  22.580  11.723  14.756
43854W        W16922  30.588  15.777  14.262
43855W        W16923  15.628   1.783  12.569
43856W        W16924  26.947   4.420   2.011
43857W        W16925  42.413  27.821  13.914
43858W        W16926   6.453  19.555  11.412
43859W        W16927   7.315  29.427  12.891
43860W        W16928  19.098  12.819   2.369
43861W        W16929  35.611  34.478   1.867
43862W        W16930  28.488   3.571  10.964
43863W        W16931  22.691  28.192  14.857
43864W        W16932   4.397  40.016   0.865
43865W        W16933  21.765  17.374  12.481
43866W        W16934  16.153   7.677  10.581
43867W        W16935  35.200  41.864   1.852
43868W        W16936  16.665   8.927   3.319
43869W        W16937  23.020  26.975  12.484
43870W        W16938  44.704   0.703   1.030
43871W        W16939  21.935  23.300   4.128
43872W        W16940  29.146  25.746   1.428
43873W        W16941   7.710  18.808  11.845
43874W        W16942  16.163  16.830   2.710
43875W        W16943  11.253  33.289  13.295
43876W        W16944  22.170  38.703   2.676
43877W        W16945  30.133  17.967  11.620
43878W        W16946  13.580  20.191  11.920
43879W        W16947   3.836  43.989   4.681
43880W        W16948  14.776  16.191   0.227
43881W        W16949  40.509  10.591   4.749
43882W        W16950   9.987  17.068   3.695
43883W        W16951  17.645  16.830   2.035
43884W        W16952  23.000  24.508  13.703
43885W        W16953  23.531   0.254   4.911
43886W        W16954  31.930   9.132   0.705
43887W        W16955  30.841   0.918  14.310
43888W        W16956  23.702   4.189  10.531
43889W        W16957  11.374  26.108   0.918
43890W        W16958  34.513  17.289   3.388
43891W        W16959  28.537   9.627  12.862
43892W        W16960  26.591   2.928   4.691
43893W        W16961   8.128  27.170  12.009
43894W        W16962  33.176  17.307   0.329
43895W        W16963  36.832  38.993   4.425
43896W        W16964  22.540  11.979  11.966
43897W        W16965   2.410  34.381   3.623
43898W        W16966  34.327   2.436  12.943
43899W        W16967   8.292   0.953   2.060
43900W        W16968  24.090  10.217  12.164
43901W        W16969   9.721  42.946   2.250
43902W        W16970  17.603  23.229   3.988
43903W        W16971  28.388   2.880  14.910
43904W        W16972   4.289  14.649   4.317
43905W        W16973  44.319  33.096   1.532
43906W        W16974  11.510  21.534  13.420
43907W        W16975  27.431  18.703   4.645
43908W        W16976   7.688   8.163   1.544
43909W        W16977  22.048  40.836   4.303
43910W        W16978   7.781  28.620  11.250
43911W        W16979  41.346  24.046   3.433
43912W        W16980  34.031  35.445  14.780
43913W        W16981   0.929  34.849  10.523
43914W        W16982  30.279  33.634  14.769
43915W        W16983  11.856  12.278   2.418
43916W        W16984  34.914  17.014   0.293
43917W        W16985  35.243  14.107   5.060
43918W        W16986  44.115  36.937   2.338
43919W        W16987  36.349  32.671  11.622
43920W        W16988  41.505  44.891  11.537
43921W        W16989  32.908   5.323   4.094
43922W        W16990  28.457  41.381  14.878
43923W        W16991   0.330  33.398   3.616
43924W        W16992  19.780  43.764  14.167
43925W        W16993  34.978  21.277   0.704
43926W        W16994  19.539  39.801   3.832
43927W        W16995   3.176  27.410   2.577
43928W        W16996  21.979   5.228  12.012
43929W        W16997  22.257   1.354  13.507
43930W        W16998  35.905  26.337   3.694
43931W        W16999  11.760  35.188   1.906
43932W        W17000  28.027  24.515   2.383
43933W        W17001  35.504   2.022  14.515
43934W        W17002   0.407   7.125   2.157
43935W        W17003  24.539  30.651   0.751
43936W        W17004  37.305  43.949  10.265
43937W        W17005  33.334  29.522  12.026
43938W        W17006  25.806  25.486  10.683
43939W        W17007   7.466  25.095  10.674
43940W        W17008  22.651  29.706   4.129
43941W        W17009  18.655  41.765  13.020
43942W        W17010  11.848  11.568   2.845
43943W        W17011  44.392  27.520  10.454
43944W        W17012  16.051  38.373  11.479
43945W        W17013  30.434  38.419   2.816
43946W        W17014  15.270  35.355  11.676
43947W        W17015  10.806  43.464  11.459
43948W        W17016   3.870  19.043  11.888
43949W        W17017  14.724  29.621  12.916
43950W        W17018   0.246  29.581   3.540
43951W        W17019  16.450  33.511   0.737
43952W        W17020  15.203  12.830   2.113
43953W        W17021  41.941   2.929   4.152
43954W        W17022  21.759  31.026  11.529
43955W        W17023  15.555  34.549   0.900
43956W        W17024  32.525  25.214  12.960
43957W        W17025  25.479  30.405  11.194
43958W        W17026  44.109  33.856   3.831
43959W        W17027  42.091  37.489   1.748
43960W        W17028  19.563   5.858  14.064
43961W        W17029   9.932  35.858   1.496
43962W        W17030  31.592  37.869  11.667
43963W        W17031  16.704  12.205   3.774
43964W        W17032   1.986  24.579   1.274
43965W        W17033  23.811  16.130   2.947
43966W        W17034  16.500  16.654   3.563
43967W        W17035  36.712  23.397   1.933
43968W        W17036   9.671  40.384   2.768
43969W        W17037  44.786  16.809  13.372
43970W        W17038   9.856  37.916   1.650
43971W        W17039  33.006  31.711   1.840
43972W        W17040  34.849  41.032  12.582
43973W        W17041  13.528  24.954  11.103
43974W        W17042  28.198  17.334   0.272
43975W        W17043  37.188  31.094   0.772
43976W        W17044  16.695   4.709   3.716
43977W        W17045   4.468   3.262  11.831
43978W        W17046   8.796   9.759   3.827
43979W        W17047  28.995  34.361   0.972
43980W        W17048  37.898  19.985   1.052
43981W        W17049  10.803  24.928  13.855
43982W        W17050   1.756  38.071  10.715
43983W        W17051  31.674  20.774   3.216
43984W        W17052  11.420  32.246  13.418
43985W        W17053  40.782   7.922  11.532
43986W        W17054   9.520   3.443  12.493
43987W        W17055  25.010  30.406   1.921
43988W        W17056  20.258  22.585  11.306
43989W        W17057  22.082  37.658  12.569
43990W        W17058  34.958  43.892   0.865
43991W        W17059  34.803  35.221   5.392
43992W        W17060   1.357  23.315  14.733
43993W        W17061  35.346  12.874  14.815
43994W        W17062  42.382  30.885   1.758
43995W        W17063  15.092   4.914  10.568
43996W        W17064  12.284  20.770   3.213
43997W        W17065  31.077  18.384   0.894
43998W        W17066  44.418  34.604   1.404
43999W        W17067  27.127  29.098   1.925
44000W        W17068  37.795  37.445  14.857
44001W        W17069  34.538  41.124  14.917
44002W        W17070   3.614  42.283  13.035
44003W        W17071  15.326  39.803   0.386
44004W        W17072  24.222  36.915   0.301
44005W        W17073  44.145  43.870   4.158
44006W        W17074  18.038  22.005   2.044
44007W        W17075   3.447  29.943   3.662
44008W        W17076  31.110  20.920  14.417
44009W        W17077  27.576   2.770  13.865
44010W        W17078  28.992  34.705  14.118
44011W        W17079   8.743  30.117  14.759
44012W        W17080  42.347  30.005  13.444
44013W        W17081  28.442   3.686  11.483
44014W        W17082  17.267   3.438  11.036
44015W        W17083  29.455   0.296  11.035
44016W        W17084  24.683   8.342   1.933
44017W        W17085  43.049  17.740  13.767
44018W        W17086  27.438  40.078   0.772
44019W        W17087  10.215   6.647  12.929
44020W        W17088  17.698  41.117   1.547
44021W        W17089   4.504  26.300  13.471
44022W        W17090  25.210  30.408   4.212
44023W        W17091   3.723  17.777   1.134
44024W        W17092  18.185  35.970   2.357
44025W        W17093  42.843  34.553  13.386
44026W        W17094  12.264   0.587   4.416
44027W        W17095  35.953  33.511  14.921
44028W        W17096  26.150  18.258  14.513
44029W        W17097  30.481  10.676  11.348
44030W        W17098  31.924  30.449  14.867
44031W        W17099  15.917   6.289   3.615
44032W        W17100  13.278  33.415   1.048
44033W        W17101  23.765  25.533   2.294
44034W        W17102  30.775   8.666  11.604
44035W        W17103  17.637   1.460  11.451
44036W        W17104   9.095   3.950  13.320
44037W        W17105  28.777  36.445  13.393
44038W        W17106   2.869  23.538   1.242
44039W        W17107  41.598  38.906   0.739
44040W        W17108  11.579  36.953   3.781
44041W        W17109  27.152  16.736   1.732
44042W        W17110  29.438  38.493   2.916
44043W        W17111  17.245  36.840  10.755
44044W        W17112   2.170   2.751   2.215
44045W        W17113  41.719  34.394   2.747
44046W        W17114  15.631  37.305  14.327
44047W        W17115   7.711  24.114   0.433
44048W        W17116   3.715  14.370   3.312
44049W        W17117  26.773  16.381  11.655
44050W        W17118   7.989  25.066   4.443
44051W        W17119  13.274  13.327  13.771
44052W        W17120  20.056   7.847  13.352
44053W        W17121  42.730  21.118  11.639
44054W        W17122   5.942  36.270   0.827
44055W        W17123  22.770  25.481   3.110
44056W        W17124   0.396  44.933   4.674
44057W        W17125  39.272  23.554  11.198
44058W        W17126  29.102  35.448  10.528
44059W        W17127  22.147  23.614  14.346
44060W        W17128  44.359   6.403  14.515
44061W        W17129   6.724  42.291   4.630
44062W        W17130  31.521  36.043   0.580
44063W        W17131  14.212  32.126  14.735
44064W        W17132  18.248  44.749   3.467
44065W        W17133  24.012   8.679   4.810
44066W        W17134   6.761  31.602  11.254
44067W        W17135  35.552  22.261   3.527
44068W        W17136  40.766  30.991   1.893
44069W        W17137  23.383  41.393   1.129
44070W        W17138  28.595  23.228  14.451
44071W        W17139  44.044  33.380  14.775
44072W        W17140  15.204  12.344   2.252
44073W        W17141  42.969  22.303  12.966
44074W        W17142  30.966  34.320  13.452
44075W        W17143  16.509  36.925  12.027
44076W        W17144   3.776   5.140  12.869
44077W        W17145  18.982   7.209   3.019
44078W        W17146  44.731  29.664   1.834
44079W        W17147   4.010  35.919  11.441
44080W        W17148  16.996  43.453   3.181
44081W        W17149  17.782  42.843  12.134
44082W        W17150  29.051  18.313  13.980
44083W        W17151  30.485  31.870  13.418
44084W        W17152   7.595  40.128  12.123
44085W        W17153   2.937  15.120  12.632
44086W        W17154  22.594  17.113   0.034
44087W        W17155  24.685  12.682   1.350
44088W        W17156  21.149  16.299  12.934
44089W        W17157  20.087  10.411  14.367
44090W        W17158  33.873  28.309  13.722
44091W        W17159  11.285  41.872  11.007
44092W        W17160   0.033  43.324  12.231
44093W        W17161  12.588  41.926  11.370
44094W        W17162  33.760   1.990   3.171
44095W        W17163  31.707  42.457   1.981
44096W        W17164  32.022  39.846  12.605
44097W        W17165  38.838  43.080  14.438
44098W        W17166  30.172   9.777   0.563
44099W        W17167  34.424  35.415  13.164
44100W        W17168  17.811  29.490   3.238
44101W        W17169  44.082  15.678   4.128
44102W        W17170  32.214  33.780  11.423
44103W        W17171   0.443  38.028  11.503
44104W        W17172  17.521   0.302  14.703
44105W        W17173  30.449  10.259   4.743
44106W        W17174  16.879  32.978   3.289
44107W        W17175   6.109  21.366   4.970
44108W        W17176  33.809   0.090  13.424
44109W        W17177  37.304  33.581  12.461
44110W        W17178  18.094  32.589   3.700
44111W        W17179   5.866  23.889  13.826
44112W        W17180  17.802   8.348  11.084
44113W        W17181  25.654   6.316  11.516
44114W        W17182   5.315  16.338   2.802
44115W        W17183  44.663  28.002   3.268
44116W        W17184  11.124  11.724   2.284
44117W        W17185  24.629  39.300  14.500
44118W        W17186   0.854  16.198   1.279
44119W        W17187  17.823  14.800   1.490
44120W        W17188  23.436  20.245  13.764
44121W        W17189  36.381   3.851  10.735
44122W        W17190  26.423  27.386   1.222
44123W        W17191  40.942   0.218  11.157
44124W        W17192   0.902  23.904   4.084
44125W        W17193  32.939   5.438   0.848
44126W        W17194  14.815  43.978   3.226
44127W        W17195  13.717  28.520  13.079
44128W        W17196  31.876  10.976   5.024
44129W        W17197   8.519  40.947   2.252
44130W        W17198   5.653  39.303   4.228
44131W        W17199  14.808  33.670  12.137
44132W        W17200  13.403  19.991   2.766
44133W        W17201  31.008   7.236  10.897
44134W        W17202  11.858  38.382   0.952
44135W        W17203  25.237   1.013  14.486
44136W        W17204  15.269  32.010   3.261
44137W        W17205  36.234  29.399  12.010
44138W        W17206   9.652  17.553   0.392
44139W        W17207   5.859  12.969  12.675
44140W        W17208  15.061  14.527  11.045
44141W        W17209  14.002   4.662   4.543
44142W        W17210  27.444   0.566  14.760
44143W        W17211  39.088  29.893  12.060
44144W        W17212   2.356  22.954  13.502
44145W        W17213  21.826   8.884   3.959
44146W        W17214  13.215   5.414  10.526
44147W        W17215  25.498  15.834  10.900
44148W        W17216   7.011  40.326   0.313
44149W        W17217  23.724   1.773  10.738
44150W        W17218  43.231  38.828   2.881
44151W        W17219  23.990   5.182  10.781
44152W        W17220   2.317  13.210  13.374
44153W        W17221  11.293  25.847   1.371
44154W        W17222  28.888  29.557   2.714
44155W        W17223  37.993   4.338  13.544
44156W        W17224  37.540  21.139  13.687
44157W        W17225   5.213  42.770   2.212
44158W        W17226   5.299  25.439   4.430
44159W        W17227  10.706  16.767  14.244
44160W        W17228  19.216  33.340  10.355
44161W        W17229   3.857  44.366  12.599
44162W        W17230  18.539  11.658   4.514
44163W        W17231  40.568  33.604   1.290
44164W        W17232   0.914  39.629  13.551
44165W        W17233  16.243  25.472  14.486
44166W        W17234  37.377  21.514   0.682
44167W        W17235  13.269  30.210   3.851
44168W        W17236  43.061  24.006   1.785
44169W        W17237  42.344  23.111   0.389
44170W        W17238  44.741  41.933   3.323
44171W        W17239  23.309  29.004  14.977
44172W        W17240  44.793  41.019  13.866
44173W        W17241  37.947  30.406  10.156
44174W        W17242   1.978  12.382   3.681
44175W        W17243  12.310   1.531   0.421
44176W        W17244  36.483  14.094  14.574
44177W        W17245  16.245  29.121  12.050
44178W        W17246  10.548  33.619  11.816
44179W        W17247   5.770  12.304   0.144
44180W        W17248  29.209  22.174   3.810
44181W        W17249   8.152  43.611  11.218
44182W        W17250  16.287   9.727  14.949
44183W        W17251  32.676  22.680   0.812
44184W        W17252  10.670   3.314  14.946
44185W        W17253   4.650  43.772  11.216
44186W        W17254  38.364  10.303  14.823
44187W        W17255  31.081  25.308   2.143
44188W        W17256  23.407  11.340  12.412
44189W        W17257  17.293  27.052  10.705
44190W        W17258  19.144  36.295   0.045
44191W        W17259  31.934  41.062   4.422
44192W        W17260   8.025  43.602  12.894
44193W        W17261  28.529  29.177  12.510
44194W        W17262  25.544  16.106  14.144
44195W        W17263  32.555  15.189  14.839
44196W        W17264  43.132  33.352   0.806
44197W        W17265  23.602   1.550  14.850
44198W        W17266  18.975  44.019  10.626
44199W        W17267  10.914  36.972   3.395
44200W        W17268   1.472   3.697  14.943
44201W        W17269   4.841  40.459  12.156
44202W        W17270   0.695   5.462   0.944
44203W        W17271  17.742  36.446   2.039
44204W        W17272   9.068   3.157   1.871
44205W        W17273  22.188  16.608   1.860
44206W        W17274  14.365  34.573   3.634
44207W        W17275  17.322   0.714   2.155
44208W        W17276  10.413   2.627   3.052
44209W        W17277  30.927   9.682  10.584
44210W        W17278  38.146  31.214  12.915
44211W        W17279  13.720  25.047   1.461
44212W        W17280  37.228  38.063   0.276
44213W        W17281   3.419  32.046  10.580
44214W        W17282  10.701  35.340   2.806
44215W        W17283  41.871  17.210  14.858
44216W        W17284   5.745   7.298  13.273
44217W        W17285  10.743  14.190   0.819
44218W        W17286  25.718  10.375  12.939
44219W        W17287  10.191   5.928  13.541
44220W        W17288  24.516  26.114  14.424
44221W        W17289  32.978  26.234   3.128
44222W        W17290  20.019  14.381  13.590
44223W        W17291  29.946  30.924   2.902
44224W        W17292  36.298  13.762  13.362
44225W        W17293  14.876   3.338   4.153
44226W        W17294  10.632  44.258   4.566
44227W        W17295  43.865  26.431   3.687
44228W        W17296  39.686  25.989  12.641
44229W        W17297  18.668  32.150  10.705
44230W        W17298  12.997  43.747  12.789
44231W        W17299  43.792  32.172   0.924
44232W        W17300   1.458  22.592  13.176
44233W        W17301  42.453  24.915   2.265
44234W        W17302  34.504  39.893   4.156
44235W        W17303  18.110  40.767   0.220
44236W        W17304  44.842  36.117   4.123
44237W        W17305  37.709  35.634   3.377
44238W        W17306  11.862  15.830   3.336
44239W        W17307  11.100  29.493  11.570
44240W        W17308  29.248  25.483  12.748
44241W        W17309  34.678   4.083  13.966
44242W        W17310  31.156  32.956   2.417
44243W        W17311  30.739  40.922  10.959
44244W        W17312   5.651  11.152  12.051
44245W        W17313  27.621  23.003  14.051
44246W        W17314   3.939  18.699  14.274
44247W        W17315  25.402  15.073   0.313
44248W        W17316  26.572  17.405   4.528
44249W        W17317   7.852   0.275   0.689
44250W        W17318  12.111  31.454  12.463
44251W        W17319  21.610  18.773   2.253
44252W        W17320  24.847  34.716  13.470
44253W        W17321   3.956  17.689   2.125
44254W        W17322  31.546  35.854  10.754
44255W        W17323  42.502   2.929   3.969
44256W        W17324  29.512  43.483  13.003
44257W        W17325  30.621  34.888   2.417
44258W        W17326  26.294   0.488   1.521
44259W        W17327  38.296  14.620   1.162
44260W        W17328  42.560   1.771  14.968
44261W        W17329   9.749   6.711  13.178
44262W        W17330  33.662  18.417  11.050
44263W        W17331  26.060  34.234   4.659
44264W        W17332   7.168  22.784   0.306
44265W        W17333  43.729   7.821  13.930
44266W        W17334  28.934  27.032   4.731
44267W        W17335  44.255  42.464   1.228
44268W        W17336   6.432  34.592   3.351
44269W        W17337  37.600  32.593  13.102
44270W        W17338  38.202  24.123   3.267
44271W        W17339  38.790  14.093   3.421
44272W        W17340  22.537  31.014  12.045
44273W        W17341  17.056   7.254   4.694
44274W        W17342   0.788   3.398   3.077
44275W        W17343  13.668  31.496   0.681
44276W        W17344  19.284  19.751   2.426
44277W        W17345  11.712  10.182  13.057
44278W        W17346  33.436  21.791   1.508
44279W        W17347  40.134   7.260   0.796
44280W        W17348  18.677  20.756   3.800
44281W        W17349  41.866  19.537   1.703
44282W        W17350   9.367   3.723  14.316
44283W        W17351  24.157  16.483   1.028
44284W        W17352  24.409  11.768   4.738
44285W        W17353  42.441  30.556  12.102
44286W        W17354  19.517   0.367   3.281
44287W        W17355  33.483  30.452  11.259
44288W        W17356  40.432  15.178  13.027
44289W        W17357   1.042  14.264   3.749
44290W        W17358  13.754  28.400  12.192
44291W        W17359  23.702  29.930   0.442
44292W        W17360  11.810  18.066  12.101
44293W        W17361  28.211  41.089  12.444
44294W        W17362   0.755  16.725  13.563
44295W        W17363  22.310  21.066   2.291
44296W        W17364   6.241  40.322  12.407
44297W        W17365  25.002  30.407  12.694
44298W        W17366  25.128  34.961  11.901
44299W        W17367  21.804   6.204  13.459
44300W        W17368   2.705  42.009   4.594
44301W        W17369  27.745  35.952  10.759
44302W        W17370  33.180  37.049   4.120
44303W        W17371   3.259   1.713   3.726
44304W        W17372   4.391  33.534  12.524
44305W        W17373  38.760  33.941   4.307
44306W        W17374  18.289   3.212   2.704
44307W        W17375  38.307  30.158  13.611
44308W        W17376  24.415  28.154  13.925
44309W        W17377  31.344  32.803  13.898
44310W        W17378  18.385  15.026   1.458
44311W        W17379  43.517  37.382   2.029
44312W        W17380  30.409   5.214   0.753
44313W        W17381  30.969  26.445   4.008
44314W        W17382  40.511  38.987   0.815
44315W        W17383   0.365  37.414   3.157
44316W        W17384   0.971   2.765   1.701
44317W        W17385  31.579   9.907  12.856
44318W        W17386  33.511   1.836   0.022
44319W        W17387  44.172  33.538   4.620
44320W        W17388  28.624  21.617   2.896
44321W        W17389  10.281  22.039   3.063
44322W        W17390  28.319  33.551  12.001
44323W        W17391  26.779   1.744  12.360
44324W        W17392  11.578  42.390  11.176
44325W        W17393  19.988  24.006  12.017
44326W        W17394   5.156  22.853   1.449
44327W        W17395  22.528   6.482   5.126
44328W        W17396  22.963  14.197   3.203
44329W        W17397  22.182  40.548  14.772
44330W        W17398  26.671  33.495   0.830
44331W        W17399  22.868  37.438   0.796
44332W        W17400   0.671  15.065   3.288
44333W        W17401  30.480  31.185  10.757
44334W        W17402  32.544  13.702  12.512
44335W        W17403   4.380  13.691  11.574
44336W        W17404  40.452  18.855  11.086
44337W        W17405  42.803   1.374   4.095
44338W        W17406  34.306  18.027  14.495
44339W        W17407  44.386  29.817  10.849
44340W        W17408  44.821  20.239  11.167
44341W        W17409  25.058  17.120   3.623
44342W        W17410  13.132  37.324   4.989
44343W        W17411   1.163   8.779  13.394
44344W        W17412   0.043  12.288  12.056
44345W        W17413  33.142   9.971   0.458
44346W        W17414  29.231  22.968   0.208
44347W        W17415   8.852  32.003  14.739
44348W        W17416  25.073  12.360  11.868
44349W        W17417   3.377  21.082  12.564
44350W        W17418  27.693  16.834  14.819
44351W        W17419  44.133  26.794   2.264
44352W        W17420  34.581  41.497  12.982
44353W        W17421   6.468  16.200  11.251
44354W        W17422  30.621  23.280   1.738
44355W        W17423  26.025  44.773   1.823
44356W        W17424  38.282  33.261   9.607
44357W        W17425  14.592  34.449   0.778
44358W        W17426  41.448  28.624  14.326
44359W        W17427  40.769  14.090   4.091
44360W        W17428   1.455  44.995   1.628
44361W        W17429  30.505  25.689   3.221
44362W        W17430  19.615   6.822  11.427
44363W        W17431   8.164  43.121   2.840
44364W        W17432  41.926  19.465   5.060
44365W        W17433  42.954   6.849  12.070
44366W        W17434  42.060  13.876   3.297
44367W        W17435  38.671  24.910   4.530
44368W        W17436  14.550  20.058  13.472
44369W        W17437   6.445  36.485   1.741
44370W        W17438  37.454  21.294   4.048
44371W        W17439  16.556  25.613  11.552
44372W        W17440  13.626   2.439   3.608
44373W        W17441  13.331  39.307   3.168
44374W        W17442  32.321  34.126  14.503
44375W        W17443  19.334  36.195  13.058
44376W        W17444  42.764  24.928  13.798
44377W        W17445  36.151  29.582   1.810
44378W        W17446  13.040  21.295  12.958
44379W        W17447  29.905  23.157  10.583
44380W        W17448  28.624   0.057   0.824
44381W        W17449  41.870  41.836  13.777
44382W        W17450  19.305   8.219   3.098
44383W        W17451   4.374  28.902   0.385
44384W        W17452  28.593  14.594   1.297
44385W        W17453  11.282  14.304  12.791
44386W        W17454  42.952   2.950  10.646
44387W        W17455  12.383   3.638   3.190
44388W        W17456  36.001  22.176   2.094
44389W        W17457  29.598  44.972  13.912
44390W        W17458  18.102   5.260  11.402
44391W        W17459  16.720   8.098   2.774
44392W        W17460  12.795  24.424   1.711
44393W        W17461  37.987  34.529   1.571
44394W        W17462  38.877  26.535  11.470
44395W        W17463   9.079   3.109   3.685
44396W        W17464  29.584  31.261  11.136
44397W        W17465  18.733  27.775   2.589
44398W        W17466  15.695  19.669   2.803
44399W        W17467  35.402   4.720  12.564
44400W        W17468  12.760  41.990  10.893
44401W        W17469  44.568  28.250  14.396
44402W        W17470  40.279   8.220   1.789
44403W        W17471   3.750  34.337  11.552
44404W        W17472  10.064  33.838  13.099
44405W        W17473  21.708  34.928  11.114
44406W        W17474  35.663  12.271  12.951
44407W        W17475  42.445   7.297  10.970
44408W        W17476  25.207  27.667   4.947
44409W        W17477  11.211  18.568   3.058
44410W        W17478  27.037   3.918   3.317
44411W        W17479  18.022  10.392  14.452
44412W        W17480  34.530  32.335  10.243
44413W        W17481  21.248  35.977  14.490
44414W        W17482  22.217  37.645   2.851
44415W        W17483  29.202  22.032   0.377
44416W        W17484  31.289  13.585  11.651
44417W        W17485  36.434  28.034  14.830
44418W        W17486  29.409  20.524  10.709
44419W        W17487   0.935  10.237   1.787
44420W        W17488  37.885  38.894  13.586
44421W        W17489  19.460  23.152   0.863
44422W        W17490  36.023  18.091  13.770
44423W        W17491  43.466  14.779   4.799
44424W        W17492  39.421   3.529   1.961
44425W        W17493  34.163  11.161  10.919
44426W        W17494  21.562  13.132   2.382
44427W        W17495  28.646   5.212  13.787
44428W        W17496  11.079  28.210   1.865
44429W        W17497   2.894  40.723  12.030
44430W        W17498  13.365  43.188   2.803
44431W        W17499  26.124   7.082  11.597
44432W        W17500   3.854  25.733   3.891
44433W        W17501  42.247  12.819   2.738
44434W        W17502   6.435   2.450   0.802
44435W        W17503  31.193  16.323  14.827
44436W        W17504  33.922  42.444  11.221
44437W        W17505   1.512   7.181   0.864
44438W        W17506  24.520  16.835  13.023
44439W        W17507  23.692  27.646   1.273
44440W        W17508  37.401   3.211   2.201
44441W        W17509  18.008  28.694   0.210
44442W        W17510  41.337  36.804   0.351
44443W        W17511  16.098  16.709   1.327
44444W        W17512  37.616   2.464  11.047
44445W        W17513  31.675  32.385   0.443
44446W        W17514  33.573  21.608  10.769
44447W        W17515  22.845  13.849   3.891
44448W        W17516  21.484  29.907  11.159
44449W        W17517  26.779  36.891   1.800
44450W        W17518  42.428  21.334  13.245
44451W        W17519   9.684  36.951   1.714
44452W        W17520  27.561  25.209   1.365
44453W        W17521  33.327  43.864   2.712
44454W        W17522   5.736  20.084   4.146
44455W        W17523  43.422  26.433   1.376
44456W        W17524   8.285  16.626  11.599
44457W        W17525   5.798  38.032  13.738
44458W        W17526  42.778  20.781   3.678
44459W        W17527  42.721  31.967  11.539
44460W        W17528   9.949  19.524  11.185
44461W        W17529  22.457   8.907   3.238
44462W        W17530   5.442  18.196  11.863
44463W        W17531   4.685  38.332  11.471
44464W        W17532   2.159  33.897   0.588
44465W        W17533  41.020  16.628  10.195
44466W        W17534  18.395   3.624   0.836
44467W        W17535  23.079  43.833   1.756
44468W        W17536   2.984  32.458  10.770
44469W        W17537  44.412   2.823  12.540
44470W        W17538   7.966  27.451  14.372
44471W        W17539  14.162  30.184  13.452
44472W        W17540  18.493  12.091  12.587
44473W        W17541  44.995  34.893   2.340
44474W        W17542  21.089  38.509   4.544
44475W        W17543  25.026  20.762   3.810
44476W        W17544  37.717  35.145   4.295
44477W        W17545  31.320  18.570  11.567
44478W        W17546  41.210  24.449  14.892
44479W        W17547   0.787  32.719   3.830
44480W        W17548   4.682  10.576  13.086
44481W        W17549  33.236  19.254   1.011
44482W        W17550   8.364  17.124   3.907
44483W        W17551  35.022  11.285  14.442
44484W        W17552  11.630  14.237  13.809
44485W        W17553   4.291  44.738   3.909
44486W        W17554  18.238  27.374   3.804
44487W        W17555  33.547  16.573   1.264
44488W        W17556  11.162  37.413   3.177
44489W        W17557  42.061   3.669  12.163
44490W        W17558   8.295  19.533  14.027
44491W        W17559  20.736  19.255  11.547
44492W        W17560  37.407  35.754   1.255
44493W        W17561  13.101  15.767   4.943
44494W        W17562  35.060  39.445   0.906
44495W        W17563   9.380   2.645  12.980
44496W        W17564  12.621  17.701  13.456
44497W        W17565   6.360  18.019  12.340
44498W        W17566  32.803  35.871   3.776
44499W        W17567  32.568  10.168  12.975
44500W        W17568  25.957  20.339   1.772
44501W        W17569  43.389  26.953   1.333
44502W        W17570  40.729   5.489   4.962
44503W        W17571  37.224   7.537  10.713
44504W        W17572  35.495  22.581  13.760
44505W        W17573  42.060  39.269  13.866
44506W        W17574  13.189  15.667  12.887
44507W        W17575  31.525  28.947   5.130
44508W        W17576  44.755   3.403  12.167
44509W        W17577  37.874  18.784   0.425
44510W        W17578  33.963   7.545   2.681
44511W        W17579   5.542   3.723  10.556
44512W        W17580  12.722   6.700  12.649
44513W        W17581  16.191  42.085  14.167
44514W        W17582  22.301  37.904   3.311
44515W        W17583   1.476  32.117  12.988
44516W        W17584  35.562   8.413   1.150
44517W        W17585  25.540  36.493   2.206
44518W        W17586  44.004  17.229   0.462
44519W        W17587  20.623   6.604   3.840
44520W        W17588  26.996  38.823  13.794
44521W        W17589  24.099  16.068   0.709
44522W        W17590  31.985  21.358  13.307
44523W        W17591  15.735  26.132  10.320
44524W        W17592  31.358  23.517  12.505
44525W        W17593  20.305  36.455  12.923
44526W        W17594  33.279  14.662   4.744
44527W        W17595   2.386  20.145  13.882
44528W        W17596  25.228  21.603  14.107
44529W        W17597  40.053  33.667  13.336
44530W        W17598  38.387  31.724  11.208
44531W        W17599  35.949  31.828   3.119
44532W        W17600   5.063  11.334  12.666
44533W        W17601  11.523  41.774   1.891
44534W        W17602  25.440   4.933   0.881
44535W        W17603   0.935  17.707   2.836
44536W        W17604  24.541  44.491   0.854
44537W        W17605  19.748  43.081   4.823
44538W        W17606  44.628  38.920   4.025
44539W        W17607  38.446  44.444  11.851
44540W        W17608  20.222  15.587  12.434
44541W        W17609   9.414  44.816   0.714
44542W        W17610  36.453  15.569   1.725
44543W        W17611  35.352   6.626   3.739
44544W        W17612  30.984  22.336  10.649
44545W        W17613  35.599   2.727  14.014
44546W        W17614   1.271  32.459  13.336
44547W        W17615  24.084  42.079   3.492
44548W        W17616  27.184  41.192  11.128
44549W        W17617  14.555  35.857   3.333
44550W        W17618  39.891  28.225  13.440
44551W        W17619  30.890   4.719   3.169
44552W        W17620  24.341  27.524  11.154
44553W        W17621  13.940  29.033   2.156
44554W        W17622  28.724  17.605   3.320
44555W        W17623  33.157   4.530   0.272
44556W        W17624  24.520   4.267  13.886
44557W        W17625  18.156  25.889   4.013
44558W        W17626  20.293  23.498   2.399
44559W        W17627  12.273  35.655   0.252
44560W        W17628   3.080  34.822  14.914
44561W        W17629   1.788  27.188   4.469
44562W        W17630   9.199  29.022  14.584
44563W        W17631  31.179  30.993   0.859
44564W        W17632  44.492   4.903   1.948
44565W        W17633  10.747  28.463  13.882
44566W        W17634   4.879  15.035  11.874
44567W        W17635  31.851  17.058   5.146
44568W        W17636  29.806  21.521   1.474
44569W        W17637  31.449  35.192  12.157
44570W        W17638  18.979  33.873   1.540
44571W        W17639  30.615  35.038   0.487
44572W        W17640  14.466  11.571  10.761
44573W        W17641  14.927  23.237   4.263
44574W        W17642  12.270   3.609  12.113
44575W        W17643  27.067  27.620   2.157
44576W        W17644   8.759  13.697   4.112
44577W        W17645  33.355   4.096   0.542
44578W        W17646   9.330  29.061   2.907
44579W        W17647  14.851  29.882  14.191
44580W        W17648  14.961  26.881  14.331
44581W        W17649  31.622   4.729  12.613
44582W        W17650  24.769  12.710   4.079
44583W        W17651  14.314   1.563  13.826
44584W        W17652  40.166   9.200   2.314
44585W        W17653  28.514  20.707  13.234
44586W        W17654  20.139  35.263  10.299
44587W        W17655   1.814  23.656   1.939
44588W        W17656  18.188   1.235   2.405
44589W        W17657  30.496   8.927  11.260
44590W        W17658  22.055  41.319   3.768
44591W        W17659   2.503   4.707   0.173
44592W        W17660  27.337  33.602  12.059
44593W        W17661  34.998  10.467   2.356
44594W        W17662   2.273  12.850   3.659
44595W        W17663  30.398  40.556  13.250
44596W        W17664  41.573  25.271  12.291
44597W        W17665  33.508  36.978  11.641
44598W        W17666  34.694  32.823  10.329
44599W        W17667  21.642  32.030   4.117
44600W        W17668  15.017  23.563  10.981
44601W        W17669  29.387  43.807   0.960
44602W        W17670  25.095  33.339   2.301
44603W        W17671  37.658  17.645   0.230
44604W        W17672   4.802  42.929  13.432
44605W        W17673  31.524  27.123  14.377
44606W        W17674   3.299  38.272   2.350
44607W        W17675  13.037  17.080   4.945
44608W        W17676  16.265  16.753  13.432
44609W        W17677  12.138   8.670  11.125
44610W        W17678  27.654  38.892   0.429
44611W        W17679  22.974   1.132  11.573
44612W        W17680  24.461  26.940  11.662
44613W        W17681  44.408   3.322   1.337
44614W        W17682  38.017  38.396  14.296
44615W        W17683   1.871  12.764  10.638
44616W        W17684  29.865   2.016   3.276
44617W        W17685  18.318  42.812  11.240
44618W        W17686  15.551  29.133   0.130
44619W        W17687  20.740  20.808   1.869
44620W        W17688  44.414  34.601   4.401
44621W        W17689  40.765  30.212   2.845
44622W        W17690  18.615  15.340  13.487
44623W        W17691  30.508   7.853  14.435
44624W        W17692  12.162  22.753   3.165
44625W        W17693  38.409  40.590   1.233
44626W        W17694   3.979  44.950  12.057
44627W        W17695  19.893  37.897  13.211
44628W        W17696   5.318  27.466   4.589
44629W        W17697  42.198  27.771   1.269
44630W        W17698  28.417  40.933   4.712
44631W        W17699   7.756  30.631  11.972
44632W        W17700  30.430   3.387   0.390
44633W        W17701  13.586   3.463   3.675
44634W        W17702  39.106  21.087   3.270
44635W        W17703  23.109  36.624   3.569
44636W        W17704   5.849  21.308  12.546
44637W        W17705  17.866  43.491  14.679
44638W        W17706  44.038  36.771   3.790
44639W        W17707  31.684  22.732   1.463
44640W        W17708  38.807   0.777  14.534
44641W        W17709  15.213   3.409  14.871
44642W        W17710  27.265   9.777  12.473
44643W        W17711  31.945   6.203  14.245
44644W        W17712   3.808  25.542   0.613
44645W        W17713  16.569  38.062   1.875
44646W        W17714   0.750  44.371  12.378
44647W        W17715  38.103  30.081  12.334
44648W        W17716   5.725   7.058  11.139
44649W        W17717  18.370  12.127   2.839
44650W        W17718   1.493  44.287   0.929
44651W        W17719  40.365   6.804   0.502
44652W        W17720  41.960  19.257  14.932
44653W        W17721  16.932  13.203  12.335
44654W        W17722  26.182   3.118   3.413
44655W        W17723  18.983  21.604  13.124
44656W        W17724  36.990  12.248  13.225
44657W        W17725  13.343  13.360  14.324
44658W        W17726  31.948  20.719   3.673
44659W        W17727   2.524  23.729  10.590
44660W        W17728  43.055  11.758   3.639
44661W        W17729  24.166  22.165   3.724
44662W        W17730   3.320   5.986  14.126
44663W        W17731  28.037   7.756  12.024
44664W        W17732  30.881  26.977   4.624
44665W        W17733   3.428  31.208   2.283
44666W        W17734  21.709  37.363  10.657
44667W        W17735   4.263  36.678   5.000
44668W        W17736  14.570  28.152   2.211
44669W        W17737   8.412  41.850   1.776
44670W        W17738   2.101  15.818   0.719
44671W        W17739   8.436  34.213   3.856
44672W        W17740   8.181  14.206  12.327
44673W        W17741  10.300  31.346  10.335
44674W        W17742   3.918  14.749   4.864
44675W        W17743   8.028  36.842  12.673
44676W        W17744  27.216  44.461   1.980
44677W        W17745  10.270   8.263  13.912
44678W        W17746  13.354   0.824   4.196
44679W        W17747  26.036  17.559   4.831
44680W        W17748  23.633  16.738  12.436
44681W        W17749  40.438  23.558  12.991
44682W        W17750  24.176  25.967  12.423
44683W        W17751  17.287  23.814  11.191
44684W        W17752   1.963  24.175   3.204
44685W        W17753  10.431   7.586   1.303
44686W        W17754   9.088  33.812   0.027
44687W        W17755  36.279   7.417  11.193
44688W        W17756  28.546  15.219  12.760
44689W        W17757  11.656  43.890   2.561
44690W        W17758  33.877   8.213  13.576
44691W        W17759  30.414   4.198  11.464
44692W        W17760  43.268   4.416   3.724
44693W        W17761  10.720  24.417  13.310
44694W        W17762  22.475  26.999   4.760
44695W        W17763  39.015  33.859   0.394
44696W        W17764  20.321  19.652   2.665
44697W        W17765  14.180  26.641  13.394
44698W        W17766  11.126   8.784   3.196
44699W        W17767   4.471  10.890   3.214
44700W        W17768  29.608  43.359   1.867
44701W        W17769  43.027   7.797  12.654
44702W        W17770  23.691  32.068   3.638
44703W        W17771  17.242  15.293  11.222
44704W        W17772  28.192  32.427   2.301
44705W        W17773  29.702  36.532  14.273
44706W        W17774  11.325  27.668   2.740
44707W        W17775  41.938  26.229  13.911
44708W        W17776   0.809  23.148  10.739
44709W        W17777  13.393  43.285  13.534
44710W        W17778  28.611  12.213  10.382
44711W        W17779   0.264  30.499  11.582
44712W        W17780  31.802  14.142  13.835
44713W        W17781  36.968  39.254  14.417
44714W        W17782  22.505  20.216  13.479
44715W        W17783  22.686  36.357  14.902
44716W        W17784  35.174  23.784  14.242
44717W        W17785  27.161  28.562   1.453
44718W        W17786   4.315  44.535  10.643
44719W        W17787  32.094  40.510   1.379
44720W        W17788  33.536  44.076  12.520
44721W        W17789  19.585  28.577   3.361
44722W        W17790   0.528  39.298  12.051
44723W        W17791  23.959  27.115  11.671
44724W        W17792  33.820  22.242   4.062
44725W        W17793  14.552  43.321  14.426
44726W        W17794  30.022   1.180   1.385
44727W        W17795   3.706  13.368  14.889
44728W        W17796   4.042  27.628   1.633
44729W        W17797  15.394   3.003  12.768
44730W        W17798  12.902  33.565   3.252
44731W        W17799  34.997  14.531  13.374
44732W        W17800  44.344  33.425   3.725
44733W        W17801  39.955  19.809  12.075
44734W        W17802  16.310  28.640  11.316
44735W        W17803  28.499  22.971   3.471
44736W        W17804  43.773  26.097   3.271
44737W        W17805  31.616  19.949  12.502
44738W        W17806  22.025  12.144  11.993
44739W        W17807  10.610  17.752   3.290
44740W        W17808   1.300  33.085   0.197
44741W        W17809  33.864  31.884  12.432
44742W        W17810   6.815   1.069  11.446
44743W        W17811  12.700  40.948   4.760
44744W        W17812   6.593  27.939   3.661
44745W        W17813  13.826  23.008  14.774
44746W        W17814   9.253  13.600   4.183
44747W        W17815  37.046  39.606   2.373
44748W        W17816  36.568   0.448  14.850
44749W        W17817  41.408   2.476   3.822
44750W        W17818  16.888  21.113  12.898
44751W        W17819   6.102  12.206   2.328
44752W        W17820  17.655  30.032   4.295
44753W        W17821  37.937   2.880  13.132
44754W        W17822  40.320  38.987   2.793
44755W        W17823   6.473   3.028   0.391
44756W        W17824   1.919  18.983  14.393
44757W        W17825  30.183  10.198   2.326
44758W        W17826   7.480  19.231  12.217
44759W        W17827  37.581   4.526  14.325
44760W        W17828  40.182  36.792   4.521
44761W        W17829   1.555  13.905  14.440
44762W        W17830  19.740  23.859   3.385
44763W        W17831  29.395  36.531  14.914
44764W        W17832  16.327  23.902  11.178
44765W        W17833  32.418  35.582  11.467
44766W        W17834  40.039   0.951   1.108
44767W        W17835   1.400   2.252   2.311
44768W        W17836   5.390  26.447  13.868
44769W        W17837   0.274  41.808   4.186
44770W        W17838  34.438  35.575  13.859
44771W        W17839  24.112   3.193  13.294
44772W        W17840  17.914  19.921   1.189
44773W        W17841  27.041  15.709  14.932
44774W        W17842  17.818  43.806  11.450
44775W        W17843  35.307  20.013   2.251
44776W        W17844  31.672  28.615   0.810
44777W        W17845  17.136  20.630   0.539
44778W        W17846  19.016  32.536   3.557
44779W        W17847  44.533   7.233  11.080
44780W        W17848  12.842   6.436   4.392
44781W        W17849  24.707  11.618   1.288
44782W        W17850  16.294  26.753   1.322
44783W        W17851   1.920  39.824  12.465
44784W        W17852  23.726  13.909   4.178
44785W        W17853  10.802  26.817  11.437
44786W        W17854   4.178  12.262   4.109
44787W        W17855   6.687  32.924  11.179
44788W        W17856  33.100  16.378   1.475
44789W        W17857  44.824  28.512  11.839
44790W        W17858   6.445  29.193  12.898
44791W        W17859  40.831  14.669  11.624
44792W        W17860   7.872   2.161  10.490
44793W        W17861   7.211  31.966   2.198
44794W        W17862  17.258   7.221  13.487
44795W        W17863  14.867  41.348  12.295
44796W        W17864  17.241  41.796   2.224
44797W        W17865  37.558  12.153  10.477
44798W        W17866   0.198  28.928   0.784
44799W        W17867   6.674  31.630  13.975
44800W        W17868  41.526  30.080  11.600
44801W        W17869  17.270  15.347   0.928
44802W        W17870   7.611  16.972   2.691
44803W        W17871   6.165  10.698  14.581
44804W        W17872   1.548   0.574  14.089
44805W        W17873   6.131  24.688  13.891
44806W        W17874  31.552  34.069   3.584
44807W        W17875  41.228  18.356   1.119
44808W        W17876  10.217   0.457  14.974
44809W        W17877  11.664  38.776  12.566
44810W        W17878   4.496  33.586  13.581
44811W        W17879  26.580  36.430   4.646
44812W        W17880  22.743  29.450  13.757
44813W        W17881  33.946  22.659  14.028
44814W        W17882  30.609  31.707   1.755
44815W        W17883  10.129   5.666  14.580
44816W        W17884  21.201   1.790  12.574
44817W        W17885  21.719   5.928   4.192
44818W        W17886  24.498  40.704   3.759
44819W        W17887   6.773   8.370  11.085
44820W        W17888  17.164   9.864  14.702
44821W        W17889  37.597  25.524  12.160
44822W        W17890  13.153  38.213   2.385
44823W        W17891  33.958   6.514   4.709
44824W        W17892  22.718  13.446   1.783
44825W        W17893   3.736   2.445   2.789
44826W        W17894   1.205   6.936   0.465
44827W        W17895   4.631  17.727   0.037
44828W        W17896  29.977  35.362   1.263
44829W        W17897  25.538  11.233   1.514
44830W        W17898  25.392  18.974  14.817
44831W        W17899  27.648  21.562   1.966
44832W        W17900   9.147   8.590  11.080
44833W        W17901   9.005  33.869   4.717
44834W        W17902  40.998   3.320   0.661
44835W        W17903  24.581  31.865  10.160
44836W        W17904  11.184  14.078   1.079
44837W        W17905   5.644   1.953   0.299
44838W        W17906   0.297  21.277  12.369
44839W        W17907   0.471   1.752  12.570
44840W        W17908   1.693  28.909  12.917
44841W        W17909  17.770   8.985   4.586
44842W        W17910  23.431  21.066  14.775
44843W        W17911   1.015  37.265   0.855
44844W        W17912   0.342  27.651   1.469
44845W        W17913   6.453  30.109  14.010
44846W        W17914   2.386  32.186   4.539
44847W        W17915   8.839  17.316  14.358
44848W        W17916  37.926  37.502  13.755
44849W        W17917   4.282  18.153  13.041
44850W        W17918  23.491  11.094   0.241
44851W        W17919  15.049  14.155  12.333
44852W        W17920  21.163   3.781   0.427
44853W        W17921  25.288  38.326   2.440
44854W        W17922   8.939  40.935  14.047
44855W        W17923   5.209  12.308   2.357
44856W        W17924   7.138  30.901  11.112
44857W        W17925   4.799  39.515   0.265
44858W        W17926  18.679  35.112  11.916
44859W        W17927   4.287  12.429   3.341
44860W        W17928  31.203  34.518   3.771
44861W        W17929  17.742  13.398   1.307
44862W        W17930  35.516  26.461   2.317
44863W        W17931  19.008   9.235  10.709
44864W        W17932  33.452  18.265  14.086
44865W        W17933  41.812  40.462   3.279
44866W        W17934   2.033  12.640   3.234
44867W        W17935  19.854  28.205   4.519
44868W        W17936  14.673  19.823  11.576
44869W        W17937   8.917  23.444  11.186
44870W        W17938  27.709  41.926   3.207
44871W        W17939   4.441  30.661  10.751
44872W        W17940  16.813  23.690  14.611
44873W        W17941  12.815  10.591  12.069
44874W        W17942  26.285  26.994  10.677
44875W        W17943  10.725  28.032  12.625
44876W        W17944  39.896   4.321   4.131
44877W        W17945  42.741  44.140  11.068
44878W        W17946  13.983  11.805   2.062
44879W        W17947  11.249  11.748   0.875
44880W        W17948  42.516  27.252   2.874
44881W        W17949  39.095  40.997  14.320
44882W        W17950  43.764  36.023   2.220
44883W        W17951   1.479  30.413  11.093
44884W        W17952  20.318  40.276   1.360
44885W        W17953   1.477  35.057  13.943
44886W        W17954   4.078  19.558  14.485
44887W        W17955  41.726  14.046   0.968
44888W        W17956  25.140  39.903  14.092
44889W        W17957   3.243  42.644   3.260
44890W        W17958   5.631  40.267   4.431
44891W        W17959  36.473  17.119  13.893
44892W        W17960  44.509  41.012  14.927
44893W        W17961  33.388  36.822   1.256
44894W        W17962  29.202  14.381   4.134
44895W        W17963  20.186   5.728   0.647
44896W        W17964  41.776  14.600   2.712
44897W        W17965  41.383  40.514   4.581
44898W        W17966   0.318  41.165   3.700
44899W        W17967  38.612   8.692  11.461
44900W        W17968  30.163   3.571   4.078
44901W        W17969   5.397  16.321  12.394
44902W        W17970  37.380  29.144   3.648
44903W        W17971  14.186  37.457   0.447
44904W        W17972  44.475   7.225  13.875
44905W        W17973  44.975  42.737  12.291
44906W        W17974  28.393  21.324  14.386
44907W        W17975  18.452  35.635  13.232
44908W        W17976  17.649  23.983   4.518
44909W        W17977  40.661   2.878   3.329
44910W        W17978  14.855  16.490   3.533
44911W        W17979  13.641  26.308  12.470
44912W        W17980  39.545  32.698  14.005
44913W        W17981  30.050   3.589  13.509
44914W        W17982  29.937  30.612  12.826
44915W        W17983  39.569   4.101  14.841
44916W        W17984  31.259   4.172  13.959
44917W        W17985  40.541  34.933   3.120
44918W        W17986  22.418  23.198  12.948
44919W        W17987  44.800   5.156   3.310
44920W        W17988  29.501  36.059  13.111
44921W        W17989  40.485  16.453   4.159
44922W        W17990   0.741  27.050  13.651
44923W        W17991  18.636  36.906   0.916
44924W        W17992  29.585  10.946  11.656
44925W        W17993  31.939  26.679  10.572
44926W        W17994  29.087  18.680   0.584
44927W        W17995  36.573   3.073  11.135
44928W        W17996   5.705  11.231   1.466
44929W        W17997  26.357  35.507   5.010
44930W        W17998  21.996  18.229  11.105
44931W        W17999  26.642  30.841   3.606
44932W        W18000  30.831  18.577   2.305
44933W        W18001  16.105   6.284  10.816
44934W        W18002  27.451  43.981   2.025
44935W        W18003  37.086  21.655  11.020
44936W        W18004  29.584   0.886  12.903
44937W        W18005  27.284   3.825  12.243
44938W        W18006  25.769  31.019   1.736
44939W        W18007  40.008  12.186   0.345
44940W        W18008  40.549  40.179  11.548
44941W        W18009  26.948   8.327  12.538
44942W        W18010  36.638   6.770   1.478
44943W        W18011  32.524  10.853   1.727
44944W        W18012  23.939  29.158   9.791
44945W        W18013  21.709  39.024   4.783
44946W        W18014   1.539  36.232   1.997
44947W        W18015  14.057  31.982  13.871
44948W        W18016  24.932  16.188   2.200
44949W        W18017  41.510  13.738  11.930
44950W        W18018  17.533  44.956  11.557
44951W        W18019  39.585  10.505   2.755
44952W        W18020   7.418  35.519  11.552
44953W        W18021   3.780  30.866   0.013
44954W        W18022  23.004  18.689  14.379
44955W        W18023  18.071  27.185  12.554
44956W        W18024  29.994  10.835   4.526
44957W        W18025  17.287  22.347  14.986
44958W        W18026   3.921  26.998   2.368
44959W        W18027  35.627  44.918   0.984
44960W        W18028  13.182   9.365  12.914
44961W        W18029  19.037   3.477   2.319
44962W        W18030   7.575  14.001   3.900
44963W        W18031  29.393   5.191   1.671
44964W        W18032  42.106  10.009  12.034
44965W        W18033  42.992  29.636   3.279
44966W        W18034  15.743   6.605   0.834
44967W        W18035  41.714  38.812   4.622
44968W        W18036  37.558  32.519   2.342
44969W        W18037  19.495  35.001  11.603
44970W        W18038   8.187  41.609   4.104
44971W        W18039  41.891  13.953  11.636
44972W        W18040  41.526  30.298  12.529
44973W        W18041  18.289  18.361  12.065
44974W        W18042   3.742  41.162  10.453
44975W        W18043   1.209  21.726   2.166
44976W        W18044   1.212  41.712  10.964
44977W        W18045  15.099  15.603  12.820
44978W        W18046  30.726  27.725  14.427
44979W        W18047  44.983  20.039   3.221
44980W        W18048  36.695  17.286  14.338
44981W        W18049  14.922  18.597   1.834
44982W        W18050  29.664   1.391  13.734
44983W        W18051  40.063  34.941   3.414
44984W        W18052  31.683   1.534   2.644
44985W        W18053  32.864  27.742  11.624
44986W        W18054  43.948  26.292   1.926
44987W        W18055  16.772  30.348   1.869
44988W        W18056   6.690  20.104   2.339
44989W        W18057  39.843  31.050   1.924
44990W        W18058  36.616  13.812   2.309
44991W        W18059  24.722  41.915  11.518
44992W        W18060  12.841  34.908  11.111
44993W        W18061  11.762  28.169   2.108
44994W        W18062  38.355  22.580  11.093
44995W        W18063  41.008  13.284  10.305
44996W        W18064   6.085  32.979   2.672
44997W        W18065   6.064  10.927   4.031
44998W        W18066  11.402  10.730  14.241
44999W        W18067   7.014   8.153  14.004
45000W        W18068   3.501  20.278  10.909
45001W        W18069   1.650  20.700   3.756
45002W        W18070   6.313  15.695   2.378
45003W        W18071  40.864  39.157   4.918
45004W        W18072   0.691   8.157   3.985
45005W        W18073  13.136  42.571   0.256
45006W        W18074  38.395  37.366  13.395
45007W        W18075   4.687  38.630   1.604
45008W        W18076   3.306   5.430   0.315
45009W        W18077  43.096  32.332   4.511
45010W        W18078  33.238  19.645   2.853
45011W        W18079  11.400  21.732   4.295
45012W        W18080  15.577  32.604   4.265
45013W        W18081  24.233   6.009  13.485
45014W        W18082  20.177   1.072  11.251
45015W        W18083   4.110  22.476   0.368
45016W        W18084   0.849  11.808  14.504
45017W        W18085  38.976   1.759   4.106
45018W        W18086   3.427  34.378  13.535
45019W        W18087  32.893  41.268   4.869
45020W        W18088  44.384   0.692  13.986
45021W        W18089   2.444  43.772   1.016
45022W        W18090  36.497   7.287  13.801
45023W        W18091   8.410  20.504   0.902
45024W        W18092   2.494  40.816   0.035
45025W        W18093  41.994  23.203  14.503
45026W        W18094  41.425   0.842  12.340
45027W        W18095  39.359  30.728   2.649
45028W        W18096  15.616  25.271   2.942
45029W        W18097   5.233  38.727  12.479
45030W        W18098   2.692  39.077   0.095
45031W        W18099  16.729  16.095  10.668
45032W        W18100  38.001  42.935  11.524
45033W        W18101   6.221  26.623   4.098
45034W        W18102  29.063   8.994   3.169
45035W        W18103  15.268  13.670  13.489
45036W        W18104  31.157   1.761  12.914
45037W        W18105   8.228  28.052  14.095
45038W        W18106  30.374  18.227   1.357
45039W        W18107   8.281  38.218   4.152
45040W        W18108  23.713  40.027  11.662
45041W        W18109   0.917  33.378   1.185
45042W        W18110   0.861  18.335   0.430
45043W        W18111  13.599  41.437  13.599
45044W        W18112  23.111  43.469  11.520
45045W        W18113  34.987  43.937  14.027
45046W        W18114  29.606  14.308   3.548
45047W        W18115   7.090   1.949  10.793
45048W        W18116   8.270  24.751   0.111
45049W        W18117  19.139   5.828   0.675
45050W        W18118  13.854  23.737  13.409
45051W        W18119  39.120   6.126  13.130
45052W        W18120  33.005  15.637  12.302
45053W        W18121   3.195  37.331   4.077
45054W        W18122   3.633  18.103   5.184
45055W        W18123  40.026  20.721   1.858
45056W        W18124   4.286  39.556  11.219
45057W        W18125  22.254  16.839  14.513
45058W        W18126   8.175  37.053   0.921
45059W        W18127   7.148  29.926  14.811
45060W        W18128  20.179  25.880   1.293
45061W        W18129  31.980  39.017  13.763
45062W        W18130  41.733  11.870   2.242
45063W        W18131   8.828  23.498   1.010
45064W        W18132   2.019  18.694  13.914
45065W        W18133   7.647  21.687  12.433
45066W        W18134  21.118  25.726  14.526
45067W        W18135  38.320  23.583  13.927
45068W        W18136  40.549   1.915   4.584
45069W        W18137  34.498   6.364  14.068
45070W        W18138  23.737  25.264  14.354
45071W        W18139  10.578  40.894  11.091
45072W        W18140  43.837   1.439   4.233
45073W        W18141  33.552   2.204   0.939
45074W        W18142   1.113  19.722   3.828
45075W        W18143   5.949   7.707   4.782
45076W        W18144  35.827   8.849   0.668
45077W        W18145   1.227  26.669   0.071
45078W        W18146  43.888  16.698   1.461
45079W        W18147   3.216  11.213   0.360
45080W        W18148   7.609  21.241   3.600
45081W        W18149   0.357  35.038   1.577
45082W        W18150  12.086   2.479  12.952
45083W        W18151  12.125  39.866  11.133
45084W        W18152  22.569  24.182  13.807
45085W        W18153  41.889  15.299  13.818
45086W        W18154  10.120  18.250  12.896
45087W        W18155  32.567  40.989  11.894
45088W        W18156  41.086  11.014   1.750
45089W        W18157  33.625  37.786  14.159
45090W        W18158  14.099  13.174   4.612
45091W        W18159  39.407  28.033  14.286
45092W        W18160  18.478  36.461  11.637
45093W        W18161  20.095   9.514   2.508
45094W        W18162  14.410   8.118  13.455
45095W        W18163  15.873   8.159  12.503
45096W        W18164  29.700   0.248   4.554
45097W        W18165  14.831  20.608   0.030
45098W        W18166  39.285  41.553  12.111
45099W        W18167  28.613  29.540   2.259
45100W        W18168  18.305  30.188   0.867
45101W        W18169  33.297  14.093   0.791
45102W        W18170  39.476  11.152  11.044
45103W        W18171  24.122  33.664   2.336
45104W        W18172  38.781   6.749  12.097
45105W        W18173  27.164  27.693  13.372
45106W        W18174  26.999  21.963  13.331
45107W        W18175  42.633  32.567   3.809
45108W        W18176  16.192  22.684   1.489
45109W        W18177  24.630  29.605   0.366
45110W        W18178  10.954   6.791  13.420
45111W        W18179  24.585  14.368  11.941
45112W        W18180  38.570  26.151  11.234
45113W        W18181  31.422  38.481   2.933
45114W        W18182  25.026  29.620  14.993
45115W        W18183  17.413  32.336  14.008
45116W        W18184   5.118  39.545   0.667
45117W        W18185  20.969   8.451   0.857
45118W        W18186  12.857  35.809  11.209
45119W        W18187  22.216   3.479  14.965
45120W        W18188  13.043  16.680   0.456
45121W        W18189  10.571   5.658  10.962
45122W        W18190  30.609  35.942   4.102
45123W        W18191  20.172  12.296  13.997
45124W        W18192   7.811   6.061   0.325
45125W        W18193  33.516  34.445   2.854
45126W        W18194  32.497  33.634   1.223
45127W        W18195  41.542  31.577   4.214
45128W        W18196   2.177  24.141  13.054
45129W        W18197  25.029  38.631   4.580
45130W        W18198  40.192  19.034  12.735
45131W        W18199   7.366  26.379  11.113
45132W        W18200  42.478  36.533   3.655
45133W        W18201   7.316  20.238  12.135
45134W        W18202  17.581  44.455  11.652
45135W        W18203   8.069  43.006  14.705
45136W        W18204   8.540  20.676   3.222
45137W        W18205  27.240   0.024  11.116
45138W        W18206  40.468  42.374  11.206
45139W        W18207  10.980  30.045  14.479
45140W        W18208  41.393  42.545   2.263
45141W        W18209  43.147   2.739   2.565
45142W        W18210  44.359  12.595  14.552
45143W        W18211  37.108  35.066   0.695
45144W        W18212  22.588  13.166  14.697
45145W        W18213   7.727  40.573   3.106
45146W        W18214  25.092  24.939  13.371
45147W        W18215   1.958  32.855  11.896
45148W        W18216  22.108  10.433   4.578
45149W        W18217  22.227   0.747   0.509
45150W        W18218  10.438  41.022   1.457
45151W        W18219  36.460  41.336   4.084
45152W        W18220   0.907  30.537  14.489
45153W        W18221  34.461  10.272   4.516
45154W        W18222   5.151   1.983   2.710
45155W        W18223  25.704  12.865   0.473
45156W        W18224  21.063  23.490  13.337
45157W        W18225   2.277  38.376  12.546
45158W        W18226  41.420  24.439   2.178
45159W        W18227   8.729  38.055  11.131
45160W        W18228   4.934  13.118  14.579
45161W        W18229  20.778  20.307   3.202
45162W        W18230  20.191  37.687   3.799
45163W        W18231  27.179  44.312   2.468
45164W        W18232   8.331  17.272   4.862
45165W        W18233  32.356  22.152   0.338
45166W        W18234  41.919  30.670  13.273
45167W        W18235  43.266  23.149   2.245
45168W        W18236  43.308  13.078   0.749
45169W        W18237   5.741  39.238  10.662
45170W        W18238  30.457  34.068  14.515
45171W        W18239  40.388   5.070   2.906
45172W        W18240   4.657  16.173   1.734
45173W        W18241   6.416  11.291  11.305
45174W        W18242  24.578  19.167   1.370
45175W        W18243  10.715  25.795   2.914
45176W        W18244   5.346  19.379   1.160
45177W        W18245  13.125  39.031   0.320
45178W        W18246  36.007  13.667  12.912
45179W        W18247  28.056  42.845  13.107
45180W        W18248  13.620  19.672   3.134
45181W        W18249  19.948  18.864   0.865
45182W        W18250   4.915  11.306  10.893
45183W        W18251  43.454  11.508  12.463
45184W        W18252  20.046   8.273   1.957
45185W        W18253  23.808  33.643   0.263
45186W        W18254  14.285  22.179   2.833
45187W        W18255  10.536  16.728   0.969
45188W        W18256  22.133   1.710  13.143
45189W        W18257   7.221   3.828   4.494
45190W        W18258  23.334  30.535   4.161
45191W        W18259   4.912   5.460   2.451
45192W        W18260  19.969  39.965  11.112
45193W        W18261  13.618  38.965   2.156
45194W        W18262   9.812  20.855   2.777
45195W        W18263  42.180  25.760  11.839
45196W        W18264  25.067   8.892   2.821
45197W        W18265  35.938   5.195  11.614
45198W        W18266  21.066   6.501   2.758
45199W        W18267  37.869  10.278  12.122
45200W        W18268  27.466  14.288   0.606
45201W        W18269  22.962  32.998   0.134
45202W        W18270  20.248  29.409   3.103
45203W        W18271  29.325   4.456   1.723
45204W        W18272  10.902  33.721   2.919
45205W        W18273  40.731  30.971  12.892
45206W        W18274   6.189  39.320  10.992
45207W        W18275  22.589   4.749   3.066
45208W        W18276  33.480  36.164   1.913
45209W        W18277  34.609   3.415  12.829
45210W        W18278   1.862  19.631   3.161
45211W        W18279  39.770   5.793  13.263
45212W        W18280  20.735  14.041  13.003
45213W        W18281  38.631  35.867   4.598
45214W        W18282  27.152  35.074  13.333
45215W        W18283  22.092  28.842   4.141
45216W        W18284  17.782  40.333  11.950
45217W        W18285  11.100   0.722   4.573
45218W        W18286  20.841  29.981   3.357
45219W        W18287  41.958  16.087   0.803
45220W        W18288  33.727  22.175  12.417
45221W        W18289  36.602  15.864  14.250
45222W        W18290  21.713  37.308  13.536
45223W        W18291  41.773  38.423  13.423
45224W        W18292  30.518  30.697  10.906
45225W        W18293  29.166  29.484   3.723
45226W        W18294  10.899  12.827  13.619
45227W        W18295  16.483  39.657  14.353
45228W        W18296  43.222  30.622   2.576
45229W        W18297  23.982   4.674  12.531
45230W        W18298  26.206  33.486  11.636
45231W        W18299  30.347  12.586   2.228
45232W        W18300   1.748  35.466   4.830
45233W        W18301  22.656   4.268  12.311
45234W        W18302  43.755  10.428  14.485
45235W        W18303  21.327  37.340   3.815
45236W        W18304  24.964  12.223  10.280
45237W        W18305   4.215   9.277   0.977
45238W        W18306  28.938  13.497  13.339
45239W        W18307   4.214  23.287  11.067
45240W        W18308  14.855  34.387  13.210
45241W        W18309  22.217  15.747   1.911
45242W        W18310  25.989  33.167  11.051
45243W        W18311   4.330  40.365   0.501
45244W        W18312  22.694  33.588  14.915
45245W        W18313  28.083  25.598   0.186
45246W        W18314  44.422  19.230  12.205
45247W        W18315  38.244  36.417  12.545
45248W        W18316  33.111  35.076   3.177
45249W        W18317  30.060  16.838  12.924
45250W        W18318  18.749  15.902  13.279
45251W        W18319  34.432   4.270  14.743
45252W        W18320  12.024  44.389  10.031
45253W        W18321  36.639  37.078  10.546
45254W        W18322  39.825  26.610  11.469
45255W        W18323  10.350   3.911  10.472
45256W        W18324   1.033  12.808   1.050
45257W        W18325  38.451  29.915  12.696
45258W        W18326  16.879  38.050   4.858
45259W        W18327  33.234  19.041   4.989
45260W        W18328  19.653  18.362   2.839
45261W        W18329  16.311   0.510  12.147
45262W        W18330   7.840  40.515   3.595
45263W        W18331  40.996  34.582  12.898
45264W        W18332  24.521  26.282   2.085
45265W        W18333  23.597  39.050  12.576
45266W        W18334  11.658   5.856  12.813
45267W        W18335  28.294   9.229  14.116
45268W        W18336  21.525  28.119  13.293
45269W        W18337   8.755  40.538  14.309
45270W        W18338   6.367  35.596  13.739
45271W        W18339  31.832  30.109   0.899
45272W        W18340  43.338  43.066  11.678
45273W        W18341  22.203  32.833  11.045
45274W        W18342  42.542  28.116  14.338
45275W        W18343  30.721  40.981  11.841
45276W        W18344  29.664   5.997  11.177
45277W        W18345  21.694   0.583   4.550
45278W        W18346  19.257  44.412   1.738
45279W        W18347   8.416   0.093  14.809
45280W        W18348   8.759  32.366  11.439
45281W        W18349  22.168  40.730   2.438
45282W        W18350  36.876  42.033   0.652
45283W        W18351  42.260   3.339   4.185
45284W        W18352  43.450  23.678   1.688
45285W        W18353  43.065  17.134   3.246
45286W        W18354  39.373   8.778  14.278
45287W        W18355  32.711  41.455   1.715
45288W        W18356  35.354   1.425  12.130
45289W        W18357  28.208  14.774  11.336
45290W        W18358   6.687  10.419  13.362
45291W        W18359  12.140  29.886   3.419
45292W        W18360  29.895  13.601  10.682
45293W        W18361  22.680  39.756   3.284
45294W        W18362  28.873  11.446  10.650
45295W        W18363  37.928  41.970  13.488
45296W        W18364   9.421  11.109  11.175
45297W        W18365  34.792  26.111  11.404
45298W        W18366  20.593  30.645   2.796
45299W        W18367  40.345  33.003   2.176
45300W        W18368  36.595  27.535   3.125
45301W        W18369  29.416  25.948  12.611
45302W        W18370  28.479   4.130  14.789
45303W        W18371   7.274   8.163  14.996
45304W        W18372  39.681   3.790   4.126
45305W        W18373  44.437   4.493  14.411
45306W        W18374  17.235  22.234   2.783
45307W        W18375  40.541  26.356  11.099
45308W        W18376  15.680   3.251  14.451
45309W        W18377  28.212  29.409  11.213
45310W        W18378  29.122  24.107   3.779
45311W        W18379  36.038  38.152   2.341
45312W        W18380  39.525  20.766   1.279
45313W        W18381   5.082  34.364  14.882
45314W        W18382   3.850   9.242  11.920
45315W        W18383   1.475  29.211   0.327
45316W        W18384  28.748   9.440  11.107
45317W        W18385  41.161  22.537   1.913
45318W        W18386  33.063   3.266   4.954
45319W        W18387  44.844  24.232  13.544
45320W        W18388   7.433  34.447   3.667
45321W        W18389  21.317   1.103   2.241
45322W        W18390  25.909   5.265   2.282
45323W        W18391  31.089  11.236  12.418
45324W        W18392  44.959  12.074   0.897
45325W        W18393  27.028  23.137  14.773
45326W        W18394  21.023  22.108  13.117
45327W        W18395   4.736  26.257   3.648
45328W        W18396   9.360  10.608  13.652
45329W        W18397  25.331  34.808   1.797
45330W        W18398   7.881  42.013   3.996
45331W        W18399  16.438   9.307  12.532
45332W        W18400  44.707  23.620  10.366
45333W        W18401  21.582  16.332  11.648
45334W        W18402  10.730  18.781  11.605
45335W        W18403  42.656  11.848  10.708
45336W        W18404  35.667  40.888   1.717
45337W        W18405  20.729   6.773  12.195
45338W        W18406  31.327  34.655   4.270
45339W        W18407  16.525  40.606  14.828
45340W        W18408  32.853  41.079   0.316
45341W        W18409  27.033  23.768   4.214
45342W        W18410   0.998  24.004   2.341
45343W        W18411  29.590   7.948  12.820
45344W        W18412   0.850  10.364   3.168
45345W        W18413  22.785  44.064  12.899
45346W        W18414  43.920  18.495  14.890
45347W        W18415  18.759  34.020  13.863
45348W        W18416  36.261  43.611   5.026
45349W        W18417  20.825   0.360  11.733
45350W        W18418  41.449   2.035  14.320
45351W        W18419  16.549  34.015  11.807
45352W        W18420   3.885   2.449  10.891
45353W        W18421  10.689  36.402   4.839
45354W        W18422  23.908   1.119   2.915
45355W        W18423  38.061   4.867   0.015
45356W        W18424  31.093  31.092  14.439
45357W        W18425  41.523  15.885   0.982
45358W        W18426  30.156  16.562   0.410
45359W        W18427  35.045  19.224   1.840
45360W        W18428   4.096  16.999  14.006
45361W        W18429   5.668  38.776   3.296
45362W        W18430   3.630  16.265  10.309
45363W        W18431   1.456  12.088  11.063
45364W        W18432  20.319   3.729  14.451
45365W        W18433  34.329   2.966   3.721
45366W        W18434  38.473  41.934  12.391
45367W        W18435  21.633   7.934   3.577
45368W        W18436  17.582  29.530  10.795
45369W        W18437   2.380   8.318  13.911
45370W        W18438  38.962   6.172   4.643
45371W        W18439  37.346   9.194   1.764
45372W        W18440  22.224   3.467   2.530
45373W        W18441  38.540  33.065   3.415
45374W        W18442  10.273  15.857  11.572
45375W        W18443   5.736   4.448  13.539
45376W        W18444  29.683  43.764  11.070
45377W        W18445  35.075  31.126   0.751
45378W        W18446  36.913  28.254  10.768
45379W        W18447  22.597  42.010  14.693
45380W        W18448   7.420  23.670  13.777
45381W        W18449  40.423  12.476   1.664
45382W        W18450  12.369  36.831   3.304
45383W        W18451  33.813  21.302  13.424
45384W        W18452  44.824  30.312  12.984
45385W        W18453  33.573  29.975  13.755
45386W        W18454  15.169   8.211  13.964
45387W        W18455  26.965  39.144   4.938
45388W        W18456  34.877   8.903   0.883
45389W        W18457  43.764  10.661   4.176
45390W        W18458  34.426  36.584   4.252
45391W        W18459  22.924  27.620  11.971
45392W        W18460  29.507   3.151   5.200
45393W        W18461  25.485  26.163   2.336
45394W        W18462  13.811  21.202   2.713
45395W        W18463  25.988  18.525  12.985
45396W        W18464  12.135  21.558  11.904
45397W        W18465   6.719  33.506   3.054
45398W        W18466  42.409  43.470  10.819
45399W        W18467  16.465  18.756   3.355
45400W        W18468   0.820  35.090  14.798
45401W        W18469  10.214  12.929  10.518
45402W        W18470  37.882  27.116   2.129
45403W        W18471  22.445  25.480  12.022
45404W        W18472   3.719  34.680  12.415
45405W        W18473  24.171  15.710  13.412
45406W        W18474  17.598   8.756  12.779
45407W        W18475  44.640  33.360   4.663
45408W        W18476   8.206  36.339   0.213
45409W        W18477  39.914   6.912  12.626
45410W        W18478  10.670  25.562   0.386
45411W        W18479  41.272  19.976  11.138
45412W        W18480  27.182  33.247   4.651
45413W        W18481  16.956  43.286   4.881
45414W        W18482  43.433   3.788   1.965
45415W        W18483   4.931  38.403  11.018
45416W        W18484  36.001  19.122  14.735
45417W        W18485  24.330  18.786  10.425
45418W        W18486   8.444  11.789   0.512
45419W        W18487  44.844  38.762  14.425
45420W        W18488   4.614  33.005  13.812
45421W        W18489   2.338   6.193  13.492
45422W        W18490  12.275  21.233  10.669
45423W        W18491  11.307   2.272  12.628
45424W        W18492   3.434  37.185  11.918
45425W        W18493  19.539   1.478  14.417
45426W        W18494  21.813  19.639  12.117
45427W        W18495   2.292  21.935   2.673
45428W        W18496   5.096   6.994   0.781
45429W        W18497   4.472  12.233   2.769
45430W        W18498  21.336  25.604   4.106
45431W        W18499  13.560   8.254   1.865
45432W        W18500  11.615  13.622   1.250
45433W        W18501  22.074  33.008   2.949
45434W        W18502  21.476  11.728   1.262
45435W        W18503  20.509  41.607  10.552
45436W        W18504  38.229  40.921   2.398
45437W        W18505   9.324  25.446  12.872
45438W        W18506  12.330  10.778   4.224
45439W        W18507   4.484  41.939  11.438
45440W        W18508  26.832  15.283  10.933
45441W        W18509  42.777  29.069  13.444
45442W        W18510  25.287  33.023  14.382
45443W        W18511  26.185  36.928  11.743
45444W        W18512   6.505  27.427   0.414
45445W        W18513  28.308  31.549   3.221
45446W        W18514  24.291  31.669  12.010
45447W        W18515  27.874  29.149  10.823
45448W        W18516  23.572   2.018  13.756
45449W        W18517  37.143  15.246  11.185
45450W        W18518  30.667  33.811   3.202
45451W        W18519   1.811  43.178  13.066
45452W        W18520  40.791  11.753   3.243
45453W        W18521  41.838  28.153   1.167
45454W        W18522   5.517   2.610   1.425
45455W        W18523  27.622   3.318  12.973
45456W        W18524  42.957  11.273   3.447
45457W        W18525  10.207  14.661  12.025
45458W        W18526  24.623  13.145  11.138
45459W        W18527  13.638   9.976  11.922
45460W        W18528  17.231  23.482  12.514
45461W        W18529  28.529  15.300  13.332
45462W        W18530  14.188  30.345  11.550
45463W        W18531   2.391  12.416   0.842
45464W        W18532  40.327  34.643   0.400
45465W        W18533  27.264  39.376  14.726
45466W        W18534  16.116  41.234  13.011
45467W        W18535   9.334  29.574  14.820
45468W        W18536  42.585   8.646  12.136
45469W        W18537  34.409  29.119   3.760
45470W        W18538  21.173   3.339  14.525
45471W        W18539  28.092  26.073   3.194
45472W        W18540  17.643  17.076  13.173
45473W        W18541  16.799  15.752   3.944
45474W        W18542  12.260  30.989  12.673
45475W        W18543  12.856  31.040  13.884
45476W        W18544   2.922  33.405   4.168
45477W        W18545  41.504  19.665   4.845
45478W        W18546   1.801  13.392  11.116
45479W        W18547  30.617   3.288   3.295
45480W        W18548  28.627  31.892  12.017
45481W        W18549  20.566  41.311  10.969
45482W        W18550  29.182   0.080  13.596
45483W        W18551  25.073  11.603   0.795
45484W        W18552  12.417  10.145  14.559
45485W        W18553  15.139  30.217   1.751
45486W        W18554  19.162  28.893   3.298
45487W        W18555   9.431   2.299   4.935
45488W        W18556  12.288  19.759  14.783
45489W        W18557  40.307  42.881   3.742
45490W        W18558   8.921  10.119   1.791
45491W        W18559   5.954  10.203  13.868
45492W        W18560  24.362  10.568   9.910
45493W        W18561   8.744  29.660   3.801
45494W        W18562  37.678   1.251  14.902
45495W        W18563   5.895  10.192  12.065
45496W        W18564   3.980  12.228   0.242
45497W        W18565  16.609   2.212  12.344
45498W        W18566  42.709  32.246   1.806
45499W        W18567  38.241  35.366   4.107
45500W        W18568  15.885   3.423   4.229
45501W        W18569  25.053  21.634   4.205
45502W        W18570  35.365  25.201  13.804
45503W        W18571  30.807  40.439   3.306
45504W        W18572  43.512  29.963   3.727
45505W        W18573  42.082  15.171  14.268
45506W        W18574  26.681  40.075  13.917
45507W        W18575  17.150  35.113   4.909
45508W        W18576  31.338  16.758   3.829
45509W        W18577  25.502   8.439   1.348
45510W        W18578   6.883  33.438  13.375
45511W        W18579  37.540  26.358   0.822
45512W        W18580  23.672   0.537  14.766
45513W        W18581  13.540  31.973  13.943
45514W        W18582  38.168  27.253  13.370
45515W        W18583  16.892  29.090   2.347
45516W        W18584  30.119  42.650  13.834
45517W        W18585  34.397  17.501  13.286
45518W        W18586  30.006   3.346   2.709
45519W        W18587   0.521  24.560   4.238
45520W        W18588   7.845  28.894  14.440
45521W        W18589  36.242   9.260  11.664
45522W        W18590  44.449  22.100   3.669
45523W        W18591  30.033  39.565   0.783
45524W        W18592  13.053  41.307  11.066
45525W        W18593  10.568  26.801  10.128
45526W        W18594   8.909  43.395   2.865
45527W        W18595  42.932  43.537   4.592
45528W        W18596  20.293  13.806   2.408
45529W        W18597  20.491  40.892  13.469
45530W        W18598  28.094  12.547  13.487
45531W        W18599  33.234  19.786  12.487
45532W        W18600  38.533  40.211   3.474
45533W        W18601  10.650  41.077  12.819
45534W        W18602   1.682   1.556  11.098
45535W        W18603   7.746  39.769   4.559
45536W        W18604  18.201  35.508   0.337
45537W        W18605  38.638   0.971   1.300
45538W        W18606   4.235   3.718   2.384
45539W        W18607  10.282  32.800  11.691
45540W        W18608  27.502  35.064   0.214
45541W        W18609   9.395  18.083  10.469
45542W        W18610  26.150   4.334  14.293
45543W        W18611  41.823   4.741  11.389
45544W        W18612  26.988  30.446   2.394
45545W        W18613  34.458  21.934  13.027
45546W        W18614  37.029  38.301  14.371
45547W        W18615  28.922   1.294   0.500
45548W        W18616   9.225  33.282   1.515
45549W        W18617  37.446  13.566  12.684
45550W        W18618  28.932  11.780  12.390
45551W        W18619  33.881  18.307   1.259
45552W        W18620  18.655  19.459  12.207
45553W        W18621  21.407  18.110  14.674
45554W        W18622  16.219  30.045  11.063
45555W        W18623  21.873   3.515  13.896
45556W        W18624  26.678  28.028   3.306
45557W        W18625  40.462  14.548   0.611
45558W        W18626  28.931   8.385   2.464
45559W        W18627  27.702  40.042  13.009
45560W        W18628  36.845  44.814  11.740
45561W        W18629  26.013  32.927  13.947
45562W        W18630  44.433  41.902   3.773
45563W        W18631  37.930  22.283  11.091
45564W        W18632   2.304  27.551  14.561
45565W        W18633   5.772   3.209   2.894
45566W        W18634  25.534  36.927  10.745
45567W        W18635  35.818  35.918  11.558
45568W        W18636   7.487  13.284  13.996
45569W        W18637  25.352  14.328   1.946
45570W        W18638  26.471  40.278  13.501
45571W        W18639  23.038  25.244   3.864
45572W        W18640  40.337  18.770   1.791
45573W        W18641  31.566  32.842   4.163
45574W        W18642   2.902  41.105  11.141
45575W        W18643   6.173   3.355  11.116
45576W        W18644  31.171  27.683   4.665
45577W        W18645  21.065   4.271  14.095
45578W        W18646  14.957  31.307   4.271
45579W        W18647  36.787  16.381  12.517
45580W        W18648  22.499   0.730  13.787
45581W        W18649  20.564   7.692  11.640
45582W        W18650  40.303  25.371  10.949
45583W        W18651   4.729  17.162   4.530
45584W        W18652  12.332  19.453   0.706
45585W        W18653  16.754  18.265  14.298
45586W        W18654   7.749   5.446   2.899
45587W        W18655  42.991  23.088  12.023
45588W        W18656  37.814  19.061  14.482
45589W        W18657   0.936  18.609  10.710
45590W        W18658  34.124  25.443  11.310
45591W        W18659  20.272  36.611   3.665
45592W        W18660   9.215  24.805   4.819
45593W        W18661  34.961  13.970   2.359
45594W        W18662   8.890  44.929  10.921
45595W        W18663  23.177  10.649  10.583
45596W        W18664  30.924   4.485   0.876
45597W        W18665  19.340  25.059   4.782
45598W        W18666  37.562  14.771   3.963
45599W        W18667   8.724  38.430  11.819
45600W        W18668  20.225  31.071  11.247
45601W        W18669  36.878  44.554   0.633
45602W        W18670  37.762  16.758   4.852
45603W        W18671  18.326  12.495  11.346
45604W        W18672  19.209  40.818   3.303
45605W        W18673  20.593  35.583  13.815
45606W        W18674  35.575   0.137   3.575
45607W        W18675  39.559  38.079   1.793
45608W        W18676  33.403   0.691  10.245
45609W        W18677   7.295  35.536  12.569
45610W        W18678  14.587  32.143  11.632
45611W        W18679  31.978  21.042  11.194
45612W        W18680  18.127   3.666  10.640
45613W        W18681  20.484   1.179   2.425
45614W        W18682  28.625  31.373   0.771
45615W        W18683  44.963  32.353  14.479
45616W        W18684   6.725  36.117   4.629
45617W        W18685  23.505  12.597  13.752
45618W        W18686   2.431  37.823   3.868
45619W        W18687  11.024   4.859  13.392
45620W        W18688   7.868  19.051  12.995
45621W        W18689  12.763  40.949   3.686
45622W        W18690   8.291  41.072  11.221
45623W        W18691  19.713   6.304  13.844
45624W        W18692   7.576  31.363   4.012
45625W        W18693  30.101   3.745  13.011
45626W        W18694  38.365  15.279  12.904
45627W        W18695  40.464   6.629   2.965
45628W        W18696   7.209  28.120  11.513
45629W        W18697  44.292  25.901   1.346
45630W        W18698  29.453  12.504   3.851
45631W        W18699   4.177  20.024  14.255
45632W        W18700   2.851  12.562  11.040
45633W        W18701   5.067   9.810   1.278
45634W        W18702  21.774  19.949  10.796
45635W        W18703  29.042  10.737   2.649
45636W        W18704  15.793  33.055  13.122
45637W        W18705  28.730  42.825   0.635
45638W        W18706  30.564  11.204   3.940
45639W        W18707  25.672  28.034  10.458
45640W        W18708  10.862  37.055   2.233
45641W        W18709  27.009  26.354  10.627
45642W        W18710  19.235  31.990  14.122
45643W        W18711   4.943  12.678  13.392
45644W        W18712   4.421   0.932  12.064
45645W        W18713  11.376  16.313   4.111
45646W        W18714  31.031  37.049   3.627
45647W        W18715  19.968  10.765   2.034
45648W        W18716  35.058  16.412   4.524
45649W        W18717  12.159  33.197   2.741
45650W        W18718   5.159  25.357   2.556
45651W        W18719  23.051  25.193  10.814
45652W        W18720  24.508   4.291  11.993
45653W        W18721   4.162  26.421   1.211
45654W        W18722  24.736  32.097   0.792
45655W        W18723  18.242  44.420  13.874
45656W        W18724  22.074  14.036   2.119
45657W        W18725   9.403  13.760   1.353
45658W        W18726  31.212   6.930  12.802
45659W        W18727  22.776   4.746   1.196
45660W        W18728   8.868   8.739   0.378
45661W        W18729  35.144  12.258  12.975
45662W        W18730  40.466   7.440  10.276
45663W        W18731  38.993  30.627   0.150
45664W        W18732  35.888  21.665   2.174
45665W        W18733  11.173  27.100   0.936
45666W        W18734  18.019  13.255   4.203
45667W        W18735  13.666   4.796  13.492
45668W        W18736  43.213  17.374   0.866
45669W        W18737  31.137  31.032   1.725
45670W        W18738  23.950  41.842   0.979
45671W        W18739  14.122  16.785  13.362
45672W        W18740  35.573   2.940  13.382
45673W        W18741  35.205  42.307   1.238
45674W        W18742  29.801  37.027   3.079
45675W        W18743  32.433  15.557   3.287
45676W        W18744  39.998  23.618   0.365
45677W        W18745  14.109  11.677   4.333
45678W        W18746  34.589  31.542  12.969
45679W        W18747  36.843  12.841   1.411
45680W        W18748  10.491  22.148  14.747
45681W        W18749  32.887   9.806  12.571
45682W        W18750  29.620  27.584   2.678
45683W        W18751  42.026  25.591   3.282
45684W        W18752  31.592  31.658   0.802
45685W        W18753  13.880  37.442   3.774
45686W        W18754  30.571  44.632   3.280
45687W        W18755  34.317  38.972  12.924
45688W        W18756   4.339  24.999   2.847
45689W        W18757  43.077  28.025   5.114
45690W        W18758  39.313  43.008  12.871
45691W        W18759  18.280  22.400   1.788
45692W        W18760  16.237  27.456  12.132
45693W        W18761  22.983  28.475  13.801
45694W        W18762   8.124  20.181  13.509
45695W        W18763   0.139  17.452   2.280
45696W        W18764   5.020   7.567   0.868
45697W        W18765   6.656   1.305  13.347
45698W        W18766  40.744   4.645   0.343
45699W        W18767  35.579  13.155   1.866
45700W        W18768  32.154  40.641  13.049
45701W        W18769  17.538  35.448   3.631
45702W        W18770  10.602  42.676   4.668
45703W        W18771  17.743  17.348   1.435
45704W        W18772  16.007  29.874  13.415
45705W        W18773  34.949   3.188  11.705
45706W        W18774  31.768  28.895   2.364
45707W        W18775  40.921   1.076   9.716
45708W        W18776  20.511  34.717   2.868
45709W        W18777  23.660  10.931  10.691
45710W        W18778   2.319  31.362   3.360
45711W        W18779  35.603  20.714  13.243
45712W        W18780   0.914  32.964   2.007
45713W        W18781  21.684  18.595  13.839
45714W        W18782  21.043  11.540   2.364
45715W        W18783  40.388  34.693   3.748
45716W        W18784  12.218  11.078  11.506
45717W        W18785  22.594  43.586  10.425
45718W        W18786   0.837   3.744   4.963
45719W        W18787  33.610  32.225  14.008
45720W        W18788   0.455   3.982  12.940
45721W        W18789  23.579   4.828   4.943
45722W        W18790  16.212   0.969   3.647
45723W        W18791  35.328  37.864  13.063
45724W        W18792  39.924  14.326   1.760
45725W        W18793  35.961  16.794  12.497
45726W        W18794  42.464  25.474   3.746
45727W        W18795   3.341  21.017  13.538
45728W        W18796   0.368  37.456   1.261
45729W        W18797  22.279  44.467   2.757
45730W        W18798  40.123  26.234   4.409
45731W        W18799   9.046  37.943   3.829
45732W        W18800  44.545  15.020   1.417
45733W        W18801  42.561  27.092   1.949
45734W        W18802  22.971   6.407   0.867
45735W        W18803  10.627  10.052  12.546
45736W        W18804   6.403  38.036  11.565
45737W        W18805  17.621  22.049  13.878
45738W        W18806  27.865  20.885   2.847
45739W        W18807   6.850  40.476   1.029
45740W        W18808  22.656  37.478   4.152
45741W        W18809  40.535  24.627   0.420
45742W        W18810  39.854   2.307  11.005
45743W        W18811  35.779  20.755   3.649
45744W        W18812  33.947  39.820   1.387
45745W        W18813   1.990  33.006  12.986
45746W        W18814  39.509  37.121  12.354
45747W        W18815  26.618  23.912  10.423
45748W        W18816   1.040  28.254   2.208
45749W        W18817  30.309   0.258  11.620
45750W        W18818  17.496  31.422   1.623
45751W        W18819  42.847  19.544  11.719
45752W        W18820  16.099  42.701   0.908
45753W        W18821  19.783   4.753  10.400
45754W        W18822   4.778  42.729   2.705
45755W        W18823   4.734  10.830   2.746
45756W        W18824  37.111  17.454  13.478
45757W        W18825  26.527  41.274   1.343
45758W        W18826  23.526  19.576   2.822
45759W        W18827  13.424  39.432  13.501
45760W        W18828  34.544  12.188  13.959
45761W        W18829  11.933  41.749   4.110
45762W        W18830   2.333   3.207   4.125
45763W        W18831  28.750  34.617   4.041
45764W        W18832  12.087  33.425   2.276
45765W        W18833  36.606  17.399  13.422
45766W        W18834  27.387  24.067   4.534
45767W        W18835   4.007  21.542  11.519
45768W        W18836  34.666  21.084   2.780
45769W        W18837  19.474  24.560   1.429
45770W        W18838  38.592  38.927   0.780
45771W        W18839  15.673  36.520  11.893
45772W        W18840  40.787  43.088   1.017
45773W        W18841  34.831  44.395   4.534
45774W        W18842  31.546  12.113  12.607
45775W        W18843  11.248  31.426   1.731
45776W        W18844  22.327  20.092   3.469
45777W        W18845  26.974  34.531   3.388
45778W        W18846   1.255  43.131  10.557
45779W        W18847  44.268  14.154   4.512
45780W        W18848  16.509  22.464  12.924
45781W        W18849   8.324   5.986   1.979
45782W        W18850  23.243  39.916  11.492
45783W        W18851  44.423  38.892   4.540
45784W        W18852  32.446  16.025  13.720
45785W        W18853  30.516  19.118   4.242
45786W        W18854  37.742  37.389   3.645
45787W        W18855  16.323  10.342   2.751
45788W        W18856  13.847   6.366  10.719
45789W        W18857  37.924  12.925   2.042
45790W        W18858  13.047  42.402  10.748
45791W        W18859  23.922  20.632  14.486
45792W        W18860  38.584   5.897   4.457
45793W        W18861  24.543  19.864   3.013
45794W        W18862  10.136  36.052  13.625
45795W        W18863   2.305  29.382   4.094
45796W        W18864  39.789  16.293  11.722
45797W        W18865  11.260   9.925  13.014
45798W        W18866  39.391  24.576   4.526
45799W        W18867   6.814   6.302  10.782
45800W        W18868  24.322  15.792   2.667
45801W        W18869  35.556  20.598   1.732
45802W        W18870   9.310  26.225   1.780
45803W        W18871  42.283  36.189   3.333
45804W        W18872  26.760  13.161   4.305
45805W        W18873  12.951  15.234   3.328
45806W        W18874  13.353  16.462   0.814
45807W        W18875  34.086  14.260  12.352
45808W        W18876   0.613  28.579   1.490
45809W        W18877   1.846  29.520   0.537
45810W        W18878   5.790  30.183  12.456
45811W        W18879  33.110  43.737  12.091
45812W        W18880   5.745  15.640  13.076
45813W        W18881  33.813  11.750  12.122
45814W        W18882  13.495  32.431  14.765
45815W        W18883  36.845  29.966   0.379
45816W        W18884  37.568  44.528   2.707
45817W        W18885  43.043   1.273  14.536
45818W        W18886   5.698  13.282   2.387
45819W        W18887  27.803   9.731  12.419
45820W        W18888   5.854   3.342  10.689
45821W        W18889  32.651  29.847  11.906
45822W        W18890   7.124  33.326   1.802
45823W        W18891  30.287  32.112  14.487
45824W        W18892  39.600  15.504   3.947
45825W        W18893  38.364  44.796   0.234
45826W        W18894  13.155  28.779   0.287
45827W        W18895   4.647  42.485  11.497
45828W        W18896  15.260   9.781  13.601
45829W        W18897  11.707  21.782   1.993
45830W        W18898  17.402  22.805   2.909
45831W        W18899  44.381  22.469  10.851
45832W        W18900  16.274   8.190   0.518
45833W        W18901  42.014  11.157   4.100
45834W        W18902  35.577   3.648   3.205
45835W        W18903   7.429  16.306   1.367
45836W        W18904  36.946  41.820   2.682
45837W        W18905  24.940  42.272  14.711
45838W        W18906  26.578  24.258  12.449
45839W        W18907   4.432  39.855  13.895
45840W        W18908  22.277  25.029  12.921
45841W        W18909   2.255  31.336   0.411
45842W        W18910  23.035  40.368  12.648
45843W        W18911  36.393  23.007   0.495
45844W        W18912  15.545  42.551  11.129
45845W        W18913  28.376  26.237  11.634
45846W        W18914  12.322  26.266  12.928
45847W        W18915  14.309  36.465   5.116
45848W        W18916  15.777  12.370  13.978
45849W        W18917   8.374  41.385  11.612
45850W        W18918  19.449  34.165  11.849
45851W        W18919  33.090  16.342   3.277
45852W        W18920  15.398  22.188  14.832
45853W        W18921   2.176  31.556  12.163
45854W        W18922  15.496  43.232   4.472
45855W        W18923  24.222  23.093  11.277
45856W        W18924   0.830  21.897  12.947
45857W        W18925  31.921  32.395   3.319
45858W        W18926  20.891  23.570   0.069
45859W        W18927  16.693  25.119  11.602
45860W        W18928   0.459   9.357  14.349
45861W        W18929   7.721  20.255   0.946
45862W        W18930   1.301  32.128  10.829
45863W        W18931  20.559  30.169   3.735
45864W        W18932  15.469  19.977  14.451
45865W        W18933  27.915  16.831  14.363
45866W        W18934  36.284  16.636  13.129
45867W        W18935  43.051  16.103  11.553
45868W        W18936  41.055  10.179  14.968
45869W        W18937  29.910  23.465  14.508
45870W        W18938   2.030  24.105   1.004
45871W        W18939  15.098   1.544  14.356
45872W        W18940  14.497   6.047   5.190
45873W        W18941  12.198  30.536  14.671
45874W        W18942   8.446  23.167   1.271
45875W        W18943  38.596  16.627   2.852
45876W        W18944   6.549  28.998   2.771
45877W        W18945  43.032  39.091   2.240
45878W        W18946  28.489  17.475  13.019
45879W        W18947   5.632  14.588   4.176
45880W        W18948  18.623  24.862  10.834
45881W        W18949  36.540   9.301   2.240
45882W        W18950  26.625   9.326   0.743
45883W        W18951  23.984  18.678   0.764
45884W        W18952  18.342  25.342  11.162
45885W        W18953  31.691  32.708   4.658
45886W        W18954   5.009  31.941  11.880
45887W        W18955  23.376   9.770  11.938
45888W        W18956  29.513  35.845   0.498
45889W        W18957  22.876  44.459   4.946
45890W        W18958  23.280  11.395   2.449
45891W        W18959  10.723  10.331  10.220
45892W        W18960   5.854  34.852   0.819
45893W        W18961   5.741   3.210  12.501
45894W        W18962  22.722  40.426   4.233
45895W        W18963   9.065   9.383  12.109
45896W        W18964  30.996  13.148  14.323
45897W        W18965  28.636   8.627   4.659
45898W        W18966  16.708  38.003  11.038
45899W        W18967  16.826  38.605   3.676
45900W        W18968  28.054  18.094   1.756
45901W        W18969  20.794  28.068   0.791
45902W        W18970   4.481   9.708   0.838
45903W        W18971  39.585  32.886   4.198
45904W        W18972   3.959  25.498  10.926
45905W        W18973  26.423  36.711  14.869
45906W        W18974  15.301   3.028  10.631
45907W        W18975  11.450  17.018   3.715
45908W        W18976  16.908   7.970   0.862
45909W        W18977  23.661  26.993   4.112
45910W        W18978  41.763  34.537  10.655
45911W        W18979  17.916  14.730   2.528
45912W        W18980   7.603  22.742  14.979
45913W        W18981   6.234  19.501   2.063
45914W        W18982  19.604  35.966   1.286
45915W        W18983  14.045  28.994   0.260
45916W        W18984  11.339  20.311   3.233
45917W        W18985  21.539  17.810  11.770
45918W        W18986  22.638  40.749   0.291
45919W        W18987   7.448  43.830   2.810
45920W        W18988  43.207  25.937  14.276
45921W        W18989   3.334  27.246  10.974
45922W        W18990  18.057   4.808  10.801
45923W        W18991  28.676  26.103   4.038
45924W        W18992  33.074  26.177   0.316
45925W        W18993   8.292  25.351  13.453
45926W        W18994  23.095  15.722   3.263
45927W        W18995   3.313  31.551  14.906
45928W        W18996  18.581  13.781   3.443
45929W        W18997  10.956  25.568  12.595
45930W        W18998  26.512   6.811   0.281
45931W        W18999   1.856   6.971  12.035
45932W        W19000  25.563  37.024   3.440
45933W        W19001  44.825  38.617   2.362
45934W        W19002  20.104  18.055  14.089
45935W        W19003   0.561  31.901   4.469
45936W        W19004  40.055  11.773   4.864
45937W        W19005   8.904  31.046   0.604
45938W        W19006  30.956  20.200   1.450
45939W        W19007  15.275  39.523  11.919
45940W        W19008  14.070  31.029   0.320
45941W        W19009  43.313   8.681  11.661
45942W        W19010  11.662  24.737  12.808
45943W        W19011  25.708  31.085   0.786
45944W        W19012   7.721   3.822  11.859
45945W        W19013  12.125  25.643   1.819
45946W        W19014  29.168   3.459  12.495
45947W        W19015  10.791  16.605   4.194
45948W        W19016  38.238   7.405   4.879
45949W        W19017  18.547  10.423  11.631
45950W        W19018   7.502   0.053  12.020
45951W        W19019  44.385  16.776   1.783
45952W        W19020  37.498  22.713  13.013
45953W        W19021  25.665   0.818  11.762
45954W        W19022  19.874   6.044   1.933
45955W        W19023  12.140  27.934  11.207
45956W        W19024   4.727  28.262  12.459
45957W        W19025  37.053  12.771  12.955
45958W        W19026  20.176  43.025   0.251
45959W        W19027  35.603  19.987  11.473
45960W        W19028  15.074  16.485   0.543
45961W        W19029  25.046  33.919  14.879
45962W        W19030  10.876  43.221   4.027
45963W        W19031  31.523  22.191  13.077
45964W        W19032  34.257  33.527   2.812
45965W        W19033  36.663  39.711  14.430
45966W        W19034  10.675  42.280   1.725
45967W        W19035  42.950  31.689  10.481
45968W        W19036  22.716  30.174  11.589
45969W        W19037  42.315  26.206  12.952
45970W        W19038  40.010  38.517  12.942
45971W        W19039   8.240   2.316   2.707
45972W        W19040  40.739  12.683  10.276
45973W        W19041  34.879  22.890   1.793
45974W        W19042   5.950  11.391  11.642
45975W        W19043  33.346  26.629   0.353
45976W        W19044   5.778  13.864  14.329
45977W        W19045   8.435  12.836  13.424
45978W        W19046  28.409  10.155   3.780
45979W        W19047  41.348  11.819  13.470
45980W        W19048  19.705  27.954   0.027
45981W        W19049  16.224  20.248   0.404
45982W        W19050   1.480  35.117  12.494
45983W        W19051  27.915  41.222  14.040
45984W        W19052   9.777  36.406  13.485
45985W        W19053  16.888  44.891  11.107
45986W        W19054  11.326  20.433  13.301
45987W        W19055   9.058  44.411   0.805
45988W        W19056  41.411  23.075   0.229
45989W        W19057  26.395  14.195  12.055
45990W        W19058  10.833  30.569  11.082
45991W        W19059   8.379  34.479  11.552
45992W        W19060  10.727  23.722   0.760
45993W        W19061   9.717  13.913  11.220
45994W        W19062  35.568  44.370  10.542
45995W        W19063  27.991  15.172  14.335
45996W        W19064  43.970  25.719  10.729
45997W        W19065  29.729  25.423   4.042
45998W        W19066  41.165  37.353   1.468
45999W        W19067  14.035  40.117   0.901
46000W        W19068  20.501  14.996   1.360
46001W        W19069   4.980  37.399  11.488
46002W        W19070  36.926  13.777  14.544
46003W        W19071  15.758   8.563   2.377
46004W        W19072  26.462  11.606  14.533
46005W        W19073  12.916  28.580   0.833
46006W        W19074  10.729   6.274  10.600
46007W        W19075  27.201   0.527  11.289
46008W        W19076   9.834  31.705   4.752
46009W        W19077  30.895  25.389  10.663
46010W        W19078  38.927   8.310   3.740
46011W        W19079  25.480  40.341  13.805
46012W        W19080   3.708  16.143   3.745
46013W        W19081  23.817  42.561  12.016
46014W        W19082   9.261   1.722  14.444
46015W        W19083  37.245  33.081  14.235
46016W        W19084  37.972  44.509  14.348
46017W        W19085  44.427   2.439   2.798
46018W        W19086  32.737  11.190  11.391
46019W        W19087   1.711  32.877   3.669
46020W        W19088  44.718  12.224   1.829
46021W        W19089  37.317  44.466  14.923
46022W        W19090  23.606  17.056   1.696
46023W        W19091  39.603  22.804   3.976
46024W        W19092  30.614  10.083  12.909
46025W        W19093  26.914  42.420  13.816
46026W        W19094  15.631  18.677   4.797
46027W        W19095  41.887   2.154  12.316
46028W        W19096  25.003   9.453  11.113
46029W        W19097  13.131  16.537  13.996
46030W        W19098  22.767  43.951  11.947
46031W        W19099  17.890  41.702   0.748
46032W        W19100  11.619  40.390   1.323
46033W        W19101  14.737  21.249   1.668
46034W        W19102  41.998  38.110  11.220
46035W        W19103  41.062  36.019   1.416
46036W        W19104  13.203  44.991  14.105
46037W        W19105   2.690  33.092   2.841
46038W        W19106  28.517   6.656  11.605
46039W        W19107  22.705  27.919  14.438
46040W        W19108  41.236  40.908  14.400
46041W        W19109  39.312  30.449   0.953
46042W        W19110  20.487   2.368  12.470
46043W        W19111  12.073   1.563   4.032
46044W        W19112  37.128  27.644  11.399
46045W        W19113  26.475  27.847   2.864
46046W        W19114  10.945  41.360  14.004
46047W        W19115  34.391  21.101   0.497
46048W        W19116  18.528  19.672   4.564
46049W        W19117  22.188  14.891   4.039
46050W        W19118  24.776   3.750  12.060
46051W        W19119   9.262  15.089   1.558
46052W        W19120  41.359  17.783   4.944
46053W        W19121  41.327  27.577   2.342
46054W        W19122  15.733  32.989  12.501
46055W        W19123   3.796  12.158  10.984
46056W        W19124  41.321  14.200  12.024
46057W        W19125  42.616  38.434   4.070
46058W        W19126  32.395  35.054  10.258
46059W        W19127  13.298  27.311   0.453
46060W        W19128   3.422  17.923  11.689
46061W        W19129  32.977   9.663  12.082
46062W        W19130  31.889   4.776   3.351
46063W        W19131  42.310  25.692  12.850
46064W        W19132  15.218  31.274   4.741
46065W        W19133   6.749  23.898   1.959
46066W        W19134  13.254  16.040  11.923
46067W        W19135  22.834   9.431   3.882
46068W        W19136  12.598  17.992   1.409
46069W        W19137  23.276  40.921  10.587
46070W        W19138  24.698  17.843  14.770
46071W        W19139   1.775  22.563  11.422
46072W        W19140   0.768  33.709   1.915
46073W        W19141   9.589  21.998  12.432
46074W        W19142  14.358  31.487   0.239
46075W        W19143  44.258   5.311  11.393
46076W        W19144  19.071   9.409  14.814
46077W        W19145  41.269   7.704   1.305
46078W        W19146   4.802  37.514   3.560
46079W        W19147  24.990  10.544   3.589
46080W        W19148   6.127  37.850   2.393
46081W        W19149   8.947  14.584  10.314
46082W        W19150  14.420  23.695   0.937
46083W        W19151  12.523  10.347  13.855
46084W        W19152  17.255  18.422   1.890
46085W        W19153  21.080   7.465  11.524
46086W        W19154  39.876  36.587  13.047
46087W        W19155   9.915  37.548   3.828
46088W        W19156  41.058  19.041   3.181
46089W        W19157   4.275  36.832   0.439
46090W        W19158   2.940   0.445  11.214
46091W        W19159  23.620  22.429  14.565
46092W        W19160  19.527  21.620  10.794
46093W        W19161  37.052   5.193  13.514
46094W        W19162   8.885   6.512   3.133
46095W        W19163  34.459  19.488   4.092
46096W        W19164   7.082   1.819   1.554
46097W        W19165   3.740  17.673  12.466
46098W        W19166  15.068  39.790  10.522
46099W        W19167  26.103  37.401   0.431
46100W        W19168  26.368  36.913  11.238
46101W        W19169  23.261  21.446  11.980
46102W        W19170  16.547  15.678  12.882
46103W        W19171  16.824  19.072  12.161
46104W        W19172  28.618  34.949  14.739
46105W        W19173  29.447  37.495  12.914
46106W        W19174  36.548  33.124   4.770
46107W        W19175  29.277  36.411   4.911
46108W        W19176  43.724  23.772   0.786
46109W        W19177  12.597  18.674  10.522
46110W        W19178   8.178  26.735   3.319
46111W        W19179  16.110  18.809   0.049
46112W        W19180  30.488   3.321  14.483
46113W        W19181  38.318  36.344   0.873
46114W        W19182  41.587   3.293   2.280
46115W        W19183   6.810   9.508   0.668
46116W        W19184   6.528  10.871  12.052
46117W        W19185  15.101  38.819  10.811
46118W        W19186  28.909  19.618   0.377
46119W        W19187  33.215   3.761  14.160
46120W        W19188  29.527   0.583   4.923
46121W        W19189  26.541  35.689   0.010
46122W        W19190   2.349  33.736   5.028
46123W        W19191   9.939  41.257   9.877
46124W        W19192  41.463  17.070   1.526
46125W        W19193  41.487  34.563   0.926
46126W        W19194  11.258  40.274  11.144
46127W        W19195  14.101  27.215   0.861
46128W        W19196  12.521  44.344  14.444
46129W        W19197  16.221  42.197   0.985
46130W        W19198  40.531  11.804  13.730
46131W        W19199   8.650  42.378  12.963
46132W        W19200  25.138  35.640   1.834
46133W        W19201  13.629  40.829  12.987
46134W        W19202  20.098  14.664  11.643
46135W        W19203  31.572  17.579   2.391
46136W        W19204  26.244   9.261   1.686
46137W        W19205  31.687   5.261   1.187
46138W        W19206  30.809  17.662  11.454
46139W        W19207  38.262  20.977   0.885
46140W        W19208  10.746   4.242  11.599
46141W        W19209  20.640   0.348   4.512
46142W        W19210  14.091  29.655   4.555
46143W        W19211  19.138  13.229  14.402
46144W        W19212  43.105  13.378   4.248
46145W        W19213  16.868  34.929   2.007
46146W        W19214  44.317   9.862  12.469
46147W        W19215  15.272  27.829  14.592
46148W        W19216  16.032  42.751  12.607
46149W        W19217   7.824  17.572   3.169
46150W        W19218   3.682   8.440   0.793
46151W        W19219   5.763  27.475   3.881
46152W        W19220  32.578   1.944  11.119
46153W        W19221  14.355   7.190   1.357
46154W        W19222  25.044   6.779  12.570
46155W        W19223   2.178  40.660   4.884
46156W        W19224  32.515  28.955   3.117
46157W        W19225  33.043  27.180   1.270
46158W        W19226  40.057  20.960  13.968
46159W        W19227  42.216  26.833   3.810
46160W        W19228  24.163   1.317   4.921
46161W        W19229  43.003  25.915   2.697
46162W        W19230  17.609  10.608  13.539
46163W        W19231  40.483  16.630  14.891
46164W        W19232  26.518  28.989  13.129
46165W        W19233   8.888  14.901   2.766
46166W        W19234  27.211  29.408   4.064
46167W        W19235  37.418  14.273  13.869
46168W        W19236  29.189  11.029  11.012
46169W        W19237  25.609  40.059  12.650
46170W        W19238  27.235   8.276  11.585
46171W        W19239  12.681  37.833  10.764
46172W        W19240  16.153  27.367   0.472
46173W        W19241  38.707  35.169   0.020
46174W        W19242  43.245  36.358   4.063
46175W        W19243  26.684  17.197   0.299
46176W        W19244  13.355   2.017   3.389
46177W        W19245  24.342  16.391   1.509
46178W        W19246   3.639  22.689  10.626
46179W        W19247  17.524  36.720   4.042
46180W        W19248  32.346   2.501   0.400
46181W        W19249  43.148  27.118   2.070
46182W        W19250  43.457   0.540  14.809
46183W        W19251  34.666  14.131  13.381
46184W        W19252  27.489  14.265  14.409
46185W        W19253  11.240  36.685   2.184
46186W        W19254  22.674  15.588  14.987
46187W        W19255  41.852  27.812  11.750
46188W        W19256   1.134  30.392  10.727
46189W        W19257  40.803   6.946  10.646
46190W        W19258  31.994  31.030  12.685
46191W        W19259   0.936  42.966   3.873
46192W        W19260  10.719  18.785  10.232
46193W        W19261  28.979  20.076   3.240
46194W        W19262  23.092  29.173   2.347
46195W        W19263   1.495  43.004   1.346
46196W        W19264  14.528  23.180  12.370
46197W        W19265   6.184  29.766  14.937
46198W        W19266  35.384  33.402  10.691
46199W        W19267  31.416  22.875  13.785
46200W        W19268  32.343   7.348  10.626
46201W        W19269  44.343  12.596   1.321
46202W        W19270  40.955  35.396   4.734
46203W        W19271  20.394  20.973  11.025
46204W        W19272   9.308  27.448   1.301
46205W        W19273  37.626   5.705  11.732
46206W        W19274  41.765  43.392  12.094
46207W        W19275  23.924  31.514  12.531
46208W        W19276   8.669  26.740   1.350
46209W        W19277   2.812  40.133  11.145
46210W        W19278   0.845  41.989   3.647
46211W        W19279  39.641  17.764   0.469
46212W        W19280  10.481  41.614  12.148
46213W        W19281  41.293  30.365   0.874
46214W        W19282  20.458  35.559   3.700
46215W        W19283  26.013   4.409  12.830
46216W        W19284  33.561  21.145  14.588
46217W        W19285   2.835   1.471  14.033
46218W        W19286  29.171   3.502   4.734
46219W        W19287  31.926  13.092   3.676
46220W        W19288  22.927  20.084  13.816
46221W        W19289   9.553  17.506  13.545
46222W        W19290  43.487  31.601   2.812
46223W        W19291  10.191   8.757  14.105
46224W        W19292  40.352   6.793   5.562
46225W        W19293  26.761  12.960  12.843
46226W        W19294  33.796  17.167   2.214
46227W        W19295  44.364  27.966   2.613
46228W        W19296  21.069  35.495  14.511
46229W        W19297  20.782  15.760   0.957
46230W        W19298  25.757  19.408  14.016
46231W        W19299  26.868  39.011  10.771
46232W        W19300   3.658   7.192   2.895
46233W        W19301  28.183  20.031   4.648
46234W        W19302   0.063  41.836  12.918
46235W        W19303  39.674   9.858  11.658
46236W        W19304  29.818   5.263  13.519
46237W        W19305  19.325   9.264   3.545
46238W        W19306  35.230  11.307  12.489
46239W        W19307  41.869   4.805   3.607
46240W        W19308  44.372  40.934   4.171
46241W        W19309   8.347   0.024   0.786
46242W        W19310  13.559  14.657   1.999
46243W        W19311  42.955  39.485   4.817
46244W        W19312  39.261   9.724  13.866
46245W        W19313  37.089  44.674  13.327
46246W        W19314  43.730  12.517  11.876
46247W        W19315  40.346   4.521   2.965
46248W        W19316   2.797  40.980  13.892
46249W        W19317   6.809   4.600  13.921
46250W        W19318   5.927   3.442  12.929
46251W        W19319  22.311  31.087   3.134
46252W        W19320  32.819   9.344   1.901
46253W        W19321  14.178  12.296   0.807
46254W        W19322  26.198  37.327  12.506
46255W        W19323  17.303  15.339  13.848
46256W        W19324  28.626  21.118   3.131
46257W        W19325  33.087   7.857  14.455
46258W        W19326   5.018   4.358   3.751
46259W        W19327  43.341  37.919   3.459
46260W        W19328  14.697  23.984  13.829
46261W        W19329  33.324   7.009   2.225
46262W        W19330  25.793  43.104  13.020
46263W        W19331   1.445   4.299  13.143
46264W        W19332  15.660  43.732   4.517
46265W        W19333  13.868  29.069   3.177
46266W        W19334  20.508  41.440  12.093
46267W        W19335   2.285  29.623   3.647
46268W        W19336  44.985  42.369  12.674
46269W        W19337  22.753  34.079  11.521
46270W        W19338  10.598   8.813   4.115
46271W        W19339  32.866  24.071   3.449
46272W        W19340  35.164  11.931   4.131
46273W        W19341  18.583   6.975   4.517
46274W        W19342  42.505  31.791  12.880
46275W        W19343   0.946  36.386  10.597
46276W        W19344  22.018  26.017   1.391
46277W        W19345  25.630  37.601   2.597
46278W        W19346  16.077  15.554  14.901
46279W        W19347  11.123   3.929   0.292
46280W        W19348  16.108  42.283   3.665
46281W        W19349  32.913  23.147   0.836
46282W        W19350  41.884   1.169   1.844
46283W        W19351  38.845  13.394  11.664
46284W        W19352  14.589   7.944  12.599
46285W        W19353  29.042  29.949  12.026
46286W        W19354  10.866  26.642  13.475
46287W        W19355   9.485  42.380   2.460
46288W        W19356  30.882  39.934   3.932
46289W        W19357   5.678  35.049   2.337
46290W        W19358  44.487  36.976  13.323
46291W        W19359  30.147  41.598   0.011
46292W        W19360  41.920  22.721  14.160
46293W        W19361  17.707  41.463   0.322
46294W        W19362  16.851   7.832  12.325
46295W        W19363   8.331  37.151   0.315
46296W        W19364   1.060   5.229  11.992
46297W        W19365  39.012  21.164   4.685
46298W        W19366  41.004  44.822  14.268
46299W        W19367  39.703  15.265  10.725
46300W        W19368  25.665  33.625  14.864
46301W        W19369  37.360  21.127  11.868
46302W        W19370  35.637   4.600   1.851
46303W        W19371  11.833   6.917   0.830
46304W        W19372  40.781  37.376   4.092
46305W        W19373  17.907  41.980   4.827
46306W        W19374  20.059  39.919   2.870
46307W        W19375  39.604  16.723  11.475
46308W        W19376  32.348  26.525  10.235
46309W        W19377  25.982  36.946   3.127
46310W        W19378  29.902   3.129   4.071
46311W        W19379   5.958  17.747   1.744
46312W        W19380  31.171  36.555  10.815
46313W        W19381  18.641  37.436  14.451
46314W        W19382  25.111  25.127  14.938
46315W        W19383  13.217  13.338  12.349
46316W        W19384   8.701  10.817   0.969
46317W        W19385  24.206   0.713  10.444
46318W        W19386  26.029   9.847  11.574
46319W        W19387  41.991  20.693  12.984
46320W        W19388  11.422  13.374  13.026
46321W        W19389  20.584  38.944   2.461
46322W        W19390  13.952  43.010   1.769
46323W        W19391  39.115  41.196   1.332
46324W        W19392   7.362  15.344   0.343
46325W        W19393  26.531  16.052  12.828
46326W        W19394   5.029  32.299   3.342
46327W        W19395  10.050   3.474  10.529
46328W        W19396  15.280   1.201  10.688
46329W        W19397  44.450  42.296  13.999
46330W        W19398  23.134  26.102   1.745
46331W        W19399   5.717  13.450  12.492
46332W        W19400  17.183  37.821  14.857
46333W        W19401   3.001  36.466   3.856
46334W        W19402  26.412  30.140  13.909
46335W        W19403  31.737  18.944   5.029
46336W        W19404  23.997   0.273  13.471
46337W        W19405  42.417  31.064   4.575
46338W        W19406  21.562  21.576   4.747
46339W        W19407  16.063  25.755  11.587
46340W        W19408   4.939  28.594  12.116
46341W        W19409   9.954  18.134   3.137
46342W        W19410  11.853   1.030  14.796
46343W        W19411  37.990   9.284   0.293
46344W        W19412   1.884  32.214   3.258
46345W        W19413  41.420  35.094   3.646
46346W        W19414  38.005  21.042  11.725
46347W        W19415   1.737  18.543  10.971
46348W        W19416  12.714  28.257  14.475
46349W        W19417  36.464  26.256   0.886
46350W        W19418  15.829  31.673  12.045
46351W        W19419  27.649  19.643  13.093
46352W        W19420  18.424  17.868  12.921
46353W        W19421  33.882   3.798  12.923
46354W        W19422  32.702  30.940   0.826
46355W        W19423  43.752  16.692  14.381
46356W        W19424  37.224   9.413  14.040
46357W        W19425  17.255   2.945  12.599
46358W        W19426  28.502  11.847   0.035
46359W        W19427  22.087  23.728  11.861
46360W        W19428  13.329  27.272   3.625
46361W        W19429  15.818  39.983  10.664
46362W        W19430   1.084  25.667  14.040
46363W        W19431  35.604  33.299   3.281
46364W        W19432   5.215  29.352  14.973
46365W        W19433  35.759  11.104   0.372
46366W        W19434  42.001  14.416   0.345
46367W        W19435  33.476  43.785  13.419
46368W        W19436   9.622   4.413   0.780
46369W        W19437   5.286  43.123   1.825
46370W        W19438  33.580  13.075  13.409
46371W        W19439  41.061  41.040   3.313
46372W        W19440   0.890  39.461   2.680
46373W        W19441   0.392  41.931  10.398
46374W        W19442  41.332  33.041   4.719
46375W        W19443  11.785  43.833   4.586
46376W        W19444   7.139   2.970  12.858
46377W        W19445  35.372  40.476   4.992
46378W        W19446  34.213  27.241   2.552
46379W        W19447  43.974  11.991  11.966
46380W        W19448  27.513   1.503   4.201
46381W        W19449   8.510  20.235   1.353
46382W        W19450  32.863  44.017  13.927
46383W        W19451  35.425   9.158  12.033
46384W        W19452  11.343  10.301   0.460
46385W        W19453  18.251  12.886   2.609
46386W        W19454  21.911  29.133  12.256
46387W        W19455  13.256  18.129   2.489
46388W        W19456  41.424   4.532   3.689
46389W        W19457  13.122  43.980   3.129
46390W        W19458  11.204  31.569  12.872
46391W        W19459  31.067   1.155   1.656
46392W        W19460   4.237  32.576   2.749
46393W        W19461  25.474  13.493   3.433
46394W        W19462  39.271  13.330   2.388
46395W        W19463  33.053  36.331   3.712
46396W        W19464  21.798   1.423   1.173
46397W        W19465   3.972  41.928  11.327
46398W        W19466  41.868  32.832  12.041
46399W        W19467  28.563  43.867  11.866
46400W        W19468  24.717  36.046   4.710
46401W        W19469   9.467   3.309  13.899
46402W        W19470  25.651   9.458  12.220
46403W        W19471   2.523  10.309  13.874
46404W        W19472  19.834  17.711  12.595
46405W        W19473  19.539  11.710  10.733
46406W        W19474  24.640  16.042   1.768
46407W        W19475  14.364  28.547   2.782
46408W        W19476  21.689  13.664  11.493
46409W        W19477   5.714   9.661  11.074
46410W        W19478  17.794   4.235   1.485
46411W        W19479   1.802  35.014   2.681
46412W        W19480  21.963  25.018   2.747
46413W        W19481  40.524  38.608  11.607
46414W        W19482  30.417  32.937  11.232
46415W        W19483  22.173  16.249  14.238
46416W        W19484  11.301  38.613   0.766
46417W        W19485  25.836  18.583   2.091
46418W        W19486   2.847  36.111  12.110
46419W        W19487  23.758  20.299   5.057
46420W        W19488  17.540  42.364  10.984
46421W        W19489  19.747  20.125  11.610
46422W        W19490  23.956   3.531   3.846
46423W        W19491  18.057  21.475   2.911
46424W        W19492   8.912  14.799   1.296
46425W        W19493   4.926  21.052  11.938
46426W        W19494   3.350  38.356  14.525
46427W        W19495  38.475  42.718  14.311
46428W        W19496  38.157  35.170  13.249
46429W        W19497  30.520  16.173   3.110
46430W        W19498   5.986  40.578  12.016
46431W        W19499  23.234  25.317   2.343
46432W        W19500  32.632  31.558   4.756
46433W        W19501  28.092  22.716   2.921
46434W        W19502   8.111  10.719  12.847
46435W        W19503   9.288   8.638   1.736
46436W        W19504   8.927   7.696  11.977
46437W        W19505  37.287  28.573   1.871
46438W        W19506  41.830  36.475  14.945
46439W        W19507  39.465   8.193  12.594
46440W        W19508  41.401   9.800  13.263
46441W        W19509  30.390  13.670  13.417
46442W        W19510  20.168   1.785  11.856
46443W        W19511  42.062  13.099  12.560
46444W        W19512   7.735  19.503  10.145
46445W        W19513  16.875  12.911  14.776
46446W        W19514  28.836  23.738   3.585
46447W        W19515   6.466  15.134   2.448
46448W        W19516  43.823  31.885   4.022
46449W        W19517  41.480  12.270   1.177
46450W        W19518  24.058  23.729  13.812
46451W        W19519  23.573  25.759   0.855
46452W        W19520  43.874  18.306   0.383
46453W        W19521  38.844  28.371  12.575
46454W        W19522  13.624   1.420   0.400
46455W        W19523  21.086  10.887   3.235
46456W        W19524  34.518  20.613  12.167
46457W        W19525  35.427  44.272   1.748
46458W        W19526  44.431  34.073   4.560
46459W        W19527   8.436  24.003   1.859
46460W        W19528  20.245  39.538  11.104
46461W        W19529  31.966   1.504  14.031
46462W        W19530  36.424  14.906   4.032
46463W        W19531  38.404  30.134  11.370
46464W        W19532  23.977   3.046   1.755
46465W        W19533  31.522   7.160   3.411
46466W        W19534  20.039  27.019  13.484
46467W        W19535  24.219  17.645  14.795
46468W        W19536  31.972  28.140  11.737
46469W        W19537   5.852  16.598  14.660
46470W        W19538   2.709  11.387   3.785
46471W        W19539  22.058  31.127   1.748
46472W        W19540  44.316  17.316   4.390
46473W        W19541  34.353  44.989  12.011
46474W        W19542  32.734  16.172  12.994
46475W        W19543  44.034  44.794   1.924
46476W        W19544   1.253  29.958   1.962
46477W        W19545  18.159  44.514  11.013
46478W        W19546  23.072  15.391   0.283
46479W        W19547   8.787  23.668   4.804
46480W        W19548   4.931  41.812   0.798
46481W        W19549   4.955  15.646   1.145
46482W        W19550  40.539  12.175  14.112
46483W        W19551  31.900   6.786   4.173
46484W        W19552  29.444  44.232  13.334
46485W        W19553  27.717  26.216   4.947
46486W        W19554  39.693  39.446  10.931
46487W        W19555   8.236  20.012  11.699
46488W        W19556   0.634  41.970  13.420
46489W        W19557   5.332  18.637   1.730
46490W        W19558  20.468   6.830  12.647
46491W        W19559   8.650  22.169   0.384
46492W        W19560  29.464  31.140   2.519
46493W        W19561   1.722  29.395   1.515
46494W        W19562  19.673  30.119   3.447
46495W        W19563   6.616  15.581  14.276
46496W        W19564  30.510   8.672  12.051
46497W        W19565  26.631  22.667  13.104
46498W        W19566  23.079  29.478  14.922
46499W        W19567   8.347   9.773   1.017
46500W        W19568  43.520  21.804   4.221
46501W        W19569   8.518  11.104  13.473
46502W        W19570   9.421  32.990   3.973
46503W        W19571  10.785  29.375   2.298
46504W        W19572   8.880  21.422   4.509
46505W        W19573  20.564  36.838   2.588
46506W        W19574  10.039   5.440   0.233
46507W        W19575  39.421  25.570  12.804
46508W        W19576  11.906  26.930  13.478
46509W        W19577  28.397   3.717  13.861
46510W        W19578  21.276  28.270   3.727
46511W        W19579  34.492  27.941  11.602
46512W        W19580   1.458  38.548  12.548
46513W        W19581  22.437  17.271   1.444
46514W        W19582  26.097  20.428   0.656
46515W        W19583  18.009  30.134  12.464
46516W        W19584  39.796  11.218   3.662
46517W        W19585  21.316  22.061  10.507
46518W        W19586   3.176  12.158   2.832
46519W        W19587  17.384  16.194  11.458
46520W        W19588   3.093  16.530   2.682
46521W        W19589  22.491  23.978  10.423
46522W        W19590  30.863  37.829   1.026
46523W        W19591  26.613  12.193  11.638
46524W        W19592  33.498  37.854  12.698
46525W        W19593   1.803  34.328   4.607
46526W        W19594   2.540  17.034  12.970
46527W        W19595   0.500   2.987  13.050
46528W        W19596   2.815  29.922  13.119
46529W        W19597  15.098  29.963   0.377
46530W        W19598   8.066  42.172   2.625
46531W        W19599   3.960   6.258  10.670
46532W        W19600   0.536   5.300   4.646
46533W        W19601  42.722  26.667  12.773
46534W        W19602  20.923  24.242   0.893
46535W        W19603   0.441  41.466  10.713
46536W        W19604   8.706  19.810  11.601
46537W        W19605  18.606  43.239  10.720
46538W        W19606   7.704  12.026   4.553
46539W        W19607  38.114  35.865   4.545
46540W        W19608  43.744  15.899   1.866
46541W        W19609  35.491   3.394   3.624
46542W        W19610  19.816  31.067   0.780
46543W        W19611   7.629   7.390  12.466
46544W        W19612  20.034  32.455   4.624
46545W        W19613  31.026   7.598   1.183
46546W        W19614   9.216  38.883   4.940
46547W        W19615  29.130  41.463   4.654
46548W        W19616  18.229   0.700  13.983
46549W        W19617   9.858  32.410  10.764
46550W        W19618  32.009  38.805  12.381
46551W        W19619  17.498  27.452  12.588
46552W        W19620  10.866  39.640  10.747
46553W        W19621  19.685  35.680   2.541
46554W        W19622  17.653  32.789   2.185
46555W        W19623  25.966  25.143   3.780
46556W        W19624  22.591  16.271   2.187
46557W        W19625  41.017  38.595   0.303
46558W        W19626  37.495  20.054  11.599
46559W        W19627  23.959   6.952   3.243
46560W        W19628  17.175  38.778  10.130
46561W        W19629  21.460   9.890   3.205
46562W        W19630  36.310  10.743  12.925
46563W        W19631  30.433  21.059   3.701
46564W        W19632  18.210  34.509   1.204
46565W        W19633  26.044  26.251  14.298
46566W        W19634  36.865  10.654   3.289
46567W        W19635  43.740  29.581   2.639
46568W        W19636  32.954  25.819  10.777
46569W        W19637  11.813  41.830  12.048
46570W        W19638  27.529  23.881  12.376
46571W        W19639  20.529   7.682   0.812
46572W        W19640  25.679   8.622  11.727
46573W        W19641   0.873  18.186  13.938
46574W        W19642  13.953  31.645   1.556
46575W        W19643  44.921   1.760   4.053
46576W        W19644  38.518  43.477   0.739
46577W        W19645  40.485  23.676   3.317
46578W        W19646   3.146   9.344  13.994
46579W        W19647   0.550  20.609  13.600
46580W        W19648   8.503   0.103   2.536
46581W        W19649  39.732  44.805  14.216
46582W        W19650  10.167  33.322  11.678
46583W        W19651  32.014  12.104   1.696
46584W        W19652  35.467   6.992   2.805
46585W        W19653  30.390  16.617   2.277
46586W        W19654   0.952  39.390   1.136
46587W        W19655  23.018  10.535   2.239
46588W        W19656  39.421   2.146  10.566
46589W        W19657  40.603  35.597  12.446
46590W        W19658  18.650  16.057  13.758
46591W        W19659   2.785  33.405   2.178
46592W        W19660  28.424  29.529  10.763
46593W        W19661  30.986  20.581   4.580
46594W        W19662   5.121  42.478  11.216
46595W        W19663  17.927   2.671  10.746
46596W        W19664  41.925  23.312   4.165
46597W        W19665  17.873  44.776  13.839
46598W        W19666  40.969  10.636   1.006
46599W        W19667   4.304   0.808  14.263
46600W        W19668  28.279  17.526   2.241
46601W        W19669  25.128   4.365   1.239
46602W        W19670  24.634  10.162   0.461
46603W        W19671   1.813  10.873  14.414
46604W        W19672   8.036   4.137  13.102
46605W        W19673  27.777  10.125   3.207
46606W        W19674  39.540  37.474  13.596
46607W        W19675  12.796  19.082  13.271
46608W        W19676   0.490  42.356  11.176
46609W        W19677   6.239  12.311   1.439
46610W        W19678  35.644  29.501  11.434
46611W        W19679   2.264  40.214   1.826
46612W        W19680   4.252  44.016   1.828
46613W        W19681  36.971   4.829  13.950
46614W        W19682  22.218   9.366   2.225
46615W        W19683   4.597   5.314  11.288
46616W        W19684  33.748  18.896   3.292
46617W        W19685  35.528  10.359  12.864
46618W        W19686  43.842  44.747   0.327
46619W        W19687  38.004  33.613  13.433
46620W        W19688  14.798  36.806  11.637
46621W        W19689  40.909  29.521   3.459
46622W        W19690  28.029   6.887   2.359
46623W        W19691   5.849  21.074  12.011
46624W        W19692   5.278   6.092  13.327
46625W        W19693  22.905   6.221  11.118
46626W        W19694  17.315   6.145  13.115
46627W        W19695  37.342  31.596  13.347
46628W        W19696   6.906  11.345  12.853
46629W        W19697  11.320   8.770   4.589
46630W        W19698  40.284  22.789  13.735
46631W        W19699  33.321  40.339  14.787
46632W        W19700  30.900  34.865   4.916
46633W        W19701   0.815  15.768   0.495
46634W        W19702  29.885  11.743   0.674
46635W        W19703  25.946  29.919  13.915
46636W        W19704  10.288  36.575   4.591
46637W        W19705  25.489  25.178  13.969
46638W        W19706  30.674   3.406  11.233
46639W        W19707  20.951  37.947  12.915
46640W        W19708   0.842  31.322  12.205
46641W        W19709   6.108  29.984   1.377
46642W        W19710  25.677   2.363   3.645
46643W        W19711  36.827  15.066  14.151
46644W        W19712  28.010   9.892   4.590
46645W        W19713  16.384  10.363  13.878
46646W        W19714  16.085  31.516   3.365
46647W        W19715  34.162   7.426   1.763
46648W        W19716  22.968   2.089   4.491
46649W        W19717   7.593  36.723   2.917
46650W        W19718  29.509  31.356   1.232
46651W        W19719  15.388  20.662  10.726
46652W        W19720  19.503  15.228   3.871
46653W        W19721   1.375  16.596   2.452
46654W        W19722  27.599  42.341   2.744
46655W        W19723  33.395  23.231   2.719
46656W        W19724  26.754  18.336   4.133
46657W        W19725  42.945  40.576   1.535
46658W        W19726  29.197  27.123   1.308
46659W        W19727   2.485  31.988  12.051
46660W        W19728   1.916  38.558   1.329
46661W        W19729  39.714  35.089  14.993
46662W        W19730  10.897  14.949   3.120
46663W        W19731  29.430  21.277  11.185
46664W        W19732  33.118  44.549  13.327
46665W        W19733  14.028  36.440   4.158
46666W        W19734  11.430  20.588  13.779
46667W        W19735   4.377   5.197   3.844
46668W        W19736  12.829   7.256  14.107
46669W        W19737   5.561  22.468  10.157
46670W        W19738  32.067  37.133  11.207
46671W        W19739  22.511  25.931   2.292
46672W        W19740  40.598  21.217   3.692
46673W        W19741  16.889  23.127  11.230
46674W        W19742  37.162  21.819   0.298
46675W        W19743   5.862  12.683   0.480
46676W        W19744  15.613  10.287   1.859
46677W        W19745  15.803  21.348   0.988
46678W        W19746  40.964   6.614   1.772
46679W        W19747   7.243   8.264   0.893
46680W        W19748  42.533   7.458  14.976
46681W        W19749  27.218  32.121   3.924
46682W        W19750  19.266   1.115  14.663
46683W        W19751  26.284   1.718  13.226
46684W        W19752   1.266  24.253  11.195
46685W        W19753  11.754   0.078  12.733
46686W        W19754  21.980  40.847  13.114
46687W        W19755  24.962  30.319  13.422
46688W        W19756  35.377  15.624  11.175
46689W        W19757   4.889  16.353   3.585
46690W        W19758  34.381  29.503  13.801
46691W        W19759   2.754  10.708  10.690
46692W        W19760  23.476  43.855  13.534
46693W        W19761  38.406  30.420  14.538
46694W        W19762  32.345  33.358  11.170
46695W        W19763  24.599   3.226  13.488
46696W        W19764  41.527  19.611   0.885
46697W        W19765  36.489  10.168   1.920
46698W        W19766  41.089   3.933   4.343
46699W        W19767   8.409  16.689  13.636
46700W        W19768  36.544   3.103   1.458
46701W        W19769   9.089  27.163   2.758
46702W        W19770  36.027   6.598   2.789
46703W        W19771  11.682  38.059   4.611
46704W        W19772   9.131  13.752   3.643
46705W        W19773  24.245   6.353   2.682
46706W        W19774   1.708  10.788   1.751
46707W        W19775  20.122  15.592  14.833
46708W        W19776  32.857  11.536   4.133
46709W        W19777  14.390   4.556   4.239
46710W        W19778  25.797  34.634  11.009
46711W        W19779   7.900   5.272  13.529
46712W        W19780   9.293  35.973   0.025
46713W        W19781  24.537  27.623  14.063
46714W        W19782  17.492   1.820   0.694
46715W        W19783   7.320  25.551  13.853
46716W        W19784  13.053  35.965  13.826
46717W        W19785  28.722  16.418   2.826
46718W        W19786  27.733   5.281   1.818
46719W        W19787   3.970  20.593   2.214
46720W        W19788  11.870  18.101  11.126
46721W        W19789  43.545   7.942   4.408
46722W        W19790  20.645  32.711  14.344
46723W        W19791  15.444  26.405  12.244
46724W        W19792  44.717  34.943   2.770
46725W        W19793  30.119  40.091   2.824
46726W        W19794  24.249  14.737  13.638
46727W        W19795  20.117   7.458   4.112
46728W        W19796  28.101  28.076   0.837
46729W        W19797  44.942  22.121   3.435
46730W        W19798  30.189  27.968   2.470
46731W        W19799   3.859   8.667   0.308
46732W        W19800  30.962  35.591  11.481
46733W        W19801  17.453  11.718   1.321
46734W        W19802  25.124  16.991  12.198
46735W        W19803  11.843  35.982   2.975
46736W        W19804  40.846  42.779  11.602
46737W        W19805  40.564  40.795   4.057
46738W        W19806   6.382  31.547  14.396
46739W        W19807  44.035   4.317   4.601
46740W        W19808   7.136  42.485   1.851
46741W        W19809  14.360  21.814  14.032
46742W        W19810  26.528  27.504   0.227
46743W        W19811  18.176  22.164  11.323
46744W        W19812  19.378  21.689  12.069
46745W        W19813  25.935  28.905  10.682
46746W        W19814  33.658   1.739  12.427
46747W        W19815  26.015  21.221   2.272
46748W        W19816  14.174  27.082   3.078
46749W        W19817  13.233   6.662   4.649
46750W        W19818  21.816  25.124   1.367
46751W        W19819  40.907  38.187   4.521
46752W        W19820  40.458  29.562   0.343
46753W        W19821  27.288  38.060  13.615
46754W        W19822   7.379  34.298  10.671
46755W        W19823  33.938   7.834  10.567
46756W        W19824  10.699   1.937  10.635
46757W        W19825   1.344  34.478   4.428
46758W        W19826  29.002  36.432   2.687
46759W        W19827   7.678  11.176   2.426
46760W        W19828  43.672  44.570  11.119
46761W        W19829   0.456  31.023  10.372
46762W        W19830  34.655  30.527   3.262
46763W        W19831  42.314  23.564   1.667
46764W        W19832  36.294  33.821   4.074
46765W        W19833   8.346  16.114   4.467
46766W        W19834  13.158  11.292   0.871
46767W        W19835  19.932  11.950   3.250
46768W        W19836  34.236   7.356  13.269
46769W        W19837  14.293   1.134  11.037
46770W        W19838   8.498  25.207  10.902
46771W        W19839  17.782   9.422   0.200
46772W        W19840  12.747  32.129   3.285
46773W        W19841  43.110  14.155   2.844
46774W        W19842  17.204  17.333   4.589
46775W        W19843  34.760  19.327  12.091
46776W        W19844  22.669   6.967  14.372
46777W        W19845  23.545  38.799   3.660
46778W        W19846  14.714  16.834  11.008
46779W        W19847   8.456  15.000   1.278
46780W        W19848  38.942  33.231   4.982
46781W        W19849  30.385  24.822   3.353
46782W        W19850  37.675   9.962  11.779
46783W        W19851  42.578  38.279  13.831
46784W        W19852   5.450  24.290   4.825
46785W        W19853   5.843  31.474   4.368
46786W        W19854  13.681  31.665  11.506
46787W        W19855  34.613  39.416  11.654
46788W        W19856  22.087  17.183   2.443
46789W        W19857  17.610  12.251   4.140
46790W        W19858   2.997  41.811  12.581
46791W        W19859   1.257   7.173  12.028
46792W        W19860  36.485   8.343   1.045
46793W        W19861  14.659  25.948  11.110
46794W        W19862  34.056   7.393   0.287
46795W        W19863  21.304  11.274  10.875
46796W        W19864  30.356   4.907   0.329
46797W        W19865  13.202   8.119  12.579
46798W        W19866  42.530  15.417  11.522
46799W        W19867   2.176  19.802   0.732
46800W        W19868  44.229  17.252  10.704
46801W        W19869  44.952   6.629   5.000
46802W        W19870  34.063  36.001  12.222
46803W        W19871   0.446  23.029  10.388
46804W        W19872  26.673  14.591   0.251
46805W        W19873  25.940  11.384  11.012
46806W        W19874  25.577  37.521   5.097
46807W        W19875  29.907  14.716   4.156
46808W        W19876   2.410   9.409   1.636
46809W        W19877  24.890  22.554  13.516
46810W        W19878   9.962  40.306   1.804
46811W        W19879  11.152  26.015  14.383
46812W        W19880   7.955   1.351  14.860
46813W        W19881  36.602  15.456  13.300
46814W        W19882  33.590  28.662   0.811
46815W        W19883  42.210  30.093   2.496
46816W        W19884  41.616   3.936   4.525
46817W        W19885  10.578  24.659   0.301
46818W        W19886  34.846   2.915   0.381
46819W        W19887  10.632  19.124  13.561
46820W        W19888  14.362   9.820   4.085
46821W        W19889  27.031  40.082   1.834
46822W        W19890  41.825  35.966  14.837
46823W        W19891   8.736  25.182   0.915
46824W        W19892  43.146   8.311  14.728
46825W        W19893  26.605  21.465   3.254
46826W        W19894  36.425  20.888  12.214
46827W        W19895  10.881  41.949  14.431
46828W        W19896  24.538  32.107  13.051
46829W        W19897  13.296  37.869   4.839
46830W        W19898  29.524  14.612  10.602
46831W        W19899  21.130   3.206   1.925
46832W        W19900   1.990   1.652  10.695
46833W        W19901  31.424  13.212  14.015
46834W        W19902  43.890   9.129   1.973
46835W        W19903  16.202   6.715   4.452
46836W        W19904  26.277  36.850  12.654
46837W        W19905  12.212  44.743  11.419
46838W        W19906  14.680   2.484  12.933
46839W        W19907  22.976  39.552  10.361
46840W        W19908   3.323  22.677  13.110
46841W        W19909  12.279  19.260   3.114
46842W        W19910  41.869  40.767   4.581
46843W        W19911   1.374  21.728   4.473
46844W        W19912   5.731  38.560   1.317
46845W        W19913  24.749  32.640   1.957
46846W        W19914  17.324  32.816  13.848
46847W        W19915  13.384  16.159  14.301
46848W        W19916  33.087  33.730  11.739
46849W        W19917  32.304  22.179   2.192
46850W        W19918   6.255  22.236  13.820
46851W        W19919  32.728  28.159  10.559
46852W        W19920  44.794  18.593   1.601
46853W        W19921  23.568  25.597  12.356
46854W        W19922  37.689  15.686  14.840
46855W        W19923  29.492  40.515   3.962
46856W        W19924   7.703  21.590  11.091
46857W        W19925  22.055  42.824  12.823
46858W        W19926   2.788  26.227   1.526
46859W        W19927  10.349  36.149   1.416
46860W        W19928   3.150  13.438  12.027
46861W        W19929  24.401  41.281  14.943
46862W        W19930   3.219  36.773  13.480
46863W        W19931  10.311   3.168  11.495
46864W        W19932  11.288  25.921  12.429
46865W        W19933  37.318  36.816   1.199
46866W        W19934  18.952  11.934  10.753
46867W        W19935  41.107  15.299  10.511
46868W        W19936   2.386  37.601  13.150
46869W        W19937  29.531  22.467   1.865
46870W        W19938  15.307  44.697   4.594
46871W        W19939  30.366  16.039  11.549
46872W        W19940  22.170  15.918   4.047
46873W        W19941   2.312  16.124  10.938
46874W        W19942  23.533  36.301   0.801
46875W        W19943   7.165  15.825  14.096
46876W        W19944  17.836  41.471  14.408
46877W        W19945  27.588  21.058   1.804
46878W        W19946  32.120  28.401  12.753
46879W        W19947  41.033  15.445   2.597
46880W        W19948  18.119  35.899  13.867
46881W        W19949  15.606  16.250   1.865
46882W        W19950   5.159   0.992  10.818
46883W        W19951  41.357  39.515  10.463
46884W        W19952  33.486  28.764  14.898
46885W        W19953   7.363   4.309   2.316
46886W        W19954   9.173  19.796   3.189
46887W        W19955   5.190  43.058   2.639
46888W        W19956  40.770  32.774   0.823
46889W        W19957  13.106  37.943   3.376
46890W        W19958   1.695   8.627  14.278
46891W        W19959  16.010   1.728  11.845
46892W        W19960   5.389   6.304   4.676
46893W        W19961  16.551  44.996  14.797
46894W        W19962  42.627  21.042   1.344
46895W        W19963  29.607  44.020  14.548
46896W        W19964  44.956  34.797   1.294
46897W        W19965  17.633  39.219  10.696
46898W        W19966  20.052  13.454  12.691
46899W        W19967   3.558  13.583   3.761
46900W        W19968  44.921  24.474   3.392
46901W        W19969  26.558   0.845   0.651
46902W        W19970   1.283  11.680  14.180
46903W        W19971   1.378  12.866  14.819
46904W        W19972  41.441  27.341   3.015
46905W        W19973  32.711   7.812  11.096
46906W        W19974  30.938  41.874   3.245
46907W        W19975   4.590  15.485  13.099
46908W        W19976  38.970  34.623  14.854
46909W        W19977  34.497  29.693   3.648
46910W        W19978  38.052  30.024   1.332
46911W        W19979  44.302  20.459  11.231
46912W        W19980   8.379  38.218  13.556
46913W        W19981  30.532  42.766   4.802
46914W        W19982  17.848  14.394  14.374
46915W        W19983  14.261  27.236  12.531
46916W        W19984   9.937  15.104  13.914
46917W        W19985  40.353   5.660  10.765
46918W        W19986  22.789  23.451  13.579
46919W        W19987  32.060   7.619   2.341
46920W        W19988  20.699  41.002   0.021
46921W        W19989  31.399  40.372   0.902
46922W        W19990  11.123  41.981  13.030
46923W        W19991   6.148  36.708  11.180
46924W        W19992  37.358  38.417  13.023
46925W        W19993  34.823  21.541  11.412
46926W        W19994  18.495  14.135  12.897
46927W        W19995  16.855  24.273   0.941
46928W        W19996  42.377  12.813  13.831
46929W        W19997  30.910   7.905   3.306
46930W        W19998  14.635   5.951   3.347
46931W        W19999  35.470  39.251  14.385
46932W        W20000   5.272  39.535  12.933
46933W        W20001  13.529  17.197  12.647
46934W        W20002   8.325  19.315  11.185
46935W        W20003  29.033  36.016  13.396
46936W        W20004  26.554  22.845   1.303
46937W        W20005  19.300   4.781  12.105
46938W        W20006   0.439   2.784  12.571
46939W        W20007  20.316  12.234   4.956
46940W        W20008  12.146  34.462  10.652
46941W        W20009  27.917   6.239  12.071
46942W        W20010  25.552  20.028  11.167
46943W        W20011  15.516  24.828  11.339
46944W        W20012  13.348  29.148   2.811
46945W        W20013  35.972   1.376   1.262
46946W        W20014  37.185  26.072   1.440
46947W        W20015  20.832  21.895   2.235
46948W        W20016  35.366  44.866   3.196
46949W        W20017  42.691  41.166   2.250
46950W        W20018   1.763  18.587   3.241
46951W        W20019  12.829  34.632   4.154
46952W        W20020   4.528  15.277  14.351
46953W        W20021  40.871  12.125   3.620
46954W        W20022  14.198  18.848  10.773
46955W        W20023  18.534  44.843   0.928
46956W        W20024  10.489  11.230   1.872
46957W        W20025   8.855   8.257  12.638
46958W        W20026  37.786   8.346  11.935
46959W        W20027  12.630  40.759   0.295
46960W        W20028  27.669  39.252   2.808
46961W        W20029   0.700  41.126   1.465
46962W        W20030  21.137   4.816   3.637
46963W        W20031  18.189  21.181  13.440
46964W        W20032  33.383  22.705  14.260
46965W        W20033   9.731  29.258   1.183
46966W        W20034  22.628  28.976  11.678
46967W        W20035  20.523   0.299   3.374
46968W        W20036  35.003  18.663   3.262
46969W        W20037  12.342  40.846   2.339
46970W        W20038   2.248  22.830   2.893
46971W        W20039  41.365   5.752  11.991
46972W        W20040  12.129  33.516  13.374
46973W        W20041  25.574  26.949   0.798
46974W        W20042  30.509  40.247   0.744
46975W        W20043   1.942  44.790  13.981
46976W        W20044   1.482  11.085  12.467
46977W        W20045  42.919   7.972   4.626
46978W        W20046  43.327  22.678  12.999
46979W        W20047  20.051   9.702  11.628
46980W        W20048  24.908  26.191   2.861
46981W        W20049   7.889   0.104   4.593
46982W        W20050  25.418  10.587  11.620
46983W        W20051  11.801  15.611   4.344
46984W        W20052  15.180  21.514   1.826
46985W        W20053   8.103  22.035  14.531
46986W        W20054  38.936  25.978  10.649
46987W        W20055  17.004  31.690  12.894
46988W        W20056  32.883  15.637   4.116
46989W        W20057  44.852  19.251  13.502
46990W        W20058   2.263  27.526   2.324
46991W        W20059  41.803  33.614  11.620
46992W        W20060  39.674  27.179   2.924
46993W        W20061  26.411  24.993   2.770
46994W        W20062  18.645  16.592   0.949
46995W        W20063  33.496  15.550   1.427
46996W        W20064   7.353  11.741  10.695
46997W        W20065  31.076  43.964  10.677
46998W        W20066   7.830  26.212  12.834
46999W        W20067  39.687  16.111   2.644
47000W        W20068   5.283  29.176  13.215
47001W        W20069  35.850   1.874   1.161
47002W        W20070  39.882   4.795  13.992
47003W        W20071  37.576  39.084  14.376
47004W        W20072  35.020  33.697   2.283
47005W        W20073  23.160  11.333  13.588
47006W        W20074  25.487  37.028   5.340
47007W        W20075   9.858  12.365   1.685
47008W        W20076  38.015  18.519  14.667
47009W        W20077  41.433  16.327  14.435
47010W        W20078  14.146  15.770  12.461
47011W        W20079  18.654   8.108  14.425
47012W        W20080  13.718  20.182   4.226
47013W        W20081   0.896  36.612  13.807
47014W        W20082  37.905  11.067  13.190
47015W        W20083  13.856  44.937  12.550
47016W        W20084  30.410  42.569  10.720
47017W        W20085  23.096  36.439  12.493
47018W        W20086  12.977   5.007  12.400
47019W        W20087  21.695  34.085  13.024
47020W        W20088   7.594  16.153  14.005
47021W        W20089  40.773   8.842  10.746
47022W        W20090  32.864  20.518  13.045
47023W        W20091   7.917   2.194   3.425
47024W        W20092  39.527  38.914  11.029
47025W        W20093   9.807  30.456   2.163
47026W        W20094  41.778  23.735  13.954
47027W        W20095  30.240  41.013   2.351
47028W        W20096   0.817  19.738   0.972
47029W        W20097  28.330  25.020  11.235
47030W        W20098  29.995   3.510  14.431
47031W        W20099   4.170  35.221  13.064
47032W        W20100   2.210  43.854  13.557
47033W        W20101   7.750  25.219   2.776
47034W        W20102   2.957  40.051   4.328
47035W        W20103   6.327  19.813   9.928
47036W        W20104  41.429  44.084  13.569
47037W        W20105  22.570  41.912   2.598
47038W        W20106   9.134  18.585   1.239
47039W        W20107   3.364   9.959  11.415
47040W        W20108  42.844  13.887  14.374
47041W        W20109  30.593  41.299   2.689
47042W        W20110  14.704  37.069   4.781
47043W        W20111  19.993  20.831   2.303
47044W        W20112  18.727  21.074   0.722
47045W        W20113  20.895  11.336   1.060
47046W        W20114  21.043  40.263  11.533
47047W        W20115  14.085  36.951   3.777
47048W        W20116   9.397  11.624  11.110
47049W        W20117  39.550  36.323  11.375
47050W        W20118  12.749  12.111   5.095
47051W        W20119  26.155  33.437   0.862
47052W        W20120  32.529  39.652   2.162
47053W        W20121  36.448  16.293  14.487
47054W        W20122  33.194  15.813   4.534
47055W        W20123  32.030  16.009   0.378
47056W        W20124  12.203  21.639  14.066
47057W        W20125  30.462  33.379   2.882
47058W        W20126  36.540  19.939   2.277
47059W        W20127  36.492  12.802  11.635
47060W        W20128  12.894  22.698  11.388
47061W        W20129  23.692  43.849   1.093
47062W        W20130  30.999  19.960   0.476
47063W        W20131  20.319  39.965  13.373
47064W        W20132  24.177  29.864   3.457
47065W        W20133   9.621  38.019   4.593
47066W        W20134  29.634  44.009  12.878
47067W        W20135  15.586  18.792  12.122
47068W        W20136  20.764  42.729  11.281
47069W        W20137  19.099  39.763   3.409
47070W        W20138  23.609  10.767  14.380
47071W        W20139  43.483  23.479  12.561
47072W        W20140  14.506  12.281   3.732
47073W        W20141  26.082  41.937  11.639
47074W        W20142  10.241  18.796  13.785
47075W        W20143  43.964  38.026   0.438
47076W        W20144  14.233  37.176   2.415
47077W        W20145  26.066  37.235   2.701
47078W        W20146  16.500  23.962  12.870
47079W        W20147  23.193  41.952   3.743
47080W        W20148  26.418   9.799   0.864
47081W        W20149  29.537  12.727  12.145
47082W        W20150  34.082  36.279   0.290
47083W        W20151  19.099  42.320   0.316
47084W        W20152   8.419  37.312   4.613
47085W        W20153  31.147  41.011   1.864
47086W        W20154  18.077  20.538   1.463
47087W        W20155   0.486  33.623   1.349
47088W        W20156  29.131  17.729   5.215
47089W        W20157  36.078  25.606  11.749
47090W        W20158  11.714  33.633  11.185
47091W        W20159  30.944  27.054   0.032
47092W        W20160  28.894  37.845   0.383
47093W        W20161  33.566  34.718   2.358
47094W        W20162   0.329  18.587   1.636
47095W        W20163   3.193   3.318   2.626
47096W        W20164  26.059  42.346  11.985
47097W        W20165  21.875  16.973   9.877
47098W        W20166  38.807  14.764  10.998
47099W        W20167  28.129   9.811   1.523
47100W        W20168   4.778  43.287   3.973
47101W        W20169  26.939  43.776   4.592
47102W        W20170  30.373  44.934   2.011
47103W        W20171   3.765   0.431   3.600
47104W        W20172  13.418  44.334  11.430
47105W        W20173  37.923  21.350   0.994
47106W        W20174   9.412   1.097   0.054
47107W        W20175   5.544  15.106   2.313
47108W        W20176  12.077  43.871  13.812
47109W        W20177  31.701  21.311  13.794
47110W        W20178   8.738  10.344   2.374
47111W        W20179  22.173  26.891  11.026
47112W        W20180   3.671  23.095  13.067
47113W        W20181   2.004  26.139   2.845
47114W        W20182  15.597   0.703   0.500
47115W        W20183  33.494  32.241   5.039
47116W        W20184  29.814  35.720  14.393
47117W        W20185   1.757  24.644   3.166
47118W        W20186  33.346  30.079  12.381
47119W        W20187  44.688   7.741   1.863
47120W        W20188  10.641  10.481   1.908
47121W        W20189  23.908  40.013  13.474
47122W        W20190   1.538  28.113   0.331
47123W        W20191   7.505  42.993   2.927
47124W        W20192  21.693  35.493   4.152
47125W        W20193  31.907  24.327   1.098
47126W        W20194  34.027  28.641  14.978
47127W        W20195  40.995  34.369   1.029
47128W        W20196  22.080  16.252  10.599
47129W        W20197  16.075  17.579  13.089
47130W        W20198  21.119   4.595   0.040
47131W        W20199  31.124   8.134   1.100
47132W        W20200  19.080  33.100  14.981
47133W        W20201  12.593  32.874   1.006
47134W        W20202  41.732   6.548  14.161
47135W        W20203   3.782  39.789  11.090
47136W        W20204  24.965  26.990  11.582
47137W        W20205   1.541  21.669  11.460
47138W        W20206  13.771   7.367  10.812
47139W        W20207  42.573   6.938   4.041
47140W        W20208  43.980   7.949  13.455
47141W        W20209  13.161  29.476   4.152
47142W        W20210  41.607  39.508  13.866
47143W        W20211  20.448  35.727   4.562
47144W        W20212  20.198  27.101   2.796
47145W        W20213  22.635  30.445  10.177
47146W        W20214  29.786   6.499   0.834
47147W        W20215  30.196  15.749   3.070
47148W        W20216   5.736  22.957  12.890
47149W        W20217  26.019  28.757   1.741
47150W        W20218  19.654  10.749  13.128
47151W        W20219  41.762  20.034   1.674
47152W        W20220  25.508  43.129   5.010
47153W        W20221   3.765  35.606  13.901
47154W        W20222  19.631  16.087   4.123
47155W        W20223   8.713  15.059  13.920
47156W        W20224  36.973  17.120   2.397
47157W        W20225   9.181   2.360   1.953
47158W        W20226  11.847  29.073  13.850
47159W        W20227  16.588  25.447   2.368
47160W        W20228  11.721   2.321   2.278
47161W        W20229  11.634  27.159  10.472
47162W        W20230   5.505  23.017  10.774
47163W        W20231  25.613   8.914   2.732
47164W        W20232  24.307  41.746  12.931
47165W        W20233   7.512   1.062   4.173
47166W        W20234  29.455  12.763  11.638
47167W        W20235  32.204  28.658   0.930
47168W        W20236  23.591  39.845   3.350
47169W        W20237   6.372  15.774   3.281
47170W        W20238  28.362  34.839   0.788
47171W        W20239  42.387   0.781   0.306
47172W        W20240  13.359   2.892  11.561
47173W        W20241  21.012  28.535   0.920
47174W        W20242   7.615  23.648   0.690
47175W        W20243  31.629   7.891   0.503
47176W        W20244  28.955  33.292   0.007
47177W        W20245  16.116   0.827   1.336
47178W        W20246  27.886   0.253   4.852
47179W        W20247  17.356   3.842   1.875
47180W        W20248  16.987  18.344   2.340
47181W        W20249  30.972  22.792  12.588
47182W        W20250  13.643  37.869  11.513
47183W        W20251  30.797  21.416  12.234
47184W        W20252   1.826  31.940   3.777
47185W        W20253  29.619  39.817  13.843
47186W        W20254  20.088  16.555  14.909
47187W        W20255  32.847   6.468  11.558
47188W        W20256  37.962  14.085  11.064
47189W        W20257  10.240  43.521   1.924
47190W        W20258   2.572  32.665  14.726
47191W        W20259  12.031  40.530  12.028
47192W        W20260  10.218  35.958   0.588
47193W        W20261  18.778  10.721  12.713
47194W        W20262  30.548  41.028   3.143
47195W        W20263   7.237  22.243  13.433
47196W        W20264  16.417   5.395   2.428
47197W        W20265  16.711  39.025   3.970
47198W        W20266   6.007  16.609  11.978
47199W        W20267  16.654  12.328   1.247
47200W        W20268  26.891  33.718  11.126
47201W        W20269  17.606  24.500   0.332
47202W        W20270  31.883  44.427  13.561
47203W        W20271   3.604  16.836  13.829
47204W        W20272  38.544  35.559   3.744
47205W        W20273   7.535  38.976  12.969
47206W        W20274  27.974  29.982  11.180
47207W        W20275   6.300  26.560   2.612
47208W        W20276  39.934  33.153  13.304
47209W        W20277  13.727  19.211  12.374
47210W        W20278  24.608   8.659  13.024
47211W        W20279   1.547  42.785  10.806
47212W        W20280   7.201   6.243   1.897
47213W        W20281  35.338  41.059   0.371
47214W        W20282  10.426  16.043   0.774
47215W        W20283  21.645  29.938  13.880
47216W        W20284  43.758  19.548  11.585
47217W        W20285  15.609  11.649   0.967
47218W        W20286   8.632  20.754  13.820
47219W        W20287  34.921  29.127   1.163
47220W        W20288  38.297  18.709  10.729
47221W        W20289   4.404  43.063   1.852
47222W        W20290   6.456  44.370  11.267
47223W        W20291   4.991   0.057   3.293
47224W        W20292  25.371  14.447  14.721
47225W        W20293  41.642  33.565  13.996
47226W        W20294   9.165   4.167   0.743
47227W        W20295  28.010  11.584   1.788
47228W        W20296  28.453   0.513  13.993
47229W        W20297   2.733   1.248   1.255
47230W        W20298  38.927   3.785  12.806
47231W        W20299  17.163  34.561   0.332
47232W        W20300  15.156  43.361   3.673
47233W        W20301  34.211  28.012   0.890
47234W        W20302   5.783  11.877  10.730
47235W        W20303  29.984  23.054  14.191
47236W        W20304  29.957  36.880  12.652
47237W        W20305  24.030  40.240   0.272
47238W        W20306  43.410   5.578   4.514
47239W        W20307  42.313  21.494  11.921
47240W        W20308  24.026  38.514  13.174
47241W        W20309   6.858  22.288  13.024
47242W        W20310  10.689  19.288  11.577
47243W        W20311  42.819  24.806  12.926
47244W        W20312  10.799   2.360  14.594
47245W        W20313   9.207  15.803   1.847
47246W        W20314  11.407  42.885  13.102
47247W        W20315  22.763  20.939   3.342
47248W        W20316  40.987  27.762  14.040
47249W        W20317  44.242  43.848  12.875
47250W        W20318  15.592  24.158  10.536
47251W        W20319  24.403  28.659   2.167
47252W        W20320  19.058   8.220   2.644
47253W        W20321  19.066  29.748   2.043
47254W        W20322  34.637  33.444  11.042
47255W        W20323  22.187  36.588  14.264
47256W        W20324  44.294   2.594   3.688
47257W        W20325  27.712  36.808   3.730
47258W        W20326  38.090  16.953   4.019
47259W        W20327   8.869  22.941  11.162
47260W        W20328  17.915  12.198  14.451
47261W        W20329  26.058  43.560  13.257
47262W        W20330  11.128  11.372  10.638
47263W        W20331   2.240  14.193   0.170
47264W        W20332  22.207  17.677   2.623
47265W        W20333   6.349   3.717   4.249
47266W        W20334  14.359  40.428  14.441
47267W        W20335  10.373   6.821   2.418
47268W        W20336   0.387   9.405   3.299
47269W        W20337  17.735  18.262  11.667
47270W        W20338  20.663  11.034  14.411
47271W        W20339   4.950   1.850  14.078
47272W        W20340  24.497  20.605   1.642
47273W        W20341  18.264  10.138  13.557
47274W        W20342  28.179  22.567   2.428
47275W        W20343  13.854  25.712  11.186
47276W        W20344  39.063   8.699  11.115
47277W        W20345   5.064   1.392  13.851
47278W        W20346  39.894   6.646   0.660
47279W        W20347  44.892  40.474  12.883
47280W        W20348  28.419  10.276  13.440
47281W        W20349  20.866  22.056  14.505
47282W        W20350   4.197  30.044  14.705
47283W        W20351  11.352  27.108   0.449
47284W        W20352  41.942  21.783   4.377
47285W        W20353  28.440  26.113   3.591
47286W        W20354  19.308  17.555  11.150
47287W        W20355   8.616   0.312  11.147
47288W        W20356  42.768  29.151   3.381
47289W        W20357  24.109  22.970  12.174
47290W        W20358   5.230  36.582  12.852
47291W        W20359  11.685   7.682  13.697
47292W        W20360   9.417   1.136   4.099
47293W        W20361   4.032  23.914  10.391
47294W        W20362  44.107   7.149   2.598
47295W        W20363  40.351   4.392   2.137
47296W        W20364  27.989  26.012   1.683
47297W        W20365  24.279  41.084   3.486
47298W        W20366  21.472  17.938  13.092
47299W        W20367   9.905   4.621   3.581
47300W        W20368   1.574  28.886   1.381
47301W        W20369   2.134  39.391   0.856
47302W        W20370  37.622  14.095   3.833
47303W        W20371   0.248  18.622   3.408
47304W        W20372   7.749  28.784  13.645
47305W        W20373  11.154  15.228   2.326
47306W        W20374  27.573  35.861  14.128
47307W        W20375  23.589  15.328   2.306
47308W        W20376  44.458  41.320  10.749
47309W        W20377  10.681  35.931  10.903
47310W        W20378  14.786  28.117  12.932
47311W        W20379   2.974  32.339  14.790
47312W        W20380  35.068   6.481  11.297
47313W        W20381  25.132  38.386   0.939
47314W        W20382   3.420   2.006   2.890
47315W        W20383   9.447  31.545  12.126
47316W        W20384  31.051  28.906  10.671
47317W        W20385  22.686  16.665  14.787
47318W        W20386  30.688   2.380  13.922
47319W        W20387  19.283  29.960   0.786
47320W        W20388   7.256  11.777  11.667
47321W        W20389  43.081  30.910  12.728
47322W        W20390  36.108  42.841   2.722
47323W        W20391  35.375   0.874   0.915
47324W        W20392  39.779  12.188   4.036
47325W        W20393  31.626  28.693   1.886
47326W        W20394   0.328  26.050  13.348
47327W        W20395  44.394  11.149  13.843
47328W        W20396  12.330  43.325   2.176
47329W        W20397  20.969   0.393   1.937
47330W        W20398  44.220  13.194  11.959
47331W        W20399   8.657  43.906   4.451
47332W        W20400   7.283  31.117  14.374
47333W        W20401  35.925  31.550  12.546
47334W        W20402   6.663  42.949  11.609
47335W        W20403  30.052  14.515  10.641
47336W        W20404  35.908  24.692  11.165
47337W        W20405   4.524  37.524  12.650
47338W        W20406  20.973  42.333  12.087
47339W        W20407  37.575  16.270   0.543
47340W        W20408  43.277   2.014   9.924
47341W        W20409  31.459  43.817  13.763
47342W        W20410  28.184  28.049  11.010
47343W        W20411  42.789   0.333  14.290
47344W        W20412  42.923  21.718  12.426
47345W        W20413  39.307  12.803   2.445
47346W        W20414  30.020  11.347  13.151
47347W        W20415  40.589  18.291   1.761
47348W        W20416  34.011  19.692  11.871
47349W        W20417  26.134  41.320   0.220
47350W        W20418  13.222  36.883   3.263
47351W        W20419   4.035  32.372  13.214
47352W        W20420   6.512  42.355   3.625
47353W        W20421   2.258   3.990  13.019
47354W        W20422   8.110  34.386   4.209
47355W        W20423  43.725  24.079   2.022
47356W        W20424  24.535  15.578  13.785
47357W        W20425   9.925  13.327   2.324
47358W        W20426  27.974  37.264  11.222
47359W        W20427  43.148   0.264   3.670
47360W        W20428  12.966  25.631  13.850
47361W        W20429   7.697  28.297   2.320
47362W        W20430  32.299  35.086   1.472
47363W        W20431  11.289  25.120  13.899
47364W        W20432  10.265  18.592  11.643
47365W        W20433   6.167  16.810  12.460
47366W        W20434   4.160  41.879   4.650
47367W        W20435  30.826  12.258   2.685
47368W        W20436  12.441  13.611  14.605
47369W        W20437  31.118  10.381  14.879
47370W        W20438  32.112  30.149   4.325
47371W        W20439  36.609   9.887  14.540
47372W        W20440   3.768  27.332  13.945
47373W        W20441  44.481  22.789  12.823
47374W        W20442  25.643  13.704  13.107
47375W        W20443  41.565  23.710  13.468
47376W        W20444  43.220  39.047   4.557
47377W        W20445  39.951   1.523   0.416
47378W        W20446  40.469   8.166   3.692
47379W        W20447  36.674  26.716   0.904
47380W        W20448   0.740  37.458  12.538
47381W        W20449  16.275  21.330   4.157
47382W        W20450  22.155  41.959  11.502
47383W        W20451  24.541  23.745   4.103
47384W        W20452  40.456  18.011  11.610
47385W        W20453   0.890   8.320   0.553
47386W        W20454  23.667  44.079   2.406
47387W        W20455  42.867  40.314   4.722
47388W        W20456   3.252  35.052  14.406
47389W        W20457  13.850  31.192  11.576
47390W        W20458  16.186  23.619   2.259
47391W        W20459  16.490  15.658  10.709
47392W        W20460  43.506  44.263   2.923
47393W        W20461  29.042  11.509  13.404
47394W        W20462  34.643   4.239   0.387
47395W        W20463  20.282  34.611   0.754
47396W        W20464  21.301  20.177  10.707
47397W        W20465  25.244  28.618  14.012
47398W        W20466   4.974  10.800   3.193
47399W        W20467  17.313  24.581  13.422
47400W        W20468  35.828  18.286   0.309
47401W        W20469   2.744   9.453  11.045
47402W        W20470  30.909   0.411   2.620
47403W        W20471  40.806  26.481  11.510
47404W        W20472  16.141   9.309  12.963
47405W        W20473   8.213  28.737  13.881
47406W        W20474  16.804  27.172  11.487
47407W        W20475   1.665   1.254  10.646
47408W        W20476   3.881   7.268   1.514
47409W        W20477   4.862  26.025   1.475
47410W        W20478  35.411  15.291   4.282
47411W        W20479   0.821   6.367   3.345
47412W        W20480  17.050  17.598   4.178
47413W        W20481  30.537   6.755  14.910
47414W        W20482  35.107  22.114   3.750
47415W        W20483  27.622  29.536   0.054
47416W        W20484  15.367  31.028   1.238
47417W        W20485  14.806  39.481   0.029
47418W        W20486  16.735  36.322   4.053
47419W        W20487  10.379  39.472   3.323
47420W        W20488  26.816  30.186   0.179
47421W        W20489   4.176  44.957   2.349
47422W        W20490  14.775  17.017   3.639
47423W        W20491  27.108  21.155  14.983
47424W        W20492  27.368  28.093  10.689
47425W        W20493  31.459   6.876   1.829
47426W        W20494   2.221   5.632  14.226
47427W        W20495   0.207  12.778   1.437
47428W        W20496  35.450  44.901   0.521
47429W        W20497  44.718  34.599  10.763
47430W        W20498  12.184  27.948   2.336
47431W        W20499  35.275  44.368   3.303
47432W        W20500   9.100  14.337  13.354
47433W        W20501   3.720  14.301   2.161
47434W        W20502  14.067  39.198   0.662
47435W        W20503  21.632  37.962  14.353
47436W        W20504  29.447  38.052  10.731
47437W        W20505   0.014  28.032   1.702
47438W        W20506  34.934  42.954  11.453
47439W        W20507  23.806  21.677  11.153
47440W        W20508  21.050  33.987  11.063
47441W        W20509  11.128  20.300  12.322
47442W        W20510  17.016  28.608   2.508
47443W        W20511   5.812  31.449   0.379
47444W        W20512  39.683  14.883  12.681
47445W        W20513  25.537  18.323  12.004
47446W        W20514  39.156   2.055   5.458
47447W        W20515  20.110   5.969  11.560
47448W        W20516  36.581  36.311   2.233
47449W        W20517  16.124  31.133   1.852
47450W        W20518  39.577  33.052   2.696
47451W        W20519  36.064  37.900  12.038
47452W        W20520   1.330  23.720   0.659
47453W        W20521  20.036  30.386  14.412
47454W        W20522   8.982   3.468  11.498
47455W        W20523   2.488  43.058  12.056
47456W        W20524  21.976  33.410   1.736
47457W        W20525  33.206  12.027   4.843
47458W        W20526  16.837  32.135   2.397
47459W        W20527  38.910  18.122  11.691
47460W        W20528  14.686  25.810   3.226
47461W        W20529  32.518  27.665   2.760
47462W        W20530   7.396  37.941   3.345
47463W        W20531  22.139  36.183  13.934
47464W        W20532  14.266   7.232  10.477
47465W        W20533  29.709  33.612  13.480
47466W        W20534  17.126  44.803  13.430
47467W        W20535   8.813  41.270   2.620
47468W        W20536  20.189  11.824   0.848
47469W        W20537   4.757  14.126  12.954
47470W        W20538  29.451  19.531  13.973
47471W        W20539  27.962   4.315   4.158
47472W        W20540  19.299  12.180   3.808
47473W        W20541  19.037  39.987   3.872
47474W        W20542  41.858  42.595  14.356
47475W        W20543  26.048  37.343   3.833
47476W        W20544  10.836  32.449  12.500
47477W        W20545  44.464  15.400   2.373
47478W        W20546  41.800  38.570  11.373
47479W        W20547  44.479  12.040  14.624
47480W        W20548  10.380  19.274  12.912
47481W        W20549  32.702   0.702   2.414
47482W        W20550  32.441  44.306   4.719
47483W        W20551  33.588  42.356   0.302
47484W        W20552  41.350  17.792   1.984
47485W        W20553  38.899  29.259   3.221
47486W        W20554   7.246  23.912   3.845
47487W        W20555  34.277   8.455  13.930
47488W        W20556  31.456   9.277   0.535
47489W        W20557  24.054   6.685  14.284
47490W        W20558  17.162  34.054   0.280
47491W        W20559  20.704  21.298   1.705
47492W        W20560   6.817  12.964  11.654
47493W        W20561  17.176  14.604  10.685
47494W        W20562   9.176  16.166  13.315
47495W        W20563  20.245  37.676   1.357
47496W        W20564  19.734  38.515   2.703
47497W        W20565   9.159   8.404   2.701
47498W        W20566  27.944   3.382  14.496
47499W        W20567   4.694   2.463  13.394
47500W        W20568  30.002  21.282   3.299
47501W        W20569   8.245  41.961  13.488
47502W        W20570  17.559  30.771  14.335
47503W        W20571  41.817  29.491   4.079
47504W        W20572  26.227  22.513   0.387
47505W        W20573  13.819  41.185   2.812
47506W        W20574   5.862  27.488  11.517
47507W        W20575   0.984  42.249   5.036
47508W        W20576  30.092  16.481   4.560
47509W        W20577   7.367   4.695   1.359
47510W        W20578  30.070  19.491  11.939
47511W        W20579  43.966  14.549   5.030
47512W        W20580  18.660  26.484   2.194
47513W        W20581  22.525  19.285   2.216
47514W        W20582  30.612  42.971   0.962
47515W        W20583  12.058  39.121  12.012
47516W        W20584  17.093  39.809  12.061
47517W        W20585  21.089  31.056   1.906
47518W        W20586  39.522  21.584  10.407
47519W        W20587  35.871  13.578  14.760
47520W        W20588  41.743  41.789   3.275
47521W        W20589  38.184  24.976  13.392
47522W        W20590   3.534  36.059  11.578
47523W        W20591  42.448  39.800   2.235
47524W        W20592  40.294  13.744   9.960
47525W        W20593  35.318   5.923  13.401
47526W        W20594  14.012  20.720   2.672
47527W        W20595  26.421   1.344  14.892
47528W        W20596  40.883   6.428  10.661
47529W        W20597  22.118  30.398  12.463
47530W        W20598   5.306  17.720  11.671
47531W        W20599  42.521   9.964   3.633
47532W        W20600  28.723   1.611   0.849
47533W        W20601  23.202  21.168   1.663
47534W        W20602  22.953  12.801   3.602
47535W        W20603  36.155  25.262   0.190
47536W        W20604  21.863  22.683   0.267
47537W        W20605   0.132  17.657   3.635
47538W        W20606   3.685  18.278   3.349
47539W        W20607  22.969  42.857   2.381
47540W        W20608  29.073  37.147  14.742
47541W        W20609   9.212   9.605   0.673
47542W        W20610  29.562  42.396   0.667
47543W        W20611   2.589  12.122   1.554
47544W        W20612  32.002  43.784  10.241
47545W        W20613  33.096  42.485   3.785
47546W        W20614   7.667  38.207   1.606
47547W        W20615  13.472  32.928  11.780
47548W        W20616  14.025  34.874   5.016
47549W        W20617   7.980   7.806   1.353
47550W        W20618  18.251  23.903   3.869
47551W        W20619  17.099  42.207   1.938
47552W        W20620  21.215   0.386  12.854
47553W        W20621  11.015  21.641  13.392
47554W        W20622  13.690   1.721   2.340
47555W        W20623  22.639   4.004   4.790
47556W        W20624  29.945  44.213  11.139
47557W        W20625  32.948  21.285  12.511
47558W        W20626   2.122  21.418  10.708
47559W        W20627   9.407  14.545   4.234
47560W        W20628  10.901  34.579   4.555
47561W        W20629  33.457  27.431  14.938
47562W        W20630  38.859  32.084   0.460
47563W        W20631  17.845  24.635   3.157
47564W        W20632  40.895  11.184  14.791
47565W        W20633  36.362   9.434   4.115
47566W        W20634   7.375  44.532  12.027
47567W        W20635  40.565  37.113   3.617
47568W        W20636  28.994  27.875   0.975
47569W        W20637  28.923   9.545   4.533
47570W        W20638   3.042  10.135   0.910
47571W        W20639  18.792  38.949  12.932
47572W        W20640  42.491   4.139  11.692
47573W        W20641  43.005  28.547  11.511
47574W        W20642   6.019   3.848  10.738
47575W        W20643  27.881  33.031  12.629
47576W        W20644  42.415  33.505   2.584
47577W        W20645  11.442  32.804  10.589
47578W        W20646  26.965  41.314  12.516
47579W        W20647  19.591   9.384   2.360
47580W        W20648  32.822  38.860   0.857
47581W        W20649  12.823  40.293  13.440
47582W        W20650  37.784  40.909   2.644
47583W        W20651  22.727  21.966  14.271
47584W        W20652  44.304  11.789  13.420
47585W        W20653  40.791  16.191   3.230
47586W        W20654  26.049  10.496   3.711
47587W        W20655  16.832  19.553   4.871
47588W        W20656  25.951  20.691  11.648
47589W        W20657   0.714  10.156  11.851
47590W        W20658   9.289  44.638   3.027
47591W        W20659  43.747  25.702  14.671
47592W        W20660  12.825   8.359  14.440
47593W        W20661   1.703   4.362   3.157
47594W        W20662  22.787  35.356   0.940
47595W        W20663  27.037  38.983   3.722
47596W        W20664   1.761  20.013  14.507
47597W        W20665  33.266  43.481  11.282
47598W        W20666   7.585  17.989  12.059
47599W        W20667   7.382  40.329   9.975
47600W        W20668  38.547  27.632  12.059
47601W        W20669  41.428  12.680  13.762
47602W        W20670  35.443  17.819  14.294
47603W        W20671  34.417   3.215   3.251
47604W        W20672   4.005  29.068   2.836
47605W        W20673  36.968  23.029   2.839
47606W        W20674   5.495  43.474   3.585
47607W        W20675   0.594  18.972   1.841
47608W        W20676  23.154   0.331   5.649
47609W        W20677  30.112  29.984   0.207
47610W        W20678  34.366  30.662  14.344
47611W        W20679  11.016   8.528   1.391
47612W        W20680  26.929  36.813   3.090
47613W        W20681   9.281  20.212   4.669
47614W        W20682  18.194  23.061  14.008
47615W        W20683  40.114  40.498   2.605
47616W        W20684   6.199  38.764  10.991
47617W        W20685  34.096  19.587   1.928
47618W        W20686  40.607  15.158  11.674
47619W        W20687  12.622   1.319  11.499
47620W        W20688  28.887  20.298  14.849
47621W        W20689  32.434  42.700  12.484
47622W        W20690  29.833  14.236   0.773
47623W        W20691  40.872  18.350  12.603
47624W        W20692  11.123  32.617  14.186
47625W        W20693  11.086  15.765  11.399
47626W        W20694  35.005  16.204  12.903
47627W        W20695  24.620   2.331   3.635
47628W        W20696  42.105  39.994   4.072
47629W        W20697   8.750  30.623  14.915
47630W        W20698  13.679  29.952  12.243
47631W        W20699  44.195  18.221  14.502
47632W        W20700  37.999   1.882  10.935
47633W        W20701  12.217  26.431   2.285
47634W        W20702  34.627  15.253   0.347
47635W        W20703  28.162  20.820   1.010
47636W        W20704  35.639  42.612  11.154
47637W        W20705  24.144  34.173   2.259
47638W        W20706  28.107  12.112   2.854
47639W        W20707   6.324   8.908   5.086
47640W        W20708  43.401  39.570   4.555
47641W        W20709  27.641  13.270   4.696
47642W        W20710  30.961  42.885   5.084
47643W        W20711   7.512  20.658   2.947
47644W        W20712  35.513  23.666  11.195
47645W        W20713  20.942  21.987   3.251
47646W        W20714  17.785  11.125  10.725
47647W        W20715  44.989  15.328   0.087
47648W        W20716  38.083  28.727   1.547
47649W        W20717  22.696  29.341   1.234
47650W        W20718  26.611  31.968  14.906
47651W        W20719  32.464  44.859   0.400
47652W        W20720  41.371  39.475  13.396
47653W        W20721  31.599  23.137   3.273
47654W        W20722  26.920   8.431   2.775
47655W        W20723  39.220  44.477  13.855
47656W        W20724  26.994  15.150   3.131
47657W        W20725  36.796   0.429   0.854
47658W        W20726  24.197  32.463   4.900
47659W        W20727   7.881   5.745  13.781
47660W        W20728  24.685  40.924   2.002
47661W        W20729  38.414  15.835   3.196
47662W        W20730  29.186  34.901   4.093
47663W        W20731  33.603  25.510  12.061
47664W        W20732  16.845  23.457   3.274
47665W        W20733  18.859   8.674   1.788
47666W        W20734   7.874  24.880   1.791
47667W        W20735  21.218   4.021   3.242
47668W        W20736  22.175  38.064  14.683
47669W        W20737  32.837  35.022  13.763
47670W        W20738  24.572  30.966   2.633
47671W        W20739  27.200  19.469  13.301
47672W        W20740  41.419  10.008   2.640
47673W        W20741   4.794  19.115   3.279
47674W        W20742  12.008  41.900   1.710
47675W        W20743  28.913   8.700   1.662
47676W        W20744  20.328  28.058   3.425
47677W        W20745  40.798  10.418  10.772
47678W        W20746  38.768   0.333   4.246
47679W        W20747  28.695  22.480  11.184
47680W        W20748  39.890  35.675   0.812
47681W        W20749  25.563  13.439   1.828
47682W        W20750  33.898  10.023   1.176
47683W        W20751   9.126   3.280   0.368
47684W        W20752  30.089  18.248  10.743
47685W        W20753  33.566   9.683   2.264
47686W        W20754  43.094  16.087  10.713
47687W        W20755  33.027  17.536  14.871
47688W        W20756  25.391  10.664   0.888
47689W        W20757  22.132   0.857  13.430
47690W        W20758   5.067  21.238   3.645
47691W        W20759  41.973  12.770   2.304
47692W        W20760   7.331  21.214   1.107
47693W        W20761  36.426  15.851  11.632
47694W        W20762  25.540  24.604   4.533
47695W        W20763  17.780  13.997  14.679
47696W        W20764  35.086  26.242   2.093
47697W        W20765  37.825  37.481   1.828
47698W        W20766  11.848  29.056  10.300
47699W        W20767  44.908   9.748  12.419
47700W        W20768   4.971  10.645   1.347
47701W        W20769   0.849  36.944   3.755
47702W        W20770  21.294   1.931   1.803
47703W        W20771  44.463  38.570  13.765
47704W        W20772   7.839  14.445  12.858
47705W        W20773  29.122  11.327   4.345
47706W        W20774  39.905  22.082   1.430
47707W        W20775  34.863  10.639   4.604
47708W        W20776  26.679  42.268  13.360
47709W        W20777   1.212   6.328  13.931
47710W        W20778  11.578   8.924  12.496
47711W        W20779   2.294  24.744   3.256
47712W        W20780  39.856   4.858  13.451
47713W        W20781  14.786  21.909   3.074
47714W        W20782  29.956  12.250  13.600
47715W        W20783  11.206  19.315   4.979
47716W        W20784   8.909  25.618   3.774
47717W        W20785  28.643  38.950   0.906
47718W        W20786  39.550  20.090  14.992
47719W        W20787  31.607  36.068   3.136
47720W        W20788  15.070  35.402  10.785
47721W        W20789   2.224  12.053   1.181
47722W        W20790  19.212  14.710  11.577
47723W        W20791  33.602  23.093  14.574
47724W        W20792  24.704  31.159  13.553
47725W        W20793  36.882  30.968   2.711
47726W        W20794  44.951   9.095  10.918
47727W        W20795  12.952  30.545   1.909
47728W        W20796   8.814  17.078  13.548
47729W        W20797  42.711  44.740   0.984
47730W        W20798  41.344  31.476   4.693
47731W        W20799  15.274  18.411   2.680
47732W        W20800  23.879   8.760  11.976
47733W        W20801  27.681  21.230   4.652
47734W        W20802  20.681  21.247  11.340
47735W        W20803   6.790  44.690  13.114
47736W        W20804  15.284  20.534   0.354
47737W        W20805   7.225  26.580   3.682
47738W        W20806  43.978  24.488   1.197
47739W        W20807  29.559  41.760  13.551
47740W        W20808  23.109   4.864   3.048
47741W        W20809  39.003  22.775   2.627
47742W        W20810  42.511   6.890  12.646
47743W        W20811  13.093  13.734   3.158
47744W        W20812  39.720  26.958  11.097
47745W        W20813  32.546  25.970  14.362
47746W        W20814  39.203   8.414  14.953
47747W        W20815  36.135  13.356  10.506
47748W        W20816  17.280  31.754   4.943
47749W        W20817  16.878  39.851   0.252
47750W        W20818  16.789  41.207  13.600
47751W        W20819  12.164   4.247   1.710
47752W        W20820  16.433  30.674  12.583
47753W        W20821  16.738  34.367  10.635
47754W        W20822  12.035  39.628   4.263
47755W        W20823  22.118  14.919  14.034
47756W        W20824  32.490  44.293  14.169
47757W        W20825   1.327  18.256   3.277
47758W        W20826  21.436  24.769   1.409
47759W        W20827   9.047  23.193  12.409
47760W        W20828   0.201  37.626   0.805
47761W        W20829  38.960  21.583   3.273
47762W        W20830  16.737   9.251  12.117
47763W        W20831  19.938  12.102   0.472
47764W        W20832   9.353  20.793  14.880
47765W        W20833   1.892  11.390   4.857
47766W        W20834  22.950   5.327   4.664
47767W        W20835  33.254  22.130  12.622
47768W        W20836  39.591   2.044  14.356
47769W        W20837   3.514  23.572  13.472
47770W        W20838  32.602  20.123   4.397
47771W        W20839   8.914  28.748   2.385
47772W        W20840  20.407  22.091  11.717
47773W        W20841  22.470  14.038   4.232
47774W        W20842  22.649  40.996   0.741
47775W        W20843   4.869  13.642   2.145
47776W        W20844  44.870  42.996  11.051
47777W        W20845  26.560  11.366   0.542
47778W        W20846  26.113  40.990   2.245
47779W        W20847  33.624   7.860   4.512
47780W        W20848   3.112  28.047   2.258
47781W        W20849  15.346  32.703   1.436
47782W        W20850  18.246  35.843  10.674
47783W        W20851  14.735  41.635  10.765
47784W        W20852   0.721  21.764  11.078
47785W        W20853  33.782  15.142  11.630
47786W        W20854  30.054  35.856   4.993
47787W        W20855  44.416   8.871   3.152
47788W        W20856  14.877  13.227  13.021
47789W        W20857  39.525  28.756  11.545
47790W        W20858   5.633  31.087  14.832
47791W        W20859  26.264  16.637  12.085
47792W        W20860  11.939  27.817   0.348
47793W        W20861  11.852  43.385   4.355
47794W        W20862  15.302  16.121   0.126
47795W        W20863  23.573  22.351   0.480
47796W        W20864  39.503   1.693   9.789
47797W        W20865  12.840  12.714   4.788
47798W        W20866  38.035  19.602  12.229
47799W        W20867  16.338  41.379   0.765
47800W        W20868  42.061  31.053  12.497
47801W        W20869  42.819  27.403  12.122
47802W        W20870  41.505  23.578   3.259
47803W        W20871   8.629  13.748  12.520
47804W        W20872  40.157   5.157  13.768
47805W        W20873   5.189  44.781  11.609
47806W        W20874  34.430  11.061  12.081
47807W        W20875  34.868  12.136   4.504
47808W        W20876   5.011  19.111   0.422
47809W        W20877   9.128  29.891  10.683
47810W        W20878  35.518   6.968  10.692
47811W        W20879   4.418  42.856   3.381
47812W        W20880  17.555  21.340  13.397
47813W        W20881  39.327  18.201   0.376
47814W        W20882  21.406  23.328  12.951
47815W        W20883  32.806  15.622  14.706
47816W        W20884   4.926  42.411  11.923
47817W        W20885  19.030   5.193  10.737
47818W        W20886  16.978   1.931   0.934
47819W        W20887  18.174  18.543   0.921
47820W        W20888   5.044  31.031   2.905
47821W        W20889  10.963  13.176  12.832
47822W        W20890   0.335  26.924  13.354
47823W        W20891   8.657  33.526   4.527
47824W        W20892   3.971  18.063  13.439
47825W        W20893   9.137  44.256  12.537
47826W        W20894  11.207  16.740  11.453
47827W        W20895  22.091  41.019  12.592
47828W        W20896   1.016   8.296  12.609
47829W        W20897  22.585  14.789   3.742
47830W        W20898  11.959  30.245  11.464
47831W        W20899  25.872   7.925  10.683
47832W        W20900  35.877  13.435  13.468
47833W        W20901  44.240   4.231  11.126
47834W        W20902  37.162   9.002   4.258
47835W        W20903  15.905  23.815   0.874
47836W        W20904   8.561  30.928  11.016
47837W        W20905  18.443  12.776   1.856
47838W        W20906   2.443  25.386   2.331
47839W        W20907   6.258  18.467  14.317
47840W        W20908  18.566   5.756   1.350
47841W        W20909   4.063  26.320   0.229
47842W        W20910  36.065  26.203  14.404
47843W        W20911  34.365   2.707   4.710
47844W        W20912   6.268  29.923  12.486
47845W        W20913  38.098  19.189  12.958
47846W        W20914  19.941  20.701   1.161
47847W        W20915  34.434  36.377   4.735
47848W        W20916  20.110  38.301  10.736
47849W        W20917  37.885  10.015   3.294
47850W        W20918  25.952  10.530   0.190
47851W        W20919  15.073  15.687   1.288
47852W        W20920   1.813  43.760   3.379
47853W        W20921  43.260  22.140  11.036
47854W        W20922  18.204  15.875  14.964
47855W        W20923  40.127  43.979  14.910
47856W        W20924  42.706   0.340  13.343
47857W        W20925   3.900  36.678  14.552
47858W        W20926  31.519   8.394   4.980
47859W        W20927  36.444  38.978  13.092
47860W        W20928  11.600   0.733  14.440
47861W        W20929   8.467  44.564   3.261
47862W        W20930  16.978  16.333  14.514
47863W        W20931  11.632  33.702   2.348
47864W        W20932  33.562  41.591   3.820
47865W        W20933  43.482  23.611  12.044
47866W        W20934  32.770  40.178  10.166
47867W        W20935  19.015   6.261   3.924
47868W        W20936  12.623  21.307  14.452
47869W        W20937  23.623  42.748  12.496
47870W        W20938  24.567  34.957   0.698
47871W        W20939   4.295  19.450   1.739
47872W        W20940   3.573  19.577  14.415
47873W        W20941  10.344   9.494  13.571
47874W        W20942  26.688  44.907   4.583
47875W        W20943   2.975  28.178  12.538
47876W        W20944   4.137  32.531  12.219
47877W        W20945  34.677   9.681  14.007
47878W        W20946  21.249   9.741  12.563
47879W        W20947  40.499  29.305  11.502
47880W        W20948   2.235  17.754  13.362
47881W        W20949  17.621   4.880   4.701
47882W        W20950  44.680  24.203  14.930
47883W        W20951  26.822  33.878   1.178
47884W        W20952   6.543   3.041  11.531
47885W        W20953  27.091  19.632  14.603
47886W        W20954  33.669   5.430  12.548
47887W        W20955  42.782  40.934  11.097
47888W        W20956  16.112  42.687   1.914
47889W        W20957  24.490   4.770  14.450
47890W        W20958  30.885   8.433  14.557
47891W        W20959  43.939  14.992   4.742
47892W        W20960  22.781  42.032   4.079
47893W        W20961   1.045   1.223  12.115
47894W        W20962   4.274   8.809  13.518
47895W        W20963  28.416  14.013   0.457
47896W        W20964  15.741  13.130   2.775
47897W        W20965  17.668   8.817   1.765
47898W        W20966  28.631  29.239   0.819
47899W        W20967  11.900   1.904  14.925
47900W        W20968   1.047  16.887   4.218
47901W        W20969  22.717  21.557   1.032
47902W        W20970  13.336  44.090   1.839
47903W        W20971   3.341  13.700  10.793
47904W        W20972   5.129   7.241   4.580
47905W        W20973   7.752  31.883  12.542
47906W        W20974  29.924  42.876  11.459
47907W        W20975  30.729  33.061   0.326
47908W        W20976  36.001  19.282  11.511
47909W        W20977  42.134  39.880   4.593
47910W        W20978  38.845  14.791  10.491
47911W        W20979  31.857   0.932   0.988
47912W        W20980   7.717  11.068  13.012
47913W        W20981  28.403  32.842   4.625
47914W        W20982   6.199   7.119  10.929
47915W        W20983   4.382  42.388  10.694
47916W        W20984  23.141  33.396   1.587
47917W        W20985  29.534   9.965  11.486
47918W        W20986  24.010   7.212  14.421
47919W        W20987  37.335  22.435   1.156
47920W        W20988  32.979   9.123   2.769
47921W        W20989  23.227  29.407  11.590
47922W        W20990  32.031  18.218   2.908
47923W        W20991  20.190  11.695  13.781
47924W        W20992  26.862  32.953  12.536
47925W        W20993  40.979   8.901  12.478
47926W        W20994  40.851  32.912   4.609
47927W        W20995   8.210  30.524  13.464
47928W        W20996  39.949  18.112  11.543
47929W        W20997  10.909  39.220   1.850
47930W        W20998  10.290  12.308  11.641
47931W        W20999  37.872  38.061   4.944
47932W        W21000   7.760  14.633   2.158
47933W        W21001  39.513  44.720  12.567
47934W        W21002  42.847   3.833   0.265
47935W        W21003  28.488  28.842   0.428
47936W        W21004   1.466   2.678  12.971
47937W        W21005  27.570  43.723   2.956
47938W        W21006  15.407  16.448   0.956
47939W        W21007  39.717  15.048   3.658
47940W        W21008  42.316  27.633  14.452
47941W        W21009  35.474   4.589   5.040
47942W        W21010  28.905   7.464   1.980
47943W        W21011  36.260  18.649   2.855
47944W        W21012  10.089  23.744   2.417
47945W        W21013  27.357  28.680  14.828
47946W        W21014  19.600  32.917  14.819
47947W        W21015  42.619   5.802  14.412
47948W        W21016  12.342  30.360   4.107
47949W        W21017  25.560   4.432  13.109
47950W        W21018  36.255  33.619   1.624
47951W        W21019   1.883  35.814   0.455
47952W        W21020   8.631  37.157  13.410
47953W        W21021  37.329   4.759  14.984
47954W        W21022  19.671   2.939  14.403
47955W        W21023  41.991   3.146  11.616
47956W        W21024  19.522   4.866   5.070
47957W        W21025  34.691  13.124  14.104
47958W        W21026  19.922  12.622  14.304
47959W        W21027   4.486   8.319  11.451
47960W        W21028  28.611  30.065  12.907
47961W        W21029  29.835  20.450  11.016
47962W        W21030  40.966  16.440  14.862
47963W        W21031   8.724   9.456  11.016
47964W        W21032  20.322  39.174  14.360
47965W        W21033   5.006  21.283   2.371
47966W        W21034   7.131  27.037  14.351
47967W        W21035  26.936  34.958   1.819
47968W        W21036  33.366   4.441  12.549
47969W        W21037   7.224   2.125   1.169
47970W        W21038  18.516  22.946  13.592
47971W        W21039   8.136  41.970  14.037
47972W        W21040   6.471  36.513  14.865
47973W        W21041   3.216  12.092   3.777
47974W        W21042   1.332   1.926   3.233
47975W        W21043  12.380   2.226   0.803
47976W        W21044   2.619  14.003   1.969
47977W        W21045   3.164  41.816  13.862
47978W        W21046   1.186  28.183   4.186
47979W        W21047  42.491   1.281   3.667
47980W        W21048  34.018  27.575  12.160
47981W        W21049  27.013   6.742   2.203
47982W        W21050   7.203  14.272  12.023
47983W        W21051  12.645  44.360   1.771
47984W        W21052  35.529  21.225  14.590
47985W        W21053  30.260  11.478   0.397
47986W        W21054  26.412  16.636  13.515
47987W        W21055  11.714   4.686  13.888
47988W        W21056  27.015  12.782   5.347
47989W        W21057  21.422  34.548  13.492
47990W        W21058  33.386  31.830  14.951
47991W        W21059  27.957   2.052   0.200
47992W        W21060  23.557  31.577  13.551
47993W        W21061  13.847   4.466  13.943
47994W        W21062   5.448  30.746  10.746
47995W        W21063  15.129   4.784   2.183
47996W        W21064  15.395  15.054  11.653
47997W        W21065  40.591  44.952   2.806
47998W        W21066  17.085   8.924  12.911
47999W        W21067  24.602  43.977   0.738
48000W        W21068   7.675  18.175   4.555
48001W        W21069   6.834   3.222   3.556
48002W        W21070  33.548  23.899  10.624
48003W        W21071  22.778  25.050   0.499
48004W        W21072  33.778   2.884  14.226
48005W        W21073  11.373  36.900   3.138
48006W        W21074  23.650  10.642   0.794
48007W        W21075  22.733  15.916  10.824
48008W        W21076   2.583  10.300   3.235
48009W        W21077  19.061  34.470  10.559
48010W        W21078  29.841  35.079  13.930
48011W        W21079   7.206  29.164  14.245
48012W        W21080  35.611   7.879   0.809
48013W        W21081  31.127  40.858   2.419
48014W        W21082  33.477  36.205   0.732
48015W        W21083  13.307   3.328   2.189
48016W        W21084  12.584  15.725  14.479
48017W        W21085  13.587  28.124   2.959
48018W        W21086  38.532  40.302   4.000
48019W        W21087  24.769  24.561   2.358
48020W        W21088  25.754   9.378  12.972
48021W        W21089   8.739  12.924   3.099
48022W        W21090  18.921   6.323  14.391
48023W        W21091  37.362  20.108   0.383
48024W        W21092  33.994  40.029  14.524
48025W        W21093  27.015   7.796   0.502
48026W        W21094   2.807  40.569   4.347
48027W        W21095  27.130   8.705  14.420
48028W        W21096  16.569   0.242   2.742
48029W        W21097  10.480  12.665  11.139
48030W        W21098   9.203  25.135  12.464
48031W        W21099   2.779  42.449   0.983
48032W        W21100  34.540  15.904  14.512
48033W        W21101  44.805  11.812   1.328
48034W        W21102   0.590  28.910  12.021
48035W        W21103  23.476  14.778   4.652
48036W        W21104  43.222   0.368  13.356
48037W        W21105  36.537  21.721   4.350
48038W        W21106  10.100  35.153  14.861
48039W        W21107  12.745  10.161   1.424
48040W        W21108  19.639  14.027  12.909
48041W        W21109   7.692  19.722   3.320
48042W        W21110  36.867  16.307   1.857
48043W        W21111  28.525  34.695  13.875
48044W        W21112  12.816   6.528   1.799
48045W        W21113  39.828  40.984   0.969
48046W        W21114  20.113  31.616  14.396
48047W        W21115  23.392   6.402  14.913
48048W        W21116  42.154  26.418   3.495
48049W        W21117  20.988   3.481  11.365
48050W        W21118  43.629  41.111  12.993
48051W        W21119  23.160  29.134  11.156
48052W        W21120  10.762  21.548   4.512
48053W        W21121  44.331  36.042   3.943
48054W        W21122   4.735  22.617  12.746
48055W        W21123  38.444  14.245  11.088
48056W        W21124  32.827  44.007   2.749
48057W        W21125  33.956   4.682   2.770
48058W        W21126  17.212  30.462   2.766
48059W        W21127  15.654  28.149  11.510
48060W        W21128  34.156   0.285  13.785
48061W        W21129  44.923   3.894   2.731
48062W        W21130  41.321   9.260  12.015
48063W        W21131  12.406  12.246   3.296
48064W        W21132  13.380   2.480  11.240
48065W        W21133   1.664  40.612   5.075
48066W        W21134   2.150  13.746   0.418
48067W        W21135  26.818  28.503  11.184
48068W        W21136  40.771  14.307   2.368
48069W        W21137  15.675  31.498   4.608
48070W        W21138   8.178  12.112   1.286
48071W        W21139   1.062  30.930  12.536
48072W        W21140  28.816   7.921   2.718
48073W        W21141  10.198  35.655  14.761
48074W        W21142  11.170  28.551   0.370
48075W        W21143  26.961   4.496   2.511
48076W        W21144  36.344  42.531   3.682
48077W        W21145  21.154   4.690  12.036
48078W        W21146  34.642  32.552   2.809
48079W        W21147  27.601   0.510  13.345
48080W        W21148   9.337   1.774   2.034
48081W        W21149   2.867  31.487  13.558
48082W        W21150  38.108  31.807   4.233
48083W        W21151  40.443  29.590  11.921
48084W        W21152  23.202  10.832   1.219
48085W        W21153  36.435  10.340  12.123
48086W        W21154  23.551  44.577  10.524
48087W        W21155  33.863  35.147  11.939
48088W        W21156  11.704  41.740   5.030
48089W        W21157  42.120  41.161   1.353
48090W        W21158  41.849  32.120   1.883
48091W        W21159  29.978  34.759   0.424
48092W        W21160  24.408  20.243  10.679
48093W        W21161  20.260   2.882   1.972
48094W        W21162  41.582  21.950  11.139
48095W        W21163   5.382   3.474  14.519
48096W        W21164  30.895   7.712   4.139
48097W        W21165  17.113  22.658   0.352
48098W        W21166  28.990  21.302   5.000
48099W        W21167   3.975   5.894   1.712
48100W        W21168  32.030  43.531   2.910
48101W        W21169   7.922  14.864  11.537
48102W        W21170  24.410  24.479   3.213
48103W        W21171  28.333  23.565   0.961
48104W        W21172  30.284  20.169  11.167
48105W        W21173  10.859  44.886   0.923
48106W        W21174  26.730   8.055   1.985
48107W        W21175  27.069  35.143  10.835
48108W        W21176   4.900   6.908  13.082
48109W        W21177  42.760   8.707  10.869
48110W        W21178   9.889  14.783   2.199
48111W        W21179   1.673  36.643  14.284
48112W        W21180  35.024  14.920   4.160
48113W        W21181  22.192  39.011   1.307
48114W        W21182  32.653   3.907  11.886
48115W        W21183  25.441   2.803  11.514
48116W        W21184  22.913  24.141  12.064
48117W        W21185  29.565  18.229  14.279
48118W        W21186  28.202  11.528  13.520
48119W        W21187   7.307  25.941  12.089
48120W        W21188  30.694  14.929  14.188
48121W        W21189  29.279   1.402  13.361
48122W        W21190  38.917   6.690   4.666
48123W        W21191  32.654   8.298  10.601
48124W        W21192   3.526  35.154   4.416
48125W        W21193  33.497  24.187  12.483
48126W        W21194  10.332  20.298   4.109
48127W        W21195  23.075  12.258   0.883
48128W        W21196  43.959  37.245   4.760
48129W        W21197  23.733  12.172   1.135
48130W        W21198  16.542  11.345  11.943
48131W        W21199  36.571  13.374  11.607
48132W        W21200   5.354  44.933   4.679
48133W        W21201  22.129  28.250  13.863
48134W        W21202  29.881   8.455   0.869
48135W        W21203  33.484  27.283   0.970
48136W        W21204  36.855  24.857   3.203
48137W        W21205  14.525   5.720   2.280
48138W        W21206  33.101   9.046   0.376
48139W        W21207  23.733  42.386   1.869
48140W        W21208  20.480  21.304   4.254
48141W        W21209  11.710  37.839  14.259
48142W        W21210   7.984   7.698  11.182
48143W        W21211   9.574  25.788   2.367
48144W        W21212   7.914   7.097   3.257
48145W        W21213   3.973   0.501   4.070
48146W        W21214   3.874  25.606   1.831
48147W        W21215   8.884  23.745  12.538
48148W        W21216  24.161   3.870  10.659
48149W        W21217  30.222  34.613  10.789
48150W        W21218  32.841   6.720  14.991
48151W        W21219  29.093  31.762  11.728
48152W        W21220   3.074  36.500  10.419
48153W        W21221  14.193  14.655  14.659
48154W        W21222  41.075  20.196  14.905
48155W        W21223  26.005   0.942  14.078
48156W        W21224  37.082  38.811  13.573
48157W        W21225  27.844  15.856  12.125
48158W        W21226  20.182   4.794  13.063
48159W        W21227  34.077  36.322   3.532
48160W        W21228  14.524  12.233  11.361
48161W        W21229  30.442   7.931   4.283
48162W        W21230   1.665   6.908  12.506
48163W        W21231  36.925   2.874   4.988
48164W        W21232  17.841  13.839   0.979
48165W        W21233  41.320  13.275   0.496
48166W        W21234  42.910  17.701   2.378
48167W        W21235  16.156  10.316  11.502
48168W        W21236  40.223  34.671   2.756
48169W        W21237   0.807  20.829   2.349
48170W        W21238  32.468  35.423   3.681
48171W        W21239  21.184  26.730   2.839
48172W        W21240  40.345  15.437   2.955
48173W        W21241   3.753   9.794   2.621
48174W        W21242   6.209  31.893  13.936
48175W        W21243  19.507  27.164  11.142
48176W        W21244  42.980  37.575   1.401
48177W        W21245  24.980  38.886   0.887
48178W        W21246  44.865  29.680  12.249
48179W        W21247  15.605  27.154  11.548
48180W        W21248  43.894  29.700  14.931
48181W        W21249   4.688   4.856   9.792
48182W        W21250  35.892  40.897   1.239
48183W        W21251  29.126  41.512  14.309
48184W        W21252  25.114  39.078  10.408
48185W        W21253  26.980  42.801   4.711
48186W        W21254   4.352   3.427   3.296
48187W        W21255  30.593  33.541   0.177
48188W        W21256   8.619  43.269   0.481
48189W        W21257  26.977  21.234  12.895
48190W        W21258  12.320   8.722   2.915
48191W        W21259  26.910   0.404  14.416
48192W        W21260   4.867  44.060  12.175
48193W        W21261  15.191  36.280   4.670
48194W        W21262  10.681  18.282  10.332
48195W        W21263  29.565  14.650  12.222
48196W        W21264  19.570  10.196   2.625
48197W        W21265  14.289  41.712  11.484
48198W        W21266  34.127  38.707   2.373
48199W        W21267  42.066  30.904  11.141
48200W        W21268  19.014  33.497   0.752
48201W        W21269   3.138  12.650   1.538
48202W        W21270  29.155  16.481   3.595
48203W        W21271  31.876   3.033  11.140
48204W        W21272  10.088   7.622  12.931
48205W        W21273  20.647   9.015  14.142
48206W        W21274  41.883  12.399  12.012
48207W        W21275  23.515  25.877  10.869
48208W        W21276  32.425  25.726  14.777
48209W        W21277  44.011   4.752  11.797
48210W        W21278   4.134   5.805   0.836
48211W        W21279  42.503  30.819  11.629
48212W        W21280  30.493   4.330   1.832
48213W        W21281  42.439   7.218  14.018
48214W        W21282  26.585   3.921  10.598
48215W        W21283  31.015  30.289  11.642
48216W        W21284  19.836  30.903  14.042
48217W        W21285  43.117  10.231   4.519
48218W        W21286  30.966  35.134  12.430
48219W        W21287  31.635  20.122  10.655
48220W        W21288   2.856  16.582  11.657
48221W        W21289  14.784   1.805   4.573
48222W        W21290   2.927   3.366  11.012
48223W        W21291  12.130  28.905   2.118
48224W        W21292   7.307  15.959  11.085
48225W        W21293  15.066  34.432   1.023
48226W        W21294  23.099  11.681  11.011
48227W        W21295   9.238   8.228  12.219
48228W        W21296  27.938  21.759  14.660
48229W        W21297  40.496  39.737   2.322
48230W        W21298  33.135  36.440   2.825
48231W        W21299  16.088  30.389   4.168
48232W        W21300  41.166  36.665  11.014
48233W        W21301   0.430  26.394  14.175
48234W        W21302  25.172  23.810  12.573
48235W        W21303  21.493  18.766  13.345
48236W        W21304  15.140  37.795   1.490
48237W        W21305  18.450  40.694   1.209
48238W        W21306  42.270  43.448  12.089
48239W        W21307   3.897  42.369  10.448
48240W        W21308   4.826  17.525   1.564
48241W        W21309  29.387  33.005  12.689
48242W        W21310   2.876  42.601   0.336
48243W        W21311  36.929  15.965   4.131
48244W        W21312   5.906   3.011   2.159
48245W        W21313  29.124   9.175   4.255
48246W        W21314   7.618  21.260  14.561
48247W        W21315  42.999  44.870   3.251
48248W        W21316  10.870  29.061  14.181
48249W        W21317  12.280  31.710   4.137
48250W        W21318  38.846   7.534   3.390
48251W        W21319  35.288   5.241   4.123
48252W        W21320  21.323  31.242  11.682
48253W        W21321   2.826  34.704  12.209
48254W        W21322   2.819   2.727   0.275
48255W        W21323  19.699  27.944  11.514
48256W        W21324  30.495   6.647   0.830
48257W        W21325  23.722  42.710   3.310
48258W        W21326   6.305   4.578   3.682
48259W        W21327  34.086  41.333  12.994
48260W        W21328  19.031  19.852   0.431
48261W        W21329   2.830   0.563   2.718
48262W        W21330  11.269  13.340   0.554
48263W        W21331   6.492  15.492  14.798
48264W        W21332   1.534  26.763   5.065
48265W        W21333  21.212   9.199   0.464
48266W        W21334   9.858  11.367   2.438
48267W        W21335  15.119  35.925  14.736
48268W        W21336  33.186  33.503   5.038
48269W        W21337   1.716  14.722  11.606
48270W        W21338  44.896  37.305   2.929
48271W        W21339  17.953  12.201  12.745
48272W        W21340  25.958  31.672   3.777
48273W        W21341   9.437   2.355   2.975
48274W        W21342   2.912  25.111   0.459
48275W        W21343  17.337   7.445  13.005
48276W        W21344   2.961  20.677  14.492
48277W        W21345  39.279  29.608  13.846
48278W        W21346  28.027   7.322  10.978
48279W        W21347  24.564  15.099  10.602
48280W        W21348  26.829  23.390  13.623
48281W        W21349   6.740  22.317  13.579
48282W        W21350  35.949  30.424   1.928
48283W        W21351  10.509   9.264  10.728
48284W        W21352   4.698  13.649  10.651
48285W        W21353  35.300  31.580   5.078
48286W        W21354  28.693  16.595  14.229
48287W        W21355  43.685  23.950   3.776
48288W        W21356  26.842  31.627  13.127
48289W        W21357   2.990  34.691  11.014
48290W        W21358  32.399  24.440  14.292
48291W        W21359  16.624  22.835   4.297
48292W        W21360   3.937  20.761  13.502
48293W        W21361   2.324  23.662  11.063
48294W        W21362  36.823  18.472  12.009
48295W        W21363   0.442  32.362   3.688
48296W        W21364  17.507  11.171   0.799
48297W        W21365   4.724   5.912   3.240
48298W        W21366   9.989  41.485  12.459
48299W        W21367  32.586  43.955   0.462
48300W        W21368  33.503   4.155  12.960
48301W        W21369  11.824  23.918  13.403
48302W        W21370   0.409   4.298  14.129
48303W        W21371   1.368  22.098  13.066
48304W        W21372  30.439  22.509  13.923
48305W        W21373   2.168  33.549  10.981
48306W        W21374  15.819  22.981  13.419
48307W        W21375  33.999  24.025   0.470
48308W        W21376  34.088  26.678  10.791
48309W        W21377   8.112  24.133   4.313
48310W        W21378  39.846  32.161   5.000
48311W        W21379  13.714  17.854  12.550
48312W        W21380  32.155   4.324  10.251
48313W        W21381  34.778  40.957  13.446
48314W        W21382  39.601  12.233  11.787
48315W        W21383  23.125  14.264   3.708
48316W        W21384  12.357  39.533  12.158
48317W        W21385  37.550   2.464  13.362
48318W        W21386   1.982  40.660   1.913
48319W        W21387  35.069  24.273  14.136
48320W        W21388  35.591   9.727  14.651
48321W        W21389  21.199  10.136  11.756
48322W        W21390  32.148  39.892  12.017
48323W        W21391  15.207  16.702  11.203
48324W        W21392  19.764  28.710  12.661
48325W        W21393  37.045  35.935   3.998
48326W        W21394  29.102  23.338  11.221
48327W        W21395   6.772  11.445   4.508
48328W        W21396  43.365   6.906   0.860
48329W        W21397  24.025  35.143   3.249
48330W        W21398  26.251  38.635   2.246
48331W        W21399   0.137  39.101  14.027
48332W        W21400   7.168   1.370  12.468
48333W        W21401  42.930  26.738  11.402
48334W        W21402  33.032  23.965  14.949
48335W        W21403  35.140   8.786   4.007
48336W        W21404  13.828  35.102  11.196
48337W        W21405  16.731  25.969   1.359
48338W        W21406  20.155  38.391   0.192
48339W        W21407  28.997   7.163   4.652
48340W        W21408  40.493  27.285  14.975
48341W        W21409   9.424  26.553  14.562
48342W        W21410  21.666  18.914   9.917
48343W        W21411  27.676  15.782   3.046
48344W        W21412  37.264   0.450  13.662
48345W        W21413  19.916   5.763   4.801
48346W        W21414  34.954   9.316   2.263
48347W        W21415  30.490  20.542   3.677
48348W        W21416  21.821  16.217  13.868
48349W        W21417  35.049  20.048   4.524
48350W        W21418  43.794  17.559   4.140
48351W        W21419  44.923  30.410  14.818
48352W        W21420  38.669  32.551  13.052
48353W        W21421  13.234  22.591   0.095
48354W        W21422   6.256  24.103  10.687
48355W        W21423  26.182  44.155  11.074
48356W        W21424  40.290  30.266   1.743
48357W        W21425  21.139  34.900   3.659
48358W        W21426  26.099  33.457   2.652
48359W        W21427   4.978  14.557  12.044
48360W        W21428  42.904  39.780   1.829
48361W        W21429  42.795  41.768  13.299
48362W        W21430   8.386  17.694   1.485
48363W        W21431  13.445  18.699   4.112
48364W        W21432  23.008  44.737  13.108
48365W        W21433   8.172  25.973   4.381
48366W        W21434  34.333  17.735   3.199
48367W        W21435  17.577   3.017   3.242
48368W        W21436   8.893  34.802  13.153
48369W        W21437  40.867  13.519   5.480
48370W        W21438  14.298  21.020   1.812
48371W        W21439  36.839  15.311   4.765
48372W        W21440  16.339   0.965   3.137
48373W        W21441  35.241   4.712   4.145
48374W        W21442  25.010  35.614  13.847
48375W        W21443  26.966  33.208  11.166
48376W        W21444  23.314   3.270  10.492
48377W        W21445  44.610  11.298   1.310
48378W        W21446  11.897   4.593  11.958
48379W        W21447  32.956  31.184   0.455
48380W        W21448   8.177   9.359  14.392
48381W        W21449  18.294  30.571   0.050
48382W        W21450  39.333  41.907   2.254
48383W        W21451  15.087  29.008  12.423
48384W        W21452  18.123  26.201   1.324
48385W        W21453  19.949   5.959   3.269
48386W        W21454  20.256  34.972  12.080
48387W        W21455  21.564   8.906  10.666
48388W        W21456  40.813  39.280  11.538
48389W        W21457  16.365   6.247   2.382
48390W        W21458  20.805  33.715  10.638
48391W        W21459  24.003   2.428  11.176
48392W        W21460  39.948  17.128  14.414
48393W        W21461  26.109   9.976   5.265
48394W        W21462   0.780  11.088   0.726
48395W        W21463  18.228  13.049  11.474
48396W        W21464  42.683  44.492   3.408
48397W        W21465   1.275   6.352  11.066
48398W        W21466   3.627   8.202  13.459
48399W        W21467  34.367  30.036   3.204
48400W        W21468  42.590  38.811  11.092
48401W        W21469  22.206  37.927  12.120
48402W        W21470  13.827  42.891  11.537
48403W        W21471   3.430  31.935   1.510
48404W        W21472  15.095  30.923   0.296
48405W        W21473   1.970  34.810  13.065
48406W        W21474  31.771   7.272   4.451
48407W        W21475  36.924  15.240   0.011
48408W        W21476  14.582  31.155  14.028
48409W        W21477  37.818  40.788  13.837
48410W        W21478   2.838  22.932  11.975
48411W        W21479  41.816   4.695   4.103
48412W        W21480  29.260   5.426   2.655
48413W        W21481  37.893  40.493  10.944
48414W        W21482  36.517  26.222  12.710
48415W        W21483  12.129  34.917   1.341
48416W        W21484  14.037  42.805  14.199
48417W        W21485  10.659  35.573  13.560
48418W        W21486  19.755   2.419   0.817
48419W        W21487  11.754  16.391  10.650
48420W        W21488  11.208   1.887  10.785
48421W        W21489  42.411  33.414  14.485
48422W        W21490  41.314  43.343   1.587
48423W        W21491  10.868  33.178   2.823
48424W        W21492  29.842  38.843   3.293
48425W        W21493  21.137  29.556  13.103
48426W        W21494  42.618   1.586   4.533
48427W        W21495  28.725  22.459  13.423
48428W        W21496   7.104  12.357   2.287
48429W        W21497   0.581  31.876  13.841
48430W        W21498  19.506  37.485   4.935
48431W        W21499   5.368  44.288  11.133
48432W        W21500   4.035  20.963   2.581
48433W        W21501   0.822  30.790  14.944
48434W        W21502   5.895  17.906  14.526
48435W        W21503   3.354  10.756  12.400
48436W        W21504  18.173  28.891   4.803
48437W        W21505  29.076  24.726  11.510
48438W        W21506  44.207  24.899  11.000
48439W        W21507  11.145  16.135   2.145
48440W        W21508   0.297  13.209  13.690
48441W        W21509  20.705  17.175   1.862
48442W        W21510  30.048   6.945   0.753
48443W        W21511  29.640  18.041   4.528
48444W        W21512   8.336   1.120  11.744
48445W        W21513  31.428  32.677   0.795
48446W        W21514  43.575  35.866   1.270
48447W        W21515  22.234  34.193   4.545
48448W        W21516   8.563  33.556  14.383
48449W        W21517  22.714   0.646   1.313
48450W        W21518  31.457  10.943  14.571
48451W        W21519  40.715  25.029  12.082
48452W        W21520  35.984   7.876  13.443
48453W        W21521  13.820  30.508   1.390
48454W        W21522  32.101  15.880  14.074
48455W        W21523  15.275  43.847   3.530
48456W        W21524  21.466   7.764   0.904
48457W        W21525  15.222   1.139   0.273
48458W        W21526  16.998  33.703   3.616
48459W        W21527  20.229  44.727   2.312
48460W        W21528  35.531  19.962   4.713
48461W        W21529  14.782  30.979   1.991
48462W        W21530  11.425  37.473  13.408
48463W        W21531  27.007  13.525   1.788
48464W        W21532  42.328  15.284   4.105
48465W        W21533  13.233  41.342   0.426
48466W        W21534  43.403  34.503   2.626
48467W        W21535  14.640  17.748  12.020
48468W        W21536  14.347  30.767   0.771
48469W        W21537   8.306   7.638   1.704
48470W        W21538  41.940  10.214   0.820
48471W        W21539  17.547  44.790  14.793
48472W        W21540  19.714  29.358  14.920
48473W        W21541   4.593  17.605   4.272
48474W        W21542  34.512  35.323   1.226
48475W        W21543  23.903  18.378   1.523
48476W        W21544   1.590   5.638   0.913
48477W        W21545   9.697  30.657   0.832
48478W        W21546  24.774   9.903  11.135
48479W        W21547   2.700  44.245  14.425
48480W        W21548  18.019  17.241   0.929
48481W        W21549   6.668  26.653   4.451
48482W        W21550  14.348  12.373  13.842
48483W        W21551   3.244  24.130  12.141
48484W        W21552  22.087  22.450  11.537
48485W        W21553   1.772  24.007   0.544
48486W        W21554  14.309  32.619  14.913
48487W        W21555  34.259  40.809   0.287
48488W        W21556   8.364  26.707  11.986
48489W        W21557  40.228  32.994  11.023
48490W        W21558  24.138  29.030  13.755
48491W        W21559  12.753  39.676  10.745
48492W        W21560   2.714   8.170   0.925
48493W        W21561  35.197  26.551  12.898
48494W        W21562  34.425  12.523   4.590
48495W        W21563  14.540  43.051  14.872
48496W        W21564  44.374  32.923   4.586
48497W        W21565  41.047  23.188  12.187
48498W        W21566  42.237  25.517   0.987
48499W        W21567  31.897  17.399  11.122
48500W        W21568  23.716   5.693   2.253
48501W        W21569  16.705  40.319   0.410
48502W        W21570  28.520  31.653   1.216
48503W        W21571  38.737  44.317  13.923
48504W        W21572   1.864  30.023  13.566
48505W        W21573   0.073  40.352   4.336
48506W        W21574  30.813  12.656  14.462
48507W        W21575   5.958  25.030  10.643
48508W        W21576  25.660  11.164   5.261
48509W        W21577  15.591  21.681   3.665
48510W        W21578  42.186  32.894   1.769
48511W        W21579  37.072   3.650  14.510
48512W        W21580  19.279   5.683   0.182
48513W        W21581  21.987  14.114  13.534
48514W        W21582  22.328  20.093   2.447
48515W        W21583   5.667  30.623  11.185
48516W        W21584  21.763  43.573  14.788
48517W        W21585   6.859  41.729   2.411
48518W        W21586  13.129   1.431  14.544
48519W        W21587  25.839  43.922  11.379
48520W        W21588   5.758  15.130   3.535
48521W        W21589  16.526  10.112  11.159
48522W        W21590   5.357  20.845  14.787
48523W        W21591  14.288  29.553  11.044
48524W        W21592  25.092   2.476   2.366
48525W        W21593  20.981  42.046  13.971
48526W        W21594   1.170  11.313   2.847
48527W        W21595  36.012  23.788  11.497
48528W        W21596  36.403  29.397   1.409
48529W        W21597  12.754  38.530   2.227
48530W        W21598  32.957  25.453   2.753
48531W        W21599   8.617  11.206   3.595
48532W        W21600  33.431  18.059   1.267
48533W        W21601   4.883  26.376  13.848
48534W        W21602  13.669  15.258   2.688
48535W        W21603  11.865  35.095  12.639
48536W        W21604  35.080   0.760  13.348
48537W        W21605  31.844  30.046   1.749
48538W        W21606  17.813  15.760  13.447
48539W        W21607  42.690   0.555   4.522
48540W        W21608  14.041   1.545   4.433
48541W        W21609  27.212   2.800  14.258
48542W        W21610  13.767  41.392  14.491
48543W        W21611  12.779  44.727   3.375
48544W        W21612  32.527  32.764  11.590
48545W        W21613  18.882  40.761  14.756
48546W        W21614  34.103  17.602   4.591
48547W        W21615  17.665  37.885  14.541
48548W        W21616  31.064  18.729   0.513
48549W        W21617  36.100  34.241   5.367
48550W        W21618  26.514  25.522  14.995
48551W        W21619  39.098   1.567  11.554
48552W        W21620  29.775  39.434   2.280
48553W        W21621  32.623   6.295   1.010
48554W        W21622  43.530  17.606  14.292
48555W        W21623  19.043  24.638  12.900
48556W        W21624  40.438  15.660  14.966
48557W        W21625  27.686  16.168  12.514
48558W        W21626  22.112  11.298   1.838
48559W        W21627  39.634  38.348   0.428
48560W        W21628  24.107  43.978   0.492
48561W        W21629   3.139  26.429  14.018
48562W        W21630  42.149   3.208  12.593
48563W        W21631   3.751   5.831  11.308
48564W        W21632  18.693  16.309  12.894
48565W        W21633  38.431  28.620   4.317
48566W        W21634  41.969  34.374   0.749
48567W        W21635  29.375  37.949  14.744
48568W        W21636  21.463  43.923   3.614
48569W        W21637  25.335  17.242  11.244
48570W        W21638  12.090  36.337   2.658
48571W        W21639  43.463   2.457  14.044
48572W        W21640  36.312   1.291  11.986
48573W        W21641  33.639  11.364   0.755
48574W        W21642   6.379  23.899   2.815
48575W        W21643  32.228  23.191   2.472
48576W        W21644   7.263   4.746   0.431
48577W        W21645  37.356  21.739  10.570
48578W        W21646   5.459  34.904   1.744
48579W        W21647  25.649  43.500   4.268
48580W        W21648  21.117  37.423  14.411
48581W        W21649  39.466  25.884   2.588
48582W        W21650  13.367   5.258  13.186
48583W        W21651  40.952  18.710  11.153
48584W        W21652  39.091  29.549  13.348
48585W        W21653  20.275  40.376  12.048
48586W        W21654  17.547  10.900   3.963
48587W        W21655  36.959  38.560   2.239
48588W        W21656  38.956  26.229  13.257
48589W        W21657  13.265  10.153  14.504
48590W        W21658  15.118  42.632  13.438
48591W        W21659  32.755   4.314   1.236
48592W        W21660   6.892  29.425   4.361
48593W        W21661   9.005  17.705   1.800
48594W        W21662  36.276  21.058  12.663
48595W        W21663  15.798   5.199  11.468
48596W        W21664  22.576   6.746  10.727
48597W        W21665  10.018  44.454  11.008
48598W        W21666  20.043  10.354  13.844
48599W        W21667  41.965  29.382   1.842
48600W        W21668  39.575  11.851   4.408
48601W        W21669  18.881  38.861  14.299
48602W        W21670   8.312  11.889  11.932
48603W        W21671  40.836  31.828   0.439
48604W        W21672  28.052   5.753   3.866
48605W        W21673  18.274   2.438   0.287
48606W        W21674   5.253   2.925   0.926
48607W        W21675  22.267  16.494  12.404
48608W        W21676  19.065  42.068   1.691
48609W        W21677  18.645   4.467  14.286
48610W        W21678  18.721  36.090   2.317
48611W        W21679  23.151  27.612  11.074
48612W        W21680  11.314  26.971  14.359
48613W        W21681  27.094  40.854  14.086
48614W        W21682  32.889  25.894  12.108
48615W        W21683   7.326  32.913   2.043
48616W        W21684   0.388  19.114  12.589
48617W        W21685   9.777  25.887  13.609
48618W        W21686  11.554   1.882   3.248
48619W        W21687   2.031   1.254  14.959
48620W        W21688   8.842  23.403  13.108
48621W        W21689  22.336  12.180  12.848
48622W        W21690  20.545  32.943   1.260
48623W        W21691  15.334   5.396  11.563
48624W        W21692  12.679   0.915  10.746
48625W        W21693  35.022  16.769  12.385
48626W        W21694  31.052  22.121   2.663
48627W        W21695  27.701  22.263  13.506
48628W        W21696   0.309  40.456   1.407
48629W        W21697  16.863  17.161   2.425
48630W        W21698  14.639  31.075  13.134
48631W        W21699   1.028  14.213   4.976
48632W        W21700  26.103   6.845  12.046
48633W        W21701   6.247  18.136   0.139
48634W        W21702  12.536  26.208  10.771
48635W        W21703  32.899  12.769  11.183
48636W        W21704   2.478   8.261   4.772
48637W        W21705   3.680  24.009  11.618
48638W        W21706  25.463   6.927   4.571
48639W        W21707  25.733  40.770   1.796
48640W        W21708  44.703  34.097   0.737
48641W        W21709  14.809   2.451  13.764
48642W        W21710  39.422  31.890  13.012
48643W        W21711   8.360  39.596  14.731
48644W        W21712   1.943  36.593   2.183
48645W        W21713   9.895   7.437   1.812
48646W        W21714   4.944  36.057  10.435
48647W        W21715  28.102  39.134   0.270
48648W        W21716   5.669  13.845  13.281
48649W        W21717  32.087  35.038   1.952
48650W        W21718  18.953   3.274  12.503
48651W        W21719  31.935  10.379   1.682
48652W        W21720  12.051   2.829  11.085
48653W        W21721  16.857  37.304  13.474
48654W        W21722  22.928  38.017  14.665
48655W        W21723  13.555  24.242  12.507
48656W        W21724  22.981   4.270  10.985
48657W        W21725   9.892   0.866  11.026
48658W        W21726  13.782  34.037  13.947
48659W        W21727  12.687  43.091   0.007
48660W        W21728  32.925  29.025  10.994
48661W        W21729  13.030  44.486   4.579
48662W        W21730  21.155  14.365   4.051
48663W        W21731   5.684  40.010   2.623
48664W        W21732  33.825  17.715   2.298
48665W        W21733  26.676  12.239  14.280
48666W        W21734  29.163  10.305   4.164
48667W        W21735   1.271  29.399  14.887
48668W        W21736  39.726  12.408   3.561
48669W        W21737   8.716  16.487   4.257
48670W        W21738  21.695   0.455  12.625
48671W        W21739  30.729  41.400   4.129
48672W        W21740  40.346  38.068  12.418
48673W        W21741  27.485  33.448   3.816
48674W        W21742  25.651  20.920  10.217
48675W        W21743  20.498  34.166   3.685
48676W        W21744  30.522   8.976  13.657
48677W        W21745   2.993   7.748   0.853
48678W        W21746  29.634   5.214  11.648
48679W        W21747   2.029  20.592   2.252
48680W        W21748  11.238  36.276  13.902
48681W        W21749  34.253  43.952  12.913
48682W        W21750  31.389  11.714   0.040
48683W        W21751  33.137  43.023  13.827
48684W        W21752  31.240  16.735  11.433
48685W        W21753  10.814  10.179   4.167
48686W        W21754  38.913  44.433  12.060
48687W        W21755  17.154  19.998  13.165
48688W        W21756  21.035  39.419   4.404
48689W        W21757   0.342   6.110   1.392
48690W        W21758  10.872  29.074   1.860
48691W        W21759  42.150  20.174   2.912
48692W        W21760  29.043  30.930   3.319
48693W        W21761  24.473  24.414   1.900
48694W        W21762  18.229  11.885   2.393
48695W        W21763  43.311  38.936  14.655
48696W        W21764  37.826  27.939  14.884
48697W        W21765  10.196  20.521   2.807
48698W        W21766  19.104  27.009   3.521
48699W        W21767   0.309   7.251  12.025
48700W        W21768  17.910  29.452  11.206
48701W        W21769   2.048  32.651  10.813
48702W        W21770  39.473  26.816  10.663
48703W        W21771  35.577  38.958   1.329
48704W        W21772  31.112  27.475  10.651
48705W        W21773  21.960   6.162   3.406
48706W        W21774  20.837   4.432   4.073
48707W        W21775  24.691   5.319   4.217
48708W        W21776  18.497  30.871   3.294
48709W        W21777  15.001   4.438  14.790
48710W        W21778  33.590  34.351   3.879
48711W        W21779  34.059  30.015   3.769
48712W        W21780  41.390   9.210   3.908
48713W        W21781  32.112  15.643   2.705
48714W        W21782  21.515  18.457  12.926
48715W        W21783  12.080  20.979  11.165
48716W        W21784  21.401  17.707  14.289
48717W        W21785   1.845  39.581  13.389
48718W        W21786   1.060   5.304   4.700
48719W        W21787  10.200   1.346   0.928
48720W        W21788  33.514  36.398  13.392
48721W        W21789  35.456  38.474   0.640
48722W        W21790  17.314  39.981  10.233
48723W        W21791  11.359  17.913   4.642
48724W        W21792  25.338   0.675  10.999
48725W        W21793  29.516  29.825   4.519
48726W        W21794  12.182  40.843   4.649
48727W        W21795   0.290  44.529  13.309
48728W        W21796  11.104  35.418   0.769
48729W        W21797  26.732  14.554  10.472
48730W        W21798   9.172  27.932   0.676
48731W        W21799  14.031   0.409   2.747
48732W        W21800   0.481  26.972   0.784
48733W        W21801  18.025  27.007  13.454
48734W        W21802  30.152  31.462   1.663
48735W        W21803   2.283  35.530  14.142
48736W        W21804   1.965  17.204   1.424
48737W        W21805  35.439   7.886  11.575
48738W        W21806  28.969  44.856  10.570
48739W        W21807  40.443   5.688  10.247
48740W        W21808  27.920  14.564   4.167
48741W        W21809   7.734  12.125  13.517
48742W        W21810   6.085  33.783   4.270
48743W        W21811  11.626   5.998   2.399
48744W        W21812  36.761  12.752  14.870
48745W        W21813   3.842   9.792   3.134
48746W        W21814  12.319  37.916  13.467
48747W        W21815   1.050  39.340   1.671
48748W        W21816  32.786  43.236  11.338
48749W        W21817   3.782   7.404   5.073
48750W        W21818  25.524  35.625  14.014
48751W        W21819  13.765  32.048   3.337
48752W        W21820  28.701   3.492   3.818
48753W        W21821  11.758  12.930   1.814
48754W        W21822   1.945  37.617   0.418
48755W        W21823  39.944  15.429   1.329
48756W        W21824  29.446  31.018  10.704
48757W        W21825   9.413  36.875   2.346
48758W        W21826   1.231   9.165   4.419
48759W        W21827  19.081  22.004  10.684
48760W        W21828  36.326  41.305  10.982
48761W        W21829  20.671  21.015  11.802
48762W        W21830   1.717  21.185  11.597
48763W        W21831   9.736   8.336  12.421
48764W        W21832  39.547  21.611  13.359
48765W        W21833  11.137  32.887  12.009
48766W        W21834  21.922   7.260  13.379
48767W        W21835   5.167  35.769  11.714
48768W        W21836   5.792  39.233   0.001
48769W        W21837   7.288  17.528   0.889
48770W        W21838   0.466  23.090   0.521
48771W        W21839  26.133  31.268  13.398
48772W        W21840  37.962  21.254   4.722
48773W        W21841  21.014  14.956   3.139
48774W        W21842  33.851  21.953   2.187
48775W        W21843  22.033  13.044   3.582
48776W        W21844  23.583  33.648   2.842
48777W        W21845  44.917   9.600   0.821
48778W        W21846  27.959  31.860  14.219
48779W        W21847  43.874  35.345  14.921
48780W        W21848  35.043  13.240  13.156
48781W        W21849  34.236   1.797   3.245
48782W        W21850  25.241  22.983   2.780
48783W        W21851  33.904  13.567  11.897
48784W        W21852  35.089  13.724  12.416
48785W        W21853  29.468  18.545   4.562
48786W        W21854  43.844  40.999  12.534
48787W        W21855   9.725  42.265   2.907
48788W        W21856   1.865   2.666  10.630
48789W        W21857   1.999   8.438   4.644
48790W        W21858  40.918  34.586  14.039
48791W        W21859  36.146   9.018   1.495
48792W        W21860  23.426  21.087  12.366
48793W        W21861   5.367   4.727   3.586
48794W        W21862  11.830  15.730  12.941
48795W        W21863  15.082  20.078  12.292
48796W        W21864   4.716  36.070  13.972
48797W        W21865  17.353  44.204   1.269
48798W        W21866  39.832  38.168  11.989
48799W        W21867  26.541  17.183  10.469
48800W        W21868   7.394  12.303   1.865
48801W        W21869  15.566  15.692   0.301
48802W        W21870  20.450  13.292   2.351
48803W        W21871  27.511   6.883   2.250
48804W        W21872   3.634   1.041  10.784
48805W        W21873  11.676  20.147  13.072
48806W        W21874   8.277  31.696   3.300
48807W        W21875  37.556  10.304   4.719
48808W        W21876  13.503  26.429  14.136
48809W        W21877  28.158  27.140  11.943
48810W        W21878  29.143  23.978   3.239
48811W        W21879  11.668   0.915   5.042
48812W        W21880  20.027  11.279  11.091
48813W        W21881  43.029  44.885  14.434
48814W        W21882  31.654  30.036  12.782
48815W        W21883  43.199  29.550   3.744
48816W        W21884   9.675   8.544  12.902
48817W        W21885  41.786  20.704  11.140
48818W        W21886  42.206  27.270  12.983
48819W        W21887  22.052   8.655  10.672
48820W        W21888  31.505  14.821   0.187
48821W        W21889  38.296   6.792   2.888
48822W        W21890  22.027  32.131   4.464
48823W        W21891   2.558  13.298   3.608
48824W        W21892  19.430  35.223   2.860
48825W        W21893  11.163  27.235  13.927
48826W        W21894   2.970  38.053   1.912
48827W        W21895  18.618  16.973   2.736
48828W        W21896   6.570  14.761  14.177
48829W        W21897  18.015  16.472   0.448
48830W        W21898  22.804  34.206   3.738
48831W        W21899  43.970  14.849   0.682
48832W        W21900  29.057  34.229  13.286
48833W        W21901  14.240  10.610   3.684
48834W        W21902   3.724  36.951   3.268
48835W        W21903   3.251  34.030  12.145
48836W        W21904   5.321  42.055   4.023
48837W        W21905  27.433  27.425   0.768
48838W        W21906   8.162  17.129  11.801
48839W        W21907  23.518  39.642   2.819
48840W        W21908  41.850  22.045  10.710
48841W        W21909  23.218  30.829   2.638
48842W        W21910  19.685  21.499  12.463
48843W        W21911  14.762  38.213   3.049
48844W        W21912  11.067  10.330   3.732
48845W        W21913  36.481  28.033   0.983
48846W        W21914  38.339  35.122  14.328
48847W        W21915  23.408  28.483   1.760
48848W        W21916  34.937  11.674  14.117
48849W        W21917  18.105  31.878  12.016
48850W        W21918   3.782  30.926   0.903
48851W        W21919  17.919   2.632   3.360
48852W        W21920  37.934   1.672   0.696
48853W        W21921  15.637   2.921   2.459
48854W        W21922  41.770  11.182  14.939
48855W        W21923  14.624  16.875   1.397
48856W        W21924  15.347  11.985  11.754
48857W        W21925  35.405  32.168  14.553
48858W        W21926  39.893   1.403  11.852
48859W        W21927  28.106  40.012   2.658
48860W        W21928  43.422   1.644  13.857
48861W        W21929  16.277  33.968  14.078
48862W        W21930  23.118  10.211   3.650
48863W        W21931  41.343  17.712  13.133
48864W        W21932   8.262  21.182   4.783
48865W        W21933  40.754   5.909  11.648
48866W        W21934  42.936  15.247  12.571
48867W        W21935  17.019   7.265   0.417
48868W        W21936  39.926   4.391  12.499
48869W        W21937  42.863  27.184  14.356
48870W        W21938  20.949   5.929  13.479
48871W        W21939  42.887  36.567   1.414
48872W        W21940  37.148  13.258   4.681
48873W        W21941  18.078  31.671  10.930
48874W        W21942  13.682  19.614   2.602
48875W        W21943  12.814  15.590  14.941
48876W        W21944  44.407   8.943   4.105
48877W        W21945   3.557   3.810  13.513
48878W        W21946  42.702   8.802   2.571
48879W        W21947  41.004  20.046   4.390
48880W        W21948  33.018  24.751  13.584
48881W        W21949  33.506  34.029  11.862
48882W        W21950  23.681  30.571  12.886
48883W        W21951   4.216   4.255   2.206
48884W        W21952  13.771  15.846  13.070
48885W        W21953  38.326   1.439   3.129
48886W        W21954  20.090  41.419   3.304
48887W        W21955  24.159  26.945  13.395
48888W        W21956  33.152  35.369   0.993
48889W        W21957  11.559  27.079  14.972
48890W        W21958  16.204  19.646   3.603
48891W        W21959  25.562   3.838   2.343
48892W        W21960   2.345  34.522  12.357
48893W        W21961  44.822  19.306  11.228
48894W        W21962  29.120   2.782   3.378
48895W        W21963  38.615  18.048  12.983
48896W        W21964  24.069  17.678  11.196
48897W        W21965  40.893   5.193   1.697
48898W        W21966  34.635  28.920   2.290
48899W        W21967  35.880  43.526  13.909
48900W        W21968   4.883   3.552   4.775
48901W        W21969  22.181  41.849   0.932
48902W        W21970  41.387  19.549   1.924
48903W        W21971  43.417  34.379  13.528
48904W        W21972  19.940  14.340   4.665
48905W        W21973  32.330   7.186   3.310
48906W        W21974  41.933  23.079   0.042
48907W        W21975  14.458  27.108   1.220
48908W        W21976  33.477  36.970  10.636
48909W        W21977  21.769  23.643  13.954
48910W        W21978  17.157  20.241   2.867
48911W        W21979  14.836  16.545   2.775
48912W        W21980  18.081   6.833   3.977
48913W        W21981  44.960  17.174  14.208
48914W        W21982  20.631  21.530   2.565
48915W        W21983  20.387  15.842   1.290
48916W        W21984  11.098  39.360  14.773
48917W        W21985   7.254  12.257  11.399
48918W        W21986  20.242  37.285  14.986
48919W        W21987  25.516  28.996   0.434
48920W        W21988  19.091  36.477  12.424
48921W        W21989  17.552   7.693  14.397
48922W        W21990   0.347  12.587  14.261
48923W        W21991  15.112  35.404   2.410
48924W        W21992   3.666  30.668  11.203
48925W        W21993  16.561   4.968  10.959
48926W        W21994  20.945  28.237  11.534
48927W        W21995  29.428  21.788  12.022
48928W        W21996  40.338   6.784   4.740
48929W        W21997  16.157  35.872  13.471
48930W        W21998   3.407  16.476  12.871
48931W        W21999  27.062  33.162  12.068
48932W        W22000   4.671   1.922   4.595
48933W        W22001   3.903  35.124   0.038
48934W        W22002   6.727  25.568   0.821
48935W        W22003  43.694  31.451  13.478
48936W        W22004  42.801  25.654   2.273
48937W        W22005  31.536  13.630   4.164
48938W        W22006   0.760   2.975   0.343
48939W        W22007  23.526  39.351   3.621
48940W        W22008  40.790  18.328  13.349
48941W        W22009  16.282  11.384   1.796
48942W        W22010  12.849   6.002   1.897
48943W        W22011  35.179  41.515  14.189
48944W        W22012  39.559  30.905   0.997
48945W        W22013  24.245  34.047   1.745
48946W        W22014  17.703  17.799   1.172
48947W        W22015   6.794  32.097  13.798
48948W        W22016  39.586  12.718   1.980
48949W        W22017  31.379  30.439  12.984
48950W        W22018  23.480   0.882  12.970
48951W        W22019   6.705  19.063  10.565
48952W        W22020  40.207   6.718   9.852
48953W        W22021  15.940  26.265  11.559
48954W        W22022   4.492  14.711  11.964
48955W        W22023  23.761  32.003  12.511
48956W        W22024  19.606  34.167   4.296
48957W        W22025   0.129  34.920   3.747
48958W        W22026  20.509  15.274  13.358
48959W        W22027   4.487  43.692  12.134
48960W        W22028   7.082  39.090  10.716
48961W        W22029  27.482  39.377   1.448
48962W        W22030  20.544  30.404   3.260
48963W        W22031  44.125  30.920   3.900
48964W        W22032   5.395  16.668   0.518
48965W        W22033  14.835  35.102  11.555
48966W        W22034  18.363  14.624  11.214
48967W        W22035  13.715  35.879   3.017
48968W        W22036  30.574  37.783   3.887
48969W        W22037   9.167  18.138   3.715
48970W        W22038  42.787   7.811   2.330
48971W        W22039  23.926  43.615   2.321
48972W        W22040   2.954  18.699   1.855
48973W        W22041  28.436  13.518  11.651
48974W        W22042  10.059  36.294  10.619
48975W        W22043  38.947  17.452   5.196
48976W        W22044  35.883  34.037  14.792
48977W        W22045  35.193  16.993   2.730
48978W        W22046  12.963   8.574  12.649
48979W        W22047  20.670  14.296  10.711
48980W        W22048  28.733  31.385   4.600
48981W        W22049  40.432  33.456   1.926
48982W        W22050  36.450  40.518   2.016
48983W        W22051   3.909  31.551  11.964
48984W        W22052  23.672  21.117   1.940
48985W        W22053  37.238  12.101   4.239
48986W        W22054   6.491  44.236  11.755
48987W        W22055  33.203   4.319  11.108
48988W        W22056  21.489   5.464   2.521
48989W        W22057   9.341   6.092   0.218
48990W        W22058   2.311  10.057  13.460
48991W        W22059  25.627   5.474   3.195
48992W        W22060   4.945  38.087   0.788
48993W        W22061   3.923  25.249   2.226
48994W        W22062  13.277  32.909   1.222
48995W        W22063  24.912  17.852   1.331
48996W        W22064  20.598  13.730  13.415
48997W        W22065  15.632   6.199   4.522
48998W        W22066  40.513  21.001  12.002
48999W        W22067  43.493  36.125   3.652
49000W        W22068  28.476  39.079   3.903
49001W        W22069   4.859  10.339   0.899
49002W        W22070  15.373  40.975   4.567
49003W        W22071   7.323  38.086  11.464
49004W        W22072  26.725  15.096  13.953
49005W        W22073  39.259  40.940   2.352
49006W        W22074  10.236  28.078   3.253
49007W        W22075  27.839  30.106  13.441
49008W        W22076  24.687  17.820  12.134
49009W        W22077  38.466  24.777   4.061
49010W        W22078  27.905  43.124  12.652
49011W        W22079  27.275   8.836   4.070
49012W        W22080   3.920  29.955  12.084
49013W        W22081  26.403  19.627   1.242
49014W        W22082  23.634  40.189   4.798
49015W        W22083  37.175  26.737   0.827
49016W        W22084  33.455  21.920  14.013
49017W        W22085  14.165  32.209  13.393
49018W        W22086   7.304  26.059   3.718
49019W        W22087  36.981  11.728   3.943
49020W        W22088  26.117  27.754   0.980
49021W        W22089  23.726   7.145  13.910
49022W        W22090   5.711  34.978   3.530
49023W        W22091  16.171  14.216  14.307
49024W        W22092  21.142  36.096  13.332
49025W        W22093  14.224   1.260   1.790
49026W        W22094  19.632  44.102   2.923
49027W        W22095  29.961  35.002  14.941
49028W        W22096  11.370   6.009  13.901
49029W        W22097  31.641  31.415   3.173
49030W        W22098  44.666  24.125   1.097
49031W        W22099  30.982  21.144  11.565
49032W        W22100  37.901  14.768  12.440
49033W        W22101   5.787  12.078  13.933
49034W        W22102  33.516  26.166  12.653
49035W        W22103  29.999  29.478  11.700
49036W        W22104  41.560  35.259   0.375
49037W        W22105  20.430  21.129  12.634
49038W        W22106   3.113  40.646   2.687
49039W        W22107   7.372  28.171  14.067
49040W        W22108  35.068  44.253   0.031
49041W        W22109   3.784  41.518   4.718
49042W        W22110  20.628  41.747   1.766
49043W        W22111  10.213  23.207   3.281
49044W        W22112  40.283  39.817   1.634
49045W        W22113  28.973   6.832   3.846
49046W        W22114   6.737  20.216  12.844
49047W        W22115  19.744  11.656  11.921
49048W        W22116  29.433  13.220  13.283
49049W        W22117  23.744   7.100  12.856
49050W        W22118   4.555   6.365   2.250
49051W        W22119  32.284  37.904   1.249
49052W        W22120  22.489  18.114   4.820
49053W        W22121  28.104  35.619  13.024
49054W        W22122  44.465  16.411  13.460
49055W        W22123   3.819  32.992  12.071
49056W        W22124  32.612  41.804  13.586
49057W        W22125  13.470   6.833   1.378
49058W        W22126  43.271  22.944  11.608
49059W        W22127   0.940   4.153  14.385
49060W        W22128  25.193  14.719   3.531
49061W        W22129   8.373  34.430   2.545
49062W        W22130  22.186   8.729  14.399
49063W        W22131  26.653  36.971   4.379
49064W        W22132  20.826  21.097   4.573
49065W        W22133  42.799  12.565  13.642
49066W        W22134  20.716  19.322  10.717
49067W        W22135  19.127  42.518   1.281
49068W        W22136  15.109   5.703   0.426
49069W        W22137  12.357   8.184  11.142
49070W        W22138  15.367   5.475  14.250
49071W        W22139   3.278  30.261  12.900
49072W        W22140  27.725  18.987  12.756
49073W        W22141  18.595  32.075   0.262
49074W        W22142  18.523  16.788  11.402
49075W        W22143  13.280   9.108   1.474
49076W        W22144  35.043  33.138  12.623
49077W        W22145  27.059  42.702  13.410
49078W        W22146  19.727  41.100   4.826
49079W        W22147  32.081  10.967  12.193
49080W        W22148  15.839   5.668   0.880
49081W        W22149  37.448  40.737   3.337
49082W        W22150  14.639  17.160  13.929
49083W        W22151  38.043  24.004  12.530
49084W        W22152  25.692  41.534   4.985
49085W        W22153   6.925  22.536   1.963
49086W        W22154   1.856  33.015   1.523
49087W        W22155  18.573  43.263  11.234
49088W        W22156  24.042  26.611   0.043
49089W        W22157  19.790  23.082   2.832
49090W        W22158  25.761  28.637  11.120
49091W        W22159  24.701  27.109  11.100
49092W        W22160   4.835  15.209  10.865
49093W        W22161  16.067  32.475  12.513
49094W        W22162   7.584  15.223   1.247
49095W        W22163  38.510  26.374  13.460
49096W        W22164  17.396  34.987   3.882
49097W        W22165   6.225   7.077  13.371
49098W        W22166  30.472  25.724   4.576
49099W        W22167   5.914  21.771   0.557
49100W        W22168  33.590  41.469  13.031
49101W        W22169  33.944  30.960   3.901
49102W        W22170  18.630  26.029   2.802
49103W        W22171  44.887  12.922  12.944
49104W        W22172  21.440   6.110  11.895
49105W        W22173   4.928  31.376  14.379
49106W        W22174  22.190   2.272  11.895
49107W        W22175  36.828   8.321  13.767
49108W        W22176  38.873  40.035  11.090
49109W        W22177  16.159  13.149  13.520
49110W        W22178  11.599   0.518  13.480
49111W        W22179   2.758  14.183   4.339
49112W        W22180  25.437   9.816  14.391
49113W        W22181   4.298  14.566  14.981
49114W        W22182  11.344  28.729   3.664
49115W        W22183  16.141  10.797  14.002
49116W        W22184  15.762  24.551  12.335
49117W        W22185  15.061   3.521   4.607
49118W        W22186  43.596  13.263   4.147
49119W        W22187  38.750  18.117   2.738
49120W        W22188  17.808  10.414  14.983
49121W        W22189   4.534  38.762  13.934
49122W        W22190  40.494  20.505   2.072
49123W        W22191   5.402   4.979  14.094
49124W        W22192   8.305   0.446   3.829
49125W        W22193  28.639   7.211   0.759
49126W        W22194  20.129  24.012   0.416
49127W        W22195  13.587   6.851  10.716
49128W        W22196  17.498  19.091  13.894
49129W        W22197  40.109  10.460  11.184
49130W        W22198  31.370  35.169   1.814
49131W        W22199  15.812  23.511  13.382
49132W        W22200  16.535  20.196   4.463
49133W        W22201   1.030  10.722   2.441
49134W        W22202  38.078  39.356  13.721
49135W        W22203  38.395  43.501  14.732
49136W        W22204  10.655  42.282  11.105
49137W        W22205  38.096   8.051  11.619
49138W        W22206  38.963  38.794   1.449
49139W        W22207   4.138  16.876   4.478
49140W        W22208  23.470  18.603  10.263
49141W        W22209  31.967  21.354   5.053
49142W        W22210  19.790  10.512   1.628
49143W        W22211  23.076  37.561  14.497
49144W        W22212  25.315  39.927   5.218
49145W        W22213  34.913  33.012  11.556
49146W        W22214  13.366  14.130   1.290
49147W        W22215  12.057  39.366  11.228
49148W        W22216  26.446  17.214   2.192
49149W        W22217  13.300  25.749   4.673
49150W        W22218  11.651  18.506   0.990
49151W        W22219  18.320  22.827  10.084
49152W        W22220  39.636  26.454   4.195
49153W        W22221  17.640  32.459  11.483
49154W        W22222  28.036   6.727  11.771
49155W        W22223   3.193  40.415   4.051
49156W        W22224  31.405  25.617  14.901
49157W        W22225  32.172   2.038   0.266
49158W        W22226  41.413  32.067  10.816
49159W        W22227  31.453  32.900  10.629
49160W        W22228  12.402  43.032  12.858
49161W        W22229  17.152   5.073   0.055
49162W        W22230   9.033   5.476   1.222
49163W        W22231  29.423  40.367  12.126
49164W        W22232  31.882  37.052  12.000
49165W        W22233   4.600  32.446  14.978
49166W        W22234   3.732  20.051   4.560
49167W        W22235  32.921  20.631  10.646
49168W        W22236  13.878  10.247  12.740
49169W        W22237  24.744  24.096  12.520
49170W        W22238  18.141   2.048  13.361
49171W        W22239   7.409  41.085   4.171
49172W        W22240  37.455  14.226   2.286
49173W        W22241   0.732  40.089  13.293
49174W        W22242  25.676  11.195  11.616
49175W        W22243  41.087  43.805   1.560
49176W        W22244   5.659  28.434  11.151
49177W        W22245   6.845  34.697   4.003
49178W        W22246  12.638  17.186   4.087
49179W        W22247  42.683  37.036   3.637
49180W        W22248   9.266   4.220  12.876
49181W        W22249  32.919  21.329  13.351
49182W        W22250  36.889  16.089  10.725
49183W        W22251  27.528  25.007  14.583
49184W        W22252   9.848   5.323   2.225
49185W        W22253  41.374  37.983   1.603
49186W        W22254  38.575  34.483  13.852
49187W        W22255  22.575  25.396   1.656
49188W        W22256   8.484  21.784  10.735
49189W        W22257  21.254  22.052   4.227
49190W        W22258   4.228  29.114  12.117
49191W        W22259  16.841  16.321   3.232
49192W        W22260  25.262  15.342  11.567
49193W        W22261  37.028  15.126   3.234
49194W        W22262  36.616  26.554  11.844
49195W        W22263  36.546  17.760   2.827
49196W        W22264  24.500  25.039  11.457
49197W        W22265  41.413   5.891   0.377
49198W        W22266  32.988  27.088  12.482
49199W        W22267   5.309  27.730   2.177
49200W        W22268  39.639  24.026  12.021
49201W        W22269  20.873  19.682  11.254
49202W        W22270  25.003  27.348   3.991
49203W        W22271   0.284  37.289  14.437
49204W        W22272  32.066  27.122   0.944
49205W        W22273  36.137  11.537   4.986
49206W        W22274  29.323   9.835   4.332
49207W        W22275  23.206  28.875  11.599
49208W        W22276  40.336  37.070   4.079
49209W        W22277  44.117  23.063   2.623
49210W        W22278  31.696  42.740  14.004
49211W        W22279  42.817  18.352  12.876
49212W        W22280  19.046  37.236   4.914
49213W        W22281  40.958  42.515  12.899
49214W        W22282  13.097  39.444   1.754
49215W        W22283  33.690  16.385  13.353
49216W        W22284  22.552  22.661  10.598
49217W        W22285   0.469  30.891  11.864
49218W        W22286  11.134  35.917   0.912
49219W        W22287   9.330  35.007   2.412
49220W        W22288   1.283  18.105   0.230
49221W        W22289  28.231  43.003  10.517
49222W        W22290  25.630   6.639   4.144
49223W        W22291  44.919  11.381  14.068
49224W        W22292  11.240  33.807   4.706
49225W        W22293  17.532  17.876  12.851
49226W        W22294  40.916  31.592  13.333
49227W        W22295   6.212  18.104  10.572
49228W        W22296  42.846  37.890   0.955
49229W        W22297  26.554   8.822   1.827
49230W        W22298  37.891  18.991   2.289
49231W        W22299  21.665  27.602   0.308
49232W        W22300  24.249  26.967   1.002
49233W        W22301  19.643   1.309  12.870
49234W        W22302  38.163   0.794  11.959
49235W        W22303  42.391  21.800  12.340
49236W        W22304  15.056  30.787  12.500
49237W        W22305  40.555   1.093  14.357
49238W        W22306   7.400  13.549  11.112
49239W        W22307   9.747  38.414   0.961
49240W        W22308   5.305   4.539  13.846
49241W        W22309  39.108  29.143   1.354
49242W        W22310  38.173  22.417   0.925
49243W        W22311  22.066  20.500  11.761
49244W        W22312  41.191  28.643  11.609
49245W        W22313  29.440   0.393  13.278
49246W        W22314  25.662  39.390  14.217
49247W        W22315  35.432   6.681   1.965
49248W        W22316  35.537   5.876  10.733
49249W        W22317  10.376  44.898   2.307
49250W        W22318  26.391  28.030   4.724
49251W        W22319  16.688  32.655   2.873
49252W        W22320  26.240  33.050   0.461
49253W        W22321  24.492  12.717   4.543
49254W        W22322  27.157  32.036  13.899
49255W        W22323   5.921  28.962  12.072
49256W        W22324  21.757  36.863  10.496
49257W        W22325   4.343  17.634   4.968
49258W        W22326  36.896   8.140  14.679
49259W        W22327   6.365  27.207  12.135
49260W        W22328  21.988   7.173  13.883
49261W        W22329  34.279  22.764   1.259
49262W        W22330  36.515  32.099   1.810
49263W        W22331  39.646  36.629  14.604
49264W        W22332  11.103   9.440   1.890
49265W        W22333   6.641  33.041   2.666
49266W        W22334  15.606  17.293  12.161
49267W        W22335  40.801  38.684  14.818
49268W        W22336   2.978  38.999  14.010
49269W        W22337  17.571  30.171  14.300
49270W        W22338  44.945  19.289  14.472
49271W        W22339  23.017  23.870  14.934
49272W        W22340   6.155  43.009  11.581
49273W        W22341   3.245  43.573   1.713
49274W        W22342  17.667  37.051   3.636
49275W        W22343   1.820   4.179   4.593
49276W        W22344  10.002  11.687  14.427
49277W        W22345   5.982  38.309  13.317
49278W        W22346  36.828   6.943   0.743
49279W        W22347   1.294  13.215   0.835
49280W        W22348  15.583  43.473  14.864
49281W        W22349  28.516   5.019   0.250
49282W        W22350  34.027  33.981   0.431
49283W        W22351  11.627  20.692  12.961
49284W        W22352  29.624  20.221   0.332
49285W        W22353  38.896  21.820  11.082
49286W        W22354  40.792  28.168   2.714
49287W        W22355  15.189  14.726   4.695
49288W        W22356  24.238  32.265   0.850
49289W        W22357  20.080  20.657   1.725
49290W        W22358   6.903   2.141   1.965
49291W        W22359  26.090  12.796   3.302
49292W        W22360  14.576  30.954   0.324
49293W        W22361  11.613  44.287  14.275
49294W        W22362  15.600  32.071  13.806
49295W        W22363  11.655  16.060   2.281
49296W        W22364  40.670  14.301   1.869
49297W        W22365  39.462  43.990  12.011
49298W        W22366  10.535   0.835   0.998
49299W        W22367  17.628   2.462   2.006
49300W        W22368  26.505  13.263   0.703
49301W        W22369  38.572  22.735   2.912
49302W        W22370  43.454  10.185  12.010
49303W        W22371  24.492   2.482   4.123
49304W        W22372  29.038   7.454  13.414
49305W        W22373  16.995   8.993   2.826
49306W        W22374   8.414  11.679   1.438
49307W        W22375  10.668  31.391  12.417
49308W        W22376  29.602   5.603  12.022
49309W        W22377  26.166  14.691  11.529
49310W        W22378  21.277   0.235  12.374
49311W        W22379  33.378  27.354   1.984
49312W        W22380   8.683  15.531   3.251
49313W        W22381  17.369  26.342  14.238
49314W        W22382  18.789  28.074  11.523
49315W        W22383  28.217  26.478   1.874
49316W        W22384  23.855  43.908  11.057
49317W        W22385  43.426  26.424  14.310
49318W        W22386   4.655   8.382   2.338
49319W        W22387  27.095  34.803  11.214
49320W        W22388  27.063  10.365   1.336
49321W        W22389  36.214  41.643   2.144
49322W        W22390   8.432  11.613  13.575
49323W        W22391  19.735  22.675  12.089
49324W        W22392  18.700  39.677   0.283
49325W        W22393   5.556   6.533   3.104
49326W        W22394  28.857   3.225  10.790
49327W        W22395  40.086   1.305  14.429
49328W        W22396  27.197  11.677   2.854
49329W        W22397   0.043  33.281  11.599
49330W        W22398   8.745  33.950  10.686
49331W        W22399  36.549  44.950   1.047
49332W        W22400   5.575  10.217   2.328
49333W        W22401  41.927  17.855   1.318
49334W        W22402  31.926   7.305   4.962
49335W        W22403  23.235  36.855   4.440
49336W        W22404   7.436   9.823   3.996
49337W        W22405   7.500   4.396  10.667
49338W        W22406  21.992  20.054   3.902
49339W        W22407  20.513  22.180   1.341
49340W        W22408  16.670   5.868  14.735
49341W        W22409  13.648  41.123   3.360
49342W        W22410  31.585  39.461   1.909
49343W        W22411   1.261   9.177   0.033
49344W        W22412  18.804  34.986   0.738
49345W        W22413  26.319  23.511  13.613
49346W        W22414  26.415  21.297   0.527
49347W        W22415  16.069  38.622   3.220
49348W        W22416  40.993  40.824   2.825
49349W        W22417  22.339  21.988  13.397
49350W        W22418  38.487  13.233   4.663
49351W        W22419  21.599  33.608  11.552
49352W        W22420  19.505  29.578   1.844
49353W        W22421  20.707  27.529   0.862
49354W        W22422  15.410   3.672  11.433
49355W        W22423  28.809  17.824  11.263
49356W        W22424  12.312  26.935  11.978
49357W        W22425  34.970  13.921  12.973
49358W        W22426  36.535  34.558   0.196
49359W        W22427  18.455  40.385  14.928
49360W        W22428  10.202  31.123   2.310
49361W        W22429  38.484  19.751  10.467
49362W        W22430  20.978  23.000   3.422
49363W        W22431  24.029   8.805  14.848
49364W        W22432  22.454   4.452   2.635
49365W        W22433   0.403  39.985   2.253
49366W        W22434  31.075   8.473  14.065
49367W        W22435  13.189  41.613   1.677
49368W        W22436  43.458  40.227   2.816
49369W        W22437  34.712   3.212  12.373
49370W        W22438  19.318   6.649  14.050
49371W        W22439  28.985  32.840   0.839
49372W        W22440  21.192  43.965   3.167
49373W        W22441  34.936  35.849  12.413
49374W        W22442  28.908  20.331  10.598
49375W        W22443   6.190  11.307  14.920
49376W        W22444   9.297  43.308  10.724
49377W        W22445  23.631  42.926  14.040
49378W        W22446  37.797  28.556   1.932
49379W        W22447  37.875   5.922   3.808
49380W        W22448  14.294  34.903   0.819
49381W        W22449   7.719  12.170  14.450
49382W        W22450  37.146  39.836  14.457
49383W        W22451  44.232  44.480  12.453
49384W        W22452  12.044  35.592   3.307
49385W        W22453  44.185  19.081   0.736
49386W        W22454   6.849  36.241   1.934
49387W        W22455   8.613  30.453   1.858
49388W        W22456  44.477  21.897   4.134
49389W        W22457  42.434  14.045   4.185
49390W        W22458  42.415  42.850   0.511
49391W        W22459  31.369  36.858   3.957
49392W        W22460  18.671   1.141   0.450
49393W        W22461  16.995   3.224   0.441
49394W        W22462  10.417  19.258   3.244
49395W        W22463  37.311  18.899  14.522
49396W        W22464  13.092  35.444  13.122
49397W        W22465  25.950  32.512  12.758
49398W        W22466  11.880  43.035  11.538
49399W        W22467  44.403   1.994   0.271
49400W        W22468   0.000   0.316   0.853
49401W        W22469  24.123   7.846  12.181
49402W        W22470   7.723  16.850  10.301
49403W        W22471  31.093   0.414   4.198
49404W        W22472  18.576  44.361   3.399
49405W        W22473  21.173  16.006  11.841
49406W        W22474  27.971  42.494  11.888
49407W        W22475  38.721  42.555   0.771
49408W        W22476  38.315  23.069   1.897
49409W        W22477  25.156  16.081  12.876
49410W        W22478  10.258  41.829   5.015
49411W        W22479  17.427   4.808   9.915
49412W        W22480  43.714   2.896  11.192
49413W        W22481  12.139  44.547   0.285
49414W        W22482  24.893  34.747   4.266
49415W        W22483  39.334  19.834  14.084
49416W        W22484  12.584  17.711   4.183
49417W        W22485  17.615  42.166  13.934
49418W        W22486  36.337  27.001  12.090
49419W        W22487  26.913  12.316   0.209
49420W        W22488  28.499  24.682   4.413
49421W        W22489  30.005   8.734  14.443
49422W        W22490  41.925  15.947  13.077
49423W        W22491  37.151   2.532  10.796
49424W        W22492  39.441   7.931   4.979
49425W        W22493  35.823  34.388  12.521
49426W        W22494   5.783  14.477  12.302
49427W        W22495  27.393  25.039   1.831
49428W        W22496  31.121  23.984  12.568
49429W        W22497  14.134  26.962   2.056
49430W        W22498   7.370  23.481   4.122
49431W        W22499   6.413  30.831   2.530
49432W        W22500  34.103  21.061  13.006
49433W        W22501   7.397  12.687  11.144
49434W        W22502  29.470  13.134   0.821
49435W        W22503   8.664  44.747  14.392
49436W        W22504  11.818   2.076   3.669
49437W        W22505  28.835  33.455  14.232
49438W        W22506  44.348  36.075  10.319
49439W        W22507  38.327   0.801  14.359
49440W        W22508  18.422   0.833  12.615
49441W        W22509  16.001  26.845   0.386
49442W        W22510  15.207  42.873  13.915
49443W        W22511  23.992  19.061  14.046
49444W        W22512  20.360  29.667  13.827
49445W        W22513  42.996   4.482  10.656
49446W        W22514  20.620   2.397   0.324
49447W        W22515  16.145  29.679  14.334
49448W        W22516  17.180   0.903   1.265
49449W        W22517  15.115  40.884  14.990
49450W        W22518   1.893  36.470   4.698
49451W        W22519  43.271  17.221   4.571
49452W        W22520   5.323  31.389   4.368
49453W        W22521  39.751  21.235   1.825
49454W        W22522  34.625  24.123   2.441
49455W        W22523  27.393  10.684   1.071
49456W        W22524  32.894  21.981   3.190
49457W        W22525  34.979  31.887  12.874
49458W        W22526   1.377  39.277   3.430
49459W        W22527  24.907  40.015   2.814
49460W        W22528   8.016  31.417   2.420
49461W        W22529  26.062  37.755   2.820
49462W        W22530  22.588  27.597  14.042
49463W        W22531  16.602   1.750   1.370
49464W        W22532   0.802  27.359   2.353
49465W        W22533  13.679  36.490   1.814
49466W        W22534  13.329  35.523   2.942
49467W        W22535   8.676   6.248   0.824
49468W        W22536  20.634  39.874   1.470
49469W        W22537  20.687  18.791   2.359
49470W        W22538   8.255  39.788   3.255
49471W        W22539  20.732   4.931  14.950
49472W        W22540  41.295  32.538  13.066
49473W        W22541  34.074  30.105   0.274
49474W        W22542  20.534  19.018   4.125
49475W        W22543  19.516   0.605  12.019
49476W        W22544  21.750  44.505  10.520
49477W        W22545  26.486   3.016   2.331
49478W        W22546  39.897  29.982   0.922
49479W        W22547  41.878  44.036  14.861
49480W        W22548  19.500   4.763  12.560
49481W        W22549  30.469  41.026   0.264
49482W        W22550  44.666  12.362  11.519
49483W        W22551  25.158   9.222   1.884
49484W        W22552  15.614   5.416   3.372
49485W        W22553  43.782  16.982  10.647
49486W        W22554  30.578  36.893   3.795
49487W        W22555  40.386   9.605   0.747
49488W        W22556  39.565  30.933  13.728
49489W        W22557  32.379   8.881   1.934
49490W        W22558  12.819  27.739  13.229
49491W        W22559  44.955   4.516  11.572
49492W        W22560  31.478   6.830  14.558
49493W        W22561  17.144  26.559   1.763
49494W        W22562  14.617  35.795  14.845
49495W        W22563  24.166  35.511   1.712
49496W        W22564  30.961   8.651   2.242
49497W        W22565   1.090  27.183   2.741
49498W        W22566  42.057  33.321  11.213
49499W        W22567  28.868   7.922  10.697
49500W        W22568  41.636  14.844   4.755
49501W        W22569  34.889  33.595   1.791
49502W        W22570  37.973   0.817  13.992
49503W        W22571  41.962   8.838  12.552
49504W        W22572   0.316   3.656  11.482
49505W        W22573  19.135  18.111   4.375
49506W        W22574  22.222  11.349  14.752
49507W        W22575  42.327  24.599   1.838
49508W        W22576  11.585  19.020   2.262
49509W        W22577  42.740  19.069   2.391
49510W        W22578  24.185  42.050   4.469
49511W        W22579  27.626  19.171   4.630
49512W        W22580   1.648  41.855  10.708
49513W        W22581  23.814  37.370   1.874
49514W        W22582  19.410  17.046   0.275
49515W        W22583  21.506  40.024   2.764
49516W        W22584  35.138  17.825   1.368
49517W        W22585  14.542  32.148  14.003
49518W        W22586  29.612   9.430   4.400
49519W        W22587  42.293  35.425   1.201
49520W        W22588   9.146   6.415  12.554
49521W        W22589  35.836  33.894   1.704
49522W        W22590  26.638  38.410   0.845
49523W        W22591  23.149  25.564   4.635
49524W        W22592  38.913  43.360  13.067
49525W        W22593  32.281  11.014   2.689
49526W        W22594   0.230  34.991  14.347
49527W        W22595  25.330  18.659   1.174
49528W        W22596  16.255  36.270  14.754
49529W        W22597  36.650  28.935   1.396
49530W        W22598  41.552  27.504   1.883
49531W        W22599  17.007   8.886   3.694
49532W        W22600  18.133  35.385  13.970
49533W        W22601  25.084  31.433  11.429
49534W        W22602  35.965  20.718  14.943
49535W        W22603  33.425  14.637  14.459
49536W        W22604  31.364  38.893  11.565
49537W        W22605  29.047  24.571   4.499
49538W        W22606  13.735  20.697   4.140
49539W        W22607   0.302  10.588   1.265
49540W        W22608   1.360  35.544  11.709
49541W        W22609  19.095  33.001  12.617
49542W        W22610  16.790  23.639  11.273
49543W        W22611  17.764  19.539  13.826
49544W        W22612  41.283   4.864  12.470
49545W        W22613  10.609  14.358   2.298
49546W        W22614  18.323  16.537   4.571
49547W        W22615  23.347  30.601  11.969
49548W        W22616  42.057  28.577   3.769
49549W        W22617   1.209  14.778   2.730
49550W        W22618  29.470  28.505   2.713
49551W        W22619  24.509   6.902   3.309
49552W        W22620  27.482  26.090  13.359
49553W        W22621  25.102  23.253   4.731
49554W        W22622   9.203  40.272  14.383
49555W        W22623  26.444   3.645  11.191
49556W        W22624  11.590  21.165  11.221
49557W        W22625  17.690  17.325   0.389
49558W        W22626  43.824   7.773   1.602
49559W        W22627   5.197  37.526  12.792
49560W        W22628   9.144  11.349   4.477
49561W        W22629   8.162  33.186   2.846
49562W        W22630   9.325  30.123   2.069
49563W        W22631  41.875  40.845  11.180
49564W        W22632  44.457  44.862   4.571
49565W        W22633  10.622  31.077   4.956
49566W        W22634  29.200  42.971  12.489
49567W        W22635  42.458   5.457   0.166
49568W        W22636   2.934  15.447   4.791
49569W        W22637  21.625   7.023   5.102
49570W        W22638  11.076  38.389   2.185
49571W        W22639   1.414  38.996   1.221
49572W        W22640  25.694   1.934  14.908
49573W        W22641  27.974  11.079  13.446
49574W        W22642  33.427  13.213   3.152
49575W        W22643  15.627  29.832   4.596
49576W        W22644   8.795  31.729   0.916
49577W        W22645  13.518  36.026  11.940
49578W        W22646   5.414  16.769  12.096
49579W        W22647  33.904  32.465  10.716
49580W        W22648  41.882  37.692   4.508
49581W        W22649  39.846  37.393   0.005
49582W        W22650  15.169   6.483  12.434
49583W        W22651  31.044  12.841  10.722
49584W        W22652  17.839   9.184  13.676
49585W        W22653   5.782  30.701   3.836
49586W        W22654  21.117  33.041   2.757
49587W        W22655  42.564  16.223   5.074
49588W        W22656  12.616  39.947  14.341
49589W        W22657  15.790  10.589  12.644
49590W        W22658  41.976  30.230  14.928
49591W        W22659  17.662  41.934   3.883
49592W        W22660   5.327  27.646  13.479
49593W        W22661  11.749  34.242   3.581
49594W        W22662  32.071  29.321  12.444
49595W        W22663  43.953  40.735  12.103
49596W        W22664  24.064  28.151   4.640
49597W        W22665  33.740   4.813   4.506
49598W        W22666  39.370  25.309   0.305
49599W        W22667  21.923  39.090  11.417
49600W        W22668   4.774  21.722  10.228
49601W        W22669  41.321  26.387   1.179
49602W        W22670   2.673  18.502   3.265
49603W        W22671  13.831  33.993   0.691
49604W        W22672  38.067  28.672  11.598
49605W        W22673  17.152  40.722  10.898
49606W        W22674  39.243  44.550   3.707
49607W        W22675  32.933  34.967  12.415
49608W        W22676  13.876  18.075   3.835
49609W        W22677  27.024  40.725  11.177
49610W        W22678  17.563  41.270   2.204
49611W        W22679  14.017  21.687   2.693
49612W        W22680  41.294  26.553  12.844
49613W        W22681  43.543  16.347   1.673
49614W        W22682  34.875  28.606   0.394
49615W        W22683  41.812  40.404  10.915
49616W        W22684  29.529  37.968   5.015
49617W        W22685  12.171  26.506   4.565
49618W        W22686  32.002  29.662   2.685
49619W        W22687   2.246   2.491  14.549
49620W        W22688   4.451  42.843  14.771
49621W        W22689  18.309  23.692  12.000
49622W        W22690   0.303  21.653   0.933
49623W        W22691   7.949   0.956   4.466
49624W        W22692  38.519  18.330  12.032
49625W        W22693  21.983  26.063   4.272
49626W        W22694  33.384  22.808   1.508
49627W        W22695   6.125  33.771  12.574
49628W        W22696  25.635  43.209  12.144
49629W        W22697   3.892   3.309  12.930
49630W        W22698  41.322  21.212  12.442
49631W        W22699  24.614  29.070   1.548
49632W        W22700   0.280  17.324  14.983
49633W        W22701   5.596  29.027  14.888
49634W        W22702   9.572   5.264   0.373
49635W        W22703  40.097   9.732   2.761
49636W        W22704  37.633  11.866   1.592
49637W        W22705   1.214   0.246   1.234
49638W        W22706  33.058  27.607   2.818
49639W        W22707  28.579   7.694  13.512
49640W        W22708  12.098  10.371   0.965
49641W        W22709  43.044  30.939  12.215
49642W        W22710  20.699  41.426  14.696
49643W        W22711  14.787  38.575  14.870
49644W        W22712  30.956  11.512   3.392
49645W        W22713  23.689  38.339  14.870
49646W        W22714  37.809  32.383  14.274
49647W        W22715  38.312  17.954   1.437
49648W        W22716  15.096  16.589   0.021
49649W        W22717  36.430   7.657  12.472
49650W        W22718  39.243   8.976   0.824
49651W        W22719   6.017  41.171   3.310
49652W        W22720   5.672   6.309  12.421
49653W        W22721  17.338  28.805   3.870
49654W        W22722   6.567  31.895  12.812
49655W        W22723   5.669   9.680   3.973
49656W        W22724  13.112  35.452   0.511
49657W        W22725   2.725  10.926   2.074
49658W        W22726  35.501   1.641  11.676
49659W        W22727  44.565  39.309  13.352
49660W        W22728  37.759   4.446  14.890
49661W        W22729   8.842  15.694   3.774
49662W        W22730  38.015  41.033   4.126
49663W        W22731  13.626  11.421  14.478
49664W        W22732  19.270  10.599   2.833
49665W        W22733  29.538  40.468   4.467
49666W        W22734  42.366  38.460   3.604
49667W        W22735  18.041  33.376   2.701
49668W        W22736  41.558   5.907   1.740
49669W        W22737  17.543   1.026  14.502
49670W        W22738  15.796  44.904  11.014
49671W        W22739  22.999  13.292  11.320
49672W        W22740  23.504  18.518  13.335
49673W        W22741   9.454  39.671  14.952
49674W        W22742  40.813  37.753  11.669
49675W        W22743  26.123  29.581  11.966
49676W        W22744  15.702  36.275   3.186
49677W        W22745   2.890  33.600  11.471
49678W        W22746  10.183  34.087   5.014
49679W        W22747  42.683  25.808  11.174
49680W        W22748  22.011  43.255   2.307
49681W        W22749  20.654   2.886  14.903
49682W        W22750   2.964  14.553  13.996
49683W        W22751  17.884  39.894   0.390
49684W        W22752  39.548  43.068   4.112
49685W        W22753  23.428  24.118   4.683
49686W        W22754  35.887   7.685   3.614
49687W        W22755  28.892  16.800   3.228
49688W        W22756  25.067  16.823  11.454
49689W        W22757  42.809  31.557   3.628
49690W        W22758  22.010  31.932  11.149
49691W        W22759  25.757  23.120  11.592
49692W        W22760  42.165  30.632  10.329
49693W        W22761  39.876   9.729   2.291
49694W        W22762  22.105  36.455   0.282
49695W        W22763  39.659  29.555  14.776
49696W        W22764  37.845  10.454  11.585
49697W        W22765  18.919  33.427  12.364
49698W        W22766  42.418  10.418  11.491
49699W        W22767  38.993   1.420   3.725
49700W        W22768  20.845  11.609  14.811
49701W        W22769  23.543  36.169  11.386
49702W        W22770  32.244  44.016  11.058
49703W        W22771  21.277  33.872   1.020
49704W        W22772  13.611  27.543  12.879
49705W        W22773  24.675  36.857  10.544
49706W        W22774   2.834  20.072  12.825
49707W        W22775  32.586  10.860  11.030
49708W        W22776  42.883  20.541   0.787
49709W        W22777   0.801  39.390  12.502
49710W        W22778  41.437  23.955  12.940
49711W        W22779  42.983  22.213   1.853
49712W        W22780  27.864   2.963  14.832
49713W        W22781  12.685   6.598  13.518
49714W        W22782  23.638   7.370   1.658
49715W        W22783   2.643  35.518   1.836
49716W        W22784  28.599  29.186  11.641
49717W        W22785  26.041  42.626  11.015
49718W        W22786  11.447  29.703  12.101
49719W        W22787   6.166  35.268  12.325
49720W        W22788  16.344  40.838  13.940
49721W        W22789  30.270  42.327   2.673
49722W        W22790  16.789   3.556  10.703
49723W        W22791  21.251  14.673   1.195
49724W        W22792  11.183  14.741   4.515
49725W        W22793  27.414  14.647   0.958
49726W        W22794  37.809  12.318   1.787
49727W        W22795   9.632  27.501  12.566
49728W        W22796   1.056  10.700  11.565
49729W        W22797   0.426  11.367   2.070
49730W        W22798   0.386  19.311   4.592
49731W        W22799  41.788  34.149   0.309
49732W        W22800   0.228  10.292  11.674
49733W        W22801  27.215  30.455  11.151
49734W        W22802  14.168   6.601  13.464
49735W        W22803  34.451   4.225  12.100
49736W        W22804   4.202  36.286  14.266
49737W        W22805  27.502   5.889  14.843
49738W        W22806  32.077  41.519   4.682
49739W        W22807  22.120  10.982   2.776
49740W        W22808  12.583  32.182  10.172
49741W        W22809  33.418  28.906   0.403
49742W        W22810  25.678  23.476  12.550
49743W        W22811  24.474   9.939  10.721
49744W        W22812  25.046  28.866   1.806
49745W        W22813  24.365  29.368   0.766
49746W        W22814  11.808  34.211  12.465
49747W        W22815  25.556  10.889   1.890
49748W        W22816  37.213  11.704  13.421
49749W        W22817  24.733  24.595  11.606
49750W        W22818   2.848   1.421  14.941
49751W        W22819   8.596  14.171  13.332
49752W        W22820  27.498  44.287  14.337
49753W        W22821   7.340  14.255  14.478
49754W        W22822  44.395  31.838  10.637
49755W        W22823   5.892  13.651  10.941
49756W        W22824  34.417  28.401   0.227
49757W        W22825  27.067  14.884  10.706
49758W        W22826  32.460  28.260  14.398
49759W        W22827  11.634  12.625   3.418
49760W        W22828  23.384  17.147   5.026
49761W        W22829   3.844  33.480   0.045
49762W        W22830  40.311  20.193  11.261
49763W        W22831  38.893  17.663   1.462
49764W        W22832  12.363   9.621  14.574
49765W        W22833   3.952  19.658   3.192
49766W        W22834   7.103   9.288   1.793
49767W        W22835  21.268  26.733   1.712
49768W        W22836  11.136  28.588  12.544
49769W        W22837  22.127   9.290  14.480
49770W        W22838  28.157  14.721  12.201
49771W        W22839  14.208  11.837   5.283
49772W        W22840  28.516  44.040   2.288
49773W        W22841  27.313   5.030   4.134
49774W        W22842  35.737  17.262   3.268
49775W        W22843  15.499   1.509  11.072
49776W        W22844  36.595   7.706   3.199
49777W        W22845  41.980   4.444   4.906
49778W        W22846   2.942  14.786   2.170
49779W        W22847  40.980  35.173   2.113
49780W        W22848   0.003   1.290  11.585
49781W        W22849  24.488   0.288   2.678
49782W        W22850   0.192  39.814   2.681
49783W        W22851  27.640  31.917   1.874
49784W        W22852  22.714  35.856  10.712
49785W        W22853  15.600  22.558   4.110
49786W        W22854  21.548  26.508  13.889
49787W        W22855  43.327  29.539  12.946
49788W        W22856  30.522  40.400  12.438
49789W        W22857  22.817  36.788   0.481
49790W        W22858  39.237  37.122  11.150
49791W        W22859  24.028   6.706   4.574
49792W        W22860  41.968  13.682  11.209
49793W        W22861  40.480  39.328   3.193
49794W        W22862  31.917  22.722  11.614
49795W        W22863  36.891  11.057   1.604
49796W        W22864  35.375   9.898   2.705
49797W        W22865   9.832  18.319  10.583
49798W        W22866  25.053  35.493   0.742
49799W        W22867  24.505  20.329  13.148
49800W        W22868  15.842  39.445  12.052
49801W        W22869  38.661  14.312  10.629
49802W        W22870   1.834  43.512  11.132
49803W        W22871  30.490  32.691   1.862
49804W        W22872  42.970  34.962   3.148
49805W        W22873  10.653   7.245   4.617
49806W        W22874  41.973  41.163   4.903
49807W        W22875   5.524  29.570   4.197
49808W        W22876  13.154   9.312  10.761
49809W        W22877  23.193  20.503  11.976
49810W        W22878  37.447  44.096  12.552
49811W        W22879  27.147  34.746   2.964
49812W        W22880  19.052  30.811  10.159
49813W        W22881   7.745  16.089  14.821
49814W        W22882  16.567  18.192   0.262
49815W        W22883  12.705  42.425  11.165
49816W        W22884  25.123  11.224  12.695
49817W        W22885   0.957  27.056  13.176
49818W        W22886   7.800  24.002   2.764
49819W        W22887   5.479  44.790  14.429
49820W        W22888  11.356   7.348   3.037
49821W        W22889  41.418   3.429   0.948
49822W        W22890   7.164  45.000   3.715
49823W        W22891  40.396  27.852   2.823
49824W        W22892  39.368  16.987  10.637
49825W        W22893  27.156  31.546   3.240
49826W        W22894  44.510  17.417   2.397
49827W        W22895  29.855   9.415   0.333
49828W        W22896   6.801  30.407   1.304
49829W        W22897  34.397  39.848  14.793
49830W        W22898  23.028  17.152   3.383
49831W        W22899   8.801  38.624   0.785
49832W        W22900   6.832  43.199   0.136
49833W        W22901  44.009   7.637  12.576
49834W        W22902  27.685  31.634   4.056
49835W        W22903   8.208  23.556  14.826
49836W        W22904  41.883  35.329   3.697
49837W        W22905   2.401  17.395   4.156
49838W        W22906  40.947  27.181   3.089
49839W        W22907  44.818  27.552  12.095
49840W        W22908  21.696  33.105  13.272
49841W        W22909  38.944  12.666  11.062
49842W        W22910   2.330  41.118   1.438
49843W        W22911  34.835   3.360   0.034
49844W        W22912  33.163   0.217   2.316
49845W        W22913  37.290  11.571  12.052
49846W        W22914   3.142  25.919  13.221
49847W        W22915  35.479  29.304   4.485
49848W        W22916   4.088  26.040   2.067
49849W        W22917  40.902   4.292   2.152
49850W        W22918  43.639   0.754  10.609
49851W        W22919  17.601   1.799   0.185
49852W        W22920   6.943  38.706  11.935
49853W        W22921  43.315  22.559  13.911
49854W        W22922   9.385   7.584   1.753
49855W        W22923  35.437  40.294   1.902
49856W        W22924  16.715  16.177   4.213
49857W        W22925  37.156  24.780   0.900
49858W        W22926  20.625  15.387  11.536
49859W        W22927   9.754  37.951   2.173
49860W        W22928   7.116  27.129  11.486
49861W        W22929  25.978  16.620   3.622
49862W        W22930   6.858  12.344   1.817
49863W        W22931  25.890  27.058   3.369
49864W        W22932  13.639  33.103   1.814
49865W        W22933  18.324  35.539   2.626
49866W        W22934  39.419  33.903  11.534
49867W        W22935  13.806   3.975   3.895
49868W        W22936  42.646   1.235  13.642
49869W        W22937   8.650   0.043   3.040
49870W        W22938  25.555  41.984   3.898
49871W        W22939  19.627   7.069  10.649
49872W        W22940  20.584  15.781  13.749
49873W        W22941  17.888  22.920   3.669
49874W        W22942  19.135  10.870   2.408
49875W        W22943  37.348   8.021  10.600
49876W        W22944  33.223  40.072   3.153
49877W        W22945  16.512   1.796  12.630
49878W        W22946  36.559   2.878  13.488
49879W        W22947  25.906  15.371  12.647
49880W        W22948  40.215  17.943   3.079
49881W        W22949  40.665  15.848   2.626
49882W        W22950  11.743   3.178   0.214
49883W        W22951   0.935  25.489  14.506
49884W        W22952  19.453   6.364  13.402
49885W        W22953  11.847   9.727   0.311
49886W        W22954  30.254  43.865  13.316
49887W        W22955  19.172   0.257  14.072
49888W        W22956  16.488  36.080  14.271
49889W        W22957  41.547  12.822   3.344
49890W        W22958   8.649   3.097   0.424
49891W        W22959  44.460  13.731  11.149
49892W        W22960  33.819  19.839   2.272
49893W        W22961  23.554   5.119   2.852
49894W        W22962  39.473  21.312   2.262
49895W        W22963  11.942  19.392   2.195
49896W        W22964  33.566  42.509  11.592
49897W        W22965  14.318  20.378  13.799
49898W        W22966   7.965  39.499   9.794
49899W        W22967   8.175   8.194  12.994
49900W        W22968  24.096  16.790  10.003
49901W        W22969  39.393   4.344  13.258
49902W        W22970  13.172  17.772  12.525
49903W        W22971  12.210  35.588  13.473
49904W        W22972  23.458  30.890   1.852
49905W        W22973   0.391   7.650   2.164
49906W        W22974   4.460   4.096   1.127
49907W        W22975  33.642   5.690  14.658
49908W        W22976  20.562  28.706   0.758
49909W        W22977  17.848  12.421  14.004
49910W        W22978  43.434  33.909  12.520
49911W        W22979   4.900  18.181   2.724
49912W        W22980  17.273  14.054   4.122
49913W        W22981  24.488  24.452  11.184
49914W        W22982  37.557  43.728  10.674
49915W        W22983   0.931  40.131  11.170
49916W        W22984  39.910  40.446  10.772
49917W        W22985  16.358  14.670   1.552
49918W        W22986  22.635   3.235  12.583
49919W        W22987  17.122  38.363  14.891
49920W        W22988   0.752  33.186  14.339
49921W        W22989  40.958  30.050  14.847
49922W        W22990   0.731   4.784   1.297
49923W        W22991  39.735  28.651   4.829
49924W        W22992  32.515  10.048   1.369
49925W        W22993  44.749   2.995  14.276
49926W        W22994  33.970  11.405   1.154
49927W        W22995   0.044  38.642   4.181
49928W        W22996  20.293  41.383  13.443
49929W        W22997   9.943   1.248  13.332
49930W        W22998  26.021  35.195   4.236
49931W        W22999  41.386   0.230   4.125
49932W        W23000  29.918  24.253   4.373
49933W        W23001  11.257  27.917   3.202
49934W        W23002   1.080   7.478  13.479
49935W        W23003  23.696  18.597   0.304
49936W        W23004  18.122  22.626   3.178
49937W        W23005  17.096  25.662   4.875
49938W        W23006   8.836   7.954   4.825
49939W        W23007   6.282   4.959  11.699
49940W        W23008  33.949  41.734  11.390
49941W        W23009  23.205  19.473   5.523
49942W        W23010  31.650  11.924  14.087
49943W        W23011  37.544   2.331  12.407
49944W        W23012  10.062  29.643   4.142
49945W        W23013  28.288  41.501   4.188
49946W        W23014  26.650  13.640  11.971
49947W        W23015  14.253  36.840   1.036
49948W        W23016  23.784  43.644   0.221
49949W        W23017   8.934  43.250   2.365
49950W        W23018  42.219  18.074  11.520
49951W        W23019  26.541  43.315  11.016
49952W        W23020  41.882   0.381  12.967
49953W        W23021  26.011  40.269   4.677
49954W        W23022  37.994  21.318   1.828
49955W        W23023  24.065  10.213  10.892
49956W        W23024  30.647  12.760   2.770
49957W        W23025  11.207  32.414   0.769
49958W        W23026  16.740  44.336  11.884
49959W        W23027  39.897   2.714   1.173
49960W        W23028  37.818  17.932  11.060
49961W        W23029  11.919  29.496   4.612
49962W        W23030  33.663  34.462   1.947
49963W        W23031   4.753  14.347  11.115
49964W        W23032   1.179  19.281  14.791
49965W        W23033  11.798  16.304  13.632
49966W        W23034   0.773   3.392   1.648
49967W        W23035  43.809  14.825  12.328
49968W        W23036   3.385   8.407  10.715
49969W        W23037  37.118  11.900  11.141
49970W        W23038  20.219  27.874   0.139
49971W        W23039   6.217  30.393   2.697
49972W        W23040  25.131   2.935   0.530
49973W        W23041  35.673   9.766   0.772
49974W        W23042  18.572  12.723   3.614
49975W        W23043  20.545  37.512  13.526
49976W        W23044  11.874  31.637   3.809
49977W        W23045  44.033  37.468   3.233
49978W        W23046   1.495  20.586  10.792
49979W        W23047  40.279  42.070   1.952
49980W        W23048  21.821  27.425  14.417
49981W        W23049   4.662   9.099   2.758
49982W        W23050   1.038   2.759   3.742
49983W        W23051  30.385  23.770  14.305
49984W        W23052  40.384  43.449   2.029
49985W        W23053   3.519  12.718  14.521
49986W        W23054  23.565  17.613   1.726
49987W        W23055  16.565  38.840   0.445
49988W        W23056  31.610  10.869  12.010
49989W        W23057  33.331  23.991  13.010
49990W        W23058  20.330   1.574  13.411
49991W        W23059  40.517  26.508   2.906
49992W        W23060  23.342  38.765   4.958
49993W        W23061  34.168   6.771  11.519
49994W        W23062  22.215  40.024  14.922
49995W        W23063  36.633  15.484   3.123
49996W        W23064  37.950   8.337   0.877
49997W        W23065  14.023   1.790   0.558
49998W        W23066  37.588  10.694  13.413
49999W        W23067  30.621  30.498  12.573
50000W        W23068  11.116  26.696  13.948
50001W        W23069  30.757   7.430  14.592
50002W        W23070   7.423  23.736  12.004
50003W        W23071  15.547   3.635   2.860
50004W        W23072  25.203  29.855  13.413
50005W        W23073   0.837  29.975  12.155
50006W        W23074  25.954  33.152   4.379
50007W        W23075  32.228   5.955   2.850
50008W        W23076  15.128  21.134   1.158
50009W        W23077  12.610  29.565  11.509
50010W        W23078  19.457  11.753   3.314
50011W        W23079  15.901  19.750  12.134
50012W        W23080  16.045   0.207   2.725
50013W        W23081   1.484  30.194  12.875
50014W        W23082  25.424  24.468   0.946
50015W        W23083   5.200   5.177   0.395
50016W        W23084  14.648   1.251  13.489
50017W        W23085  10.143  22.844  10.772
50018W        W23086   7.891  33.392   3.524
50019W        W23087   5.697  44.826  11.623
50020W        W23088  25.486  32.960  13.885
50021W        W23089   0.302  43.738  11.560
50022W        W23090   2.229   0.241  12.339
50023W        W23091  24.004  41.619  14.966
50024W        W23092  32.956  26.992   3.624
50025W        W23093  35.863  44.432   2.541
50026W        W23094  44.958  15.839   0.237
50027W        W23095  21.735   4.155   3.289
50028W        W23096  31.124  19.848  14.976
50029W        W23097   7.698  39.929   9.909
50030W        W23098   4.674  39.034  13.521
50031W        W23099  38.619  23.963   2.488
50032W        W23100  27.426  39.572   0.471
50033W        W23101  26.531  26.523   1.081
50034W        W23102  22.586  27.756   1.291
50035W        W23103   8.745  13.191  14.260
50036W        W23104  29.659  29.513   3.528
50037W        W23105  34.659  38.741   2.525
50038W        W23106  33.759  19.363  12.446
50039W        W23107  32.419   4.467   1.794
50040W        W23108  15.620  21.243   1.857
50041W        W23109  10.659  25.810  13.009
50042W        W23110  39.959  19.272   2.305
50043W        W23111  42.788  11.290   0.897
50044W        W23112  39.497  38.841  14.776
50045W        W23113   6.769  44.898   1.600
50046W        W23114   1.328  34.018  10.561
50047W        W23115  41.409  31.986   1.670
50048W        W23116  20.228  20.671  12.435
50049W        W23117  18.214  10.718  14.796
50050W        W23118   9.634   5.862   3.192
50051W        W23119  17.591   0.330   0.751
50052W        W23120  43.886  10.841   1.395
50053W        W23121  34.065  24.705  13.874
50054W        W23122   0.664  23.513  10.329
50055W        W23123  28.489  34.014   1.790
50056W        W23124  17.649   3.944   2.313
50057W        W23125  24.788  14.568  11.523
50058W        W23126  33.092  22.851   0.447
50059W        W23127   5.510  13.745  12.105
50060W        W23128  43.004  36.211  11.628
50061W        W23129   6.696  28.267   1.748
50062W        W23130  30.873  38.985   1.719
50063W        W23131  31.983  44.186   3.177
50064W        W23132  14.109   9.285  10.600
50065W        W23133  14.157   9.550   1.208
50066W        W23134  14.552  34.440   0.243
50067W        W23135   3.770  31.040   3.072
50068W        W23136  32.387  12.797  12.472
50069W        W23137  17.302   7.729  10.671
50070W        W23138   7.426  18.763  13.803
50071W        W23139  41.454  19.423  11.676
50072W        W23140  12.587  17.188  12.174
50073W        W23141  12.136  24.606  10.809
50074W        W23142   7.465   9.695   0.857
50075W        W23143   9.471  43.294  11.817
50076W        W23144  34.539  28.466   1.240
50077W        W23145  12.434  23.048   0.389
50078W        W23146  14.418  36.858   3.379
50079W        W23147  39.671  20.294   2.238
50080W        W23148  26.341  38.577  12.133
50081W        W23149  38.358  14.735  10.704
50082W        W23150  30.363  29.098  14.282
50083W        W23151  44.526  34.874  12.063
50084W        W23152  42.747   1.398   1.638
50085W        W23153   5.335  11.342   1.145
50086W        W23154  36.065  25.578  14.750
50087W        W23155   5.896  40.368   2.264
50088W        W23156   2.819   0.569   1.793
50089W        W23157  44.468  33.583   1.528
50090W        W23158  42.248  42.031   0.901
50091W        W23159  17.702  24.689  12.914
50092W        W23160  28.298  17.422   5.441
50093W        W23161  43.326  36.868   1.960
50094W        W23162  27.598  36.618   1.329
50095W        W23163  18.288  38.422   3.800
50096W        W23164   3.275  12.604   3.794
50097W        W23165  21.253  29.827   2.793
50098W        W23166  36.823  32.220   3.233
50099W        W23167  18.731  15.862   4.152
50100W        W23168   7.709  26.705   2.248
50101W        W23169  33.476  12.759   1.502
50102W        W23170  39.888   5.508  12.832
50103W        W23171  29.403   6.346  11.948
50104W        W23172  37.646   7.941   4.167
50105W        W23173   2.681  20.095   3.387
50106W        W23174   0.518   9.844  14.533
50107W        W23175   3.428  41.513  11.504
50108W        W23176  23.212   6.893  14.996
50109W        W23177  32.060  36.468  12.552
50110W        W23178   6.229  42.399   0.361
50111W        W23179  41.737  19.503  12.103
50112W        W23180  25.977  19.526   0.349
50113W        W23181  23.188  26.062   3.359
50114W        W23182  41.801  16.849   4.552
50115W        W23183  36.547  42.044  11.257
50116W        W23184  44.249  15.676  14.737
50117W        W23185  13.791  19.551   0.579
50118W        W23186   5.181   5.973   0.824
50119W        W23187  41.662  34.889   5.018
50120W        W23188  10.820   1.931   4.706
50121W        W23189  17.813  19.346  14.864
50122W        W23190   4.921  18.429  10.831
50123W        W23191  12.075  15.743   2.872
50124W        W23192  13.238  27.027  14.056
50125W        W23193  36.167  33.437  11.121
50126W        W23194  28.268  14.298   0.054
50127W        W23195  34.097  28.963  11.893
50128W        W23196  16.796  30.115   2.347
50129W        W23197  25.770  31.619   2.419
50130W        W23198  34.378  33.973  11.909
50131W        W23199  16.355  16.707   4.566
50132W        W23200  13.765  32.071   2.454
50133W        W23201  23.989  40.346  10.698
50134W        W23202  16.011  35.821   2.295
50135W        W23203  26.254   9.627  11.169
50136W        W23204  14.071  40.786  11.951
50137W        W23205  17.019  44.371   0.336
50138W        W23206   8.964  11.617  11.903
50139W        W23207  14.829  11.285  11.007
50140W        W23208   2.344  23.690   2.476
50141W        W23209  30.162  19.541   4.374
50142W        W23210  16.251  37.817   1.115
50143W        W23211   6.596  41.311   2.623
50144W        W23212  42.478  16.596   3.504
50145W        W23213  19.207  12.076  13.007
50146W        W23214  12.296   9.375   1.408
50147W        W23215  20.172  29.985   0.714
50148W        W23216  12.890  20.658  14.044
50149W        W23217  24.704  38.384   0.019
50150W        W23218  36.169  14.693  13.951
50151W        W23219  25.714  41.052   0.007
50152W        W23220   0.780   1.942   2.277
50153W        W23221   0.835  42.776  13.089
50154W        W23222  39.473  34.946   2.620
50155W        W23223  38.531   5.084   2.386
50156W        W23224  36.475  24.896  12.963
50157W        W23225  29.362  18.775   1.428
50158W        W23226   8.306  37.343  13.037
50159W        W23227  36.055   8.240  10.698
50160W        W23228  28.439  11.836  14.508
50161W        W23229  44.340  40.429  11.626
50162W        W23230   5.186  21.244  12.843
50163W        W23231  37.864  37.142  13.391
50164W        W23232  35.698  31.979  10.680
50165W        W23233   9.918   1.016  12.487
50166W        W23234  36.531  18.448   1.242
50167W        W23235  15.367  33.906  13.960
50168W        W23236  10.202   0.968  12.973
50169W        W23237  24.132  35.104   0.925
50170W        W23238  13.851   8.228   0.860
50171W        W23239  32.344   6.391  10.694
50172W        W23240  23.933  11.365  12.439
50173W        W23241  44.948   2.497  11.145
50174W        W23242  29.145  32.116   1.647
50175W        W23243  15.515  35.114   0.234
50176W        W23244  35.002   0.016   0.759
50177W        W23245  43.058   6.692   0.358
50178W        W23246  26.182   7.949   3.209
50179W        W23247   1.877  23.554   1.434
50180W        W23248   3.571  36.569   1.841
50181W        W23249   3.357  13.124   4.668
50182W        W23250  32.525  24.038  12.642
50183W        W23251   4.506   2.136  11.192
50184W        W23252   9.755  18.726  14.370
50185W        W23253  41.442   2.735   2.931
50186W        W23254  40.977  20.741  12.000
50187W        W23255  33.753  13.220   3.705
50188W        W23256  34.347  24.099  14.949
50189W        W23257  43.469  34.514   4.017
50190W        W23258  12.175  13.286   0.351
50191W        W23259  22.649   8.080   4.940
50192W        W23260  15.707  27.914  13.906
50193W        W23261  38.612  29.459   3.794
50194W        W23262  24.616  32.480   4.590
50195W        W23263   5.426  43.328  13.805
50196W        W23264  18.733  20.152   2.684
50197W        W23265  30.035  17.365   0.884
50198W        W23266  24.470  39.562  10.658
50199W        W23267  13.589  43.241   0.830
50200W        W23268   4.939   9.651  12.926
50201W        W23269  44.452  21.665   1.364
50202W        W23270   4.375  28.583   2.616
50203W        W23271  20.049  16.999   2.709
50204W        W23272  18.700   5.783   2.772
50205W        W23273   9.771  32.561   1.409
50206W        W23274  26.146  38.917   3.557
50207W        W23275  23.279  22.679   2.836
50208W        W23276  18.458   2.725  10.720
50209W        W23277  27.264  36.821   1.950
50210W        W23278  43.820   5.705  10.590
50211W        W23279   4.901   3.523  13.463
50212W        W23280  13.554   9.325   0.511
50213W        W23281   0.822   8.938  10.219
50214W        W23282  23.672   0.548  11.894
50215W        W23283  13.568  21.291   3.650
50216W        W23284  20.987  17.241   1.435
50217W        W23285  15.900  14.151   4.586
50218W        W23286  12.386  20.000   4.562
50219W        W23287  21.546  20.592   4.787
50220W        W23288  43.911  41.562  12.983
50221W        W23289  34.556   3.278   2.357
50222W        W23290  39.296  44.005   1.388
50223W        W23291   7.227   7.772  13.026
50224W        W23292  23.142  23.699   4.817
50225W        W23293  44.955  32.431   3.825
50226W        W23294  38.807   0.805   4.473
50227W        W23295  33.025  40.327  10.916
50228W        W23296  12.287  13.617   1.882
50229W        W23297  41.435  28.885  14.800
50230W        W23298   4.372  33.186  11.413
50231W        W23299  41.378  32.385   1.989
50232W        W23300  10.917  43.089  12.920
50233W        W23301   9.190  32.733   1.512
50234W        W23302   4.486   1.235   2.100
50235W        W23303  20.798  38.638   1.707
50236W        W23304  12.151  40.408   1.470
50237W        W23305   9.115  27.667  11.232
50238W        W23306   7.385  36.052  11.571
50239W        W23307  24.150   0.887  14.497
50240W        W23308  14.985   6.763  13.881
50241W        W23309  31.906  44.837   4.113
50242W        W23310  40.593  32.057  11.040
50243W        W23311  25.989  18.146  12.142
50244W        W23312  38.437  32.553  10.845
50245W        W23313  20.259  21.529   1.651
50246W        W23314  10.628   3.957   2.266
50247W        W23315  44.233  25.194   2.269
50248W        W23316  21.944  13.694   1.739
50249W        W23317  11.446  37.542   4.539
50250W        W23318  24.163  20.252  11.118
50251W        W23319  43.848  23.639   3.126
50252W        W23320  19.120  28.027   3.931
50253W        W23321  15.635  33.702   4.059
50254W        W23322  44.891  43.360  14.860
50255W        W23323  25.777  14.839   0.607
50256W        W23324  12.641   4.033   1.741
50257W        W23325  33.548  42.537   4.119
50258W        W23326   3.329  25.445   4.734
50259W        W23327  15.579  13.364   3.298
50260W        W23328  34.021   3.432   3.743
50261W        W23329   8.578   9.827   4.297
50262W        W23330   1.785  26.094   1.516
50263W        W23331   7.743  11.404  10.759
50264W        W23332   6.757  16.030   4.133
50265W        W23333  32.571  25.450  12.009
50266W        W23334  37.018  26.383  12.592
50267W        W23335  20.025  15.875   4.433
50268W        W23336  18.717  41.780  10.495
50269W        W23337   8.238   8.208  10.732
50270W        W23338  16.078   7.002  12.500
50271W        W23339  44.991  24.372   4.206
50272W        W23340  29.060  10.846  13.751
50273W        W23341  22.127   0.012  13.906
50274W        W23342  41.859  43.721   4.166
50275W        W23343  16.216  17.768   1.312
50276W        W23344  34.333  39.072   1.052
50277W        W23345  18.035  37.876   1.368
50278W        W23346   2.366   3.484  13.765
50279W        W23347  23.923   8.875   1.734
50280W        W23348  27.153   3.082   3.026
50281W        W23349   0.702   5.251   1.883
50282W        W23350  33.789   5.878  13.416
50283W        W23351  30.957  18.658   4.506
50284W        W23352  16.158   5.663  12.106
50285W        W23353   7.238  33.616   3.135
50286W        W23354  42.346   1.178  11.562
50287W        W23355  12.328  39.634  13.056
50288W        W23356  44.944  37.662   3.327
50289W        W23357  30.203  10.898   3.663
50290W        W23358  18.274  31.017   4.591
50291W        W23359   6.781  27.650  11.128
50292W        W23360  10.952  22.199   0.867
50293W        W23361  17.998   0.461  10.535
50294W        W23362  14.256  33.161  13.725
50295W        W23363   1.753   5.629   4.026
50296W        W23364  43.395  19.729   2.272
50297W        W23365  36.765  30.889  11.604
50298W        W23366  20.051   5.496  14.721
50299W        W23367  42.192  20.922   2.801
50300W        W23368  21.847  19.719   5.127
50301W        W23369  30.655  29.886   1.433
50302W        W23370  14.031  25.864  12.093
50303W        W23371  17.521  10.655   1.749
50304W        W23372   8.352  28.995   1.314
50305W        W23373  31.570   9.910  13.386
50306W        W23374  44.409  12.900   0.775
50307W        W23375  17.110  26.321  11.911
50308W        W23376   3.713  27.443   2.567
50309W        W23377  42.054  14.153   2.809
50310W        W23378  12.388  31.073   0.892
50311W        W23379  36.676  27.505  11.641
50312W        W23380  14.715  37.525   0.236
50313W        W23381  14.811  32.125   4.522
50314W        W23382  15.281  31.713  13.001
50315W        W23383   0.802  36.396   1.639
50316W        W23384  43.340  40.830  13.370
50317W        W23385   0.686   7.858  14.842
50318W        W23386  35.539  32.495  10.378
50319W        W23387  16.292  10.763   3.116
50320W        W23388  12.727  12.838  11.693
50321W        W23389  18.867  23.762  12.829
50322W        W23390  11.590   7.185  12.026
50323W        W23391  25.391   5.223   2.269
50324W        W23392  18.885  29.058  12.421
50325W        W23393  20.084   0.354  14.114
50326W        W23394  44.501  44.538   4.178
50327W        W23395  42.271  24.173  12.386
50328W        W23396  34.617  28.272   3.040
50329W        W23397  20.544  32.216  13.550
50330W        W23398   6.725  12.243  13.503
50331W        W23399  21.660  44.280   4.654
50332W        W23400  11.206   3.224   3.277
50333W        W23401   2.885   4.417   0.944
50334W        W23402  24.768   0.450  13.964
50335W        W23403  35.328   8.879   1.153
50336W        W23404  14.740  43.442   2.765
50337W        W23405   7.919  12.158  12.135
50338W        W23406  11.206  44.872   1.296
50339W        W23407  21.132  12.773   3.761
50340W        W23408   4.924  33.848  13.505
50341W        W23409  15.144  22.458  12.161
50342W        W23410  20.709  32.590  12.013
50343W        W23411  11.754  14.193  11.448
50344W        W23412  42.003  17.828  14.269
50345W        W23413  24.035   2.348   4.698
50346W        W23414  41.037  42.488  12.006
50347W        W23415  32.732  25.312  14.783
50348W        W23416  24.085  23.295   4.832
50349W        W23417  24.195  25.671   3.666
50350W        W23418  16.193  23.785   4.144
50351W        W23419  37.370  23.125   4.477
50352W        W23420  27.471   7.253   3.625
50353W        W23421  34.311  43.951   1.820
50354W        W23422   7.276   4.759  13.012
50355W        W23423  30.645  36.344   4.438
50356W        W23424  25.403  10.922   3.344
50357W        W23425  38.045   4.482  14.040
50358W        W23426  18.123  10.651  11.866
50359W        W23427  43.277  25.167   4.574
50360W        W23428  44.761   6.195   0.850
50361W        W23429  23.132   9.471  14.493
50362W        W23430   3.852  10.295   2.812
50363W        W23431   9.468   2.808   1.862
50364W        W23432  43.538  19.294  10.739
50365W        W23433   5.176  42.505   3.796
50366W        W23434  24.426   8.764   1.707
50367W        W23435  22.968  37.877   3.738
50368W        W23436  32.046  11.721  11.363
50369W        W23437   2.798  42.917   3.140
50370W        W23438  26.110  35.315  12.010
50371W        W23439  13.734   5.356  10.572
50372W        W23440   7.110  37.402  14.364
50373W        W23441  32.145   6.338   1.266
50374W        W23442  22.226   4.752  12.066
50375W        W23443   5.759  28.082   2.787
50376W        W23444  18.298  41.628  14.564
50377W        W23445   2.362   0.802   2.636
50378W        W23446  40.279  42.548  14.912
50379W        W23447  31.561  37.374  11.501
50380W        W23448  32.098  39.228   2.977
50381W        W23449  30.044   0.483   4.181
50382W        W23450  26.045  22.694   1.326
50383W        W23451  23.344  31.987   2.960
50384W        W23452  36.887   8.217   3.889
50385W        W23453  39.032  36.648   2.746
50386W        W23454   6.367  35.259   4.138
50387W        W23455  40.978  41.197   4.221
50388W        W23456  13.814  41.001  13.877
50389W        W23457  42.473  42.007   1.900
50390W        W23458  36.402  42.019  13.945
50391W        W23459  14.984  35.125  14.366
50392W        W23460  18.380  27.783  13.048
50393W        W23461  39.090   8.218   1.160
50394W        W23462  33.228  13.217  11.238
50395W        W23463  42.006  16.462   3.621
50396W        W23464  26.010   9.824   2.834
50397W        W23465  27.018  14.855  11.580
50398W        W23466  32.562   6.316   0.497
50399W        W23467  41.804  41.422   0.768
50400W        W23468  14.827  14.544  10.598
50401W        W23469   0.649  34.079   0.460
50402W        W23470  33.843  21.170   0.531
50403W        W23471  29.768  27.219  14.891
50404W        W23472  34.017  19.800   4.072
50405W        W23473   6.325  17.033   3.665
50406W        W23474  14.707  44.789  13.032
50407W        W23475  24.963  37.528   4.598
50408W        W23476  38.365   8.747  14.290
50409W        W23477  17.075  29.627  10.822
50410W        W23478  16.039  33.645  12.059
50411W        W23479  12.577  11.187  13.215
50412W        W23480  20.002  39.332  10.692
50413W        W23481  43.547  21.219   3.281
50414W        W23482  32.412  14.759   1.450
50415W        W23483  35.397  10.895   0.063
50416W        W23484  38.065   3.837  14.862
50417W        W23485   5.825  33.118  12.889
50418W        W23486  19.602   0.563   5.425
50419W        W23487  27.575  36.867  13.036
50420W        W23488   9.865  32.308   3.238
50421W        W23489  41.977   5.320  14.408
50422W        W23490   4.698  25.167  14.378
50423W        W23491  22.586  21.476   4.222
50424W        W23492  43.842   6.146   4.269
50425W        W23493  35.023   1.825   4.120
50426W        W23494   8.888  21.863  10.406
50427W        W23495  15.313  10.678  13.552
50428W        W23496  24.745  41.065  13.929
50429W        W23497  11.821  24.278  14.877
50430W        W23498  41.562  43.343   0.789
50431W        W23499  33.189  13.299  12.533
50432W        W23500  15.238  21.218   3.161
50433W        W23501  34.620  34.420   2.913
50434W        W23502  24.255  26.560  14.562
50435W        W23503  13.696  42.357   4.452
50436W        W23504  24.724  37.529  11.317
50437W        W23505   3.449   6.307  13.312
50438W        W23506  27.935   5.780   1.046
50439W        W23507  20.644  24.782   4.287
50440W        W23508  10.262   5.836   0.481
50441W        W23509  10.253  35.323   5.265
50442W        W23510  19.589   5.881  13.548
50443W        W23511  16.967  16.504   3.747
50444W        W23512  28.759  11.602   2.448
50445W        W23513  35.504  23.666   1.854
50446W        W23514  22.481  34.918  12.489
50447W        W23515  36.026  16.618  11.620
50448W        W23516  34.567  42.912  10.728
50449W        W23517  35.832   9.443   0.015
50450W        W23518  38.171  26.362   0.857
50451W        W23519  28.329  29.087   4.559
50452W        W23520  39.372  16.767  14.850
50453W        W23521  11.654  29.248   4.198
50454W        W23522  21.191  42.377   3.648
50455W        W23523  29.550  15.348   2.654
50456W        W23524   7.993   1.483  11.959
50457W        W23525  23.044  36.922  13.293
50458W        W23526  28.582  30.563  14.093
50459W        W23527  31.611  44.044  13.325
50460W        W23528  40.924  41.317  10.585
50461W        W23529  22.495   5.224  12.016
50462W        W23530  25.931  16.252  12.030
50463W        W23531  44.537  33.503  11.757
50464W        W23532   9.837  20.491   1.147
50465W        W23533  24.697   3.793   4.646
50466W        W23534  16.111  25.018   3.652
50467W        W23535  19.359  16.656  13.569
50468W        W23536  13.372  31.062  11.599
50469W        W23537   9.456  14.153  13.014
50470W        W23538  31.313  23.000   2.297
50471W        W23539  44.880  44.669  14.141
50472W        W23540  35.463  25.569   0.497
50473W        W23541   0.405  11.912  11.909
50474W        W23542  17.710  20.359  14.806
50475W        W23543  43.207   3.867   2.425
50476W        W23544   1.959  36.995   1.007
50477W        W23545   6.224  24.907   2.579
50478W        W23546  25.869  12.313   4.692
50479W        W23547  28.061  18.651  12.542
50480W        W23548   6.840  15.040   3.295
50481W        W23549  43.309   9.131  12.057
50482W        W23550  20.494  19.783  13.475
50483W        W23551  22.949  23.158  13.150
50484W        W23552  18.213  25.985  14.787
50485W        W23553  14.079  38.982  11.646
50486W        W23554  15.808  12.146  14.841
50487W        W23555  10.864  30.604   2.970
50488W        W23556  20.185   9.942   0.520
50489W        W23557  40.012  24.505   3.159
50490W        W23558  38.422  17.722  14.798
50491W        W23559  25.378  17.050   0.407
50492W        W23560   1.954  14.094  12.449
50493W        W23561  27.990  30.132   2.416
50494W        W23562  39.520  16.673  13.940
50495W        W23563  28.934   3.954   4.618
50496W        W23564  25.150   6.454   3.694
50497W        W23565  21.037  33.049  14.389
50498W        W23566  28.112   9.764   0.264
50499W        W23567  39.319  28.053  10.570
50500W        W23568  13.744  21.018   4.559
50501W        W23569  43.688  21.072   1.441
50502W        W23570  39.897  31.640   1.912
50503W        W23571  12.784   1.907   3.578
50504W        W23572  38.662  38.831   3.372
50505W        W23573  28.716  29.554   3.937
50506W        W23574  11.102   1.937   2.774
50507W        W23575   1.728  14.637   1.342
50508W        W23576  23.024  22.741  13.457
50509W        W23577  39.099  16.243   4.542
50510W        W23578  20.669  35.998   2.490
50511W        W23579  31.032  18.782  13.586
50512W        W23580   4.842   4.348   2.778
50513W        W23581  21.156  22.260   2.389
50514W        W23582   7.432  19.829  10.960
50515W        W23583  18.388  34.646   0.719
50516W        W23584   3.907  27.449  13.026
50517W        W23585  21.734   1.973  11.118
50518W        W23586  12.281  10.241   3.315
50519W        W23587  28.475  28.790   3.682
50520W        W23588   4.382  32.845   2.289
50521W        W23589  28.715  16.026  10.552
50522W        W23590  27.471  36.417  10.743
50523W        W23591  19.264  41.792  12.237
50524W        W23592  24.198  37.357  10.997
50525W        W23593  33.839  41.509  14.296
50526W        W23594  18.459   5.244  13.356
50527W        W23595   0.468  12.865   0.431
50528W        W23596  30.479  15.801   2.473
50529W        W23597  25.616  38.364  14.474
50530W        W23598  25.891   1.426   4.637
50531W        W23599  42.550  27.977   2.227
50532W        W23600  32.644   3.721   0.048
50533W        W23601  36.096   7.316  10.683
50534W        W23602  38.235  36.375   4.486
50535W        W23603  25.394  31.940  13.422
50536W        W23604  40.426   0.500   1.774
50537W        W23605   0.569  29.596  12.469
50538W        W23606  34.120  24.054   2.456
50539W        W23607  41.231   8.230  14.550
50540W        W23608  40.334  43.419   2.541
50541W        W23609  23.572  18.759  14.285
50542W        W23610  29.909  17.331  12.998
50543W        W23611   0.116  33.646  13.915
50544W        W23612  39.039   2.517   3.725
50545W        W23613   4.811  40.436  10.720
50546W        W23614  32.858   8.240  13.482
50547W        W23615  18.491  30.994   1.683
50548W        W23616  33.832   8.776  10.698
50549W        W23617  23.221   0.448   1.411
50550W        W23618   9.750  12.147  14.403
50551W        W23619  23.223   6.941  14.049
50552W        W23620  23.194  28.083   0.967
50553W        W23621  42.272  33.556   4.030
50554W        W23622   1.239  40.677  14.503
50555W        W23623  32.306   8.305  14.262
50556W        W23624  44.732  35.869   3.679
50557W        W23625  40.581  24.055   4.156
50558W        W23626  23.165  25.973  12.596
50559W        W23627  29.252  36.016   4.005
50560W        W23628  35.065  34.040   3.684
50561W        W23629  31.522   8.813   4.634
50562W        W23630  11.549  36.204  11.037
50563W        W23631  36.929  25.251   1.765
50564W        W23632  44.451  15.127  13.010
50565W        W23633  43.417  34.279   3.563
50566W        W23634   4.994  19.219  11.958
50567W        W23635  39.412  21.759  13.837
50568W        W23636  37.507  12.086  12.369
50569W        W23637  15.799  30.799  14.382
50570W        W23638  36.320  32.933   3.103
50571W        W23639   6.394  25.190   1.713
50572W        W23640  39.897   4.391   3.173
50573W        W23641  36.062  10.407  14.415
50574W        W23642  21.592   1.691   3.148
50575W        W23643  27.292  34.520  13.102
50576W        W23644  35.462   6.173   1.825
50577W        W23645  16.747   6.145   3.886
50578W        W23646  24.014  11.917   3.689
50579W        W23647  32.185  15.242   0.845
50580W        W23648  36.608   3.461  14.343
50581W        W23649  33.483  41.515  14.675
50582W        W23650  25.953  40.176  13.609
50583W        W23651  18.243  24.217   2.686
50584W        W23652  13.257   1.953   4.477
50585W        W23653  32.465  20.726   1.991
50586W        W23654  37.128   5.739  11.653
50587W        W23655  24.978   0.421   2.736
50588W        W23656  38.336  26.344  14.380
50589W        W23657  13.186   1.830  13.499
50590W        W23658  33.192  18.940  13.878
50591W        W23659   3.286  14.631  14.400
50592W        W23660  18.632  29.966  14.347
50593W        W23661  42.038  14.288  13.460
50594W        W23662  31.939   5.767   0.472
50595W        W23663  32.020  14.626   2.632
50596W        W23664  21.521  25.162   4.270
50597W        W23665  15.589   1.839  13.613
50598W        W23666   1.862  42.358  10.742
50599W        W23667  20.047  35.054   1.483
50600W        W23668  42.848  37.984  10.688
50601W        W23669  37.136  29.026  12.989
50602W        W23670  35.423  42.963  13.589
50603W        W23671  14.278  43.807  11.041
50604W        W23672   2.494  44.042   2.300
50605W        W23673   1.956  38.953   3.544
50606W        W23674  18.112   1.916   0.300
50607W        W23675   2.033  15.628  14.198
50608W        W23676  19.481  40.250  13.977
50609W        W23677  19.142   8.150  13.000
50610W        W23678  29.430  24.646  14.166
50611W        W23679   4.434  39.901   1.799
50612W        W23680  37.766  40.077  12.480
50613W        W23681  43.910  32.475   1.396
50614W        W23682   7.035  33.384   2.685
50615W        W23683   7.838  19.590  10.705
50616W        W23684  35.337  26.995  13.684
50617W        W23685  12.661  29.122  13.361
50618W        W23686  24.040  26.581   3.389
50619W        W23687  16.259  11.745   4.164
50620W        W23688  27.678  11.603   1.308
50621W        W23689  29.623  13.601  14.938
50622W        W23690  20.811   6.754   1.355
50623W        W23691   7.177  32.101   3.815
50624W        W23692   6.736  36.585  11.243
50625W        W23693  34.598  39.054  12.027
50626W        W23694  24.467  16.015   0.286
50627W        W23695  21.731   4.754   2.188
50628W        W23696  19.810  22.256  13.469
50629W        W23697  42.522  33.130   4.209
50630W        W23698  20.704   8.253  12.001
50631W        W23699  17.113  38.837   3.196
50632W        W23700  13.510   2.138  10.854
50633W        W23701   9.155  18.559  14.554
50634W        W23702  40.470  31.625   3.681
50635W        W23703  36.437   6.707   1.019
50636W        W23704  14.585  44.473  10.826
50637W        W23705  19.381  32.656   3.193
50638W        W23706  29.999  16.105   4.118
50639W        W23707  40.887  40.473   1.245
50640W        W23708  11.316  21.085   0.305
50641W        W23709  36.606  27.003   1.330
50642W        W23710   5.326  15.847  13.377
50643W        W23711  23.008  19.064  14.029
50644W        W23712   8.716  30.180   3.693
50645W        W23713  41.348  28.095  11.075
50646W        W23714   6.090  20.961   3.614
50647W        W23715  22.804   7.355  13.163
50648W        W23716  25.349   4.796  12.491
50649W        W23717  24.547  30.161   3.171
50650W        W23718  14.637  10.211  12.070
50651W        W23719  19.926  35.142  13.434
50652W        W23720  34.571   1.723  12.570
50653W        W23721  26.770  42.576   0.004
50654W        W23722  35.100   7.110   2.217
50655W        W23723  11.934  39.920   2.719
50656W        W23724   0.730  11.263  12.755
50657W        W23725  11.663  24.064   1.708
50658W        W23726  41.790  11.604   4.359
50659W        W23727   2.983  32.793   4.919
50660W        W23728  11.237  22.007  10.734
50661W        W23729  37.039   6.455  12.381
50662W        W23730  10.739  19.634   3.423
50663W        W23731  14.150   7.781   4.711
50664W        W23732  37.310  17.039   4.940
50665W        W23733  41.180  15.642  11.816
50666W        W23734  35.245  34.253   4.558
50667W        W23735  41.418  41.165   3.895
50668W        W23736  26.786  21.592   4.658
50669W        W23737  11.861  34.946   0.895
50670W        W23738   3.410  15.744  10.939
50671W        W23739  23.296  34.573   0.928
50672W        W23740  23.797  13.900  12.987
50673W        W23741  10.443  21.036   1.330
50674W        W23742  18.014  18.676  10.419
50675W        W23743  11.839  44.863   3.225
50676W        W23744  17.934  40.352  14.932
50677W        W23745  36.416  34.389  13.100
50678W        W23746  42.907   6.382   2.190
50679W        W23747  11.236  12.137   1.258
50680W        W23748  25.212  25.318  11.832
50681W        W23749  18.082   1.171  12.810
50682W        W23750  14.132  30.180   4.591
50683W        W23751  33.436   8.694   3.211
50684W        W23752  24.602  15.767  11.213
50685W        W23753  10.157  38.255   2.389
50686W        W23754   2.381  26.860   0.993
50687W        W23755  40.398  19.549  12.029
50688W        W23756   6.648   5.017  13.525
50689W        W23757  29.426  18.619  13.753
50690W        W23758  10.188  42.099  12.166
50691W        W23759   6.279   1.261   0.454
50692W        W23760  19.651  11.128   0.161
50693W        W23761   6.567  25.672   4.016
50694W        W23762  28.031  20.912  13.234
50695W        W23763  22.749  30.665   1.900
50696W        W23764  33.940   9.157  11.112
50697W        W23765  40.747  32.576   4.235
50698W        W23766  15.257  31.574  10.662
50699W        W23767  21.633   3.809  12.534
50700W        W23768  27.700   3.249  10.238
50701W        W23769  29.185   6.801  14.409
50702W        W23770  19.248  13.976  11.092
50703W        W23771   2.805   7.694  10.749
50704W        W23772  20.689  20.761  13.246
50705W        W23773  20.435   4.033  14.869
50706W        W23774  26.412  27.025   3.307
50707W        W23775  30.212   4.479  12.964
50708W        W23776  10.440  15.923  14.941
50709W        W23777  40.749  16.751   0.931
50710W        W23778  12.625  38.352  11.625
50711W        W23779   6.350   7.931  13.182
50712W        W23780  26.466   9.804  14.543
50713W        W23781  25.908  16.763   3.124
50714W        W23782  25.314  43.813   2.452
50715W        W23783  11.675  41.846   0.768
50716W        W23784  29.990  36.460   4.202
50717W        W23785   2.269  43.900   3.641
50718W        W23786   0.310  30.429  12.433
50719W        W23787  26.533  17.404   3.101
50720W        W23788  38.369   0.489  12.340
50721W        W23789  10.229  24.404  14.532
50722W        W23790  11.499  18.899   5.153
50723W        W23791  20.657   3.221  14.426
50724W        W23792   3.253  42.853  10.907
50725W        W23793  39.287  25.016   4.220
50726W        W23794  16.127   4.792   1.236
50727W        W23795  19.560  44.569  12.135
50728W        W23796  38.468   0.153   5.031
50729W        W23797  28.429  22.645  11.628
50730W        W23798  30.985  27.702  11.092
50731W        W23799  36.408   6.792  13.997
50732W        W23800  29.990  28.239   2.023
50733W        W23801   9.820  43.911   2.124
50734W        W23802   0.297  26.625  11.027
50735W        W23803  12.077  35.945  12.507
50736W        W23804  26.208   5.018  12.482
50737W        W23805   0.586  17.753   4.821
50738W        W23806  30.066  40.773   3.323
50739W        W23807  19.550   7.659   0.833
50740W        W23808  41.547  13.748   2.404
50741W        W23809   1.430  42.503  11.969
50742W        W23810   4.927   6.388  11.079
50743W        W23811   3.989  19.458  12.589
50744W        W23812  23.746   2.658   1.293
50745W        W23813   9.640  42.645   1.836
50746W        W23814  34.581  24.485  10.807
50747W        W23815  34.892  12.737  10.850
50748W        W23816  18.007  25.290  14.404
50749W        W23817  38.514  39.417   1.424
50750W        W23818  24.053  23.613   0.733
50751W        W23819  17.764  31.912  12.730
50752W        W23820   9.101  21.104  12.599
50753W        W23821  24.316  37.910  13.535
50754W        W23822  22.083  20.142  11.370
50755W        W23823  42.187  36.927   0.320
50756W        W23824   3.630  17.146  11.135
50757W        W23825  28.077   9.239   0.213
50758W        W23826  39.064  36.448   1.295
50759W        W23827  16.178  24.925   1.746
50760W        W23828  37.844  37.661   4.061
50761W        W23829  21.105  27.457   2.220
50762W        W23830  36.519  16.436   4.037
50763W        W23831  22.164   7.850   1.334
50764W        W23832  16.756   3.919  14.903
50765W        W23833  44.398  32.315  13.491
50766W        W23834  43.853  26.685  11.012
50767W        W23835  27.920  42.931   4.497
50768W        W23836  34.304  20.602  13.139
50769W        W23837  14.159  36.328   0.958
50770W        W23838  23.993  11.206   3.165
50771W        W23839  16.514  17.893  11.960
50772W        W23840  20.903  24.921   1.292
50773W        W23841  40.021  11.609   1.027
50774W        W23842   1.965  29.056   0.324
50775W        W23843  37.777  34.415  12.055
50776W        W23844  34.344   8.139   4.111
50777W        W23845   1.807  20.018   4.856
50778W        W23846  20.553  29.460   0.052
50779W        W23847  30.488  21.707  14.302
50780W        W23848  35.996  38.140   1.348
50781W        W23849  42.577  29.469  13.678
50782W        W23850  42.424  24.522  13.745
50783W        W23851  33.008  39.261   2.186
50784W        W23852  44.243  43.346  12.591
50785W        W23853  26.525  10.092   4.956
50786W        W23854   0.431  31.478  13.490
50787W        W23855  11.819  30.393   1.311
50788W        W23856  38.564  44.319   2.726
50789W        W23857  40.427  26.767   3.911
50790W        W23858  40.357  34.183   3.640
50791W        W23859  25.909  11.786  12.792
50792W        W23860  44.852  30.816  11.567
50793W        W23861  15.671  42.079   2.643
50794W        W23862  21.928   5.930   4.676
50795W        W23863  12.510  14.030   0.825
50796W        W23864  19.462  28.107   1.786
50797W        W23865   3.372  24.096  13.598
50798W        W23866  32.528  26.251  11.445
50799W        W23867  15.302  32.693   3.808
50800W        W23868  23.471  42.448   2.729
50801W        W23869   4.354  21.793   2.732
50802W        W23870  39.105   6.080   4.144
50803W        W23871  30.542  20.701   0.481
50804W        W23872  39.561  32.117   2.670
50805W        W23873  26.647   4.374  14.114
50806W        W23874  34.916  40.419   3.648
50807W        W23875  40.696  37.018   3.121
50808W        W23876  36.458  35.750   2.153
50809W        W23877   1.796  23.099   3.796
50810W        W23878  26.083  39.662   3.155
50811W        W23879  41.024  17.658   3.374
50812W        W23880  42.221  18.057   4.415
50813W        W23881  22.977   8.326   0.001
50814W        W23882  44.520  15.134   4.683
50815W        W23883  33.305  40.943   0.525
50816W        W23884  19.749   2.665  14.825
50817W        W23885  35.944  34.718  12.128
50818W        W23886  35.635  38.003  14.411
50819W        W23887  44.017   7.306  11.051
50820W        W23888  30.135   4.979  12.968
50821W        W23889   4.904  35.840  11.287
50822W        W23890   7.432  10.287  11.631
50823W        W23891  10.676  12.378  13.806
50824W        W23892  43.748  30.627   2.661
50825W        W23893  11.125  29.979  11.768
50826W        W23894  41.311  40.546   3.113
50827W        W23895  12.626  37.388   3.005
50828W        W23896  31.310  14.194  14.767
50829W        W23897  24.722   0.215  12.701
50830W        W23898  39.281   8.784   3.726
50831W        W23899   3.073  10.741  11.095
50832W        W23900  43.500  27.614  11.012
50833W        W23901   5.887   3.406  14.362
50834W        W23902   0.313  23.100  12.341
50835W        W23903  25.824  29.541  13.127
50836W        W23904  16.392  15.113  11.678
50837W        W23905  40.526  37.033   2.207
50838W        W23906  19.077  14.789  10.756
50839W        W23907  44.974  11.269   1.811
50840W        W23908  22.360  37.109   4.381
50841W        W23909   4.669  15.493  11.711
50842W        W23910  32.916  21.788  12.491
50843W        W23911  25.497  30.410   1.222
50844W        W23912  17.787  16.560  11.319
50845W        W23913  41.543  22.537  14.457
50846W        W23914   0.433  15.204   2.825
50847W        W23915  18.291   1.423  12.150
50848W        W23916   3.454  25.430   3.705
50849W        W23917   8.312  34.821   2.008
50850W        W23918  41.842  32.016  14.443
50851W        W23919  13.655  17.075   2.359
50852W        W23920   9.126  22.436   4.499
50853W        W23921  34.154  24.387   2.837
50854W        W23922  37.585   8.728  12.637
50855W        W23923  43.919  42.243  14.046
50856W        W23924  11.312  18.577  11.632
50857W        W23925  31.591  41.452   4.422
50858W        W23926  15.607  10.819  13.963
50859W        W23927  24.896   7.875   1.739
50860W        W23928  34.671  27.489   1.313
50861W        W23929   3.454   9.288   4.831
50862W        W23930  37.498  32.124  11.520
50863W        W23931  15.080  34.587  11.203
50864W        W23932   2.470  32.609  14.242
50865W        W23933  44.905  16.877   1.817
50866W        W23934  15.184  30.725   1.784
50867W        W23935  35.365   4.803   3.663
50868W        W23936   2.918   9.768  13.293
50869W        W23937   6.876  25.247  13.847
50870W        W23938   8.474  26.233   0.868
50871W        W23939  21.189  20.163  13.876
50872W        W23940  15.439  36.427   0.512
50873W        W23941  13.645   8.259   2.779
50874W        W23942   8.948  22.109   0.857
50875W        W23943  29.555  10.503   0.099
50876W        W23944  19.314  25.287  11.190
50877W        W23945  44.298  32.906  14.867
50878W        W23946   0.356  39.555   3.874
50879W        W23947  34.725  14.158   2.794
50880W        W23948  38.809  27.642  12.971
50881W        W23949   4.388   3.477  10.851
50882W        W23950  29.600  19.657   2.605
50883W        W23951  22.675  22.990  12.050
50884W        W23952  38.133   8.627   4.111
50885W        W23953  35.647  31.507   3.400
50886W        W23954  17.378  41.816  14.934
50887W        W23955  20.139  23.679   1.902
50888W        W23956  39.582  28.906  10.627
50889W        W23957  36.055  13.520  11.484
50890W        W23958  33.247  20.785  14.342
50891W        W23959  21.540  21.419  12.250
50892W        W23960  15.640  24.740   2.257
50893W        W23961  10.355  17.289   1.905
50894W        W23962  12.647  34.610  10.751
50895W        W23963  36.810   5.406  10.960
50896W        W23964   0.882  19.619   5.199
50897W        W23965   5.487   8.575  13.721
50898W        W23966  43.259   1.851   2.682
50899W        W23967   1.836   1.876  13.109
50900W        W23968   5.502  12.781   0.896
50901W        W23969  35.808  38.054  13.848
50902W        W23970   5.207   9.735  11.009
50903W        W23971  23.687  20.711  12.930
50904W        W23972  27.549  27.081  13.540
50905W        W23973   1.962  15.762   2.158
50906W        W23974   0.396   8.220   0.396
50907W        W23975  33.619  18.245  13.602
50908W        W23976  14.167   8.171   2.808
50909W        W23977  21.228   7.679  10.542
50910W        W23978   2.160  20.637  12.786
50911W        W23979  17.081  11.644  11.976
50912W        W23980  22.259   0.654   1.017
50913W        W23981  43.817  34.329  13.920
50914W        W23982  30.405  26.936  11.511
50915W        W23983  11.269  21.740  14.450
50916W        W23984   6.321   6.266  13.564
50917W        W23985  28.975   4.774   3.919
50918W        W23986   4.999  22.795   0.554
50919W        W23987  14.118  37.607  11.510
50920W        W23988  35.421  33.543   1.770
50921W        W23989  29.032  43.690   3.410
50922W        W23990   7.715   7.872  14.935
50923W        W23991  18.857  28.287   4.690
50924W        W23992  36.601  43.376  10.611
50925W        W23993   2.678  44.175   4.235
50926W        W23994  14.415  25.131  10.910
50927W        W23995   3.324   6.272  11.472
50928W        W23996  42.773  33.860   2.392
50929W        W23997  30.528   4.980  11.320
50930W        W23998   3.993  22.246  14.608
50931W        W23999   6.324  27.186  13.157
50932W        W24000  15.621  20.555  14.967
50933W        W24001  35.900   5.408  12.730
50934W        W24002  39.811  25.900   4.666
50935W        W24003  38.983  37.808  13.930
50936W        W24004  37.842   3.964  11.570
50937W        W24005  38.598  23.460   4.095
50938W        W24006  43.012   3.152   1.592
50939W        W24007   2.004  35.296   2.273
50940W        W24008  30.441  35.947  13.258
50941W        W24009   4.535   6.381   3.164
50942W        W24010  12.987  43.305  10.755
50943W        W24011   0.344  18.586  11.424
50944W        W24012  27.420  30.965   4.514
50945W        W24013  17.030  38.344   3.281
50946W        W24014  36.895   9.834  14.099
50947W        W24015   6.791  13.323   0.874
50948W        W24016  19.281  17.206  11.595
50949W        W24017  40.384  10.164  12.507
50950W        W24018  15.792  30.526   2.884
50951W        W24019  21.359  19.009  11.507
50952W        W24020   2.464  39.377   1.298
50953W        W24021   3.458  28.190  13.311
50954W        W24022   7.867  38.484  10.678
50955W        W24023  38.344  27.838  14.460
50956W        W24024  44.564  37.889  12.370
50957W        W24025  35.375  29.202   3.552
50958W        W24026  15.394  32.487  14.017
50959W        W24027  12.642  16.713  14.351
50960W        W24028   4.724  19.476   2.696
50961W        W24029  40.242  15.000   4.445
50962W        W24030   1.738  22.429  10.608
50963W        W24031  11.062  13.900  13.501
50964W        W24032  39.969  19.128  13.182
50965W        W24033   9.811  17.054   0.392
50966W        W24034  36.731  17.284  10.949
50967W        W24035  30.148  41.389   0.472
50968W        W24036  40.540  41.771  13.158
50969W        W24037  29.239  34.891   4.816
50970W        W24038  22.082  14.684   4.507
50971W        W24039  17.672  30.082  12.020
50972W        W24040  16.251  12.368  14.981
50973W        W24041  14.742  28.012  12.436
50974W        W24042  13.292  20.677  11.963
50975W        W24043  31.297  21.538  12.104
50976W        W24044   9.199   0.244   3.614
50977W        W24045   3.351   4.211  12.775
50978W        W24046  25.630   2.940  12.015
50979W        W24047  41.804  39.611  12.458
50980W        W24048   2.658   6.424  10.673
50981W        W24049  17.079  39.618   4.259
50982W        W24050   8.836  29.999   2.850
50983W        W24051  13.826  42.472   1.946
50984W        W24052  10.247  19.037  12.391
50985W        W24053  27.650   9.285  14.924
50986W        W24054  13.531  24.424  11.973
50987W        W24055   5.391  29.671  10.807
50988W        W24056  19.130  24.616   0.461
50989W        W24057  43.312  19.087  11.148
50990W        W24058  28.959  26.186   2.807
50991W        W24059   3.963  31.547  14.347
50992W        W24060   7.452  43.019   1.161
50993W        W24061  18.720   5.650  13.521
50994W        W24062  17.216  11.833   0.290
50995W        W24063  44.972   5.370  10.551
50996W        W24064   8.449   2.556   0.722
50997W        W24065  39.287  40.139  12.351
50998W        W24066  38.990  38.628  14.595
50999W        W24067  19.071  33.072   3.649
51000W        W24068   0.786  42.268  14.456
51001W        W24069  28.590  10.638  14.374
51002W        W24070  33.544   2.361  10.672
51003W        W24071   3.335  25.567  14.283
51004W        W24072   2.897  36.145  13.836
51005W        W24073   7.427  20.554  14.482
51006W        W24074  32.029  24.409  13.935
51007W        W24075  37.178  30.565  11.438
51008W        W24076   5.435   5.106   3.185
51009W        W24077  20.531   0.398  10.815
51010W        W24078  42.383  11.438   2.720
51011W        W24079   5.769  17.276   1.609
51012W        W24080   4.827  35.330  11.058
51013W        W24081  20.085  33.417   1.509
51014W        W24082  10.175   8.961   1.808
51015W        W24083  38.098  14.300  12.475
51016W        W24084   0.928   2.382   2.459
51017W        W24085  16.362  44.301   2.308
51018W        W24086  27.065  13.321  13.273
51019W        W24087   6.425  19.096   2.319
51020W        W24088  24.713  20.518   0.293
51021W        W24089  24.294  39.104   2.792
51022W        W24090  33.955  18.271  14.219
51023W        W24091  18.304  23.866   4.919
51024W        W24092   6.898  37.998   3.261
51025W        W24093  14.333  39.465   2.106
51026W        W24094   9.596  19.750  11.517
51027W        W24095  28.203  10.331  12.967
51028W        W24096   3.755  38.841   1.182
51029W        W24097  28.437   8.982  11.887
51030W        W24098   3.490  43.467  13.355
51031W        W24099   4.870  27.460   2.154
51032W        W24100  39.068  16.057  12.034
51033W        W24101  22.113   7.918  11.399
51034W        W24102  35.589  31.436  13.891
51035W        W24103  30.986  43.251  12.023
51036W        W24104  44.464  43.849  13.354
51037W        W24105  12.729  24.122  14.341
51038W        W24106  14.071  34.937   1.275
51039W        W24107  25.182  38.809   2.355
51040W        W24108  34.038  26.798   4.580
51041W        W24109  20.311  22.099  13.491
51042W        W24110  13.363  40.077  11.501
51043W        W24111   0.299  12.652   4.676
51044W        W24112  32.630   8.347  11.117
51045W        W24113  35.779  10.244   2.725
51046W        W24114   7.219  38.290  13.270
51047W        W24115  44.813   3.201   2.606
51048W        W24116  29.517  28.667   0.838
51049W        W24117  12.648  26.394   1.975
51050W        W24118   0.554  17.129   2.284
51051W        W24119   1.423   7.712   0.438
51052W        W24120   2.333  30.454  10.955
51053W        W24121  28.045  27.624  11.251
51054W        W24122  41.214  34.530   2.799
51055W        W24123  41.492   2.802  12.968
51056W        W24124  23.006  13.677   0.396
51057W        W24125  34.079   7.998  14.816
51058W        W24126  23.640   6.613  13.951
51059W        W24127  35.457  37.873  10.711
51060W        W24128  17.218  26.758   1.148
51061W        W24129  12.900  39.711   1.308
51062W        W24130  25.689  13.237  13.339
51063W        W24131  37.966  42.860  12.454
51064W        W24132  38.975  13.797  13.813
51065W        W24133   1.795  41.642   1.611
51066W        W24134  15.921   7.329  12.952
51067W        W24135   7.375  28.662   2.506
51068W        W24136  39.993  39.001   1.010
51069W        W24137  15.128  21.777  13.016
51070W        W24138  28.360  27.095  12.423
51071W        W24139  28.430  25.750   1.139
51072W        W24140  23.079   0.136  11.283
51073W        W24141  33.467  30.167   4.970
51074W        W24142  15.834  23.500   2.635
51075W        W24143  26.422  32.583  12.934
51076W        W24144   9.210   4.700   0.925
51077W        W24145  41.482  34.413  12.939
51078W        W24146  36.543  31.046  11.172
51079W        W24147  34.879  20.072  10.613
51080W        W24148  29.395  19.821  13.096
51081W        W24149   6.451  29.195   3.226
51082W        W24150  26.454  20.470  12.524
51083W        W24151  41.943  40.095  12.501
51084W        W24152  31.080   5.001  13.418
51085W        W24153  14.625  26.862   4.005
51086W        W24154  31.111   8.773  12.806
51087W        W24155   7.316  15.587   2.814
51088W        W24156   6.504   9.988   2.303
51089W        W24157  24.120  32.403  11.706
51090W        W24158  18.017  10.612  13.214
51091W        W24159  21.230  34.028  14.471
51092W        W24160  40.967  15.751   3.038
51093W        W24161   3.689  37.502  13.912
51094W        W24162  25.431   8.623   4.197
51095W        W24163  10.890  17.165  11.463
51096W        W24164   4.176  25.489  14.641
51097W        W24165  16.164  10.209   3.231
51098W        W24166  26.191  16.614   0.795
51099W        W24167   0.040  39.533   1.471
51100W        W24168  27.210  18.842  12.983
51101W        W24169  28.643  36.555   2.258
51102W        W24170   2.822   7.270  12.067
51103W        W24171  17.129  22.500   3.241
51104W        W24172  44.298  22.963  10.940
51105W        W24173  27.729  15.461   2.634
51106W        W24174  12.745  28.218   3.315
51107W        W24175  19.016  42.927   2.026
51108W        W24176   3.731   2.036  13.871
51109W        W24177  38.465   9.613  10.727
51110W        W24178  27.188  26.503  12.202
51111W        W24179   1.238  35.082  14.405
51112W        W24180  30.390   9.695  10.587
51113W        W24181   8.817   5.326  14.930
51114W        W24182   3.750  34.231  14.899
51115W        W24183  41.055   8.335   5.201
51116W        W24184  26.642  38.843   4.676
51117W        W24185  36.052   0.717  12.500
51118W        W24186  40.665  30.484  14.866
51119W        W24187  10.332  42.720   5.100
51120W        W24188  20.682  18.811  10.662
51121W        W24189   6.138  10.829   2.662
51122W        W24190  22.679   6.871   0.245
51123W        W24191  28.148  27.924  13.953
51124W        W24192  14.635  14.040   1.726
51125W        W24193  22.429  31.713  12.506
51126W        W24194   2.534   6.427   3.731
51127W        W24195  13.844  25.640  14.744
51128W        W24196  29.921  38.069   4.580
51129W        W24197  37.867  17.177  11.581
51130W        W24198  37.797  23.807  10.973
51131W        W24199  12.875  31.028  11.596
51132W        W24200  29.932  35.584   4.058
51133W        W24201   7.597  30.984  13.972
51134W        W24202  10.608   4.160  12.098
51135W        W24203  22.266  28.254   2.911
51136W        W24204  13.717  23.989   2.841
51137W        W24205   2.273  38.407  13.980
51138W        W24206  42.241  38.266  12.521
51139W        W24207  38.063  30.079  10.536
51140W        W24208  34.110   5.745  13.831
51141W        W24209   3.410  17.647  14.244
51142W        W24210  29.130  12.097   1.291
51143W        W24211   8.801   9.953  14.807
51144W        W24212   3.391  27.558   0.349
51145W        W24213  39.325  27.191   1.145
51146W        W24214  19.147   5.915  11.370
51147W        W24215  21.747  26.507   1.759
51148W        W24216   8.239   7.153   4.539
51149W        W24217   1.280   9.791  10.898
51150W        W24218  24.057  29.982  14.187
51151W        W24219  26.623  34.702  14.825
51152W        W24220   0.485  21.541  10.673
51153W        W24221   0.877  39.345  10.773
51154W        W24222  14.604  17.305  14.836
51155W        W24223  19.862  21.225   3.660
51156W        W24224  40.510  30.591   1.295
51157W        W24225   9.696  19.143   0.139
51158W        W24226  28.180   5.083   4.998
51159W        W24227  41.690  44.220   4.208
51160W        W24228  26.787  40.546   4.419
51161W        W24229   9.817   5.373  12.087
51162W        W24230  10.324  28.735  12.961
51163W        W24231  28.146  19.831  13.058
51164W        W24232   8.436  12.340  13.883
51165W        W24233  15.113  33.882  14.798
51166W        W24234  37.045  31.227  12.989
51167W        W24235  30.557  14.331  10.792
51168W        W24236  38.295   7.861  14.495
51169W        W24237  36.007   5.659  10.739
51170W        W24238  25.831   6.807   0.709
51171W        W24239  24.700   9.290  11.948
51172W        W24240  14.343  31.931  12.074
51173W        W24241  12.111  22.157   0.300
51174W        W24242  18.807  34.497  11.320
51175W        W24243   7.967   3.956   4.760
51176W        W24244  42.529  43.729   0.296
51177W        W24245  27.016   3.537   2.260
51178W        W24246  14.273   2.484  13.885
51179W        W24247  38.239  24.965  12.576
51180W        W24248  16.124  26.920   3.626
51181W        W24249   2.712  41.521  13.883
51182W        W24250  25.215   6.320   1.715
51183W        W24251  21.567  23.021  13.904
51184W        W24252  22.506  15.832  14.240
51185W        W24253  20.541  39.480  13.995
51186W        W24254  15.675   3.228   3.813
51187W        W24255   7.158  43.374   2.867
51188W        W24256  39.437   2.943  12.339
51189W        W24257   7.864   2.239  12.908
51190W        W24258   7.036   0.951  13.901
51191W        W24259  21.042  33.099   1.314
51192W        W24260  38.979   5.154   4.489
51193W        W24261  14.433  27.778  11.616
51194W        W24262   9.897   6.371   1.811
51195W        W24263  21.186  17.002  11.545
51196W        W24264  31.843   2.520   4.489
51197W        W24265  35.674  42.988   0.029
51198W        W24266  29.929   3.875  11.129
51199W        W24267  22.512   0.323  14.168
51200W        W24268  34.945  16.806   1.289
51201W        W24269  11.770   4.300  14.873
51202W        W24270  25.541  24.031   4.183
51203W        W24271   9.840  16.055  11.781
51204W        W24272  20.112   7.930   3.235
51205W        W24273   2.814  39.025  14.605
51206W        W24274  27.970   0.948   3.684
51207W        W24275  23.716  14.860   4.186
51208W        W24276   2.665  11.105  11.016
51209W        W24277   6.161  12.818  10.615
51210W        W24278   9.085   8.453   4.084
51211W        W24279  43.950  16.151   1.422
51212W        W24280  15.879  17.466  12.594
51213W        W24281   1.836  39.510  10.932
51214W        W24282  40.647  34.163  14.073
51215W        W24283   3.934  20.403  12.314
51216W        W24284  38.750  35.323   3.346
51217W        W24285  27.257  43.092  11.600
51218W        W24286  42.301  17.311  13.012
51219W        W24287  14.010  16.785   4.105
51220W        W24288  31.867   5.910   3.318
51221W        W24289  13.443  41.951  11.565
51222W        W24290  11.194  20.956  13.115
51223W        W24291  41.475   4.418  14.389
51224W        W24292  40.925   3.383   1.177
51225W        W24293  19.727  25.964   4.566
51226W        W24294   9.451  21.625  13.417
51227W        W24295  26.986  29.699  11.565
51228W        W24296  37.774  20.694   0.952
51229W        W24297  24.063   5.889   3.090
51230W        W24298   3.783  44.375   3.370
51231W        W24299  43.169  39.503  14.806
51232W        W24300  44.469   3.294  13.884
51233W        W24301   8.635  11.262  10.801
51234W        W24302  21.048  16.021   3.180
51235W        W24303  24.357  17.886   2.799
51236W        W24304  20.028   8.236  13.017
51237W        W24305  14.321  31.598   1.969
51238W        W24306   9.643   7.185   1.406
51239W        W24307  30.084  10.696   2.636
51240W        W24308   0.553  26.950  12.007
51241W        W24309  18.809  14.844  12.540
51242W        W24310  34.421  17.246  14.987
51243W        W24311  19.109  10.341   2.417
51244W        W24312  43.919   1.874  10.529
51245W        W24313  35.688   9.281  11.560
51246W        W24314   1.090  26.094  11.140
51247W        W24315  40.317  27.144   0.452
51248W        W24316  30.744  12.421   4.105
51249W        W24317  28.152  19.189  12.481
51250W        W24318   7.937   3.403  12.642
51251W        W24319  12.511   7.257   2.288
51252W        W24320  41.027  12.912  14.001
51253W        W24321  41.867  15.207  12.050
51254W        W24322  11.601  17.585   4.336
51255W        W24323   8.709  26.849  10.337
51256W        W24324  10.911  32.897  13.274
51257W        W24325  14.592  13.249   2.624
51258W        W24326  15.283  39.546   3.760
51259W        W24327  40.299  19.734  10.513
51260W        W24328  38.001   6.836  12.763
51261W        W24329  37.986   4.485   4.514
51262W        W24330  42.641  12.672  12.760
51263W        W24331  18.594  35.587  14.974
51264W        W24332  43.024  14.475   1.883
51265W        W24333  20.327  43.278  11.622
51266W        W24334   9.577   3.210   3.560
51267W        W24335  16.229  32.890  14.629
51268W        W24336  14.195  24.267   4.587
51269W        W24337  31.561  31.208   1.940
51270W        W24338  34.589  10.286  11.752
51271W        W24339   0.771  30.766  10.693
51272W        W24340  23.020  42.880  10.366
51273W        W24341  25.575  41.283   1.885
51274W        W24342   9.091  43.758  14.627
51275W        W24343  12.163  12.119   1.763
51276W        W24344   4.891  17.270  12.954
51277W        W24345  30.063  26.565  14.017
51278W        W24346  22.754  22.963   4.444
51279W        W24347  15.576   1.006  11.073
51280W        W24348  21.506   7.278  13.686
51281W        W24349  38.844  19.797   3.235
51282W        W24350  25.699  28.369   1.680
51283W        W24351  37.883  40.285  12.941
51284W        W24352  23.617  24.629   4.687
51285W        W24353  34.455  18.626   3.167
51286W        W24354  40.542  11.634  11.044
51287W        W24355  19.732  14.349  12.339
51288W        W24356  31.612  12.574  11.529
51289W        W24357  36.939  23.661   0.571
51290W        W24358  25.745  42.554   3.204
51291W        W24359  43.427  14.158  14.382
51292W        W24360  32.158  25.708  13.387
51293W        W24361   3.247  32.187   4.326
51294W        W24362  44.494  31.636  12.956
51295W        W24363  36.405  39.552   3.029
51296W        W24364  25.073  37.477   1.385
51297W        W24365  23.950  18.706  10.097
51298W        W24366  21.521  40.909   4.489
51299W        W24367  30.812  30.016  13.450
51300W        W24368  25.753  12.779  11.359
51301W        W24369   8.982  30.514   5.068
51302W        W24370  19.452  29.814  14.911
51303W        W24371  38.035  12.553  13.056
51304W        W24372  12.059   3.437   1.247
51305W        W24373   4.361  15.552   4.351
51306W        W24374  29.061  41.059  14.104
51307W        W24375  28.553  15.589   2.290
51308W        W24376   8.776  12.694   4.617
51309W        W24377  43.548  26.147   0.948
51310W        W24378  10.877  36.902   4.779
51311W        W24379  10.329  24.372   5.159
51312W        W24380  17.261   4.798  10.433
51313W        W24381  23.681  24.402  10.906
51314W        W24382   9.911  33.013  14.003
51315W        W24383  11.219  43.233   0.035
51316W        W24384  12.903  44.515  10.687
51317W        W24385   2.665  28.021   3.135
51318W        W24386  20.042  17.703  12.099
51319W        W24387   6.185  35.064   4.577
51320W        W24388   7.289  33.861  11.022
51321W        W24389   1.940  14.134  14.749
51322W        W24390  35.063  22.271   2.784
51323W        W24391   5.409  32.805  12.921
51324W        W24392  29.977  22.830   1.238
51325W        W24393  10.370  32.456  10.841
51326W        W24394  35.560  11.830  14.756
51327W        W24395  23.580   5.177  11.112
51328W        W24396  30.481  16.988   1.589
51329W        W24397   3.769  16.215  14.972
51330W        W24398  16.711  19.978   1.277
51331W        W24399  43.513  14.778   4.274
51332W        W24400  13.245  11.799  10.306
51333W        W24401  28.086  17.121  10.319
51334W        W24402  23.960  16.651  11.489
51335W        W24403  19.673   0.752  10.738
51336W        W24404  39.426  33.942   0.735
51337W        W24405  36.400   8.176  12.534
51338W        W24406   7.282  41.250   1.011
51339W        W24407  20.767  39.753  13.246
51340W        W24408  27.211  19.773   3.776
51341W        W24409  15.768  40.431  14.313
51342W        W24410  20.178  37.672   2.287
51343W        W24411  25.001  32.954   4.077
51344W        W24412  26.906  29.594   1.835
51345W        W24413  21.084   1.549  12.078
51346W        W24414   5.991  24.160  11.217
51347W        W24415  29.645  10.188  10.470
51348W        W24416  11.836  13.190  10.884
51349W        W24417  44.377  27.024   2.904
51350W        W24418  40.459  15.261  11.191
51351W        W24419  32.473  34.401  10.855
51352W        W24420  43.907  13.645   3.849
51353W        W24421  36.907   3.241   3.357
51354W        W24422  13.096   0.765   3.746
51355W        W24423   4.342  26.184   0.768
51356W        W24424  20.717   7.418   0.373
51357W        W24425  36.579  37.829   4.887
51358W        W24426   4.143  44.498   2.589
51359W        W24427  42.568  30.505  14.998
51360W        W24428   2.936  35.799  14.805
51361W        W24429  42.237  35.722   3.125
51362W        W24430  33.336  20.235   1.492
51363W        W24431  12.774   7.934  14.799
51364W        W24432  44.790  44.315  14.516
51365W        W24433  17.794  18.292  13.550
51366W        W24434  16.529   3.003   2.473
51367W        W24435  41.975  30.137   4.555
51368W        W24436   5.449  12.805   4.284
51369W        W24437   2.421  18.960  10.692
51370W        W24438  23.048  10.717   3.748
51371W        W24439  27.224   4.209   3.690
51372W        W24440  19.890  29.086  14.476
51373W        W24441  22.205   4.206   1.315
51374W        W24442   8.678   4.287  14.476
51375W        W24443  18.998  25.017  14.955
51376W        W24444  20.103  20.038  13.229
51377W        W24445   6.732   8.222   4.192
51378W        W24446  28.627  29.532   4.434
51379W        W24447  28.677  41.276  13.420
51380W        W24448  14.093  39.480  14.814
51381W        W24449  16.544  38.849   4.772
51382W        W24450  21.134  34.842   2.619
51383W        W24451  14.850  36.671  10.453
51384W        W24452  11.722  40.738  14.712
51385W        W24453  17.327  16.871   3.773
51386W        W24454  31.736  39.161   4.972
51387W        W24455  20.816  13.509  11.840
51388W        W24456  12.758  22.604   1.967
51389W        W24457  33.864  21.306   5.005
51390W        W24458   2.005  18.690   3.703
51391W        W24459  40.146  13.908  11.554
51392W        W24460   3.849   7.289  13.512
51393W        W24461  43.709   9.050  13.438
51394W        W24462  29.873  12.740  14.489
51395W        W24463  14.906  35.362  14.819
51396W        W24464  14.135  12.276   2.886
51397W        W24465  42.775  17.026  11.590
51398W        W24466   3.261   4.975   4.651
51399W        W24467  16.420   4.929   0.820
51400W        W24468  27.016   3.362  14.806
51401W        W24469   2.402  38.611  12.086
51402W        W24470   9.834  10.375  11.082
51403W        W24471  22.557  38.858  14.945
51404W        W24472  32.439   8.604  12.950
51405W        W24473   5.385  43.325  10.681
51406W        W24474   3.658  16.342  13.895
51407W        W24475  44.366  18.156   0.462
51408W        W24476  44.277  28.881  11.264
51409W        W24477  44.802  27.682   1.385
51410W        W24478   1.947  36.093   3.327
51411W        W24479  12.141   4.292   4.059
51412W        W24480  33.023  36.375  12.594
51413W        W24481  27.600   0.586  11.585
51414W        W24482  16.889  28.145   2.817
51415W        W24483  39.338  42.508  10.689
51416W        W24484   3.599  11.694  12.545
51417W        W24485   6.939  42.802   0.456
51418W        W24486   9.887   1.372  12.830
51419W        W24487   1.460  20.681   0.051
51420W        W24488  20.292  31.178  14.203
51421W        W24489  38.547  12.276   4.537
51422W        W24490  10.174   3.258   1.339
51423W        W24491  17.954  12.646   1.831
51424W        W24492  13.779  23.435   4.840
51425W        W24493  33.127  33.859  11.100
51426W        W24494   7.696  11.232   1.267
51427W        W24495  16.161  27.246   4.917
51428W        W24496   8.358  30.716   3.221
51429W        W24497  29.289   6.231   0.776
51430W        W24498  42.312  24.223   0.498
51431W        W24499  31.589  19.600  14.823
51432W        W24500  18.543  22.508   0.403
51433W        W24501  31.438  14.731  12.478
51434W        W24502  19.606  16.867   3.650
51435W        W24503  26.437  30.604  11.614
51436W        W24504  17.431   1.044  12.838
51437W        W24505  29.653  32.021   1.631
51438W        W24506  43.444  28.882   0.939
51439W        W24507  26.577  41.379   1.864
51440W        W24508   8.609  36.093   1.778
51441W        W24509  35.471  36.545  11.232
51442W        W24510  25.216  31.428   4.272
51443W        W24511  24.010  25.220   3.458
51444W        W24512   9.656  35.441  10.932
51445W        W24513   3.006   9.668   0.194
51446W        W24514  17.576   3.559  11.593
51447W        W24515  13.554  12.549  11.263
51448W        W24516   7.387   0.032   0.811
51449W        W24517  18.800   7.405  12.034
51450W        W24518  27.120  30.386   1.467
51451W        W24519  38.620  34.576   4.112
51452W        W24520   9.334  18.696  14.079
51453W        W24521   8.835  41.327   3.646
51454W        W24522  29.234  36.708   3.661
51455W        W24523  36.660  30.059   2.717
51456W        W24524  38.450  36.579   2.199
51457W        W24525  40.701  16.276  13.994
51458W        W24526   9.193  42.511  14.919
51459W        W24527  24.018  16.873  12.782
51460W        W24528   1.717  42.526  11.205
51461W        W24529  17.032  43.209   2.314
51462W        W24530  11.185   2.913   0.976
51463W        W24531  28.617  13.337   0.868
51464W        W24532  25.803  10.384  13.842
51465W        W24533  35.892  19.549  13.950
51466W        W24534  31.489  17.140   3.195
51467W        W24535  34.140  21.698  13.420
51468W        W24536  35.557  40.514   0.408
51469W        W24537  25.698   7.189   4.983
51470W        W24538  18.527   2.760   2.809
51471W        W24539  23.411   3.221  12.840
51472W        W24540   5.849  26.018   1.910
51473W        W24541  33.767  32.160   4.095
51474W        W24542  30.737  13.651   1.444
51475W        W24543   8.337  16.155  11.336
51476W        W24544  36.040  27.986   0.236
51477W        W24545  28.428  29.556  13.868
51478W        W24546  22.275  30.330   5.068
51479W        W24547   8.207  38.968  11.854
51480W        W24548  40.110  24.744   1.383
51481W        W24549  22.453   2.233  10.574
51482W        W24550  12.721  22.447  13.404
51483W        W24551  18.657  27.482  13.816
51484W        W24552  13.303  30.163  11.543
51485W        W24553   7.448  25.169   1.929
51486W        W24554  37.573  27.476   2.306
51487W        W24555  30.869   9.212   3.603
51488W        W24556  39.344  11.251   1.421
51489W        W24557   4.086  12.308   1.796
51490W        W24558  23.973  39.081  11.418
51491W        W24559  28.604  27.082   1.206
51492W        W24560  27.433  26.548   4.128
51493W        W24561  30.432   6.461  14.470
51494W        W24562  28.109   2.011  12.541
51495W        W24563  13.218   7.679  14.624
51496W        W24564  14.087  12.567  12.134
51497W        W24565  10.106   8.261   4.154
51498W        W24566  36.577  38.673   0.771
51499W        W24567  44.249  41.851  14.793
51500W        W24568  10.247  32.271   3.727
51501W        W24569  11.873  41.456   0.463
51502W        W24570   3.758   5.242   0.129
51503W        W24571  37.289   2.449   4.202
51504W        W24572  30.850  16.217  11.484
51505W        W24573  11.772   1.078   3.830
51506W        W24574  16.391   2.149  13.063
51507W        W24575  36.974  27.136   2.589
51508W        W24576   9.767  30.354   1.250
51509W        W24577  44.556  42.429  13.497
51510W        W24578  15.079  20.591   4.226
51511W        W24579  21.985  31.868   0.397
51512W        W24580  13.890   5.730   3.798
51513W        W24581  14.893   5.362  11.082
51514W        W24582  19.010   1.550  14.610
51515W        W24583   7.006   2.796   3.259
51516W        W24584  26.372   3.564   1.392
51517W        W24585  15.073  14.040   3.341
51518W        W24586  44.183  18.616   4.959
51519W        W24587  41.432  43.939   1.178
51520W        W24588   6.351  24.067   2.256
51521W        W24589  20.071  15.393  13.058
51522W        W24590  15.345  28.207   1.040
51523W        W24591  41.915   0.546   0.365
51524W        W24592  43.227  17.620   0.332
51525W        W24593   7.561   1.090  14.535
51526W        W24594  33.972  44.599  13.382
51527W        W24595   4.694  42.745  11.021
51528W        W24596  19.228   6.654   0.361
51529W        W24597  44.867   0.466  11.216
51530W        W24598  13.177  36.873  11.231
51531W        W24599  39.220   0.263   2.820
51532W        W24600  31.442   6.897   0.600
51533W        W24601  24.668   7.586   4.024
51534W        W24602  35.887  23.249   0.869
51535W        W24603  25.166  23.989   1.294
51536W        W24604   0.676  23.603   2.363
51537W        W24605   2.398  20.692   4.122
51538W        W24606  38.049  43.420   0.523
51539W        W24607  19.766  10.300   0.733
51540W        W24608   7.202  27.679  14.006
51541W        W24609  36.613  24.508  11.603
51542W        W24610  43.363  34.622   3.147
51543W        W24611  28.384  27.086   2.742
51544W        W24612   5.351  24.043  13.535
51545W        W24613  30.969  34.458   4.592
51546W        W24614  17.670  30.629   0.736
51547W        W24615  31.252  20.495   3.156
51548W        W24616  20.815  16.214   2.754
51549W        W24617  21.534  24.259   4.130
51550W        W24618  19.772  11.714  12.816
51551W        W24619   0.973  41.141   3.212
51552W        W24620  41.699  22.517   1.936
51553W        W24621  25.604  17.098   1.333
51554W        W24622  41.571  30.814   0.004
51555W        W24623  10.420   1.420   4.124
51556W        W24624  38.333  33.428   3.108
51557W        W24625   9.893   1.869  13.916
51558W        W24626   8.606  26.788   2.277
51559W        W24627  38.840  38.970   5.029
51560W        W24628  19.326  23.598   1.388
51561W        W24629   1.740   5.126  14.624
51562W        W24630  37.774  25.531   4.100
51563W        W24631  24.962  29.630   4.562
51564W        W24632   5.959  42.360  12.068
51565W        W24633  25.966  31.383  10.491
51566W        W24634   9.763   5.826  12.316
51567W        W24635  20.542  22.934   2.408
51568W        W24636  14.736   6.434   3.197
51569W        W24637  37.584  38.039   3.687
51570W        W24638  31.914  41.619  13.365
51571W        W24639  11.170  21.589  11.855
51572W        W24640   3.256  27.459  14.023
51573W        W24641   6.616   8.323   3.701
51574W        W24642  37.790  14.928   2.828
51575W        W24643   6.641  24.716  13.717
51576W        W24644  11.235  13.379   2.756
51577W        W24645  32.185  29.093  13.857
51578W        W24646  43.911  15.249   2.279
51579W        W24647  34.020  44.412   1.818
51580W        W24648   7.868  21.826   3.638
51581W        W24649  34.907  13.107  12.056
51582W        W24650   9.234  41.265  10.430
51583W        W24651   5.289   9.363  10.449
51584W        W24652  25.971   7.890   3.719
51585W        W24653   7.170  19.699   3.275
51586W        W24654  38.274  20.709  13.171
51587W        W24655  39.809  38.503  11.151
51588W        W24656   2.349  24.171  11.040
51589W        W24657  40.015  36.157  13.681
51590W        W24658  15.200   6.738   1.182
51591W        W24659  12.058  31.435   2.366
51592W        W24660   8.778  25.139   3.625
51593W        W24661   9.135   7.698  13.029
51594W        W24662  29.694  32.115  13.033
51595W        W24663  22.569  28.602  10.152
51596W        W24664  22.736  19.673  13.502
51597W        W24665  29.487  44.770   3.832
51598W        W24666  25.228  43.501  11.165
51599W        W24667  29.834  11.115   2.820
51600W        W24668  22.708  43.147  10.690
51601W        W24669  10.173  35.147  12.926
51602W        W24670  28.970   7.912   2.225
51603W        W24671  29.898   5.777   0.059
51604W        W24672   9.437  27.089  14.602
51605W        W24673  23.954  22.089   0.242
51606W        W24674  33.075  24.119   2.407
51607W        W24675  33.722  34.477  11.662
51608W        W24676  41.480   9.904  11.144
51609W        W24677  20.767  24.578   4.761
51610W        W24678  29.627   2.262  11.641
51611W        W24679  11.110  11.063  14.899
51612W        W24680  26.524  19.149  10.919
51613W        W24681  39.032  29.034  11.475
51614W        W24682  37.582   8.804  11.155
51615W        W24683  34.372  37.205   1.717
51616W        W24684  15.848  36.971  11.695
51617W        W24685  32.197  14.265  12.581
51618W        W24686   8.426  43.604   2.825
51619W        W24687   6.851  39.148   1.644
51620W        W24688  37.781  33.629  11.589
51621W        W24689  17.172  13.679   2.117
51622W        W24690   7.876  37.484   1.037
51623W        W24691   9.186   6.914  14.789
51624W        W24692  31.091  34.466   3.271
51625W        W24693   4.202   0.870   1.853
51626W        W24694   0.369  41.101  13.564
51627W        W24695  28.518  12.681  11.255
51628W        W24696   8.718  26.027   0.458
51629W        W24697   7.324  29.835  11.981
51630W        W24698  41.605  44.859  12.048
51631W        W24699   1.962  38.836   4.037
51632W        W24700   5.483  18.248   3.803
51633W        W24701   7.724  39.323   0.427
51634W        W24702  15.561   0.229   3.751
51635W        W24703  42.814  18.965  12.556
51636W        W24704   1.883  26.735  12.950
51637W        W24705   8.651  41.437   2.104
51638W        W24706  21.284  30.678   1.602
51639W        W24707  44.184  21.119  12.627
51640W        W24708  29.964  41.027  13.929
51641W        W24709  40.241  35.368   3.172
51642W        W24710  39.209   7.999  13.656
51643W        W24711  26.598  33.954  12.506
51644W        W24712  26.207  20.143  12.227
51645W        W24713  29.873   4.236  12.181
51646W        W24714  33.867  28.071   4.193
51647W        W24715  26.589   1.565   1.339
51648W        W24716  10.874  38.395   3.582
51649W        W24717  29.577  25.998   1.745
51650W        W24718  15.642   2.229   0.257
51651W        W24719  38.646  19.214   4.640
51652W        W24720  16.542  25.949   2.674
51653W        W24721  34.098  15.569  13.390
51654W        W24722  16.239  41.339   3.515
51655W        W24723  23.157   0.923  12.557
51656W        W24724  37.391  19.278  13.873
51657W        W24725   7.553  34.044  14.855
51658W        W24726  41.599  40.380  11.377
51659W        W24727  42.954  12.137   1.322
51660W        W24728  37.180  34.648  10.446
51661W        W24729  32.556  40.872  13.460
51662W        W24730   5.332   6.291  11.986
51663W        W24731  29.493   0.522   2.703
51664W        W24732  32.979  26.246  13.487
51665W        W24733  15.510  33.612   0.966
51666W        W24734  35.046  24.128  14.628
51667W        W24735  22.969  11.181   4.032
51668W        W24736  36.442  13.738  10.657
51669W        W24737   4.181  41.887  13.068
51670W        W24738  11.572  39.373   5.017
51671W        W24739  15.404  22.216  12.996
51672W        W24740  23.672  22.868   0.547
51673W        W24741   2.005   2.287   4.545
51674W        W24742  15.889  23.103   4.221
51675W        W24743  42.488  14.421   1.241
51676W        W24744  15.590  13.875   0.071
51677W        W24745  21.644  13.752  13.375
51678W        W24746  39.465  35.563  14.950
51679W        W24747   4.117  13.834  11.983
51680W        W24748  10.280  14.557   2.893
51681W        W24749   5.477  19.559  11.572
51682W        W24750  33.861  30.672  11.002
51683W        W24751  23.030  41.317   3.183
51684W        W24752  35.587  11.600   4.298
51685W        W24753  24.112  20.061   3.237
51686W        W24754  40.102  12.765   1.987
51687W        W24755   8.227  27.355  14.994
51688W        W24756  15.137  20.232   3.186
51689W        W24757  11.324  29.047   2.643
51690W        W24758  19.437  37.994  10.802
51691W        W24759  30.220  22.187  11.617
51692W        W24760  43.040  27.501  14.874
51693W        W24761  40.046  12.767   4.378
51694W        W24762   0.906  17.330   0.296
51695W        W24763   6.823  40.295  12.929
51696W        W24764   3.917  25.077   0.763
51697W        W24765   3.749   3.296  10.639
51698W        W24766  15.115  22.578  13.985
51699W        W24767  31.457   8.080   1.495
51700W        W24768  22.739  42.774   4.639
51701W        W24769  40.818  18.530  13.854
51702W        W24770  14.595  35.155   4.210
51703W        W24771  31.504  33.970  10.888
51704W        W24772  36.898   7.160   4.912
51705W        W24773  38.984   1.370   0.368
51706W        W24774  27.612  31.768  14.876
51707W        W24775  43.010   0.012   0.224
51708W        W24776  16.329  20.571  10.743
51709W        W24777  16.908   5.423   0.341
51710W        W24778  30.194   4.319   4.755
51711W        W24779  11.910   3.313   4.611
51712W        W24780  21.583  21.956   2.327
51713W        W24781  17.320  44.597   3.502
51714W        W24782  11.335   2.563  11.130
51715W        W24783  39.336  40.882   0.768
51716W        W24784   4.467  38.638  11.126
51717W        W24785  19.284  25.232   3.358
51718W        W24786  33.609  14.098   4.730
51719W        W24787   5.943   4.913   3.359
51720W        W24788  18.234  16.367   3.451
51721W        W24789  17.996   8.578  14.866
51722W        W24790  14.075  30.690   4.589
51723W        W24791  42.407  20.579   4.630
51724W        W24792  25.842   8.199  13.283
51725W        W24793  28.303  16.311  13.439
51726W        W24794  14.363  37.500   1.427
51727W        W24795  44.377   9.272  10.998
51728W        W24796   9.722  18.147   1.294
51729W        W24797   4.135  16.950  11.223
51730W        W24798  40.933  33.976  14.477
51731W        W24799  23.782  27.559   2.621
51732W        W24800  25.167  11.303  14.723
51733W        W24801   8.073   6.229  12.057
51734W        W24802  16.121  22.664   4.147
51735W        W24803   0.541  41.855  14.270
51736W        W24804  11.534  36.444   2.647
51737W        W24805  14.890  41.822  12.498
51738W        W24806  15.762  17.559   1.198
51739W        W24807  35.919   4.404  13.458
51740W        W24808  12.355  12.283   0.444
51741W        W24809  11.810   1.806   1.881
51742W        W24810  40.011  15.857  10.970
51743W        W24811  43.554  21.333  14.301
51744W        W24812  22.700  37.984   4.751
51745W        W24813   4.474  26.269   1.748
51746W        W24814  17.032  35.236   3.581
51747W        W24815   7.155  29.396  11.177
51748W        W24816  22.115   5.687  13.898
51749W        W24817  41.350   7.976   0.504
51750W        W24818  20.949  13.044   2.363
51751W        W24819   6.171  22.108   1.753
51752W        W24820  12.220  25.742  12.917
51753W        W24821  24.390   2.013  10.990
51754W        W24822  40.896  38.084  12.897
51755W        W24823   8.473  10.954  12.506
51756W        W24824  28.220   5.988   2.489
51757W        W24825   8.807  41.911  10.207
51758W        W24826   4.120  30.421   0.063
51759W        W24827  40.492  41.037   3.606
51760W        W24828  25.595  32.720  13.050
51761W        W24829  34.663  32.078   9.812
51762W        W24830  35.127  30.630  10.087
51763W        W24831  18.960  38.020  11.588
51764W        W24832  29.657  31.988   0.227
51765W        W24833  20.202  12.901  13.955
51766W        W24834  22.717  23.472   4.600
51767W        W24835  24.977   3.112   1.578
51768W        W24836  34.414   1.354   3.440
51769W        W24837  37.449  31.226   4.501
51770W        W24838  25.424  16.340   2.241
51771W        W24839  39.191   3.310   0.296
51772W        W24840  29.046  11.553   4.793
51773W        W24841  12.335  13.216   2.245
51774W        W24842  20.640   8.243  10.889
51775W        W24843   7.751  26.471  10.016
51776W        W24844  32.032  21.265   0.001
51777W        W24845  18.567   7.480  11.591
51778W        W24846   5.619  16.453  12.901
51779W        W24847  26.653  30.576   2.774
51780W        W24848  34.377  25.528  14.378
51781W        W24849  23.994  31.502   3.774
51782W        W24850  13.920  22.419   2.435
51783W        W24851  32.823  28.112   0.340
51784W        W24852  26.240   8.447   3.271
51785W        W24853  43.753  44.750   4.345
51786W        W24854  31.887  11.125   3.064
51787W        W24855   6.645  38.862  12.806
51788W        W24856  40.408  25.728  11.917
51789W        W24857  42.335  44.476   0.731
51790W        W24858   8.915  13.608   1.427
51791W        W24859   1.382  27.641  10.678
51792W        W24860   7.479  27.887  11.890
51793W        W24861   6.280  14.809  12.569
51794W        W24862  22.078  39.823   2.709
51795W        W24863  42.915   8.670   1.982
51796W        W24864  29.052   6.565   1.931
51797W        W24865  39.429  38.649  12.439
51798W        W24866  23.581  21.949  14.348
51799W        W24867  29.449  20.343  14.299
51800W        W24868  18.111   2.924   4.367
51801W        W24869  24.254   9.861  11.225
51802W        W24870   0.008   3.718  13.099
51803W        W24871  43.339  37.761   4.363
51804W        W24872  24.085  10.177  14.574
51805W        W24873  39.027   3.210   0.792
51806W        W24874  32.074  27.475   4.268
51807W        W24875  32.705  13.196  12.513
51808W        W24876   7.423  44.580  10.601
51809W        W24877   0.302   3.328  11.058
51810W        W24878  17.630  33.428   3.406
51811W        W24879  43.521  16.216   2.779
51812W        W24880  35.813  27.915   3.267
51813W        W24881  25.820  16.864   1.751
51814W        W24882  31.535  24.772   3.954
51815W        W24883   0.037  43.074   4.224
51816W        W24884  14.392  20.331   1.228
51817W        W24885  41.287  33.412   3.061
51818W        W24886  15.106  18.671  12.938
51819W        W24887  21.440  18.079   4.535
51820W        W24888   0.400  31.452  14.530
51821W        W24889  36.497  16.389   3.308
51822W        W24890  16.575  17.935  12.973
51823W        W24891  35.913   5.467  12.078
51824W        W24892  40.489  44.524  12.597
51825W        W24893  18.633  29.249  14.027
51826W        W24894   3.985  19.229  10.506
51827W        W24895  23.015  29.645   3.782
51828W        W24896  16.239  40.541  11.254
51829W        W24897  21.958  18.061   4.723
51830W        W24898  21.007  42.789   3.873
51831W        W24899  37.465  21.100   0.986
51832W        W24900  19.552  23.266  13.320
51833W        W24901   5.819  14.679   1.844
51834W        W24902  38.621  31.921   3.714
51835W        W24903   5.950   1.104  10.349
51836W        W24904  17.031  10.310   0.472
51837W        W24905   6.298  22.578  10.432
51838W        W24906   2.190   9.485   4.846
51839W        W24907  36.155  40.285   3.790
51840W        W24908   7.578  22.766  11.487
51841W        W24909  28.776   0.035   3.240
51842W        W24910  34.253  21.863  14.383
51843W        W24911  33.410   7.379  11.631
51844W        W24912  19.189  30.984   2.314
51845W        W24913  32.719   3.435  11.190
51846W        W24914  12.859   2.407  11.228
51847W        W24915  22.368  16.964  11.121
51848W        W24916   0.046   1.786   1.898
51849W        W24917  35.694   6.596   0.548
51850W        W24918  32.168  41.830  13.834
51851W        W24919  37.465  20.267   1.090
51852W        W24920   6.913   5.354  10.504
51853W        W24921  14.619  20.564  12.651
51854W        W24922  31.969  43.374  11.683
51855W        W24923  16.067   8.927  14.685
51856W        W24924  27.546  41.251  10.043
51857W        W24925   4.445   3.874  13.764
51858W        W24926  43.550  38.747  10.737
51859W        W24927  43.814   9.382  13.860
51860W        W24928   5.747  15.430   1.360
51861W        W24929  44.715  18.779  11.125
51862W        W24930  34.935   7.789   4.569
51863W        W24931  12.606  26.095  12.210
51864W        W24932   9.076  36.003   3.827
51865W        W24933   9.870  24.742  12.977
51866W        W24934   2.215  37.222   1.382
51867W        W24935  16.727   0.170   4.555
51868W        W24936  27.067  41.528   4.026
51869W        W24937  36.413  13.611   0.755
51870W        W24938  25.023   1.966  12.472
51871W        W24939   9.442  32.118   2.509
51872W        W24940   9.248   8.706   4.520
51873W        W24941  37.729  23.921   3.254
51874W        W24942  37.146  21.264   2.177
51875W        W24943   7.683  40.911  11.963
51876W        W24944   0.289  37.888  13.638
51877W        W24945  12.735  41.038   3.182
51878W        W24946  15.663  44.756   0.527
51879W        W24947   2.925   5.961  10.690
51880W        W24948  31.576  28.426  12.827
51881W        W24949   7.036  31.577   4.100
51882W        W24950  25.254  37.423   3.295
51883W        W24951  16.642  33.335   3.625
51884W        W24952   3.208   5.679  11.630
51885W        W24953  26.445   3.032  13.981
51886W        W24954  21.605  24.265   1.302
51887W        W24955  41.336  21.092   0.938
51888W        W24956  13.204  18.730  14.946
51889W        W24957   9.059  36.834  11.620
51890W        W24958  28.599  16.194   3.293
51891W        W24959  39.062   5.885   1.103
51892W        W24960  27.081  33.191   2.597
51893W        W24961   9.938  27.936  13.447
51894W        W24962   3.339  40.538   4.530
51895W        W24963  36.872   0.428  12.357
51896W        W24964  36.452   4.983   2.735
51897W        W24965   4.021   1.657   3.214
51898W        W24966  43.667   7.002   2.346
51899W        W24967  15.077  40.791   2.842
51900W        W24968   0.305   6.460   3.296
51901W        W24969  15.628  18.687  10.714
51902W        W24970  26.787  25.262  13.215
51903W        W24971  44.377  14.069  13.988
51904W        W24972  18.681  15.445  14.598
51905W        W24973  22.460  13.758   4.691
51906W        W24974  23.575   5.484   1.548
51907W        W24975  30.465  23.386  11.222
51908W        W24976  21.365  27.260   3.642
51909W        W24977  38.108  23.613  10.609
51910W        W24978   7.476  25.771  12.573
51911W        W24979  41.010  17.216   2.280
51912W        W24980  14.777  19.446  14.023
51913W        W24981  26.529  35.045  10.741
51914W        W24982  27.107   5.247   4.558
51915W        W24983  41.171  26.633   0.301
51916W        W24984  22.989  13.389   2.402
51917W        W24985   5.834   7.450  14.238
51918W        W24986  20.018  39.463  14.058
51919W        W24987  39.111  42.190   0.624
51920W        W24988  14.752  38.904   2.765
51921W        W24989   6.705  29.717  14.993
51922W        W24990   7.252  13.091   1.206
51923W        W24991  29.136  44.940   1.087
51924W        W24992  37.168  15.656  14.785
51925W        W24993  20.600   7.881  13.581
51926W        W24994   7.667  17.113  11.663
51927W        W24995  28.904  23.639  12.316
51928W        W24996  40.876   2.920   1.422
51929W        W24997  27.214  37.626  12.473
51930W        W24998  36.834   0.832  14.318
51931W        W24999  17.227  39.409  14.925
51932W        W25000  26.646   3.652   0.913
51933W        W25001  39.363  10.963   2.766
51934W        W25002  23.288   5.735  12.858
51935W        W25003  42.033  15.817  10.086
51936W        W25004  15.316  42.389   4.826
51937W        W25005  31.390  44.502  13.471
51938W        W25006  37.345   4.038  13.429
51939W        W25007  14.654  29.995   1.731
51940W        W25008  12.357  40.053  11.556
51941W        W25009  21.612   3.432  13.477
51942W        W25010  19.222  37.096   3.812
51943W        W25011  19.272  37.636   1.747
51944W        W25012  28.134  32.865  14.331
51945W        W25013   7.257  37.066   1.716
51946W        W25014   5.216  18.169   3.114
51947W        W25015  21.287  23.958  11.048
51948W        W25016  38.474  42.271  12.010
51949W        W25017  22.118   5.175   0.408
51950W        W25018  11.220  37.534   4.087
51951W        W25019  40.447  22.449   2.113
51952W        W25020  31.296  28.473  12.303
51953W        W25021   2.509  10.235  10.781
51954W        W25022  29.138  12.569  14.997
51955W        W25023  40.751   9.915  10.781
51956W        W25024  44.326  31.328  10.617
51957W        W25025  28.130  41.940  10.512
51958W        W25026  41.306  32.978   3.336
51959W        W25027  10.214  36.246   4.210
51960W        W25028  30.922  25.526   4.371
51961W        W25029  21.122  42.873  13.910
51962W        W25030  29.604   3.996   2.442
51963W        W25031   7.478   8.829  12.446
51964W        W25032   9.828   4.274   2.170
51965W        W25033  29.651  22.483   1.381
51966W        W25034  19.549  17.040  14.412
51967W        W25035  23.925  38.384  11.824
51968W        W25036  21.189  15.410   4.054
51969W        W25037  23.168  32.333  14.895
51970W        W25038  36.551  19.219  14.265
51971W        W25039  11.879   2.429  13.426
51972W        W25040  35.551  19.713  12.974
51973W        W25041  18.140   7.328  14.754
51974W        W25042  24.606  29.640   3.226
51975W        W25043  41.437  41.005   4.398
51976W        W25044  33.044   9.624   2.923
51977W        W25045  12.398   6.363  11.689
51978W        W25046   7.351   0.558  11.865
51979W        W25047   7.172  21.794   2.417
51980W        W25048   2.243   5.842   2.283
51981W        W25049  26.782  44.759  11.126
51982W        W25050  43.887  14.606   1.610
51983W        W25051  39.835  10.105  12.930
51984W        W25052  25.977   8.282  12.254
51985W        W25053  18.788  14.165   4.657
51986W        W25054  21.313   8.851   0.837
51987W        W25055  16.152  19.565  14.580
51988W        W25056  38.380  18.797   2.753
51989W        W25057  32.105  23.049   1.972
51990W        W25058  15.734  36.839   4.115
51991W        W25059  21.610  36.522   4.399
51992W        W25060   8.765   0.330   1.543
51993W        W25061   1.806   6.415   4.531
51994W        W25062   6.907  30.956   2.626
51995W        W25063  21.696   4.325   3.796
51996W        W25064   7.122   9.288   4.130
51997W        W25065  37.354  19.550   4.540
51998W        W25066  13.713  35.522   2.201
51999W        W25067   5.474  39.468  13.390
52000W        W25068  39.963  17.976   0.092
52001W        W25069  10.952  27.448   0.548
52002W        W25070   4.857   8.405   1.406
52003W        W25071   2.950  28.077   4.253
52004W        W25072  16.738  11.117  14.321
52005W        W25073  24.157  12.261  13.491
52006W        W25074  16.731  34.311  13.617
52007W        W25075  34.035  12.181  12.348
52008W        W25076  15.629  24.946  14.098
52009W        W25077   1.690  42.745  12.327
52010W        W25078  10.675  35.951   4.180
52011W        W25079  21.191   0.288  14.329
52012W        W25080   0.788  42.009  12.144
52013W        W25081   9.270  37.616   1.276
52014W        W25082  17.345  28.018   0.386
52015W        W25083  33.659  17.807   0.870
52016W        W25084   6.812  16.548   3.151
52017W        W25085  42.224  30.997   4.102
52018W        W25086  10.223  28.390  10.039
52019W        W25087  15.855  44.014  11.167
52020W        W25088  31.434  17.720   4.412
52021W        W25089  32.802  38.465  13.376
52022W        W25090   0.966  14.080  10.746
52023W        W25091  14.532  31.818  10.707
52024W        W25092  10.945  11.662   1.320
52025W        W25093  34.949  15.052   2.637
52026W        W25094  19.229  40.639  14.255
52027W        W25095  11.872  23.208   1.221
52028W        W25096  11.794  24.031  14.407
52029W        W25097  10.717  41.497   0.891
52030W        W25098  37.537  17.719   3.724
52031W        W25099  28.573  36.881  13.124
52032W        W25100   9.130  28.665  12.545
52033W        W25101  28.051  37.145   5.010
52034W        W25102  14.663  30.078  11.894
52035W        W25103  20.775   2.283   0.880
52036W        W25104  24.507  22.310   2.259
52037W        W25105  13.311   8.909  10.319
52038W        W25106  25.609  22.454   1.922
52039W        W25107  39.812  42.292   3.012
52040W        W25108  29.390  12.618   0.849
52041W        W25109  10.793   8.212   1.907
52042W        W25110  41.122   0.139  10.269
52043W        W25111  40.716  28.689   2.704
52044W        W25112  23.642  16.676  10.195
52045W        W25113  19.046  34.551   2.180
52046W        W25114  36.811  28.430   1.384
52047W        W25115   9.234  40.972  14.941
52048W        W25116   9.198  35.299   0.999
52049W        W25117  43.375  14.756  12.018
52050W        W25118  30.435  38.963  12.409
52051W        W25119  43.796  26.578  12.583
52052W        W25120   6.130  30.915  11.147
52053W        W25121  21.661  13.707  12.856
52054W        W25122  15.108   6.167  12.000
52055W        W25123   5.106  43.384  11.125
52056W        W25124  40.840  44.275   1.511
52057W        W25125  32.560  36.554  12.483
52058W        W25126  35.457  30.540   2.770
52059W        W25127   7.676  14.591  13.328
52060W        W25128  32.494  21.260   3.331
52061W        W25129  15.844  28.882  11.095
52062W        W25130  44.036  42.351  13.532
52063W        W25131  20.934  40.752  11.542
52064W        W25132  32.396  11.122  10.637
52065W        W25133  22.715  30.481  13.830
52066W        W25134  10.582   7.332   2.362
52067W        W25135   5.608  29.997   1.335
52068W        W25136   7.361  23.048  13.117
52069W        W25137  17.089  35.596   3.198
52070W        W25138  15.554  40.067   0.841
52071W        W25139  18.674  11.220  11.037
52072W        W25140   6.667  41.964  14.919
52073W        W25141   2.690  42.012  10.738
52074W        W25142  40.573  10.660  13.081
52075W        W25143  39.518   8.645  10.883
52076W        W25144  30.142   7.241  12.556
52077W        W25145  12.308  43.011   0.394
52078W        W25146  14.269  25.602   1.002
52079W        W25147   4.404  21.271   2.756
52080W        W25148  44.519  11.957   0.151
52081W        W25149  40.581   0.419   3.722
52082W        W25150  30.116  27.588   1.414
52083W        W25151   0.818  32.228  10.628
52084W        W25152   7.761  27.873  13.887
52085W        W25153  10.776   8.743   4.595
52086W        W25154  31.462  13.800   2.415
52087W        W25155  33.843  35.993   2.615
52088W        W25156  12.315  11.855  14.529
52089W        W25157   5.979  20.007  11.943
52090W        W25158   7.809  44.689  12.269
52091W        W25159  18.879  15.669   1.930
52092W        W25160  13.740  20.652  10.626
52093W        W25161  34.936  26.341   0.784
52094W        W25162   8.163   8.174   1.786
52095W        W25163   1.954   8.944  11.041
52096W        W25164  40.337  18.238   2.666
52097W        W25165  30.424  28.309   1.222
52098W        W25166   2.328  12.293  13.971
52099W        W25167   6.753   8.936  13.123
52100W        W25168  11.605  39.373  14.863
52101W        W25169  34.540   4.821  10.929
52102W        W25170  44.519   9.674   3.700
52103W        W25171  20.171  38.484  13.377
52104W        W25172  33.502  29.669   2.225
52105W        W25173   0.153  24.180   1.321
52106W        W25174  31.853   8.992  12.413
52107W        W25175   5.263   2.758   4.536
52108W        W25176  30.529   3.021   0.034
52109W        W25177   7.594  15.912   1.663
52110W        W25178  37.012  44.250  12.924
52111W        W25179  30.353   6.347   3.863
52112W        W25180  20.979  12.987  11.071
52113W        W25181  19.747  40.032  12.622
52114W        W25182  16.874  33.075  14.023
52115W        W25183   6.664   9.528  14.269
52116W        W25184  31.620  15.117   4.041
52117W        W25185  42.436  40.809  10.446
52118W        W25186   4.784  24.718   0.121
52119W        W25187  24.628   8.415  10.782
52120W        W25188  26.438   5.868  13.423
52121W        W25189   6.180  30.051   4.656
52122W        W25190   4.538  41.489  10.707
52123W        W25191  37.306   7.820   2.367
52124W        W25192  17.528   4.581   4.255
52125W        W25193   3.351   3.005   0.324
52126W        W25194  23.620  20.141  12.239
52127W        W25195  29.542   0.407  12.009
52128W        W25196  18.420  34.646   3.077
52129W        W25197  34.035  30.697  11.911
52130W        W25198  11.923   1.372  10.400
52131W        W25199  17.263   3.353   4.397
52132W        W25200  11.423  22.215  12.289
52133W        W25201  44.118  13.343  13.341
52134W        W25202  10.175  35.128   3.241
52135W        W25203  22.990  18.337  14.763
52136W        W25204  35.601  27.449   3.155
52137W        W25205  32.407  34.232  11.327
52138W        W25206   2.264  29.168  13.043
52139W        W25207  27.396  19.554   1.457
52140W        W25208   7.353  38.922   4.918
52141W        W25209  32.433  13.692  11.021
52142W        W25210  43.916  20.156  14.063
52143W        W25211  32.086  37.465  10.824
52144W        W25212   4.481  28.073  13.619
52145W        W25213  16.394  12.268  13.485
52146W        W25214  28.214  35.830   0.020
52147W        W25215  26.579  33.534  14.322
52148W        W25216  42.752  30.494   1.734
52149W        W25217  32.377  28.742  14.195
52150W        W25218  31.384   3.683  13.503
52151W        W25219  34.531  10.822   1.327
52152W        W25220  33.592   0.158   4.483
52153W        W25221  12.915  17.146   2.779
52154W        W25222  21.742  28.694  12.498
52155W        W25223  37.250  44.193   2.152
52156W        W25224  29.437  34.162  14.873
52157W        W25225  43.848  19.000  14.883
52158W        W25226  21.200  28.056  11.943
52159W        W25227   5.200  11.109   2.615
52160W        W25228  31.006   4.077   3.258
52161W        W25229  26.573  31.576   1.765
52162W        W25230  26.474  44.411  10.730
52163W        W25231  41.852  35.386   0.863
52164W        W25232  15.996  32.470   2.216
52165W        W25233  39.029  35.394  11.561
52166W        W25234  11.415  21.275   1.158
52167W        W25235   7.112  39.613   1.729
52168W        W25236  21.441  15.206   0.456
52169W        W25237  22.193   9.911   2.276
52170W        W25238  36.186   5.937  12.004
52171W        W25239  39.281  14.700  11.231
52172W        W25240   0.367   1.022   3.309
52173W        W25241  20.288  14.690   0.353
52174W        W25242   9.824  25.273  14.349
52175W        W25243  35.601  37.004  10.946
52176W        W25244  14.501  16.817   4.191
52177W        W25245  25.403  21.541  13.585
52178W        W25246  11.440  18.370  11.170
52179W        W25247  30.493  29.705   0.947
52180W        W25248  26.195   4.927  13.040
52181W        W25249  30.380  15.267  12.002
52182W        W25250   6.419   8.818   4.533
52183W        W25251  17.231   4.747   5.112
52184W        W25252  42.823   2.770   4.355
52185W        W25253  27.577  32.362   4.685
52186W        W25254   8.466  34.772   4.063
52187W        W25255  43.483  30.653  12.976
52188W        W25256  11.164  20.579  11.499
52189W        W25257   0.770  10.338   5.023
52190W        W25258  44.718  14.001   0.298
52191W        W25259  32.299  34.571  14.755
52192W        W25260   3.901  44.295  13.117
52193W        W25261  37.914   6.905  13.779
52194W        W25262  34.378  34.145  14.879
52195W        W25263  14.217  20.952  12.693
52196W        W25264  12.718  20.492   3.121
52197W        W25265  13.587  37.755  10.564
52198W        W25266   2.795   3.202  13.785
52199W        W25267  42.811  32.691   4.264
52200W        W25268  11.897  11.806  11.982
52201W        W25269   0.355  26.278   3.139
52202W        W25270  39.537  28.501  12.017
52203W        W25271  29.285  25.984   3.240
52204W        W25272  42.299   4.699   2.114
52205W        W25273  36.681   4.976  14.384
52206W        W25274  31.336  23.499   2.153
52207W        W25275  15.859  33.895   3.594
52208W        W25276  36.452  37.059  11.082
52209W        W25277   7.794  44.660  13.126
52210W        W25278  15.825  29.590   0.255
52211W        W25279   7.843  25.002   0.299
52212W        W25280  30.121   6.450  13.895
52213W        W25281  39.882   9.788  10.787
52214W        W25282  26.933  34.994   2.547
52215W        W25283  28.113   3.656   1.623
52216W        W25284  37.492  40.443   1.864
52217W        W25285  22.049  26.221   0.418
52218W        W25286   2.926   2.593   4.269
52219W        W25287  23.050  27.499   1.273
52220W        W25288  42.361  25.941  13.823
52221W        W25289  35.415  15.828   0.029
52222W        W25290  41.452  20.221  10.714
52223W        W25291   4.264  16.127  11.166
52224W        W25292  14.594  33.974  14.450
52225W        W25293  20.838  34.554  14.856
52226W        W25294  43.973  26.184  12.194
52227W        W25295  14.377   3.706  11.613
52228W        W25296   7.664  27.077  12.696
52229W        W25297  41.855  25.012  14.886
52230W        W25298  31.662  15.842   2.706
52231W        W25299  23.714  44.248   3.384
52232W        W25300   9.528   4.438   3.936
52233W        W25301   6.377  18.074   1.658
52234W        W25302  27.686  32.545  12.699
52235W        W25303   4.024  25.430  12.556
52236W        W25304   9.714  43.042  10.569
52237W        W25305   2.020   8.784   1.471
52238W        W25306  12.347  44.949   3.240
52239W        W25307   1.351  14.092   4.562
52240W        W25308  33.941  12.342  12.801
52241W        W25309   6.946  30.530  11.613
52242W        W25310  25.219  42.053  11.030
52243W        W25311  11.765  28.627   1.861
52244W        W25312  23.785  12.469   0.154
52245W        W25313   7.756   2.339   0.042
52246W        W25314  40.052  10.549  13.932
52247W        W25315   1.970   4.124   2.214
52248W        W25316  24.160   0.011   1.418
52249W        W25317   9.122  27.959  13.834
52250W        W25318  12.156  43.660   3.182
52251W        W25319  30.636  14.734  13.304
52252W        W25320  18.029  25.025  12.125
52253W        W25321   1.904  19.574   4.091
52254W        W25322  23.483  37.039  13.007
52255W        W25323  37.018  42.331   2.658
52256W        W25324  10.320   4.095   5.013
52257W        W25325  11.637  18.086   1.306
52258W        W25326  28.686  10.722  11.937
52259W        W25327  19.618  27.688   3.788
52260W        W25328  35.495  42.070  12.846
52261W        W25329   8.760  12.223   2.719
52262W        W25330   6.626  19.783   1.875
52263W        W25331   1.407   9.311  13.129
52264W        W25332  41.313   9.061   4.646
52265W        W25333   8.866  44.813  11.911
52266W        W25334  21.786  31.668  13.333
52267W        W25335  33.802  38.465  13.662
52268W        W25336  19.777   3.967   2.231
52269W        W25337  40.715  35.862  11.640
52270W        W25338  28.815  24.416   4.075
52271W        W25339  24.788   1.407   1.702
52272W        W25340  42.953  10.646  14.031
52273W        W25341  27.670  34.325   0.375
52274W        W25342  10.188  38.981   4.593
52275W        W25343  26.348  10.630  10.598
52276W        W25344  40.496  19.109  13.157
52277W        W25345  35.857  34.450   0.579
52278W        W25346  34.783  16.001   0.759
52279W        W25347  20.354  34.502  14.723
52280W        W25348  31.874  37.032  14.745
52281W        W25349  23.453  11.918   3.707
52282W        W25350  41.618  35.087   3.157
52283W        W25351  40.931   6.819   2.652
52284W        W25352  18.764  14.703   1.281
52285W        W25353  39.042   2.739  12.028
52286W        W25354  25.679  37.096  14.294
52287W        W25355  17.511   6.617   0.678
52288W        W25356   1.180   6.781  10.799
52289W        W25357  24.493  19.127   4.655
52290W        W25358   0.041   0.727   2.963
52291W        W25359  15.757  41.280   0.100
52292W        W25360  16.377  10.108  11.955
52293W        W25361   3.933  43.239   1.988
52294W        W25362  30.846  14.340   0.827
52295W        W25363  22.764  36.860  12.436
52296W        W25364   1.268  11.251  14.963
52297W        W25365  18.346  41.553   3.247
52298W        W25366  33.860  13.364   2.883
52299W        W25367  13.142  20.419   2.817
52300W        W25368  36.282   9.401   1.803
52301W        W25369   8.875  30.973  14.225
52302W        W25370   1.846   3.257   4.214
52303W        W25371  23.607  14.523  14.293
52304W        W25372  15.607   9.304   4.155
52305W        W25373  35.369  21.062   1.528
52306W        W25374  36.056  19.605   0.708
52307W        W25375   4.257  35.951   1.469
52308W        W25376   9.507  19.605   0.331
52309W        W25377  44.845  22.475  11.571
52310W        W25378  22.671  39.301  12.226
52311W        W25379  24.663   4.491   0.464
52312W        W25380  14.052  40.488   4.590
52313W        W25381  20.086   1.350  13.804
52314W        W25382   5.948  12.871   1.837
52315W        W25383  30.014   5.973   3.397
52316W        W25384  23.179  35.794   1.473
52317W        W25385  14.930  22.831  10.146
52318W        W25386   2.185  12.490   1.422
52319W        W25387  32.002  43.174  13.858
52320W        W25388  25.495  42.420   3.630
52321W        W25389  12.382  40.328   2.324
52322W        W25390  11.920  24.988  14.460
52323W        W25391  28.677   8.953   0.518
52324W        W25392   0.010  40.518  10.880
52325W        W25393  39.864  28.532  13.895
52326W        W25394   6.218   7.606  14.995
52327W        W25395  33.156  42.744  12.951
52328W        W25396  22.765  35.496   1.428
52329W        W25397  10.281  12.141  11.161
52330W        W25398   9.557  38.535   1.474
52331W        W25399  10.048  36.488  12.558
52332W        W25400  40.872   0.581   3.312
52333W        W25401  13.068  33.902  11.392
52334W        W25402  20.573   5.802  13.831
52335W        W25403  27.179  27.596  11.206
52336W        W25404  39.078  24.755  13.880
52337W        W25405  31.018  38.952   4.560
52338W        W25406   0.948  44.895   4.875
52339W        W25407   4.029  32.594   4.156
52340W        W25408   3.966   6.514   4.032
52341W        W25409  12.234  22.060  11.897
52342W        W25410  32.362  22.183  13.098
52343W        W25411  30.098   2.461  11.586
52344W        W25412  18.234  11.160   1.919
52345W        W25413  38.645   1.731  12.025
52346W        W25414  28.570  20.092  14.484
52347W        W25415  40.495  40.971   1.752
52348W        W25416   0.972   7.195   4.043
52349W        W25417  20.544   8.783  13.690
52350W        W25418  29.869  32.901  12.539
52351W        W25419  14.762   2.925  12.018
52352W        W25420  41.053   5.607   3.735
52353W        W25421  30.388  34.080   0.064
52354W        W25422  43.949  13.567   4.376
52355W        W25423  37.764  18.394   2.989
52356W        W25424  41.716  29.542  11.504
52357W        W25425  30.846  43.457   1.055
52358W        W25426  23.811  44.697   1.728
52359W        W25427  26.032   1.833   0.292
52360W        W25428   8.188  24.016   1.387
52361W        W25429  43.712   1.007   0.003
52362W        W25430  18.320  40.531  12.626
52363W        W25431  29.848  22.382  13.037
52364W        W25432  38.074  28.587  10.656
52365W        W25433  26.013  39.993   9.852
52366W        W25434   0.724  44.973   2.747
52367W        W25435  15.727  34.881  10.572
52368W        W25436  27.633  14.554   2.387
52369W        W25437  15.044  17.098   1.719
52370W        W25438  17.326  17.168  14.032
52371W        W25439  35.649  17.843   1.479
52372W        W25440   3.939  31.590   3.176
52373W        W25441  13.828  44.773  13.036
52374W        W25442  38.586  10.784  14.878
52375W        W25443  25.281  14.535   1.447
52376W        W25444   5.875   6.112  11.154
52377W        W25445  21.309  44.297   0.242
52378W        W25446  39.063  15.090   3.283
52379W        W25447  18.950  31.320   0.229
52380W        W25448   9.206  13.005   2.855
52381W        W25449  22.302  12.472   0.377
52382W        W25450  16.342  28.556   3.637
52383W        W25451  25.694  44.007   4.401
52384W        W25452  23.918  13.766   3.693
52385W        W25453  39.725  30.853  11.994
52386W        W25454   5.286   2.591   2.288
52387W        W25455  43.404   6.910  12.894
52388W        W25456  30.137   2.739   3.818
52389W        W25457   5.687   0.578   2.925
52390W        W25458   8.283   8.362  14.316
52391W        W25459  26.475  43.627  14.866
52392W        W25460   8.248  18.210  14.801
52393W        W25461   2.772  10.638   3.587
52394W        W25462   0.310  10.189  14.222
52395W        W25463  34.802  24.626  13.142
52396W        W25464  39.678  13.112   1.204
52397W        W25465   8.280  16.950   1.378
52398W        W25466  28.438  34.206   4.036
52399W        W25467  14.136  43.999  11.512
52400W        W25468  10.632   3.874   4.496
52401W        W25469  42.393  29.382  10.572
52402W        W25470  20.763  38.356   0.812
52403W        W25471  17.158   7.754   0.330
52404W        W25472  11.761  15.022  11.208
52405W        W25473   8.301   2.175  10.782
52406W        W25474  38.284  29.682  11.878
52407W        W25475  15.827  10.544   3.059
52408W        W25476  35.864  44.873  14.732
52409W        W25477  27.295   2.596   3.175
52410W        W25478  27.236  22.530   3.540
52411W        W25479  31.587  10.794   1.714
52412W        W25480  26.163  15.302  14.013
52413W        W25481  37.667  21.157   1.462
52414W        W25482  30.023  32.618   3.077
52415W        W25483   8.843  27.108   4.563
52416W        W25484  28.737  33.880  13.689
52417W        W25485  22.108   2.878   1.967
52418W        W25486  39.094  32.734   5.060
52419W        W25487  21.929  18.185  13.019
52420W        W25488  43.872  33.106   4.541
52421W        W25489   6.844  40.812  13.019
52422W        W25490  20.002  33.407   2.745
52423W        W25491  13.027  31.982  13.057
52424W        W25492  34.971  36.849   0.286
52425W        W25493  26.753   1.221  12.400
52426W        W25494  16.899  33.188  10.790
52427W        W25495  21.638  10.081  11.507
52428W        W25496  28.072   2.308   0.629
52429W        W25497  26.232   9.810  10.171
52430W        W25498  20.013  31.455  13.854
52431W        W25499  13.971  27.600   2.600
52432W        W25500  21.648   3.109   1.801
52433W        W25501  12.666  10.235  10.643
52434W        W25502   2.770  21.120  14.714
52435W        W25503  32.186  26.340  14.400
52436W        W25504   6.460  33.394  12.540
52437W        W25505  33.368  43.861   3.953
52438W        W25506  13.653   3.590  13.849
52439W        W25507  31.143  12.709   3.184
52440W        W25508  12.176  19.752   3.078
52441W        W25509  32.217  20.048  13.266
52442W        W25510  29.041  33.259  11.674
52443W        W25511  26.624  42.688   1.523
52444W        W25512  39.849   0.988  11.556
52445W        W25513  12.249  15.856   1.340
52446W        W25514  11.112  41.404  13.498
52447W        W25515  17.467   2.737   0.858
52448W        W25516   9.374  12.845   1.154
52449W        W25517  22.623  30.620   0.115
52450W        W25518  30.849   8.923   3.176
52451W        W25519  20.631  41.082   0.539
52452W        W25520   9.149   6.226   4.149
52453W        W25521  44.781  36.598  14.953
52454W        W25522  34.067  20.136   3.592
52455W        W25523  13.245  18.518   2.870
52456W        W25524  44.401  10.228  14.728
52457W        W25525  36.165  36.831  14.832
52458W        W25526  34.049  31.896  14.248
52459W        W25527  18.329  35.481  12.767
52460W        W25528  44.017  40.318   1.976
52461W        W25529  11.500   4.683  13.425
52462W        W25530   2.965  23.495   3.427
52463W        W25531  32.462  20.964  11.372
52464W        W25532  26.500  29.676  10.771
52465W        W25533  44.947  40.303  11.358
52466W        W25534  24.134  27.696   3.876
52467W        W25535  44.983  31.450  12.839
52468W        W25536  25.527  33.579   2.616
52469W        W25537   8.122  28.312  10.949
52470W        W25538  34.352  22.486   4.581
52471W        W25539  22.251  16.658   2.375
52472W        W25540  13.594  39.257   0.885
52473W        W25541  40.838  13.889  13.844
52474W        W25542  30.608   9.317   0.835
52475W        W25543  40.739  13.758  13.360
52476W        W25544  39.064  22.204   4.549
52477W        W25545  32.839  24.607   2.300
52478W        W25546  41.377  25.976   2.988
52479W        W25547  39.424  25.181   1.654
52480W        W25548   2.561  43.194  14.080
52481W        W25549  31.228  43.310   1.478
52482W        W25550  17.468  44.291  10.781
52483W        W25551  37.354  18.484  12.138
52484W        W25552  14.306   2.682   1.988
52485W        W25553  31.976  17.931  10.246
52486W        W25554  17.244   6.243   3.852
52487W        W25555  19.697   2.040  13.492
52488W        W25556  17.551   3.817   2.808
52489W        W25557  35.133  24.566  11.677
52490W        W25558  19.109  22.962  12.616
52491W        W25559   3.782  16.848   4.113
52492W        W25560  21.330   5.828  14.305
52493W        W25561  37.839  12.785   1.498
52494W        W25562  35.433  42.780  14.599
52495W        W25563  11.264  43.321   3.647
52496W        W25564   3.407  35.869   3.130
52497W        W25565   9.671  13.259   2.781
52498W        W25566  43.670  18.586  12.939
52499W        W25567   2.292  11.272  12.614
52500W        W25568  29.926  38.060  14.181
52501W        W25569  21.043   1.923  13.910
52502W        W25570  11.627  27.862  14.475
52503W        W25571   4.042  38.351  10.990
52504W        W25572   3.133  10.754   1.620
52505W        W25573   5.001  30.438   3.317
52506W        W25574  27.716  22.295   4.890
52507W        W25575  39.386  42.463   1.502
52508W        W25576  32.379  38.921   3.256
52509W        W25577  41.210  32.213   4.228
52510W        W25578  22.982   5.136   0.388
52511W        W25579  31.028  20.509   0.545
52512W        W25580   9.551  13.460  14.853
52513W        W25581  10.302  40.319  11.714
52514W        W25582  16.844   9.891   3.658
52515W        W25583  12.732  41.368   1.652
52516W        W25584  42.574  34.916   0.379
52517W        W25585  13.651  30.295   0.929
52518W        W25586  41.309  11.168  10.825
52519W        W25587  40.376  31.279   3.293
52520W        W25588   3.950  41.292   2.291
52521W        W25589   5.931  20.207   0.290
52522W        W25590  43.556  29.155  11.760
52523W        W25591  25.740  27.081   2.296
52524W        W25592   0.168   4.715  13.082
52525W        W25593  30.121  17.738   1.928
52526W        W25594  20.517  44.033  11.573
52527W        W25595  22.883  24.697   4.136
52528W        W25596  19.315  21.176  13.078
52529W        W25597   1.375  27.896  12.687
52530W        W25598   0.766  37.456   2.833
52531W        W25599   5.043  33.176   3.588
52532W        W25600  19.997   1.314   2.494
52533W        W25601  35.137  32.580   2.663
52534W        W25602  23.461  39.551   9.852
52535W        W25603   7.752  31.415   1.223
52536W        W25604  41.863  22.773   2.419
52537W        W25605  37.227  21.267   3.157
52538W        W25606   8.307  18.180   2.756
52539W        W25607   7.375  27.927  13.570
52540W        W25608  33.227  15.717  13.422
52541W        W25609  41.527  22.634   3.738
52542W        W25610  25.114  37.597  12.572
52543W        W25611  19.626   1.483   2.180
52544W        W25612  37.500  39.464   0.262
52545W        W25613  37.465  24.975   3.761
52546W        W25614  34.502  15.278   0.855
52547W        W25615   2.714  27.590   1.199
52548W        W25616  23.239   1.745  13.425
52549W        W25617  30.942   9.207   2.194
52550W        W25618  17.311  25.912  11.621
52551W        W25619  11.748  12.420   1.921
52552W        W25620  19.085  30.451   0.649
52553W        W25621  19.277  25.530  12.484
52554W        W25622  16.784   2.716  11.905
52555W        W25623  12.762  17.178  13.538
52556W        W25624  39.711  26.255  14.534
52557W        W25625  31.083  20.993   3.259
52558W        W25626  35.083  28.178   1.151
52559W        W25627   2.400  30.334   0.263
52560W        W25628  17.154  39.895   1.210
52561W        W25629   9.228  27.181  11.142
52562W        W25630   3.560  35.432  10.909
52563W        W25631   1.868  25.549  12.104
52564W        W25632  28.178   5.776   2.013
52565W        W25633  18.839  12.894   3.218
52566W        W25634  26.135  27.484  12.507
52567W        W25635  40.261  22.251   3.690
52568W        W25636   7.107   0.904  12.225
52569W        W25637  32.622  28.517   4.533
52570W        W25638  23.687  33.823  12.455
52571W        W25639   6.447   0.912  10.299
52572W        W25640  16.654  17.091  11.491
52573W        W25641  14.642  28.177   0.257
52574W        W25642  25.263  32.305  12.689
52575W        W25643  41.010  30.151  12.496
52576W        W25644  36.069  38.004   3.381
52577W        W25645  38.374   6.034   0.507
52578W        W25646  37.943  36.660  12.194
52579W        W25647  11.629  38.027   0.645
52580W        W25648  18.289  13.717   0.723
52581W        W25649  25.713  11.195   3.003
52582W        W25650  34.541  43.339   0.236
52583W        W25651  41.949  11.697   0.893
52584W        W25652  18.685  31.172   2.354
52585W        W25653  11.703  37.012  12.071
52586W        W25654   6.271   2.432   1.329
52587W        W25655  19.376  34.345   0.708
52588W        W25656  37.030  31.506   3.747
52589W        W25657   7.244  15.211  12.815
52590W        W25658  29.762  44.472  10.725
52591W        W25659  33.708  37.040   2.920
52592W        W25660  20.312  13.085  14.893
52593W        W25661  23.427  24.230   3.374
52594W        W25662   1.289  19.686   1.729
52595W        W25663  11.142  38.390  10.610
52596W        W25664   6.954   4.721  12.569
52597W        W25665  44.279  20.804  11.610
52598W        W25666  36.990  36.924   4.683
52599W        W25667   4.782  20.360  13.160
52600W        W25668  40.109  38.125  13.258
52601W        W25669   4.750  34.542  13.095
52602W        W25670  20.605  23.999  14.894
52603W        W25671   5.240  12.803   2.253
52604W        W25672  30.594  13.346   1.060
52605W        W25673  37.810   2.863   0.670
52606W        W25674  19.583  31.228  12.961
52607W        W25675  31.350  24.524   3.534
52608W        W25676  40.503  11.900   5.161
52609W        W25677  36.367  10.761  12.392
52610W        W25678  33.933   3.018   3.404
52611W        W25679  29.833  30.056   1.164
52612W        W25680  30.955  39.664  11.701
52613W        W25681   4.514  15.862   1.314
52614W        W25682   6.455   4.214   2.176
52615W        W25683  37.415  35.875   2.250
52616W        W25684  38.051  43.892   2.358
52617W        W25685  26.098  23.997   2.337
52618W        W25686   5.139  25.763   2.921
52619W        W25687  18.622  21.270   4.044
52620W        W25688  36.593  14.132   0.983
52621W        W25689  42.749  36.844   0.809
52622W        W25690  43.338  40.063  12.056
52623W        W25691  25.205   3.447  14.237
52624W        W25692  36.874  13.785  11.418
52625W        W25693   8.639  33.307  13.346
52626W        W25694   4.805   6.404   2.693
52627W        W25695   5.980  44.301  11.690
52628W        W25696  29.496  21.533   2.372
52629W        W25697   3.945   6.754   1.381
52630W        W25698  10.421  37.326  13.659
52631W        W25699  16.651  11.873  12.791
52632W        W25700  13.295  38.622  11.751
52633W        W25701  42.503  28.473  11.600
52634W        W25702  17.009   0.307  14.829
52635W        W25703  37.949  13.766  14.431
52636W        W25704   2.048  40.120   1.347
52637W        W25705  42.393  16.316   4.092
52638W        W25706  23.695  34.291   4.501
52639W        W25707  31.422   9.313  12.092
52640W        W25708  28.563  33.635   4.185
52641W        W25709   1.321  26.526   1.759
52642W        W25710  23.792   5.689  12.792
52643W        W25711  27.485  30.241   2.349
52644W        W25712   4.387  22.401   3.496
52645W        W25713  43.033  11.452  11.887
52646W        W25714  23.762  39.146   2.753
52647W        W25715  26.488   6.963  10.756
52648W        W25716  18.628   4.637  11.993
52649W        W25717  43.346  11.211  14.725
52650W        W25718  13.388  14.600   0.669
52651W        W25719  11.469  11.711   0.366
52652W        W25720  44.992  18.486   3.963
52653W        W25721  38.427  17.205   3.702
52654W        W25722  42.692  13.084   3.986
52655W        W25723  20.208   5.267  13.783
52656W        W25724   1.422  32.416   1.499
52657W        W25725  21.011  36.108  12.483
52658W        W25726  30.573   1.048  11.153
52659W        W25727   2.329  28.335   2.152
52660W        W25728  22.772  15.674  10.006
52661W        W25729  10.052  17.555  13.461
52662W        W25730  26.035  32.113   2.040
52663W        W25731  38.817   7.491   2.711
52664W        W25732  28.223   8.623  10.774
52665W        W25733  30.238  17.774   3.249
52666W        W25734   1.294   0.472   3.167
52667W        W25735   7.486  39.315   5.221
52668W        W25736  18.112  36.627   1.718
52669W        W25737  25.019  20.706   1.536
52670W        W25738   1.811  15.300   2.468
52671W        W25739  39.082  30.949  10.492
52672W        W25740   5.977  32.472  11.143
52673W        W25741  12.300  20.701   2.286
52674W        W25742  37.554  22.099   1.949
52675W        W25743  36.879  39.215   1.460
52676W        W25744  43.763  40.080  11.079
52677W        W25745  42.755   6.822  14.900
52678W        W25746  25.984   0.529  10.812
52679W        W25747   9.435  22.013   4.526
52680W        W25748  26.236   6.021   3.639
52681W        W25749   4.281   9.814  14.317
52682W        W25750  25.692  25.180  12.457
52683W        W25751  35.883  12.775   4.924
52684W        W25752  19.011  11.361   2.491
52685W        W25753   1.310  35.462   3.329
52686W        W25754  24.581  23.971   0.250
52687W        W25755   6.722   9.651  10.982
52688W        W25756  34.458  17.240  13.998
52689W        W25757  21.823  33.092   0.871
52690W        W25758  23.208  10.158  10.746
52691W        W25759  26.177   3.658  10.757
52692W        W25760  10.273  21.719   4.425
52693W        W25761  28.412   7.674  11.625
52694W        W25762  35.103   1.872  11.947
52695W        W25763  11.461   1.377  13.356
52696W        W25764  41.349  12.903   1.807
52697W        W25765   5.831  37.057  14.488
52698W        W25766   3.352  19.005   4.998
52699W        W25767   2.455  35.157   2.474
52700W        W25768  23.940  19.541  13.184
52701W        W25769  30.300  15.835  12.850
52702W        W25770   9.898  24.989   3.876
52703W        W25771  35.851   5.954  12.639
52704W        W25772  16.194  11.380  11.539
52705W        W25773  35.255  39.455  11.167
52706W        W25774  40.777  22.755  12.089
52707W        W25775  17.612  19.740  10.689
52708W        W25776  43.549   1.731   3.104
52709W        W25777  12.494  35.352  11.134
52710W        W25778  27.438  23.685   3.655
52711W        W25779  24.594  36.521   1.246
52712W        W25780   2.851  22.764  13.378
52713W        W25781  33.003  37.995  13.469
52714W        W25782  37.114  34.720   1.397
52715W        W25783  28.717  21.501   0.861
52716W        W25784  11.165  13.736  12.064
52717W        W25785  15.567  36.901   2.188
52718W        W25786  16.680  23.427   2.413
52719W        W25787   9.338   2.664   0.973
52720W        W25788  29.645   5.307  10.333
52721W        W25789  21.304  10.772   0.657
52722W        W25790  42.889  11.441  14.869
52723W        W25791  35.422   1.689  10.768
52724W        W25792  25.917  15.699   1.525
52725W        W25793  14.190  29.346  11.528
52726W        W25794  11.001   3.550   2.289
52727W        W25795  39.647  44.938  12.109
52728W        W25796  12.819  43.308  12.570
52729W        W25797  32.522  15.306   1.849
52730W        W25798  11.035  25.240  13.475
52731W        W25799  18.466   5.091  12.158
52732W        W25800  30.736  33.830  13.405
52733W        W25801  21.261  39.346   0.373
52734W        W25802   3.761   1.469   2.804
52735W        W25803   5.656   2.653   3.591
52736W        W25804  38.499  16.070   1.826
52737W        W25805  18.944   5.114  11.980
52738W        W25806   5.318  10.603  14.823
52739W        W25807  43.860   8.764  10.401
52740W        W25808  16.627  21.855  14.519
52741W        W25809  30.093   0.739   3.714
52742W        W25810  18.682  10.864  14.053
52743W        W25811  15.126  27.203   4.786
52744W        W25812  40.551  20.769  13.897
52745W        W25813  15.666   3.426  12.737
52746W        W25814  10.811   6.771   1.785
52747W        W25815  17.706  14.602   0.383
52748W        W25816  37.263  44.768  14.495
52749W        W25817  38.780   9.273   1.131
52750W        W25818  13.356  33.834   1.383
52751W        W25819  17.690   3.973  13.644
52752W        W25820   9.186   4.775   4.635
52753W        W25821  28.128  31.536  12.530
52754W        W25822  39.777  29.030  14.457
52755W        W25823   1.091   3.114  12.141
52756W        W25824  34.210   5.224  13.849
52757W        W25825  22.646  23.996   4.612
52758W        W25826   7.154  24.703   2.797
52759W        W25827   5.410  19.812  13.588
52760W        W25828  35.844  41.325   4.768
52761W        W25829  14.804   4.516   3.912
52762W        W25830  30.037  27.459   2.322
52763W        W25831   4.221  38.518   1.851
52764W        W25832  32.044  35.473  13.078
52765W        W25833  19.636  20.374  12.058
52766W        W25834   8.735  27.271  12.957
52767W        W25835  20.222  24.554  14.085
52768W        W25836  11.637  36.460  12.929
52769W        W25837  37.368  37.031   2.938
52770W        W25838  20.592  35.644  14.357
52771W        W25839  33.203  11.631   5.202
52772W        W25840  44.175  21.996   2.314
52773W        W25841   4.937  15.349  12.277
52774W        W25842  44.357  10.129  12.021
52775W        W25843  37.321  13.621  11.638
52776W        W25844  11.116  27.934   1.408
52777W        W25845   9.717  31.635  13.797
52778W        W25846  14.854  16.208  14.294
52779W        W25847  28.347   2.310   3.423
52780W        W25848  42.081  21.135   3.259
52781W        W25849  43.811  36.190  12.045
52782W        W25850  27.822  32.572   2.648
52783W        W25851   4.328  18.930   1.786
52784W        W25852  41.532   4.244   4.128
52785W        W25853  14.085  19.598   4.639
52786W        W25854  16.374  22.455   0.774
52787W        W25855  12.583  24.617   3.218
52788W        W25856  38.504   4.023  12.134
52789W        W25857  12.668  25.005   0.801
52790W        W25858  35.053  41.356   4.066
52791W        W25859  41.759   6.798   1.150
52792W        W25860  43.903  29.056  14.256
52793W        W25861  34.058  25.307  12.130
52794W        W25862  22.163  18.630  12.935
52795W        W25863  28.635  11.932   0.574
52796W        W25864  11.404  41.173   2.694
52797W        W25865  28.152  11.343  14.443
52798W        W25866   4.507   2.375  14.819
52799W        W25867  39.180  44.904   1.484
52800W        W25868  16.971  40.447   1.889
52801W        W25869  21.596  43.525  12.836
52802W        W25870  28.562   6.198   3.317
52803W        W25871   5.166   6.817  13.838
52804W        W25872  28.927  39.854  10.876
52805W        W25873  16.209  24.591   4.592
52806W        W25874  42.863  14.094  11.779
52807W        W25875  31.235  31.428  13.494
52808W        W25876  24.583  22.702   1.921
52809W        W25877  35.469  22.710  11.135
52810W        W25878  42.463  26.511   4.771
52811W        W25879   0.033  19.537   2.058
52812W        W25880  30.547  34.966  11.999
52813W        W25881  39.676  22.140  11.989
52814W        W25882  41.805  42.922   3.805
52815W        W25883   6.706  23.264  11.207
52816W        W25884   2.961  39.458  14.367
52817W        W25885  34.529  28.204   1.780
52818W        W25886  15.347  12.181  10.989
52819W        W25887  31.818   0.729   4.894
52820W        W25888  37.412  27.156   1.858
52821W        W25889  25.666  20.167  13.336
52822W        W25890  38.787  21.856   0.395
52823W        W25891  25.674   4.505   1.966
52824W        W25892  35.322  32.828   3.338
52825W        W25893  38.956  21.015  10.727
52826W        W25894   5.198  33.496  12.311
52827W        W25895  42.434  12.641   0.822
52828W        W25896   3.778  16.285   0.518
52829W        W25897  11.499  14.052  12.397
52830W        W25898  28.083   4.827   1.515
52831W        W25899  44.385  19.559   0.631
52832W        W25900   0.544  43.801   2.317
52833W        W25901  44.474  35.692   2.595
52834W        W25902  22.774  40.575  14.470
52835W        W25903   9.703  41.475   1.858
52836W        W25904  29.627  35.466   1.835
52837W        W25905   8.333  38.108  12.321
52838W        W25906  36.844   9.474   0.830
52839W        W25907  21.141  37.586   4.232
52840W        W25908  18.129   7.275   3.644
52841W        W25909  12.150  22.363   4.064
52842W        W25910   8.601  11.693  11.556
52843W        W25911  16.535  40.498  12.571
52844W        W25912  20.624  17.794   0.301
52845W        W25913  17.863  16.578  10.785
52846W        W25914   5.748  36.365  11.140
52847W        W25915  25.386  10.890  10.279
52848W        W25916  11.553   9.178   1.869
52849W        W25917  11.799  10.033   3.314
52850W        W25918  30.712  11.424   0.755
52851W        W25919  18.219  29.187   4.357
52852W        W25920  10.484  13.262   3.089
52853W        W25921  14.153  10.034  12.007
52854W        W25922  21.215  24.368   3.651
52855W        W25923  43.850  15.244  13.060
52856W        W25924  28.023  40.276   3.086
52857W        W25925   9.201   9.322  14.409
52858W        W25926  11.619  14.579  14.631
52859W        W25927  29.434  15.349   1.264
52860W        W25928  19.131  37.789   2.719
52861W        W25929  12.143   7.927  13.791
52862W        W25930  44.248   7.761  13.906
52863W        W25931  44.026  22.067  13.932
52864W        W25932  22.253  30.659   4.215
52865W        W25933  33.052  44.064  13.460
52866W        W25934  12.247  22.125  13.872
52867W        W25935  44.709  26.768  14.784
52868W        W25936  15.966  29.935  14.812
52869W        W25937   4.333   2.531  10.657
52870W        W25938  17.053   0.845  10.656
52871W        W25939  22.085  24.726   1.916
52872W        W25940  38.817  33.123   4.511
52873W        W25941  32.430  35.804  11.009
52874W        W25942  11.656  14.083  10.071
52875W        W25943  42.153  20.056  12.813
52876W        W25944  10.745  31.108   2.928
52877W        W25945  31.552  37.358   1.180
52878W        W25946  39.472   5.888   0.772
52879W        W25947   5.772  26.298  13.152
52880W        W25948  19.156  33.843  13.531
52881W        W25949   7.169  37.511   5.013
52882W        W25950  26.475  44.524   5.313
52883W        W25951  42.918   1.884  13.329
52884W        W25952  10.890  25.987   0.643
52885W        W25953   5.785   1.439   0.295
52886W        W25954  44.776  24.586  11.466
52887W        W25955  25.745  13.346   4.155
52888W        W25956  23.450   4.723  14.322
52889W        W25957  42.864  36.520   2.314
52890W        W25958  37.629  33.411  14.614
52891W        W25959  41.821  41.274   1.769
52892W        W25960  15.207  18.045  14.063
52893W        W25961   8.778  34.169  14.413
52894W        W25962  10.882  42.504  14.477
52895W        W25963  32.456  27.030  12.397
52896W        W25964  39.013   6.940  11.462
52897W        W25965   0.323  38.819  13.623
52898W        W25966   2.823  38.839   4.341
52899W        W25967  42.282  28.873  10.508
52900W        W25968  42.325   5.470   3.251
52901W        W25969  14.267  14.053   2.446
52902W        W25970  41.262  31.997   4.775
52903W        W25971  21.684  35.101   4.506
52904W        W25972  40.528  13.866   3.263
52905W        W25973  43.875  16.655   2.448
52906W        W25974   0.761  25.835  13.638
52907W        W25975   6.454  33.933   2.782
52908W        W25976  28.341  30.142  13.335
52909W        W25977  41.327  10.290  14.501
52910W        W25978   8.808  19.796   2.720
52911W        W25979  20.758  12.062  11.286
52912W        W25980  32.913  35.498  11.638
52913W        W25981   4.283   5.939  14.207
52914W        W25982  12.290  12.888  11.997
52915W        W25983  36.660  31.004   0.754
52916W        W25984  24.524  22.568   3.395
52917W        W25985   6.951  25.094  10.784
52918W        W25986  35.961  24.586  12.116
52919W        W25987  13.689  39.425   2.803
52920W        W25988  42.568  15.238  14.417
52921W        W25989   8.092  13.271  13.467
52922W        W25990  16.075  19.296   1.340
52923W        W25991  29.484  41.559  10.554
52924W        W25992  41.662  32.610   3.338
52925W        W25993   6.126  38.936   1.199
52926W        W25994  39.476   8.465   2.011
52927W        W25995   0.779  25.986  13.118
52928W        W25996  19.004  39.397   0.593
52929W        W25997   1.350  40.458   3.986
52930W        W25998  12.836  16.855   1.897
52931W        W25999  25.248  22.664  10.560
52932W        W26000  29.486   0.511   0.329
52933W        W26001  31.113  23.121  10.410
52934W        W26002  13.623   2.399  13.022
52935W        W26003  20.535  23.234   3.342
52936W        W26004  27.608   1.297  12.078
52937W        W26005  28.673  35.516  13.472
52938W        W26006  13.592  10.748  10.995
52939W        W26007  12.435  30.443  11.411
52940W        W26008  22.502   3.875  11.939
52941W        W26009  37.358   2.884  10.467
52942W        W26010  41.330  43.714  10.658
52943W        W26011  39.340   1.480   2.229
52944W        W26012  28.115  13.943  11.024
52945W        W26013  44.398   4.209  13.911
52946W        W26014   7.565   0.991  11.076
52947W        W26015  11.874  27.707   1.793
52948W        W26016   3.895   0.747  10.453
52949W        W26017   7.390  23.738   2.557
52950W        W26018  33.948  14.153   3.223
52951W        W26019  18.054  28.048   1.886
52952W        W26020  44.944  10.563  10.905
52953W        W26021  12.425  27.858  12.172
52954W        W26022  35.391  23.103   3.706
52955W        W26023   4.657  26.848  12.583
52956W        W26024  13.604  11.689   1.662
52957W        W26025   0.457  33.092   2.339
52958W        W26026  12.172  38.945  11.529
52959W        W26027   3.362  40.652   0.170
52960W        W26028   5.832  22.523  14.489
52961W        W26029  42.321  32.497  12.317
52962W        W26030  42.001  40.918  14.855
52963W        W26031  42.166  39.916  12.048
52964W        W26032   4.403  35.957   3.762
52965W        W26033   6.328  16.742   1.247
52966W        W26034  37.889  15.701  13.858
52967W        W26035  35.850  19.082   4.832
52968W        W26036  41.241   1.671  13.972
52969W        W26037   2.724  36.376   4.318
52970W        W26038   6.386  22.094  12.921
52971W        W26039  10.391  40.659  12.528
52972W        W26040  25.768   3.296   1.880
52973W        W26041  42.891   8.681  10.379
52974W        W26042  40.883  24.256   0.482
52975W        W26043  37.143  13.446  13.693
52976W        W26044  11.239  43.960  14.428
52977W        W26045   4.742  25.419  11.995
52978W        W26046  44.109   9.939   1.299
52979W        W26047  34.222  32.068  10.691
52980W        W26048  40.817  25.963  11.357
52981W        W26049  16.145   5.815   0.476
52982W        W26050  26.323   5.059  14.810
52983W        W26051  20.790  33.504   3.139
52984W        W26052  42.741  23.152   2.207
52985W        W26053  21.133  16.507  14.362
52986W        W26054  13.358  36.383   2.256
52987W        W26055  38.779  12.001   3.222
52988W        W26056  26.924  15.675   3.235
52989W        W26057  21.592  13.474  11.967
52990W        W26058  34.358  14.598   2.204
52991W        W26059  29.585  22.681  14.932
52992W        W26060   9.268   3.999  11.930
52993W        W26061  15.536  26.070   2.797
52994W        W26062  40.354  11.898  11.442
52995W        W26063  14.200  32.875   0.876
52996W        W26064  23.209  10.617  13.826
52997W        W26065  27.556  22.559  12.762
52998W        W26066  18.278  11.349   1.433
52999W        W26067  27.834  13.564   2.453
53000W        W26068   3.799  44.937  14.051
53001W        W26069   7.791  20.349  14.824
53002W        W26070  19.971   8.770  12.965
53003W        W26071  17.007  13.354  14.543
53004W        W26072  22.234  15.664   3.596
53005W        W26073  34.547  16.267   4.582
53006W        W26074   5.347  11.842   1.257
53007W        W26075  22.546  30.883   1.463
53008W        W26076   6.849  36.960  14.252
53009W        W26077   2.151  22.722  10.736
53010W        W26078   0.144  43.812  10.414
53011W        W26079   2.688  25.942   4.183
53012W        W26080  27.505  13.347  13.536
53013W        W26081  23.708  18.754   3.236
53014W        W26082  37.302  28.964   3.183
53015W        W26083   4.769  18.735  11.956
53016W        W26084  25.836   6.085   2.248
53017W        W26085  42.792  41.446  12.893
53018W        W26086   2.780   2.309   1.290
53019W        W26087  20.064  12.884   3.184
53020W        W26088  44.974   0.850  12.659
53021W        W26089  31.527  17.619   3.431
53022W        W26090  38.639  17.835  12.499
53023W        W26091  27.467   0.128   3.550
53024W        W26092  14.763  21.624  13.748
53025W        W26093  11.705  37.442  13.910
53026W        W26094   9.751   7.904   0.914
53027W        W26095  26.002  40.463  10.549
53028W        W26096  29.112  11.027  11.929
53029W        W26097  13.307  38.299   0.876
53030W        W26098  15.135   9.401   2.776
53031W        W26099  40.804   3.747   0.431
53032W        W26100  19.601  11.656   0.257
53033W        W26101  20.272  14.877  11.176
53034W        W26102  26.229  12.067  13.486
53035W        W26103  14.814   9.583  11.609
53036W        W26104  22.853  44.979   4.750
53037W        W26105   2.775   3.781  12.127
53038W        W26106  43.735   4.334  11.083
53039W        W26107  31.671  32.112  11.184
53040W        W26108  19.291  30.933   4.523
53041W        W26109  33.364  19.507  12.071
53042W        W26110  17.258   1.323  10.690
53043W        W26111  27.576  12.217   4.782
53044W        W26112   1.800  44.907  11.722
53045W        W26113  42.437  44.588   2.617
53046W        W26114  14.723  26.135  12.875
53047W        W26115  14.344   6.172  14.960
53048W        W26116  26.416  42.308  12.893
53049W        W26117  25.542  14.184  11.889
53050W        W26118  40.499  30.177  12.402
53051W        W26119   1.416  31.560  14.905
53052W        W26120  13.769   0.777  13.120
53053W        W26121  35.689   2.955  12.082
53054W        W26122  31.643   7.284  14.820
53055W        W26123  16.292  44.880   3.076
53056W        W26124  43.767  34.464  12.130
53057W        W26125  10.729  35.836   1.235
53058W        W26126  18.952   5.790   3.218
53059W        W26127   0.368  25.401   0.936
53060W        W26128  35.887  17.880  11.146
53061W        W26129   7.219  12.785   1.933
53062W        W26130  25.436  20.542   4.593
53063W        W26131   2.434  24.779   4.575
53064W        W26132  31.048  21.153   1.358
53065W        W26133   8.177  37.898   1.450
53066W        W26134  40.201  15.288   4.866
53067W        W26135  15.171  41.872  10.947
53068W        W26136  20.502   1.026  14.761
53069W        W26137  34.389  15.230   1.841
53070W        W26138  34.963  10.426   3.220
53071W        W26139  30.898   1.893  10.265
53072W        W26140   4.652  42.812  10.510
53073W        W26141  11.197   4.752   2.696
53074W        W26142  17.346  14.210  14.261
53075W        W26143   4.283  33.578   0.761
53076W        W26144  30.062  19.954   1.470
53077W        W26145  28.601  12.854  14.098
53078W        W26146  44.371   6.161  14.967
53079W        W26147  26.196  42.562  13.343
53080W        W26148  25.432  28.326   3.741
53081W        W26149  33.092  19.041  11.415
53082W        W26150  24.657  38.983   2.299
53083W        W26151  10.701   0.347   3.670
53084W        W26152  32.500  29.898   2.266
53085W        W26153  42.850  30.307  10.841
53086W        W26154  32.722  30.358  11.956
53087W        W26155  24.906   4.508   4.771
53088W        W26156  16.381  16.851   1.721
53089W        W26157   0.374   7.814   3.134
53090W        W26158  30.935  36.126  10.620
53091W        W26159  42.756  29.188  12.477
53092W        W26160  22.511  34.242  11.989
53093W        W26161   4.848  19.275   4.698
53094W        W26162  37.288  40.711   4.150
53095W        W26163  40.818  38.469  14.337
53096W        W26164  14.772  13.480  13.466
53097W        W26165  37.137  43.959   3.399
53098W        W26166  15.961  36.051   0.428
53099W        W26167  14.775   4.461   1.321
53100W        W26168  24.606  15.811  11.963
53101W        W26169  11.609   8.693  11.136
53102W        W26170   4.422  15.709   1.847
53103W        W26171  40.282   8.592   0.896
53104W        W26172  38.356  40.189  13.158
53105W        W26173  44.941  32.340   4.850
53106W        W26174  10.807  10.138  13.070
53107W        W26175  32.425  26.210  13.559
53108W        W26176   5.403  44.653  13.364
53109W        W26177   3.900   3.729  14.779
53110W        W26178  25.220   4.752  11.996
53111W        W26179  12.892  25.091   2.199
53112W        W26180  31.850  39.651  11.624
53113W        W26181  40.939  29.048  11.443
53114W        W26182  33.187   3.544  11.359
53115W        W26183   9.823  40.025   0.025
53116W        W26184  15.790  11.943  11.146
53117W        W26185  40.785  18.388   4.249
53118W        W26186  33.582  29.921  12.804
53119W        W26187  13.868   8.705   2.765
53120W        W26188  38.986  15.234   1.163
53121W        W26189  24.772  39.386   0.964
53122W        W26190  43.976   2.371  13.956
53123W        W26191  10.245  18.470   2.818
53124W        W26192  42.244  13.657  10.398
53125W        W26193   1.760  44.908  11.211
53126W        W26194  26.737  36.249   5.103
53127W        W26195  31.123  31.774   0.126
53128W        W26196  27.879  26.752   0.958
53129W        W26197  21.595  41.432  11.157
53130W        W26198   0.919  43.736   3.120
53131W        W26199  25.044  44.451   2.883
53132W        W26200  12.646  26.975   4.163
53133W        W26201  19.980  27.561  10.545
53134W        W26202  30.417  35.042  10.606
53135W        W26203  31.194  33.819   0.071
53136W        W26204  30.899  23.050   2.673
53137W        W26205  35.188  13.973   2.881
53138W        W26206  17.039   2.811  13.565
53139W        W26207  16.599   0.717   1.854
53140W        W26208   6.549  20.725  12.939
53141W        W26209  14.205  16.245   0.447
53142W        W26210  21.042  26.010   0.621
53143W        W26211  44.281  41.724   1.656
53144W        W26212  13.886  15.039  11.808
53145W        W26213   2.767  40.259   1.765
53146W        W26214  13.326   0.907  13.364
53147W        W26215   2.917  36.048  10.635
53148W        W26216   2.231  15.652  12.512
53149W        W26217  27.463  30.438   5.193
53150W        W26218  24.981  41.065  11.077
53151W        W26219  18.673  10.688  12.050
53152W        W26220   8.597  18.818   0.371
53153W        W26221  30.925  29.095   2.310
53154W        W26222  41.341  37.260  14.392
53155W        W26223  10.865  41.842   1.286
53156W        W26224  10.523   8.334   2.801
53157W        W26225   0.394   6.345  12.472
53158W        W26226  30.185  42.663   0.081
53159W        W26227  42.085  31.437  12.932
53160W        W26228  37.341  28.660  13.334
53161W        W26229  29.716  36.028   4.256
53162W        W26230  35.803  22.624  13.336
53163W        W26231  15.732   3.253  11.472
53164W        W26232  10.312  43.754  13.938
53165W        W26233  13.402  37.375  12.551
53166W        W26234  11.915  17.534  12.922
53167W        W26235   6.613   4.720   2.450
53168W        W26236  27.976  17.592   1.805
53169W        W26237  19.991  36.513   2.159
53170W        W26238  18.365  23.647  12.955
53171W        W26239  24.892  11.640  11.425
53172W        W26240  19.777  30.531  14.859
53173W        W26241  39.004  24.672   2.136
53174W        W26242  37.487  23.334  12.355
53175W        W26243  24.325  44.053  13.337
53176W        W26244  15.773   8.002  10.778
53177W        W26245   3.532  27.726   2.161
53178W        W26246  13.155  37.901   3.875
53179W        W26247  19.761  38.677  13.647
53180W        W26248  20.192  26.142  12.016
53181W        W26249   0.285  13.323  10.822
53182W        W26250  29.574  30.232  12.780
53183W        W26251  21.844  25.571   4.151
53184W        W26252  32.901   7.295  11.792
53185W        W26253   4.852  22.444   3.192
53186W        W26254  23.226  41.328  13.613
53187W        W26255   0.950  38.922   1.382
53188W        W26256  26.049  35.340   3.738
53189W        W26257   6.352   5.149   0.748
53190W        W26258  37.769   5.423  10.975
53191W        W26259   1.883   5.212  11.782
53192W        W26260  15.726  18.963   2.256
53193W        W26261   0.805  33.667   2.768
53194W        W26262  16.790   2.251   2.801
53195W        W26263   9.493   4.258  10.698
53196W        W26264  31.216  20.328   4.055
53197W        W26265  35.906  14.017   2.328
53198W        W26266  19.246  16.017  13.916
53199W        W26267  35.173  39.027  13.348
53200W        W26268  26.048  17.159   2.663
53201W        W26269  28.531   4.777  13.479
53202W        W26270  38.843  31.198  14.284
53203W        W26271  42.961  32.638  14.409
53204W        W26272   4.377  11.898   0.193
53205W        W26273  14.308  39.262  13.115
53206W        W26274  17.730  37.511  11.927
53207W        W26275  10.235  11.931   0.381
53208W        W26276   4.332  29.032  11.099
53209W        W26277   9.234  27.529  10.754
53210W        W26278  25.394   7.158  12.582
53211W        W26279   4.923   4.904  13.821
53212W        W26280  29.524   9.281   3.926
53213W        W26281  24.291   3.902  12.851
53214W        W26282   1.875  24.585  10.639
53215W        W26283  15.065  39.552  11.442
53216W        W26284  41.372   8.729   3.725
53217W        W26285  38.106   5.163  14.574
53218W        W26286  39.601   4.498   3.740
53219W        W26287  27.893  41.408  10.415
53220W        W26288   1.338  16.120   4.581
53221W        W26289  15.240   9.334   1.163
53222W        W26290  25.388  17.548   3.358
53223W        W26291  43.300   2.706   1.904
53224W        W26292  38.826  28.954   2.367
53225W        W26293  20.819   4.797   0.527
53226W        W26294  26.594  17.113   2.677
53227W        W26295   3.725  32.838   1.236
53228W        W26296   4.266  22.721  12.993
53229W        W26297   7.914  44.799  10.747
53230W        W26298  17.814  44.352  12.630
53231W        W26299  28.540  13.593  13.022
53232W        W26300  31.437  13.428   2.771
53233W        W26301  34.865  31.057   4.340
53234W        W26302   4.193   7.969   3.096
53235W        W26303  31.478  41.165   1.252
53236W        W26304  16.178  11.992  14.504
53237W        W26305  33.268   4.648   4.635
53238W        W26306  35.472  15.116   1.002
53239W        W26307   7.470  29.580  11.553
53240W        W26308  30.149  44.127  12.884
53241W        W26309  31.910  11.879  12.355
53242W        W26310  15.170   3.779   4.152
53243W        W26311  42.249   2.855  11.235
53244W        W26312  24.980   4.455   3.344
53245W        W26313  26.671  40.579  11.775
53246W        W26314   8.925  39.877   2.820
53247W        W26315  36.473  28.205  12.097
53248W        W26316   8.786   5.851  13.363
53249W        W26317  25.422  28.106  13.805
53250W        W26318   3.231  38.285  13.599
53251W        W26319   0.417  30.896   1.825
53252W        W26320   1.247   5.712  12.999
53253W        W26321  20.510  35.068  11.463
53254W        W26322  26.595  37.566  11.719
53255W        W26323  26.662   5.449   1.288
53256W        W26324  41.484  30.810   3.680
53257W        W26325  42.799  38.747   3.691
53258W        W26326  31.488  27.594  12.192
53259W        W26327  31.169   1.823   4.395
53260W        W26328  18.610   8.160  10.781
53261W        W26329  36.175  36.509   4.093
53262W        W26330   5.461  15.356  13.419
53263W        W26331  19.344   3.238  11.088
53264W        W26332  32.520  24.118  12.133
53265W        W26333   3.671   3.652   3.959
53266W        W26334   1.472   3.365   3.886
53267W        W26335  37.079  43.910   1.131
53268W        W26336  42.782  16.573  10.660
53269W        W26337   4.197  36.559  12.924
53270W        W26338  40.330  37.972   2.065
53271W        W26339  44.472  18.553  13.221
53272W        W26340  10.091  40.074  13.366
53273W        W26341   0.011  33.104  14.970
53274W        W26342  12.415   5.319   4.917
53275W        W26343  13.717  39.259  11.374
53276W        W26344  21.554  21.328  13.475
53277W        W26345   1.513  22.188  11.142
53278W        W26346  44.637  33.889   3.710
53279W        W26347  20.030  43.394  14.443
53280W        W26348  36.517  25.164   2.982
53281W        W26349  42.843  34.884  12.041
53282W        W26350  15.452  29.942  14.943
53283W        W26351  42.312  42.657  11.642
53284W        W26352  29.885  12.580  11.450
53285W        W26353   9.190  37.321   2.180
53286W        W26354  13.985  23.502  12.962
53287W        W26355  21.301  36.305  13.777
53288W        W26356  24.228  37.819  12.494
53289W        W26357  40.959   7.571  12.830
53290W        W26358  37.335  32.714  10.194
53291W        W26359  25.713  12.004   5.061
53292W        W26360   1.355  42.079  13.927
53293W        W26361   7.619  19.879   4.751
53294W        W26362  33.350   6.711  14.949
53295W        W26363  20.650  11.647   3.310
53296W        W26364  13.750  28.532  14.025
53297W        W26365  26.117  34.890  14.780
53298W        W26366  39.104  29.720   3.727
53299W        W26367  18.470  22.620  14.538
53300W        W26368  42.533  21.667  11.492
53301W        W26369  34.500   8.252   3.622
53302W        W26370  27.174  19.129  14.518
53303W        W26371  43.272  22.664  12.065
53304W        W26372  19.744   1.833  11.203
53305W        W26373  10.831   3.290   0.943
53306W        W26374  29.131  21.056   1.831
53307W        W26375  26.166  30.165   1.904
53308W        W26376  32.337  30.080   0.890
53309W        W26377  27.961  21.937  10.185
53310W        W26378  27.266  25.459  13.306
53311W        W26379  11.712  19.400   4.941
53312W        W26380   2.262  35.081   2.935
53313W        W26381  33.258  12.811  13.716
53314W        W26382   4.203   8.720  14.917
53315W        W26383  25.653   7.451   2.850
53316W        W26384  33.922  37.565  14.898
53317W        W26385  19.552  10.715  11.676
53318W        W26386   4.881  11.435   4.678
53319W        W26387  27.983  37.602   3.512
53320W        W26388  19.531  22.250  13.904
53321W        W26389  22.588  11.432   0.550
53322W        W26390  11.757   1.938   9.876
53323W        W26391  23.506   5.309  12.054
53324W        W26392  44.805  33.776   1.145
53325W        W26393  32.373  16.080   3.314
53326W        W26394  28.511  26.538  11.237
53327W        W26395  23.689  21.089   0.372
53328W        W26396  28.938  37.454   1.269
53329W        W26397   5.934  38.892   1.697
53330W        W26398   1.992  22.427  12.540
53331W        W26399  14.906  17.600   2.753
53332W        W26400   2.421  24.938  13.471
53333W        W26401  18.380   1.619   0.632
53334W        W26402   7.231  36.810  11.058
53335W        W26403   2.128  20.353  14.478
53336W        W26404  35.877  15.726   3.421
53337W        W26405  19.730   9.156   4.784
53338W        W26406   8.781  20.309   2.604
53339W        W26407  37.849   8.753   5.040
53340W        W26408  36.389  25.621   4.809
53341W        W26409  20.511  36.915   4.116
53342W        W26410  13.289   0.726   2.368
53343W        W26411   0.937  10.776  12.937
53344W        W26412  16.014  23.422  14.915
53345W        W26413  21.085  27.126  14.465
53346W        W26414  30.902  35.339   1.128
53347W        W26415  25.967  31.633   2.905
53348W        W26416  36.850  11.874  12.015
53349W        W26417  19.244  27.363  14.950
53350W        W26418   6.185  27.445  13.957
53351W        W26419  34.068  25.017   2.231
53352W        W26420  22.642  10.277   4.696
53353W        W26421   6.754  20.020  11.410
53354W        W26422   5.262  28.656   2.607
53355W        W26423  20.350  20.172   4.593
53356W        W26424   2.784  40.522   3.768
53357W        W26425  34.898   7.451  12.916
53358W        W26426  39.825  14.480  13.651
53359W        W26427   0.740  22.636  10.915
53360W        W26428  28.183  20.952  10.701
53361W        W26429   9.250  18.458   9.983
53362W        W26430  32.693  29.454  11.208
53363W        W26431  41.594   5.796   2.756
53364W        W26432  10.267  19.067  11.868
53365W        W26433  40.630   6.197  13.440
53366W        W26434  19.559  41.897   1.850
53367W        W26435  15.849   0.941   3.299
53368W        W26436  22.083  39.950  11.836
53369W        W26437  22.975   7.934  13.144
53370W        W26438  23.239  41.137   4.170
53371W        W26439  35.624  41.826   3.835
53372W        W26440   0.419  39.804  11.993
53373W        W26441  15.928  43.597   1.663
53374W        W26442   1.722  37.117  10.733
53375W        W26443  18.694   3.345  14.027
53376W        W26444  29.546  14.379   0.379
53377W        W26445  36.253  34.762  10.566
53378W        W26446  22.794  20.034   3.230
53379W        W26447  40.832  21.014   4.122
53380W        W26448  38.954  36.914   2.281
53381W        W26449  40.440  42.960  13.049
53382W        W26450  38.961  42.434   4.036
53383W        W26451  36.130  40.895   4.786
53384W        W26452  10.049   3.678  12.483
53385W        W26453  15.035  36.272  10.093
53386W        W26454  36.003  34.884  11.478
53387W        W26455  25.916  15.534   2.028
53388W        W26456   3.217  33.349   3.758
53389W        W26457  24.254   7.219  12.818
53390W        W26458  43.352  13.647   3.750
53391W        W26459  43.439   3.125   2.791
53392W        W26460  41.951  11.170  11.562
53393W        W26461  29.906  41.978  12.332
53394W        W26462   9.073  31.868   2.789
53395W        W26463   7.779  12.535   4.696
53396W        W26464  30.392  16.602   3.376
53397W        W26465   2.195   9.332  13.966
53398W        W26466  25.688  39.395  12.539
53399W        W26467  18.418  21.726  11.279
53400W        W26468   8.826  44.331  12.118
53401W        W26469  23.818  19.165   0.905
53402W        W26470   5.166  21.594   1.530
53403W        W26471  43.298  26.649   2.304
53404W        W26472  21.799   2.939  12.319
53405W        W26473  12.724   0.383   2.568
53406W        W26474  42.492  17.620  14.375
53407W        W26475   7.866   8.665  14.354
53408W        W26476  43.803  15.584  10.542
53409W        W26477  14.685  42.892  11.119
53410W        W26478  19.752  21.575   3.281
53411W        W26479  25.385  36.881  13.915
53412W        W26480  34.021   6.385  13.255
53413W        W26481  11.179  38.825  12.328
53414W        W26482  28.268  41.783   0.915
53415W        W26483  37.908  16.728  14.323
53416W        W26484   1.936  30.536  11.274
53417W        W26485  25.751   2.447   0.795
53418W        W26486  17.207  35.928   2.351
53419W        W26487  30.741  28.489  11.671
53420W        W26488  31.197  33.469   2.401
53421W        W26489  11.713  40.549   4.587
53422W        W26490   4.983  22.287  10.839
53423W        W26491  23.065   7.837   1.361
53424W        W26492   1.253  13.630   3.280
53425W        W26493  10.862   6.131  13.826
53426W        W26494  26.888   4.932   3.302
53427W        W26495  15.805   2.848   4.840
53428W        W26496  22.493  14.799   0.884
53429W        W26497  27.423  13.238   3.823
53430W        W26498  20.719  26.063  12.673
53431W        W26499   5.511  31.494  13.512
53432W        W26500  21.585  21.303   4.312
53433W        W26501  27.702  44.777  11.163
53434W        W26502  39.515  43.213   4.651
53435W        W26503  34.560  38.424   0.736
53436W        W26504  33.439  26.860   1.879
53437W        W26505  29.792  34.542  11.596
53438W        W26506  42.690  33.517   3.723
53439W        W26507  35.826  21.532   0.868
53440W        W26508  28.672  18.827   2.789
53441W        W26509  18.275  23.774   3.374
53442W        W26510  27.937  37.263   3.905
53443W        W26511  37.900  22.904  14.045
53444W        W26512   2.467  19.787   1.170
53445W        W26513  23.275   3.828   1.775
53446W        W26514   3.853  38.804  11.149
53447W        W26515  11.387  12.885   4.377
53448W        W26516  39.373  43.731   3.158
53449W        W26517  18.787  20.331  12.425
53450W        W26518   9.608   3.471   0.540
53451W        W26519  17.849   6.485  13.895
53452W        W26520  43.151  41.005   0.761
53453W        W26521  29.923  32.571   0.766
53454W        W26522  21.195  34.131   1.452
53455W        W26523  36.517   6.321   0.201
53456W        W26524  18.392  29.576   4.713
53457W        W26525  31.008   7.445  12.110
53458W        W26526  23.999  17.218   2.362
53459W        W26527  26.696  16.611   2.776
53460W        W26528   8.958  34.364  10.408
53461W        W26529  19.148  19.481  14.933
53462W        W26530  32.428   8.162  12.091
53463W        W26531   4.820  19.075  12.426
53464W        W26532   0.260  42.301  14.410
53465W        W26533  40.637  30.129   4.128
53466W        W26534  35.238  21.293  11.104
53467W        W26535  19.803   5.265  11.067
53468W        W26536  43.330  15.864   9.913
53469W        W26537  34.366  37.517  11.418
53470W        W26538  30.480  29.198   0.827
53471W        W26539  16.432  33.385  13.477
53472W        W26540  42.191   0.449   4.579
53473W        W26541  44.578  30.005  12.551
53474W        W26542  42.986   8.822  13.538
53475W        W26543  27.189  34.490   1.766
53476W        W26544   9.704  35.418  12.981
53477W        W26545  30.398  28.424   2.286
53478W        W26546  36.541  13.007  12.493
53479W        W26547  21.400  24.739  11.544
53480W        W26548  10.371   3.183   2.925
53481W        W26549  42.729  17.731   3.656
53482W        W26550  24.202  39.569  14.641
53483W        W26551  34.740  40.108  10.302
53484W        W26552  17.042  18.776  11.359
53485W        W26553  39.398  29.745  11.576
53486W        W26554   8.906  31.428   1.934
53487W        W26555  15.522  16.802  14.789
53488W        W26556  26.939  23.360   1.642
53489W        W26557  32.606   9.918   0.522
53490W        W26558  44.329  42.901  13.455
53491W        W26559  15.655   4.850   4.374
53492W        W26560   8.798  37.651   0.937
53493W        W26561  16.227  16.574  12.089
53494W        W26562   7.845  41.296  14.811
53495W        W26563  28.567   1.447  10.700
53496W        W26564  42.169  41.067   0.542
53497W        W26565  10.625   1.671  14.306
53498W        W26566  11.321  43.161   5.058
53499W        W26567  35.135  20.541   2.045
53500W        W26568  40.710  16.305   2.337
53501W        W26569  24.236  12.186  11.637
53502W        W26570  12.688   4.188   4.278
53503W        W26571  24.572   9.366   4.683
53504W        W26572   5.627  18.335  14.548
53505W        W26573  39.453  34.207  13.745
53506W        W26574  39.024  23.157  12.973
53507W        W26575  16.739  38.439  12.614
53508W        W26576  44.311  37.016  10.432
53509W        W26577  41.366  15.837   2.720
53510W        W26578   8.764  10.613   1.924
53511W        W26579  36.893  10.123   1.454
53512W        W26580   3.398  25.311  12.440
53513W        W26581  37.300   3.282   3.718
53514W        W26582  33.545  44.826  11.712
53515W        W26583   7.256  10.354  11.111
53516W        W26584  28.886  36.596  14.772
53517W        W26585  10.885   4.270   4.714
53518W        W26586   0.372   8.685  10.967
53519W        W26587  14.175  25.107  13.565
53520W        W26588  27.721  10.350   0.719
53521W        W26589  36.407  30.176  12.483
53522W        W26590  31.388  21.653  14.429
53523W        W26591  41.296  24.951   3.243
53524W        W26592   5.424  22.157   2.329
53525W        W26593  26.201  33.844   4.330
53526W        W26594  33.510  16.797  11.604
53527W        W26595   1.284  44.433  10.613
53528W        W26596  29.406  17.657   3.658
53529W        W26597  14.807  14.088   2.909
53530W        W26598  20.254  12.270  14.517
53531W        W26599  40.864  32.938  14.038
53532W        W26600  22.148  35.576  14.571
53533W        W26601  17.295  16.124   3.094
53534W        W26602   8.307  36.942  14.397
53535W        W26603  17.369  36.106   2.805
53536W        W26604  36.738  13.415   4.982
53537W        W26605   4.428  38.292   0.441
53538W        W26606   1.314  30.556  14.849
53539W        W26607  44.315  22.787   9.766
53540W        W26608  23.094  12.302   3.477
53541W        W26609  41.863  21.244  14.778
53542W        W26610   1.234   2.521  13.997
53543W        W26611  41.319  38.658  11.174
53544W        W26612  44.194  24.075   3.741
53545W        W26613  16.835  33.596   4.509
53546W        W26614   0.804  28.901  12.797
53547W        W26615  30.943   5.353   4.005
53548W        W26616  30.947  27.443   0.378
53549W        W26617  22.154   6.071   2.433
53550W        W26618  21.221   5.845  14.806
53551W        W26619  34.354  15.128  10.523
53552W        W26620   3.620  30.002  13.831
53553W        W26621  23.503  21.809   3.314
53554W        W26622  38.842   1.686  11.125
53555W        W26623  27.731  10.470  14.243
53556W        W26624  36.845  40.624  10.982
53557W        W26625  25.020  19.238  12.568
53558W        W26626  21.048  36.340   3.190
53559W        W26627  11.686  34.420  11.869
53560W        W26628  16.214  21.478   3.183
53561W        W26629  31.660  44.403   2.817
53562W        W26630  43.269  44.434   4.301
53563W        W26631   1.384  11.846  10.580
53564W        W26632  12.537  21.249  12.074
53565W        W26633   1.261   3.832   4.139
53566W        W26634   7.270  26.437  14.826
53567W        W26635  29.724  27.094   1.417
53568W        W26636  27.667   1.730  14.934
53569W        W26637  29.389  29.442   2.639
53570W        W26638   6.292   1.930  14.160
53571W        W26639  19.034  12.036   3.369
53572W        W26640  18.405  20.166  11.685
53573W        W26641  37.503  12.579  13.901
53574W        W26642  10.204  15.744   3.601
53575W        W26643   7.192  43.259  11.077
53576W        W26644  14.800  10.694   4.511
53577W        W26645  33.855   9.753   3.689
53578W        W26646  34.955  28.736  10.482
53579W        W26647  26.174  15.104   1.901
53580W        W26648  17.072  19.819  10.552
53581W        W26649  19.103  28.919  12.872
53582W        W26650   5.012  39.478  14.351
53583W        W26651  37.090  14.744  14.963
53584W        W26652  15.043  33.478   2.016
53585W        W26653  26.065  32.586   0.245
53586W        W26654  25.008  27.509   4.492
53587W        W26655  38.302   6.318  12.350
53588W        W26656  10.861  23.725  14.199
53589W        W26657   0.387  29.094  12.453
53590W        W26658   6.806  43.906   3.683
53591W        W26659  42.782  35.101   1.807
53592W        W26660  31.049  43.282   2.365
53593W        W26661   7.110   7.717  11.615
53594W        W26662  26.606  28.905   2.769
53595W        W26663   3.242  11.516   2.389
53596W        W26664  14.152  10.121  10.626
53597W        W26665  35.040  35.542   2.938
53598W        W26666  37.203  32.146   4.951
53599W        W26667  10.844  26.910   1.873
53600W        W26668  32.130   5.093  11.546
53601W        W26669  14.135  16.334   1.898
53602W        W26670  21.627  42.905   1.690
53603W        W26671  21.937   7.017  11.691
53604W        W26672  37.761  10.336   1.165
53605W        W26673  26.907   1.352   0.102
53606W        W26674  14.766   4.306  14.036
53607W        W26675   2.427   7.131   3.050
53608W        W26676  25.977  35.962   0.461
53609W        W26677  26.524  28.672   4.097
53610W        W26678  39.311  33.894  13.334
53611W        W26679  10.173  11.140  13.067
53612W        W26680  17.313  16.192  12.845
53613W        W26681  11.185  21.631   1.916
53614W        W26682  34.979   0.501  12.402
53615W        W26683   1.713  40.349   0.974
53616W        W26684  41.311  39.449  14.831
53617W        W26685  41.482  17.689   0.082
53618W        W26686  12.467   0.662  13.367
53619W        W26687  10.198  43.386   3.747
53620W        W26688   5.454  32.046  13.466
53621W        W26689   4.851  34.611   3.290
53622W        W26690  19.148  29.906  14.336
53623W        W26691  24.938   5.671  14.312
53624W        W26692  18.525  10.552  14.424
53625W        W26693  28.535   3.410  11.967
53626W        W26694   1.479  31.052  14.826
53627W        W26695  12.521  35.123  10.686
53628W        W26696  23.203  23.004  12.720
53629W        W26697  12.693   5.362  10.451
53630W        W26698  23.760   7.807   2.657
53631W        W26699  24.205  36.007   3.571
53632W        W26700  36.497   8.865   2.849
53633W        W26701  30.695  15.901  10.271
53634W        W26702  28.061   0.935  14.065
53635W        W26703   7.411  41.533  12.079
53636W        W26704   6.846  39.512  14.872
53637W        W26705  10.578   2.959  14.580
53638W        W26706  43.441  35.122   3.303
53639W        W26707   6.203  11.570   3.309
53640W        W26708  38.415  24.942  13.855
53641W        W26709  25.508  26.938   2.991
53642W        W26710  39.923  40.049   4.375
53643W        W26711  44.500  25.599  10.687
53644W        W26712  14.381   9.161   0.931
53645W        W26713  12.544  25.643   4.515
53646W        W26714  37.560  26.453  13.196
53647W        W26715  39.938   9.257  11.949
53648W        W26716  26.585  32.344   3.253
53649W        W26717  21.871  16.948  11.053
53650W        W26718  17.872  41.785   4.346
53651W        W26719  39.919  27.976  11.536
53652W        W26720  34.047  12.877  10.833
53653W        W26721   5.532  20.503   0.407
53654W        W26722  21.072  31.918  12.956
53655W        W26723  21.126  43.548   2.439
53656W        W26724   1.586  29.517  13.436
53657W        W26725   9.377   7.426   2.619
53658W        W26726  21.871   7.724  14.469
53659W        W26727  32.583   2.798  11.527
53660W        W26728  13.403  21.660  12.821
53661W        W26729  23.619  33.400   1.838
53662W        W26730  27.520  16.571   1.383
53663W        W26731  38.002  15.644   4.727
53664W        W26732  28.525  12.892   2.868
53665W        W26733  26.655  15.735   0.284
53666W        W26734  27.046  24.407  13.471
53667W        W26735  16.872  15.617   1.630
53668W        W26736   5.857  41.352   2.856
53669W        W26737   3.794  26.209  10.459
53670W        W26738  32.224   9.138  13.456
53671W        W26739  17.823  22.497  10.098
53672W        W26740  27.977  43.779  11.130
53673W        W26741  30.682  43.129  12.534
53674W        W26742   8.653  41.037  12.482
53675W        W26743   3.396  32.643   0.804
53676W        W26744   2.723  20.261  13.278
53677W        W26745   3.840   1.494  10.919
53678W        W26746  32.530  27.714   4.030
53679W        W26747   9.204  21.778  14.836
53680W        W26748  18.912  16.119   0.217
53681W        W26749   2.013  25.938  11.327
53682W        W26750   4.348  20.228   1.257
53683W        W26751   9.784  28.695   1.065
53684W        W26752  20.283  28.116   2.910
53685W        W26753  40.006  32.533  14.178
53686W        W26754  16.382  42.643   2.914
53687W        W26755   5.804  24.644   1.278
53688W        W26756   2.899  37.959   0.330
53689W        W26757  23.871  23.073   3.825
53690W        W26758  42.361   7.784   3.548
53691W        W26759  36.088  11.754   2.800
53692W        W26760  14.843   7.813  14.264
53693W        W26761  21.999  40.043  13.252
53694W        W26762  28.161  10.716   4.142
53695W        W26763   0.227  22.584   1.154
53696W        W26764  40.961  22.631   3.272
53697W        W26765  37.904  35.664  10.646
53698W        W26766  42.106  31.146  11.598
53699W        W26767   8.219  16.418   4.054
53700W        W26768  22.071  13.059   2.198
53701W        W26769  41.787   2.408   1.470
53702W        W26770  17.644  26.655   3.783
53703W        W26771  28.585  33.961  14.935
53704W        W26772  20.129   0.724  10.300
53705W        W26773  18.648  15.261  10.462
53706W        W26774  27.365  31.940   0.298
53707W        W26775  21.283  24.777  14.570
53708W        W26776  28.103  27.478   0.238
53709W        W26777   5.421  10.217   4.753
53710W        W26778   0.956  38.451   2.640
53711W        W26779   5.999   2.737   4.007
53712W        W26780  17.335  20.830  14.005
53713W        W26781   9.901  20.589  13.484
53714W        W26782  39.897  10.692   0.801
53715W        W26783  25.179  22.480  11.957
53716W        W26784  18.679   8.595   2.370
53717W        W26785  11.086   5.755  11.148
53718W        W26786  33.852   2.468  13.936
53719W        W26787  11.078  21.160  12.643
53720W        W26788  35.604   4.426  13.045
53721W        W26789  31.621  29.909  14.464
53722W        W26790  30.712  28.568   0.870
53723W        W26791  21.545   1.265  13.832
53724W        W26792   0.419  15.062  11.348
53725W        W26793   9.914  15.210  10.801
53726W        W26794   3.214   6.324   0.117
53727W        W26795  19.590  33.537  10.694
53728W        W26796  19.954  19.624  11.727
53729W        W26797  14.455  35.143  13.602
53730W        W26798  14.767  12.126  14.821
53731W        W26799  10.041   6.863   5.189
53732W        W26800   1.246  25.613  11.066
53733W        W26801  27.767  38.460   1.749
53734W        W26802  33.568  29.979   1.382
53735W        W26803   4.634   3.757   3.681
53736W        W26804   5.768  11.893   0.775
53737W        W26805  41.487  22.729  11.448
53738W        W26806  19.559  36.135   2.737
53739W        W26807  41.397  15.643  11.348
53740W        W26808   4.862  17.013  14.673
53741W        W26809  19.170  21.002  10.670
53742W        W26810  25.240  40.119   3.570
53743W        W26811  32.325  28.609  13.676
53744W        W26812  12.836  23.134  12.188
53745W        W26813   6.739  17.960   4.354
53746W        W26814  22.626   5.150  14.751
53747W        W26815  32.829   8.386   4.267
53748W        W26816   5.441  19.068   2.036
53749W        W26817  41.255  22.689   2.849
53750W        W26818  37.387  18.599   4.520
53751W        W26819  22.817  17.558   4.222
53752W        W26820  24.102  31.669   4.720
53753W        W26821   5.863   0.574  12.597
53754W        W26822  44.401  28.662  13.474
53755W        W26823   8.735  20.518   4.231
53756W        W26824  35.086  21.571   2.771
53757W        W26825  35.344  19.142   2.254
53758W        W26826  35.080  38.286  11.251
53759W        W26827  14.019  38.074  11.254
53760W        W26828   0.077  19.330  10.754
53761W        W26829  29.610  31.589   2.272
53762W        W26830  42.792  37.477  13.345
53763W        W26831  38.597  36.920   2.652
53764W        W26832   3.811   9.965   4.160
53765W        W26833  28.060  12.750   5.023
53766W        W26834   5.399  30.690  14.526
53767W        W26835  19.909   4.858  13.525
53768W        W26836  33.624  34.067  10.930
53769W        W26837   5.486   2.103   2.304
53770W        W26838  31.631  31.816  14.414
53771W        W26839  13.118  39.402  14.977
53772W        W26840   5.257  20.436   3.207
53773W        W26841   3.323  40.390  14.188
53774W        W26842  40.307  19.735   1.638
53775W        W26843  22.228  17.319   5.330
53776W        W26844  43.950   1.785   0.455
53777W        W26845  23.528  29.440   0.822
53778W        W26846  23.977  18.730   2.783
53779W        W26847  29.971  34.646   2.534
53780W        W26848   8.880  20.977   3.479
53781W        W26849  14.383  11.183   2.234
53782W        W26850  25.945  31.937   4.226
53783W        W26851  12.165   6.715  12.078
53784W        W26852  19.509  19.647  10.777
53785W        W26853  36.503  41.066   2.849
53786W        W26854  16.947   5.136  10.654
53787W        W26855  21.973  36.564  11.688
53788W        W26856  44.542  22.848  11.387
53789W        W26857  38.204  44.020   4.546
53790W        W26858  37.080  40.153  10.837
53791W        W26859  38.941  16.770   0.679
53792W        W26860   9.146   5.951  11.182
53793W        W26861   2.402  28.698   1.205
53794W        W26862   6.991  43.417   2.352
53795W        W26863  20.568   9.886  13.865
53796W        W26864   4.771   6.314   4.987
53797W        W26865  18.606  32.453   0.643
53798W        W26866  11.751  33.983  11.547
53799W        W26867   4.679  42.462  12.626
53800W        W26868  16.104  42.802   3.753
53801W        W26869   8.622  42.880  12.808
53802W        W26870  27.639   9.655  13.250
53803W        W26871   4.156  16.455  13.976
53804W        W26872  11.155  26.751  11.068
53805W        W26873  12.854  40.003  13.885
53806W        W26874  28.437  18.478  12.900
53807W        W26875  11.234   6.498  13.864
53808W        W26876  32.468  27.638  13.348
53809W        W26877  12.561  10.214   3.734
53810W        W26878  11.786  33.521  10.358
53811W        W26879  22.764  25.623  10.675
53812W        W26880  11.608  18.309  10.686
53813W        W26881  20.116  34.111   2.238
53814W        W26882  19.984  11.328  14.826
53815W        W26883  11.292  44.428  12.398
53816W        W26884  39.150  41.700   1.174
53817W        W26885  26.640  15.656   2.704
53818W        W26886  13.569  41.385   4.702
53819W        W26887   5.690  24.224   3.934
53820W        W26888  42.793  33.361  12.604
53821W        W26889  14.510   0.301  13.814
53822W        W26890   2.311  17.239  10.359
53823W        W26891  17.050   9.303  10.791
53824W        W26892  30.279  35.513  14.507
53825W        W26893  38.632  31.450   3.535
53826W        W26894  34.395   9.734   4.544
53827W        W26895  18.630  16.865   4.079
53828W        W26896   5.645   4.622   3.074
53829W        W26897  23.165  37.039  10.659
53830W        W26898   4.234  41.280   0.541
53831W        W26899  16.318  37.345   1.901
53832W        W26900  15.245  39.272  14.897
53833W        W26901  34.550  23.021  11.147
53834W        W26902   6.839   6.773  12.587
53835W        W26903  33.121   0.841   4.247
53836W        W26904   3.914  24.627  10.674
53837W        W26905  34.328  17.298   2.924
53838W        W26906  31.887   9.137   4.453
53839W        W26907  28.097   8.385   3.563
53840W        W26908   9.400  39.501   4.239
53841W        W26909  26.304  28.292   0.160
53842W        W26910  44.352  41.282  13.167
53843W        W26911  33.292  31.738   1.411
53844W        W26912  15.828  25.753   0.303
53845W        W26913  43.360   3.306  13.991
53846W        W26914  15.875  37.062  13.904
53847W        W26915  11.829  32.856  10.940
53848W        W26916  25.617  34.738   0.646
53849W        W26917  20.279   7.055   2.634
53850W        W26918  34.997  34.928  11.157
53851W        W26919   0.744  39.648  14.046
53852W        W26920  15.454   2.788  11.508
53853W        W26921   6.153  22.314  12.501
53854W        W26922  16.770  32.660   0.877
53855W        W26923   0.081  29.595  14.344
53856W        W26924   7.866  15.155   4.461
53857W        W26925  24.583  10.160  12.021
53858W        W26926  27.917  44.735  13.133
53859W        W26927  38.915   2.792  12.973
53860W        W26928  17.250  43.066   4.128
53861W        W26929  30.148  35.544  13.987
53862W        W26930  41.268  37.509  11.634
53863W        W26931  41.234  29.378   0.693
53864W        W26932  28.553  33.396  13.818
53865W        W26933  41.991  19.372   1.226
53866W        W26934   6.180  39.290  13.262
53867W        W26935  34.987  22.170  12.159
53868W        W26936  26.916  12.195   9.895
53869W        W26937  17.850  11.397  12.008
53870W        W26938  31.129  24.009   1.689
53871W        W26939  35.710  36.781   4.101
53872W        W26940   7.145   1.928  12.062
53873W        W26941  15.948  10.924  14.878
53874W        W26942  20.977  33.595  13.546
53875W        W26943  39.970   8.513  11.586
53876W        W26944  39.095  10.634   3.104
53877W        W26945  37.934  42.093   4.302
53878W        W26946  37.313   3.223  13.844
53879W        W26947   3.008  32.995   0.953
53880W        W26948  33.843  13.778  13.163
53881W        W26949  28.612  40.648   3.825
53882W        W26950  26.940  31.009   4.789
53883W        W26951  10.240   7.199   2.744
53884W        W26952  24.025  43.368  11.623
53885W        W26953  40.661  19.173  12.665
53886W        W26954  13.625  39.080   5.002
53887W        W26955  10.880  30.413  11.936
53888W        W26956  17.758   7.702   1.473
53889W        W26957  21.621  21.638   1.880
53890W        W26958  16.115  26.959   2.671
53891W        W26959  16.458  25.032  12.030
53892W        W26960  28.921  33.660   1.336
53893W        W26961  41.424  41.735  14.030
53894W        W26962  41.548  14.166   3.680
53895W        W26963   0.957  35.731  11.465
53896W        W26964  29.827  12.553   2.960
53897W        W26965  13.335  17.258   4.516
53898W        W26966  13.780  11.761   1.182
53899W        W26967  40.258  25.556  14.488
53900W        W26968   1.480  44.781   1.152
53901W        W26969  22.134  22.692  12.907
53902W        W26970   9.968  16.110  14.058
53903W        W26971  39.887  17.758  13.266
53904W        W26972   0.718  19.025  11.224
53905W        W26973   1.826  39.917   2.544
53906W        W26974  39.033  23.631   4.638
53907W        W26975  37.470   4.837  12.303
53908W        W26976  21.129   2.630   1.200
53909W        W26977   3.011  44.466   1.686
53910W        W26978  42.545  33.129  11.012
53911W        W26979   2.311  23.977   4.951
53912W        W26980   3.992  24.957   4.131
53913W        W26981  28.499  34.411  11.225
53914W        W26982  22.240  36.022   3.634
53915W        W26983  32.423  18.718  10.712
53916W        W26984  26.216  43.326  11.438
53917W        W26985  19.172  44.732  14.450
53918W        W26986  23.208   8.531   3.742
53919W        W26987  14.961   0.830  10.483
53920W        W26988  39.063  10.582  14.362
53921W        W26989   8.226  17.728   0.454
53922W        W26990  21.519  28.291   2.149
53923W        W26991  16.110   6.723   2.393
53924W        W26992   0.480  37.023   2.172
53925W        W26993  30.930  33.920   4.554
53926W        W26994   5.264  32.449  14.087
53927W        W26995  14.872   5.337  14.902
53928W        W26996   9.921   4.900  14.189
53929W        W26997  22.074   6.277  10.972
53930W        W26998  27.949  41.251  14.949
53931W        W26999  26.541  43.254  10.489
53932W        W27000  32.510  33.150  10.723
53933W        W27001   5.427  20.196  11.119
53934W        W27002  13.497   6.897  14.034
53935W        W27003   7.661  20.982  13.589
53936W        W27004  35.056  40.265  13.183
53937W        W27005  43.843  20.135   2.896
53938W        W27006  24.188  31.916   0.435
53939W        W27007  21.697  37.872   1.799
53940W        W27008  43.815  18.589  11.635
53941W        W27009  40.206   3.361  12.003
53942W        W27010  21.907  17.828  14.323
53943W        W27011  35.864  44.437  10.965
53944W        W27012  35.164   0.624   4.952
53945W        W27013  14.674  36.092  14.451
53946W        W27014  30.031  32.890  10.805
53947W        W27015  38.331  32.525   0.867
53948W        W27016   6.191  10.575  12.453
53949W        W27017  22.070   3.908  12.255
53950W        W27018  31.552  24.257  11.832
53951W        W27019  32.414   7.361  12.444
53952W        W27020  11.947   9.146   0.284
53953W        W27021  11.481   4.404  10.180
53954W        W27022  26.681  21.460  13.379
53955W        W27023  27.647   0.062   2.132
53956W        W27024  38.525  23.171   1.427
53957W        W27025  21.222  19.560   0.974
53958W        W27026  11.665  16.796   4.739
53959W        W27027  30.721  22.030   1.411
53960W        W27028  10.355   6.941   1.916
53961W        W27029  12.891  32.104  11.156
53962W        W27030  42.386  31.172   1.268
53963W        W27031  31.220  17.861   0.001
53964W        W27032   8.959  25.142   4.097
53965W        W27033  38.506   8.840  13.361
53966W        W27034   3.939  21.549   3.784
53967W        W27035  11.129   7.758   3.276
53968W        W27036  26.942  18.353  11.068
53969W        W27037  29.177  29.854  14.253
53970W        W27038  18.666  41.144   3.345
53971W        W27039  15.040  33.978   3.795
53972W        W27040  31.401   7.665  12.402
53973W        W27041  13.242  32.363   1.835
53974W        W27042   5.576  24.436   2.806
53975W        W27043  26.859  25.289   4.114
53976W        W27044  35.498  27.530   2.666
53977W        W27045  27.102   4.670  13.345
53978W        W27046  16.454  36.070  12.995
53979W        W27047  22.513  41.172   1.467
53980W        W27048   6.361   0.470   0.950
53981W        W27049  36.422  32.391  14.369
53982W        W27050  10.234   6.815  13.835
53983W        W27051   4.857   3.426  14.395
53984W        W27052  34.439  18.652   1.184
53985W        W27053  22.017  22.183  13.021
53986W        W27054  37.435  31.479   1.454
53987W        W27055  15.730  32.181  12.200
53988W        W27056   6.687   5.784   0.894
53989W        W27057  41.394   7.887  14.149
53990W        W27058  37.349  27.634  14.257
53991W        W27059  31.628  29.954   0.003
53992W        W27060  41.836   4.713   2.314
53993W        W27061  41.525  33.982   4.336
53994W        W27062   7.514  24.679  11.630
53995W        W27063  28.946  22.597  12.928
53996W        W27064  11.113  21.846  11.420
53997W        W27065  37.583   0.463  10.506
53998W        W27066   3.748   4.806  14.485
53999W        W27067  10.696  20.297  12.665
54000W        W27068  27.177  16.558  10.999
54001W        W27069  17.216  37.970  11.115
54002W        W27070  10.734  30.378   3.987
54003W        W27071   6.958  33.848   1.793
54004W        W27072   3.800   8.873  11.559
54005W        W27073  23.585  11.834   2.485
54006W        W27074   6.710  10.103  10.738
54007W        W27075  23.498   7.358   2.859
54008W        W27076  23.949   1.360  12.150
54009W        W27077   0.461  36.374   0.319
54010W        W27078  35.775  32.009  12.779
54011W        W27079  19.556  15.678   4.580
54012W        W27080   8.678  38.940  11.620
54013W        W27081  17.538  17.706   3.906
54014W        W27082  32.297  35.953   3.674
54015W        W27083  19.735   1.942  12.189
54016W        W27084  21.109  35.940   2.822
54017W        W27085  10.894   9.143   1.287
54018W        W27086  21.078  18.589  12.179
54019W        W27087   7.630  35.068   4.523
54020W        W27088  43.968   7.609   1.129
54021W        W27089  19.850  17.108   2.174
54022W        W27090  44.522   5.407  10.974
54023W        W27091  20.590  20.699   3.588
54024W        W27092  28.885  44.012  12.675
54025W        W27093  28.700  29.492   3.199
54026W        W27094  42.995  31.895   0.432
54027W        W27095  31.639  11.403  14.722
54028W        W27096  40.459  43.353   4.530
54029W        W27097  39.166  42.869  14.776
54030W        W27098  18.765   5.498  14.040
54031W        W27099  38.662  28.600  14.704
54032W        W27100  30.710  41.867  11.433
54033W        W27101   4.306  44.803   4.416
54034W        W27102  17.738  17.970  14.455
54035W        W27103  35.827  39.983  14.737
54036W        W27104  29.543  34.070  13.301
54037W        W27105  13.200  26.032  12.469
54038W        W27106  29.115   2.069  13.947
54039W        W27107  25.684  35.639  12.119
54040W        W27108  20.594  18.303  10.622
54041W        W27109  37.303   6.625   1.690
54042W        W27110  43.653  10.911  13.324
54043W        W27111  19.258  15.204   4.784
54044W        W27112  21.075   2.932  14.195
54045W        W27113  15.835  39.636   0.864
54046W        W27114  40.464   9.858  13.405
54047W        W27115  22.471  11.784   1.465
54048W        W27116   4.195  36.455  11.492
54049W        W27117  19.097   5.974  13.343
54050W        W27118  37.168  31.459   9.999
54051W        W27119  22.192  27.491   1.536
54052W        W27120  13.174  43.782  10.873
54053W        W27121  38.881  37.739  12.601
54054W        W27122  44.976  35.077   3.244
54055W        W27123  34.535  27.086  13.255
54056W        W27124   9.186  32.997   1.964
54057W        W27125  12.835  40.952   0.791
54058W        W27126  24.023  18.475   4.065
54059W        W27127   9.712   3.652   0.051
54060W        W27128  26.284  32.998   2.875
54061W        W27129   3.890  38.352  13.310
54062W        W27130   7.660  44.831   3.769
54063W        W27131  25.926  30.789   2.485
54064W        W27132  22.126  43.350  14.061
54065W        W27133  31.305  37.074   2.651
54066W        W27134  24.079  35.182  10.791
54067W        W27135  35.689  17.097   2.785
54068W        W27136  44.768  21.555  11.935
54069W        W27137  18.193  26.004  11.154
54070W        W27138  37.851   8.133  10.599
54071W        W27139  43.429  32.944  14.259
54072W        W27140  33.975  27.391  12.654
54073W        W27141   4.712  35.923  11.957
54074W        W27142  31.199  25.010   3.109
54075W        W27143  32.707   5.311   1.308
54076W        W27144  41.817  15.659  10.538
54077W        W27145  21.333  37.288  13.911
54078W        W27146   6.847  41.444  12.332
54079W        W27147   4.340  15.093  14.876
54080W        W27148  13.184  18.971   5.052
54081W        W27149  20.047  35.530  14.338
54082W        W27150   7.765  27.972   1.692
54083W        W27151  31.967  13.330   4.206
54084W        W27152  43.282  30.157  12.071
54085W        W27153   0.740   1.245   3.597
54086W        W27154  24.050   1.094   4.322
54087W        W27155  35.124   4.359   3.538
54088W        W27156  41.920   0.251  11.153
54089W        W27157   6.862  42.466  11.572
54090W        W27158  30.387  21.005   0.055
54091W        W27159  30.782  18.136  14.937
54092W        W27160  42.292   7.743   0.347
54093W        W27161  10.143   2.758   2.644
54094W        W27162   9.744   8.834   1.001
54095W        W27163  18.103   7.592  13.426
54096W        W27164   5.790  37.498   2.146
54097W        W27165  22.786   8.317  13.784
54098W        W27166  19.508   8.063   2.433
54099W        W27167   3.926   5.774  10.844
54100W        W27168  27.132  39.658  11.232
54101W        W27169   0.853  21.249  11.838
54102W        W27170  28.486  11.113   4.967
54103W        W27171   0.951  22.856  13.914
54104W        W27172  33.053  26.272   4.292
54105W        W27173   0.843   6.392  10.700
54106W        W27174  19.358  41.264   2.758
54107W        W27175  13.583  19.765   0.162
54108W        W27176  18.073   1.932   1.824
54109W        W27177  26.448  14.207  14.432
54110W        W27178  41.465  30.556  12.961
54111W        W27179  14.176  43.790   0.406
54112W        W27180  34.040  20.413   3.144
54113W        W27181   9.836  23.511  13.382
54114W        W27182  40.055  26.638  11.954
54115W        W27183  25.491  20.032  12.847
54116W        W27184  40.510  33.322  11.299
54117W        W27185  12.356  16.609   5.455
54118W        W27186   9.741  44.744  13.366
54119W        W27187  30.259  30.656   4.135
54120W        W27188  32.465  19.232  14.945
54121W        W27189  24.761  17.257   4.649
54122W        W27190   7.623  14.739   4.839
54123W        W27191  40.986  43.573  11.024
54124W        W27192  30.123   3.848  10.655
54125W        W27193  27.781  28.683  11.649
54126W        W27194  12.688  17.714  11.012
54127W        W27195  34.411  42.046   2.397
54128W        W27196  14.480  11.782   3.561
54129W        W27197  27.001  29.409   0.479
54130W        W27198   9.249   8.885  12.073
54131W        W27199  34.903  18.380   1.299
54132W        W27200  37.482  26.824  12.301
54133W        W27201  27.552  24.219   2.491
54134W        W27202  40.327  30.575  12.063
54135W        W27203  44.408  32.701   1.224
54136W        W27204  22.694  11.645   4.113
54137W        W27205  43.467  11.205  12.017
54138W        W27206   5.098   0.934   3.707
54139W        W27207  16.822   0.477  14.385
54140W        W27208  32.400  17.354   1.849
54141W        W27209  23.141   8.750  10.495
54142W        W27210  28.546  16.793   0.911
54143W        W27211  23.581  43.003  12.064
54144W        W27212  32.904  22.909  10.909
54145W        W27213  30.892  27.844   4.145
54146W        W27214   5.772  33.669  13.023
54147W        W27215   8.606  16.675   3.794
54148W        W27216   3.198  41.301  13.847
54149W        W27217  37.525  37.289  12.888
54150W        W27218  43.159  37.488   3.077
54151W        W27219  19.538  10.338   0.257
54152W        W27220  43.891  42.907   0.484
54153W        W27221   5.295   8.174   4.363
54154W        W27222  28.643  42.368   2.827
54155W        W27223  27.393   6.356  12.089
54156W        W27224   8.193  38.973  12.848
54157W        W27225  29.961   8.357  11.945
54158W        W27226  22.002  32.155   0.838
54159W        W27227  26.436  14.057   4.800
54160W        W27228  36.636  33.630  11.259
54161W        W27229  19.683  36.186  13.426
54162W        W27230  23.217  32.944  13.414
54163W        W27231  15.789   3.502  10.064
54164W        W27232  35.558  38.262   1.638
54165W        W27233  44.998  36.373   4.607
54166W        W27234  13.820  35.504  10.830
54167W        W27235  19.558  21.564   3.929
54168W        W27236  10.406  36.805  12.741
54169W        W27237   6.736  13.476  10.695
54170W        W27238  37.364  25.571   4.439
54171W        W27239   7.616   4.411  14.385
54172W        W27240  13.199   1.011  12.881
54173W        W27241  22.827  33.839  12.427
54174W        W27242   1.879  32.963   0.490
54175W        W27243  39.776  23.017  14.532
54176W        W27244   9.574  36.760  11.532
54177W        W27245  16.255  23.467   0.851
54178W        W27246  12.117   9.367  12.043
54179W        W27247  11.703  17.083  10.214
54180W        W27248  27.793  35.938   1.937
54181W        W27249   6.219  24.575  11.419
54182W        W27250  10.042   1.332   2.269
54183W        W27251  18.546   0.638   1.677
54184W        W27252   0.414  38.883   3.166
54185W        W27253   3.252  29.636  13.921
54186W        W27254  22.129  41.927   1.818
54187W        W27255   0.420  22.022   3.196
54188W        W27256  15.808   7.904   5.054
54189W        W27257  33.083  39.857  13.979
54190W        W27258  42.064  35.528  12.386
54191W        W27259  29.928  43.573   1.002
54192W        W27260  21.048   1.311   1.001
54193W        W27261  30.956   0.788   2.054
54194W        W27262  38.136   8.094   2.927
54195W        W27263   5.876  14.178   4.465
54196W        W27264   1.278  35.414   0.423
54197W        W27265  17.062   6.773   0.498
54198W        W27266  14.245  29.835  11.651
54199W        W27267  33.431  28.616  10.899
54200W        W27268  20.599   9.885   1.770
54201W        W27269  23.789  20.820   4.231
54202W        W27270  10.596  30.123  11.631
54203W        W27271  23.896  42.398   0.368
54204W        W27272  11.113  23.714  14.914
54205W        W27273  38.704  39.415   0.928
54206W        W27274  42.496  23.304   1.246
54207W        W27275  13.259  32.110   3.161
54208W        W27276  37.797  38.894   4.571
54209W        W27277   3.297  16.132   2.198
54210W        W27278  32.283  37.826  12.040
54211W        W27279  18.503  44.723   0.043
54212W        W27280  15.304  23.293   3.332
54213W        W27281  30.489  14.677  13.792
54214W        W27282  30.952  26.940  10.647
54215W        W27283  38.335  13.852  12.437
54216W        W27284  10.393   5.304  14.349
54217W        W27285  13.908  38.910  14.568
54218W        W27286  34.680   4.726  14.711
54219W        W27287  21.218  28.679  11.642
54220W        W27288   6.754  15.643  13.769
54221W        W27289  25.596  14.121  12.803
54222W        W27290  43.751  21.878   0.283
54223W        W27291  29.540   9.316   4.879
54224W        W27292  13.585  26.489   3.189
54225W        W27293  15.151  42.855   4.595
54226W        W27294   3.372  23.412   1.206
54227W        W27295  10.739  26.493   1.493
54228W        W27296  22.279  21.061   1.739
54229W        W27297   9.790   1.766  13.109
54230W        W27298  19.480   9.092  11.135
54231W        W27299  20.137  42.421  14.489
54232W        W27300   3.052  19.210  13.394
54233W        W27301  20.307  44.277   0.642
54234W        W27302  28.946  38.308   2.257
54235W        W27303  17.628  28.561  11.236
54236W        W27304  44.457  27.666   0.739
54237W        W27305   7.476   1.477   1.675
54238W        W27306  15.216   7.315  10.552
54239W        W27307  30.283   2.861  14.530
54240W        W27308  25.480  42.091   2.480
54241W        W27309  16.161  44.089   3.264
54242W        W27310  15.838   9.774  13.490
54243W        W27311  29.619  13.335   4.679
54244W        W27312  23.421  39.927   5.175
54245W        W27313  28.042  24.138  12.554
54246W        W27314   3.264   8.420  12.175
54247W        W27315  37.442  30.988   1.652
54248W        W27316  15.909  41.384   1.114
54249W        W27317   8.242  30.312  12.699
54250W        W27318  30.826  42.762  11.897
54251W        W27319  25.918  28.517  12.387
54252W        W27320   4.145  19.037  12.328
54253W        W27321  44.316  26.150   3.817
54254W        W27322  23.553   5.763  12.356
54255W        W27323  25.555  22.974   1.967
54256W        W27324  21.150  18.604  10.749
54257W        W27325   4.560  32.095   0.697
54258W        W27326  29.774  14.711  11.057
54259W        W27327  38.530  39.747  12.297
54260W        W27328  35.010  38.089   4.151
54261W        W27329  28.626  21.211   0.251
54262W        W27330  24.275  43.478  12.953
54263W        W27331  11.248  40.391  13.084
54264W        W27332  40.072  18.578  12.517
54265W        W27333  32.808  38.045   1.151
54266W        W27334  24.299   5.281   1.924
54267W        W27335  38.208   7.396  11.583
54268W        W27336  25.459  20.824  11.593
54269W        W27337  28.471  33.822   2.277
54270W        W27338  31.712  30.899  11.266
54271W        W27339   7.925  13.143   1.692
54272W        W27340   4.307  39.295   3.165
54273W        W27341  13.423  43.971  12.964
54274W        W27342  21.150   7.756   1.308
54275W        W27343  23.664  21.094   1.425
54276W        W27344   1.987  35.339   3.850
54277W        W27345  18.661  13.255  14.231
54278W        W27346  35.075  41.116  14.902
54279W        W27347  42.866  18.596   4.545
54280W        W27348  21.630   5.475  14.528
54281W        W27349  32.041  33.991   2.530
54282W        W27350  23.123   0.942  14.555
54283W        W27351   5.797   3.483   1.434
54284W        W27352  20.689   6.333  13.697
54285W        W27353  27.688  15.335   3.793
54286W        W27354  19.084  16.252   4.115
54287W        W27355  31.401  25.715  11.545
54288W        W27356   8.890   9.832  12.843
54289W        W27357  26.228   8.851  13.934
54290W        W27358  27.450  10.497   3.300
54291W        W27359  18.680  21.401  13.470
54292W        W27360  33.864   6.803   3.341
54293W        W27361  41.233  20.012   1.719
54294W        W27362  10.836   5.632   1.889
54295W        W27363  16.139  19.792   1.418
54296W        W27364  44.629  34.395   3.626
54297W        W27365  35.799  28.471   0.307
54298W        W27366  19.799   7.328   0.521
54299W        W27367  44.199   0.846  12.174
54300W        W27368  30.097  25.637   1.212
54301W        W27369  16.250   1.470   3.835
54302W        W27370  43.441  26.178   2.867
54303W        W27371  28.968   6.378   1.233
54304W        W27372  40.972  43.020  12.878
54305W        W27373   5.240  35.354   4.664
54306W        W27374  43.759  11.181  11.590
54307W        W27375  32.380   7.149  11.109
54308W        W27376  28.596  37.821   1.973
54309W        W27377  43.738  19.786   3.702
54310W        W27378  35.002  38.234   0.492
54311W        W27379  43.138   0.704   4.307
54312W        W27380  39.388  28.561   1.125
54313W        W27381  28.167  19.685   3.049
54314W        W27382  20.651  16.259   1.108
54315W        W27383  19.655  26.938  14.058
54316W        W27384  37.626  23.215   0.294
54317W        W27385  18.592  17.961  12.128
54318W        W27386  20.265   5.754   2.110
54319W        W27387  32.853  22.704  11.485
54320W        W27388  38.256  43.340   3.698
54321W        W27389   3.360  18.476  10.769
54322W        W27390  29.505  11.366  11.972
54323W        W27391  39.525   9.213   3.528
54324W        W27392  28.666  21.714  14.114
54325W        W27393   3.239  42.976  13.479
54326W        W27394  15.665   6.290  14.521
54327W        W27395  34.679  27.406  14.438
54328W        W27396  39.594   1.979   3.176
54329W        W27397   3.920  40.916   4.401
54330W        W27398  15.694  34.976   2.944
54331W        W27399  29.314  23.166  12.000
54332W        W27400  16.130  14.728   1.076
54333W        W27401  32.140  19.026  14.148
54334W        W27402  39.241  26.128  12.361
54335W        W27403  18.210  27.883  14.858
54336W        W27404   2.700  31.515  12.084
54337W        W27405  29.992  32.051   4.666
54338W        W27406  14.571  34.959  11.990
54339W        W27407   1.527   8.911   1.649
54340W        W27408   3.892  15.387   3.282
54341W        W27409  21.529   5.365   2.012
54342W        W27410  33.843   9.948  14.971
54343W        W27411  44.899  18.348   3.155
54344W        W27412  31.828   5.672  13.950
54345W        W27413  43.012  25.928   1.794
54346W        W27414   0.493   4.512   2.233
54347W        W27415  34.011  20.745  12.594
54348W        W27416   5.497  19.149  11.952
54349W        W27417  10.121  31.217   1.364
54350W        W27418  31.440  19.226  13.557
54351W        W27419  14.989  36.371  12.937
54352W        W27420  24.259  29.028   3.735
54353W        W27421  21.374  25.684   2.668
54354W        W27422  44.508  29.173   3.822
54355W        W27423  10.202  22.730  12.221
54356W        W27424  26.161  40.017  10.356
54357W        W27425  30.585   5.771  13.128
54358W        W27426  10.683  40.185   0.164
54359W        W27427  14.615  23.079   4.626
54360W        W27428  17.128   4.403   3.260
54361W        W27429  15.120   4.290  12.991
54362W        W27430  24.430  23.137   0.832
54363W        W27431  16.757  42.864   2.590
54364W        W27432  27.008  28.590   1.930
54365W        W27433  44.264   5.688  14.029
54366W        W27434  12.712  30.616   0.046
54367W        W27435  13.086  22.172  14.364
54368W        W27436  26.519   7.101   4.628
54369W        W27437  20.805  13.400   1.995
54370W        W27438  37.452  25.004  10.630
54371W        W27439  10.675  14.084   4.074
54372W        W27440  36.727  39.991   4.657
54373W        W27441  40.494  20.030  12.179
54374W        W27442  21.275  28.000  14.046
54375W        W27443  27.123   8.759  11.577
54376W        W27444  23.782  35.804  12.153
54377W        W27445  19.755  33.283   4.025
54378W        W27446  19.170  13.486  10.996
54379W        W27447  29.020  28.573  12.351
54380W        W27448  26.229  27.335  11.091
54381W        W27449  42.434  37.424  10.678
54382W        W27450   9.081  35.137  13.496
54383W        W27451  35.475  19.533  12.495
54384W        W27452  39.948  25.920  14.898
54385W        W27453   5.416  38.717  13.960
54386W        W27454  27.608  29.171   3.300
54387W        W27455  40.338  18.295  13.978
54388W        W27456  36.342  13.234  12.064
54389W        W27457   2.150  41.160   4.982
54390W        W27458  29.480  21.139   3.091
54391W        W27459  10.119  21.829  11.636
54392W        W27460  23.180  37.555   4.075
54393W        W27461  13.881  24.109  11.164
54394W        W27462  33.481  36.545  10.316
54395W        W27463  44.176  36.037   0.395
54396W        W27464  42.110  34.980   1.403
54397W        W27465  39.808  35.665   1.816
54398W        W27466  42.490   4.133  10.623
54399W        W27467  17.155  33.188   4.527
54400W        W27468   7.703  41.956  13.637
54401W        W27469  14.314  15.875   3.760
54402W        W27470  24.559  21.289  14.854
54403W        W27471  35.733  31.494   5.433
54404W        W27472  42.413  37.278  12.878
54405W        W27473  19.494   2.347  12.406
54406W        W27474  26.091  20.677  11.148
54407W        W27475  22.299  22.593   0.551
54408W        W27476   6.371  28.243   3.280
54409W        W27477  14.497  42.624  12.367
54410W        W27478  34.655  14.997   2.218
54411W        W27479  22.156  35.201   4.265
54412W        W27480  10.669  36.805   2.923
54413W        W27481  34.363  30.943   0.203
54414W        W27482  42.532   2.207  13.449
54415W        W27483   6.650  16.977  12.541
54416W        W27484   5.256  31.103   2.210
54417W        W27485   9.152  24.617   2.825
54418W        W27486  26.197  40.710  10.951
54419W        W27487   0.295  30.609   0.231
54420W        W27488   0.654  30.091  12.624
54421W        W27489  42.867  39.849  12.548
54422W        W27490   3.266  15.506  10.375
54423W        W27491  38.822  23.170   1.884
54424W        W27492  44.260  16.763   2.788
54425W        W27493  13.544  42.336  12.535
54426W        W27494  25.124  25.435   3.752
54427W        W27495  38.084  37.871   3.621
54428W        W27496  42.913  27.142   0.263
54429W        W27497   7.630  40.234  13.455
54430W        W27498  29.885  17.267  13.828
54431W        W27499  14.078   3.271   3.672
54432W        W27500   3.273   7.303   0.960
54433W        W27501  38.944  13.836   1.783
54434W        W27502  37.897  30.764  12.902
54435W        W27503  44.934  41.372  14.907
54436W        W27504  38.683  30.880  13.898
54437W        W27505  10.712   8.348  12.321
54438W        W27506   7.878  17.510  12.017
54439W        W27507  32.708  20.777   3.331
54440W        W27508  37.365  29.353   4.948
54441W        W27509  36.309  28.096  11.617
54442W        W27510   8.688  19.603   4.357
54443W        W27511  18.689  42.248   1.254
54444W        W27512  39.765  19.026   1.467
54445W        W27513  41.256   3.710  14.951
54446W        W27514   4.234  10.239  13.495
54447W        W27515  29.445  20.621  12.462
54448W        W27516  29.421  39.558   2.728
54449W        W27517  15.455  25.227   5.015
54450W        W27518  12.310  32.447  10.542
54451W        W27519   1.445   7.965   1.856
54452W        W27520  30.123  10.324  12.997
54453W        W27521  36.986  26.250   0.926
54454W        W27522  21.953  40.880   0.936
54455W        W27523   1.401  23.198  11.950
54456W        W27524  11.134  44.116  13.931
54457W        W27525  15.117  15.304   3.957
54458W        W27526  40.073  10.371   4.589
54459W        W27527  23.710  29.988  14.589
54460W        W27528  26.549  42.229   1.167
54461W        W27529  25.416  36.373  12.835
54462W        W27530  27.923   7.390  12.954
54463W        W27531   4.802  13.912  12.456
54464W        W27532  29.262  22.527   0.475
54465W        W27533  28.885  34.846   0.782
54466W        W27534  13.706  40.509   1.001
54467W        W27535  20.709   9.902   1.217
54468W        W27536  38.314  17.081  14.300
54469W        W27537  26.770  32.833  13.248
54470W        W27538  31.959  21.438   1.878
54471W        W27539  30.247  32.467   1.166
54472W        W27540  27.009   6.716   0.175
54473W        W27541  13.135  10.705  11.198
54474W        W27542   1.487  17.048  14.452
54475W        W27543  35.450  18.011  12.434
54476W        W27544  33.091   6.276  14.792
54477W        W27545  40.776  35.982   0.976
54478W        W27546   9.654  19.240  14.315
54479W        W27547   6.491  27.026   2.690
54480W        W27548  15.813  34.216   0.597
54481W        W27549   9.506  35.922  13.021
54482W        W27550   0.306   4.932  10.720
54483W        W27551  27.022   7.051  11.685
54484W        W27552  31.385  10.019   1.201
54485W        W27553  18.496  16.112   2.912
54486W        W27554   1.062  30.139   0.016
54487W        W27555  14.791   6.940   3.245
54488W        W27556  41.709  16.283   5.135
54489W        W27557  41.772  32.581   4.065
54490W        W27558  27.201  36.329  11.170
54491W        W27559  31.002  35.373   0.643
54492W        W27560  22.187  37.182  13.660
54493W        W27561  39.207  23.832  14.762
54494W        W27562  20.565  13.240   3.298
54495W        W27563  41.832  17.028  12.066
54496W        W27564  33.099   3.268   0.358
54497W        W27565  21.738  44.855  13.271
54498W        W27566   1.047  32.607  11.817
54499W        W27567   7.494   5.519   1.320
54500W        W27568   1.617  25.985  10.960
54501W        W27569  35.170   3.002  12.435
54502W        W27570  35.451   3.839   4.552
54503W        W27571  32.373  42.356  14.815
54504W        W27572  42.947  32.096  10.144
54505W        W27573  29.364   2.353  11.209
54506W        W27574  43.211  14.265  12.141
54507W        W27575  20.272   2.233   2.758
54508W        W27576  21.296  39.726  12.434
54509W        W27577  38.334   6.565  11.903
54510W        W27578   1.513  12.670   3.261
54511W        W27579  24.063   2.267  12.064
54512W        W27580  31.220   9.190  13.481
54513W        W27581  13.614   8.301  10.875
54514W        W27582  12.957  34.377  10.384
54515W        W27583  32.831  44.789  12.354
54516W        W27584  44.311  22.067   4.600
54517W        W27585  18.935  32.482   1.941
54518W        W27586  19.302  10.249   3.952
54519W        W27587  27.034  36.815  13.981
54520W        W27588   1.594   1.990  11.352
54521W        W27589   6.426   5.914   4.141
54522W        W27590  25.520   7.980   2.940
54523W        W27591   8.116  12.630   1.461
54524W        W27592  28.594  14.794  10.992
54525W        W27593  14.725  32.921  13.720
54526W        W27594  17.599  12.419  11.135
54527W        W27595   7.394  20.581   4.796
54528W        W27596   1.364   3.720   0.717
54529W        W27597  14.243  29.732   1.959
54530W        W27598   1.430  39.495   1.329
54531W        W27599  12.859  27.128  11.144
54532W        W27600  21.884  17.876  12.149
54533W        W27601  42.318   3.149  14.978
54534W        W27602  35.301  27.558  11.157
54535W        W27603   3.457  41.513   2.671
54536W        W27604  43.375  23.811  13.547
54537W        W27605  32.684  18.718   3.321
54538W        W27606  25.254  27.394  11.705
54539W        W27607   5.765  19.776  11.105
54540W        W27608   4.765  26.242   0.457
54541W        W27609  24.028  38.677  12.670
54542W        W27610  36.321  24.222   3.014
54543W        W27611  29.442  15.525  10.518
54544W        W27612  33.857  16.657   4.077
54545W        W27613  12.833   2.908   1.668
54546W        W27614  24.718   3.612  14.955
54547W        W27615  23.690   3.160   1.337
54548W        W27616  24.491  10.917  10.301
54549W        W27617  17.609   0.466  11.319
54550W        W27618  33.422  36.677   3.198
54551W        W27619  42.407  20.992  12.860
54552W        W27620  16.844   5.837  13.323
54553W        W27621  39.402  41.284   4.976
54554W        W27622  18.940   6.492  13.503
54555W        W27623  10.230  16.173  12.095
54556W        W27624  24.614   7.126   2.804
54557W        W27625  32.019  14.209   1.711
54558W        W27626  37.555  30.124  14.976
54559W        W27627  16.356  33.536  11.614
54560W        W27628  13.268  16.224   0.369
54561W        W27629  34.747  23.519   0.169
54562W        W27630   9.790  28.090   2.936
54563W        W27631  27.616  31.429   0.784
54564W        W27632  18.695  39.848  10.503
54565W        W27633  37.787   6.653   2.731
54566W        W27634  42.533  10.260  14.938
54567W        W27635   4.868  11.256   3.399
54568W        W27636  21.107   2.949  12.816
54569W        W27637  27.468  20.556   2.965
54570W        W27638  22.073   3.297  11.694
54571W        W27639  10.348  26.409   2.440
54572W        W27640  12.362  21.749   2.337
54573W        W27641   2.863  22.224   2.350
54574W        W27642   4.876  12.154   5.169
54575W        W27643  35.373   0.429   4.203
54576W        W27644  42.996  38.092   1.408
54577W        W27645  18.541  25.785  11.452
54578W        W27646   3.680  10.214  11.726
54579W        W27647  42.416   9.622  11.918
54580W        W27648   8.816   3.412  13.507
54581W        W27649  12.388  30.279  13.797
54582W        W27650  40.750  41.107  14.432
54583W        W27651  17.262  28.179   2.380
54584W        W27652   6.291  32.880  12.968
54585W        W27653  13.217  42.044   0.217
54586W        W27654   8.928  25.678  13.517
54587W        W27655  29.531   4.377  14.119
54588W        W27656  27.507  15.500  13.093
54589W        W27657  22.553  37.503   4.668
54590W        W27658  33.265  20.018  12.009
54591W        W27659   4.653   8.124   3.712
54592W        W27660  12.157  24.296   3.503
54593W        W27661  31.479  14.095  14.251
54594W        W27662   4.824   4.937   2.428
54595W        W27663   0.190  15.630  13.805
54596W        W27664  40.836  14.251   0.800
54597W        W27665  38.897   8.675  11.995
54598W        W27666   1.280  28.914  12.594
54599W        W27667   2.981   6.857   0.979
54600W        W27668  19.827   4.742   3.281
54601W        W27669  29.002   3.396   3.405
54602W        W27670  22.395   8.898  12.070
54603W        W27671   7.814  14.269  14.076
54604W        W27672   9.925  32.936   0.919
54605W        W27673  17.303  32.594   0.689
54606W        W27674  29.524   3.148   2.762
54607W        W27675   3.015  27.804   5.059
54608W        W27676   1.250  40.844   2.347
54609W        W27677  13.150  19.148   1.764
54610W        W27678   5.356  40.440  11.946
54611W        W27679  14.478   9.961  13.950
54612W        W27680  27.617  11.081   3.403
54613W        W27681  30.863   2.421   1.324
54614W        W27682   9.100  41.562   5.518
54615W        W27683   6.212  21.521  11.622
54616W        W27684  11.742   8.946   2.285
54617W        W27685  30.537  17.994   1.787
54618W        W27686  23.237  18.766  14.907
54619W        W27687  30.608  10.417  14.986
54620W        W27688  31.033  14.961  13.656
54621W        W27689   4.445  25.141   0.912
54622W        W27690  33.502  15.169  12.142
54623W        W27691  26.029  31.913  10.493
54624W        W27692  20.774  30.480  14.105
54625W        W27693   4.786  21.718   3.886
54626W        W27694  33.185  39.020  10.647
54627W        W27695   2.430   8.907   4.018
54628W        W27696   9.902  31.412   3.803
54629W        W27697  21.246  16.886   4.357
54630W        W27698   1.256  10.162  10.300
54631W        W27699  18.173  39.454  11.219
54632W        W27700  31.556  18.512   2.902
54633W        W27701  14.317  20.335   2.928
54634W        W27702  35.124  41.062   2.931
54635W        W27703  28.216  31.477   4.794
54636W        W27704  26.771  37.134   1.270
54637W        W27705  13.842   3.813   4.891
54638W        W27706  35.891  12.373   4.034
54639W        W27707  44.817  25.129  12.594
54640W        W27708  34.927  24.087  10.739
54641W        W27709   6.320   3.838   0.975
54642W        W27710   6.239  33.414  13.002
54643W        W27711   4.631  13.841  11.119
54644W        W27712   1.257  29.595   3.654
54645W        W27713  38.640   6.258   4.076
54646W        W27714  31.436  39.443   2.807
54647W        W27715   4.338  14.472   4.789
54648W        W27716  32.022  13.787  12.534
54649W        W27717  15.269  28.322  14.704
54650W        W27718  42.595   7.872   0.908
54651W        W27719   6.292   4.394  12.406
54652W        W27720  10.203  44.058   4.235
54653W        W27721  27.749  22.785   0.463
54654W        W27722  33.474  37.440  11.416
54655W        W27723  36.069  32.404  11.965
54656W        W27724  44.007  39.297  14.577
54657W        W27725  39.007   4.779   0.821
54658W        W27726  21.580  27.435  13.938
54659W        W27727  30.878  23.257   2.194
54660W        W27728  35.569  31.348   1.206
54661W        W27729  19.243  41.889   4.352
54662W        W27730  44.538   5.388  13.081
54663W        W27731  29.690  29.200  13.078
54664W        W27732  27.671  44.810   0.394
54665W        W27733  44.412   1.012   0.240
54666W        W27734  13.505  39.116   4.453
54667W        W27735  11.628  24.160   0.813
54668W        W27736  33.148  32.955   3.323
54669W        W27737   3.201  32.105  14.021
54670W        W27738   6.715   7.797   1.302
54671W        W27739  18.281   2.478   4.120
54672W        W27740  28.228  22.362  13.472
54673W        W27741  28.505  32.591   1.672
54674W        W27742  22.941   0.654  12.959
54675W        W27743  35.082  26.620  14.383
54676W        W27744  37.736  36.398  12.603
54677W        W27745  35.342  19.641   1.892
54678W        W27746  16.171  43.864   4.549
54679W        W27747  11.852  43.763   0.632
54680W        W27748  33.016   2.967  12.451
54681W        W27749  43.530  29.169   2.890
54682W        W27750  40.733  30.941   3.099
54683W        W27751  42.951  23.603  14.510
54684W        W27752  38.505  24.626  12.329
54685W        W27753  27.767   2.923  12.147
54686W        W27754   0.003  36.160   0.134
54687W        W27755  12.221  31.214   0.428
54688W        W27756  28.550  17.112   4.602
54689W        W27757  19.371  21.380   1.893
54690W        W27758  20.674  14.316   0.520
54691W        W27759  25.550  25.029  11.570
54692W        W27760  31.531   0.913  14.859
54693W        W27761   8.394  37.445   1.690
54694W        W27762  14.625  29.009   4.784
54695W        W27763   0.860  12.367  14.000
54696W        W27764  24.249   0.813   4.711
54697W        W27765  24.548  16.650   5.897
54698W        W27766  25.945  30.880  10.571
54699W        W27767  35.471  18.524  11.549
54700W        W27768  35.001   3.369  10.755
54701W        W27769   6.715  19.808   0.194
54702W        W27770  43.272  31.989  11.669
54703W        W27771  37.337  25.441   2.243
54704W        W27772  22.049  19.505  10.667
54705W        W27773  20.643  44.415   2.380
54706W        W27774  38.971  17.597  12.880
54707W        W27775  27.010  28.020   3.696
54708W        W27776  36.516  16.776   2.490
54709W        W27777  38.496  44.451  14.368
54710W        W27778   0.863  33.233   0.633
54711W        W27779   1.460  23.469  14.258
54712W        W27780  14.030   6.466  11.180
54713W        W27781  30.822  41.817  10.935
54714W        W27782  32.633  18.138  14.233
54715W        W27783   6.679  33.638   1.413
54716W        W27784   5.748  31.262  12.397
54717W        W27785  20.791  39.384   2.730
54718W        W27786   6.257  28.616  10.972
54719W        W27787  13.668  35.917  10.560
54720W        W27788   9.168   9.597  14.843
54721W        W27789   9.952   1.993   4.305
54722W        W27790  38.843  32.715   3.694
54723W        W27791  41.294  20.781   0.191
54724W        W27792  23.744  16.756   0.835
54725W        W27793  35.061  39.437   2.646
54726W        W27794  33.357   6.942  12.489
54727W        W27795  19.170  28.987  11.974
54728W        W27796  38.804  23.194   2.851
54729W        W27797  33.615  20.749  11.810
54730W        W27798  14.654  17.084   0.844
54731W        W27799  25.583   6.288  13.760
54732W        W27800  31.488   6.447   0.312
54733W        W27801  41.253  25.573   4.375
54734W        W27802  39.311  19.714  11.436
54735W        W27803  16.057  23.658  14.090
54736W        W27804  10.891  30.307   2.168
54737W        W27805  28.786  24.540  12.880
54738W        W27806  22.666   8.888  13.429
54739W        W27807  21.534  41.772  10.730
54740W        W27808  31.765  29.376   1.268
54741W        W27809  24.365  19.788  13.874
54742W        W27810  32.457  42.316   3.717
54743W        W27811  17.135  19.002  13.509
54744W        W27812   8.013  18.189  13.936
54745W        W27813   7.610   9.871  11.891
54746W        W27814  25.286  40.497  11.921
54747W        W27815  10.077  23.726   4.169
54748W        W27816  14.318  36.327  11.747
54749W        W27817  25.472  34.982  14.339
54750W        W27818  32.913  28.078   1.262
54751W        W27819  14.734  37.034   0.413
54752W        W27820  44.934  21.689  12.942
54753W        W27821  10.745  38.945  11.110
54754W        W27822  41.971  16.607  13.874
54755W        W27823  16.286  38.506   2.194
54756W        W27824   3.944  33.812   1.450
54757W        W27825  28.949   5.970  12.573
54758W        W27826  37.340  10.318  11.552
54759W        W27827  41.293   6.399  12.396
54760W        W27828  34.233  41.890  13.081
54761W        W27829  36.023  27.749   2.808
54762W        W27830  11.184  27.959  12.376
54763W        W27831  43.913  38.570   0.443
54764W        W27832  24.141  25.447  14.085
54765W        W27833  26.952  30.387  14.336
54766W        W27834  44.949  10.657   0.489
54767W        W27835   1.220  41.711  10.428
54768W        W27836  27.040  22.796  14.367
54769W        W27837  36.260  34.946   4.718
54770W        W27838   3.916   5.159  11.987
54771W        W27839  22.546  17.297   2.245
54772W        W27840   9.823  16.871   0.908
54773W        W27841  30.672  23.777   1.687
54774W        W27842  37.070  43.755  13.139
54775W        W27843   5.799  44.701   4.545
54776W        W27844   9.361  19.949   1.427
54777W        W27845  39.488  25.511   4.508
54778W        W27846  44.725  15.568  12.427
54779W        W27847  17.568  37.533  11.443
54780W        W27848  35.642  40.878   0.781
54781W        W27849  21.972  39.827  12.804
54782W        W27850  39.129   1.892  11.955
54783W        W27851   8.441  41.879  10.760
54784W        W27852  42.373  31.106   0.406
54785W        W27853  18.057  24.460   4.471
54786W        W27854  12.943  26.221   3.878
54787W        W27855  42.341   8.456  12.546
54788W        W27856  29.167  16.167   0.733
54789W        W27857   1.718  41.322   0.754
54790W        W27858   7.638  29.369   0.834
54791W        W27859  32.831  40.370   0.027
54792W        W27860  11.341  15.782  13.086
54793W        W27861  10.410  14.789  12.488
54794W        W27862  10.151  25.141   0.923
54795W        W27863  25.103  13.362  11.976
54796W        W27864  29.159   5.724  13.855
54797W        W27865  10.086   8.097   1.307
54798W        W27866  10.074   5.759  10.876
54799W        W27867  33.160  30.604   5.131
54800W        W27868  39.564  28.946  13.985
54801W        W27869  21.629  29.922  12.086
54802W        W27870  10.715  14.399  13.993
54803W        W27871   5.231   6.730   1.240
54804W        W27872  12.585  36.471   0.854
54805W        W27873  33.994  36.323  12.634
54806W        W27874  33.628  11.131  14.350
54807W        W27875  18.668  28.198   4.210
54808W        W27876  26.203  42.807   4.166
54809W        W27877  15.847  39.881   0.418
54810W        W27878   1.259  42.524   1.272
54811W        W27879   5.367  24.961  11.436
54812W        W27880  22.282  25.646   4.426
54813W        W27881   5.895   3.698  12.465
54814W        W27882  32.564  41.105  12.401
54815W        W27883  30.138   3.310   2.214
54816W        W27884  36.361  35.183   2.062
54817W        W27885   3.036   2.998   1.745
54818W        W27886  15.121  32.156   2.158
54819W        W27887  34.367  39.612  12.060
54820W        W27888  44.844  16.331  13.121
54821W        W27889  36.516   8.362  10.904
54822W        W27890  16.018  42.610  14.907
54823W        W27891  23.229  35.896  12.888
54824W        W27892  15.114  37.863   4.694
54825W        W27893  34.057  19.881   3.154
54826W        W27894  24.610  27.198  13.457
54827W        W27895   2.586  37.544  10.133
54828W        W27896  32.596   6.861  14.273
54829W        W27897   2.817  19.577  11.743
54830W        W27898  31.879  26.060  13.647
54831W        W27899  42.635   6.516  11.604
54832W        W27900  29.864  25.759  13.483
54833W        W27901  17.266  26.130  10.694
54834W        W27902  19.299   2.974  13.551
54835W        W27903  42.806  35.924  12.035
54836W        W27904  37.041   2.740  14.600
54837W        W27905  27.148  33.785   4.753
54838W        W27906   2.729   6.979   2.106
54839W        W27907  37.593  17.086  11.150
54840W        W27908  36.957  37.464  10.674
54841W        W27909  18.161  10.905  14.255
54842W        W27910  42.302   9.790   3.166
54843W        W27911  40.388  12.413  11.463
54844W        W27912  36.960  16.148  14.790
54845W        W27913   6.234  40.096   0.669
54846W        W27914  12.371   3.228  11.039
54847W        W27915  14.570  36.418  13.284
54848W        W27916  35.575   8.966  13.352
54849W        W27917  15.588   6.266  14.011
54850W        W27918   7.935  37.343  10.686
54851W        W27919  19.545  14.719   0.008
54852W        W27920  40.230  12.422  14.901
54853W        W27921   4.871  13.913   4.719
54854W        W27922  39.276  24.099   4.729
54855W        W27923   2.905  24.082   1.321
54856W        W27924  14.903   3.427   2.578
54857W        W27925   3.761   1.214  12.352
54858W        W27926  44.840   9.385  11.554
54859W        W27927  35.902  15.542  11.471
54860W        W27928  10.821  31.437   3.731
54861W        W27929   8.342   8.601  11.163
54862W        W27930  31.165  14.177  11.721
54863W        W27931  38.911  33.026  12.984
54864W        W27932   5.938  42.827   4.625
54865W        W27933  23.644  27.178  13.405
54866W        W27934  33.228  23.715   4.011
54867W        W27935  23.093  10.029   2.276
54868W        W27936  14.322  31.684   3.877
54869W        W27937  26.016   4.825   4.260
54870W        W27938   5.206  36.466   2.904
54871W        W27939  29.389  44.432   2.744
54872W        W27940  35.268  35.730  10.990
54873W        W27941   2.498   7.391  12.464
54874W        W27942  37.837   1.662   1.273
54875W        W27943   7.790  25.787  11.360
54876W        W27944  43.323  20.108   1.901
54877W        W27945  13.101   6.797   2.686
54878W        W27946   5.900   8.437  10.638
54879W        W27947  31.814  10.633  12.500
54880W        W27948  27.012  28.259  11.602
54881W        W27949   3.478  23.132  11.358
54882W        W27950  37.635  28.129  14.002
54883W        W27951  42.759  10.110   4.060
54884W        W27952  27.056   4.336   1.257
54885W        W27953   7.065   5.092  11.270
54886W        W27954  40.576  21.492   4.123
54887W        W27955   9.353  24.277   3.725
54888W        W27956  17.267  34.132   2.526
54889W        W27957  35.141   6.712  10.418
54890W        W27958  35.564  26.500   3.340
54891W        W27959   6.980  34.784   2.731
54892W        W27960  21.121  14.788  10.955
54893W        W27961  43.469  19.432  14.451
54894W        W27962  40.801  19.500   3.221
54895W        W27963   3.365   1.224   3.581
54896W        W27964   0.404  33.079  11.904
54897W        W27965  41.747  10.667   3.335
54898W        W27966  19.156   1.820   4.791
54899W        W27967  26.516  11.218  10.274
54900W        W27968  32.557  15.353   3.754
54901W        W27969  24.131  25.127   5.404
54902W        W27970  28.545  14.293  14.640
54903W        W27971  27.518  21.459   1.459
54904W        W27972  37.306   0.974  14.567
54905W        W27973  16.017  26.276  14.477
54906W        W27974  27.553  33.575  13.447
54907W        W27975   0.313  39.499  10.709
54908W        W27976   0.745  18.796   2.337
54909W        W27977   8.687  30.670  10.580
54910W        W27978   2.784  42.294  12.549
54911W        W27979   2.372  30.018  10.652
54912W        W27980  28.872  37.816   2.964
54913W        W27981  20.518  41.978   2.656
54914W        W27982  42.094  22.721  14.689
54915W        W27983  19.791  13.539  13.120
54916W        W27984   2.309   7.623  12.982
54917W        W27985   6.121  28.957   1.118
54918W        W27986   0.906  40.784  12.365
54919W        W27987  30.663   2.813  12.898
54920W        W27988  43.497  43.732   1.465
54921W        W27989  44.027  36.131   1.250
54922W        W27990  14.782  43.751   3.699
54923W        W27991  31.082  13.719  14.965
54924W        W27992  22.731  32.959  12.496
54925W        W27993  25.254  38.362   3.240
54926W        W27994  41.096  11.251   4.918
54927W        W27995  26.443  31.983   4.219
54928W        W27996  13.148   5.777   0.170
54929W        W27997  31.144  25.986   4.186
54930W        W27998  18.829   3.993   0.633
54931W        W27999   3.758  23.682  11.182
54932W        W28000  24.467  10.703  13.355
54933W        W28001  16.542  29.971   0.571
54934W        W28002  23.580  42.784  13.536
54935W        W28003   1.879  10.864   4.752
54936W        W28004  19.489   8.826   4.425
54937W        W28005   8.254  13.704   3.951
54938W        W28006  30.448  14.653  11.734
54939W        W28007  34.515   4.373   3.711
54940W        W28008  41.030  39.871   3.612
54941W        W28009   7.385  21.237  11.962
54942W        W28010  44.519  36.610  10.798
54943W        W28011   6.966  24.721   0.441
54944W        W28012  43.306  43.933  14.823
54945W        W28013  10.742  36.917  13.586
54946W        W28014  37.831  31.828   3.192
54947W        W28015  10.616  40.022  14.276
54948W        W28016  44.195  37.078  11.889
54949W        W28017   2.863  39.940  11.636
54950W        W28018  17.250  30.453  14.603
54951W        W28019  26.801  44.007  11.549
54952W        W28020  39.736  17.496   3.701
54953W        W28021  15.911  21.493   1.488
54954W        W28022  11.461  29.127  11.536
54955W        W28023  10.172  40.869  14.490
54956W        W28024   8.203  40.559  11.129
54957W        W28025  30.680  41.566   1.788
54958W        W28026  44.333  21.730   5.003
54959W        W28027  36.195   8.909   2.372
54960W        W28028  23.174  19.221   3.790
54961W        W28029  30.571  30.243   2.744
54962W        W28030  10.802  28.905  12.286
54963W        W28031  27.910  38.009   3.187
54964W        W28032   2.518  12.706   4.073
54965W        W28033  34.506   7.119   4.113
54966W        W28034  27.156   2.094  12.326
54967W        W28035  25.493  39.538  11.521
54968W        W28036  36.396   4.878   0.909
54969W        W28037  41.836  31.965   4.045
54970W        W28038  14.178   2.570   0.995
54971W        W28039  33.836   8.272   4.913
54972W        W28040  11.668  43.452   3.323
54973W        W28041   9.632   2.319  12.016
54974W        W28042  21.887  39.413  13.996
54975W        W28043  12.507  21.322  11.126
54976W        W28044  18.074  26.081  12.307
54977W        W28045  12.522  43.882  12.909
54978W        W28046  18.287  10.401   1.430
54979W        W28047  32.019  27.180  10.597
54980W        W28048  20.213   4.789   4.593
54981W        W28049  19.802  39.417   2.362
54982W        W28050  23.116  31.811   0.036
54983W        W28051  10.960  13.728   0.752
54984W        W28052  15.723  43.437  12.151
54985W        W28053  29.640  29.747  11.977
54986W        W28054  40.201  15.398  10.781
54987W        W28055  44.779  18.356  10.801
54988W        W28056  23.491   2.219   4.669
54989W        W28057  39.432   3.480  12.428
54990W        W28058   9.835  23.571   3.231
54991W        W28059  32.184  37.357   4.672
54992W        W28060  28.668  10.162   2.329
54993W        W28061  36.040  29.949   2.172
54994W        W28062  29.923   0.429  13.472
54995W        W28063  23.033  43.275  14.071
54996W        W28064  15.279   7.245   1.150
54997W        W28065  27.093   9.826   3.672
54998W        W28066  43.227  15.948   1.845
54999W        W28067  27.991   7.085   3.654
55000W        W28068   4.382   1.245  11.230
55001W        W28069  41.519  18.303   2.874
55002W        W28070  28.374  20.741   2.875
55003W        W28071  25.160   6.821  14.925
55004W        W28072  30.980  17.722  13.637
55005W        W28073   1.060  21.245   3.651
55006W        W28074   8.176  42.108  11.152
55007W        W28075  14.666   2.261   0.268
55008W        W28076   7.825  41.926  10.189
55009W        W28077  14.924  23.584   0.776
55010W        W28078  13.443  17.320   3.705
55011W        W28079  35.062  24.944   4.667
55012W        W28080  44.387  22.866   4.220
55013W        W28081  34.456   3.728   0.223
55014W        W28082  28.553  28.765  13.520
55015W        W28083  22.006  38.704  13.458
55016W        W28084  41.949  29.979  12.495
55017W        W28085  13.172  14.637   1.670
55018W        W28086  28.583  14.731  12.576
55019W        W28087  17.740  22.366   2.902
55020W        W28088  37.422  32.685  12.621
55021W        W28089   1.427   2.166  12.991
55022W        W28090  34.422   3.647   0.745
55023W        W28091  37.561   4.908  10.953
55024W        W28092  36.593  30.160  13.861
55025W        W28093   1.776  26.608   2.668
55026W        W28094  16.153  44.277  14.516
55027W        W28095  38.066  23.764   2.453
55028W        W28096  14.815  21.269   2.690
55029W        W28097  38.814  30.373   1.658
55030W        W28098   4.726  33.568  10.529
55031W        W28099   4.536  44.392  10.196
55032W        W28100  44.796   6.786  10.949
55033W        W28101  23.719   1.774  14.230
55034W        W28102   7.503  35.388  12.050
55035W        W28103  12.582  19.283  14.546
55036W        W28104  30.143  25.079   4.064
55037W        W28105  18.760  14.464  11.671
55038W        W28106   8.433  43.955  13.642
55039W        W28107  25.059  34.032  10.668
55040W        W28108  29.019   9.843   2.559
55041W        W28109  38.493  24.584  12.852
55042W        W28110  18.709  28.675   3.923
55043W        W28111   0.836  30.503  12.369
55044W        W28112  21.899  11.645   2.239
55045W        W28113  38.309  27.157   3.059
55046W        W28114  10.423  37.432  12.444
55047W        W28115  26.708  36.876   4.915
55048W        W28116  23.089   1.773   0.020
55049W        W28117   6.887  11.494  10.797
55050W        W28118  13.382  39.440  12.041
55051W        W28119  32.429   3.485  12.124
55052W        W28120  21.455  20.131  14.991
55053W        W28121  28.389  17.007  14.368
55054W        W28122  41.960  25.605  10.667
55055W        W28123  28.434  38.920  11.551
55056W        W28124  16.276   1.915   3.576
55057W        W28125  38.798  25.438  14.848
55058W        W28126  41.228  12.216  14.772
55059W        W28127  15.860  18.107  14.492
55060W        W28128  29.510   7.253  12.206
55061W        W28129  23.632  35.828  13.948
55062W        W28130  11.297  24.088  14.211
55063W        W28131  27.510   2.382   1.847
55064W        W28132  26.999  18.082   2.375
55065W        W28133  16.730  32.524   1.393
55066W        W28134  31.994  27.866  13.431
55067W        W28135  44.474  15.902  13.301
55068W        W28136  30.634  31.141  14.911
55069W        W28137   2.678  23.739  13.949
55070W        W28138  23.017  16.182  11.200
55071W        W28139  10.159   8.448  12.120
55072W        W28140  14.257  30.404  12.927
55073W        W28141  11.746  18.253  11.603
55074W        W28142  44.057  17.280  13.624
55075W        W28143   8.835  13.270   4.408
55076W        W28144  22.236  29.641   0.365
55077W        W28145   3.771   1.569   3.639
55078W        W28146   9.292  10.636  12.091
55079W        W28147  19.625   1.451  12.370
55080W        W28148  20.132  40.897   3.296
55081W        W28149   1.519  18.873   3.616
55082W        W28150   1.883   2.238   1.132
55083W        W28151  41.881   7.273   0.917
55084W        W28152   6.630  41.517   4.223
55085W        W28153  42.773  29.647   2.810
55086W        W28154  27.859  26.517   3.243
55087W        W28155  22.075   1.453  14.468
55088W        W28156   6.352   9.709   0.562
55089W        W28157  15.872  19.590  13.445
55090W        W28158   9.045  12.588  12.047
55091W        W28159   8.112  44.603   3.863
55092W        W28160  40.534  13.212  12.584
55093W        W28161   0.253  32.859  10.910
55094W        W28162  15.283   9.900  11.655
55095W        W28163  31.590   2.984   3.144
55096W        W28164  21.246  11.943   3.336
55097W        W28165  25.526   2.199  11.403
55098W        W28166  37.877  18.569  10.988
55099W        W28167  44.983  41.422   3.984
55100W        W28168  35.141  12.723   3.685
55101W        W28169  32.212  21.519  11.047
55102W        W28170  33.112  28.102  11.390
55103W        W28171  16.634  23.410   1.212
55104W        W28172  26.571  30.468  13.437
55105W        W28173  24.656  39.279  12.633
55106W        W28174  44.807  20.175  10.648
55107W        W28175  19.528  15.759  12.848
55108W        W28176  18.145  34.053  14.981
55109W        W28177  20.749  44.872   3.234
55110W        W28178  17.032  41.130  14.466
55111W        W28179  31.616  34.897   1.213
55112W        W28180  24.955  13.087   2.348
55113W        W28181   3.843   5.929  13.936
55114W        W28182  12.077  36.281  11.052
55115W        W28183  19.440   0.175   5.077
55116W        W28184  24.930   1.202   2.604
55117W        W28185  20.851  44.564   4.099
55118W        W28186  10.341  44.378  12.196
55119W        W28187   9.785   6.929  10.687
55120W        W28188  13.089   1.206   3.056
55121W        W28189  28.920  33.556   0.456
55122W        W28190   4.443  33.197  12.884
55123W        W28191  17.077   3.040   4.802
55124W        W28192  24.954  39.374   4.094
55125W        W28193  13.968  28.080   4.359
55126W        W28194  42.257   1.313  12.429
55127W        W28195   5.759  37.112   3.203
55128W        W28196   8.477  24.455   1.341
55129W        W28197  26.439  15.076  14.414
55130W        W28198  28.187   5.334   1.198
55131W        W28199  37.856   5.328   1.051
55132W        W28200  14.317   8.382  11.692
55133W        W28201  13.135  33.838   3.666
55134W        W28202  39.515  25.050   4.742
55135W        W28203   5.728  25.292  14.461
55136W        W28204  44.451  32.103  11.664
55137W        W28205  13.326  15.467   2.352
55138W        W28206   7.659   3.885  13.361
55139W        W28207  41.624  12.873  11.225
55140W        W28208  14.286  23.962  10.883
55141W        W28209  27.599  10.212   1.224
55142W        W28210  24.518  36.262   0.247
55143W        W28211  27.994  43.342   0.884
55144W        W28212  39.372  36.500  10.550
55145W        W28213   2.866  26.631  13.568
55146W        W28214   0.835  38.564  11.238
55147W        W28215  15.595  29.067  12.430
55148W        W28216   3.590  35.557   2.737
55149W        W28217   3.306   8.710   1.932
55150W        W28218  33.037  40.569   1.820
55151W        W28219   2.693  36.201  10.198
55152W        W28220  13.105  39.983  12.497
55153W        W28221  21.006  18.175   0.439
55154W        W28222  15.795   3.898  12.844
55155W        W28223  38.784  14.870   3.638
55156W        W28224  32.245  24.983  11.148
55157W        W28225  15.392  17.505   1.685
55158W        W28226  42.731  17.507   0.750
55159W        W28227   4.110  26.630   1.691
55160W        W28228   3.275  13.466   2.298
55161W        W28229  39.017  16.576   4.119
55162W        W28230   5.789  40.442   1.740
55163W        W28231  41.507  27.674   4.762
55164W        W28232  43.559  11.696   0.967
55165W        W28233   7.620  12.724   1.593
55166W        W28234   5.286  29.122   2.367
55167W        W28235  26.460  20.396   3.157
55168W        W28236   2.116  25.060   4.270
55169W        W28237  37.570  44.923  12.200
55170W        W28238  10.477   9.986  13.444
55171W        W28239  30.172  21.489   0.021
55172W        W28240  18.760  36.594   2.455
55173W        W28241  28.397  36.437  13.856
55174W        W28242  18.443  37.503   3.783
55175W        W28243  18.882   7.298  12.894
55176W        W28244  39.453  37.802   2.208
55177W        W28245  17.311  23.136   0.339
55178W        W28246   2.321  10.785  13.885
55179W        W28247  42.394  44.515   4.397
55180W        W28248  27.063  25.920  10.359
55181W        W28249   4.247  41.027  13.641
55182W        W28250  34.881  19.694   0.193
55183W        W28251  30.692  16.529   0.377
55184W        W28252  44.982   2.222  11.578
55185W        W28253  22.107  35.211   1.236
55186W        W28254  37.894   2.919   0.140
55187W        W28255  21.241  38.171  12.112
55188W        W28256   7.748   8.457  12.823
55189W        W28257  43.699  39.756  11.897
55190W        W28258   3.690  37.603   1.634
55191W        W28259  33.505  37.429  10.403
55192W        W28260  44.318  34.860   1.837
55193W        W28261  22.598  12.943   1.820
55194W        W28262   5.750  23.771  13.329
55195W        W28263  39.864  22.039  13.769
55196W        W28264  40.845  37.542   1.878
55197W        W28265  32.130   6.737  12.825
55198W        W28266  23.668  41.993   0.065
55199W        W28267  18.102   1.393   1.904
55200W        W28268  31.845   6.480  11.515
55201W        W28269  39.449  20.971   3.747
55202W        W28270  28.043  26.528  12.044
55203W        W28271  34.187  44.846  12.501
55204W        W28272  22.920  27.123  14.146
55205W        W28273  24.053  36.900  11.204
55206W        W28274  17.768  24.356   1.785
55207W        W28275  21.517  31.976  12.074
55208W        W28276  27.590  40.542   3.203
55209W        W28277   5.374  13.095  12.181
55210W        W28278  37.983  34.472   5.149
55211W        W28279  26.020  40.556  13.945
55212W        W28280  14.143  34.430  11.005
55213W        W28281  21.222   5.617   0.809
55214W        W28282  36.633  31.845   4.168
55215W        W28283   8.355  32.283  12.545
55216W        W28284  28.688  34.485   0.443
55217W        W28285  43.820   9.665  12.608
55218W        W28286   2.201  42.068  12.898
55219W        W28287  33.450  39.546  10.916
55220W        W28288  18.186  43.298  14.308
55221W        W28289  18.169  41.332   1.508
55222W        W28290  43.294  20.997  12.817
55223W        W28291  39.876  33.876   0.436
55224W        W28292  13.085  43.242   0.836
55225W        W28293  16.711  35.552  14.924
55226W        W28294  38.384  32.837  12.186
55227W        W28295  39.179  32.119  14.667
55228W        W28296   7.130  14.715  14.921
55229W        W28297   9.507  11.506  11.989
55230W        W28298  25.977  37.429  14.026
55231W        W28299   2.204   5.510  11.020
55232W        W28300  17.872  23.875  11.180
55233W        W28301  34.384  26.272  11.113
55234W        W28302  18.155  32.164   1.872
55235W        W28303  39.911  30.958  11.512
55236W        W28304  17.325   0.580  14.285
55237W        W28305  19.252  34.349  13.583
55238W        W28306  42.258  35.387   4.087
55239W        W28307  28.132  32.175   1.859
55240W        W28308  13.243  24.629  10.597
55241W        W28309  43.315  26.369  11.552
55242W        W28310   9.738  34.134  10.725
55243W        W28311  20.745  15.092  11.132
55244W        W28312   4.367  31.723   4.051
55245W        W28313   6.901   0.630   3.068
55246W        W28314  16.574  16.008  12.436
55247W        W28315   5.281  31.782  10.612
55248W        W28316  44.982  44.701   3.250
55249W        W28317  25.636  26.234  13.046
55250W        W28318  26.055  22.226   4.726
55251W        W28319   3.940  10.761  12.489
55252W        W28320  24.871  27.558  14.549
55253W        W28321  12.466   7.255   3.688
55254W        W28322  42.256  19.760   1.454
55255W        W28323  13.302  10.630   4.766
55256W        W28324   1.953  11.130  12.185
55257W        W28325  40.046   4.150   0.701
55258W        W28326  18.776  33.227   0.378
55259W        W28327  17.044  34.325   0.784
55260W        W28328  13.687  41.076  11.653
55261W        W28329   0.557   7.336   4.337
55262W        W28330  28.688  13.496   2.230
55263W        W28331  15.101  23.031  12.199
55264W        W28332  10.843  20.140  13.570
55265W        W28333   1.259  17.299  11.533
55266W        W28334  13.835  24.761  13.326
55267W        W28335  15.652  28.594   4.133
55268W        W28336  16.848   9.396   2.244
55269W        W28337  31.652   2.992   1.411
55270W        W28338   5.311  12.278   4.920
55271W        W28339  41.600  30.131  14.101
55272W        W28340  11.577  12.165   0.875
55273W        W28341  19.044  21.492  10.629
55274W        W28342  37.434  10.263   0.764
55275W        W28343  42.438  13.499   5.920
55276W        W28344  15.281  28.840  14.795
55277W        W28345  13.105  37.547   3.007
55278W        W28346  37.857  33.110  11.601
55279W        W28347  27.572  24.967   4.515
55280W        W28348   2.574  35.576   2.766
55281W        W28349   6.382  23.752  13.761
55282W        W28350  25.714  17.575  11.200
55283W        W28351   9.802  44.508  14.272
55284W        W28352   7.834   7.720   2.441
55285W        W28353  11.775  14.811  10.734
55286W        W28354  43.084  12.886  12.597
55287W        W28355  16.287  17.609   2.035
55288W        W28356   3.744   1.492  13.912
55289W        W28357  44.071   4.250   2.441
55290W        W28358  39.748  28.147   0.973
55291W        W28359   0.907  20.533   4.824
55292W        W28360  42.442  21.043   4.100
55293W        W28361  17.406  32.611  12.090
55294W        W28362  10.163  13.363  12.206
55295W        W28363  41.330  37.483   3.350
55296W        W28364   8.107  12.607   2.387
55297W        W28365  11.914  15.621   2.186
55298W        W28366  41.371   8.367  12.381
55299W        W28367  23.638  15.787   3.310
55300W        W28368  35.578   6.211  13.016
55301W        W28369  13.081   8.927   4.104
55302W        W28370  10.160  30.678   1.311
55303W        W28371  30.511  22.626  11.960
55304W        W28372  21.464  34.502   3.970
55305W        W28373   9.326  19.051   1.394
55306W        W28374  38.926   5.974   2.886
55307W        W28375   4.554  37.692  13.495
55308W        W28376  24.658  37.936   4.279
55309W        W28377  43.235   5.984  14.663
55310W        W28378  33.414  35.396   0.273
55311W        W28379   9.222  19.789  11.167
55312W        W28380  28.980  43.890   2.926
55313W        W28381  34.115  14.172   4.614
55314W        W28382   4.912   7.728   4.680
55315W        W28383  28.902  11.845   3.270
55316W        W28384   8.174  32.491  12.085
55317W        W28385  16.395   9.880   1.761
55318W        W28386  31.104   0.315  14.910
55319W        W28387   8.107  27.046   2.912
55320W        W28388  28.703   5.534   3.349
55321W        W28389  12.278  21.206   2.331
55322W        W28390  28.669  28.078   4.235
55323W        W28391  29.358  29.559   0.181
55324W        W28392   6.371  21.079  10.777
55325W        W28393   2.272  16.049   0.271
55326W        W28394  23.557  41.507   0.239
55327W        W28395  22.579  12.696  13.994
55328W        W28396  15.634   1.992  12.099
55329W        W28397  11.675  36.884  12.596
55330W        W28398  27.402  14.515   4.181
55331W        W28399  35.972   3.903   4.177
55332W        W28400   0.395  42.260   2.883
55333W        W28401  32.391  16.214   0.751
55334W        W28402  36.227  14.058  12.579
55335W        W28403   1.300  38.841  12.966
55336W        W28404  44.376  42.644   4.999
55337W        W28405   4.506  43.873   3.000
55338W        W28406  37.439  31.077  14.828
55339W        W28407  14.750  43.225   1.232
55340W        W28408  33.545  19.773  11.661
55341W        W28409  40.049  10.976  11.151
55342W        W28410  40.859  24.133  13.615
55343W        W28411  15.422   1.316  11.539
55344W        W28412  43.029  28.225  14.581
55345W        W28413  19.230  13.193   1.996
55346W        W28414  32.992  23.525  13.123
55347W        W28415  13.234   3.327  11.274
55348W        W28416  31.111  35.006   3.393
55349W        W28417   2.323  44.755   0.694
55350W        W28418  36.945  43.948  11.636
55351W        W28419  31.649   9.425   2.377
55352W        W28420  34.854  34.192   0.262
55353W        W28421  37.456   2.883  12.894
55354W        W28422  16.616  11.349  11.092
55355W        W28423  12.060  13.646  11.041
55356W        W28424  10.876  19.525  10.875
55357W        W28425  18.083   7.636  11.620
55358W        W28426  30.617  41.749  11.929
55359W        W28427  21.678  24.728  13.785
55360W        W28428  15.679  18.984  14.285
55361W        W28429   8.259  40.292   4.121
55362W        W28430  36.481  27.952  10.705
55363W        W28431   5.859  14.412  13.917
55364W        W28432  19.588  36.149   4.335
55365W        W28433   9.505  32.078   1.706
55366W        W28434   5.865  36.138  13.277
55367W        W28435  24.668  30.916  14.030
55368W        W28436   8.241  28.715   4.158
55369W        W28437  16.252   5.217  12.397
55370W        W28438  14.128  40.290   1.918
55371W        W28439  38.313  11.679  10.656
55372W        W28440   2.220   1.594   3.072
55373W        W28441  14.609   2.797  13.378
55374W        W28442  27.167  26.959  13.968
55375W        W28443  26.419  13.139   2.724
55376W        W28444  17.289   6.770   4.658
55377W        W28445  14.845   6.629  12.848
55378W        W28446  41.041  42.537   3.213
55379W        W28447  11.837  16.752  13.329
55380W        W28448  42.118  32.554  10.543
55381W        W28449   5.285  28.613   1.081
55382W        W28450  26.737   8.036   2.529
55383W        W28451  29.329  33.778  10.072
55384W        W28452  36.852  38.636   3.610
55385W        W28453  24.485  33.040  14.841
55386W        W28454  14.236  21.551   2.247
55387W        W28455  25.584  42.251  12.149
55388W        W28456  27.171  38.367   0.910
55389W        W28457  38.019  21.049   2.279
55390W        W28458   8.641   0.405  14.053
55391W        W28459   4.770  26.046  12.937
55392W        W28460  43.376  40.524  13.804
55393W        W28461  18.280  10.084   1.842
55394W        W28462  36.953   4.682  13.454
55395W        W28463  14.096  32.176   4.134
55396W        W28464   3.234  42.390   0.698
55397W        W28465  14.357  31.214   3.668
55398W        W28466  35.954  40.565  12.994
55399W        W28467  32.482  33.407   2.690
55400W        W28468  25.291  35.352  11.145
55401W        W28469  44.752   9.093   0.789
55402W        W28470  43.401  13.288  13.832
55403W        W28471  27.661  39.488   2.344
55404W        W28472  25.320  19.402  13.678
55405W        W28473  27.055  19.972  13.307
55406W        W28474   0.365  19.511   2.466
55407W        W28475  30.388  37.822  14.220
55408W        W28476  44.143  32.946   2.360
55409W        W28477  24.266  16.301   2.718
55410W        W28478  26.235   6.824   1.272
55411W        W28479  34.866  29.382   2.394
55412W        W28480  41.821  43.751  11.316
55413W        W28481  30.497  29.262  12.976
55414W        W28482  23.715   0.004   2.219
55415W        W28483   5.546   1.257  13.868
55416W        W28484  20.161   9.359   2.987
55417W        W28485  16.362  38.008  13.816
55418W        W28486  36.390  25.205  11.827
55419W        W28487  35.611   8.228   1.628
55420W        W28488  40.643  31.001  12.081
55421W        W28489   6.755   5.793  10.725
55422W        W28490  40.064   1.630  11.036
55423W        W28491   3.704  42.375  11.379
55424W        W28492  27.184  36.061   4.541
55425W        W28493  34.810  19.451   3.703
55426W        W28494  18.917   4.442  13.025
55427W        W28495   8.832  29.121  14.251
55428W        W28496  26.338   8.051  11.475
55429W        W28497  13.574   7.365   1.644
55430W        W28498  31.876  29.343  12.916
55431W        W28499  31.004  15.326   3.226
55432W        W28500  37.821  20.447   4.064
55433W        W28501  12.223  37.036  10.560
55434W        W28502  43.308  11.714   2.022
55435W        W28503  28.111  22.136   4.608
55436W        W28504   1.906   5.374   1.258
55437W        W28505  20.014  18.576  11.649
55438W        W28506  39.995  42.967   1.396
55439W        W28507   9.208  25.743  14.891
55440W        W28508  37.583  28.999   1.715
55441W        W28509   7.880  17.684   1.677
55442W        W28510   7.385  16.683  12.412
55443W        W28511  25.602  43.211  13.954
55444W        W28512  42.870   9.756  13.784
55445W        W28513   4.204  38.796  13.372
55446W        W28514   4.634   4.340   0.376
55447W        W28515  14.242  13.378  13.403
55448W        W28516  41.956   3.397   0.556
55449W        W28517  44.562  11.493   0.371
55450W        W28518  43.814  14.452   4.550
55451W        W28519  20.954  12.012   2.060
55452W        W28520   0.894  19.224  12.691
55453W        W28521  44.288  16.726  10.629
55454W        W28522  35.925   1.729   4.202
55455W        W28523  18.140  34.939   0.345
55456W        W28524  22.787   5.683   2.700
55457W        W28525   1.460  14.698  12.084
55458W        W28526  36.370  23.700  12.356
55459W        W28527   4.752  27.865  12.793
55460W        W28528  34.940   4.326   4.017
55461W        W28529   2.416  30.511  10.444
55462W        W28530   2.762  14.209   5.036
55463W        W28531  14.633  12.716  12.087
55464W        W28532  44.382  15.751   5.149
55465W        W28533  25.811  34.507  12.821
55466W        W28534  17.729  28.564  10.736
55467W        W28535  43.010  37.072   1.217
55468W        W28536  26.515  40.097   4.536
55469W        W28537  21.812   5.759   2.236
55470W        W28538  35.419  31.969   3.220
55471W        W28539  17.083   5.334   3.357
55472W        W28540   5.777  23.237   0.888
55473W        W28541  18.743   5.244  11.163
55474W        W28542   3.368  24.369   3.577
55475W        W28543  44.478  18.833   3.143
55476W        W28544  17.395   3.195  13.449
55477W        W28545  21.072  21.301   2.686
55478W        W28546  18.131  30.009   4.551
55479W        W28547  20.621  25.732  13.082
55480W        W28548  28.037  12.371   5.404
55481W        W28549  17.285  38.808  10.651
55482W        W28550  10.188  37.756  12.973
55483W        W28551  28.395  18.213   2.134
55484W        W28552  27.589  40.019  14.742
55485W        W28553  31.900  13.505  12.953
55486W        W28554  17.604  20.716   3.236
55487W        W28555   7.273  18.212   0.070
55488W        W28556  42.056   3.859  10.861
55489W        W28557  28.752  44.544  12.967
55490W        W28558  23.096   0.994   2.339
55491W        W28559  32.600  42.357  11.453
55492W        W28560   9.758  39.250  10.952
55493W        W28561  40.525   5.375  13.490
55494W        W28562  23.940  27.494  12.056
55495W        W28563  16.126  30.697   3.787
55496W        W28564  22.518   5.103   3.681
55497W        W28565  19.791  38.811   4.944
55498W        W28566  33.859  41.428   4.606
55499W        W28567  31.624  37.876   3.898
55500W        W28568  37.441   4.842   3.394
55501W        W28569  24.223   3.758   0.691
55502W        W28570  33.925   1.895  11.014
55503W        W28571   0.771  25.994   2.236
55504W        W28572  25.603   1.890  13.959
55505W        W28573  20.380  36.530  11.490
55506W        W28574   0.484  25.628   1.412
55507W        W28575   4.395  17.518  11.614
55508W        W28576  19.150  34.077   2.000
55509W        W28577  27.969  14.315   3.707
55510W        W28578  18.209  11.807   0.532
55511W        W28579  42.093  40.582  14.459
55512W        W28580  30.594  11.389  14.969
55513W        W28581   8.617  14.534   4.503
55514W        W28582   8.552   5.797  14.899
55515W        W28583   4.006   3.251   2.257
55516W        W28584  30.149  36.329   2.128
55517W        W28585   7.688   3.058   4.640
55518W        W28586  29.111  22.968   4.655
55519W        W28587  39.359  25.125  10.655
55520W        W28588  38.308  19.184  14.390
55521W        W28589  14.697  26.756  11.449
55522W        W28590   8.383  43.176  11.110
55523W        W28591  34.540   6.005   2.850
55524W        W28592  36.011   4.659  10.619
55525W        W28593   8.246  26.038  14.028
55526W        W28594  24.881  10.591  12.099
55527W        W28595  14.287   2.052   0.959
55528W        W28596  17.294  39.047   5.056
55529W        W28597   5.406  15.212  12.627
55530W        W28598  26.743  27.259  10.550
55531W        W28599  40.457   4.482   0.800
55532W        W28600  20.722  20.845  12.329
55533W        W28601  36.456   8.902   1.904
55534W        W28602  31.268  15.566  14.341
55535W        W28603   1.221  27.904   1.232
55536W        W28604  42.338   9.475   3.611
55537W        W28605  31.640  36.519  10.593
55538W        W28606  22.418   6.670  11.653
55539W        W28607   3.943  30.200   3.622
55540W        W28608  15.856  27.934   2.768
55541W        W28609  44.711  41.851   4.780
55542W        W28610  38.507  24.637  11.808
55543W        W28611   0.044  16.459   2.562
55544W        W28612  33.116   1.226   1.202
55545W        W28613  37.524   6.989  12.002
55546W        W28614  30.642  44.089  13.573
55547W        W28615  40.369  11.296  10.640
55548W        W28616   3.728  28.082   1.576
55549W        W28617   7.625  40.013  13.923
55550W        W28618  42.893  35.429  11.191
55551W        W28619  42.730   1.204  11.118
55552W        W28620  10.242  14.268  13.780
55553W        W28621  31.543  39.107   2.293
55554W        W28622  12.031   9.333   1.870
55555W        W28623  34.149  41.094   3.188
55556W        W28624  44.375  28.998  12.571
55557W        W28625  22.257  21.983   1.832
55558W        W28626   7.396  18.470  10.649
55559W        W28627  28.171  40.262   1.396
55560W        W28628  19.475   7.268   3.211
55561W        W28629  33.511  11.558  13.530
55562W        W28630  21.427   6.076   4.614
55563W        W28631  26.540  26.139  14.372
55564W        W28632  15.154  19.184   1.223
55565W        W28633   1.640  41.034  11.922
55566W        W28634  17.759  26.595  14.698
55567W        W28635  30.685  16.732  14.027
55568W        W28636   1.754  22.034  14.389
55569W        W28637   1.360  18.434  12.196
55570W        W28638   7.590  25.282   3.278
55571W        W28639  18.176  14.313   2.869
55572W        W28640   0.587  38.851  14.072
55573W        W28641  25.391  16.531   0.399
55574W        W28642  38.401  24.080  14.129
55575W        W28643   1.986   6.549   0.094
55576W        W28644  22.549  12.947  12.116
55577W        W28645  17.835   0.716  12.722
55578W        W28646  23.926  30.049   0.946
55579W        W28647  22.275   4.709   1.307
55580W        W28648  31.605  30.674   1.879
55581W        W28649  12.465  13.565   4.875
55582W        W28650   8.446  20.199  10.833
55583W        W28651  14.893   5.115  11.518
55584W        W28652   2.870  29.005  10.885
55585W        W28653  17.397  22.759   3.785
55586W        W28654   4.226   0.751   4.903
55587W        W28655   5.645  10.225   3.384
55588W        W28656  23.903  17.295   5.093
55589W        W28657  38.475  26.115  13.019
55590W        W28658  12.786   1.802   2.215
55591W        W28659  34.446  41.475  13.972
55592W        W28660  28.544  42.928  12.020
55593W        W28661  39.941  19.144   4.034
55594W        W28662  15.838  30.125  10.679
55595W        W28663   8.675   3.344   3.332
55596W        W28664  20.624   4.730   3.667
55597W        W28665  25.939  30.507  14.467
55598W        W28666   1.026  25.718   4.692
55599W        W28667  28.926   0.894   2.670
55600W        W28668  30.026   0.035  13.144
55601W        W28669  16.785  27.308   2.409
55602W        W28670  39.958  38.745   0.549
55603W        W28671   0.411  11.155  14.332
55604W        W28672   5.405   5.824   4.409
55605W        W28673   0.817  29.039   5.338
55606W        W28674  23.742  34.704   2.815
55607W        W28675  18.268  10.662  12.357
55608W        W28676  17.146  28.695  14.448
55609W        W28677  28.105   7.282  14.871
55610W        W28678  23.460  12.861   3.592
55611W        W28679  10.555  19.755   1.765
55612W        W28680  20.294  37.464   4.693
55613W        W28681   5.148   9.371   1.004
55614W        W28682  16.185  26.525   0.864
55615W        W28683  15.024  10.229   4.613
55616W        W28684  41.557  30.448  11.205
55617W        W28685  39.152  27.950  10.055
55618W        W28686  23.285  25.627   3.589
55619W        W28687   9.648  43.761  11.972
55620W        W28688  38.330  44.543   3.140
55621W        W28689  39.645  20.531  11.851
55622W        W28690  17.523  18.733  10.175
55623W        W28691   7.830  15.536  12.274
55624W        W28692  10.853  34.280   0.228
55625W        W28693  28.349  10.259   2.762
55626W        W28694  43.711  28.005  11.960
55627W        W28695  15.114  39.028   3.584
55628W        W28696  36.177  10.644  13.975
55629W        W28697   6.416  23.084  10.634
55630W        W28698  37.920  25.104  14.805
55631W        W28699  26.931   7.237   3.057
55632W        W28700  18.767  24.249  12.573
55633W        W28701  10.679   1.814  12.466
55634W        W28702  43.076  35.950   1.073
55635W        W28703  43.423  11.296   3.692
55636W        W28704  37.732  31.196   0.824
55637W        W28705  40.947   0.059  13.305
55638W        W28706   1.751  23.699   3.259
55639W        W28707  41.047   8.118  11.137
55640W        W28708  41.756   6.299   2.814
55641W        W28709  28.650  35.590  14.511
55642W        W28710  22.237  11.903  12.403
55643W        W28711  33.534  33.881   3.679
55644W        W28712  23.099  17.540   3.003
55645W        W28713   9.702  36.932  14.736
55646W        W28714  42.509  30.203   3.887
55647W        W28715  16.156   1.506   4.841
55648W        W28716  37.886  24.064  11.418
55649W        W28717   9.927  14.579  12.508
55650W        W28718  23.203  14.754  14.544
55651W        W28719  24.783  38.461   2.353
55652W        W28720   3.588   5.963   0.130
55653W        W28721  33.516  18.601   4.900
55654W        W28722  43.447  29.645  12.053
55655W        W28723   2.816  24.368  14.238
55656W        W28724   8.440  31.478   4.323
55657W        W28725   7.471   0.428   3.743
55658W        W28726  26.659  33.157   3.381
55659W        W28727  22.997  18.673   1.801
55660W        W28728  36.551   2.759  12.416
55661W        W28729  13.867  17.007   3.674
55662W        W28730   6.702  42.391   0.675
55663W        W28731  44.834   5.210   4.129
55664W        W28732  30.145  19.754  13.605
55665W        W28733   5.080  13.435  11.936
55666W        W28734   6.797  21.663   2.076
55667W        W28735  40.070  15.161  14.902
55668W        W28736  17.272  34.222   4.622
55669W        W28737  15.486  35.864  12.865
55670W        W28738  40.537   7.401  13.229
55671W        W28739   6.798  41.705   3.780
55672W        W28740  34.092   3.199   1.742
55673W        W28741  26.451  20.518  13.404
55674W        W28742  11.635  39.823   3.978
55675W        W28743  25.146  14.340  13.100
55676W        W28744  36.503  17.200   4.495
55677W        W28745  20.216   5.898   1.156
55678W        W28746  12.382   1.818   4.355
55679W        W28747  14.757  11.158  10.526
55680W        W28748  15.638  12.853   3.286
55681W        W28749  29.178  29.379  10.975
55682W        W28750  27.992   8.372  13.063
55683W        W28751  19.521   6.832   1.847
55684W        W28752   1.192  19.468   0.719
55685W        W28753  35.336  17.975   3.832
55686W        W28754   5.981  34.895   2.780
55687W        W28755  14.791  12.613  13.975
55688W        W28756  22.566   0.928   3.107
55689W        W28757   6.465  44.238   5.048
55690W        W28758   7.232  18.004  10.783
55691W        W28759  10.396   1.886  11.253
55692W        W28760  37.157  20.773   2.381
55693W        W28761  21.467  38.428   3.273
55694W        W28762  24.715  37.524  11.820
55695W        W28763  30.079  12.139   2.058
55696W        W28764  43.744  15.529  12.063
55697W        W28765  39.792  43.689   2.766
55698W        W28766  18.774  37.454  13.079
55699W        W28767   8.680  10.435  14.640
55700W        W28768  36.047  18.584  14.023
55701W        W28769  13.188  43.996  13.872
55702W        W28770   9.715   7.189  13.993
55703W        W28771  36.027  36.920  12.436
55704W        W28772  43.742   3.025   0.808
55705W        W28773   7.854  23.801  12.910
55706W        W28774   1.755  22.840  13.989
55707W        W28775  33.430   8.975   4.385
55708W        W28776  18.947  40.757   1.340
55709W        W28777  35.348   7.595   3.675
55710W        W28778   1.493  44.447  11.989
55711W        W28779   5.987   5.846   1.316
55712W        W28780  28.065   0.755  10.533
55713W        W28781  39.520  11.195  11.828
55714W        W28782   0.014  22.183  11.950
55715W        W28783  18.281  24.239   1.864
55716W        W28784   8.706  24.582   3.124
55717W        W28785  26.508  22.962   0.411
55718W        W28786  23.255  23.187  13.606
55719W        W28787  36.323  22.646   3.579
55720W        W28788  44.515  26.591   3.164
55721W        W28789  17.416  26.620  12.868
55722W        W28790  29.001   7.782   3.595
55723W        W28791  27.976  32.911  11.595
55724W        W28792  39.717  12.787  13.467
55725W        W28793  33.544   5.924   2.905
55726W        W28794  14.693  21.599  10.883
55727W        W28795  15.298   8.300  11.586
55728W        W28796  17.250   1.502  12.629
55729W        W28797  29.588  25.334  13.573
55730W        W28798  34.201   6.759  12.023
55731W        W28799   8.625  29.128  11.049
55732W        W28800   6.675   3.467   5.030
55733W        W28801   1.348  39.825   2.729
55734W        W28802  20.019   5.162   2.767
55735W        W28803  22.599  39.606   2.438
55736W        W28804  29.183   0.492   3.816
55737W        W28805  39.854  39.239   0.461
55738W        W28806  19.765  42.264  14.814
55739W        W28807  36.836   1.768  13.538
55740W        W28808  24.935  17.818   3.314
55741W        W28809  15.145  34.917   2.185
55742W        W28810  44.562  39.047  10.964
55743W        W28811  34.445  15.318  12.110
55744W        W28812  23.509  33.041  12.979
55745W        W28813   8.365  11.683  14.553
55746W        W28814  32.055  29.926   0.457
55747W        W28815  42.538  24.695   0.469
55748W        W28816   2.850  11.072   4.743
55749W        W28817  39.446  26.000   1.016
55750W        W28818  29.453  28.936  12.698
55751W        W28819  28.696  32.644  10.783
55752W        W28820  22.098  34.425  13.734
55753W        W28821  27.995  33.696   0.991
55754W        W28822  17.200  11.476  13.481
55755W        W28823  42.237  30.061  12.086
55756W        W28824  11.648  19.810  14.123
55757W        W28825   7.799   4.958   4.448
55758W        W28826  36.820  25.512   2.249
55759W        W28827  13.666  36.097   0.948
55760W        W28828  29.599  28.385  14.295
55761W        W28829  37.170  37.807  14.281
55762W        W28830  43.395  11.301   4.381
55763W        W28831  42.839  19.216   3.625
55764W        W28832  25.169  26.204   3.302
55765W        W28833  36.113  26.577   3.291
55766W        W28834  38.397  12.247  11.692
55767W        W28835  15.187   5.028   4.552
55768W        W28836   2.986  22.993  10.501
55769W        W28837  29.757  12.821  13.074
55770W        W28838  23.918  28.758   2.343
55771W        W28839  39.385   5.990   2.116
55772W        W28840  44.252   0.472  12.512
55773W        W28841   2.053   9.942  12.752
55774W        W28842   8.652  34.708  13.595
55775W        W28843  29.487  11.055   1.853
55776W        W28844  36.598   2.827   3.562
55777W        W28845  23.652  28.202  12.571
55778W        W28846   7.385  41.498  13.059
55779W        W28847   5.432   6.542   0.202
55780W        W28848  10.781  31.433  13.388
55781W        W28849  20.192  15.664  11.532
55782W        W28850  42.002  22.780  10.248
55783W        W28851  22.975   9.615  12.236
55784W        W28852  30.934  10.672   2.308
55785W        W28853  19.214  38.925  10.550
55786W        W28854  42.453  22.221  12.018
55787W        W28855  20.702  19.041   4.622
55788W        W28856   1.955  30.208  12.612
55789W        W28857  17.090  19.430  13.828
55790W        W28858  27.095  17.565  10.645
55791W        W28859  35.459   2.754   4.407
55792W        W28860   5.322  37.902  13.510
55793W        W28861  30.207  43.833  11.933
55794W        W28862  33.898  36.838  10.377
55795W        W28863   3.756  27.424  10.731
55796W        W28864   0.861  30.922  14.111
55797W        W28865   4.905  13.945   1.733
55798W        W28866  37.019  32.639  12.923
55799W        W28867  28.395   6.453  12.098
55800W        W28868   1.788  17.238  11.683
55801W        W28869  23.445  15.365   1.416
55802W        W28870  41.069   3.799   2.881
55803W        W28871   5.655   2.489   0.325
55804W        W28872  43.607   4.991  10.097
55805W        W28873   6.898   2.448  10.776
55806W        W28874  43.257  16.318  12.004
55807W        W28875  42.296  37.866  14.065
55808W        W28876  14.591  26.569   4.496
55809W        W28877  18.611  44.184   1.408
55810W        W28878  24.068   9.106  10.740
55811W        W28879  27.651  38.487  11.601
55812W        W28880  43.231  32.940  11.529
55813W        W28881  39.898  37.904   3.430
55814W        W28882  36.147  32.874  14.025
55815W        W28883  42.938  19.100  14.035
55816W        W28884  33.487  27.511   0.471
55817W        W28885  13.119  39.566   4.530
55818W        W28886  16.936  44.538  14.416
55819W        W28887  15.138  13.749  14.488
55820W        W28888   7.666  26.448   1.384
55821W        W28889  39.602   5.757   2.579
55822W        W28890  15.165  25.209   0.990
55823W        W28891  23.521  32.492   2.732
55824W        W28892  32.431  33.544   3.185
55825W        W28893  35.476  30.312   4.943
55826W        W28894   6.193  12.573  12.834
55827W        W28895  14.458  10.931  12.540
55828W        W28896  44.899  23.069   0.546
55829W        W28897  44.410  35.113   3.180
55830W        W28898  19.249  24.551   2.803
55831W        W28899  12.202  12.618   1.763
55832W        W28900  44.377   3.299   3.408
55833W        W28901  29.481  25.013   1.328
55834W        W28902  14.128   9.448  13.793
55835W        W28903   6.399   1.986  14.662
55836W        W28904  36.513  33.449  12.121
55837W        W28905  16.035  25.758   1.354
55838W        W28906  31.835  12.573   3.810
55839W        W28907   6.789   3.715  12.344
55840W        W28908   6.710   0.612  14.138
55841W        W28909   4.405  20.599  12.306
55842W        W28910  26.366   6.166   2.434
55843W        W28911  35.886  32.659  14.454
55844W        W28912  13.487  12.170  11.606
55845W        W28913  36.841  43.760   3.773
55846W        W28914  43.479  36.008  11.619
55847W        W28915  12.556  44.988   3.758
55848W        W28916   4.255  18.167   0.905
55849W        W28917  20.222  22.268   2.799
55850W        W28918  19.758  13.963   1.817
55851W        W28919  43.808  24.022   4.633
55852W        W28920  33.619  40.821   4.250
55853W        W28921  16.555   3.836  11.061
55854W        W28922  12.834   6.140  11.519
55855W        W28923   7.980   7.275   5.229
55856W        W28924  24.210   4.800   2.103
55857W        W28925   3.115  22.809   5.025
55858W        W28926  23.277  41.751   1.523
55859W        W28927  27.648  40.025  13.761
55860W        W28928   7.131  23.460   4.601
55861W        W28929  36.916  33.956  11.609
55862W        W28930  22.648  34.424   3.259
55863W        W28931  15.994  20.246   4.417
55864W        W28932  44.491   3.310   0.393
55865W        W28933  40.467   2.293  13.402
55866W        W28934  17.726  23.755   4.027
55867W        W28935  15.119  13.701   4.253
55868W        W28936  38.010  36.364   1.298
55869W        W28937  34.670  36.188   1.325
55870W        W28938  36.932  27.682   3.481
55871W        W28939  27.922  28.226   1.305
55872W        W28940  27.393  30.731   2.272
55873W        W28941  36.432   8.513   3.642
55874W        W28942  19.138  27.638  13.764
55875W        W28943   4.172   4.959  14.263
55876W        W28944   0.448  38.964   2.262
55877W        W28945   2.462  44.754   3.015
55878W        W28946  15.317   1.948  14.954
55879W        W28947   3.814  35.048   0.585
55880W        W28948  18.356  25.714  13.344
55881W        W28949  14.472  37.909   0.503
55882W        W28950  25.557  24.955   0.833
55883W        W28951  21.220  42.935   0.868
55884W        W28952  38.023  25.569   0.474
55885W        W28953  41.264  44.373  11.344
55886W        W28954  10.334  11.649  10.581
55887W        W28955  17.099  18.519  13.335
55888W        W28956  11.918   0.979  10.034
55889W        W28957   9.124   2.758   2.791
55890W        W28958   5.262  31.029  11.700
55891W        W28959  39.352   6.942   3.991
55892W        W28960   0.703  31.137  11.055
55893W        W28961  22.081  21.828  10.722
55894W        W28962   5.997  35.652   1.531
55895W        W28963  31.925  32.042  13.819
55896W        W28964  30.103  30.524   1.400
55897W        W28965  22.670  30.043   3.688
55898W        W28966  39.473   3.423  10.266
55899W        W28967  35.538  13.009  12.527
55900W        W28968  42.696  33.951  10.673
55901W        W28969  38.323   8.635   2.214
55902W        W28970  28.683  37.209   3.657
55903W        W28971  10.575  39.375  13.802
55904W        W28972   1.685  35.223   1.819
55905W        W28973  40.599  16.148   0.085
55906W        W28974  33.188  42.760   3.371
55907W        W28975  38.665  35.679   0.111
55908W        W28976  40.779   1.070  12.491
55909W        W28977  15.931   0.782   4.048
55910W        W28978  21.179  35.003  14.337
55911W        W28979  43.523   9.193   0.884
55912W        W28980   7.877   1.733   3.644
55913W        W28981  39.820   3.285  10.638
55914W        W28982   2.720  44.017   3.348
55915W        W28983  14.085   5.013   1.873
55916W        W28984  21.131   4.518   4.503
55917W        W28985  15.808  22.727   4.571
55918W        W28986   6.149  43.345   2.711
55919W        W28987   7.246  14.712   3.365
55920W        W28988  32.928  32.208  13.351
55921W        W28989   4.705  16.246  12.094
55922W        W28990  41.995  24.323   4.381
55923W        W28991  15.815  23.606   0.390
55924W        W28992  23.784   5.804   3.523
55925W        W28993  14.784  22.083   3.556
55926W        W28994  36.445   8.684  12.392
55927W        W28995  31.630  41.937   1.060
55928W        W28996  25.337  40.112  13.114
55929W        W28997  17.236  26.553  14.742
55930W        W28998   1.502   7.383   1.380
55931W        W28999  16.698  16.273  14.955
55932W        W29000  15.636  43.885  10.698
55933W        W29001  20.012   9.427  13.559
55934W        W29002  39.964  14.503   0.477
55935W        W29003  19.461  18.693   3.220
55936W        W29004  25.114  22.635   1.901
55937W        W29005   3.805  24.118   3.755
55938W        W29006  19.242  29.866  11.909
55939W        W29007  40.815  13.380  13.936
55940W        W29008   4.790  10.587  14.458
55941W        W29009  25.772  41.740  14.337
55942W        W29010  31.658  21.890   1.309
55943W        W29011   6.612  41.721   5.535
55944W        W29012   1.936  27.205  13.759
55945W        W29013  34.884  19.822   3.255
55946W        W29014  28.695  15.210   3.700
55947W        W29015   3.336  36.333  12.354
55948W        W29016  35.507  22.752   0.038
55949W        W29017  42.722  43.793   2.702
55950W        W29018  42.511  40.074   1.744
55951W        W29019   3.549  23.545   0.336
55952W        W29020   1.173  34.954   2.182
55953W        W29021   1.846  11.310  10.694
55954W        W29022  15.752  27.313   3.609
55955W        W29023  22.141  10.433   2.354
55956W        W29024  14.732   3.177  14.863
55957W        W29025   4.430  27.060  14.948
55958W        W29026  23.779   2.444   2.866
55959W        W29027  41.406  17.239  12.981
55960W        W29028  38.240  11.915  14.319
55961W        W29029  14.245  22.150   4.341
55962W        W29030  40.472  43.288  12.469
55963W        W29031  30.048  42.904   3.339
55964W        W29032  15.883  31.192  11.010
55965W        W29033  32.381  44.344  13.671
55966W        W29034  44.113  25.760  14.286
55967W        W29035  24.744  33.607  12.890
55968W        W29036   2.954  41.357   4.884
55969W        W29037  26.446  30.472  14.318
55970W        W29038   1.817  34.108  13.298
55971W        W29039  18.511  35.071   2.811
55972W        W29040  10.545  23.225   0.737
55973W        W29041  17.127  23.164   3.627
55974W        W29042  17.470   3.414  12.842
55975W        W29043  20.186  22.660   4.570
55976W        W29044   1.473  27.151  10.810
55977W        W29045   3.920  35.376   4.687
55978W        W29046  14.222  27.884   3.558
55979W        W29047  28.753  44.224   1.513
55980W        W29048   8.433  11.445  12.657
55981W        W29049  28.471   6.939   3.804
55982W        W29050   8.995   7.139  14.349
55983W        W29051  21.347  23.416  14.777
55984W        W29052  22.172  29.462   2.289
55985W        W29053  38.124  44.664   3.772
55986W        W29054  15.553  20.165  10.675
55987W        W29055  32.042  34.501  13.457
55988W        W29056   0.424  30.528  14.713
55989W        W29057  19.742  28.808   1.276
55990W        W29058  43.897  31.937   1.363
55991W        W29059  29.882  18.639  14.332
55992W        W29060  22.694  38.971   1.339
55993W        W29061  15.635  13.303   0.060
55994W        W29062  32.469  27.170  12.906
55995W        W29063  37.337  29.681  11.951
55996W        W29064  22.679  35.523   3.235
55997W        W29065  27.864  13.644  10.670
55998W        W29066  10.408  33.142  12.624
55999W        W29067  19.154   1.961  10.749
56000W        W29068  33.441  33.636  12.944
56001W        W29069  34.846  10.939   0.794
56002W        W29070  27.127  22.849   1.612
56003W        W29071  11.912  33.897   0.494
56004W        W29072  22.725   9.468   0.481
56005W        W29073  23.273   5.755   3.595
56006W        W29074  14.851  22.651   3.579
56007W        W29075  14.708  29.110   2.646
56008W        W29076  17.810   9.860  12.053
56009W        W29077  38.511  30.641  14.976
56010W        W29078  44.273  17.232   0.945
56011W        W29079  14.711  32.003   1.246
56012W        W29080  31.061  21.537   0.408
56013W        W29081  16.552  28.717   1.118
56014W        W29082  39.334   8.694  10.192
56015W        W29083   2.881   9.333  13.552
56016W        W29084  27.516  17.628  14.370
56017W        W29085  24.688  40.321   4.070
56018W        W29086  16.404  44.868   3.601
56019W        W29087  10.599  35.072  14.911
56020W        W29088   5.607   6.212  11.573
56021W        W29089  10.919  37.899   3.302
56022W        W29090  44.284   7.489   3.297
56023W        W29091  44.056  27.454  14.058
56024W        W29092  40.095  43.773  13.420
56025W        W29093  14.716  15.589  11.668
56026W        W29094  31.898  23.998  13.650
56027W        W29095  26.089   2.902   4.077
56028W        W29096  25.042  17.125  14.985
56029W        W29097  27.238  36.558   0.290
56030W        W29098  10.982  43.877  11.681
56031W        W29099  17.714  24.611  14.796
56032W        W29100   8.248   4.143  11.188
56033W        W29101  21.227  19.966  11.556
56034W        W29102  21.723  41.949  12.969
56035W        W29103   9.605  14.728   0.771
56036W        W29104  40.935   7.710  10.229
56037W        W29105  15.766   8.895  13.908
56038W        W29106  28.171  11.158  13.920
56039W        W29107  14.865   0.540   3.175
56040W        W29108  35.039  29.241  10.297
56041W        W29109  40.500  40.822   0.612
56042W        W29110  30.150  28.268   3.800
56043W        W29111  44.742  40.059   4.616
56044W        W29112  12.462  30.671   1.831
56045W        W29113  20.320  16.725  13.397
56046W        W29114  43.923   0.351   2.608
56047W        W29115  43.963  36.595  14.507
56048W        W29116   7.643  43.217  12.028
56049W        W29117  39.451  32.094   4.119
56050W        W29118  12.800  14.688   1.335
56051W        W29119  20.996  28.146  12.868
56052W        W29120   5.524  34.965   3.021
56053W        W29121  31.996  15.022   1.298
56054W        W29122  19.390  23.154  13.809
56055W        W29123   3.028   5.370   2.316
56056W        W29124  17.304  29.010   9.729
56057W        W29125   3.849   5.674   1.251
56058W        W29126   5.801  35.432   4.598
56059W        W29127  29.879   8.810   3.872
56060W        W29128  32.359  25.746  12.349
56061W        W29129  36.069  43.802  12.307
56062W        W29130  11.362  16.041  13.595
56063W        W29131   4.729  29.142  11.394
56064W        W29132  26.135  24.645   3.842
56065W        W29133  14.316  42.510  12.956
56066W        W29134  14.034   8.278  11.283
56067W        W29135  18.867  11.116   2.039
56068W        W29136  25.668  35.043   4.572
56069W        W29137  35.499  36.282   0.390
56070W        W29138  14.746  42.307  14.320
56071W        W29139  31.394  33.666   4.553
56072W        W29140   8.880   9.188   2.314
56073W        W29141   9.952  19.319  10.702
56074W        W29142  10.630  31.036   1.970
56075W        W29143   7.344  44.015   4.106
56076W        W29144  26.697  14.626  11.003
56077W        W29145  31.726   4.437   0.408
56078W        W29146  16.077  16.650   2.217
56079W        W29147  14.377  11.375  11.249
56080W        W29148   4.546  22.739  14.287
56081W        W29149   8.493  23.092   2.200
56082W        W29150  11.887  21.938   0.705
56083W        W29151  16.073  40.374  14.755
56084W        W29152  26.496  33.619   3.584
56085W        W29153   4.104  21.493   2.351
56086W        W29154  36.646  21.229   2.236
56087W        W29155  44.645  26.667   2.200
56088W        W29156  28.200  33.799  10.197
56089W        W29157  26.982  32.668   3.403
56090W        W29158   7.664   9.288  12.618
56091W        W29159   8.661  31.920   1.901
56092W        W29160  21.666   0.936  13.140
56093W        W29161  19.987  32.452   0.909
56094W        W29162  16.918  22.011   3.274
56095W        W29163   0.019   2.249   4.654
56096W        W29164  13.901  15.586   3.589
56097W        W29165  40.265  44.868   2.413
56098W        W29166  36.816   3.947  11.764
56099W        W29167  31.637  23.213  12.835
56100W        W29168   3.935  34.924  11.585
56101W        W29169  37.592  17.167   0.025
56102W        W29170  33.037  19.818   0.311
56103W        W29171  33.880  34.483   0.567
56104W        W29172  20.732  38.017   0.312
56105W        W29173  19.555   4.402  11.687
56106W        W29174  12.634  18.528   0.794
56107W        W29175  13.857  15.635   1.257
56108W        W29176  23.153   0.479   2.352
56109W        W29177  13.049  25.652  13.322
56110W        W29178  11.212  26.949   2.267
56111W        W29179   1.947  28.258   1.776
56112W        W29180  15.917  30.639  11.015
56113W        W29181  10.382  42.726   3.359
56114W        W29182  40.815  10.736   0.037
56115W        W29183  33.334   8.711  10.597
56116W        W29184  33.860  25.039   3.082
56117W        W29185  34.799  19.288  14.800
56118W        W29186   7.883   1.478  14.352
56119W        W29187  29.283  12.307  12.372
56120W        W29188   5.086  23.858   1.432
56121W        W29189  28.494   9.765   4.710
56122W        W29190  25.662  35.598   2.149
56123W        W29191  40.497  23.240  11.407
56124W        W29192  42.483  24.624  11.672
56125W        W29193   9.119  18.086  12.908
56126W        W29194   9.461  28.952   4.670
56127W        W29195  14.297  15.901  11.516
56128W        W29196   4.466  11.350  12.969
56129W        W29197  19.798   4.980  14.021
56130W        W29198   5.391  22.548   4.086
56131W        W29199  26.532  44.866   3.575
56132W        W29200  44.734  21.227   1.347
56133W        W29201  32.559  11.689  10.595
56134W        W29202  16.970  34.988  14.464
56135W        W29203  37.273  17.104  10.731
56136W        W29204   3.931  10.079  10.177
56137W        W29205  15.309  23.545   2.585
56138W        W29206  28.468  27.975  12.996
56139W        W29207  34.969   2.697   4.584
56140W        W29208   1.833   7.462  12.829
56141W        W29209  20.573   0.315  13.535
56142W        W29210  43.786   3.237   4.128
56143W        W29211   4.764   0.810   2.368
56144W        W29212  13.624  39.006   0.411
56145W        W29213  12.674  15.563   4.219
56146W        W29214  10.590  29.611  11.604
56147W        W29215  35.056  34.523  12.986
56148W        W29216  23.723  30.866  14.766
56149W        W29217  10.929  12.719  13.119
56150W        W29218   6.479  13.906  13.527
56151W        W29219  35.665  43.052  13.122
56152W        W29220   8.869   9.671  13.358
56153W        W29221  36.805  32.435   2.670
56154W        W29222  27.126  16.290   1.000
56155W        W29223  21.171  11.481  13.710
56156W        W29224   5.663  25.255  13.049
56157W        W29225   6.166  17.684  12.676
56158W        W29226  18.481  12.225   1.387
56159W        W29227   6.738  41.609  11.519
56160W        W29228  31.606  15.348  10.478
56161W        W29229  34.546   9.644   2.346
56162W        W29230   9.595  28.509  10.641
56163W        W29231  14.620   1.359  14.491
56164W        W29232   4.433  17.185  14.948
56165W        W29233  23.071  44.349  11.940
56166W        W29234  29.690  29.899  14.361
56167W        W29235  16.273  26.919  13.042
56168W        W29236  20.037  23.958   2.325
56169W        W29237  14.952   2.750  11.579
56170W        W29238  37.382   0.564  12.304
56171W        W29239  41.255  16.829   4.684
56172W        W29240  20.747   7.136   1.718
56173W        W29241  26.226  20.759  13.800
56174W        W29242  42.945  23.446   4.301
56175W        W29243  34.816  36.482   2.092
56176W        W29244   2.179  25.412   3.541
56177W        W29245   1.707   3.691   2.353
56178W        W29246  30.632   5.284  13.293
56179W        W29247  30.690  44.093  12.526
56180W        W29248  39.254   9.058   9.800
56181W        W29249  36.392   0.814   0.938
56182W        W29250  12.701  11.160  14.992
56183W        W29251  27.487  38.070  12.418
56184W        W29252  44.285  22.192   1.465
56185W        W29253   8.804  12.330  14.767
56186W        W29254  38.367  21.171  12.930
56187W        W29255  17.443   6.352  12.482
56188W        W29256  31.005   8.352   0.060
56189W        W29257  14.218  38.581   4.514
56190W        W29258  38.588  20.787   1.297
56191W        W29259  23.182  38.377   3.081
56192W        W29260  18.987  31.150   4.113
56193W        W29261  19.063  40.947   0.488
56194W        W29262  38.027  13.081  11.711
56195W        W29263   5.349  29.481   4.685
56196W        W29264  20.718  39.929  13.724
56197W        W29265  17.358  44.794  13.943
56198W        W29266   8.562  35.188  13.436
56199W        W29267  29.955   1.761   1.815
56200W        W29268  22.296   1.330  14.910
56201W        W29269  17.202  30.450  10.647
56202W        W29270   9.833  31.951  11.953
56203W        W29271   8.234   2.860   1.504
56204W        W29272  44.957   8.151  13.752
56205W        W29273  30.403   5.979   4.522
56206W        W29274  13.246  23.236   2.907
56207W        W29275  30.539  32.902  14.319
56208W        W29276  25.505   0.609  13.463
56209W        W29277  19.604  14.722   2.010
56210W        W29278  23.115  27.701   4.507
56211W        W29279   9.893   2.557   5.027
56212W        W29280  34.047  18.913  12.375
56213W        W29281  36.370  31.012   2.640
56214W        W29282  32.192  24.960   2.789
56215W        W29283  11.685   8.454   0.715
56216W        W29284  41.701  21.695  13.886
56217W        W29285  17.716  14.037  13.918
56218W        W29286  40.786  42.469  14.807
56219W        W29287  10.166   1.428  13.922
56220W        W29288  14.887   0.178   0.394
56221W        W29289  30.094   0.397  12.062
56222W        W29290  32.161  20.649  12.571
56223W        W29291  16.151   3.058   0.719
56224W        W29292   4.312  25.861  11.613
56225W        W29293   1.158  40.863   3.705
56226W        W29294  13.454  20.466   1.946
56227W        W29295  24.780  44.875   3.639
56228W        W29296  34.083  31.696   2.775
56229W        W29297  22.559  12.469   0.890
56230W        W29298  26.693  31.021  11.481
56231W        W29299  29.597  23.270  12.913
56232W        W29300   6.185  10.393   2.219
56233W        W29301  16.086  39.368   4.127
56234W        W29302  20.726  27.603   1.880
56235W        W29303  35.929  22.023   4.217
56236W        W29304   5.210  38.555   4.149
56237W        W29305  14.812   8.190   0.485
56238W        W29306  18.269  10.166  14.868
56239W        W29307  39.884  36.057  13.172
56240W        W29308  27.099   6.170   0.053
56241W        W29309  16.660  28.039  11.585
56242W        W29310  36.795  16.702   3.643
56243W        W29311  20.557  32.980  11.454
56244W        W29312   2.434  41.815   0.287
56245W        W29313  30.058  43.001   1.907
56246W        W29314  23.645   6.596  13.019
56247W        W29315   5.676  40.579  13.908
56248W        W29316  26.188  32.133   3.781
56249W        W29317  37.921  26.747  12.763
56250W        W29318  38.220  12.260  13.538
56251W        W29319  40.388  36.956   1.242
56252W        W29320  18.637  32.852   4.508
56253W        W29321  33.162  11.860  13.769
56254W        W29322  32.310  13.599  12.024
56255W        W29323  19.171  43.610   5.610
56256W        W29324  10.820  36.987  14.100
56257W        W29325  30.721  10.298   0.935
56258W        W29326  14.728  27.240   0.248
56259W        W29327  31.497   1.281  14.000
56260W        W29328  11.063  31.413   0.902
56261W        W29329  26.896  44.008   4.118
56262W        W29330  10.164   2.668  11.563
56263W        W29331  10.705  43.305   1.710
56264W        W29332  28.012  30.615  11.567
56265W        W29333  37.206  17.379  14.332
56266W        W29334   9.885  43.389   1.360
56267W        W29335  28.075  33.443  13.455
56268W        W29336   5.859  35.435  10.704
56269W        W29337  11.147  27.664  11.919
56270W        W29338  27.984  22.165  14.316
56271W        W29339   8.378   8.659   0.270
56272W        W29340  17.154  27.079   1.591
56273W        W29341  23.120   2.308  12.906
56274W        W29342  21.366   8.312  13.813
56275W        W29343  25.047  25.597  13.005
56276W        W29344  31.395   1.211   3.752
56277W        W29345  33.322  15.205   4.162
56278W        W29346  15.977  15.594  13.933
56279W        W29347  24.272  37.369  11.534
56280W        W29348  35.634  21.826   3.840
56281W        W29349  24.590  23.785  12.942
56282W        W29350   1.306  10.261   3.669
56283W        W29351  11.801  16.311   5.651
56284W        W29352   3.459  32.356  14.404
56285W        W29353  22.649  29.575   2.461
56286W        W29354   4.019  37.359  12.678
56287W        W29355   9.283  14.606   2.675
56288W        W29356  42.418  18.987  14.866
56289W        W29357   1.205  15.334   1.863
56290W        W29358   7.372  19.755  13.920
56291W        W29359  28.575  18.055  14.667
56292W        W29360  14.379  19.159   2.378
56293W        W29361  23.797  41.924  13.009
56294W        W29362   1.869  14.287   4.395
56295W        W29363   3.752   0.043   0.336
56296W        W29364  17.694   1.981   2.166
56297W        W29365  24.652  22.039  13.579
56298W        W29366  24.967  29.615   2.806
56299W        W29367  43.520  10.636   3.146
56300W        W29368  24.141  35.987  13.946
56301W        W29369  13.821  44.517   2.819
56302W        W29370   9.113  10.404   4.616
56303W        W29371  18.088  39.567  12.891
56304W        W29372  43.394   9.942  12.476
56305W        W29373   9.160  21.056   1.631
56306W        W29374  20.286  38.917   0.303
56307W        W29375  17.342  25.473  12.467
56308W        W29376  25.567  22.975  13.368
56309W        W29377   3.513   0.221   3.136
56310W        W29378   8.210  25.900   3.887
56311W        W29379   0.603   3.922  11.143
56312W        W29380  28.559  29.022   2.146
56313W        W29381  34.834  34.945   1.819
56314W        W29382  10.868  31.522   4.752
56315W        W29383  41.046  22.594  11.678
56316W        W29384   5.314  31.466  12.633
56317W        W29385  37.483  11.876  11.544
56318W        W29386  24.138  18.458   3.202
56319W        W29387  36.653  35.932  11.937
56320W        W29388  34.019  26.958  12.397
56321W        W29389  29.656  25.033  10.719
56322W        W29390   2.515  12.408   4.492
56323W        W29391   0.563   2.960   3.660
56324W        W29392   9.357  19.088   1.900
56325W        W29393  15.258  36.015  13.286
56326W        W29394  29.935  16.842   2.239
56327W        W29395  23.024  32.916  12.069
56328W        W29396  26.481   2.233  14.350
56329W        W29397  28.517  33.987   1.274
56330W        W29398  35.914  21.440   4.696
56331W        W29399  37.116   8.790  12.863
56332W        W29400  27.398  36.594   4.102
56333W        W29401  44.121  41.389   4.257
56334W        W29402  33.451  29.552  13.523
56335W        W29403  27.580  26.953  11.133
56336W        W29404  11.293  14.990  10.942
56337W        W29405   5.795  43.532  12.863
56338W        W29406  21.762  26.005  11.219
56339W        W29407  22.493  35.915  14.737
56340W        W29408   9.805  31.646  11.196
56341W        W29409  10.278  23.252   4.189
56342W        W29410  10.564  11.849  11.659
56343W        W29411  32.475  30.389  14.747
56344W        W29412  32.849  29.417  12.126
56345W        W29413   9.358  20.323   1.071
56346W        W29414   2.002   9.774  11.481
56347W        W29415  19.690  18.223  14.806
56348W        W29416  33.587   2.820  13.425
56349W        W29417  29.898   5.043   2.345
56350W        W29418  28.031  22.337  11.947
56351W        W29419  39.416   0.216   1.944
56352W        W29420  15.806   2.478   3.362
56353W        W29421  37.590  39.564  13.793
56354W        W29422  41.342  44.833   3.718
56355W        W29423  26.167   8.936  11.685
56356W        W29424   9.928  30.863   0.420
56357W        W29425  15.403  34.134   0.238
56358W        W29426  17.452  26.881  14.338
56359W        W29427  39.241  14.528  12.608
56360W        W29428   1.654  14.906   2.171
56361W        W29429  23.590  40.468   0.369
56362W        W29430  43.416  18.305  10.543
56363W        W29431  33.499  42.560  13.845
56364W        W29432  29.076  25.692   1.950
56365W        W29433  37.695  26.426  11.023
56366W        W29434  18.229  35.203  13.481
56367W        W29435   1.843  18.081   3.182
56368W        W29436   3.905  13.749  12.438
56369W        W29437   3.405  17.297   3.272
56370W        W29438   5.261   8.957  11.651
56371W        W29439  36.316  40.165   2.367
56372W        W29440  16.532  25.047  14.429
56373W        W29441   1.657  11.337  14.238
56374W        W29442   0.592  13.371   0.334
56375W        W29443  30.807  39.092   0.895
56376W        W29444  20.504  37.105  12.157
56377W        W29445  42.815  37.377   0.845
56378W        W29446  37.342  30.712   2.533
56379W        W29447  14.054  34.146   3.759
56380W        W29448   8.305  17.197  13.458
56381W        W29449  30.094  18.162  14.351
56382W        W29450  22.721   3.317  11.154
56383W        W29451  39.478   3.307  11.574
56384W        W29452  22.462  28.642  14.800
56385W        W29453  11.253  43.741   3.267
56386W        W29454  24.747  26.703   1.135
56387W        W29455  16.222  36.300  11.444
56388W        W29456  21.710  32.396   2.416
56389W        W29457   4.321   8.457  10.696
56390W        W29458  16.232   3.332  11.360
56391W        W29459  32.155  36.852  11.609
56392W        W29460   2.826  44.216   0.337
56393W        W29461  23.571  12.788   4.580
56394W        W29462   7.849   4.387  13.500
56395W        W29463  36.084  30.098  14.862
56396W        W29464  23.038  30.521   2.280
56397W        W29465  43.482  42.068   0.018
56398W        W29466  35.382  41.748  11.519
56399W        W29467   8.671  11.878   1.873
56400W        W29468  19.717  40.903   0.931
56401W        W29469  13.665  40.876  14.988
56402W        W29470   2.218  40.308   0.889
56403W        W29471  16.982   4.374  14.778
56404W        W29472  35.048  39.967   2.841
56405W        W29473  10.391  22.710  14.340
56406W        W29474  37.221  23.076  13.327
56407W        W29475   1.794  42.529   1.476
56408W        W29476  37.838   8.170  14.829
56409W        W29477  19.996  11.366   0.706
56410W        W29478  30.069   9.842   3.016
56411W        W29479  10.148  10.711   2.790
56412W        W29480  30.446  38.269   3.731
56413W        W29481  12.780   1.024  14.536
56414W        W29482  17.773  40.346   4.402
56415W        W29483  34.839  11.724  10.619
56416W        W29484   2.807  43.989  11.930
56417W        W29485  31.184  10.506   1.861
56418W        W29486  30.548  17.097   3.912
56419W        W29487  11.655   2.750  13.076
56420W        W29488  32.305   0.808  11.752
56421W        W29489  24.074  34.393   4.863
56422W        W29490   9.128  36.065  13.508
56423W        W29491  15.219  35.784   4.797
56424W        W29492  17.801  39.330   1.861
56425W        W29493  24.707  39.830   3.323
56426W        W29494  35.232   9.588   1.913
56427W        W29495   6.178  39.010   0.273
56428W        W29496  41.527  28.574   3.284
56429W        W29497  25.674  30.158   1.735
56430W        W29498   2.335  18.073   0.965
56431W        W29499   0.491  43.539   4.878
56432W        W29500  16.093  37.819   1.896
56433W        W29501  42.765  21.744   0.939
56434W        W29502  18.157  11.694   3.633
56435W        W29503  18.756   0.381   4.542
56436W        W29504   0.266   5.005   2.150
56437W        W29505  44.675  19.062  13.964
56438W        W29506  33.469  23.762  11.529
56439W        W29507   4.601  29.995   1.473
56440W        W29508   0.314  27.425  14.846
56441W        W29509   8.441   9.340   3.603
56442W        W29510  30.925  16.871   0.864
56443W        W29511   3.674  43.941  11.972
56444W        W29512  41.060  28.181  12.777
56445W        W29513  36.976  13.734   4.574
56446W        W29514  28.097  23.205   3.231
56447W        W29515   9.298  15.048   4.277
56448W        W29516  23.707   6.240   3.240
56449W        W29517   9.651  33.180  14.434
56450W        W29518  31.431  35.829   3.879
56451W        W29519  35.756  19.578   3.624
56452W        W29520  31.302  39.217   4.157
56453W        W29521  12.103  36.805   1.007
56454W        W29522   1.712  22.466   2.482
56455W        W29523  24.441  38.885   1.838
56456W        W29524  22.151  44.473  10.147
56457W        W29525  33.936  36.013   2.111
56458W        W29526  14.553  17.578  10.663
56459W        W29527   0.982  23.328  13.035
56460W        W29528  15.575   8.949  14.829
56461W        W29529  13.849   3.023   1.302
56462W        W29530   0.707  33.458  10.366
56463W        W29531   4.371  22.740   4.000
56464W        W29532  22.408  15.542   0.441
56465W        W29533  30.847   0.853   1.269
56466W        W29534   7.359  36.938   2.212
56467W        W29535  26.794  39.886  13.374
56468W        W29536   0.585   7.633  13.362
56469W        W29537  13.243   5.693  13.477
56470W        W29538  13.249   8.340  13.059
56471W        W29539  20.076  39.014   2.505
56472W        W29540  41.955  13.289  14.211
56473W        W29541  28.424  33.902  10.664
56474W        W29542  29.398  10.232   4.644
56475W        W29543  34.912  28.947   3.827
56476W        W29544  11.484  13.737   4.667
56477W        W29545  42.331  17.942   0.074
56478W        W29546  13.343  15.617   4.503
56479W        W29547  28.385   8.076  10.812
56480W        W29548  32.103  11.686   1.400
56481W        W29549  28.942  25.187   1.970
56482W        W29550  10.650  29.144   0.978
56483W        W29551  16.523  10.220   0.437
56484W        W29552  17.005  21.282   3.694
56485W        W29553   4.154   1.064  11.659
56486W        W29554  27.367  15.828   0.876
56487W        W29555  36.428  14.079   1.480
56488W        W29556  38.523   7.730   0.446
56489W        W29557  13.308   4.026   0.896
56490W        W29558  14.509  19.105   2.903
56491W        W29559   6.733  37.919  13.097
56492W        W29560  20.269  13.575   4.144
56493W        W29561  23.130  20.387   4.561
56494W        W29562  23.717  16.828   2.180
56495W        W29563   2.261   0.029  14.348
56496W        W29564  22.533  13.972   3.401
56497W        W29565   1.666  33.449  14.304
56498W        W29566  33.932  19.361   2.431
56499W        W29567  19.377  32.112   3.173
56500W        W29568   9.933   9.115   2.462
56501W        W29569  11.688  33.509  13.078
56502W        W29570  44.006  16.033  11.654
56503W        W29571  33.954  42.937  11.141
56504W        W29572  24.239  34.989  12.179
56505W        W29573  12.566  27.129  11.565
56506W        W29574   7.948  43.290   4.452
56507W        W29575  20.088  22.246  10.627
56508W        W29576  23.654  39.207  12.065
56509W        W29577  16.536   6.254  12.538
56510W        W29578  35.058  17.255   5.190
56511W        W29579  16.295   0.851   2.257
56512W        W29580  35.925   1.765  13.446
56513W        W29581  40.903  11.581  13.387
56514W        W29582  31.970  24.361   5.320
56515W        W29583  38.970  33.716   2.776
56516W        W29584  32.343   8.832  12.488
56517W        W29585  18.049  29.859   2.657
56518W        W29586  41.895  31.220   1.093
56519W        W29587   5.453  37.456  13.253
56520W        W29588   8.711  29.159  10.543
56521W        W29589  38.965  12.070   2.263
56522W        W29590  30.637  23.919   4.916
56523W        W29591   7.320  24.555  13.910
56524W        W29592   3.899   9.341  11.407
56525W        W29593  35.112   8.404   0.811
56526W        W29594  27.420  16.590  14.401
56527W        W29595  39.053  21.060   0.454
56528W        W29596  24.610  42.605  14.408
56529W        W29597   4.719  24.749  12.386
56530W        W29598  25.710  35.460   1.204
56531W        W29599  12.921   2.634  11.702
56532W        W29600  31.036  17.487  12.297
56533W        W29601  38.481  35.295   2.902
56534W        W29602  36.483  32.995   0.766
56535W        W29603  30.576  44.853  10.419
56536W        W29604  40.118  10.890   4.585
56537W        W29605  28.319  11.882   2.455
56538W        W29606  42.310  23.048   4.414
56539W        W29607  12.241  35.198   0.543
56540W        W29608  22.517  11.232  12.537
56541W        W29609  43.861  26.184   1.407
56542W        W29610  39.585   0.800  11.953
56543W        W29611  44.359  32.468   1.691
56544W        W29612   1.325  39.773   1.746
56545W        W29613  43.471   9.113  11.171
56546W        W29614  19.720  18.791  10.615
56547W        W29615  24.965   8.405   4.216
56548W        W29616  16.229  15.666  14.402
56549W        W29617  30.178  24.252  10.778
56550W        W29618   4.129  15.261  13.014
56551W        W29619  32.312   5.355   2.641
56552W        W29620  26.959  27.223   0.896
56553W        W29621  19.104  19.801  14.502
56554W        W29622  22.264  29.121  13.093
56555W        W29623  44.320   8.780   4.577
56556W        W29624   0.445  24.620   2.251
56557W        W29625  22.120   0.195  13.000
56558W        W29626  39.339   5.871  10.691
56559W        W29627  15.155  10.753  13.058
56560W        W29628   3.440  22.803  14.135
56561W        W29629  18.345  34.372   3.879
56562W        W29630   2.749   4.285  13.932
56563W        W29631  35.001  27.014   4.703
56564W        W29632  21.188  32.358   1.853
56565W        W29633  24.171  42.128   0.040
56566W        W29634  37.595  40.101  14.551
56567W        W29635   7.407   7.057  12.123
56568W        W29636  15.226  32.067   5.067
56569W        W29637  22.468   8.187   2.771
56570W        W29638  36.061   4.922  11.163
56571W        W29639  24.375  37.834  11.033
56572W        W29640  41.582  29.205  13.980
56573W        W29641   4.748  14.270   3.132
56574W        W29642   9.947  10.737   1.376
56575W        W29643   4.186   1.709   4.535
56576W        W29644  15.305  40.561  12.122
56577W        W29645  38.788  22.998   3.320
56578W        W29646  19.012  34.881   2.862
56579W        W29647  10.365  12.249   2.392
56580W        W29648  16.892  24.186   4.138
56581W        W29649  21.085  27.743   3.621
56582W        W29650  26.984  22.082   2.100
56583W        W29651  17.720  29.607   0.190
56584W        W29652  17.898   4.347   0.905
56585W        W29653  31.521  32.861  11.520
56586W        W29654  35.054  44.594   2.857
56587W        W29655  43.022  42.339   0.992
56588W        W29656   7.931  23.556   1.626
56589W        W29657   7.953   7.794   3.662
56590W        W29658  36.964   7.467  14.008
56591W        W29659  25.648   1.929   4.234
56592W        W29660   1.414  44.395   2.832
56593W        W29661  42.369  26.456  14.569
56594W        W29662  17.522   7.428   4.396
56595W        W29663  42.792  17.559   3.185
56596W        W29664  21.238  13.369   1.704
56597W        W29665  16.698  36.428   4.546
56598W        W29666  43.925   2.522   1.897
56599W        W29667  39.717   5.362   3.762
56600W        W29668  33.049   1.772  14.808
56601W        W29669  19.879  37.931  11.052
56602W        W29670  33.359  42.269  12.003
56603W        W29671  14.392  27.510   2.888
56604W        W29672  10.286  39.005   4.084
56605W        W29673  25.563  38.112  12.035
56606W        W29674  44.568  20.804  10.262
56607W        W29675   9.657  13.270  12.004
56608W        W29676  31.785   8.340  11.511
56609W        W29677  12.877  20.606  11.659
56610W        W29678  16.795  30.496  11.573
56611W        W29679   1.826   0.601  13.607
56612W        W29680  15.543  21.254  12.022
56613W        W29681  42.973  19.496  12.554
56614W        W29682  15.118  39.826   4.173
56615W        W29683  17.277  39.306  11.382
56616W        W29684  17.369   2.669  14.885
56617W        W29685  29.681  10.198   4.211
56618W        W29686  19.018  21.589   0.377
56619W        W29687  40.868  24.611   4.909
56620W        W29688   2.957  34.179  10.921
56621W        W29689  33.599  32.473  12.104
56622W        W29690  31.840  33.168  11.216
56623W        W29691   4.918  39.266   2.837
56624W        W29692  16.220  40.392   3.145
56625W        W29693  16.634   5.907  10.853
56626W        W29694   6.424   2.428  13.852
56627W        W29695  41.290  44.229   1.768
56628W        W29696   7.277  20.011   0.089
56629W        W29697  42.981  41.915   1.302
56630W        W29698  15.833  37.075  14.776
56631W        W29699  21.931  42.958  11.366
56632W        W29700  14.222  23.503   1.401
56633W        W29701  14.263  38.609  14.800
56634W        W29702  19.987  12.881   2.343
56635W        W29703   9.289  29.082  11.638
56636W        W29704   3.218  44.247   0.687
56637W        W29705  41.327  39.134   0.361
56638W        W29706  13.743  33.881   0.189
56639W        W29707  39.050  36.941  10.703
56640W        W29708  22.237  42.905   4.514
56641W        W29709  16.183  31.509  14.570
56642W        W29710  23.701  22.200  11.195
56643W        W29711  42.471  26.787   1.375
56644W        W29712  21.103   5.751  12.928
56645W        W29713   6.235   3.247   1.797
56646W        W29714  34.407  23.614   1.195
56647W        W29715  25.668  11.886  11.047
56648W        W29716   6.024   4.046  12.099
56649W        W29717  26.789  10.287   3.258
56650W        W29718  25.626  40.247  14.728
56651W        W29719  26.751   7.251   3.780
56652W        W29720   4.377  33.700  13.078
56653W        W29721  10.793  27.161  13.457
56654W        W29722  18.372  31.815   4.134
56655W        W29723  36.538   9.269  10.675
56656W        W29724  10.398  15.648   0.390
56657W        W29725   0.365  13.190   4.055
56658W        W29726  38.058   2.365  12.513
56659W        W29727   7.963  44.251  11.576
56660W        W29728   9.455  28.438   4.498
56661W        W29729  26.621   0.750   4.621
56662W        W29730  12.393  26.428  13.421
56663W        W29731  11.274   5.374   3.502
56664W        W29732  18.451   2.443  14.435
56665W        W29733  18.299  20.053   0.077
56666W        W29734  43.643   0.519   0.704
56667W        W29735  25.552   1.071  14.916
56668W        W29736  41.558   9.467   0.577
56669W        W29737  29.617  38.346  11.163
56670W        W29738  13.152  13.057  10.582
56671W        W29739  33.637  37.229   3.916
56672W        W29740  29.910  20.737   1.851
56673W        W29741  36.431  31.648   9.827
56674W        W29742  12.258  11.855   2.745
56675W        W29743  39.360   1.154  10.645
56676W        W29744   1.502  27.497   3.342
56677W        W29745   0.260  27.938   4.120
56678W        W29746  39.903  16.765  11.920
56679W        W29747  28.126  40.518   4.927
56680W        W29748  34.946  18.156   2.356
56681W        W29749  39.385   3.677  10.726
56682W        W29750  33.532  40.317  10.483
56683W        W29751  16.165  35.004   3.204
56684W        W29752   0.920  37.570  14.971
56685W        W29753  11.862  40.982   2.176
56686W        W29754  30.338  21.021  13.686
56687W        W29755   9.193  36.462  10.899
56688W        W29756  38.483  14.277  13.051
56689W        W29757  19.326   6.291  11.806
56690W        W29758  10.056  29.538  10.692
56691W        W29759   9.358   3.000  13.487
56692W        W29760   0.869  38.302  10.767
56693W        W29761  42.604   0.389  11.470
56694W        W29762   3.393  35.877  10.653
56695W        W29763  16.568   9.236  11.621
56696W        W29764  31.158  21.067  10.689
56697W        W29765  35.707  15.210   0.562
56698W        W29766  38.806  17.108  12.894
56699W        W29767  40.233   6.786   1.050
56700W        W29768  20.568  37.633   2.735
56701W        W29769  29.207  10.122  14.343
56702W        W29770  37.916  10.811  14.255
56703W        W29771   8.758  28.409   0.536
56704W        W29772  12.254   3.048   0.468
56705W        W29773  22.227  17.291   2.959
56706W        W29774   0.434  13.279   2.222
56707W        W29775   7.362  24.717  12.908
56708W        W29776  29.068  40.009  13.331
56709W        W29777  10.787  24.763  12.882
56710W        W29778  18.582  10.276  12.549
56711W        W29779  29.027  42.672  12.064
56712W        W29780  20.712  12.557   2.758
56713W        W29781  37.475  23.654  13.736
56714W        W29782  20.272  17.783   3.154
56715W        W29783  21.541  41.237  13.855
56716W        W29784  26.118  31.027  11.511
56717W        W29785  26.230  10.018   3.691
56718W        W29786  24.938  22.266  14.933
56719W        W29787   0.455  31.812   1.730
56720W        W29788  39.454   6.931   0.833
56721W        W29789  38.994  31.640  14.522
56722W        W29790  27.713  38.793  11.158
56723W        W29791  44.482  27.150   2.427
56724W        W29792  25.519  33.512   3.652
56725W        W29793  37.469  13.739   1.486
56726W        W29794  32.430  44.393   0.659
56727W        W29795  26.294   4.422  12.377
56728W        W29796   2.157  31.511   2.882
56729W        W29797  12.131  12.270  13.840
56730W        W29798  13.576  37.464  10.098
56731W        W29799  25.575  25.804  11.019
56732W        W29800  12.195   3.400   5.066
56733W        W29801  14.344  18.673  13.485
56734W        W29802  31.140   3.654   4.581
56735W        W29803  33.050  21.015  12.949
56736W        W29804  16.103   6.688   0.484
56737W        W29805   1.556  23.149   4.238
56738W        W29806  12.262  38.061   2.783
56739W        W29807  32.511  31.927  13.315
56740W        W29808  27.022  36.363  12.019
56741W        W29809  43.481  28.342  11.596
56742W        W29810  20.470  13.252  13.610
56743W        W29811   4.238   2.773   1.205
56744W        W29812  44.859  29.128  12.348
56745W        W29813  35.111   2.582   2.812
56746W        W29814  21.019  32.098  11.207
56747W        W29815   2.805  28.744   1.931
56748W        W29816   9.637  18.651   9.697
56749W        W29817  33.941   7.438   3.674
56750W        W29818  29.415   4.943  13.337
56751W        W29819  43.906  19.613   2.396
56752W        W29820  35.608   6.783   0.041
56753W        W29821  22.720  32.040   0.320
56754W        W29822  12.876  16.602   0.971
56755W        W29823  10.285   2.547  14.725
56756W        W29824  15.184  20.888  11.965
56757W        W29825  14.990  22.567   4.744
56758W        W29826   1.787   7.977   4.541
56759W        W29827  15.078  39.761   1.744
56760W        W29828  39.058   8.487   4.209
56761W        W29829  18.035  36.049   3.328
56762W        W29830  22.084  17.163  13.851
56763W        W29831  25.464  40.066  11.620
56764W        W29832  17.508  11.725   4.552
56765W        W29833  31.924  23.482  10.038
56766W        W29834   1.943   3.481   1.375
56767W        W29835  40.904  29.142   1.428
56768W        W29836   3.211  15.839   4.567
56769W        W29837  27.500  31.997  11.505
56770W        W29838  21.022  29.060   3.331
56771W        W29839   6.862  18.850   4.773
56772W        W29840   9.637   9.771   0.416
56773W        W29841  11.104  32.003   4.026
56774W        W29842   3.317  33.014  13.535
56775W        W29843  41.785  39.229  13.212
56776W        W29844   6.165  23.330  10.233
56777W        W29845   6.679   6.399  12.246
56778W        W29846  40.700  32.126  12.630
56779W        W29847  21.499   3.208  11.286
56780W        W29848  27.132  44.740   4.761
56781W        W29849  15.991  30.960   2.719
56782W        W29850  37.936  35.843   1.959
56783W        W29851  41.901  22.259   4.082
56784W        W29852  37.877  22.816  11.151
56785W        W29853  27.441  24.091   0.364
56786W        W29854   2.375  43.189   2.712
56787W        W29855  36.412  29.944   3.163
56788W        W29856  30.030  10.749  11.882
56789W        W29857  27.863   1.543  12.447
56790W        W29858  20.636  44.981  13.099
56791W        W29859  36.934   0.923   1.793
56792W        W29860  24.645  27.587   2.632
56793W        W29861  21.084  20.707  12.004
56794W        W29862  17.155  17.648  14.762
56795W        W29863  26.467  14.568   2.844
56796W        W29864  21.498  19.342   4.222
56797W        W29865  11.128  43.227  11.156
56798W        W29866  20.906   4.388  11.162
56799W        W29867  33.840   9.930  13.077
56800W        W29868  10.256  20.417  11.046
56801W        W29869  42.514  14.505   0.430
56802W        W29870  42.485  43.495   3.679
56803W        W29871  12.177  11.162   3.701
56804W        W29872  16.203  32.903  14.103
56805W        W29873   4.371  28.130  11.274
56806W        W29874  12.776  34.640   4.717
56807W        W29875  22.041   7.398  12.594
56808W        W29876  31.074  28.601  14.512
56809W        W29877  20.477  18.805  11.563
56810W        W29878  10.784  12.709   1.692
56811W        W29879  26.549  43.460  12.416
56812W        W29880  17.664  13.375   2.814
56813W        W29881  34.256   6.226   3.218
56814W        W29882  39.747  40.090  11.116
56815W        W29883  21.182  29.217  11.664
56816W        W29884  41.658  44.422  10.981
56817W        W29885  42.171   6.813   3.177
56818W        W29886  29.527  22.685   0.909
56819W        W29887  16.200  41.817   3.332
56820W        W29888   7.127  17.124   2.820
56821W        W29889  31.043  27.391  12.011
56822W        W29890  30.578  37.701   2.128
56823W        W29891  32.122  34.605  11.550
56824W        W29892  21.395  30.312   0.658
56825W        W29893   2.788   2.436   2.707
56826W        W29894  17.052  38.586   0.365
56827W        W29895  14.685  26.513  11.943
56828W        W29896  12.401   0.033   0.722
56829W        W29897   6.174   6.656   3.701
56830W        W29898  30.492  19.470  13.342
56831W        W29899  23.228   8.793   0.856
56832W        W29900   0.296  32.406  10.652
56833W        W29901  39.540  13.930   4.605
56834W        W29902  28.611  23.164   0.316
56835W        W29903  34.944  10.120   0.355
56836W        W29904  16.856  36.052   2.788
56837W        W29905  18.780  10.264  13.435
56838W        W29906  29.649   9.164  12.140
56839W        W29907   5.964  40.615   1.266
56840W        W29908   1.489   0.361   2.676
56841W        W29909  25.030  24.220   0.274
56842W        W29910  15.004  24.450  14.737
56843W        W29911  31.598  25.781  13.970
56844W        W29912  30.322  31.984  11.184
56845W        W29913   0.714  14.419   1.133
56846W        W29914  41.090  37.389   2.899
56847W        W29915  30.111   8.427   3.586
56848W        W29916  26.584  14.347   1.957
56849W        W29917  13.249  39.944   1.640
56850W        W29918  41.258   4.499   0.310
56851W        W29919  20.203   6.590  14.470
56852W        W29920  12.286  34.109  12.744
56853W        W29921  32.490  12.888   3.132
56854W        W29922   4.269  42.849   5.000
56855W        W29923  33.511  23.664  13.864
56856W        W29924  28.787   7.269   2.802
56857W        W29925   4.855  38.113   1.588
56858W        W29926  39.383  19.791   3.113
56859W        W29927  24.625   2.777   1.385
56860W        W29928  29.618  17.185   3.028
56861W        W29929  27.672  30.655   1.293
56862W        W29930  14.898  17.247  14.384
56863W        W29931  12.647  29.643   4.140
56864W        W29932  41.850  36.191  13.443
56865W        W29933  40.757  19.852   0.829
56866W        W29934   0.671  41.645   1.469
56867W        W29935  43.014  38.404  10.443
56868W        W29936  41.261  23.096   3.584
56869W        W29937  31.522  29.973   0.502
56870W        W29938  34.015   4.480  11.901
56871W        W29939  26.163   8.420  11.789
56872W        W29940  32.936   0.368   2.771
56873W        W29941   4.045  36.225  13.334
56874W        W29942   0.831  42.104  13.942
56875W        W29943   2.894  10.356   0.479
56876W        W29944   5.887  14.190   3.428
56877W        W29945  29.744   1.611  13.250
56878W        W29946  20.229   4.460  11.914
56879W        W29947  24.117  28.586  12.674
56880W        W29948  40.026   5.436  10.449
56881W        W29949  39.334  39.077   1.716
56882W        W29950   8.779  40.418  13.791
56883W        W29951  27.625  29.106  12.919
56884W        W29952  21.184  19.754   4.406
56885W        W29953  26.524   4.682  12.731
56886W        W29954   3.335  38.340   2.982
56887W        W29955  23.153  29.657   4.319
56888W        W29956  27.173  19.082  13.994
56889W        W29957  30.102  40.955  13.423
56890W        W29958  15.252  36.130  12.512
56891W        W29959  37.701   2.037  10.137
56892W        W29960   3.322  17.247   1.706
56893W        W29961  16.538   4.775  12.450
56894W        W29962   7.152  20.293   2.186
56895W        W29963  22.478  31.482  12.953
56896W        W29964  22.218  21.544   3.563
56897W        W29965  36.979  28.055  14.554
56898W        W29966  11.701  27.692   2.275
56899W        W29967  41.932   6.175   1.956
56900W        W29968  33.635   7.379  12.539
56901W        W29969  27.032   5.748  12.400
56902W        W29970  31.081   0.652   0.327
56903W        W29971  16.017  39.255   1.148
56904W        W29972  30.630  13.108  12.561
56905W        W29973  32.594  40.341  10.635
56906W        W29974  25.486  38.806  14.753
56907W        W29975  19.463  12.862  12.104
56908W        W29976   9.220  33.544   3.235
56909W        W29977   2.189  32.140   5.044
56910W        W29978  15.573  13.173  10.808
56911W        W29979  33.948  30.941   3.406
56912W        W29980  22.626   4.932   4.546
56913W        W29981  23.693  30.200  11.634
56914W        W29982  25.905  30.276   3.214
56915W        W29983  32.273  14.610   3.475
56916W        W29984  16.092   8.394  11.887
56917W        W29985  12.660   5.678  12.827
56918W        W29986  32.988  38.072  14.824
56919W        W29987   1.962  19.630  12.335
56920W        W29988   8.904  11.760  14.568
56921W        W29989  19.209   2.198  14.012
56922W        W29990  14.409  19.064  14.036
56923W        W29991  17.272  30.247   4.015
56924W        W29992   3.745  36.880   0.425
56925W        W29993  30.218  18.519  11.177
56926W        W29994  34.868  24.308   1.405
56927W        W29995   7.844  18.615  10.853
56928W        W29996  16.051   8.445   1.883
56929W        W29997  44.387  14.849   3.252
56930W        W29998  10.371  31.839  11.999
56931W        W29999  21.580  32.100   1.135
56932W        W30000  36.698  44.096  11.176
56933W        W30001  19.737  31.883  11.335
56934W        W30002  25.041  44.210   4.194
56935W        W30003  25.042  11.354   3.304
56936W        W30004   9.897  31.920   3.595
56937W        W30005  30.687  39.449  13.128
56938W        W30006  32.916   9.226   4.536
56939W        W30007  15.262  27.859  10.710
56940W        W30008   4.393  40.959   4.173
56941W        W30009   4.313  30.239   0.518
56942W        W30010   8.186  35.907  11.504
56943W        W30011  15.703  12.851  13.578
56944W        W30012  10.927  19.147   3.433
56945W        W30013   0.013  37.898  12.632
56946W        W30014  25.968   7.249  14.773
56947W        W30015  31.895   9.674   4.351
56948W        W30016  36.674  30.420  12.874
56949W        W30017   9.668  34.297   2.447
56950W        W30018  10.130  42.913  14.182
56951W        W30019  39.421  26.031   2.085
56952W        W30020  41.632  40.308   2.784
56953W        W30021  32.199  41.972   4.417
56954W        W30022   9.366  29.768  12.594
56955W        W30023   6.669  21.191  11.619
56956W        W30024  30.141  22.988   0.222
56957W        W30025  16.132  31.652   0.555
56958W        W30026   5.162  21.301   4.520
56959W        W30027   5.522   8.637  12.460
56960W        W30028  30.723   6.251  14.861
56961W        W30029  31.145  29.609  13.430
56962W        W30030  40.199  30.812   3.188
56963W        W30031  38.472  12.618   0.300
56964W        W30032  43.250   9.828   4.821
56965W        W30033  35.343  26.694   1.376
56966W        W30034  16.046   5.193   1.574
56967W        W30035  39.881  19.109   3.523
56968W        W30036  43.131  41.521  12.147
56969W        W30037  44.455   2.722  11.070
56970W        W30038  39.892  38.856  12.571
56971W        W30039  14.537  20.825   0.390
56972W        W30040  36.440  19.420  12.445
56973W        W30041   2.786  37.493  12.865
56974W        W30042  38.262  42.014   2.503
56975W        W30043   3.590  19.149  13.376
56976W        W30044  40.550  34.686  14.952
56977W        W30045  18.985   7.853  14.793
56978W        W30046  23.645  12.254  13.392
56979W        W30047   7.458  27.214   0.909
56980W        W30048   2.038  15.402  11.915
56981W        W30049  36.336   8.564  14.458
56982W        W30050   1.792   6.700  11.620
56983W        W30051  21.787  26.523  14.337
56984W        W30052  37.699  38.974   0.392
56985W        W30053  14.758  19.963  13.957
56986W        W30054  22.781  16.745   0.328
56987W        W30055   7.405  18.802  11.045
56988W        W30056   4.713  27.179  11.604
56989W        W30057  30.924  31.505   0.952
56990W        W30058   6.292  16.503  13.450
56991W        W30059   6.746  30.397  14.315
56992W        W30060   1.107  28.727   1.512
56993W        W30061  17.791   7.963   4.511
56994W        W30062  39.147  10.238   2.731
56995W        W30063  41.840  29.938  14.505
56996W        W30064  25.494  10.161  12.515
56997W        W30065   3.845  32.741   3.684
56998W        W30066  27.070  13.327  14.987
56999W        W30067  22.187  20.751   0.889
57000W        W30068   2.550  39.294  10.925
57001W        W30069   8.569  31.969   2.829
57002W        W30070  22.300  34.099   3.699
57003W        W30071  10.269  21.247  13.018
57004W        W30072  35.586  11.884   3.848
57005W        W30073   2.516   1.945   2.751
57006W        W30074  44.101   2.803  12.114
57007W        W30075  15.735  32.423   1.217
57008W        W30076   2.844  13.340  14.979
57009W        W30077  32.559  12.718   4.624
57010W        W30078  36.749  37.730   3.649
57011W        W30079  34.889   0.312   4.634
57012W        W30080  31.198  29.998   4.403
57013W        W30081   7.622  37.477  14.345
57014W        W30082  28.460  14.659  10.505
57015W        W30083   0.454  20.710   1.137
57016W        W30084  31.919  15.832   3.255
57017W        W30085  31.044  23.038  13.414
57018W        W30086  26.012  21.152  12.868
57019W        W30087   8.793   7.652  13.452
57020W        W30088   2.216   4.300   3.223
57021W        W30089  36.027   7.955   1.795
57022W        W30090  17.768  35.077   4.231
57023W        W30091  25.151   7.141  14.503
57024W        W30092  11.245  16.323   2.741
57025W        W30093  26.022   1.647  14.192
57026W        W30094  13.518   3.449  12.226
57027W        W30095  16.907  22.756  12.329
57028W        W30096  17.107  40.773  11.400
57029W        W30097   7.902  23.174  11.423
57030W        W30098  27.608   5.683   3.187
57031W        W30099  33.610  35.291   3.184
57032W        W30100  11.664  38.612   3.182
57033W        W30101  22.765  20.560   1.153
57034W        W30102  22.159  12.129   0.858
57035W        W30103  34.037   0.924   2.984
57036W        W30104  31.920  22.626  13.894
57037W        W30105   2.449  15.665   3.617
57038W        W30106  12.368  40.166   2.863
57039W        W30107  24.941  11.907   2.563
57040W        W30108  32.769  25.077  13.937
57041W        W30109  30.453   0.810   4.654
57042W        W30110  21.528  18.769  12.008
57043W        W30111  21.770  41.748   3.216
57044W        W30112  10.171  13.788  11.407
57045W        W30113   5.720   8.539  10.141
57046W        W30114  13.423  14.875   0.208
57047W        W30115  20.018  11.628  12.387
57048W        W30116  28.100  24.961   1.279
57049W        W30117   7.643  36.493  12.422
57050W        W30118  23.548  36.083   1.691
57051W        W30119  11.377  39.558  14.367
57052W        W30120   9.337  13.836  13.827
57053W        W30121  16.992  35.973  12.904
57054W        W30122  15.157  13.195  12.573
57055W        W30123  32.172  42.485  10.525
57056W        W30124  15.102  32.394   4.161
57057W        W30125  11.083  37.424   1.815
57058W        W30126  10.139  44.751   1.458
57059W        W30127  31.460  40.364  12.606
57060W        W30128  17.763  16.320   3.228
57061W        W30129  12.960   1.317   1.239
57062W        W30130  19.693  44.221  13.909
57063W        W30131   6.474  38.428   3.332
57064W        W30132  36.336  24.140   3.530
57065W        W30133  24.841  38.053  13.567
57066W        W30134   3.464  37.875   4.787
57067W        W30135  40.016  40.959  11.540
57068W        W30136  33.536  12.065   4.461
57069W        W30137  12.787   9.604   1.923
57070W        W30138  28.866  39.537   1.842
57071W        W30139  12.486   1.774  11.765
57072W        W30140  16.679   8.433   3.165
57073W        W30141  37.294  40.616   2.381
57074W        W30142  31.032  44.476  12.502
57075W        W30143  17.212  31.440  10.736
57076W        W30144   1.429  33.918  11.492
57077W        W30145  13.531  37.944   1.206
57078W        W30146   5.162   3.854  13.092
57079W        W30147  22.255  28.040   2.431
57080W        W30148  27.143   6.052   4.096
57081W        W30149  22.194   8.936  12.626
57082W        W30150  33.541  38.517  11.074
57083W        W30151  18.262  24.408  14.389
57084W        W30152  41.866   9.855   4.832
57085W        W30153   6.254   5.915  11.441
57086W        W30154   0.690   7.826   1.648
57087W        W30155  37.689  29.692  12.405
57088W        W30156  36.646   5.721  11.366
57089W        W30157  19.285  24.626   1.912
57090W        W30158  35.938  33.879  11.157
57091W        W30159  15.144  34.441   4.521
57092W        W30160  38.970  10.627  12.787
57093W        W30161  38.500  44.349  11.359
57094W        W30162  30.020  36.138   3.399
57095W        W30163  30.177  39.342  14.920
57096W        W30164  21.518  35.676   3.307
57097W        W30165  17.113   0.579   0.835
57098W        W30166   8.269   3.294  11.395
57099W        W30167   7.896  12.335   0.530
57100W        W30168  13.581  27.538  12.011
57101W        W30169   6.151  11.847  14.862
57102W        W30170  35.160  21.502   0.237
57103W        W30171   8.284   0.594  14.684
57104W        W30172  10.914   1.935  13.936
57105W        W30173   7.998  34.321  13.035
57106W        W30174   7.715  39.733   5.414
57107W        W30175  15.221  30.163   3.648
57108W        W30176  25.569  23.586  11.670
57109W        W30177  10.315   8.987  10.300
57110W        W30178  15.651  19.110  11.541
57111W        W30179  12.117  26.004  10.537
57112W        W30180  14.362  21.683   3.622
57113W        W30181   0.950  11.670   0.007
57114W        W30182   9.294  30.617   1.298
57115W        W30183  28.194  13.327   2.184
57116W        W30184  17.366   0.066  11.092
57117W        W30185  35.319  24.493  13.282
57118W        W30186  39.906  14.236  12.417
57119W        W30187  43.082   6.202   0.575
57120W        W30188  20.593  11.148   0.653
57121W        W30189  17.195   4.062   0.184
57122W        W30190  13.107   1.935  14.375
57123W        W30191  39.418  30.372  14.297
57124W        W30192  10.922  13.352   1.829
57125W        W30193  15.687  15.769   2.034
57126W        W30194  21.916  11.260   4.254
57127W        W30195  28.105   4.893   2.503
57128W        W30196  14.578  18.155   0.919
57129W        W30197  44.916  42.810   0.742
57130W        W30198  27.956  36.049   4.556
57131W        W30199  35.641   7.301  12.011
57132W        W30200  26.790  28.550   3.182
57133W        W30201  39.067  28.624   0.290
57134W        W30202  36.654  40.911   4.719
57135W        W30203   4.269   5.186   4.649
57136W        W30204  34.043  23.239  11.122
57137W        W30205  23.659   9.747   0.213
57138W        W30206  16.634   5.792   4.245
57139W        W30207  39.338  11.667  10.987
57140W        W30208  16.162  32.071  11.880
57141W        W30209   1.232  17.925  14.738
57142W        W30210  13.810  23.933   4.717
57143W        W30211  25.029  35.424   3.846
57144W        W30212  42.463  21.456  11.033
57145W        W30213  25.516  32.362  12.154
57146W        W30214  17.804  27.025   0.438
57147W        W30215  15.834   5.449   0.012
57148W        W30216  28.534  12.438   4.048
57149W        W30217  23.793  21.579   0.180
57150W        W30218  41.450  16.347  10.250
57151W        W30219  20.932  13.833  10.867
57152W        W30220   1.530  10.185  10.737
57153W        W30221   6.123  40.617   4.187
57154W        W30222   4.324  41.913  10.936
57155W        W30223  12.726   7.838  13.433
57156W        W30224  19.170  34.102   3.507
57157W        W30225  17.605  13.499   4.517
57158W        W30226   9.237   1.031  13.501
57159W        W30227  38.505  15.566   2.744
57160W        W30228  32.863  28.946   1.568
57161W        W30229  34.483  27.903   4.751
57162W        W30230   1.411   9.172  13.618
57163W        W30231  22.482  29.788   1.472
57164W        W30232  42.554  22.668   3.665
57165W        W30233   6.600  10.025   1.440
57166W        W30234  26.606  42.459   4.888
57167W        W30235  41.332  10.686   1.383
57168W        W30236  11.007  39.194   3.160
57169W        W30237  26.153  30.759  13.359
57170W        W30238  43.952  20.774   3.052
57171W        W30239  40.692  26.915   2.653
57172W        W30240  14.092  43.108  14.612
57173W        W30241  10.543   3.333   2.213
57174W        W30242  15.107  30.876  11.992
57175W        W30243   5.342  16.421   2.258
57176W        W30244   7.294  15.760   3.341
57177W        W30245  37.792  13.429   0.294
57178W        W30246  22.110  18.572   2.307
57179W        W30247  35.899  31.505  14.302
57180W        W30248  20.813  19.968   4.706
57181W        W30249  41.267  34.459   4.373
57182W        W30250   5.507  25.516  13.963
57183W        W30251  37.524  41.883  11.051
57184W        W30252  26.064  13.306  10.461
57185W        W30253  15.277  25.000   0.503
57186W        W30254   9.261  25.157   1.703
57187W        W30255  18.013  25.106   3.383
57188W        W30256  35.985   7.127   2.721
57189W        W30257   3.281   8.877  11.533
57190W        W30258   2.678   8.728  14.283
57191W        W30259   7.363   4.451   0.881
57192W        W30260  31.940   0.591   0.570
57193W        W30261  19.795  19.295  10.530
57194W        W30262  12.391   9.709   3.694
57195W        W30263  34.826  42.315   2.251
57196W        W30264  44.305  23.611  10.703
57197W        W30265  26.381  16.394   3.124
57198W        W30266  26.637  12.575   5.057
57199W        W30267  22.806  17.626  12.101
57200W        W30268  37.828   3.928   2.420
57201W        W30269  16.373  19.388   4.288
57202W        W30270   6.279  16.291  13.946
57203W        W30271  42.451  25.034   0.880
57204W        W30272  31.391   9.581   1.504
57205W        W30273  16.728  30.516  14.945
57206W        W30274  29.934  12.892   4.670
57207W        W30275   0.517  31.592   3.289
57208W        W30276  12.917  42.684   4.223
57209W        W30277  17.409   9.835   1.950
57210W        W30278  42.458  34.446   0.555
57211W        W30279  32.922   0.377   4.148
57212W        W30280  33.399   2.813   2.820
57213W        W30281   6.645  34.741  13.976
57214W        W30282   7.620  22.157  14.379
57215W        W30283  25.478  35.297   1.660
57216W        W30284  36.917  31.564   2.801
57217W        W30285   1.600   9.886  11.864
57218W        W30286   3.701  43.835   0.331
57219W        W30287  23.032  24.942  11.707
57220W        W30288  14.532   9.684  12.023
57221W        W30289  43.950  23.529  12.324
57222W        W30290   7.291  20.297   3.969
57223W        W30291  44.801  22.555  14.201
57224W        W30292   7.881   7.410  10.188
57225W        W30293  21.115  25.826  13.445
57226W        W30294  33.863  22.983   0.953
57227W        W30295   1.124  13.859   0.430
57228W        W30296  14.939  18.227   5.030
57229W        W30297  41.583  41.998  11.540
57230W        W30298  12.992  18.637   5.387
57231W        W30299  40.004  31.497  13.522
57232W        W30300   8.402   3.832  14.477
57233W        W30301   3.812  26.599   2.715
57234W        W30302  36.472  37.352   2.146
57235W        W30303  21.346   4.635   4.055
57236W        W30304   3.536  25.346   1.024
57237W        W30305  36.001   4.047  10.420
57238W        W30306  34.417  16.764  11.160
57239W        W30307  24.021   4.514   3.804
57240W        W30308  11.143  19.685   1.026
57241W        W30309  35.986  26.261  11.000
57242W        W30310  27.476   5.610   1.277
57243W        W30311  44.583  39.531  10.229
57244W        W30312  30.005  32.465   3.848
57245W        W30313  42.566  41.391   4.142
57246W        W30314  32.691  34.708  12.886
57247W        W30315  41.864  38.778   2.815
57248W        W30316  35.986  35.678   3.191
57249W        W30317  22.339  33.926  12.473
57250W        W30318  13.285  28.286   0.235
57251W        W30319  23.597  23.277   3.140
57252W        W30320   9.540   9.542   4.349
57253W        W30321   6.408  16.306  12.566
57254W        W30322  23.595  18.299   0.888
57255W        W30323  14.328  33.405  11.382
57256W        W30324  21.634  27.474   0.882
57257W        W30325  23.945   3.345  12.020
57258W        W30326   9.477   0.423  12.077
57259W        W30327  41.258  38.241  12.111
57260W        W30328  41.435  26.439   4.376
57261W        W30329  26.931  21.073   0.472
57262W        W30330   7.430  12.291  10.402
57263W        W30331  36.329   5.386  11.081
57264W        W30332  35.169  21.883   3.197
57265W        W30333  23.973  33.028  13.876
57266W        W30334  22.536  26.082  10.652
57267W        W30335  19.027  37.494   0.437
57268W        W30336   4.291   7.309   4.296
57269W        W30337  28.722  41.552   3.932
57270W        W30338  15.109   7.565  10.988
57271W        W30339  43.978  17.071   4.074
57272W        W30340   1.959  38.848   4.540
57273W        W30341  34.413  37.888  12.187
57274W        W30342  10.423  17.706  10.235
57275W        W30343  16.007  25.415  12.874
57276W        W30344  24.677   1.602   2.304
57277W        W30345   9.954  35.048  11.177
57278W        W30346  35.760   0.631  11.683
57279W        W30347   0.790  43.518  14.380
57280W        W30348  25.972  12.136  11.410
57281W        W30349  26.530   4.221  11.977
57282W        W30350  38.632  20.782   4.757
57283W        W30351  25.488   6.859   3.690
57284W        W30352   6.212  15.741   0.476
57285W        W30353  19.124  34.348   4.151
57286W        W30354  42.396   6.277   2.259
57287W        W30355  43.880  27.170   1.333
57288W        W30356  42.741  28.020   3.957
57289W        W30357  25.027  17.696  11.172
57290W        W30358  19.159  19.684   1.275
57291W        W30359  28.676   2.932  11.982
57292W        W30360  19.414   2.956   2.510
57293W        W30361  30.729  15.221   0.449
57294W        W30362   1.390   6.371  11.593
57295W        W30363  43.471  35.404   4.159
57296W        W30364  18.261   3.398  14.322
57297W        W30365  21.001   4.192   1.917
57298W        W30366  27.221   8.792   1.017
57299W        W30367  15.189  11.246   3.808
57300W        W30368  23.963   0.402  14.354
57301W        W30369  43.770  41.639  14.897
57302W        W30370  13.142   2.176  11.630
57303W        W30371  31.642  26.734   2.662
57304W        W30372  36.843   7.581  11.611
57305W        W30373  44.541  30.809   1.742
57306W        W30374  22.026   6.937   4.778
57307W        W30375  13.226   4.113  12.554
57308W        W30376   8.307  44.667   0.397
57309W        W30377   1.783  13.121   3.234
57310W        W30378  42.384  30.966  13.486
57311W        W30379  40.444  26.594  12.419
57312W        W30380   5.899  31.649   2.236
57313W        W30381  34.296  15.251  11.522
57314W        W30382   3.911  28.691  12.386
57315W        W30383  13.449  19.685  12.214
57316W        W30384   9.447   2.867   3.192
57317W        W30385  17.217  35.069   0.313
57318W        W30386  41.782  29.605   2.642
57319W        W30387  16.014  11.514  12.902
57320W        W30388  36.882  21.758  11.464
57321W        W30389  30.549  27.175  12.024
57322W        W30390  11.898  23.297  14.912
57323W        W30391  39.950  21.574  12.432
57324W        W30392  17.628  42.123   0.960
57325W        W30393  16.859  43.801  11.023
57326W        W30394  41.997  22.239  11.165
57327W        W30395  36.520  19.135  11.556
57328W        W30396  43.949   3.827  10.382
57329W        W30397  33.961  34.066   2.255
57330W        W30398  19.612  32.545  13.407
57331W        W30399  41.853  20.019  12.251
57332W        W30400  32.234  17.610   1.156
57333W        W30401   1.044  18.074  11.058
57334W        W30402  41.400  32.338  11.667
57335W        W30403  32.487  27.705  14.822
57336W        W30404   1.925  17.128  13.552
57337W        W30405   0.777  44.292   1.337
57338W        W30406  18.983   8.783   4.246
57339W        W30407  36.187  14.810  12.661
57340W        W30408   0.464  23.455   2.804
57341W        W30409  11.316  23.359   4.899
57342W        W30410  19.939  22.273   4.953
57343W        W30411   4.574  21.970  12.049
57344W        W30412  43.222  33.449   4.998
57345W        W30413  33.997  17.087   4.367
57346W        W30414  43.915   6.798   0.832
57347W        W30415   2.319  14.117   4.080
57348W        W30416  27.001   7.900   4.681
57349W        W30417  19.533   8.845   0.467
57350W        W30418   5.001   9.331   3.260
57351W        W30419  22.334   8.211   4.319
57352W        W30420   6.331  29.628  10.692
57353W        W30421  21.840  40.772  13.957
57354W        W30422  40.141   7.714   0.435
57355W        W30423   3.840  35.497   4.187
57356W        W30424  21.248  37.553  10.568
57357W        W30425  34.365   8.950  11.374
57358W        W30426  33.400  42.039  12.467
57359W        W30427   4.658   4.816   2.915
57360W        W30428  20.038  41.763   3.725
57361W        W30429  15.851   0.520   2.333
57362W        W30430  26.079   9.621   3.370
57363W        W30431  28.985  41.505  13.814
57364W        W30432   5.894  33.654  13.920
57365W        W30433   9.258  22.595   4.957
57366W        W30434  32.385  31.943  10.690
57367W        W30435  16.694  30.351  12.050
57368W        W30436  43.231  19.531  13.953
57369W        W30437  31.527  20.715  12.947
57370W        W30438   0.074  35.486  10.506
57371W        W30439  12.416   1.861  14.931
57372W        W30440   1.085  17.594   1.749
57373W        W30441  40.083   7.921  14.875
57374W        W30442  16.427  32.151   5.342
57375W        W30443  36.620  33.229   0.334
57376W        W30444  31.367  32.373   3.341
57377W        W30445  34.459  12.219   2.808
57378W        W30446  25.554   1.417  13.012
57379W        W30447  19.603  38.607  14.556
57380W        W30448  10.807  32.179  10.816
57381W        W30449  34.668   1.009  10.591
57382W        W30450  40.548  42.906  14.624
57383W        W30451  31.197   1.349   2.729
57384W        W30452  35.637  15.790   1.524
57385W        W30453  37.197  23.906   2.496
57386W        W30454  41.022  10.261   4.878
57387W        W30455   0.493  28.903  10.733
57388W        W30456  28.528  14.742  14.915
57389W        W30457  17.775  31.806   1.824
57390W        W30458  23.169  10.549   3.223
57391W        W30459  37.695  20.144  12.062
57392W        W30460   6.316   5.415  11.437
57393W        W30461  37.101  41.589  12.391
57394W        W30462  35.389  32.938   4.345
57395W        W30463  34.141  26.525  13.550
57396W        W30464  24.663  24.506   0.511
57397W        W30465  23.685  14.205  11.011
57398W        W30466  30.600  15.183  12.459
57399W        W30467   8.297  36.029  13.948
57400W        W30468  44.688   4.469  11.147
57401W        W30469  32.398  20.233   1.133
57402W        W30470   3.435  15.953  12.839
57403W        W30471  44.271  29.079   3.339
57404W        W30472  32.380  43.425   2.133
57405W        W30473  41.067  31.138  11.610
57406W        W30474  28.556  32.324   4.768
57407W        W30475   5.876  37.510  13.588
57408W        W30476   3.006   0.416  14.947
57409W        W30477   4.188  23.609   2.286
57410W        W30478  39.839  42.409  10.754
57411W        W30479  12.339   5.592   0.792
57412W        W30480  25.493  40.483  10.580
57413W        W30481  17.658  42.705  14.823
57414W        W30482  44.167   0.776  10.553
57415W        W30483   8.349  35.271   1.722
57416W        W30484  21.067  27.394  13.897
57417W        W30485  33.889  22.521   2.421
57418W        W30486  44.846  40.300   0.450
57419W        W30487   2.551  25.655  12.451
57420W        W30488  33.337  39.020   4.139
57421W        W30489   8.317  44.768  13.994
57422W        W30490  25.566  43.397   3.756
57423W        W30491  22.591  35.035   1.290
57424W        W30492  17.655  33.399   0.192
57425W        W30493  23.233  30.104   1.327
57426W        W30494  10.561  39.956  11.045
57427W        W30495   5.720  21.889  12.507
57428W        W30496  30.967  14.539  13.997
57429W        W30497   6.890  28.674  11.284
57430W        W30498  43.031  22.585  12.545
57431W        W30499  38.916   4.783  14.479
57432W        W30500   0.888  21.861  13.796
57433W        W30501  23.867  38.470  10.122
57434W        W30502  18.643  16.233   1.857
57435W        W30503  43.212   4.319  11.092
57436W        W30504   2.257   4.830   3.225
57437W        W30505   5.253  21.763   0.020
57438W        W30506  17.323  39.553   2.443
57439W        W30507  21.954  42.397  11.190
57440W        W30508  43.670  33.591  12.143
57441W        W30509  40.564  31.349  11.706
57442W        W30510   9.288  11.088  14.902
57443W        W30511   3.204  28.001  14.145
57444W        W30512   4.182  29.234   4.123
57445W        W30513   3.452  32.039  12.008
57446W        W30514  19.561  42.064   0.482
57447W        W30515   8.851   5.337   9.985
57448W        W30516  29.951  19.257  13.507
57449W        W30517  37.409   8.477   5.062
57450W        W30518  13.150  34.622  12.592
57451W        W30519  38.062  30.001  14.948
57452W        W30520  23.344  34.361   4.122
57453W        W30521  30.716   7.314   2.228
57454W        W30522  28.097  18.775  11.666
57455W        W30523  22.685   1.831  10.814
57456W        W30524  22.774  16.379   0.707
57457W        W30525   6.268   1.572   2.241
57458W        W30526  19.776  44.961   2.266
57459W        W30527  35.439   2.240   3.022
57460W        W30528   0.686  20.044  14.980
57461W        W30529  40.986  41.256  11.649
57462W        W30530  37.866  41.339   2.363
57463W        W30531  10.769  11.226  12.390
57464W        W30532   5.266  43.425   4.124
57465W        W30533  44.059  12.378  11.106
57466W        W30534   1.394   1.622   1.467
57467W        W30535  24.948  40.915  13.054
57468W        W30536  15.718  21.187   3.901
57469W        W30537  28.676  32.017  12.900
57470W        W30538  25.631  36.066  14.702
57471W        W30539  18.252  22.961   2.371
57472W        W30540  35.997  38.655   1.365
57473W        W30541  18.974  19.563  11.469
57474W        W30542   7.732  31.081   0.785
57475W        W30543   3.825  19.536  14.948
57476W        W30544  11.767  36.510  11.948
57477W        W30545   1.433   0.899   2.835
57478W        W30546  11.811  42.524  13.072
57479W        W30547   5.019   3.434   3.848
57480W        W30548   8.253   0.895  13.184
57481W        W30549   8.872   4.650   2.809
57482W        W30550  19.468  22.553  14.325
57483W        W30551  42.657  28.718   2.802
57484W        W30552  12.394  12.118  14.954
57485W        W30553  41.273   6.482  13.883
57486W        W30554  36.977  37.872   4.531
57487W        W30555  35.976  32.512   3.739
57488W        W30556   9.912   8.813   0.504
57489W        W30557  40.734  13.240  11.631
57490W        W30558  36.838  21.616   1.910
57491W        W30559  44.293  41.503  10.288
57492W        W30560  10.901  38.774   2.840
57493W        W30561  24.260  13.815   2.239
57494W        W30562  23.520   1.976  12.942
57495W        W30563   2.410  17.678   1.281
57496W        W30564  33.499  16.799   0.773
57497W        W30565  15.631  28.925   4.542
57498W        W30566  32.189  41.263  14.883
57499W        W30567  31.370  29.342  11.549
57500W        W30568  22.542   5.720  11.581
57501W        W30569  25.537  27.946   2.600
57502W        W30570  12.134  33.632  12.854
57503W        W30571  21.789  23.360  11.699
57504W        W30572  15.496  33.893  10.917
57505W        W30573  32.106  34.328   3.185
57506W        W30574  30.131  22.250   3.359
57507W        W30575  37.073  35.980  14.188
57508W        W30576  43.338  24.088   3.104
57509W        W30577  16.965  35.980  11.033
57510W        W30578  19.626  35.600   0.383
57511W        W30579  24.861   3.717   4.117
57512W        W30580  33.010   7.360   0.531
57513W        W30581  38.828  43.579   4.164
57514W        W30582  11.823  24.010  12.037
57515W        W30583  38.320   6.849  14.464
57516W        W30584  15.825   3.351  13.490
57517W        W30585  15.159   9.276   4.913
57518W        W30586  32.859   7.126  12.277
57519W        W30587   7.067  18.568  12.516
57520W        W30588  20.119   5.406  11.466
57521W        W30589  29.497   3.887   4.666
57522W        W30590   0.564  34.918   0.207
57523W        W30591  14.681  39.067   3.273
57524W        W30592  27.732   3.187   0.326
57525W        W30593  26.659  22.168  14.948
57526W        W30594  20.132  18.501  10.787
57527W        W30595  39.312  27.672  10.922
57528W        W30596  20.765  32.450   4.167
57529W        W30597  37.425   1.398  12.959
57530W        W30598  40.590  17.339   0.396
57531W        W30599  22.976  14.800   5.020
57532W        W30600  29.000   5.302  14.117
57533W        W30601   7.767  28.524   1.738
57534W        W30602  41.656  14.704   1.281
57535W        W30603  34.183  18.721  11.907
57536W        W30604  12.224  19.053  11.388
57537W        W30605  44.005  25.328  13.054
57538W        W30606  11.850  36.806  10.235
57539W        W30607  24.609  38.108  10.652
57540W        W30608  35.549  15.628   1.041
57541W        W30609  38.927  29.719   0.921
57542W        W30610  14.033  10.315  14.028
57543W        W30611  24.607  23.242  14.233
57544W        W30612  31.303  14.154  10.209
57545W        W30613  30.062  29.072   3.244
57546W        W30614  14.400   2.905  12.897
57547W        W30615  41.412  37.441  14.858
57548W        W30616  12.050   1.821   0.936
57549W        W30617  43.531  34.024   4.525
57550W        W30618  18.161  35.013   4.596
57551W        W30619  18.162  17.034   0.459
57552W        W30620  33.055  32.437   3.882
57553W        W30621   0.783  33.966  10.541
57554W        W30622  36.587  10.443   2.349
57555W        W30623  27.410  42.937  11.127
57556W        W30624  22.218  31.607   1.806
57557W        W30625  34.494  34.968   2.219
57558W        W30626  13.181  32.584  10.836
57559W        W30627  11.812  31.421   4.766
57560W        W30628  23.972  24.744  12.665
57561W        W30629  26.463  44.416   2.802
57562W        W30630  34.280  32.301   4.077
57563W        W30631   8.205  22.005   3.192
57564W        W30632   4.457   9.983  10.577
57565W        W30633  40.929   6.902   4.961
57566W        W30634  22.233  29.420  11.090
57567W        W30635  39.613  39.390  13.550
57568W        W30636  12.760  13.453  14.992
57569W        W30637  15.714  38.123   2.786
57570W        W30638  42.959  15.092   3.645
57571W        W30639  13.523  44.080   2.725
57572W        W30640   7.372  23.023   1.397
57573W        W30641  41.722  36.056  11.517
57574W        W30642  28.918   4.181  10.953
57575W        W30643  26.051  34.091  10.770
57576W        W30644   3.659  22.318  12.047
57577W        W30645  44.518  27.429  14.761
57578W        W30646   1.195  14.892   3.239
57579W        W30647  10.652  20.051   4.480
57580W        W30648  30.372  37.011  10.823
57581W        W30649  39.244  41.293   3.672
57582W        W30650  38.302  18.723  11.756
57583W        W30651  38.952   3.165   5.191
57584W        W30652  12.293   1.813   4.888
57585W        W30653   9.340  28.802   0.429
57586W        W30654   3.769  38.856   2.140
57587W        W30655  33.900  38.617  12.045
57588W        W30656  15.842  32.565  12.981
57589W        W30657  16.890   1.291   2.696
57590W        W30658  27.973  37.782   1.804
57591W        W30659  13.549   0.550   2.826
57592W        W30660  22.554  34.455   0.666
57593W        W30661  20.360  23.390  14.333
57594W        W30662  42.561  12.838   4.692
57595W        W30663   1.241   1.782   0.993
57596W        W30664  18.934  42.425   0.794
57597W        W30665  19.534   9.267   0.802
57598W        W30666  14.659   1.496  13.012
57599W        W30667  31.332   0.818  13.808
57600W        W30668  11.124  22.090   0.405
57601W        W30669   3.494  43.463   2.150
57602W        W30670  22.118  24.768   4.463
57603W        W30671  33.446  28.091  13.507
57604W        W30672  21.489  28.491  12.079
57605W        W30673  14.297  25.229   2.159
57606W        W30674  33.504   3.169   0.693
57607W        W30675  18.087   7.919  11.126
57608W        W30676   0.840  22.369  10.097
57609W        W30677  15.090   5.079  14.497
57610W        W30678  40.768  18.098   1.193
57611W        W30679   9.009  29.229   1.863
57612W        W30680  11.904  24.452  13.454
57613W        W30681   6.097  17.659  14.929
57614W        W30682  27.088  26.157   2.660
57615W        W30683  13.169  43.197   3.649
57616W        W30684  43.756  21.815  14.398
57617W        W30685   2.468  17.523   4.940
57618W        W30686  19.599  12.844   3.760
57619W        W30687  43.482  18.449  14.226
57620W        W30688  38.175   4.644   4.055
57621W        W30689  34.075  27.933   1.764
57622W        W30690  14.194  13.281  11.484
57623W        W30691  30.216   6.199   0.841
57624W        W30692  32.780  22.796  12.112
57625W        W30693   8.677  11.842   0.021
57626W        W30694  20.258   4.710  10.181
57627W        W30695  34.656  21.660  13.429
57628W        W30696  44.515  26.503  13.328
57629W        W30697  22.553  28.609   2.645
57630W        W30698  44.009   7.907  14.352
57631W        W30699  16.119   6.521   1.906
57632W        W30700  28.882  19.191  11.875
57633W        W30701  10.356  38.021   1.470
57634W        W30702  39.113  25.511   3.263
57635W        W30703  36.812   2.213   4.228
57636W        W30704   1.372  31.650   3.794
57637W        W30705  35.543   3.624   4.089
57638W        W30706   4.764  36.315  11.133
57639W        W30707  14.312  12.183   1.946
57640W        W30708   4.765  44.609  14.011
57641W        W30709  26.178  12.424   2.188
57642W        W30710  11.156  36.924   0.071
57643W        W30711   3.518   9.060   0.246
57644W        W30712   4.783  28.137  11.971
57645W        W30713  14.864   8.353  13.512
57646W        W30714  15.341  41.018   3.733
57647W        W30715  13.707  12.729   1.429
57648W        W30716   7.751  38.987   2.300
57649W        W30717  25.661   7.222  10.575
57650W        W30718   4.849   0.110   4.619
57651W        W30719   3.019  24.971   4.506
57652W        W30720   3.681  38.832  13.436
57653W        W30721  15.498  35.046  14.316
57654W        W30722  22.073  23.193  11.044
57655W        W30723  26.089  42.487   1.794
57656W        W30724  27.082  25.124   4.556
57657W        W30725  40.581  38.497   4.205
57658W        W30726  36.259  33.958   4.966
57659W        W30727  37.092   2.159  13.298
57660W        W30728  19.269  35.993  10.680
57661W        W30729  28.309  13.959  12.747
57662W        W30730  43.047  30.412   1.291
57663W        W30731  21.448  24.190   0.802
57664W        W30732  31.855   6.480  10.455
57665W        W30733  34.879  26.655   0.369
57666W        W30734   9.942  34.472   2.019
57667W        W30735  32.950   7.600   1.483
57668W        W30736  22.495   1.749   2.180
57669W        W30737  24.702  20.446   1.175
57670W        W30738  42.106   1.404   0.802
57671W        W30739  37.395  32.431   1.855
57672W        W30740  32.569  33.122  13.078
57673W        W30741  28.038  27.701   3.135
57674W        W30742  43.912  38.322  14.982
57675W        W30743   6.880  25.636   0.253
57676W        W30744   1.306   5.468  14.709
57677W        W30745  38.819  22.824  10.995
57678W        W30746  27.238  31.944   1.344
57679W        W30747  27.535  22.428  11.814
57680W        W30748  11.396  20.741  12.431
57681W        W30749   4.854  40.707   4.073
57682W        W30750   0.675  19.558   2.913
57683W        W30751  19.609  20.272  14.763
57684W        W30752  37.845   7.263  13.418
57685W        W30753  22.941   7.180   3.505
57686W        W30754  22.796   8.197   3.599
57687W        W30755  20.172  43.440  11.170
57688W        W30756  17.324  37.792   5.020
57689W        W30757  34.457  14.047  12.926
57690W        W30758  25.099  43.084  13.841
57691W        W30759   7.165  23.276   0.474
57692W        W30760   5.261  39.906  14.244
57693W        W30761  25.693  37.425  10.876
57694W        W30762  30.350  19.277  11.157
57695W        W30763  14.285  23.190   0.858
57696W        W30764  24.972  18.490   4.094
57697W        W30765  30.913   6.926   1.793
57698W        W30766  41.358  21.663  14.353
57699W        W30767  21.784   9.234  14.882
57700W        W30768  38.793  40.453   0.357
57701W        W30769  29.754  43.246   3.669
57702W        W30770  28.024  23.191   0.223
57703W        W30771  33.185  25.062  11.239
57704W        W30772  30.069  32.738  14.904
57705W        W30773  21.157   1.155   9.804
57706W        W30774  13.787  26.607   4.274
57707W        W30775  43.265   6.819  14.875
57708W        W30776   9.963  21.627   2.958
57709W        W30777  27.636   0.994  14.361
57710W        W30778  34.374  41.290  13.436
57711W        W30779  26.035   3.524  12.442
57712W        W30780   5.851  32.819   4.367
57713W        W30781  29.050   5.650   2.160
57714W        W30782  26.007  33.542   2.161
57715W        W30783  20.770  26.096  13.983
57716W        W30784  41.477  41.404  11.698
57717W        W30785  14.215  14.073   0.414
57718W        W30786  24.699  43.536   1.854
57719W        W30787  18.592  38.544   0.918
57720W        W30788  41.868  37.670   5.048
57721W        W30789  14.863  24.425  12.455
57722W        W30790  43.078  27.516   1.720
57723W        W30791   1.548  32.949  13.270
57724W        W30792  38.913  24.787  12.081
57725W        W30793  21.729  39.958   1.286
57726W        W30794  43.958   4.723  10.470
57727W        W30795  38.644  22.473  12.466
57728W        W30796   3.391  35.925   1.428
57729W        W30797  19.803  35.049   3.319
57730W        W30798  30.364  28.401  12.520
57731W        W30799  30.090  20.286   1.995
57732W        W30800  43.512  39.805  13.266
57733W        W30801  12.160  31.723   4.972
57734W        W30802  24.188  32.705  12.107
57735W        W30803  39.502  14.087  13.501
57736W        W30804  27.228   5.139   1.922
57737W        W30805  14.457  37.138  14.986
57738W        W30806  26.676  26.961   1.378
57739W        W30807  11.178  42.361  11.849
57740W        W30808   7.740  32.916  13.769
57741W        W30809  22.542  12.616   4.540
57742W        W30810  26.203  11.260  11.570
57743W        W30811  14.071  18.374  12.232
57744W        W30812  35.358  39.820   4.190
57745W        W30813  22.966  35.469   2.765
57746W        W30814   0.224  13.274   1.701
57747W        W30815  34.416  34.840   2.727
57748W        W30816  32.301  26.625   4.221
57749W        W30817  36.863  19.279   0.368
57750W        W30818  11.450  41.416  14.156
57751W        W30819  23.849  34.175   0.348
57752W        W30820  30.604  12.657   1.303
57753W        W30821  31.951  24.070   3.426
57754W        W30822  41.041   8.618  11.123
57755W        W30823  10.788  32.922  14.654
57756W        W30824  16.619  29.049   4.807
57757W        W30825  16.566  36.788   0.465
57758W        W30826   7.912  35.740   2.704
57759W        W30827  27.959  36.157   2.387
57760W        W30828  19.202  20.555  14.926
57761W        W30829   9.162  22.944  12.880
57762W        W30830   6.721  30.964  12.050
57763W        W30831  29.001  38.644   2.658
57764W        W30832   9.358  34.469  11.769
57765W        W30833  19.599   7.111   0.936
57766W        W30834  17.824  17.645  12.404
57767W        W30835   4.835  21.595   2.858
57768W        W30836   9.178   3.708  11.064
57769W        W30837   3.973   4.313  13.074
57770W        W30838  37.014  23.664   4.983
57771W        W30839  38.551   4.790  11.195
57772W        W30840  19.749  32.642  11.969
57773W        W30841  22.342   6.953  13.433
57774W        W30842   4.491  14.254  10.692
57775W        W30843  31.928  29.545  13.908
57776W        W30844  21.057  16.809  13.933
57777W        W30845   2.776  30.005   3.224
57778W        W30846  39.570  18.388   0.929
57779W        W30847  10.412  41.405   2.348
57780W        W30848  33.865  39.536  14.411
57781W        W30849  19.700  28.937  11.964
57782W        W30850  34.490   1.925  13.045
57783W        W30851  38.457  17.559  12.883
57784W        W30852  27.425  20.534   1.416
57785W        W30853  25.382  25.685  13.747
57786W        W30854   2.488  29.075  12.193
57787W        W30855  16.344   4.896  13.519
57788W        W30856  28.151  37.903  11.181
57789W        W30857  29.961   8.890   3.376
57790W        W30858  17.055  42.264   3.738
57791W        W30859  32.188   5.504  10.762
57792W        W30860  28.327  27.640  14.787
57793W        W30861  11.147  36.938   0.915
57794W        W30862  26.834  19.229  13.002
57795W        W30863  43.980  25.464   4.915
57796W        W30864  27.119  16.096  10.724
57797W        W30865  33.544  20.834   0.008
57798W        W30866  40.383   8.668  13.483
57799W        W30867  22.604   7.601   1.305
57800W        W30868   7.848  36.211   1.372
57801W        W30869  39.037   9.075   3.311
57802W        W30870  27.614  33.340   3.126
57803W        W30871   0.270  38.989   0.024
57804W        W30872  31.541  12.312  11.084
57805W        W30873  43.033  37.949  12.626
57806W        W30874   1.227  39.339  12.778
57807W        W30875  13.196  23.654   4.146
57808W        W30876  31.425  19.683   0.382
57809W        W30877   0.326  27.446  11.981
57810W        W30878  26.097   5.944   4.127
57811W        W30879  21.164  24.385   3.080
57812W        W30880  42.927  30.974  13.951
57813W        W30881  31.609   0.713  10.397
57814W        W30882  34.708  41.138  11.113
57815W        W30883  10.173  43.399  12.659
57816W        W30884   8.025  33.542   2.031
57817W        W30885  11.461  31.483  14.220
57818W        W30886  34.965  16.209  14.367
57819W        W30887  44.252  30.090   4.307
57820W        W30888  20.314  42.501   1.764
57821W        W30889  18.982  17.846   2.891
57822W        W30890   9.276   7.782  13.527
57823W        W30891  27.374  31.934  10.139
57824W        W30892  35.094  28.748  11.572
57825W        W30893  10.190  29.035  11.895
57826W        W30894   4.166  32.715  13.584
57827W        W30895  24.110  20.552   2.320
57828W        W30896   9.881   0.836   2.331
57829W        W30897  44.350  39.378   0.264
57830W        W30898  31.580  15.347   0.259
57831W        W30899  32.417  41.060   0.801
57832W        W30900  42.524  26.391  14.085
57833W        W30901  33.377  30.409  13.878
57834W        W30902   0.918  11.045   3.863
57835W        W30903  36.931  24.210   0.307
57836W        W30904  25.510  31.845  12.109
57837W        W30905  20.346  40.842  10.905
57838W        W30906  12.239  40.907  11.093
57839W        W30907   9.825  27.606   2.149
57840W        W30908   4.459   3.926  11.605
57841W        W30909  39.492  22.986  12.030
57842W        W30910  17.774  34.478  14.917
57843W        W30911  36.203   6.399   5.356
57844W        W30912   8.605  12.454   3.198
57845W        W30913  31.994  33.059  10.740
57846W        W30914  20.170  40.633  14.411
57847W        W30915  11.758  39.294   1.639
57848W        W30916   5.840   1.657  11.213
57849W        W30917  42.245   9.138  11.466
57850W        W30918  18.028  40.336   3.569
57851W        W30919   9.778  17.960  13.740
57852W        W30920  19.572  44.866  10.181
57853W        W30921  20.652   5.324  10.719
57854W        W30922  38.459   5.677   4.912
57855W        W30923  11.917  43.048   2.013
57856W        W30924   8.241  40.110  12.836
57857W        W30925  21.699  12.199   1.424
57858W        W30926  21.556  31.733   0.752
57859W        W30927  21.648  24.457   1.861
57860W        W30928  13.741  11.803   4.677
57861W        W30929   6.094  37.497  14.507
57862W        W30930   5.441  30.552  11.653
57863W        W30931   7.448  30.465  13.942
57864W        W30932  37.579  24.471   3.876
57865W        W30933  41.630  26.654  13.920
57866W        W30934  17.256   7.891   3.625
57867W        W30935  37.407  39.229  12.447
57868W        W30936  27.936  12.678  10.448
57869W        W30937  42.447  32.434  14.530
57870W        W30938   7.766   4.157   0.736
57871W        W30939  11.263  17.187  12.416
57872W        W30940  24.913  22.294   3.174
57873W        W30941  18.706  30.655  13.100
57874W        W30942  14.677  19.211  11.268
57875W        W30943  30.397  30.483   3.206
57876W        W30944  15.130  33.322  11.939
57877W        W30945  21.847  33.792   3.679
57878W        W30946  37.582  20.826  12.605
57879W        W30947  22.490  28.090   0.313
57880W        W30948  37.831  27.614  13.965
57881W        W30949  38.521   0.336  14.468
57882W        W30950  22.075  42.912   0.378
57883W        W30951  36.655   8.028   4.514
57884W        W30952  43.982  32.080  10.896
57885W        W30953  11.706   9.467   1.013
57886W        W30954  18.734  21.770   4.149
57887W        W30955  32.168  44.878  11.333
57888W        W30956  43.956  26.500   4.617
57889W        W30957   8.571  28.034   4.486
57890W        W30958  31.733  29.403   2.336
57891W        W30959  23.197  27.095  11.151
57892W        W30960  11.461  30.877  13.486
57893W        W30961   1.669  21.988  12.660
57894W        W30962  41.133  21.118   3.712
57895W        W30963  23.007  28.609   0.790
57896W        W30964  30.654  15.283   4.146
57897W        W30965  43.414  38.478  14.929
57898W        W30966  15.854  10.170   3.659
57899W        W30967  39.605  23.722   4.089
57900W        W30968   3.774  12.811  12.519
57901W        W30969  40.534  21.503  10.684
57902W        W30970  44.359  24.748   3.591
57903W        W30971  22.033  26.557   1.308
57904W        W30972  16.746  18.818  10.933
57905W        W30973  31.598  32.203   4.790
57906W        W30974  21.765  39.279   3.111
57907W        W30975  36.938  14.278  13.717
57908W        W30976  38.006  42.972   1.416
57909W        W30977  29.307  31.965  10.311
57910W        W30978   1.740  28.146  12.368
57911W        W30979  34.554  19.853  14.054
57912W        W30980  22.783  30.069   2.253
57913W        W30981  31.904   8.230  13.604
57914W        W30982   6.987  34.580  13.126
57915W        W30983  37.387  24.360   2.652
57916W        W30984  14.609  20.809   4.078
57917W        W30985  18.055  23.360  11.082
57918W        W30986  44.945   9.942   3.803
57919W        W30987  20.747  16.778   4.208
57920W        W30988  40.443  34.945   1.707
57921W        W30989  36.166  16.948   2.914
57922W        W30990  18.479  28.152  14.418
57923W        W30991  21.742  33.143  13.781
57924W        W30992  28.160  22.564   3.914
57925W        W30993  37.372  41.430  11.960
57926W        W30994   5.905   1.176  11.969
57927W        W30995  34.976   1.525  10.977
57928W        W30996   5.744   8.295   1.633
57929W        W30997   2.171   0.323  13.340
57930W        W30998  44.378  32.156  14.230
57931W        W30999   0.950  28.635   2.567
57932W        W31000  39.480  10.285  14.385
57933W        W31001  17.488   6.843   1.132
57934W        W31002  41.788  19.334  14.425
57935W        W31003  22.758  34.209   2.790
57936W        W31004  40.886  27.877   2.251
57937W        W31005  43.775  25.685   1.274
57938W        W31006  14.503  11.440   4.592
57939W        W31007  20.699  22.016   2.752
57940W        W31008  18.011  31.502  13.825
57941W        W31009   7.300  16.390  12.851
57942W        W31010  43.366  31.222  13.843
57943W        W31011  37.437   8.233  14.511
57944W        W31012  10.173  29.577  12.504
57945W        W31013  16.335  25.557  12.036
57946W        W31014  36.908  37.572   1.906
57947W        W31015  31.175  30.787  14.858
57948W        W31016   4.877  10.264  14.015
57949W        W31017  14.860  11.898  12.595
57950W        W31018  20.687  30.632   0.840
57951W        W31019   6.822   4.226  12.508
57952W        W31020  34.161  22.620  13.038
57953W        W31021  15.656  12.261  13.441
57954W        W31022  42.191  11.999   4.345
57955W        W31023   7.922  23.237   0.776
57956W        W31024  38.948  18.693   3.615
57957W        W31025   9.768  36.011  14.850
57958W        W31026  17.530   7.235   4.904
57959W        W31027  12.158   6.692  14.359
57960W        W31028   1.974  34.571   4.174
57961W        W31029  18.145  42.777  14.276
57962W        W31030  35.048   5.624  11.529
57963W        W31031  11.140  24.598   0.026
57964W        W31032  11.634  44.705   0.321
57965W        W31033  41.484  17.768   0.613
57966W        W31034  30.294  17.671  13.123
57967W        W31035   9.831  35.326   2.301
57968W        W31036  21.084  30.726  14.479
57969W        W31037  32.615  27.667  12.838
57970W        W31038   3.388  35.329  14.843
57971W        W31039   0.192  12.099   3.121
57972W        W31040  33.909   3.016   4.055
57973W        W31041  42.397  11.285  10.741
57974W        W31042  13.347  33.491  11.544
57975W        W31043  19.505   8.703  11.500
57976W        W31044  42.036  26.087  13.417
57977W        W31045   0.204  22.704   1.646
57978W        W31046  29.521  14.166  13.334
57979W        W31047  24.028   8.081  14.281
57980W        W31048  34.729  19.549  11.110
57981W        W31049  13.130  22.659   1.062
57982W        W31050   5.898   3.431  12.040
57983W        W31051  39.097  32.325   2.753
57984W        W31052  10.109  25.657   0.144
57985W        W31053   2.829  40.533   0.325
57986W        W31054  18.367  32.048   3.283
57987W        W31055  37.315  32.082  14.295
57988W        W31056  10.667   3.399   1.423
57989W        W31057  21.026   4.014   4.598
57990W        W31058  16.623  25.182  13.313
57991W        W31059  31.447  26.651   0.250
57992W        W31060  14.193  28.997  11.111
57993W        W31061  29.743  37.375  12.466
57994W        W31062   2.811  10.091  12.116
57995W        W31063  20.661  40.250  13.052
57996W        W31064   4.877  15.338   3.411
57997W        W31065  30.174  25.950   3.538
57998W        W31066  19.191  11.109  11.261
57999W        W31067  24.675  36.729   2.378
58000W        W31068  38.249  35.449   0.302
58001W        W31069  11.394  30.617   0.393
58002W        W31070   4.939  41.950  13.939
58003W        W31071  37.462  31.883   1.848
58004W        W31072  35.299   4.461  13.472
58005W        W31073  26.075   7.446   1.862
58006W        W31074   1.158  27.041   3.259
58007W        W31075  26.770   7.125   2.475
58008W        W31076  24.815   3.266   2.030
58009W        W31077  18.945  11.174   3.857
58010W        W31078  18.412  36.401   3.561
58011W        W31079   8.355  36.344  10.598
58012W        W31080  29.833  18.296   1.335
58013W        W31081  26.345  11.350   2.946
58014W        W31082  37.840  39.878   0.849
58015W        W31083   7.736   9.760  12.412
58016W        W31084  37.099  27.276  11.000
58017W        W31085  40.097  27.361   2.127
58018W        W31086  35.774  39.522   2.327
58019W        W31087  43.218  23.188  12.961
58020W        W31088   5.065   7.376  12.259
58021W        W31089  28.120  18.670  14.031
58022W        W31090   1.004  11.174  11.783
58023W        W31091  41.558  23.464  12.066
58024W        W31092  15.494   0.965   4.940
58025W        W31093  24.107  12.397  10.287
58026W        W31094   0.598  37.693  14.570
58027W        W31095  42.857   8.309  11.167
58028W        W31096  15.031  32.530  12.463
58029W        W31097   5.801  22.021  14.594
58030W        W31098   8.753  11.305   0.742
58031W        W31099  17.126  29.095   4.680
58032W        W31100  23.573  29.623  13.789
58033W        W31101   1.788  13.432  13.470
58034W        W31102  27.607   0.030  10.728
58035W        W31103  25.955  18.401  14.030
58036W        W31104  17.847   0.558  13.619
58037W        W31105  26.399  38.867  11.686
58038W        W31106  44.344   7.984  10.683
58039W        W31107  22.792  11.224  11.716
58040W        W31108   6.982   0.240  11.660
58041W        W31109  35.997  38.941   5.105
58042W        W31110  15.740  26.484  11.096
58043W        W31111   0.844  36.445  11.839
58044W        W31112  39.848   4.271   2.111
58045W        W31113  29.132  18.690   1.893
58046W        W31114  10.596  35.992  13.862
58047W        W31115  40.545  25.296   1.989
58048W        W31116  37.049  12.379  14.109
58049W        W31117  41.037  25.815  14.023
58050W        W31118  37.465   2.240   2.344
58051W        W31119  33.428  38.504   1.279
58052W        W31120   3.270   8.233   1.686
58053W        W31121   8.857  42.482   1.222
58054W        W31122  24.750  23.639   1.460
58055W        W31123  28.275  10.117  13.928
58056W        W31124  27.186  27.781  11.708
58057W        W31125  22.930  14.016   1.710
58058W        W31126  25.952   9.340  11.469
58059W        W31127  20.637  20.275   0.519
58060W        W31128  32.135  14.416  13.073
58061W        W31129   1.404  42.178  11.023
58062W        W31130   6.031  43.841   1.837
58063W        W31131  34.213  14.190   2.784
58064W        W31132  29.397  18.006  12.083
58065W        W31133  15.324  31.086   3.975
58066W        W31134  27.583   2.446  13.369
58067W        W31135  15.857  39.468   4.587
58068W        W31136  22.758  38.826  12.069
58069W        W31137  13.973  41.969   1.825
58070W        W31138  27.177   7.448  10.969
58071W        W31139   6.479  26.727   1.787
58072W        W31140  42.859  26.665  10.899
58073W        W31141  11.488  34.347   2.941
58074W        W31142  23.592   8.818   3.105
58075W        W31143  42.913  20.056  14.970
58076W        W31144  30.648  19.343  11.574
58077W        W31145  37.075  14.810   4.623
58078W        W31146  33.420  36.403   4.070
58079W        W31147  25.695  31.216   3.197
58080W        W31148   9.797  14.868   4.184
58081W        W31149  26.848  13.122  12.352
58082W        W31150   2.927  38.926   1.933
58083W        W31151  10.175  36.115  14.499
58084W        W31152  34.859   4.831   2.388
58085W        W31153  22.079  27.883  11.071
58086W        W31154   6.358  14.259  11.613
58087W        W31155  40.396  12.301   3.722
58088W        W31156  17.300  11.959  13.339
58089W        W31157   1.887  31.642  12.599
58090W        W31158  41.607   1.262   0.898
58091W        W31159  12.745  25.269  10.487
58092W        W31160  34.962  29.961   3.743
58093W        W31161   2.353  35.506   1.373
58094W        W31162  32.807  36.949  14.938
58095W        W31163  32.289  28.903   2.189
58096W        W31164  14.390  19.609   4.219
58097W        W31165  20.884  39.525   3.536
58098W        W31166  42.381  44.439  14.792
58099W        W31167  31.221  21.467   5.093
58100W        W31168  17.094   8.840  14.793
58101W        W31169   0.777  25.997  14.564
58102W        W31170  30.070  25.176   0.289
58103W        W31171  25.401  41.481  14.978
58104W        W31172  21.898   9.015  13.073
58105W        W31173  37.539  42.588  10.759
58106W        W31174  16.952  32.456  13.784
58107W        W31175  25.948   0.005  10.827
58108W        W31176  20.108  16.016   1.805
58109W        W31177  19.323   8.808  10.714
58110W        W31178  19.051  43.940   1.521
58111W        W31179   3.308  42.234   4.655
58112W        W31180   3.386  25.955  13.934
58113W        W31181  20.252  35.550  10.700
58114W        W31182   5.136   7.234   1.249
58115W        W31183  34.218  12.040  11.094
58116W        W31184   4.034   6.350   2.192
58117W        W31185  34.100  11.032   2.286
58118W        W31186  16.297   3.543   0.875
58119W        W31187   2.015   6.318   2.245
58120W        W31188  37.901  21.718  10.691
58121W        W31189  16.108  21.659   4.545
58122W        W31190   4.503  28.488  11.707
58123W        W31191  41.507  31.036   2.137
58124W        W31192  24.055  11.674  14.003
58125W        W31193  25.208  44.710  14.530
58126W        W31194  18.560  34.673   2.115
58127W        W31195  18.487  12.209   0.675
58128W        W31196  11.493  20.474  14.347
58129W        W31197  39.198   1.209   1.784
58130W        W31198  20.569   5.248   3.817
58131W        W31199  40.544   1.938  12.151
58132W        W31200   2.390   6.815  14.852
58133W        W31201   4.539  13.168  12.748
58134W        W31202  19.239  21.081   4.620
58135W        W31203  27.699   4.350   4.596
58136W        W31204  31.117   0.000  13.442
58137W        W31205  37.901  11.755   4.870
58138W        W31206   2.184  36.445  14.962
58139W        W31207  22.249  34.864   2.077
58140W        W31208   9.111  37.536   3.184
58141W        W31209  23.133   9.388   1.355
58142W        W31210   4.299  30.714   3.819
58143W        W31211  30.612   6.447  11.186
58144W        W31212  35.305  25.191   4.175
58145W        W31213  26.508   2.209  10.729
58146W        W31214  31.369  27.706   0.865
58147W        W31215  21.401  42.927  10.205
58148W        W31216  25.455  34.477  11.389
58149W        W31217  24.040  11.552  13.088
58150W        W31218  27.110  32.886   1.198
58151W        W31219  37.871   9.747  14.436
58152W        W31220  26.711   5.206   1.776
58153W        W31221  44.041  35.845  14.907
58154W        W31222  32.539   8.745   0.822
58155W        W31223   6.682  29.099  13.357
58156W        W31224  16.332  30.549  13.081
58157W        W31225   3.913   5.989   4.071
58158W        W31226  31.048  32.874   3.296
58159W        W31227  40.528  39.549   1.250
58160W        W31228  34.367   2.639   0.358
58161W        W31229  19.659  33.197  12.636
58162W        W31230  22.036  35.083  14.704
58163W        W31231  40.457   7.080   5.136
58164W        W31232  19.535   6.792  14.900
58165W        W31233  12.119  29.455   3.153
58166W        W31234  30.567  17.474   1.723
58167W        W31235  30.097   0.050   2.452
58168W        W31236  35.954  23.058   4.250
58169W        W31237   2.304  13.818  13.951
58170W        W31238   1.191  18.513   2.376
58171W        W31239  11.132  18.335   4.000
58172W        W31240   1.334  37.108   2.682
58173W        W31241  37.096  22.350   0.160
58174W        W31242  14.762  20.301   2.022
58175W        W31243  14.526  31.012  10.374
58176W        W31244  36.159  43.926   4.644
58177W        W31245   4.433  30.441   3.386
58178W        W31246  44.999  32.705   0.353
58179W        W31247  44.488   7.642   0.964
58180W        W31248   7.146  40.383  11.422
58181W        W31249  25.018   8.908  11.983
58182W        W31250  36.945  30.403  13.539
58183W        W31251   5.421  33.114   0.770
58184W        W31252  19.274  17.253   3.681
58185W        W31253  19.305  21.032   2.732
58186W        W31254  12.960  43.044   1.927
58187W        W31255  25.784  25.430   0.779
58188W        W31256  23.071  43.363  14.578
58189W        W31257  25.236   4.608  10.928
58190W        W31258  13.961   2.300   1.860
58191W        W31259  39.778  41.811  13.424
58192W        W31260  12.231   3.715   1.788
58193W        W31261  30.122  27.575   2.811
58194W        W31262  18.558  44.222   0.192
58195W        W31263  16.307  29.328   3.124
58196W        W31264  44.849   4.964  13.416
58197W        W31265  37.497  10.139   3.707
58198W        W31266  38.414   2.286   4.442
58199W        W31267  37.544  18.295   4.090
58200W        W31268  30.299  24.606  13.874
58201W        W31269  29.807  32.070  14.335
58202W        W31270  25.151  19.810  14.971
58203W        W31271  35.043  20.008   2.772
58204W        W31272  37.458  38.920  12.868
58205W        W31273  23.540  25.195   3.662
58206W        W31274  19.595  33.111   4.478
58207W        W31275  14.784  26.628  13.916
58208W        W31276   0.952  26.529  11.375
58209W        W31277  44.631   9.274   9.909
58210W        W31278  30.086   4.916  11.666
58211W        W31279   8.307  42.448   5.062
58212W        W31280  13.888   3.746  13.010
58213W        W31281  31.927   3.413  14.251
58214W        W31282   2.744   7.450   4.395
58215W        W31283  44.199  33.982  13.913
58216W        W31284  29.661  39.077   4.640
58217W        W31285  12.552  28.225   0.910
58218W        W31286  41.811  34.483  14.295
58219W        W31287  30.827  41.923  12.697
58220W        W31288  21.978  20.573   3.929
58221W        W31289  22.694  28.005   4.681
58222W        W31290   5.830  17.242   2.443
58223W        W31291  22.148  42.333  14.690
58224W        W31292   5.241  17.491   2.305
58225W        W31293  16.549   4.341  13.686
58226W        W31294  35.757   8.077   4.911
58227W        W31295   2.530  35.009   1.421
58228W        W31296  24.069   1.326   0.028
58229W        W31297  35.966  15.106  14.845
58230W        W31298  39.524  30.523  13.377
58231W        W31299  10.339  16.718   5.144
58232W        W31300  28.577  20.125  13.065
58233W        W31301  16.141  38.030   0.195
58234W        W31302  43.786  44.228   4.338
58235W        W31303  24.705  11.057  12.010
58236W        W31304  20.657  29.437   3.381
58237W        W31305  15.565   0.394   0.964
58238W        W31306  29.704  37.573   2.351
58239W        W31307   6.254  22.041  11.655
58240W        W31308  10.366  22.267  12.942
58241W        W31309  40.504  12.875   3.048
58242W        W31310  19.046  22.054   3.414
58243W        W31311  14.889  34.972   4.603
58244W        W31312   9.379   0.689   3.827
58245W        W31313  12.893  36.409  12.520
58246W        W31314  21.951   5.301  12.881
58247W        W31315  34.380  13.335   0.749
58248W        W31316  22.765  12.646  11.276
58249W        W31317  43.666  13.221  14.293
58250W        W31318   5.615  34.574  12.062
58251W        W31319  25.502  26.685  13.808
58252W        W31320  11.865  17.122  14.548
58253W        W31321  17.710  42.962   3.215
58254W        W31322  26.392  23.349   0.735
58255W        W31323  33.197  23.563  11.947
58256W        W31324  41.825  35.892  13.895
58257W        W31325  22.520  38.315   1.288
58258W        W31326   4.933  35.194  13.192
58259W        W31327  43.919  30.906   1.420
58260W        W31328  17.054   9.354   4.581
58261W        W31329  43.006  16.194  14.362
58262W        W31330   7.784  30.425  12.517
58263W        W31331  29.455  26.541  14.342
58264W        W31332   0.646  26.021  11.676
58265W        W31333  35.997  28.407  11.998
58266W        W31334  27.657  18.411   1.651
58267W        W31335  24.949  18.676   3.600
58268W        W31336  23.916  40.526   5.085
58269W        W31337  38.688  31.544   4.994
58270W        W31338  32.402   4.436   4.181
58271W        W31339  17.275   5.244  14.530
58272W        W31340  11.044   8.396  10.549
58273W        W31341  35.749  23.033   2.865
58274W        W31342  18.178  17.754   2.318
58275W        W31343  38.382   6.836  12.392
58276W        W31344  14.790  36.346  13.928
58277W        W31345  26.383  16.754   0.320
58278W        W31346   6.565  23.476   0.648
58279W        W31347  34.354  15.555  12.595
58280W        W31348  22.469  11.568   3.238
58281W        W31349  22.264  18.014   1.797
58282W        W31350  38.070  35.768   3.763
58283W        W31351  18.700  16.475   2.625
58284W        W31352  33.152  34.464   1.931
58285W        W31353  32.699  35.217  12.816
58286W        W31354  23.641  25.700  13.380
58287W        W31355  13.006  24.371  10.978
58288W        W31356   2.419  36.040   3.121
58289W        W31357  43.847  42.882  12.371
58290W        W31358  20.664   3.260  11.013
58291W        W31359  33.622  33.959   2.659
58292W        W31360  16.686  44.108   4.592
58293W        W31361  38.969  20.218   1.729
58294W        W31362  35.174  14.043  13.460
58295W        W31363  39.908  24.943   3.417
58296W        W31364   9.982  39.875   2.661
58297W        W31365   6.173   2.257   3.184
58298W        W31366   9.928  29.065  13.996
58299W        W31367  36.399  26.500   3.706
58300W        W31368  33.875  38.087  13.338
58301W        W31369   4.522  40.468   0.045
58302W        W31370  41.905  13.433  13.710
58303W        W31371   0.741  30.299  10.418
58304W        W31372   8.722  38.596  14.834
58305W        W31373  19.224  19.172  11.666
58306W        W31374  33.087  39.569   3.232
58307W        W31375   5.853   9.639   1.815
58308W        W31376  35.135   2.163  11.538
58309W        W31377  39.277  38.438   0.052
58310W        W31378  18.253  23.666  14.762
58311W        W31379  27.076  18.704   4.274
58312W        W31380  11.684  23.275  13.003
58313W        W31381   7.568   4.823   3.071
58314W        W31382  13.333  40.738  13.948
58315W        W31383  16.285  11.275  10.628
58316W        W31384  21.759  17.200   0.310
58317W        W31385  34.396  17.296  11.109
58318W        W31386  14.704  34.496  13.699
58319W        W31387  29.177  38.769   2.186
58320W        W31388  30.056  36.602  13.072
58321W        W31389  13.590   7.624   3.968
58322W        W31390  44.387  10.636  11.991
58323W        W31391   1.968  38.459  14.860
58324W        W31392  16.835   7.230  11.241
58325W        W31393  34.473  40.292   2.847
58326W        W31394  29.954  35.049   0.839
58327W        W31395  42.269   4.463  10.953
58328W        W31396  17.417  14.667   2.435
58329W        W31397  11.363  15.374  13.390
58330W        W31398   1.498  17.080   2.251
58331W        W31399  12.447  36.833   1.960
58332W        W31400  34.045   0.805  12.896
58333W        W31401  18.002  34.880  13.869
58334W        W31402  36.955  13.559  12.485
58335W        W31403   9.906  16.721  10.687
58336W        W31404  24.829  31.223  12.628
58337W        W31405  20.118  17.707  13.080
58338W        W31406  43.782   6.766  14.813
58339W        W31407  21.805  18.461   0.471
58340W        W31408  29.929   9.040   4.664
58341W        W31409   9.743  41.812  12.139
58342W        W31410  32.654   5.911   3.790
58343W        W31411  23.077   9.926  13.281
58344W        W31412  32.402  20.402   4.802
58345W        W31413  20.212  40.648  10.443
58346W        W31414  13.364  35.472  12.529
58347W        W31415  40.483  33.315   4.618
58348W        W31416  31.559  12.217   1.942
58349W        W31417  26.293  20.043  14.415
58350W        W31418  23.148  33.103   4.285
58351W        W31419  28.918  15.023  13.066
58352W        W31420   8.649  33.017   2.703
58353W        W31421  23.960  12.004   4.552
58354W        W31422   1.974  23.172   1.802
58355W        W31423  27.492  28.441   1.094
58356W        W31424   3.669  30.360   2.264
58357W        W31425   5.570  41.286   4.523
58358W        W31426   8.433  34.027   2.932
58359W        W31427  30.716   3.792  11.577
58360W        W31428  39.319   9.007  10.599
58361W        W31429  34.415  16.077   3.713
58362W        W31430  11.419  43.492   4.091
58363W        W31431  25.488  30.972   2.177
58364W        W31432  21.252   0.498  11.942
58365W        W31433  19.506  32.956   1.367
58366W        W31434  13.343  14.867  11.552
58367W        W31435  27.224   1.438  11.429
58368W        W31436  42.565  16.297   0.285
58369W        W31437  40.918  12.897   4.794
58370W        W31438  37.044  21.194   2.675
58371W        W31439  10.048  36.411   1.748
58372W        W31440  13.805  27.760  12.440
58373W        W31441  41.915  44.466  14.579
58374W        W31442  36.076   3.325   1.277
58375W        W31443  44.508  14.522  10.908
58376W        W31444  27.049  39.352   2.358
58377W        W31445  33.541  29.951   0.319
58378W        W31446   2.275  34.300   3.129
58379W        W31447  44.916   7.199  12.379
58380W        W31448   2.709  19.410   2.698
58381W        W31449   1.643   4.323  13.614
58382W        W31450   5.097  14.461   3.983
58383W        W31451  35.227  29.167  10.776
58384W        W31452  11.293  15.271   3.260
58385W        W31453  26.426  12.256  10.070
58386W        W31454  19.799  36.508   3.452
58387W        W31455  39.791  29.193   2.092
58388W        W31456  15.550  39.955   2.249
58389W        W31457  25.703  17.748  10.727
58390W        W31458  39.453  41.337   0.973
58391W        W31459  25.537   7.391   0.451
58392W        W31460  37.598   8.453   4.183
58393W        W31461  21.617   3.732   2.268
58394W        W31462  26.030  21.238  12.359
58395W        W31463  30.638  36.183   1.966
58396W        W31464  30.662  22.540   1.374
58397W        W31465   6.101  30.961   4.851
58398W        W31466  25.130  21.118  13.351
58399W        W31467  14.048   8.850  13.535
58400W        W31468  19.527  24.784  13.440
58401W        W31469  17.701  32.618  14.318
58402W        W31470  14.601  11.833  12.150
58403W        W31471  19.548  13.505   0.904
58404W        W31472  10.769   7.186   0.435
58405W        W31473  36.517  23.961   0.527
58406W        W31474   2.528   8.484  11.737
58407W        W31475  31.242  34.109  11.328
58408W        W31476  35.108  33.392   4.192
58409W        W31477  28.530   6.416   0.296
58410W        W31478  34.844  17.636   2.262
58411W        W31479   9.444   4.772   0.451
58412W        W31480  26.070  28.216  11.181
58413W        W31481  44.310  43.867   3.660
58414W        W31482  31.063  13.961  13.316
58415W        W31483   1.171  27.357   3.714
58416W        W31484   7.680   7.592  11.588
58417W        W31485  15.569   6.736  14.758
58418W        W31486  33.398  39.560   3.656
58419W        W31487  41.517   5.559  13.721
58420W        W31488   0.960  32.180  12.103
58421W        W31489  15.357  14.184  14.724
58422W        W31490  13.246  43.831   2.273
58423W        W31491  30.691  38.555  12.587
58424W        W31492   1.934  18.291   1.719
58425W        W31493  26.654  28.142  12.506
58426W        W31494  30.270  30.138   4.132
58427W        W31495   4.302  25.043  11.313
58428W        W31496   4.933  39.283  10.747
58429W        W31497  22.004  38.426   0.420
58430W        W31498  40.548  22.704   3.590
58431W        W31499  29.403  33.487   1.358
58432W        W31500  17.851  26.024   2.252
58433W        W31501  31.572  18.056   3.152
58434W        W31502   5.306  38.934  10.718
58435W        W31503  24.707   0.084   1.750
58436W        W31504  14.867   3.922  10.687
58437W        W31505  10.986  21.238  14.930
58438W        W31506   8.257  28.491  11.445
58439W        W31507  39.345  34.405   0.992
58440W        W31508   9.109  28.051   4.673
58441W        W31509  28.396  22.208   1.299
58442W        W31510  27.097  27.139  14.468
58443W        W31511  36.887   8.909  10.626
58444W        W31512  28.998  32.070   3.039
58445W        W31513   6.733  25.647   4.500
58446W        W31514  24.145  36.972   1.782
58447W        W31515   1.475  13.660   1.057
58448W        W31516  35.515  11.392  13.810
58449W        W31517  12.217   2.540   2.235
58450W        W31518  40.844  32.705  14.907
58451W        W31519  36.616  23.438   5.234
58452W        W31520  34.084  14.660   2.661
58453W        W31521  41.751   6.786   2.174
58454W        W31522  14.311   9.953  12.865
58455W        W31523  27.132  39.866  13.856
58456W        W31524   7.987  40.498  12.053
58457W        W31525  22.186  35.046   3.725
58458W        W31526  16.975  13.491  11.136
58459W        W31527   7.780  39.195  11.184
58460W        W31528  42.419  31.238  10.984
58461W        W31529  14.318  33.559  13.399
58462W        W31530  11.913  11.343  10.270
58463W        W31531  30.432  19.177  14.443
58464W        W31532  25.485  40.546  11.444
58465W        W31533  13.342  39.038   2.726
58466W        W31534   8.371  26.408   4.147
58467W        W31535  12.369  20.620  13.950
58468W        W31536  28.317  32.713   2.737
58469W        W31537  22.952  35.549   3.807
58470W        W31538  31.610  36.796   1.725
58471W        W31539  19.019  23.126  10.749
58472W        W31540   8.331   9.956   2.331
58473W        W31541   7.801  16.755  10.817
58474W        W31542  12.792   0.745   2.002
58475W        W31543  36.526  11.776   4.228
58476W        W31544  15.604  21.266   2.383
58477W        W31545   8.442   8.308   4.916
58478W        W31546  13.164  18.455   0.760
58479W        W31547  25.928   1.782   3.389
58480W        W31548  26.496  20.784   0.541
58481W        W31549   7.903   7.715  12.077
58482W        W31550  33.549  37.986   1.565
58483W        W31551  28.588  10.673   0.754
58484W        W31552  38.631  23.785   3.547
58485W        W31553  20.488  12.768   2.317
58486W        W31554  34.570  23.913   4.586
58487W        W31555  19.139  20.177   3.636
58488W        W31556   7.067  11.226   4.015
58489W        W31557  39.075  15.810  14.730
58490W        W31558  35.915  31.079  13.460
58491W        W31559  28.552  44.375   4.811
58492W        W31560  29.127  17.542  13.391
58493W        W31561  35.132  41.903  12.511
58494W        W31562  23.143  37.455  10.990
58495W        W31563   3.011   5.252   1.279
58496W        W31564  15.473  41.435  10.296
58497W        W31565  27.238   1.603   3.000
58498W        W31566  13.674   6.815  13.028
58499W        W31567  32.403  32.415  13.140
58500W        W31568  42.556   6.448   3.208
58501W        W31569  24.563  15.624  10.698
58502W        W31570  12.102  39.990   0.240
58503W        W31571  20.017  29.253   1.194
58504W        W31572  16.549  28.123  13.251
58505W        W31573  36.347  40.409  11.000
58506W        W31574  16.675  38.782   2.433
58507W        W31575   0.097  15.268  10.543
58508W        W31576  11.507  35.621   1.693
58509W        W31577  27.594  17.532   1.376
58510W        W31578  21.865  16.120  12.400
58511W        W31579  31.476  39.992   2.698
58512W        W31580   2.162   8.713  11.458
58513W        W31581  19.019  13.344   4.259
58514W        W31582  17.131  25.935  12.258
58515W        W31583   5.970  19.509  14.050
58516W        W31584   0.948  20.625  10.813
58517W        W31585  21.544   4.373  11.924
58518W        W31586   3.375  31.982   0.520
58519W        W31587  32.975  39.434   4.753
58520W        W31588  32.637  40.855  14.013
58521W        W31589  39.018  35.983   0.336
58522W        W31590  29.098  18.065   4.370
58523W        W31591  32.480   5.947  11.614
58524W        W31592  13.181   9.322  13.808
58525W        W31593   2.394  42.267   4.899
58526W        W31594  22.798  42.455  14.505
58527W        W31595  43.708  27.506  12.654
58528W        W31596   3.245  11.655   2.879
58529W        W31597   4.917  36.557   1.644
58530W        W31598  43.875  26.204  14.537
58531W        W31599  35.033  32.400   1.155
58532W        W31600  22.042  16.328  12.837
58533W        W31601  19.316  25.654   1.678
58534W        W31602  29.604   3.289  13.429
58535W        W31603  10.273  27.935   0.982
58536W        W31604   8.199  28.201   4.170
58537W        W31605  17.987  20.658  12.100
58538W        W31606  10.844   2.596  12.710
58539W        W31607   8.498   4.287   2.422
58540W        W31608  40.537  18.514  11.459
58541W        W31609  17.369   1.396   0.422
58542W        W31610  34.976  32.676   4.560
58543W        W31611  11.087  18.290  14.965
58544W        W31612   8.475  38.998   1.754
58545W        W31613  17.992  40.770  11.816
58546W        W31614  30.592  33.515   2.386
58547W        W31615  31.199  35.857   1.441
58548W        W31616   1.656  36.765   1.407
58549W        W31617  36.553  24.607  12.533
58550W        W31618  37.929   6.943   3.687
58551W        W31619  30.375  16.853   4.328
58552W        W31620   8.138  23.058   0.327
58553W        W31621  32.414  24.622   0.287
58554W        W31622  28.714  20.640  11.914
58555W        W31623  20.561  25.042   2.695
58556W        W31624  40.949   7.207  10.230
58557W        W31625  27.607  24.667   2.741
58558W        W31626  30.369  17.104  11.621
58559W        W31627  39.018  44.779  12.443
58560W        W31628  25.535  29.895   1.282
58561W        W31629  44.716  43.371   0.765
58562W        W31630  30.943  43.503   1.893
58563W        W31631  42.778   2.352   4.016
58564W        W31632   8.798   4.052  13.725
58565W        W31633  39.945   0.478  13.451
58566W        W31634  25.482  12.434   0.712
58567W        W31635  18.277  33.532  11.713
58568W        W31636  42.659  25.226  14.499
58569W        W31637  10.607  38.113  12.892
58570W        W31638  38.017  38.519   0.451
58571W        W31639  13.079  15.112   1.421
58572W        W31640  32.550  34.460   0.215
58573W        W31641  17.637  14.658  13.027
58574W        W31642  44.467   9.192  14.425
58575W        W31643  25.597  23.203   4.553
58576W        W31644  33.911  29.084  11.044
58577W        W31645  27.562  18.231  14.844
58578W        W31646  31.072  25.169  12.336
58579W        W31647  33.834   4.438  13.483
58580W        W31648  11.142  19.543   3.716
58581W        W31649   0.707  23.057   1.001
58582W        W31650  42.343   3.951   3.749
58583W        W31651  18.255  18.172  11.600
58584W        W31652  11.738  16.939   2.412
58585W        W31653  43.766   8.673  11.387
58586W        W31654  17.084   4.246   2.082
58587W        W31655  13.707   6.704  11.607
58588W        W31656   9.684  38.331  14.991
58589W        W31657  20.501   2.552  13.405
58590W        W31658  20.746   4.850   4.585
58591W        W31659   6.034  42.970   0.666
58592W        W31660  16.774  42.941  12.163
58593W        W31661  40.750  43.418  12.033
58594W        W31662  30.103  44.797   0.275
58595W        W31663  29.970   8.809  12.904
58596W        W31664  34.668  17.183  14.459
58597W        W31665  40.913  28.583   3.929
58598W        W31666   5.315  31.981  12.582
58599W        W31667  33.475  36.423  12.826
58600W        W31668  17.419  28.534   2.847
58601W        W31669  43.979  41.766  14.344
58602W        W31670   1.372  29.435  13.904
58603W        W31671  22.102   7.976  14.932
58604W        W31672  15.384  27.285  12.829
58605W        W31673   1.821  13.890   4.754
58606W        W31674   9.396  21.490   4.588
58607W        W31675  34.795  40.754  11.871
58608W        W31676   7.272  39.976  11.724
58609W        W31677   9.300  31.573  11.198
58610W        W31678   2.773  34.154   3.920
58611W        W31679   0.961   0.319   4.107
58612W        W31680   1.536  28.653   0.894
58613W        W31681  40.312  31.575  12.137
58614W        W31682  39.401  18.852   4.084
58615W        W31683  20.630  39.216   4.636
58616W        W31684  11.914  15.861  12.432
58617W        W31685  41.586  23.774   5.112
58618W        W31686  19.953  16.975  10.733
58619W        W31687   3.981  10.323   4.546
58620W        W31688  40.652  38.832   2.212
58621W        W31689  36.420   6.412  10.669
58622W        W31690  30.347  32.569  11.656
58623W        W31691  28.245  25.269   0.867
58624W        W31692  41.509  27.820  14.003
58625W        W31693  23.935  37.885   1.143
58626W        W31694  14.373  16.279   3.455
58627W        W31695  44.357   5.838  12.261
58628W        W31696  24.707  20.930  11.129
58629W        W31697  13.388  28.958   3.312
58630W        W31698  37.148  43.007  12.004
58631W        W31699  40.016  10.594  12.959
58632W        W31700  38.056  13.168  13.589
58633W        W31701   4.005  14.126  11.574
58634W        W31702   2.385  23.204  14.836
58635W        W31703  21.101   0.449   4.229
58636W        W31704   7.925  16.212   1.160
58637W        W31705  43.339  10.524  13.446
58638W        W31706  32.948  11.472  10.355
58639W        W31707  39.406  20.540   2.646
58640W        W31708  28.954  12.804  11.571
58641W        W31709  42.740  11.136  13.886
58642W        W31710  27.000  27.397  12.033
58643W        W31711  29.011  12.630   2.654
58644W        W31712  38.573  40.298   0.836
58645W        W31713  39.367  42.433   2.005
58646W        W31714  14.520   9.778   1.480
58647W        W31715  15.045  38.953   1.653
58648W        W31716  24.952  27.851   4.100
58649W        W31717   8.275  43.709   4.759
58650W        W31718  39.082   7.915  14.872
58651W        W31719   7.799  35.514  12.451
58652W        W31720  33.480  19.201   0.535
58653W        W31721  32.921  42.311   1.226
58654W        W31722  26.397   1.868  14.945
58655W        W31723  21.512   8.679   1.277
58656W        W31724  41.470  11.991  12.989
58657W        W31725  16.958  37.597  13.893
58658W        W31726  22.729   8.954   0.514
58659W        W31727  31.133  14.743   4.662
58660W        W31728  42.306   4.338   0.840
58661W        W31729  38.355   6.387  14.848
58662W        W31730   8.816  21.931  11.926
58663W        W31731  36.941  16.349  14.296
58664W        W31732  31.281  42.947  11.708
58665W        W31733  10.801  14.082  12.930
58666W        W31734  38.994  36.885  11.538
58667W        W31735  18.298  33.026  11.039
58668W        W31736  13.280  12.808  12.520
58669W        W31737  17.324  38.507   3.702
58670W        W31738  23.451  37.047  11.221
58671W        W31739  44.436  27.341   1.130
58672W        W31740   8.380   3.783   2.389
58673W        W31741  21.213   2.724  10.030
58674W        W31742  29.011  29.999   0.762
58675W        W31743  25.121   0.428   4.706
58676W        W31744  36.764  29.911  14.304
58677W        W31745  34.896   1.243  12.942
58678W        W31746   3.810  42.041  10.851
58679W        W31747   2.149  21.597  13.571
58680W        W31748  30.547  41.290  14.808
58681W        W31749  31.278   8.137   3.031
58682W        W31750  34.621  44.712  11.144
58683W        W31751  35.078  37.367   0.813
58684W        W31752  35.964  39.810   3.662
58685W        W31753  38.271  39.086   3.123
58686W        W31754  41.238  29.836  11.241
58687W        W31755  27.512  21.627  11.333
58688W        W31756  38.100  25.043   0.779
58689W        W31757   5.875  20.097  14.337
58690W        W31758  12.703   7.656   3.409
58691W        W31759  33.080  29.581   3.130
58692W        W31760  42.296  26.748   4.333
58693W        W31761   2.494  16.597   3.563
58694W        W31762  42.003  12.842   3.601
58695W        W31763  21.253  26.969  14.940
58696W        W31764   3.656  13.797   1.988
58697W        W31765  20.491  15.697  14.449
58698W        W31766  22.440   5.262  13.855
58699W        W31767  25.016  12.157   0.733
58700W        W31768  43.424  22.024   2.741
58701W        W31769  21.250   6.641  10.544
58702W        W31770  42.414   7.249  13.086
58703W        W31771  31.223  20.220   2.253
58704W        W31772  38.514  33.817   1.710
58705W        W31773  27.041   6.523  11.637
58706W        W31774   2.006  10.339  10.753
58707W        W31775  21.418  28.632  13.331
58708W        W31776  13.061   7.277  14.931
58709W        W31777  28.619  19.651  11.286
58710W        W31778  26.115  44.789  14.838
58711W        W31779  40.564   9.628   2.973
58712W        W31780   8.683  38.976  12.564
58713W        W31781  15.548   0.399  14.805
58714W        W31782   4.438  16.871   0.412
58715W        W31783  33.552   8.797  14.447
58716W        W31784  41.786   9.578   1.878
58717W        W31785  16.303  22.525   4.606
58718W        W31786  25.421  17.177  13.530
58719W        W31787  17.169  24.205  14.527
58720W        W31788   6.233  19.544   0.315
58721W        W31789   4.334  22.537   1.105
58722W        W31790  15.265  10.330  14.538
58723W        W31791  28.168  19.617  10.435
58724W        W31792  17.642  25.973   1.327
58725W        W31793  21.575  10.009  12.114
58726W        W31794  37.903  22.020   2.367
58727W        W31795   3.733  41.094  13.920
58728W        W31796  43.707   1.916   1.265
58729W        W31797  41.848  26.721   2.417
58730W        W31798  44.837  20.727   3.322
58731W        W31799   5.432   3.968  12.363
58732W        W31800   3.355  20.236  11.395
58733W        W31801  16.801  25.358  12.424
58734W        W31802  40.481  43.850   3.234
58735W        W31803  18.765   5.619   4.080
58736W        W31804  19.173  18.595  13.535
58737W        W31805  10.534   8.263  13.444
58738W        W31806  14.162  39.758   0.529
58739W        W31807  36.481   1.341   0.339
58740W        W31808  10.217  25.601   0.669
58741W        W31809  37.551  16.530   1.881
58742W        W31810  44.821  28.847   1.147
58743W        W31811   9.466  41.424   4.090
58744W        W31812  37.587  20.565   0.269
58745W        W31813  34.841  13.643  13.412
58746W        W31814  20.307  23.099  11.058
58747W        W31815   3.855   6.909  12.644
58748W        W31816  38.422  29.819   1.010
58749W        W31817  23.303  40.527   2.564
58750W        W31818  18.817  41.212   2.144
58751W        W31819  36.963  33.141   1.861
58752W        W31820   1.808  44.301  10.689
58753W        W31821   2.191  32.588  12.762
58754W        W31822  15.674  23.975   1.301
58755W        W31823  40.868  40.879  13.983
58756W        W31824  40.030  40.278  13.484
58757W        W31825  34.114  20.370  11.035
58758W        W31826   6.766   7.683   4.129
58759W        W31827   6.446  12.353   3.797
58760W        W31828  20.557  36.082   3.540
58761W        W31829  44.220  11.704  14.346
58762W        W31830  22.765  33.170   3.786
58763W        W31831  14.096  23.766   3.579
58764W        W31832  25.982  40.554   5.093
58765W        W31833  19.593  23.723   4.255
58766W        W31834  37.653  28.011   2.306
58767W        W31835   0.546  37.355  11.442
58768W        W31836  39.479  14.308   0.407
58769W        W31837  25.672  44.998  13.933
58770W        W31838   5.478  29.257  12.072
58771W        W31839  21.279  33.025  11.336
58772W        W31840  44.000  26.128  12.687
58773W        W31841  31.026   1.399  12.378
58774W        W31842  28.671  14.483   0.341
58775W        W31843  31.200   6.483  14.869
58776W        W31844  43.126   6.766   1.635
58777W        W31845  11.581  15.047  10.324
58778W        W31846   9.336  28.670  14.929
58779W        W31847   2.776  20.648   1.384
58780W        W31848  13.040  44.886   1.407
58781W        W31849  17.782  41.974  11.260
58782W        W31850  26.177  37.357  11.462
58783W        W31851   6.719   6.789  14.457
58784W        W31852  14.474   9.241  13.402
58785W        W31853  24.640  20.330  12.137
58786W        W31854  37.419   2.704  13.817
58787W        W31855  29.965  28.239   3.328
58788W        W31856  28.158  16.743   3.668
58789W        W31857  20.759  14.068  12.204
58790W        W31858  34.960  25.981   4.777
58791W        W31859  37.398   3.725  11.433
58792W        W31860   2.783  20.010  12.284
58793W        W31861   7.894   9.164   5.121
58794W        W31862   2.321  10.353   2.112
58795W        W31863  13.328  14.101   2.293
58796W        W31864  29.222   8.361   0.242
58797W        W31865  25.411   7.677  10.731
58798W        W31866   1.437  34.397  11.671
58799W        W31867  18.910  15.908   1.492
58800W        W31868  13.600  15.164   4.304
58801W        W31869  34.591   5.285   4.523
58802W        W31870  28.988  12.066   2.655
58803W        W31871   4.197  23.594   0.914
58804W        W31872  19.309  29.746  13.403
58805W        W31873  35.365  39.995  13.805
58806W        W31874  39.275   1.411  11.097
58807W        W31875  10.183  24.773   3.232
58808W        W31876  32.544  14.683   2.911
58809W        W31877  23.456   0.171  11.641
58810W        W31878  26.202  34.822   2.865
58811W        W31879  39.590   8.252   1.222
58812W        W31880  32.397  33.099  12.581
58813W        W31881  13.531  25.375   3.711
58814W        W31882  13.791  12.813   2.260
58815W        W31883  34.568  14.974  14.910
58816W        W31884  17.079  34.527   2.237
58817W        W31885   0.257  13.795   2.303
58818W        W31886  41.210  41.270  13.990
58819W        W31887  24.187  32.836   0.865
58820W        W31888   4.578  17.917   1.798
58821W        W31889  20.932  42.546  14.245
58822W        W31890  21.367  14.059   5.279
58823W        W31891   2.976  39.786   4.768
58824W        W31892  31.546  28.057   3.225
58825W        W31893  44.438  14.174  13.367
58826W        W31894  18.255  27.518   2.757
58827W        W31895   1.773  21.327  13.879
58828W        W31896  14.008  11.860  10.633
58829W        W31897  38.422   5.192   3.338
58830W        W31898   0.459  37.226   3.621
58831W        W31899   8.203  27.998  11.355
58832W        W31900   3.828  27.326   3.805
58833W        W31901   7.556  25.183   4.713
58834W        W31902  21.588  34.544  14.005
58835W        W31903  40.935  16.108  10.213
58836W        W31904  44.013  16.292   4.659
58837W        W31905  12.815  16.550   1.476
58838W        W31906  30.172  43.032  10.559
58839W        W31907  36.818  41.225  10.810
58840W        W31908   1.206  43.417   2.022
58841W        W31909   5.706   1.382  13.390
58842W        W31910  26.543  18.486  12.257
58843W        W31911   5.439  12.301  11.793
58844W        W31912  42.413  14.348  10.567
58845W        W31913  17.233  19.646   0.673
58846W        W31914  30.263  28.584  10.532
58847W        W31915  33.585  21.118   4.543
58848W        W31916  34.324   4.368  12.589
58849W        W31917  14.617  35.536  11.401
58850W        W31918  10.604  24.675   2.854
58851W        W31919  21.229  40.442  12.859
58852W        W31920  11.921   1.484  12.332
58853W        W31921  15.643   9.170   2.683
58854W        W31922  28.871  11.629  14.728
58855W        W31923   4.849  38.719  13.156
58856W        W31924   0.407   9.944   5.013
58857W        W31925  29.047  40.290   4.129
58858W        W31926  30.221   1.033   3.278
58859W        W31927   0.366   3.786   3.178
58860W        W31928   1.518  24.688  13.757
58861W        W31929  20.058  11.643   1.966
58862W        W31930  27.033  10.208   4.946
58863W        W31931  14.389  39.016  11.219
58864W        W31932  43.255  43.880   3.414
58865W        W31933  20.144  34.039  14.576
58866W        W31934  26.531   7.877   4.436
58867W        W31935  39.160   1.172  14.370
58868W        W31936  19.170  43.333   4.163
58869W        W31937  21.246  15.635   5.053
58870W        W31938  41.089  17.320  14.432
58871W        W31939   2.197  10.795   1.867
58872W        W31940   2.193   1.521  13.332
58873W        W31941   8.674  40.319   3.694
58874W        W31942  23.481  29.031   0.469
58875W        W31943  27.491   1.510  12.868
58876W        W31944  41.790  31.512  12.530
58877W        W31945  36.880  24.188  11.910
58878W        W31946  42.569  25.143   2.725
58879W        W31947   7.747  33.568   4.475
58880W        W31948  10.702  18.140  11.117
58881W        W31949   4.216  20.506   1.726
58882W        W31950   0.643  34.105   3.988
58883W        W31951  18.714  13.719   0.053
58884W        W31952  15.300  14.287  11.919
58885W        W31953  12.394  40.307  14.047
58886W        W31954  40.966  34.796  13.547
58887W        W31955  15.313   7.065   1.644
58888W        W31956  17.759  42.824   2.311
58889W        W31957  34.833  23.148  10.725
58890W        W31958  21.694  17.324   2.134
58891W        W31959   4.859   3.708  10.654
58892W        W31960  40.900  39.870   0.921
58893W        W31961  29.762  37.106  11.685
58894W        W31962  30.254  14.907  11.150
58895W        W31963  27.220  37.555  14.242
58896W        W31964   8.763   9.401   0.921
58897W        W31965   7.650   7.139  13.481
58898W        W31966  36.101  27.459   3.236
58899W        W31967  10.190  37.473  11.977
58900W        W31968   5.458  12.707  13.451
58901W        W31969  27.583  37.094   1.120
58902W        W31970   2.732   9.323   0.443
58903W        W31971  12.519  13.824  10.490
58904W        W31972  19.017  23.988   4.908
58905W        W31973  40.942  36.826  10.565
58906W        W31974  30.841   5.390  13.751
58907W        W31975  14.523   6.308  11.177
58908W        W31976   0.572  27.274  12.415
58909W        W31977   4.266  12.689   4.386
58910W        W31978  44.795   7.432   1.363
58911W        W31979  29.196  23.258   1.554
58912W        W31980   5.157  20.588   0.747
58913W        W31981   2.342  24.401  13.472
58914W        W31982  31.860  18.343  11.063
58915W        W31983  41.058  13.889   9.797
58916W        W31984  32.722   4.271   3.256
58917W        W31985  36.771   1.304   4.879
58918W        W31986  18.886  26.407   1.690
58919W        W31987  28.058  36.428   1.953
58920W        W31988   1.474  23.601   3.702
58921W        W31989  34.030   0.514   2.681
58922W        W31990  31.325  21.982   2.232
58923W        W31991  40.558  44.474  14.027
58924W        W31992   2.208   9.809   1.923
58925W        W31993  12.102  15.535   1.707
58926W        W31994  10.928  19.138   0.339
58927W        W31995  20.086   1.503   3.796
58928W        W31996  21.876  35.820   0.959
58929W        W31997  42.629   8.369  14.755
58930W        W31998  22.416   2.421  11.469
58931W        W31999  23.133   7.958  13.949
58932W        W32000  11.192   3.754  10.569
58933W        W32001  40.371   5.892   0.995
58934W        W32002  27.475   1.995  13.090
58935W        W32003   9.774  32.105  11.462
58936W        W32004  15.226  23.230   1.055
58937W        W32005   7.312  31.818  12.008
58938W        W32006  29.333  14.048  12.035
58939W        W32007  16.830  26.188   4.016
58940W        W32008  34.333   8.026  11.919
58941W        W32009   9.774   0.262   4.247
58942W        W32010  26.105   2.474  13.380
58943W        W32011   7.938   1.940  11.084
58944W        W32012  33.100  25.602  11.245
58945W        W32013  10.131  31.663  12.590
58946W        W32014   9.293   8.787   1.249
58947W        W32015  44.047  30.902   2.303
58948W        W32016  36.570  19.045  11.048
58949W        W32017  35.052  22.175  12.722
58950W        W32018  15.722  35.405  12.825
58951W        W32019  39.284   4.835   0.386
58952W        W32020   8.965  34.284  12.043
58953W        W32021  20.601  36.538  13.382
58954W        W32022  15.246   2.854   0.633
58955W        W32023   8.914  40.464  11.672
58956W        W32024  25.552  28.154  12.427
58957W        W32025  10.553  14.219  10.389
58958W        W32026   6.223  44.702   2.856
58959W        W32027   5.914   8.322   3.172
58960W        W32028  16.734  39.992   4.176
58961W        W32029  25.741  19.466   4.529
58962W        W32030  14.200   6.004  11.463
58963W        W32031   3.506  33.058   1.801
58964W        W32032  10.526  15.297  12.580
58965W        W32033   7.869  19.633  13.675
58966W        W32034  18.590   8.721  12.831
58967W        W32035  38.337   1.488  13.827
58968W        W32036  21.172  38.828   3.663
58969W        W32037  19.176  12.310   2.174
58970W        W32038  38.885  22.233  13.093
58971W        W32039  23.693  12.758   4.075
58972W        W32040   4.491  24.995   4.711
58973W        W32041   2.325  16.778   4.566
58974W        W32042   0.400  19.089   3.232
58975W        W32043  16.627  37.561  11.300
58976W        W32044   7.680  19.866  12.823
58977W        W32045  10.919  26.053   3.588
58978W        W32046  21.230  34.532  14.532
58979W        W32047  40.936   8.649  13.549
58980W        W32048  44.458  23.439  13.526
58981W        W32049  29.219  36.571   2.239
58982W        W32050  33.917  15.998   0.786
58983W        W32051   3.425  36.929  13.048
58984W        W32052  12.167   7.658   1.388
58985W        W32053  38.661   2.812  11.683
58986W        W32054  38.111  32.062   2.802
58987W        W32055  14.886  41.269   1.299
58988W        W32056   4.237  38.761   3.259
58989W        W32057   3.773  43.283  12.963
58990W        W32058  22.788  20.762  13.084
58991W        W32059  23.391  36.411  10.681
58992W        W32060   9.271   0.241   4.972
58993W        W32061   3.458  39.297  13.496
58994W        W32062  18.006  28.590  13.959
58995W        W32063  25.795  28.261   3.382
58996W        W32064  43.344  22.239   1.429
58997W        W32065  39.831   8.322   5.732
58998W        W32066  29.856  44.019   1.749
58999W        W32067  31.212  15.419   4.170
59000W        W32068  40.038  12.863   2.865
59001W        W32069  37.666  18.320  12.581
59002W        W32070  23.523   2.795   1.764
59003W        W32071  40.581  30.059   0.207
59004W        W32072  44.933  27.851   4.576
59005W        W32073  28.747  24.301   2.331
59006W        W32074  31.419  26.561   2.237
59007W        W32075  42.475  40.520  14.810
59008W        W32076  12.040   9.821  12.564
59009W        W32077  18.663  32.035   2.000
59010W        W32078  21.166  12.650  12.119
59011W        W32079  40.564   0.493  14.300
59012W        W32080   1.249  20.000   0.783
59013W        W32081  38.468  20.733   2.834
59014W        W32082   2.552  44.249  10.244
59015W        W32083  13.281  26.470  11.192
59016W        W32084  34.130  25.240   0.443
59017W        W32085  27.686  42.172  10.701
59018W        W32086  21.798  32.985  11.460
59019W        W32087  16.050   0.973   0.415
59020W        W32088  35.795  38.638   0.264
59021W        W32089  33.432  23.240   4.153
59022W        W32090   0.539  42.982   3.501
59023W        W32091  34.050  32.857  14.556
59024W        W32092   5.857  19.992  13.306
59025W        W32093   4.067  38.140  14.460
59026W        W32094   9.816  43.527  11.510
59027W        W32095  36.957  14.742   0.482
59028W        W32096  10.959  15.582  12.467
59029W        W32097  30.599  21.790   1.849
59030W        W32098  41.627  39.340   4.524
59031W        W32099  29.168  29.321  12.916
59032W        W32100  15.654  23.094  12.428
59033W        W32101  18.292  35.083   2.357
59034W        W32102   4.612  20.412  14.981
59035W        W32103  42.318   4.504   0.010
59036W        W32104   5.703   8.191   4.823
59037W        W32105  13.600  33.882  12.625
59038W        W32106  25.909  16.251   3.251
59039W        W32107  26.387  12.384   3.399
59040W        W32108   9.405  37.317  14.468
59041W        W32109   5.216  14.232  12.371
59042W        W32110  44.299   6.042   1.017
59043W        W32111  22.260   9.176   0.393
59044W        W32112  14.612  37.758  11.512
59045W        W32113  44.978   1.294   1.095
59046W        W32114  36.137  17.843  11.600
59047W        W32115   2.735  37.782  14.834
59048W        W32116  33.107   6.203  14.249
59049W        W32117   8.257   3.519   3.054
59050W        W32118   6.765  16.009   2.254
59051W        W32119  35.094  20.553   1.501
59052W        W32120  25.914  44.783   0.861
59053W        W32121   6.669  14.329  12.768
59054W        W32122  32.207  35.149   4.075
59055W        W32123  42.554   5.222   1.229
59056W        W32124  30.049   5.814   4.840
59057W        W32125   6.939   2.951   2.230
59058W        W32126  16.522  44.923  12.494
59059W        W32127  40.215  24.095  11.084
59060W        W32128  25.205  12.912   0.281
59061W        W32129  19.089  38.269  12.067
59062W        W32130  44.991  15.113   4.913
59063W        W32131  39.784  36.959  11.911
59064W        W32132  40.590  40.859   1.105
59065W        W32133  10.078  29.515   0.325
59066W        W32134  33.595  26.658   3.193
59067W        W32135  17.250  16.554   4.189
59068W        W32136  34.302  17.583   1.643
59069W        W32137   0.993  22.409  12.910
59070W        W32138  44.468  26.106  12.426
59071W        W32139  18.025  40.301  13.481
59072W        W32140  18.668  35.095  11.031
59073W        W32141  22.040   2.516   2.363
59074W        W32142  31.991   2.916  13.347
59075W        W32143  40.030  36.851  10.519
59076W        W32144  26.762  28.738  11.650
59077W        W32145  13.222  22.463  12.590
59078W        W32146  41.965  29.437   5.412
59079W        W32147  28.245  40.375  11.485
59080W        W32148  37.829  17.285   3.043
59081W        W32149   5.658   4.825  14.515
59082W        W32150   2.426   3.745   2.607
59083W        W32151   5.371  15.523   3.282
59084W        W32152  32.110   2.513   2.632
59085W        W32153  28.378  14.878   0.885
59086W        W32154  33.403  14.625  13.560
59087W        W32155   3.454  42.458   1.847
59088W        W32156  35.446  19.396   4.973
59089W        W32157  18.215  34.152   0.830
59090W        W32158   9.614  33.935   4.230
59091W        W32159  15.854  10.190   1.365
59092W        W32160   8.482  13.248  13.796
59093W        W32161   4.779  15.659  11.226
59094W        W32162  23.423  38.458  11.807
59095W        W32163  10.520  33.629   1.725
59096W        W32164  19.188  13.592  14.759
59097W        W32165  32.814  23.499   4.272
59098W        W32166   7.060  25.483  12.067
59099W        W32167  38.481  34.436  12.862
59100W        W32168   4.553   1.442   4.267
59101W        W32169  31.602   0.031  11.902
59102W        W32170   1.371  31.835   0.895
59103W        W32171  44.506  21.608   2.266
59104W        W32172  43.662  43.376  12.020
59105W        W32173  14.929  28.525  10.110
59106W        W32174  32.013  12.084   3.652
59107W        W32175  13.138  42.592   5.110
59108W        W32176  44.796   0.314   4.758
59109W        W32177  15.745  16.557   2.668
59110W        W32178  16.982  39.727  14.269
59111W        W32179   1.163  38.995   2.604
59112W        W32180  34.597   5.312   1.351
59113W        W32181  36.028  27.466   1.377
59114W        W32182  23.255  12.503   3.920
59115W        W32183  18.777  16.094  10.420
59116W        W32184   2.270  30.264  14.361
59117W        W32185  39.835  16.911   0.963
59118W        W32186  13.845   5.462   2.751
59119W        W32187  16.528  22.350   4.137
59120W        W32188  14.034  38.497  12.465
59121W        W32189   8.794  24.075   2.222
59122W        W32190  39.770  14.718   5.333
59123W        W32191   6.275   4.859  13.161
59124W        W32192  16.344  32.425  12.947
59125W        W32193  38.997  34.706   2.621
59126W        W32194  19.805  37.437   4.545
59127W        W32195   4.978  20.771  12.907
59128W        W32196  17.245  42.027  11.257
59129W        W32197  29.043  40.792   4.099
59130W        W32198  19.206  16.942  13.964
59131W        W32199   8.749  40.062   0.704
59132W        W32200  30.941   7.961   1.585
59133W        W32201  30.175   2.872   1.347
59134W        W32202  38.327  34.911  13.677
59135W        W32203  11.742   3.905   4.720
59136W        W32204  40.054  17.751   2.383
59137W        W32205  15.046  26.927   0.538
59138W        W32206  22.393  16.042   0.606
59139W        W32207  21.549   7.740   1.897
59140W        W32208  20.962  21.543   3.530
59141W        W32209  18.497  15.055   3.736
59142W        W32210  24.481   4.538  12.496
59143W        W32211  18.825  38.929   0.683
59144W        W32212   5.239  13.735  14.889
59145W        W32213   1.769  19.627   2.174
59146W        W32214  15.850  12.647   3.805
59147W        W32215  39.962  29.694   0.367
59148W        W32216  35.993  18.760  10.797
59149W        W32217  18.146  21.552  12.189
59150W        W32218  10.324   4.915  11.963
59151W        W32219  13.277  38.430   1.922
59152W        W32220   5.700   0.579   0.260
59153W        W32221  39.625  43.267   3.348
59154W        W32222  44.285   1.704  13.235
59155W        W32223  42.706  25.494   0.793
59156W        W32224   8.949  32.879  14.801
59157W        W32225  28.020  10.690   2.773
59158W        W32226   4.444   9.532  12.992
59159W        W32227  38.078  20.017   3.238
59160W        W32228  26.058   7.761   0.428
59161W        W32229  41.501  18.023   3.316
59162W        W32230   0.338  36.368  11.745
59163W        W32231  27.412  12.463  12.832
59164W        W32232  15.746  31.470  12.946
59165W        W32233  39.408  17.266  12.137
59166W        W32234   7.373  44.962   4.209
59167W        W32235  33.224  10.104   3.152
59168W        W32236  34.344  14.782   0.358
59169W        W32237  14.604  11.875  14.405
59170W        W32238  36.409   0.039   1.639
59171W        W32239   8.349  41.859   2.301
59172W        W32240  25.660  23.225   1.165
59173W        W32241   7.083  12.141   3.179
59174W        W32242  21.983  29.623  14.903
59175W        W32243  11.826  13.237  13.357
59176W        W32244   3.371  19.674   0.928
59177W        W32245   5.643  17.607  13.518
59178W        W32246  27.574   4.325  14.557
59179W        W32247  20.536  34.932  10.240
59180W        W32248  11.314  38.422   4.869
59181W        W32249   2.460  27.054   2.289
59182W        W32250  22.633  34.582   1.789
59183W        W32251  22.425  10.277  10.291
59184W        W32252   2.646  43.344  14.894
59185W        W32253  15.747  44.595  10.102
59186W        W32254   1.910  25.475   0.400
59187W        W32255   2.295  19.177   2.439
59188W        W32256  34.649  18.586   3.637
59189W        W32257  21.730  18.219   3.196
59190W        W32258  43.248  21.371   4.395
59191W        W32259  42.971   6.317   4.631
59192W        W32260  23.224  24.082   1.979
59193W        W32261  13.578  39.618  14.826
59194W        W32262  28.719  20.945  12.514
59195W        W32263  19.178   3.457  14.762
59196W        W32264  41.758   1.969   0.395
59197W        W32265   2.305  41.992  12.026
59198W        W32266   7.706   9.725  13.545
59199W        W32267  21.134  16.526   3.204
59200W        W32268  44.236   3.773   2.311
59201W        W32269  13.087  23.733   3.273
59202W        W32270  42.263  19.018  12.857
59203W        W32271  44.849  28.079   2.762
59204W        W32272  17.277  13.843  12.631
59205W        W32273  30.388   8.656   1.495
59206W        W32274  16.031  23.515   1.751
59207W        W32275  25.776   7.404  11.041
59208W        W32276  18.748  37.886   0.690
59209W        W32277   8.071  44.537   2.854
59210W        W32278   8.733  20.855  10.739
59211W        W32279  20.365  21.701  11.387
59212W        W32280  30.103   9.255  14.359
59213W        W32281   7.110  21.650  12.436
59214W        W32282   5.635  15.696  14.613
59215W        W32283  43.443  13.648  10.522
59216W        W32284  12.650  43.941   4.662
59217W        W32285  24.953  37.020  12.977
59218W        W32286  43.977  38.439  14.017
59219W        W32287   9.109  31.204   3.210
59220W        W32288  34.574   8.885  14.027
59221W        W32289  43.685   9.407   4.540
59222W        W32290   5.289  20.668  11.961
59223W        W32291  10.395  28.628  12.117
59224W        W32292   9.470  12.453  14.084
59225W        W32293  32.646  30.638  11.514
59226W        W32294  24.882  36.008  11.577
59227W        W32295  38.880  24.241  12.960
59228W        W32296  25.880  26.473   2.198
59229W        W32297  41.921  23.853   4.161
59230W        W32298  26.202   5.904  14.837
59231W        W32299   9.724  22.534   2.174
59232W        W32300   9.679   7.612  13.228
59233W        W32301  17.225   9.133   4.100
59234W        W32302  34.759  41.930  14.841
59235W        W32303  33.001   0.982  12.558
59236W        W32304  10.365  20.008   0.397
59237W        W32305  22.024  26.122  14.552
59238W        W32306  37.319  28.119  14.989
59239W        W32307   4.623  33.263   5.062
59240W        W32308  41.353   5.810  10.986
59241W        W32309  44.242  35.087   4.259
59242W        W32310  36.452  33.648   4.609
59243W        W32311   7.335  18.283   4.186
59244W        W32312  20.785  43.558  11.607
59245W        W32313  40.880  29.897   2.465
59246W        W32314   3.623   9.014  10.289
59247W        W32315  29.842  29.418   4.579
59248W        W32316  26.014  34.351   3.120
59249W        W32317   9.676  40.940   1.813
59250W        W32318  28.905  12.153  14.749
59251W        W32319  13.830  13.935   3.752
59252W        W32320  31.570   2.716   0.013
59253W        W32321  17.319   8.239   4.463
59254W        W32322  35.042  19.667  11.808
59255W        W32323  29.961  29.158   3.758
59256W        W32324  35.018  27.944   4.724
59257W        W32325   0.220  25.413   2.703
59258W        W32326  28.017  38.100   4.510
59259W        W32327  36.910  32.620   1.774
59260W        W32328   5.191  25.592  13.530
59261W        W32329   3.839  17.994  10.179
59262W        W32330   0.570  41.880  12.895
59263W        W32331  20.177  20.874  12.990
59264W        W32332   6.900   2.249  13.999
59265W        W32333   6.901  23.727  13.765
59266W        W32334  16.206  38.397   1.694
59267W        W32335  22.015   9.414   3.989
59268W        W32336  35.393   5.237  12.801
59269W        W32337  30.115   8.920  13.955
59270W        W32338   9.752  40.510  14.333
59271W        W32339  44.431  14.313   4.978
59272W        W32340  38.844  37.998   4.827
59273W        W32341  14.284  24.748   1.915
59274W        W32342  12.108  29.880  13.555
59275W        W32343  17.056  24.977   0.839
59276W        W32344  28.197  12.034  13.473
59277W        W32345  38.837  41.781  14.011
59278W        W32346   0.785  17.120   5.079
59279W        W32347   2.621  42.993  12.640
59280W        W32348  21.544  28.994  13.963
59281W        W32349  19.785  33.770   2.453
59282W        W32350  39.386   3.522  14.827
59283W        W32351  12.299  25.707  14.932
59284W        W32352  20.235  16.297  13.058
59285W        W32353  24.009  25.114  10.648
59286W        W32354  35.369  43.039  12.709
59287W        W32355  29.254  41.972  13.121
59288W        W32356  39.923   0.459   0.968
59289W        W32357  18.706  29.128   3.600
59290W        W32358  11.885  21.944  11.080
59291W        W32359  31.633  42.072   2.354
59292W        W32360  35.583  42.682  12.044
59293W        W32361  35.499   6.692   4.767
59294W        W32362  12.027  31.585  13.829
59295W        W32363   6.388  38.487   1.201
59296W        W32364  23.466   0.244  14.363
59297W        W32365  35.807  31.895  13.973
59298W        W32366   2.177   3.023   1.353
59299W        W32367  17.063  42.859   1.921
59300W        W32368  12.173  26.054   4.297
59301W        W32369   1.713   4.749   0.381
59302W        W32370  43.507  13.354   4.642
59303W        W32371  27.566  12.763   4.563
59304W        W32372  10.369  20.082  11.877
59305W        W32373  27.420  11.726  12.421
59306W        W32374   3.347  36.241  13.359
59307W        W32375  26.566  22.213   1.797
59308W        W32376  32.215  42.714  13.980
59309W        W32377   0.720  23.172   4.617
59310W        W32378  15.767  11.704  11.597
59311W        W32379  16.604   0.607   0.950
59312W        W32380  14.102   1.766   1.910
59313W        W32381  10.152  15.233   2.162
59314W        W32382  21.320  44.201  12.385
59315W        W32383  43.865  44.888   2.818
59316W        W32384  44.555  25.775  14.992
59317W        W32385   3.481  22.952   3.579
59318W        W32386  28.567  23.111  11.226
59319W        W32387  22.975  37.614   5.012
59320W        W32388  13.700  36.097   0.319
59321W        W32389   1.817  44.043  11.163
59322W        W32390  24.475  42.366   2.383
59323W        W32391   4.523   7.634  12.877
59324W        W32392   4.648   2.050   2.719
59325W        W32393  41.923  11.214   2.684
59326W        W32394  33.823  44.867   0.012
59327W        W32395   5.798  43.014  13.968
59328W        W32396  34.923   5.933   4.124
59329W        W32397   1.052  19.096  10.841
59330W        W32398  39.026  28.056   2.225
59331W        W32399  20.782  10.652   0.738
59332W        W32400  22.295   2.235  14.855
59333W        W32401  31.156  12.187   4.370
59334W        W32402  17.834  36.367  12.142
59335W        W32403   7.810  18.141  13.470
59336W        W32404  34.868  16.293   1.216
59337W        W32405  13.596  26.036   1.323
59338W        W32406   5.793  25.196   2.575
59339W        W32407  30.794  33.677  14.706
59340W        W32408   6.626  39.382  12.685
59341W        W32409  22.171  28.404  11.075
59342W        W32410  36.222  36.857   1.967
59343W        W32411  43.538  44.305   3.887
59344W        W32412  30.545   6.351   1.240
59345W        W32413  16.384  29.612   4.530
59346W        W32414  38.739  30.521  11.484
59347W        W32415  16.523  25.733   1.925
59348W        W32416  14.183  26.196   1.222
59349W        W32417  11.001  44.905   3.661
59350W        W32418  20.316   7.832   2.048
59351W        W32419  34.065   9.685  14.592
59352W        W32420  23.608  38.592  10.882
59353W        W32421  13.275  31.654   5.040
59354W        W32422   8.909  31.913  13.321
59355W        W32423  14.410  20.007   1.692
59356W        W32424  33.080  28.597   1.246
59357W        W32425  44.583  27.228  11.758
59358W        W32426  42.917  30.915   4.571
59359W        W32427  26.434  27.822  11.199
59360W        W32428   6.669  36.931   1.489
59361W        W32429   3.072  13.279  10.677
59362W        W32430  38.015  24.722   3.686
59363W        W32431   1.442  34.555   3.463
59364W        W32432  18.606  16.073  14.253
59365W        W32433  30.471  40.069   3.521
59366W        W32434   5.886  38.823  10.180
59367W        W32435   5.426  37.127   2.326
59368W        W32436  28.522   7.407   4.110
59369W        W32437  32.895  22.657  13.128
59370W        W32438  40.467  29.164  12.653
59371W        W32439  40.362   9.091  10.950
59372W        W32440   9.304  19.235  13.899
59373W        W32441  31.038   6.405  10.238
59374W        W32442  33.046  12.339   2.582
59375W        W32443  40.273  12.043   1.922
59376W        W32444  29.024  28.650   2.391
59377W        W32445  37.619  40.367  11.879
59378W        W32446   3.023  28.711   2.889
59379W        W32447  34.578  14.918  11.840
59380W        W32448  19.101  16.758   1.217
59381W        W32449   6.319  20.171  13.548
59382W        W32450  32.308  11.331  11.138
59383W        W32451  39.813  24.165  12.901
59384W        W32452  39.640  12.510  14.278
59385W        W32453  10.158   2.471  12.033
59386W        W32454  28.626   2.675   2.660
59387W        W32455  13.380   5.564   0.701
59388W        W32456  37.904  21.174  10.742
59389W        W32457  44.274  37.374  13.543
59390W        W32458  38.324  44.239   3.548
59391W        W32459  43.987  11.594  10.677
59392W        W32460   5.539  33.919  14.234
59393W        W32461  26.730  20.484  14.399
59394W        W32462  37.022   1.111  10.683
59395W        W32463   4.867  18.133   0.302
59396W        W32464  23.689  29.956  12.924
59397W        W32465  43.078  15.202  10.634
59398W        W32466  43.533  38.295   3.117
59399W        W32467  13.079  41.589  14.973
59400W        W32468   6.443  36.225  14.431
59401W        W32469  22.034  23.203  14.033
59402W        W32470  44.024  12.213  14.414
59403W        W32471  31.429  40.223   4.155
59404W        W32472  24.974   9.178  10.691
59405W        W32473  14.778  15.307  13.826
59406W        W32474  10.524  22.080   1.877
59407W        W32475  29.594  17.305  13.388
59408W        W32476   8.782  37.228  11.354
59409W        W32477  41.801  11.555   3.211
59410W        W32478  22.144  25.520   1.418
59411W        W32479  15.379  31.626  13.939
59412W        W32480   9.685  35.394   3.248
59413W        W32481  28.064  16.087  13.852
59414W        W32482  30.918  29.495   4.472
59415W        W32483  16.992  35.451   2.302
59416W        W32484   9.649  15.176   1.989
59417W        W32485   4.092  14.766  13.328
59418W        W32486  13.904  15.444  13.406
59419W        W32487  21.786   1.017   1.707
59420W        W32488  39.125  31.121   1.263
59421W        W32489  32.994  34.088   3.462
59422W        W32490  13.815  10.271   3.637
59423W        W32491  25.913  13.739   3.189
59424W        W32492  28.077  31.713   0.911
59425W        W32493  40.921   7.823  13.305
59426W        W32494   7.471   2.948   0.835
59427W        W32495  39.561   1.438   2.690
59428W        W32496   3.886  43.499   4.485
59429W        W32497  26.262   1.263   3.731
59430W        W32498  37.752  43.190   3.612
59431W        W32499  18.229  24.202   0.279
59432W        W32500  25.849  18.765   1.148
59433W        W32501  28.684  14.781   3.410
59434W        W32502  18.493  36.999   4.073
59435W        W32503  37.605  34.582  13.399
59436W        W32504  15.941  21.731  11.231
59437W        W32505  18.252  12.404   2.424
59438W        W32506   2.264   8.811  13.967
59439W        W32507  22.547  20.705  14.719
59440W        W32508  42.579  44.865  11.903
59441W        W32509  32.151  40.447   3.630
59442W        W32510  37.150  40.964   4.586
59443W        W32511  21.557  44.300  11.927
59444W        W32512  34.051   5.324  11.910
59445W        W32513  10.769  21.447  12.134
59446W        W32514  37.417   9.078   0.027
59447W        W32515  39.620  42.738   4.502
59448W        W32516  13.051   9.197   0.571
59449W        W32517  16.496  43.543   0.742
59450W        W32518  40.106  12.041  12.986
59451W        W32519  34.729  10.120  12.589
59452W        W32520  23.082  13.508   1.066
59453W        W32521  39.010  11.942  12.114
59454W        W32522   4.688  27.660   0.850
59455W        W32523   3.443  44.833   4.387
59456W        W32524  39.295  40.913   4.639
59457W        W32525  27.921  19.584   4.632
59458W        W32526  18.043  10.837   3.541
59459W        W32527  20.954   2.294  14.340
59460W        W32528  13.800  23.326   3.594
59461W        W32529   5.897  41.522   1.194
59462W        W32530  10.745  12.264  11.364
59463W        W32531  40.458  38.367   2.375
59464W        W32532   9.862  10.780   3.244
59465W        W32533  28.531  24.881  12.565
59466W        W32534  39.450   2.771  13.153
59467W        W32535  10.429  29.039  11.445
59468W        W32536  21.217  19.475   2.558
59469W        W32537  24.702  18.810   5.022
59470W        W32538  43.421  23.692   3.420
59471W        W32539  31.024  23.723  12.140
59472W        W32540  15.258  13.271   1.852
59473W        W32541   6.221  28.893  12.487
59474W        W32542   3.913  42.108  12.675
59475W        W32543  27.632  11.402  14.555
59476W        W32544  42.980  43.937   1.708
59477W        W32545  43.120   9.406   0.256
59478W        W32546  23.450  36.193   2.736
59479W        W32547  34.606   9.046   4.477
59480W        W32548  38.413   5.765  11.545
59481W        W32549  44.004  23.045   3.113
59482W        W32550   5.697  32.998  11.121
59483W        W32551  10.986  42.916   2.613
59484W        W32552  20.810  31.305  11.726
59485W        W32553  10.408   7.759  11.561
59486W        W32554   2.922  37.954   4.699
59487W        W32555  34.929  15.681   0.340
59488W        W32556  37.568  16.721  11.587
59489W        W32557  25.083   1.729   4.019
59490W        W32558  22.099  42.354   0.697
59491W        W32559  33.736  33.469   3.116
59492W        W32560  31.470  13.111   4.110
59493W        W32561  44.950   0.925   1.440
59494W        W32562  12.737  18.624   2.624
59495W        W32563  43.925  12.575   4.714
59496W        W32564  39.289  14.832   1.035
59497W        W32565  23.059   5.072   0.879
59498W        W32566  22.452  18.729   5.077
59499W        W32567   1.644  35.863  11.002
59500W        W32568   7.977  29.539   4.747
59501W        W32569  36.461  21.459   4.788
59502W        W32570   8.511  13.540   2.354
59503W        W32571  41.950  17.232   3.231
59504W        W32572   4.245  44.778   4.965
59505W        W32573  17.668  22.527  13.559
59506W        W32574   5.824  38.590  14.283
59507W        W32575  43.826  42.411  12.031
59508W        W32576   3.288   1.211  14.035
59509W        W32577   1.695  22.960   0.363
59510W        W32578  26.551  11.886  12.861
59511W        W32579   3.975  21.432  12.504
59512W        W32580  23.911  10.602  13.418
59513W        W32581  21.480  24.598  11.062
59514W        W32582  42.694  25.189   0.390
59515W        W32583  34.289   1.255   0.795
59516W        W32584   2.367  36.002   0.276
59517W        W32585  11.114  39.986   3.341
59518W        W32586  34.360  36.664  11.115
59519W        W32587  14.752  11.879   4.539
59520W        W32588  20.281  20.149  12.459
59521W        W32589  12.175  16.222  10.997
59522W        W32590   6.884   5.676   0.417
59523W        W32591   0.649  38.605  12.841
59524W        W32592  15.707  35.239   5.148
59525W        W32593  38.091  14.823  13.858
59526W        W32594  33.601   3.356   1.642
59527W        W32595  10.649  15.187   0.357
59528W        W32596   0.251  42.872   4.694
59529W        W32597  36.543   2.195  11.569
59530W        W32598  27.487  32.751   1.815
59531W        W32599  25.980  34.383   0.794
59532W        W32600   2.726   2.864  12.164
59533W        W32601  30.175  40.755  14.922
59534W        W32602  26.179  30.677   3.775
59535W        W32603  39.605  30.132  10.798
59536W        W32604  19.354   5.470  14.522
59537W        W32605  12.673  42.563   2.533
59538W        W32606  19.836  25.264   4.884
59539W        W32607  20.057  43.628   3.874
59540W        W32608  24.378  16.698  14.386
59541W        W32609  27.378  38.029  14.110
59542W        W32610  27.963  15.546   0.024
59543W        W32611  27.507  27.259  12.606
59544W        W32612  38.903  15.853  10.190
59545W        W32613   0.012  17.238  13.699
59546W        W32614  39.129  27.435  14.886
59547W        W32615  30.846  40.507  12.056
59548W        W32616   1.161  23.947  13.111
59549W        W32617  15.000  13.327   1.399
59550W        W32618  26.902  18.051  13.284
59551W        W32619   9.711  40.134   2.316
59552W        W32620  10.754  42.348   1.216
59553W        W32621  16.816  26.902   0.769
59554W        W32622  27.522  30.706  12.941
59555W        W32623  13.672   6.542   1.771
59556W        W32624  33.453  19.024  12.204
59557W        W32625  27.049  32.536   0.253
59558W        W32626  23.112  12.355  11.704
59559W        W32627  29.005   6.750   0.825
59560W        W32628  14.260   1.929   4.676
59561W        W32629  19.973  19.462  14.760
59562W        W32630   5.344  18.574  12.816
59563W        W32631  10.655  30.109   0.254
59564W        W32632  39.361  18.566   5.059
59565W        W32633   6.958   9.783   4.122
59566W        W32634  13.708  41.914   3.637
59567W        W32635  43.086   8.546  12.120
59568W        W32636  17.449  14.777  13.480
59569W        W32637  14.883  18.073   1.802
59570W        W32638  31.706  32.720  11.026
59571W        W32639  22.564  37.754  14.393
59572W        W32640  24.558  16.325   0.717
59573W        W32641  20.774  16.172  11.043
59574W        W32642  20.073   6.646   4.525
59575W        W32643  34.627  44.418  11.585
59576W        W32644  18.963  15.646  13.708
59577W        W32645  21.424   8.236   0.684
59578W        W32646  38.846  10.930   3.504
59579W        W32647  22.985  12.884  12.500
59580W        W32648  22.170  44.697  12.891
59581W        W32649  27.968   8.768  11.907
59582W        W32650   7.366  29.680   4.176
59583W        W32651  26.098  24.301  10.840
59584W        W32652  20.649  37.186  14.408
59585W        W32653  17.037  29.483   2.754
59586W        W32654  31.088  38.689  11.980
59587W        W32655  21.401  42.762  14.427
59588W        W32656  27.540  10.211   2.238
59589W        W32657  14.800  37.318  11.244
59590W        W32658  32.939  41.870  10.611
59591W        W32659  22.803  16.219   1.213
59592W        W32660  29.930  27.241  10.736
59593W        W32661   4.157  19.109  14.955
59594W        W32662  29.190  33.553  14.582
59595W        W32663  20.472   4.670  12.477
59596W        W32664  20.024  35.148  12.546
59597W        W32665  24.021  16.194  11.248
59598W        W32666  17.091  43.782   4.772
59599W        W32667  44.904  30.170  10.830
59600W        W32668  12.839   1.439  13.384
59601W        W32669  30.506  41.588   3.109
59602W        W32670  31.021  41.326   1.450
59603W        W32671  15.564  32.909   0.317
59604W        W32672  17.174   7.084   4.211
59605W        W32673  15.833  29.570   3.149
59606W        W32674   1.663  12.232  11.515
59607W        W32675  34.844  22.561   4.996
59608W        W32676   0.222  10.903  10.647
59609W        W32677  21.992  11.790   1.263
59610W        W32678   9.201  38.582  12.486
59611W        W32679  36.519  23.764   1.228
59612W        W32680  20.011  34.080  12.045
59613W        W32681  26.273  20.842   2.013
59614W        W32682  10.896  28.308  14.834
59615W        W32683  35.663  44.877  11.661
59616W        W32684  44.522   5.254   2.369
59617W        W32685   9.228  27.282   1.863
59618W        W32686  25.165  17.190   2.726
59619W        W32687  16.712  43.499  13.020
59620W        W32688   1.835   3.063  12.804
59621W        W32689  42.996  23.531  13.324
59622W        W32690   5.719   9.672  13.981
59623W        W32691  12.227  21.151   0.806
59624W        W32692  34.310  34.171   3.254
59625W        W32693  29.973  12.126   4.196
59626W        W32694  23.584  42.878   0.103
59627W        W32695   6.707   4.114  14.130
59628W        W32696  37.573  27.162  10.814
59629W        W32697   6.306  26.479  11.556
59630W        W32698  35.634   8.748   4.130
59631W        W32699   7.778  34.035  12.421
59632W        W32700   6.335  22.564   0.766
59633W        W32701  39.126   9.264   4.617
59634W        W32702  42.358  10.694   4.636
59635W        W32703  33.530  20.383   4.785
59636W        W32704  13.908  36.599   1.338
59637W        W32705  25.038   7.920   1.193
59638W        W32706   1.942  29.568   1.045
59639W        W32707  21.293  26.605  14.426
59640W        W32708  42.985  20.031   3.210
59641W        W32709   6.216  26.928   2.220
59642W        W32710  28.986  42.844   3.459
59643W        W32711  24.049  27.060   3.183
59644W        W32712  39.375  29.875  13.035
59645W        W32713   8.362  18.145  12.584
59646W        W32714  23.639  26.084   4.124
59647W        W32715  24.007  22.744   1.360
59648W        W32716   6.699  33.677  12.960
59649W        W32717  10.861   7.600  13.861
59650W        W32718  24.725  23.563  12.488
59651W        W32719  28.622   7.941  14.501
59652W        W32720  16.737  14.366  10.808
59653W        W32721  39.012  38.908  11.198
59654W        W32722  44.886  32.494   2.434
59655W        W32723   2.515  14.139  14.731
59656W        W32724  25.038   6.170  14.363
59657W        W32725  10.433  34.427   1.886
59658W        W32726  31.558   7.961   2.289
59659W        W32727  36.848   2.662   4.512
59660W        W32728  19.488  33.405   3.599
59661W        W32729  16.251  23.108   2.393
59662W        W32730   3.904  16.298   2.417
59663W        W32731  24.611  31.235  11.488
59664W        W32732  43.237  12.371   4.682
59665W        W32733  37.490   6.726   3.536
59666W        W32734   1.898   2.771   4.391
59667W        W32735  39.152  13.078   1.296
59668W        W32736  15.519  25.781   3.786
59669W        W32737  14.250  24.472   1.411
59670W        W32738  36.380  12.231   3.886
59671W        W32739  33.349  22.568   1.968
59672W        W32740  10.478  12.567  13.351
59673W        W32741  42.845  42.366  14.315
59674W        W32742  12.226  13.409  13.026
59675W        W32743  21.038  36.583   4.075
59676W        W32744  13.177  23.068   1.942
59677W        W32745   4.243   8.299  11.915
59678W        W32746  12.820  12.416  14.973
59679W        W32747   6.721  29.424  14.122
59680W        W32748   6.691  25.452  14.804
59681W        W32749   9.271  37.287  12.104
59682W        W32750  39.024  13.432  11.192
59683W        W32751  16.559  43.029   0.702
59684W        W32752   0.494  16.515  12.802
59685W        W32753  26.522  28.401   0.649
59686W        W32754  16.810  42.235  13.498
59687W        W32755   7.813  10.835   1.636
59688W        W32756  37.453   0.920   0.936
59689W        W32757  19.277  27.634  11.951
59690W        W32758  12.790   1.170  12.442
59691W        W32759  38.163  29.111  12.919
59692W        W32760  39.036  40.534  13.443
59693W        W32761   7.361  41.424  11.566
59694W        W32762  26.376  21.328   1.870
59695W        W32763  23.614  18.172   4.137
59696W        W32764  26.543  34.928   3.517
59697W        W32765   5.219   1.975  12.017
59698W        W32766  41.075  12.644   0.019
59699W        W32767  33.914  18.498  11.512
59700W        W32768  35.930  22.207   0.256
59701W        W32769  33.391   4.689  14.347
59702W        W32770  43.265  12.460  11.488
59703W        W32771   9.326   1.112  11.676
59704W        W32772  42.675  12.877  14.299
59705W        W32773   4.212  22.368  11.998
59706W        W32774  26.954  23.205   0.275
59707W        W32775  44.949  16.829   4.816
59708W        W32776  24.064  33.019   3.154
59709W        W32777   9.859  42.964  12.733
59710W        W32778  36.277  39.123   0.809
59711W        W32779  28.570   0.026  14.094
59712W        W32780  30.092  33.351   2.505
59713W        W32781  15.274  34.900   1.155
59714W        W32782  10.250  32.529   0.761
59715W        W32783  20.895  29.492  10.316
59716W        W32784  23.151  22.533  12.997
59717W        W32785  17.299   6.408   0.240
59718W        W32786   5.962   2.220   4.790
59719W        W32787  14.184  40.804  12.941
59720W        W32788  43.377  16.654   0.328
59721W        W32789  12.297  18.667   1.170
59722W        W32790  17.846  19.869  14.831
59723W        W32791  12.191  37.759   2.348
59724W        W32792   9.687  38.988   4.772
59725W        W32793  30.088  38.631   3.695
59726W        W32794  29.582   9.255  14.366
59727W        W32795  20.613   2.170  11.591
59728W        W32796  32.080  35.425  14.095
59729W        W32797   1.885  42.031  11.158
59730W        W32798  40.299  41.403   2.769
59731W        W32799  11.896  18.926   3.117
59732W        W32800  39.637   3.272   4.080
59733W        W32801   5.018  22.227  13.007
59734W        W32802  41.444   1.409   1.766
59735W        W32803  24.136  10.082   4.973
59736W        W32804  13.702  38.062   4.533
59737W        W32805  44.445   3.259  11.074
59738W        W32806  22.427  44.022  10.202
59739W        W32807  33.462  16.273   0.842
59740W        W32808  15.070   0.303   1.859
59741W        W32809  19.972  42.236  13.307
59742W        W32810   7.144  44.746   2.972
59743W        W32811  32.428  40.649  12.608
59744W        W32812   3.834  28.449  10.654
59745W        W32813  42.252  24.729  14.744
59746W        W32814  26.544  35.401  10.371
59747W        W32815  18.973  44.047   9.884
59748W        W32816   1.801  31.894   2.192
59749W        W32817  41.283   2.269  14.778
59750W        W32818  19.007  36.035  12.688
59751W        W32819   6.516  20.030   3.662
59752W        W32820  27.558   2.943   1.641
59753W        W32821  27.180   3.437  11.511
59754W        W32822  43.091  35.071  14.030
59755W        W32823  20.273   7.120   0.469
59756W        W32824  43.977  36.411  13.497
59757W        W32825  19.516  26.413  14.115
59758W        W32826  29.320  28.029  11.687
59759W        W32827  41.440   1.975   3.681
59760W        W32828  38.339  10.184   3.080
59761W        W32829  30.516  29.995   3.688
59762W        W32830   2.997   5.706   2.757
59763W        W32831  26.158  39.325  14.379
59764W        W32832  37.897  31.591   5.377
59765W        W32833  39.396  24.472  12.990
59766W        W32834  22.403   4.946   1.730
59767W        W32835  33.462   8.922  11.086
59768W        W32836  32.069  20.953   4.110
59769W        W32837  23.307   6.622   1.957
59770W        W32838  38.341  17.852  13.907
59771W        W32839   2.303  29.833   3.173
59772W        W32840   2.830  26.447   4.117
59773W        W32841   2.514  14.089  11.628
59774W        W32842  37.087   1.448   3.504
59775W        W32843  14.226  40.369  13.500
59776W        W32844  21.503  24.028   2.140
59777W        W32845   7.589  26.604  10.685
59778W        W32846  30.502   1.517  10.426
59779W        W32847   2.305  44.659  14.786
59780W        W32848   4.745  31.629  13.962
59781W        W32849  33.459  28.055  14.024
59782W        W32850  37.417  18.000   0.500
59783W        W32851  19.431  21.728   0.071
59784W        W32852  32.145  35.922   4.518
59785W        W32853  35.780  19.535   4.556
59786W        W32854  17.735  44.803   3.204
59787W        W32855  18.049  11.890   3.176
59788W        W32856  21.331  10.453   2.363
59789W        W32857   0.824  23.926  11.119
59790W        W32858  34.904  10.636   3.690
59791W        W32859  11.973  25.243   5.064
59792W        W32860   0.749   3.018   1.267
59793W        W32861   7.739  39.109  12.052
59794W        W32862  18.326  15.114  13.857
59795W        W32863  35.675   3.721   0.935
59796W        W32864  18.266   1.237   3.326
59797W        W32865  27.928  31.976   2.327
59798W        W32866  33.668  35.041   1.391
59799W        W32867   7.744  40.912   4.521
59800W        W32868   1.661  31.605  12.104
59801W        W32869  41.974  44.860   2.675
59802W        W32870  15.043  40.269  10.715
59803W        W32871  25.163  25.665   1.951
59804W        W32872  40.894  20.519   4.241
59805W        W32873  36.100  12.319  10.720
59806W        W32874  11.610  21.976   0.264
59807W        W32875  41.575   7.260  11.016
59808W        W32876  21.163   7.710   0.334
59809W        W32877   6.124  26.410   2.144
59810W        W32878   4.332  10.925  11.519
59811W        W32879  39.803   7.294  13.958
59812W        W32880   3.450  18.456  11.549
59813W        W32881  20.988  17.718   3.550
59814W        W32882  25.687  18.539   4.884
59815W        W32883  42.375  21.961  14.345
59816W        W32884  25.942  17.741  12.466
59817W        W32885  39.618  27.593   3.235
59818W        W32886   6.601  17.793   2.510
59819W        W32887  22.722  43.309  13.333
59820W        W32888  10.564  30.957   1.438
59821W        W32889  27.170  37.065  14.427
59822W        W32890  13.742  27.864   1.466
59823W        W32891  11.164  44.101   1.883
59824W        W32892  10.157   0.300  10.923
59825W        W32893  15.363  33.147  12.819
59826W        W32894  24.153  24.271   1.497
59827W        W32895   3.967  25.787   2.972
59828W        W32896  12.271  33.707   2.705
59829W        W32897  28.638  31.175   3.128
59830W        W32898  10.143   7.807  14.704
59831W        W32899   5.596  21.562   0.975
59832W        W32900   5.066   5.518   4.678
59833W        W32901   7.330  25.771   4.539
59834W        W32902  32.096  13.170  13.301
59835W        W32903   2.512  40.149   4.078
59836W        W32904   7.864  26.225  11.012
59837W        W32905  24.532  44.998  13.928
59838W        W32906  26.788  29.451  12.810
59839W        W32907  37.949  34.561  13.799
59840W        W32908  29.046  20.482  11.078
59841W        W32909  27.410  23.012  10.702
59842W        W32910   7.839   6.539  10.587
59843W        W32911  12.865  39.116  14.334
59844W        W32912  39.954   9.127   1.835
59845W        W32913  32.520  24.947  14.392
59846W        W32914  41.645  39.037   2.411
59847W        W32915  27.077  40.315  14.954
59848W        W32916   4.225  36.612   4.437
59849W        W32917  25.793  39.453  11.063
59850W        W32918  18.205  44.525  12.044
59851W        W32919  35.353   0.324  12.870
59852W        W32920  35.367  41.316  11.876
59853W        W32921  34.669   0.490  10.656
59854W        W32922  26.142  14.223   3.212
59855W        W32923  27.973   0.392   2.365
59856W        W32924  23.500  14.557   2.810
59857W        W32925  20.087  41.027   4.233
59858W        W32926  40.316   6.126  13.853
59859W        W32927  34.248  37.635   2.153
59860W        W32928  13.313  44.481   4.148
59861W        W32929   3.403  41.386   0.236
59862W        W32930   2.925   0.640   3.986
59863W        W32931  42.090  10.514  14.853
59864W        W32932  36.039  30.595  14.724
59865W        W32933  21.162   6.109  11.177
59866W        W32934  23.716  27.109  11.195
59867W        W32935  44.166  18.252  10.250
59868W        W32936  35.038   0.140   2.743
59869W        W32937  14.858  41.097   4.539
59870W        W32938  30.938   3.430  13.501
59871W        W32939  27.063  35.582  11.629
59872W        W32940  15.672  28.366  12.925
59873W        W32941  37.906   0.006   4.092
59874W        W32942  19.344   8.255   3.626
59875W        W32943  31.215  14.981  14.137
59876W        W32944   0.507  20.656  14.113
59877W        W32945  39.222  41.013  12.005
59878W        W32946  42.003  42.553   3.502
59879W        W32947  37.228  15.596  11.644
59880W        W32948  37.859  23.722   0.437
59881W        W32949   4.378  10.665  10.551
59882W        W32950  40.030  13.290   2.569
59883W        W32951   9.461  37.529  10.161
59884W        W32952  30.748  23.494  10.408
59885W        W32953  13.282  20.970  10.750
59886W        W32954  28.996  22.932   2.398
59887W        W32955  19.626  22.220   4.557
59888W        W32956   8.865  42.351  14.303
59889W        W32957  25.480   3.433  12.046
59890W        W32958   6.660   0.799  14.616
59891W        W32959   1.458  17.504  11.956
59892W        W32960   5.227  24.432  13.918
59893W        W32961  40.810  31.243  11.165
59894W        W32962  17.698  30.157   3.735
59895W        W32963  24.630  11.556  11.867
59896W        W32964  31.046   6.332  12.051
59897W        W32965  36.644  38.228  12.312
59898W        W32966  41.864  26.059   4.302
59899W        W32967  23.523  44.768  12.968
59900W        W32968  40.483  14.283  11.679
59901W        W32969  21.197  32.445   2.414
59902W        W32970  31.450  25.005  13.524
59903W        W32971  33.278  10.844   2.887
59904W        W32972   4.451  30.008   1.971
59905W        W32973  14.190   5.976   4.287
59906W        W32974  19.676  38.436  13.186
59907W        W32975   9.765  15.627   4.729
59908W        W32976  12.634  39.620   0.034
59909W        W32977  11.402  35.126  14.421
59910W        W32978   0.189   0.025  11.086
59911W        W32979  38.714  17.828   4.125
59912W        W32980  11.001  41.445  11.904
59913W        W32981  18.732  11.941  12.075
59914W        W32982  39.044  20.655  12.669
59915W        W32983  27.649  27.613  13.449
59916W        W32984  34.353  36.914  13.955
59917W        W32985  36.255  30.420   4.051
59918W        W32986  38.272  38.029  13.069
59919W        W32987  37.336  25.874   0.960
59920W        W32988   5.604  22.495  12.092
59921W        W32989  29.671  18.096  12.501
59922W        W32990  31.812  39.203   4.089
59923W        W32991   8.170  36.068   4.689
59924W        W32992   0.335  37.529  14.990
59925W        W32993  18.219  41.312   0.006
59926W        W32994  17.342  32.487   0.175
59927W        W32995  15.551  16.641   2.220
59928W        W32996   7.694  15.859  10.297
59929W        W32997  11.346  19.278  12.126
59930W        W32998  39.575  38.817   3.271
59931W        W32999   0.950  41.002  13.391
59932W        W33000  19.670   0.463   2.391
59933W        W33001  23.283  21.027   2.679
59934W        W33002  16.055  31.183  11.887
59935W        W33003  27.029  36.044  14.286
59936W        W33004  32.410  19.393   0.758
59937W        W33005   5.366  29.478  13.616
59938W        W33006   6.457  37.282   0.287
59939W        W33007  44.878  15.222   3.915
59940W        W33008  41.250  16.748  12.440
59941W        W33009   8.863  10.326  12.972
59942W        W33010  42.721  13.682  13.469
59943W        W33011  29.927  39.014  13.984
59944W        W33012  27.375   1.805   0.939
59945W        W33013  42.783  22.088   3.894
59946W        W33014  22.667  19.535   4.623
59947W        W33015  30.109  42.597   0.872
59948W        W33016  14.130   2.058  12.141
59949W        W33017  28.170  15.558   4.231
59950W        W33018  25.973  39.870   0.402
59951W        W33019  12.531   2.316   2.892
59952W        W33020  11.151  37.949  10.861
59953W        W33021  37.693  14.248   5.150
59954W        W33022   8.686  31.018   2.942
59955W        W33023  26.006  22.998   0.305
59956W        W33024  34.049   6.173   2.729
59957W        W33025   2.962  41.853   3.767
59958W        W33026  21.745   8.085   2.222
59959W        W33027  38.106  38.840   0.050
59960W        W33028  31.318  33.601  11.259
59961W        W33029  36.863  31.414  12.500
59962W        W33030  28.590   0.820   1.797
59963W        W33031  42.819  35.601   3.844
59964W        W33032  33.921   1.309  11.661
59965W        W33033  31.421   6.156   3.238
59966W        W33034  16.311  16.131  13.005
59967W        W33035  24.208  12.316   2.832
59968W        W33036  18.676   2.429  12.017
59969W        W33037  43.892  40.544   4.660
59970W        W33038  23.766  11.317   2.666
59971W        W33039  33.451   4.308  11.594
59972W        W33040  13.247  10.530   3.122
59973W        W33041  26.721  36.399   0.277
59974W        W33042   5.538  12.756   0.042
59975W        W33043  27.135  19.512  12.410
59976W        W33044  39.801  44.201  13.362
59977W        W33045  12.859  44.720  13.055
59978W        W33046  13.000  20.255   3.527
59979W        W33047  26.658   1.334   0.823
59980W        W33048  40.930   4.396  14.412
59981W        W33049  10.806  16.963  12.532
59982W        W33050  12.979  38.568  12.605
59983W        W33051  10.761  26.723   2.460
59984W        W33052   0.258   7.777  14.091
59985W        W33053  42.918  38.464   4.496
59986W        W33054  31.055  13.203  11.189
59987W        W33055  39.376  26.908   1.575
59988W        W33056   9.212  19.281  11.203
59989W        W33057  21.088  43.017   3.308
59990W        W33058  24.886  38.598   3.624
59991W        W33059  21.148  41.908   1.884
59992W        W33060  35.118  30.985  12.839
59993W        W33061  27.960  39.599   3.836
59994W        W33062  17.235  37.490   2.829
59995W        W33063  23.923  14.641  11.155
59996W        W33064  15.674   1.649   1.033
59997W        W33065  27.631  37.323  13.343
59998W        W33066  44.406  25.531   0.993
59999W        W33067  19.218  21.556   3.266
60000W        W33068   7.552  40.968   5.000
60001W        W33069  44.291  26.390  11.855
60002W        W33070  10.338  38.073  11.149
60003W        W33071  40.310  40.528   1.379
60004W        W33072  15.620  22.252   3.577
60005W        W33073   2.833  14.209   0.974
60006W        W33074  19.784  24.935   1.233
60007W        W33075   5.891  43.805   2.735
60008W        W33076   7.150  39.487   2.636
60009W        W33077   8.716  29.610  14.059
60010W        W33078  13.252  39.301   2.245
60011W        W33079  18.562   0.965  12.130
60012W        W33080  32.130  34.461  14.012
60013W        W33081  13.637  15.179  12.221
60014W        W33082  27.973  44.957   0.900
60015W        W33083  32.041  43.900  11.624
60016W        W33084   9.746  24.069  11.146
60017W        W33085  39.652  14.988  11.426
60018W        W33086  18.998   8.889  14.877
60019W        W33087  13.076  15.527   1.716
60020W        W33088  42.885  23.481  12.392
60021W        W33089  31.857  44.990   3.579
60022W        W33090  31.892  31.832   4.970
60023W        W33091  42.465  16.826  13.829
60024W        W33092   9.716  22.661  14.938
60025W        W33093  34.550  35.003  10.890
60026W        W33094  27.733  12.726  11.394
60027W        W33095  13.532  31.200  14.445
60028W        W33096   5.843  14.600   0.965
60029W        W33097  34.055  43.017  14.330
60030W        W33098  30.378   8.345  14.434
60031W        W33099  35.190   7.630   3.180
60032W        W33100  27.451   4.410  10.725
60033W        W33101   1.485  41.950  14.462
60034W        W33102   2.429  34.483   1.413
60035W        W33103  18.827   5.132   3.522
60036W        W33104  26.925  20.617  13.808
60037W        W33105   5.760  31.970   0.335
60038W        W33106  37.588  24.995   2.121
60039W        W33107  30.826  26.177   2.334
60040W        W33108  37.643   4.712  11.419
60041W        W33109   9.442  10.878  14.459
60042W        W33110  13.615   2.900   3.180
60043W        W33111  24.760  44.875   2.233
60044W        W33112  37.351  19.565   0.308
60045W        W33113  16.628   5.868   0.237
60046W        W33114   3.751  23.462   1.930
60047W        W33115  36.009   6.518  13.094
60048W        W33116   3.370  16.979   2.705
60049W        W33117  38.091  42.904   9.927
60050W        W33118  26.061  23.141  12.448
60051W        W33119   4.983  33.348  13.673
60052W        W33120  28.459  21.716  12.111
60053W        W33121  11.769  19.691  12.851
60054W        W33122  33.601   0.679   4.578
60055W        W33123  35.428  31.912  13.116
60056W        W33124  28.354  43.402  12.643
60057W        W33125  24.113  41.271  12.899
60058W        W33126  20.479   7.173  11.523
60059W        W33127  29.927  16.334  13.474
60060W        W33128  33.340  41.327   9.959
60061W        W33129  27.041  43.284  11.162
60062W        W33130   0.738  17.303  12.421
60063W        W33131  22.600  24.085  12.943
60064W        W33132  20.269  15.561   2.700
60065W        W33133  15.187  16.903   0.837
60066W        W33134   8.859  25.462   1.902
60067W        W33135   6.731  11.446   3.679
60068W        W33136  41.853  16.821   1.285
60069W        W33137  19.597   9.681  14.887
60070W        W33138  32.932  16.170  11.458
60071W        W33139  37.579  33.774  13.714
60072W        W33140   0.280  41.960   3.335
60073W        W33141  32.448  12.924   3.658
60074W        W33142   1.877  37.542   0.978
60075W        W33143  14.559   6.800  10.459
60076W        W33144   2.794  18.207   0.762
60077W        W33145  37.481  29.028  14.703
60078W        W33146  12.721   4.621  12.065
60079W        W33147   2.118  36.489  14.464
60080W        W33148   5.296   5.314   4.226
60081W        W33149  15.890   7.432  12.041
60082W        W33150  14.652  33.328   1.689
60083W        W33151  28.938  12.037  11.923
60084W        W33152  23.535  35.609  13.229
60085W        W33153   2.054  42.970   1.330
60086W        W33154   2.333  32.234  14.552
60087W        W33155   9.224  31.863  14.328
60088W        W33156  34.958  42.088   3.151
60089W        W33157  21.462   4.901  11.596
60090W        W33158  14.223  37.945  13.223
60091W        W33159  18.273  35.918   4.827
60092W        W33160   0.681  37.057   1.195
60093W        W33161  12.712  12.259  11.074
60094W        W33162  26.690  11.835  11.103
60095W        W33163   6.345  27.706   1.723
60096W        W33164  31.165  31.611  14.502
60097W        W33165  15.647  42.945   0.805
60098W        W33166   5.475  24.996  14.006
60099W        W33167  16.359  32.504  12.076
60100W        W33168  19.576   2.856   3.530
60101W        W33169  33.959   2.942   0.529
60102W        W33170  30.844   8.801  10.287
60103W        W33171  23.687  14.976  14.552
60104W        W33172  40.358   8.189   5.846
60105W        W33173  26.068  33.616  13.426
60106W        W33174   1.677   6.835   1.277
60107W        W33175  27.652  33.423  10.744
60108W        W33176   3.289  14.857   4.237
60109W        W33177  29.967  22.915   5.477
60110W        W33178  43.988  42.013  11.726
60111W        W33179   4.817  26.684  11.101
60112W        W33180  18.140  13.776  12.956
60113W        W33181  44.637  17.131   2.826
60114W        W33182  12.343  29.815  14.005
60115W        W33183  35.129  23.645   3.730
60116W        W33184  22.058  34.049   2.322
60117W        W33185  30.198  10.204   0.926
60118W        W33186   3.684  26.942   4.127
60119W        W33187  34.351  21.041  14.329
60120W        W33188  18.539   8.838  12.351
60121W        W33189  20.928  39.514   4.936
60122W        W33190  36.069  17.447   2.783
60123W        W33191  31.121  16.674  14.331
60124W        W33192  27.400  31.106  10.648
60125W        W33193   5.318   3.434   2.724
60126W        W33194  23.708   9.272  14.994
60127W        W33195   8.597  21.616   4.103
60128W        W33196  17.619  36.348  11.076
60129W        W33197  41.646  33.501  14.931
60130W        W33198   9.311  28.065   1.186
60131W        W33199  41.810  15.504   4.081
60132W        W33200   2.958  39.124   2.952
60133W        W33201   2.766  34.611  12.726
60134W        W33202  37.034  25.013   2.236
60135W        W33203   5.421  38.823   3.756
60136W        W33204  26.399  19.122  11.926
60137W        W33205  13.574  10.080  14.113
60138W        W33206   7.763  18.101  10.780
60139W        W33207   6.518  34.751  13.375
60140W        W33208   0.313   2.001  12.130
60141W        W33209  23.366  37.513   0.976
60142W        W33210  40.496  23.403  10.646
60143W        W33211  39.972  18.263   2.300
60144W        W33212  16.765  12.260  12.444
60145W        W33213  39.549  17.525   2.416
60146W        W33214  32.046  12.156   2.209
60147W        W33215  42.778   7.917  11.496
60148W        W33216   7.525  15.496  11.120
60149W        W33217  26.862  29.244  10.826
60150W        W33218  40.664   7.728   4.556
60151W        W33219  26.526  10.332   5.411
60152W        W33220  10.865  38.396  11.960
60153W        W33221  29.146  30.115   3.084
60154W        W33222  13.687   6.873   2.788
60155W        W33223  25.549   4.731  14.514
60156W        W33224  15.528  42.963  13.498
60157W        W33225  19.079  16.715   2.909
60158W        W33226  40.527  13.274   2.709
60159W        W33227  41.303  18.235  12.378
60160W        W33228  11.838  42.567   2.163
60161W        W33229  22.484  18.691   1.948
60162W        W33230  29.402  15.338  12.887
60163W        W33231  16.741  38.356  14.525
60164W        W33232   8.652  23.998  11.989
60165W        W33233  41.792  13.325   4.483
60166W        W33234  17.087  11.371   4.186
60167W        W33235  33.429  31.682  12.627
60168W        W33236  21.760  25.688  14.757
60169W        W33237   6.599  25.029  12.983
60170W        W33238   6.526   4.916  11.234
60171W        W33239   8.282  42.915  13.776
60172W        W33240  44.961  39.376   2.663
60173W        W33241  38.596  10.339  13.466
60174W        W33242  10.887  24.959  12.005
60175W        W33243   1.014  12.559   3.306
60176W        W33244  38.864  35.821  12.938
60177W        W33245  32.929   0.138  14.437
60178W        W33246   3.464  28.080   1.115
60179W        W33247  19.177  36.995  12.515
60180W        W33248  26.435   3.857  12.483
60181W        W33249  17.815  36.831   0.397
60182W        W33250  34.390  16.292   0.993
60183W        W33251   1.186   2.856  11.231
60184W        W33252   0.546  29.495   3.111
60185W        W33253  24.794  22.089   4.060
60186W        W33254  29.306  42.445  12.441
60187W        W33255  36.518  19.145   3.451
60188W        W33256  16.567  35.643  11.154
60189W        W33257  32.786  38.971  10.288
60190W        W33258  33.724  36.830  12.648
60191W        W33259  20.332  24.006  12.413
60192W        W33260  25.233  22.146   4.309
60193W        W33261  23.165  13.901  14.048
60194W        W33262   5.424  19.888  12.410
60195W        W33263  40.765  22.128   1.861
60196W        W33264  28.009   6.411   5.058
60197W        W33265   8.142   5.484   1.928
60198W        W33266  33.843  27.181   3.197
60199W        W33267  31.352  19.696   2.541
60200W        W33268   5.832  26.575   3.752
60201W        W33269  12.552  10.752  13.498
60202W        W33270  11.304  23.195  11.142
60203W        W33271  11.530  12.558   5.189
60204W        W33272  40.891  10.145   1.679
60205W        W33273  23.031   9.718  12.780
60206W        W33274   6.866  35.550  10.694
60207W        W33275  37.621  27.838   0.376
60208W        W33276  39.860   2.815   2.212
60209W        W33277  10.617  32.344  11.284
60210W        W33278  23.156  33.292   3.058
60211W        W33279  17.131  11.901  12.427
60212W        W33280  24.522  34.069  12.895
60213W        W33281  33.981  19.021   2.050
60214W        W33282  42.727  18.097   4.576
60215W        W33283  13.709  43.658  13.293
60216W        W33284  10.315  37.341   5.088
60217W        W33285  12.101   9.939  14.917
60218W        W33286  34.430   9.757  10.707
60219W        W33287  40.557   5.398   3.264
60220W        W33288  18.592   0.849   2.692
60221W        W33289  31.852   2.198   1.795
60222W        W33290  30.537  41.982   3.645
60223W        W33291  20.653   0.385   1.444
60224W        W33292  31.938  24.181  14.409
60225W        W33293  38.438  19.551  10.935
60226W        W33294  20.130  24.608  10.778
60227W        W33295  29.719  24.237   2.403
60228W        W33296   5.893   4.137   3.149
60229W        W33297  40.295   6.181   2.752
60230W        W33298  10.457  37.299  11.547
60231W        W33299  16.136  21.912   1.762
60232W        W33300  11.815  18.088   0.733
60233W        W33301  18.613   2.479  13.947
60234W        W33302   1.439  15.170   0.427
60235W        W33303  39.774  18.694   3.783
60236W        W33304  17.827  20.133   0.288
60237W        W33305  29.999  44.531   0.748
60238W        W33306   9.188  44.707  14.379
60239W        W33307   6.846  42.241  12.990
60240W        W33308  17.525   1.775  10.769
60241W        W33309  34.057  16.566   1.782
60242W        W33310  41.628  28.929   2.474
60243W        W33311  11.711  12.289  11.310
60244W        W33312  20.231  42.966   0.803
60245W        W33313  18.549   3.409   1.322
60246W        W33314  39.369  31.060   3.232
60247W        W33315  22.007  28.578  12.068
60248W        W33316  31.147  17.254  13.498
60249W        W33317  28.158   2.370  11.588
60250W        W33318  36.988   2.737  12.103
60251W        W33319  26.193  41.366  12.900
60252W        W33320  31.465  20.890   4.564
60253W        W33321  28.094  20.235  13.961
60254W        W33322  28.888  23.214  14.885
60255W        W33323  39.703   7.311   3.850
60256W        W33324   8.106  26.585  10.726
60257W        W33325  28.446  38.963  12.450
60258W        W33326   3.478  36.441   1.342
60259W        W33327  14.993  31.608   1.415
60260W        W33328  37.471  38.267  12.518
60261W        W33329  28.246  34.692  13.050
60262W        W33330  20.966  28.113  13.410
60263W        W33331  16.322  18.330  12.208
60264W        W33332  28.145  35.087  11.490
60265W        W33333  12.848   6.957  13.156
60266W        W33334  16.592  17.795   3.331
60267W        W33335  39.057  16.354  10.087
60268W        W33336  44.858  26.121  13.586
60269W        W33337  23.121  43.936   2.402
60270W        W33338  17.336  36.617   0.407
60271W        W33339  24.752  32.490  10.932
60272W        W33340  36.705  41.744   3.884
60273W        W33341  32.429  22.974  11.585
60274W        W33342   4.982  33.365   0.879
60275W        W33343  20.249  13.105   1.337
60276W        W33344  14.643   5.313  10.625
60277W        W33345  40.911  20.677   4.740
60278W        W33346  11.163   3.010  13.922
60279W        W33347  12.547  15.290   0.275
60280W        W33348   5.732   3.097  11.123
60281W        W33349  20.701   9.415   4.953
60282W        W33350  28.222   9.686   5.160
60283W        W33351   8.709  30.163  10.617
60284W        W33352   7.773  35.822  11.811
60285W        W33353  39.767  19.741  11.165
60286W        W33354   5.279  39.011  12.922
60287W        W33355  17.022  13.231   2.384
60288W        W33356  32.321   3.914   4.117
60289W        W33357  25.417   5.256  13.759
60290W        W33358  35.819  33.439  12.627
60291W        W33359   1.864  19.141   1.435
60292W        W33360   2.814  23.050   1.451
60293W        W33361  31.182  39.408   3.259
60294W        W33362  23.237  22.708   0.307
60295W        W33363   8.942  43.406  11.645
60296W        W33364   5.239  30.895   3.358
60297W        W33365  18.675   7.903   1.249
60298W        W33366   8.142  22.689  14.907
60299W        W33367  44.398  18.319   3.247
60300W        W33368  14.111  24.231   1.895
60301W        W33369  37.479  41.358   1.732
60302W        W33370  21.580  29.029  11.406
60303W        W33371   2.711  36.081   2.684
60304W        W33372   3.898  37.372   1.219
60305W        W33373  29.451  38.338   1.877
60306W        W33374  24.907  38.501   0.499
60307W        W33375  31.924  16.778   2.218
60308W        W33376  37.379   6.568   3.055
60309W        W33377   8.591  19.015   3.834
60310W        W33378  14.206  42.327   2.352
60311W        W33379  14.062  17.027   5.131
60312W        W33380  33.081  41.814   2.130
60313W        W33381   9.223  16.310   1.725
60314W        W33382   6.405  11.840  13.456
60315W        W33383   8.833  44.518   0.351
60316W        W33384   9.966   7.806  10.692
60317W        W33385  33.549  19.813  10.521
60318W        W33386  24.427  15.362  14.275
60319W        W33387   9.657  16.261   0.948
60320W        W33388  30.847   5.170   1.715
60321W        W33389  24.980   6.911   3.552
60322W        W33390  34.845  38.616  12.122
60323W        W33391  20.065  38.761   4.447
60324W        W33392   7.411  37.038  12.451
60325W        W33393  44.283  26.944  11.071
60326W        W33394   4.297  33.332   0.310
60327W        W33395   9.780   9.879  12.402
60328W        W33396  40.731  26.805   0.518
60329W        W33397   0.874  40.405   3.745
60330W        W33398  38.361  28.600   3.794
60331W        W33399  42.918  44.766   1.799
60332W        W33400   2.811   8.254  11.383
60333W        W33401  40.225  31.383   0.898
60334W        W33402   1.498   1.551   4.812
60335W        W33403   7.230   0.875   0.322
60336W        W33404  21.991  19.259   4.478
60337W        W33405  36.413   4.575  10.982
60338W        W33406  26.143   5.435  14.500
60339W        W33407   4.700   1.727   0.494
60340W        W33408  21.637  27.308  11.614
60341W        W33409  17.384  19.083   1.330
60342W        W33410   1.551  34.535  13.325
60343W        W33411   0.830  26.925   0.409
60344W        W33412  39.558  35.932   2.190
60345W        W33413  26.478   7.008   2.866
60346W        W33414  15.182   5.467  12.467
60347W        W33415  39.355  27.576  10.380
60348W        W33416   2.703   0.451   3.232
60349W        W33417  14.342  16.749   3.679
60350W        W33418   1.533  11.194   1.326
60351W        W33419  10.304  18.274  10.803
60352W        W33420  23.915  34.718   3.573
60353W        W33421  26.722  39.360  13.415
60354W        W33422  14.746  31.405  14.450
60355W        W33423  15.760  31.464  14.264
60356W        W33424   2.771  18.624   0.448
60357W        W33425  23.949  24.237   3.285
60358W        W33426  43.050  30.870  13.464
60359W        W33427  12.498  26.814  12.780
60360W        W33428   4.919  39.251  14.802
60361W        W33429  23.735  28.119  11.688
60362W        W33430  38.791  24.503   0.720
60363W        W33431  37.160   1.477   1.765
60364W        W33432   9.509  24.042  14.458
60365W        W33433  31.477  27.425  13.922
60366W        W33434  37.502  27.179  11.322
60367W        W33435  25.274   4.885  13.113
60368W        W33436  13.092   3.798  14.929
60369W        W33437  11.274  16.245  10.181
60370W        W33438  27.200   2.306   2.751
60371W        W33439  43.991  30.392   2.252
60372W        W33440  17.037   6.569   0.962
60373W        W33441   5.710  27.970  11.463
60374W        W33442  30.478  21.073  10.742
60375W        W33443  24.631  19.338   5.146
60376W        W33444  15.380  36.931  13.023
60377W        W33445   5.415  14.333   1.155
60378W        W33446  27.209  13.296   3.087
60379W        W33447  31.045  14.120   0.269
60380W        W33448   4.827   3.252   3.406
60381W        W33449   8.350  11.198  14.788
60382W        W33450  17.250  19.325   2.361
60383W        W33451  12.867  22.323   0.736
60384W        W33452  13.655  12.975  14.789
60385W        W33453  15.318  36.332   0.024
60386W        W33454  28.624  31.510  10.819
60387W        W33455  34.664   6.714  10.598
60388W        W33456  20.772  33.008   0.775
60389W        W33457   7.308  31.628   3.646
60390W        W33458  26.497  39.913   3.353
60391W        W33459  43.169  32.375   0.971
60392W        W33460  18.502  34.957  13.899
60393W        W33461  43.909  18.706  14.407
60394W        W33462  44.375  14.197   9.866
60395W        W33463  33.510   6.125   0.986
60396W        W33464  18.582  15.114  12.149
60397W        W33465  21.147  27.776   2.654
60398W        W33466  17.486   6.768   1.648
60399W        W33467  36.667  27.487  10.791
60400W        W33468  16.669   4.482   0.777
60401W        W33469  18.194  26.060   0.312
60402W        W33470  31.434  16.366   4.719
60403W        W33471  13.699  17.032  12.167
60404W        W33472  44.705   2.332   1.241
60405W        W33473  10.395   4.439   3.691
60406W        W33474  40.364  34.677   4.520
60407W        W33475  40.306   2.312   4.865
60408W        W33476   5.948  22.100  12.077
60409W        W33477  18.785  10.271  14.767
60410W        W33478  21.650  14.283   1.467
60411W        W33479  21.990  39.488   1.221
60412W        W33480   8.067   5.611  14.877
60413W        W33481  37.226  20.619  11.055
60414W        W33482  15.124   5.710  12.943
60415W        W33483  40.369  23.847   4.603
60416W        W33484   4.422  31.491  13.566
60417W        W33485  34.858   9.176  12.875
60418W        W33486   8.685   0.002   0.248
60419W        W33487  34.418   1.682   0.426
60420W        W33488   8.286  41.018   5.269
60421W        W33489   2.753  43.451  13.085
60422W        W33490  21.368  30.484   5.040
60423W        W33491   7.972  33.647  11.172
60424W        W33492  28.067  12.968   4.554
60425W        W33493   1.241  39.325  14.312
60426W        W33494  12.544  25.469  11.565
60427W        W33495  39.610  16.170  13.528
60428W        W33496   4.126  32.358   2.282
60429W        W33497  20.649  21.746   4.497
60430W        W33498  12.754  32.052   2.407
60431W        W33499  29.424  16.765   2.254
60432W        W33500  36.924   4.830   2.829
60433W        W33501  25.608  13.038  10.422
60434W        W33502  16.843  14.567  11.590
60435W        W33503  31.547   5.238  13.504
60436W        W33504  27.742  36.448  12.475
60437W        W33505  32.211   1.419   3.312
60438W        W33506  28.890  18.050  12.066
60439W        W33507  25.208  42.968   2.816
60440W        W33508  31.612  29.864   1.319
60441W        W33509  16.866  19.239   0.805
60442W        W33510  41.143   8.941   0.725
60443W        W33511  37.961  13.991   2.934
60444W        W33512  36.571  14.047   2.796
60445W        W33513  10.588   5.252  11.682
60446W        W33514  20.032  32.951   4.838
60447W        W33515  40.967   6.436   4.132
60448W        W33516  39.589  41.355   4.499
60449W        W33517  11.340  21.672  12.366
60450W        W33518  13.243   4.753  12.065
60451W        W33519  43.921  25.821  13.089
60452W        W33520  26.454  13.074  10.722
60453W        W33521  44.665   9.094   2.285
60454W        W33522  28.517   4.638   2.253
60455W        W33523  14.805  41.025   3.799
60456W        W33524   7.316  13.363   3.636
60457W        W33525  37.429  21.851   4.852
60458W        W33526  35.283  38.602   3.119
60459W        W33527  32.587  11.094  12.375
60460W        W33528  21.533  25.074   4.778
60461W        W33529  37.421  39.862  10.546
60462W        W33530  23.789  40.816  10.593
60463W        W33531   0.008  41.494   3.457
60464W        W33532  18.963  43.409   4.621
60465W        W33533  13.104  14.629  12.934
60466W        W33534  35.410  17.817   0.407
60467W        W33535   2.885   7.175  11.543
60468W        W33536   1.319  32.840  14.686
60469W        W33537  10.196  27.072  14.949
60470W        W33538  44.576  14.140   2.793
60471W        W33539  14.712  16.366  14.753
60472W        W33540  32.266   4.473   1.274
60473W        W33541  29.558   8.979  11.239
60474W        W33542  39.878  39.907  10.650
60475W        W33543  16.568   0.391  13.926
60476W        W33544  26.792  34.700  13.115
60477W        W33545   6.689  43.336  13.363
60478W        W33546  43.538  41.455  14.451
60479W        W33547  16.221  16.330   2.658
60480W        W33548  22.169  22.224   0.901
60481W        W33549  20.658  27.593   4.492
60482W        W33550  34.045  25.817  12.176
60483W        W33551  33.271  44.347  10.963
60484W        W33552  13.791  21.976   2.171
60485W        W33553  29.918  28.541  11.291
60486W        W33554  41.215  18.571  13.034
60487W        W33555  22.613  13.925  11.817
60488W        W33556  31.083  11.331  14.780
60489W        W33557  40.054   4.830  11.123
60490W        W33558   3.853  33.728   3.252
60491W        W33559   1.322  29.989   4.859
60492W        W33560  18.135   4.495   3.541
60493W        W33561   5.749  11.305   3.864
60494W        W33562  40.964   3.513  13.446
60495W        W33563   0.454  43.547  11.089
60496W        W33564   9.631  35.618   1.154
60497W        W33565   0.023  29.620   0.751
60498W        W33566   0.068  18.787   0.244
60499W        W33567  32.544  36.433   3.708
60500W        W33568  37.640  35.516  12.503
60501W        W33569  19.755  11.952  11.151
60502W        W33570  43.412  23.707  11.257
60503W        W33571  37.745  24.321  10.997
60504W        W33572  12.413  28.679   2.525
60505W        W33573   1.121  22.870   0.783
60506W        W33574  44.580   8.174  12.860
60507W        W33575  38.561   8.637   5.526
60508W        W33576  23.310   3.181   0.476
60509W        W33577  27.384  23.443   2.725
60510W        W33578  39.207  21.775   2.317
60511W        W33579  13.145  36.405   0.809
60512W        W33580  37.096  33.677  13.430
60513W        W33581  39.645  17.086  11.111
60514W        W33582   5.331  23.588  11.979
60515W        W33583   6.480  17.699  11.521
60516W        W33584  14.073  14.791   2.001
60517W        W33585   7.586   5.392   1.820
60518W        W33586  39.763  17.797   3.273
60519W        W33587   3.679  36.915   1.221
60520W        W33588  30.999  10.339   1.398
60521W        W33589   0.313  11.648  11.472
60522W        W33590   9.233  36.660  10.178
60523W        W33591  10.876  26.316  13.059
60524W        W33592  20.283  41.000   1.845
60525W        W33593  40.792  23.941   2.768
60526W        W33594   6.693   9.110  12.144
60527W        W33595   9.164   8.193  10.754
60528W        W33596  21.930   5.217  13.770
60529W        W33597  20.430  12.894  13.187
60530W        W33598  14.174  13.682  14.710
60531W        W33599  15.142  33.089   2.775
60532W        W33600   4.188  38.437   2.847
60533W        W33601  33.634  39.321  13.890
60534W        W33602  43.931  11.423   4.525
60535W        W33603   8.274  26.721   0.881
60536W        W33604   2.411  25.089  11.631
60537W        W33605   5.266  36.852   1.394
60538W        W33606   2.237  15.573  10.282
60539W        W33607  39.401  11.886  12.458
60540W        W33608  32.055  22.289  14.933
60541W        W33609  18.764   2.387   0.985
60542W        W33610  13.672  37.506   0.290
60543W        W33611  39.890   1.571   3.063
60544W        W33612  34.868  39.390   1.760
60545W        W33613   1.964  18.781   2.779
60546W        W33614  28.299  24.507   1.196
60547W        W33615  15.934   9.222  12.384
60548W        W33616   4.877  19.501  14.703
60549W        W33617  33.784  14.281   4.202
60550W        W33618  13.354  33.913   0.874
60551W        W33619  37.498  42.454  13.049
60552W        W33620  27.037  27.860   1.687
60553W        W33621   9.742  11.372  14.841
60554W        W33622  22.600  21.931  10.891
60555W        W33623  11.204  29.256  11.065
60556W        W33624  42.315   9.794   4.450
60557W        W33625   4.434  42.095   2.226
60558W        W33626   1.737   8.761   3.831
60559W        W33627  21.221  29.081  13.579
60560W        W33628  16.491  32.747  11.213
60561W        W33629  10.777  35.187   3.740
60562W        W33630  35.601  16.289   0.532
60563W        W33631  23.713  35.319  14.233
60564W        W33632  16.025  27.997  13.098
60565W        W33633  43.809  33.933   0.852
60566W        W33634   8.693  17.275   1.647
60567W        W33635   9.683  38.373   3.700
60568W        W33636  32.919  18.591  11.585
60569W        W33637  17.849   1.723  12.141
60570W        W33638   1.314  25.175   3.317
60571W        W33639  29.306  43.705  12.572
60572W        W33640  23.597   4.758  10.727
60573W        W33641   7.929  20.207   3.186
60574W        W33642  18.004   6.967   0.116
60575W        W33643  25.136  32.886  12.869
60576W        W33644  41.934  36.175   1.677
60577W        W33645   7.484  34.407  14.435
60578W        W33646  17.698  39.211  14.893
60579W        W33647  15.776  32.861   3.848
60580W        W33648  13.741  32.010  14.954
60581W        W33649  17.756   2.309   1.037
60582W        W33650  16.159  25.243  11.657
60583W        W33651  21.334  41.033   3.753
60584W        W33652  40.494   3.220   4.048
60585W        W33653  13.625  29.775  11.214
60586W        W33654  32.969  43.655   0.680
60587W        W33655  24.432  14.129  13.784
60588W        W33656  10.596  20.593   4.745
60589W        W33657  44.775  12.809   1.142
60590W        W33658   7.144  38.185   1.703
60591W        W33659   8.421  36.429   4.944
60592W        W33660  41.576  11.888   3.598
60593W        W33661  43.434  19.973  12.949
60594W        W33662   1.327   0.389  12.128
60595W        W33663   0.435   7.871   0.798
60596W        W33664  28.678  26.112  14.948
60597W        W33665  24.731  21.850   2.190
60598W        W33666  16.094   2.907   1.213
60599W        W33667  18.528  24.139  13.996
60600W        W33668  42.027  30.850  12.015
60601W        W33669  31.127  36.863   0.273
60602W        W33670  36.786  27.173   3.560
60603W        W33671  34.568  28.924   4.225
60604W        W33672  43.282  21.524   3.876
60605W        W33673  24.586  17.772   4.549
60606W        W33674  32.597  24.031  14.520
60607W        W33675  41.719   8.181  13.328
60608W        W33676  34.443  20.565   4.258
60609W        W33677   0.255  27.121  11.117
60610W        W33678  26.624  16.799  13.070
60611W        W33679  40.620  15.110   2.627
60612W        W33680  33.840  15.070   2.804
60613W        W33681   9.183  34.633  13.541
60614W        W33682   3.784  30.576   1.807
60615W        W33683  22.671  25.172  14.972
60616W        W33684  33.072  39.819  11.122
60617W        W33685  33.155  11.336   3.738
60618W        W33686  14.083  17.781  10.743
60619W        W33687   4.175  16.186  12.121
60620W        W33688  14.388  34.988   4.673
60621W        W33689  21.357  16.791   3.797
60622W        W33690   0.470  24.190   0.401
60623W        W33691  18.769  30.042   0.698
60624W        W33692  24.965  12.225  13.042
60625W        W33693  30.064  23.113   4.975
60626W        W33694   3.266  29.732   4.104
60627W        W33695  37.813  21.551  13.528
60628W        W33696   0.427  31.505   0.037
60629W        W33697   0.965  14.832   0.973
60630W        W33698  39.809  21.111  10.375
60631W        W33699  34.897  40.454   1.778
60632W        W33700  30.730  20.281   0.196
60633W        W33701  31.064  31.004  12.530
60634W        W33702  40.572  27.370   1.830
60635W        W33703  16.604  12.623   0.660
60636W        W33704  39.060  44.377   2.805
60637W        W33705  30.003   3.051  13.650
60638W        W33706   4.151  33.681   3.712
60639W        W33707  26.544  29.502  13.264
60640W        W33708  10.345  40.986  11.554
60641W        W33709   6.356   3.905  12.523
60642W        W33710  40.000  19.154  14.074
60643W        W33711  23.949  26.983   4.544
60644W        W33712  10.236  27.678  13.783
60645W        W33713   6.987   6.170   0.222
60646W        W33714   9.420  28.184  14.801
60647W        W33715  41.316  16.936  13.545
60648W        W33716   6.337  14.824  11.589
60649W        W33717  44.822   7.346  11.855
60650W        W33718  41.423  32.091  13.929
60651W        W33719   3.817  29.163  14.277
60652W        W33720  20.711   6.369  12.566
60653W        W33721  36.567  12.804   2.228
60654W        W33722  33.837   0.126  14.551
60655W        W33723  20.548  20.689  13.753
60656W        W33724  22.692  32.470  11.342
60657W        W33725  31.013   6.643   0.473
60658W        W33726  43.828  35.940   3.208
60659W        W33727  25.821  35.665   4.123
60660W        W33728  26.545  24.402  10.572
60661W        W33729   1.274  25.347  13.032
60662W        W33730  18.715   6.142  14.849
60663W        W33731   5.028  10.183  11.247
60664W        W33732  38.666  40.971  11.218
60665W        W33733  26.953  39.263   4.415
60666W        W33734  23.270  38.845  12.144
60667W        W33735  17.474  17.232   4.156
60668W        W33736   7.253  13.531  10.583
60669W        W33737  17.478  40.343  10.582
60670W        W33738  18.075  28.174  12.167
60671W        W33739  30.562  25.370   0.436
60672W        W33740  23.843  33.623  11.508
60673W        W33741  30.101  12.656   1.738
60674W        W33742   0.873  38.054  11.210
60675W        W33743  34.911  42.237  13.955
60676W        W33744  26.091  33.041   2.326
60677W        W33745  17.812   3.312   3.663
60678W        W33746  39.133  23.497   4.156
60679W        W33747  37.191   5.557   4.614
60680W        W33748   7.207  39.854   3.998
60681W        W33749  21.949  30.273   1.609
60682W        W33750  17.262   1.207   2.270
60683W        W33751  32.034  28.413   4.408
60684W        W33752  38.459  43.013  11.718
60685W        W33753   8.144  30.759   0.845
60686W        W33754  38.783  33.456   4.146
60687W        W33755  15.250  36.526  11.588
60688W        W33756  25.671   8.169   4.054
60689W        W33757  12.435  42.006  14.548
60690W        W33758  42.071   6.712  12.438
60691W        W33759  18.617   0.376  12.845
60692W        W33760  23.092  30.658   4.604
60693W        W33761  32.214  43.535   1.489
60694W        W33762  40.923  14.050   0.305
60695W        W33763  18.244  13.805  14.839
60696W        W33764  26.698  19.411   3.310
60697W        W33765   4.444   9.165   0.006
60698W        W33766  21.787  37.492  12.977
60699W        W33767   0.699  27.163   3.054
60700W        W33768  15.286   8.797   2.603
60701W        W33769  28.131  26.465   4.633
60702W        W33770  21.960  23.742   3.333
60703W        W33771  25.082  13.028  12.401
60704W        W33772  21.244   8.388  11.291
60705W        W33773  12.623  28.426   4.575
60706W        W33774   2.939  40.366   4.810
60707W        W33775  13.540   5.744   4.161
60708W        W33776  22.761  40.802   3.260
60709W        W33777  38.540  37.840  12.174
60710W        W33778  24.974  18.346   1.487
60711W        W33779  17.101  14.745   4.810
60712W        W33780  34.147  16.261   3.245
60713W        W33781   7.669  32.528   3.238
60714W        W33782  12.508  20.727   0.423
60715W        W33783  23.245  39.835  14.837
60716W        W33784  31.382  25.278   0.339
60717W        W33785  41.217  17.842   1.069
60718W        W33786  39.282  43.833  11.476
60719W        W33787  40.955  33.366   4.850
60720W        W33788  10.552   3.683  12.278
60721W        W33789  43.719  44.396   3.419
60722W        W33790  30.866  24.998   1.768
60723W        W33791  23.679  30.586  11.093
60724W        W33792   0.664  21.660   4.716
60725W        W33793  34.523  44.078  13.854
60726W        W33794  43.935   2.239  14.487
60727W        W33795  17.321  32.238  14.520
60728W        W33796  43.251  23.042  12.462
60729W        W33797   7.883   5.483   3.766
60730W        W33798  18.303  14.700  11.710
60731W        W33799  40.324  24.129   1.152
60732W        W33800   5.734  20.186   3.187
60733W        W33801  43.533  15.212   1.363
60734W        W33802  37.888  39.982  14.970
60735W        W33803   5.302  33.600  13.257
60736W        W33804  18.687  26.787  11.911
60737W        W33805  42.119  24.863   2.664
60738W        W33806  15.250  27.216   0.998
60739W        W33807  38.828  35.468   2.182
60740W        W33808  43.066  13.404  12.512
60741W        W33809  31.987   0.371  13.478
60742W        W33810  42.308  10.189  14.461
60743W        W33811  26.152   0.505   0.664
60744W        W33812  42.832  35.662   2.424
60745W        W33813  13.216  26.277   4.761
60746W        W33814  39.870  13.365   3.580
60747W        W33815  21.767  41.954   1.429
60748W        W33816  35.876   9.797  10.579
60749W        W33817  22.658  43.318   3.873
60750W        W33818  24.800  44.048   4.636
60751W        W33819  42.450  39.837   3.244
60752W        W33820  30.016   1.184  11.099
60753W        W33821  34.576   0.288  14.861
60754W        W33822   2.712  35.140  11.160
60755W        W33823  39.399  31.493   0.300
60756W        W33824  42.566  20.144   1.385
60757W        W33825   1.604  35.995   0.973
60758W        W33826  32.063   4.166  12.877
60759W        W33827   3.344  15.553   0.397
60760W        W33828  29.862  24.763  11.126
60761W        W33829  14.179  11.102  14.996
60762W        W33830  10.583   3.685  14.599
60763W        W33831   7.323  21.735  13.384
60764W        W33832  29.114   8.701   0.677
60765W        W33833  16.038   1.885  10.855
60766W        W33834   6.906   8.511  10.118
60767W        W33835  13.185   6.787  14.770
60768W        W33836   9.394  40.228  11.593
60769W        W33837  35.627  13.851   0.680
60770W        W33838  32.653  29.953  13.730
60771W        W33839  44.415  13.325   4.386
60772W        W33840  16.830  31.848   3.871
60773W        W33841  44.399  14.635   3.724
60774W        W33842   6.470   4.288   1.339
60775W        W33843  25.024  31.159   2.821
60776W        W33844  16.926  34.608   1.224
60777W        W33845  39.044  18.312   2.326
60778W        W33846   5.329  41.703  11.579
60779W        W33847   2.556  27.978  13.060
60780W        W33848  37.875  35.004   1.719
60781W        W33849  16.107   3.318   2.397
60782W        W33850  13.758  26.640  12.048
60783W        W33851  34.071  12.380  10.666
60784W        W33852   7.571  17.437  14.583
60785W        W33853  10.068  34.811   0.251
60786W        W33854  33.747  38.364   2.294
60787W        W33855  10.250  43.504  14.900
60788W        W33856  18.262  22.677   1.314
60789W        W33857  31.515   3.451  12.986
60790W        W33858  33.682  33.209  12.384
60791W        W33859  39.103  36.968  14.570
60792W        W33860   2.812  35.369   0.719
60793W        W33861   3.358  42.922  14.388
60794W        W33862   1.895  41.293  13.554
60795W        W33863  19.817   0.452   2.878
60796W        W33864  37.916   0.853   4.498
60797W        W33865   9.050  44.964   1.835
60798W        W33866   9.211  22.715   4.068
60799W        W33867   2.712   6.226  13.819
60800W        W33868  41.782  31.425  10.936
60801W        W33869  23.290  23.458  14.741
60802W        W33870  42.428  19.295  11.885
60803W        W33871  36.441  44.271  10.311
60804W        W33872  24.133  20.591   3.307
60805W        W33873  42.905  25.680  10.720
60806W        W33874  25.508  30.969   2.711
60807W        W33875  16.981  40.946   2.601
60808W        W33876  35.515  23.266   0.024
60809W        W33877  21.718   1.010  12.129
60810W        W33878   4.668  38.293   2.043
60811W        W33879  39.489  21.073  11.207
60812W        W33880  23.745   9.627  13.376
60813W        W33881  44.502  26.165   2.803
60814W        W33882  28.556  38.936   0.400
60815W        W33883  41.618  22.653  14.969
60816W        W33884   7.146  21.483  11.554
60817W        W33885   5.306  11.193   3.129
60818W        W33886  11.384  38.401  11.079
60819W        W33887   2.086  38.474   3.361
60820W        W33888  17.668   9.860  14.950
60821W        W33889  27.835  16.100  13.387
60822W        W33890  14.259  32.043   3.142
60823W        W33891  31.166  19.473   4.289
60824W        W33892   3.857   4.928   4.919
60825W        W33893   0.280  19.608   3.257
60826W        W33894  12.294   6.499  11.203
60827W        W33895  10.851   7.140  11.779
60828W        W33896  26.024  19.082   4.849
60829W        W33897  36.003  10.924  14.394
60830W        W33898  29.616   1.985   3.756
60831W        W33899  17.186  13.279  13.263
60832W        W33900  21.293  38.514  11.148
60833W        W33901  21.129  29.935  14.016
60834W        W33902   7.978  20.715   2.225
60835W        W33903  22.051  22.583  10.719
60836W        W33904  30.531   9.806   0.977
60837W        W33905  24.497  35.970  13.571
60838W        W33906  10.124  26.973   0.910
60839W        W33907  12.406  12.609   0.847
60840W        W33908  29.936   0.982  10.617
60841W        W33909  25.019   0.166  13.115
60842W        W33910  18.680  33.932   0.722
60843W        W33911  40.122  35.536  13.324
60844W        W33912  40.423  27.936  14.290
60845W        W33913  41.488   0.116  14.553
60846W        W33914  15.240   7.488  11.484
60847W        W33915  21.224  19.007   0.847
60848W        W33916  28.143  10.226   4.209
60849W        W33917  25.639  44.219   3.648
60850W        W33918  21.025  30.203  14.469
60851W        W33919  20.927  35.600   4.672
60852W        W33920  17.221   4.863  11.483
60853W        W33921   6.730  38.516  12.394
60854W        W33922  30.533  24.442   2.810
60855W        W33923  32.453  32.627  10.715
60856W        W33924  31.698   1.204   2.262
60857W        W33925  23.531  39.899   3.863
60858W        W33926  10.351  29.591  14.875
60859W        W33927  41.748  41.430   2.909
60860W        W33928  44.856  35.880  13.655
60861W        W33929  38.214  37.991  12.562
60862W        W33930  36.849  12.542   1.866
60863W        W33931  33.061  17.086   2.797
60864W        W33932   3.243  11.609  13.542
60865W        W33933  35.330  17.215   0.578
60866W        W33934  37.432   4.793   2.891
60867W        W33935  32.537   0.705  10.807
60868W        W33936  17.998  21.682  14.339
60869W        W33937  33.092   2.527   2.499
60870W        W33938   0.470  27.575   3.285
60871W        W33939  43.405  42.934  13.971
60872W        W33940  11.790  15.821   0.838
60873W        W33941  42.250  18.550  10.746
60874W        W33942   1.405  10.397   2.282
60875W        W33943  12.822  38.210  11.172
60876W        W33944  37.546  15.304   3.138
60877W        W33945  12.320  25.080   3.293
60878W        W33946  22.854  32.052  13.975
60879W        W33947  12.386  36.420  12.485
60880W        W33948   2.024   3.281  10.072
60881W        W33949  13.919  38.422   1.205
60882W        W33950  41.088  39.588  14.344
60883W        W33951   6.881  14.345  13.236
60884W        W33952  14.465  34.928  14.457
60885W        W33953  12.180  22.237   1.250
60886W        W33954  33.719  42.827   3.160
60887W        W33955  41.927  17.739   3.159
60888W        W33956  34.868  19.823  14.667
60889W        W33957  27.847  16.521  13.667
60890W        W33958   5.377   4.349  14.370
60891W        W33959  34.810  20.453  13.112
60892W        W33960  17.080  41.691   0.350
60893W        W33961  34.307   8.846  12.515
60894W        W33962  14.853  12.794   3.794
60895W        W33963  21.464  28.432  12.858
60896W        W33964  38.337  23.223  11.831
60897W        W33965  27.527   6.217   3.136
60898W        W33966  28.804   4.435   1.645
60899W        W33967  25.334   9.280  14.443
60900W        W33968  14.158  21.574   0.444
60901W        W33969  18.127  27.562   1.695
60902W        W33970  10.407   5.341  14.870
60903W        W33971   1.274  25.196   1.258
60904W        W33972  19.004   6.684   1.853
60905W        W33973   5.756   1.329   1.861
60906W        W33974  44.056  22.712   5.032
60907W        W33975   8.372  19.209   2.493
60908W        W33976  44.543  17.730   1.713
60909W        W33977  24.164  14.086  12.252
60910W        W33978  43.870  41.517  12.472
60911W        W33979   0.520  39.983   1.325
60912W        W33980  38.605  21.026  11.193
60913W        W33981  41.555  34.573   3.723
60914W        W33982  12.624  19.296  11.162
60915W        W33983  24.481  10.109   2.300
60916W        W33984  30.139  30.944   3.393
60917W        W33985   8.175  28.472  14.404
60918W        W33986  30.755   6.866   1.294
60919W        W33987  36.785  43.317  13.895
60920W        W33988  23.534   1.508  13.814
60921W        W33989  11.941  31.600  11.062
60922W        W33990  29.533  16.597  13.208
60923W        W33991  21.680  24.404  13.361
60924W        W33992  28.609  27.761  13.449
60925W        W33993   0.466   8.193  11.079
60926W        W33994  18.771   6.862  10.785
60927W        W33995   0.253  27.690  12.657
60928W        W33996   3.407  19.021   3.753
60929W        W33997   0.411  31.557   0.551
60930W        W33998  28.997   6.882  12.610
60931W        W33999  39.928  12.454  12.160
60932W        W34000  26.630  27.285   4.061
60933W        W34001  37.358   0.852   0.063
60934W        W34002  14.717  22.013   4.514
60935W        W34003  21.662  25.237  12.071
60936W        W34004  43.160   8.615   2.455
60937W        W34005  40.479  19.212   4.110
60938W        W34006  35.998  27.572   1.960
60939W        W34007  42.219  39.062  12.956
60940W        W34008   8.499  26.517   0.429
60941W        W34009  11.246  26.203   1.833
60942W        W34010  29.962  32.940  14.056
60943W        W34011  26.471  11.181  13.544
60944W        W34012  13.359  32.373  13.066
60945W        W34013  17.069  10.136   4.072
60946W        W34014   9.799  42.741   2.706
60947W        W34015   4.848  19.346  13.832
60948W        W34016  27.974  22.683  10.646
60949W        W34017  12.907  38.735  11.061
60950W        W34018  21.584  37.622   2.265
60951W        W34019  19.684  39.480   1.877
60952W        W34020  22.305  40.948   1.956
60953W        W34021  30.527   7.364  10.771
60954W        W34022  24.245  41.603   2.176
60955W        W34023   8.146  14.738  11.994
60956W        W34024  11.727  16.066   0.378
60957W        W34025  26.212  16.766   4.065
60958W        W34026  27.916  27.621   0.695
60959W        W34027  24.511  19.605  14.336
60960W        W34028  14.892  19.837   1.782
60961W        W34029  19.953  35.506   3.606
60962W        W34030  12.819  16.836  13.097
60963W        W34031  39.557  41.551   1.463
60964W        W34032  33.091  23.539   1.726
60965W        W34033  29.405  42.820   0.036
60966W        W34034  18.785  40.366  12.259
60967W        W34035  33.673  13.504   2.387
60968W        W34036   6.001  35.978  14.513
60969W        W34037  15.366  16.552  12.606
60970W        W34038  28.846  18.754  14.136
60971W        W34039  30.583  22.282   3.104
60972W        W34040   8.818   6.792  12.005
60973W        W34041   2.132  22.011   4.541
60974W        W34042  40.572  25.052  12.555
60975W        W34043   2.689  43.720   0.228
60976W        W34044  39.739  19.173  13.621
60977W        W34045   9.531  29.647   2.201
60978W        W34046  31.582   6.136  11.166
60979W        W34047  15.874   6.789  12.928
60980W        W34048  32.185  16.166  14.922
60981W        W34049  42.445  30.595   0.494
60982W        W34050   5.058  16.865   4.254
60983W        W34051   1.892   0.756   1.533
60984W        W34052  22.707  36.933   1.925
60985W        W34053   1.326  31.374   4.657
60986W        W34054   8.497   7.667   4.535
60987W        W34055  37.333  16.593   0.179
60988W        W34056  30.014  10.882  11.379
60989W        W34057   3.016   2.293  14.914
60990W        W34058  12.054  27.117  11.535
60991W        W34059  24.058   6.927   4.115
60992W        W34060   4.793  25.424   2.184
60993W        W34061  37.456  38.803   2.162
60994W        W34062  14.226   8.881  13.040
60995W        W34063  22.465  19.030  13.965
60996W        W34064  17.209  40.028   2.732
60997W        W34065  21.266  31.059   2.409
60998W        W34066  17.473  18.303   0.429
60999W        W34067   6.410  44.350  14.224
61000W        W34068  30.558  32.099  11.624
61001W        W34069   4.718  13.622  14.815
61002W        W34070   7.638  36.736   1.357
61003W        W34071  39.686  17.700  12.174
61004W        W34072  33.666  23.015  12.998
61005W        W34073   1.165   1.312   3.886
61006W        W34074  16.795  44.373   4.161
61007W        W34075  18.283   4.882  11.693
61008W        W34076  21.042  38.294   2.365
61009W        W34077   5.187  31.902   3.633
61010W        W34078  31.426  12.321  14.851
61011W        W34079   5.166  24.011   0.330
61012W        W34080  40.808  35.494  13.900
61013W        W34081  41.985  39.466   2.309
61014W        W34082  39.232   5.836  12.349
61015W        W34083   6.742  24.212   3.084
61016W        W34084  25.510  12.740  13.503
61017W        W34085  34.327  21.223  14.997
61018W        W34086   7.710   8.840  10.541
61019W        W34087  19.195  39.059   4.264
61020W        W34088  11.040   3.392   3.734
61021W        W34089   3.861   6.974  13.938
61022W        W34090  27.070  17.253  13.034
61023W        W34091  19.617  27.542  12.863
61024W        W34092  34.501  37.042   0.338
61025W        W34093  32.334  35.563   1.317
61026W        W34094   5.682  18.301   2.922
61027W        W34095   3.856  29.341   2.376
61028W        W34096  16.761  12.339  10.914
61029W        W34097   3.249  17.311  12.422
61030W        W34098  22.024   1.549   3.430
61031W        W34099  12.074   2.654  14.001
61032W        W34100  43.517  39.446  12.895
61033W        W34101  41.403   7.744  14.655
61034W        W34102  36.937  16.043  11.523
61035W        W34103   8.907  29.845   3.337
61036W        W34104  16.832  44.740  13.853
61037W        W34105  32.115   0.264   3.919
61038W        W34106  42.977   3.283  11.313
61039W        W34107   0.255  16.082  12.917
61040W        W34108  27.127  38.095  14.573
61041W        W34109  10.250  40.485   0.275
61042W        W34110   0.476  24.577   3.283
61043W        W34111  15.710   6.394   3.169
61044W        W34112   6.672   7.848  11.842
61045W        W34113  29.864  30.537   3.254
61046W        W34114  22.133   8.362   1.287
61047W        W34115  24.966  39.791   0.372
61048W        W34116  38.485  16.825   0.002
61049W        W34117  27.277  11.390  10.696
61050W        W34118   6.385  37.920  14.413
61051W        W34119  42.621  38.800   2.335
61052W        W34120  44.435  33.908  12.439
61053W        W34121  38.061  18.182   3.355
61054W        W34122  10.175  15.301   3.354
61055W        W34123  14.078  39.038   1.949
61056W        W34124  34.091  19.993  10.692
61057W        W34125   2.639  26.938   4.125
61058W        W34126  28.902  36.620  13.878
61059W        W34127  26.694  15.791  10.832
61060W        W34128  22.990  16.251  14.827
61061W        W34129   4.653  14.666   1.378
61062W        W34130  32.932  39.025  12.112
61063W        W34131  36.387   8.020  12.044
61064W        W34132  29.215   6.984   0.374
61065W        W34133  11.689   9.174   9.895
61066W        W34134  17.358  23.772  12.910
61067W        W34135  40.494   9.227   3.333
61068W        W34136  41.478   3.029   4.672
61069W        W34137  14.551   1.750  10.749
61070W        W34138  18.226   0.646  13.061
61071W        W34139  29.739  16.067   1.807
61072W        W34140  22.233  41.515  12.432
61073W        W34141  22.216  40.221   4.564
61074W        W34142  16.681  10.616  14.388
61075W        W34143  44.385  44.892   1.559
61076W        W34144   8.097  16.725   3.137
61077W        W34145  19.184  20.632   2.302
61078W        W34146  12.196  11.245  14.223
61079W        W34147  25.041   0.254   0.921
61080W        W34148  17.340  34.888   3.349
61081W        W34149   3.046  35.032   4.404
61082W        W34150   8.885  37.050   3.189
61083W        W34151  31.510  17.828  12.313
61084W        W34152  43.549   7.804   0.628
61085W        W34153  37.659  30.617   0.209
61086W        W34154  38.485  15.625   4.525
61087W        W34155  40.526  21.143  10.278
61088W        W34156   7.172  23.034  11.247
61089W        W34157  43.966  29.859   4.694
61090W        W34158  10.881   2.129  11.134
61091W        W34159  19.225   8.764  13.474
61092W        W34160  22.014  15.639  11.477
61093W        W34161  16.015  10.226  12.323
61094W        W34162  29.827  25.997  12.309
61095W        W34163   5.052  33.979  14.449
61096W        W34164  32.860  23.189  11.794
61097W        W34165   6.353  41.375  11.119
61098W        W34166  25.149  28.095  11.178
61099W        W34167  14.390  14.743  10.762
61100W        W34168  31.503  15.547   3.132
61101W        W34169  20.932  21.520  13.337
61102W        W34170  42.970  29.068   4.787
61103W        W34171   6.729  11.330   2.315
61104W        W34172   2.449  21.129   1.374
61105W        W34173  44.875  21.302  11.121
61106W        W34174  36.973  11.734   3.442
61107W        W34175  41.412  16.191  14.950
61108W        W34176  35.577  25.966   3.570
61109W        W34177  19.531  23.179   4.579
61110W        W34178  44.563  28.096  11.434
61111W        W34179  13.769  30.136   4.224
61112W        W34180  42.718   2.577  13.779
61113W        W34181  18.250  24.610  14.876
61114W        W34182  23.862   7.884   1.801
61115W        W34183  27.976  34.383   3.855
61116W        W34184  20.701  31.443   3.194
61117W        W34185   1.682  24.007  13.117
61118W        W34186   8.458   1.318   0.380
61119W        W34187  40.553  22.155  14.431
61120W        W34188  38.316  14.695   0.625
61121W        W34189   3.676  20.788   0.266
61122W        W34190  11.884  33.482   1.455
61123W        W34191  26.558   8.307   0.049
61124W        W34192   3.340  24.268   5.058
61125W        W34193  20.298   4.934   3.176
61126W        W34194  37.148  26.968  14.846
61127W        W34195  42.065  26.381   5.113
61128W        W34196  11.845  26.988   4.550
61129W        W34197  11.263  20.161   4.537
61130W        W34198  10.649  37.246  14.943
61131W        W34199  38.326  12.085   3.652
61132W        W34200   9.686   9.274   0.626
61133W        W34201  23.542  32.359   4.255
61134W        W34202   3.187   1.473   1.397
61135W        W34203  16.182   1.020   4.602
61136W        W34204  30.878   3.293   4.993
61137W        W34205  33.312  39.920   4.048
61138W        W34206  25.171  20.546  12.918
61139W        W34207  43.104   6.237   2.712
61140W        W34208  15.062  18.728  11.993
61141W        W34209   3.153  35.027   2.262
61142W        W34210   4.234  37.452  13.922
61143W        W34211  18.744  42.611  11.492
61144W        W34212  35.871   3.101   2.314
61145W        W34213  20.335  25.604   3.904
61146W        W34214  42.617   8.178   1.316
61147W        W34215  21.176  38.066  10.592
61148W        W34216   8.940  35.027   4.047
61149W        W34217  16.337   0.526  13.477
61150W        W34218  19.054  35.656   3.715
61151W        W34219  32.676   6.561  10.304
61152W        W34220   2.188  40.684  10.739
61153W        W34221  34.128  40.293   2.288
61154W        W34222   3.016  23.915  14.447
61155W        W34223   3.493  17.045   0.285
61156W        W34224  17.719   1.349  10.956
61157W        W34225  27.039  31.567   4.695
61158W        W34226  36.971  21.685   4.644
61159W        W34227  23.788  15.387  12.975
61160W        W34228  27.538   3.022  10.728
61161W        W34229   7.719  24.493   0.917
61162W        W34230   1.471  24.039  13.581
61163W        W34231  39.771  36.946   3.179
61164W        W34232  11.580  35.577   2.724
61165W        W34233  39.889   4.010   0.229
61166W        W34234  36.941  44.829  10.750
61167W        W34235   9.398  20.940   3.299
61168W        W34236  38.509   7.626  14.045
61169W        W34237  29.071  18.773  11.591
61170W        W34238  33.426  24.459  12.015
61171W        W34239  11.772   6.766   1.894
61172W        W34240  22.960   9.685   1.805
61173W        W34241  11.863  27.294   0.395
61174W        W34242   2.884  23.988   4.884
61175W        W34243   0.717   6.637  13.344
61176W        W34244  17.665  44.845   4.121
61177W        W34245  34.705  29.533  11.099
61178W        W34246  21.515   1.601   4.768
61179W        W34247   0.758   7.761  11.136
61180W        W34248   3.459  41.075   1.060
61181W        W34249  39.633   4.307   1.569
61182W        W34250  23.552  34.393  11.163
61183W        W34251   6.272  35.539  14.777
61184W        W34252   2.160  30.502  13.908
61185W        W34253  11.145  35.019  14.864
61186W        W34254  27.248  36.993  11.594
61187W        W34255  38.530   2.635   3.849
61188W        W34256  19.591   3.435   2.298
61189W        W34257  24.042  16.243  13.511
61190W        W34258  38.552   5.522  12.850
61191W        W34259  42.328   2.716   0.282
61192W        W34260  35.505  25.234   4.673
61193W        W34261   8.141   4.295  14.478
61194W        W34262  23.200  24.450  13.239
61195W        W34263  43.462   2.788   3.614
61196W        W34264   5.166  11.328  12.144
61197W        W34265  27.265  38.170   3.765
61198W        W34266  29.882  26.233  14.416
61199W        W34267  38.278   4.511  12.063
61200W        W34268  26.493   4.222   4.085
61201W        W34269  40.299  36.101   3.749
61202W        W34270  14.026  42.006  13.831
61203W        W34271  35.222  19.296  13.012
61204W        W34272  26.577  29.965  13.461
61205W        W34273  18.179  28.634  12.418
61206W        W34274  26.031  19.889   4.441
61207W        W34275   0.067  31.069  12.459
61208W        W34276  24.380  37.668  10.496
61209W        W34277  34.812  22.465   9.897
61210W        W34278   3.203   6.360  13.779
61211W        W34279  34.740  21.993   1.402
61212W        W34280  43.372  36.328  11.201
61213W        W34281  23.547  39.624  13.452
61214W        W34282  26.411  23.415  10.317
61215W        W34283  37.942  38.883  12.002
61216W        W34284   0.697  13.286  12.928
61217W        W34285  17.032  31.045  13.482
61218W        W34286  29.722  38.859   5.080
61219W        W34287  41.078  32.060  12.290
61220W        W34288  34.517  33.660   4.546
61221W        W34289  15.892  14.739  13.383
61222W        W34290  14.402   3.171  10.762
61223W        W34291  42.494   4.903   1.666
61224W        W34292  41.622  44.901   4.995
61225W        W34293  15.719   6.054  10.538
61226W        W34294  22.568  37.837   1.974
61227W        W34295  30.614  35.773   0.998
61228W        W34296  20.162   6.425   3.235
61229W        W34297  20.048   6.582   2.761
61230W        W34298  15.178  15.199   4.454
61231W        W34299  22.643  39.635  14.411
61232W        W34300  34.191  42.126   3.045
61233W        W34301   4.933  34.911  11.573
61234W        W34302  31.119  37.921  11.482
61235W        W34303  23.027   3.517   4.140
61236W        W34304  38.036  44.292   2.795
61237W        W34305  20.117   1.411  12.208
61238W        W34306   8.581  43.094   1.363
61239W        W34307  21.244  18.055   1.867
61240W        W34308  23.552   6.721  12.516
61241W        W34309   6.206   6.332   1.420
61242W        W34310   5.575  27.030  10.757
61243W        W34311  25.571   3.247  13.418
61244W        W34312   6.423  43.507  12.265
61245W        W34313  33.409   1.308   1.953
61246W        W34314   2.797  21.296   2.183
61247W        W34315  20.231   6.665   2.285
61248W        W34316  21.708   4.859  12.925
61249W        W34317  38.953  44.392   0.699
61250W        W34318  34.626   3.120  11.045
61251W        W34319  44.896   6.277  10.136
61252W        W34320  42.676  14.059   0.746
61253W        W34321  43.427  32.163  12.148
61254W        W34322   1.936   3.209   2.346
61255W        W34323  27.998   9.643  13.969
61256W        W34324   3.114  43.556  14.893
61257W        W34325   8.469  35.938  13.075
61258W        W34326  36.089  22.973  11.029
61259W        W34327  23.003   9.345   4.361
61260W        W34328  10.139  30.989  14.971
61261W        W34329  25.615   6.878   1.682
61262W        W34330   4.214  43.069  14.353
61263W        W34331  18.007  17.548  12.885
61264W        W34332  14.871  22.324   1.681
61265W        W34333  38.515  20.198  10.737
61266W        W34334  11.417  42.856  13.964
61267W        W34335   0.710  13.537  13.587
61268W        W34336  27.652  19.121  14.759
61269W        W34337  28.437  26.254  13.445
61270W        W34338  11.645  12.257  10.819
61271W        W34339   1.680  16.273   1.359
61272W        W34340   3.925  31.397   2.241
61273W        W34341  21.151  16.162   5.028
61274W        W34342  11.321  39.047   1.059
61275W        W34343  13.484  44.356   1.396
61276W        W34344   7.762  43.810   3.849
61277W        W34345  37.762  38.686  10.921
61278W        W34346  32.474   9.510  13.784
61279W        W34347   8.321   8.204   4.392
61280W        W34348  41.036  16.159   0.357
61281W        W34349   9.918  26.284  11.596
61282W        W34350  12.759  27.566  11.409
61283W        W34351  35.089  15.108  11.163
61284W        W34352  15.605  13.127   2.256
61285W        W34353   5.943  36.464  11.617
61286W        W34354  27.722  26.496   5.409
61287W        W34355  23.940   0.417  11.488
61288W        W34356  23.986  37.378   1.015
61289W        W34357  31.611  14.292  11.008
61290W        W34358   8.991  26.161   0.893
61291W        W34359  40.611  30.924  13.817
61292W        W34360  27.617  24.913  12.529
61293W        W34361  24.689  33.563  13.407
61294W        W34362  14.675  24.604  14.373
61295W        W34363  23.529  22.237   1.294
61296W        W34364  31.886  33.409   0.680
61297W        W34365  15.942  18.004   0.943
61298W        W34366  16.473   7.819   3.214
61299W        W34367  34.476   3.299  11.912
61300W        W34368   2.750  18.125   3.625
61301W        W34369  26.238  22.061  10.444
61302W        W34370  18.513  33.177   2.595
61303W        W34371  44.981  43.287  13.108
61304W        W34372  22.005  17.808   5.181
61305W        W34373  35.461   3.339  14.889
61306W        W34374  25.670   5.740   0.413
61307W        W34375  34.631  34.919  13.134
61308W        W34376  21.253  26.701   3.497
61309W        W34377  30.942  21.978  14.456
61310W        W34378  37.580  16.942   3.973
61311W        W34379  10.687   2.658  13.218
61312W        W34380  20.051   7.976   4.114
61313W        W34381  16.275   2.513   1.846
61314W        W34382  20.477  21.625   0.387
61315W        W34383  40.157  23.182  12.699
61316W        W34384   2.703  24.041   1.806
61317W        W34385  19.696  21.127  10.669
61318W        W34386   3.545  31.813   0.987
61319W        W34387  13.873  16.861   2.777
61320W        W34388  38.427  29.275   2.444
61321W        W34389  21.596  30.196  13.436
61322W        W34390  16.339  15.505  12.005
61323W        W34391  11.153  32.441   1.785
61324W        W34392  36.627  44.733   1.989
61325W        W34393   1.315  32.197   0.496
61326W        W34394   2.401  27.183   1.396
61327W        W34395  18.561   0.349  11.028
61328W        W34396  30.772   0.148   0.272
61329W        W34397   7.139  36.816   1.268
61330W        W34398   4.747  15.843   3.596
61331W        W34399  20.664  33.006   3.040
61332W        W34400  35.498  34.808  12.946
61333W        W34401  19.244  32.356   4.030
61334W        W34402  27.806  33.479  10.247
61335W        W34403  42.342  20.831  13.364
61336W        W34404  27.434   9.785   1.905
61337W        W34405  31.107  22.017  11.521
61338W        W34406  18.737   7.120  13.349
61339W        W34407  22.665  33.925   3.315
61340W        W34408  28.397  24.550  13.796
61341W        W34409  25.985  13.443  12.116
61342W        W34410  18.591  38.337  11.394
61343W        W34411  39.632  15.196   5.130
61344W        W34412  30.536  22.418  10.947
61345W        W34413  31.717  17.337   4.666
61346W        W34414  16.537   6.711   4.039
61347W        W34415  10.746  18.016   3.791
61348W        W34416  20.242  11.937  12.876
61349W        W34417   0.806  31.438   4.596
61350W        W34418   4.402  37.272   3.271
61351W        W34419  33.513  11.678  10.950
61352W        W34420  18.382  42.918   3.912
61353W        W34421   7.100  21.745   4.155
61354W        W34422  34.852  12.776  12.447
61355W        W34423  26.503  35.299   2.649
61356W        W34424   5.349  12.993   0.454
61357W        W34425   8.530   1.233  12.430
61358W        W34426  38.477  21.743  14.042
61359W        W34427  37.041  44.320  14.304
61360W        W34428  28.466  18.996  12.840
61361W        W34429   8.891   3.353  14.015
61362W        W34430  18.711  38.604  10.966
61363W        W34431  13.669  36.112  14.369
61364W        W34432  25.167  27.484  10.522
61365W        W34433  30.059   1.706   3.670
61366W        W34434  42.918  17.174   4.129
61367W        W34435  24.982  16.609  11.897
61368W        W34436   9.734  28.535   2.664
61369W        W34437  44.662  23.330   0.933
61370W        W34438  24.626  33.554   2.279
61371W        W34439  23.055  31.058  12.468
61372W        W34440  23.193  28.938  12.464
61373W        W34441   2.961  17.321  12.840
61374W        W34442  30.611  19.643   4.680
61375W        W34443  18.636  15.137   0.008
61376W        W34444   9.386  39.662   1.765
61377W        W34445  34.817  11.342   1.203
61378W        W34446  29.485   5.319  14.961
61379W        W34447  26.263  19.432   4.539
61380W        W34448  32.130  36.098   3.172
61381W        W34449  41.709  13.280   3.607
61382W        W34450  33.990  12.212  11.605
61383W        W34451  15.196  31.697   0.952
61384W        W34452  11.274  44.926   4.110
61385W        W34453  11.608  31.522  11.456
61386W        W34454  29.417  42.445   1.220
61387W        W34455  33.047  41.537   0.344
61388W        W34456  15.343  23.739  13.398
61389W        W34457  21.646  37.458   2.765
61390W        W34458  24.218  32.879  14.416
61391W        W34459  19.641  38.546  10.629
61392W        W34460  24.797  39.053   2.786
61393W        W34461  35.103  33.357   3.270
61394W        W34462  18.344  34.082   2.127
61395W        W34463  31.919  23.680  11.523
61396W        W34464  44.370  43.171  13.925
61397W        W34465   0.496  22.952   4.206
61398W        W34466   9.902   9.875  10.987
61399W        W34467  37.786  41.435  14.496
61400W        W34468   6.736  36.865   3.614
61401W        W34469  23.020  26.953   3.342
61402W        W34470  32.401  15.827  10.697
61403W        W34471  21.913  22.213  14.331
61404W        W34472  41.360  44.318   4.622
61405W        W34473  30.531   0.349  11.140
61406W        W34474  38.715   8.051  13.795
61407W        W34475  29.679  16.539  12.716
61408W        W34476  22.813   1.331  14.967
61409W        W34477  12.964   8.532   3.249
61410W        W34478  10.914  21.256   4.095
61411W        W34479   9.354  27.577   4.699
61412W        W34480  14.744  42.050   2.675
61413W        W34481  38.662  21.540  12.093
61414W        W34482  36.885  16.379   4.465
61415W        W34483  13.326  15.558  13.880
61416W        W34484  25.983  12.841  10.692
61417W        W34485  28.520  12.190   2.113
61418W        W34486  11.774  20.263   4.504
61419W        W34487  27.435  40.534  13.825
61420W        W34488  33.595   5.914   4.426
61421W        W34489  33.021  20.152   2.867
61422W        W34490  41.826  24.031  11.570
61423W        W34491  24.602  41.297  13.074
61424W        W34492  15.955  14.245   0.191
61425W        W34493  14.841  31.940  14.395
61426W        W34494  25.774   1.165   1.894
61427W        W34495  23.227  32.065  12.508
61428W        W34496  20.313  42.438   3.107
61429W        W34497  21.117  26.859   4.717
61430W        W34498  30.165  40.792   1.350
61431W        W34499  37.576   9.140   2.247
61432W        W34500  25.609  25.036   3.179
61433W        W34501  16.936  44.557   5.080
61434W        W34502  39.872  30.566   0.273
61435W        W34503   7.914  21.832   4.533
61436W        W34504  33.202   7.634  10.984
61437W        W34505  32.413   8.718   3.322
61438W        W34506  36.325  34.934   1.032
61439W        W34507  27.054  42.953   0.869
61440W        W34508   3.686  30.018  10.666
61441W        W34509   5.018  41.480  12.874
61442W        W34510  17.255  15.084   3.218
61443W        W34511  20.937  20.053  14.314
61444W        W34512  39.576  37.538   2.693
61445W        W34513  37.885   7.452   3.734
61446W        W34514  43.282  25.030  10.732
61447W        W34515   1.842  26.183   1.024
61448W        W34516  16.791   8.326  12.531
61449W        W34517  11.643  17.178   1.186
61450W        W34518  41.490  18.726   4.595
61451W        W34519  37.918  23.684   1.372
61452W        W34520  17.696  32.079   0.002
61453W        W34521  42.277   7.844   4.030
61454W        W34522  17.658  14.605  14.840
61455W        W34523  35.541  16.634  10.755
61456W        W34524  28.866  18.416   2.283
61457W        W34525  19.764  37.026   2.206
61458W        W34526  12.711  27.962  14.007
61459W        W34527   4.124  17.818   4.259
61460W        W34528  33.929  22.025   0.828
61461W        W34529  25.265  20.974  14.388
61462W        W34530  18.715  28.640   3.402
61463W        W34531  19.166  24.144   0.239
61464W        W34532  11.795  27.485  11.252
61465W        W34533  23.826  14.207  10.500
61466W        W34534   2.656   7.948   1.404
61467W        W34535  12.288  13.654  14.090
61468W        W34536  26.450  39.934  12.377
61469W        W34537  14.169  12.114  11.935
61470W        W34538  22.669  44.044  10.652
61471W        W34539   6.550  43.529   0.392
61472W        W34540  21.185  20.604  12.508
61473W        W34541  10.442  16.662   3.232
61474W        W34542  30.327   7.373  14.288
61475W        W34543  44.139  21.281  11.538
61476W        W34544  17.199   4.853  14.203
61477W        W34545  12.849  39.083   3.632
61478W        W34546  30.386  27.890  12.524
61479W        W34547   0.674  10.988  13.869
61480W        W34548  29.996   3.003   0.886
61481W        W34549   2.594  36.225   0.707
61482W        W34550  27.426  42.222   3.578
61483W        W34551  25.711   4.203  14.516
61484W        W34552  32.507  38.665  14.223
61485W        W34553  26.368  41.735   1.126
61486W        W34554  24.170   8.332  11.971
61487W        W34555  10.310  24.283   3.239
61488W        W34556  40.969  20.203  12.001
61489W        W34557  27.098  29.876  12.833
61490W        W34558   5.331   9.391   1.500
61491W        W34559  29.504  34.155   1.663
61492W        W34560  36.923  33.157   2.892
61493W        W34561   7.482  42.405   2.469
61494W        W34562  30.590  33.342   0.736
61495W        W34563  40.107  42.251   0.296
61496W        W34564  42.496   3.036  13.019
61497W        W34565  38.086  37.319   0.735
61498W        W34566   3.304  15.820  11.436
61499W        W34567  17.372  20.078   3.287
61500W        W34568  38.002  34.896  11.128
61501W        W34569  26.544  25.970   3.272
61502W        W34570  42.293  29.875   1.758
61503W        W34571  19.770  20.134   2.835
61504W        W34572  44.834  14.869   3.533
61505W        W34573  26.020  35.563   4.595
61506W        W34574  35.674  24.196   2.337
61507W        W34575  28.001   6.869  10.731
61508W        W34576  44.714  35.076   4.083
61509W        W34577  39.308  23.958  12.909
61510W        W34578   7.376  16.675  11.883
61511W        W34579  30.001   7.528   3.248
61512W        W34580  27.039   9.167  13.461
61513W        W34581   6.229  36.093   1.280
61514W        W34582  37.393  38.980  10.698
61515W        W34583  22.720  31.670   1.859
61516W        W34584  43.606  26.174  11.161
61517W        W34585   6.717   7.813  12.341
61518W        W34586  44.942  25.119  14.566
61519W        W34587   6.807  40.635   1.537
61520W        W34588  40.454  24.723  11.700
61521W        W34589  14.069  28.680  14.420
61522W        W34590  39.691  35.381   4.174
61523W        W34591  26.246  29.349   2.282
61524W        W34592  14.131  19.125  13.560
61525W        W34593  44.942  16.357  12.601
61526W        W34594  10.265   2.543   1.787
61527W        W34595  17.174   4.323  11.253
61528W        W34596  24.576  37.595  13.901
61529W        W34597  14.936   3.671   3.529
61530W        W34598  20.522  16.901  12.570
61531W        W34599  42.354  17.675   1.086
61532W        W34600  10.276   0.395   4.220
61533W        W34601  27.730  39.514  13.466
61534W        W34602  39.072  40.471  12.000
61535W        W34603  17.183  17.610  13.240
61536W        W34604  37.327   3.934  11.899
61537W        W34605  39.880  27.668   1.795
61538W        W34606  40.654   4.288  13.970
61539W        W34607   9.797  29.066   0.697
61540W        W34608   2.073  40.997   0.318
61541W        W34609   4.913  19.435   4.176
61542W        W34610  23.514   6.902   0.755
61543W        W34611  44.268  21.651  11.926
61544W        W34612  43.810  28.514  11.968
61545W        W34613  27.551   3.536   2.323
61546W        W34614  14.803  31.540   3.804
61547W        W34615  14.185  43.370   2.377
61548W        W34616   7.053  13.406  12.989
61549W        W34617  14.078  22.599  12.981
61550W        W34618  14.930  21.587   4.314
61551W        W34619  33.322   5.636  12.887
61552W        W34620   0.506  44.568  11.940
61553W        W34621  41.305   3.505   4.554
61554W        W34622  25.236  20.573   0.238
61555W        W34623  25.305  19.667   1.317
61556W        W34624  32.616   2.398  13.559
61557W        W34625   6.276   2.413  14.359
61558W        W34626  22.607  31.225  13.384
61559W        W34627  40.053  10.794   2.739
61560W        W34628  13.066  10.205  14.988
61561W        W34629   3.347   7.424  11.664
61562W        W34630  36.033   9.664  13.890
61563W        W34631  18.618  16.805   2.227
61564W        W34632  43.163   5.576  12.270
61565W        W34633   8.813  25.275   1.421
61566W        W34634   0.070  23.981   0.176
61567W        W34635  41.349  27.120  14.496
61568W        W34636   0.361  34.369  11.145
61569W        W34637  21.716  17.759  10.807
61570W        W34638  28.062  20.618   2.261
61571W        W34639  36.000  10.181   4.632
61572W        W34640  23.786   7.920   0.748
61573W        W34641  30.948  37.314   2.334
61574W        W34642  40.313  10.701  11.622
61575W        W34643   9.937  19.840  10.606
61576W        W34644   5.244   8.671  14.692
61577W        W34645   7.679  13.623  12.616
61578W        W34646  15.764  12.732  10.610
61579W        W34647   2.453  10.424   3.952
61580W        W34648  38.329  34.563   3.665
61581W        W34649  23.661   0.637  12.418
61582W        W34650  44.874  27.722  11.599
61583W        W34651  39.085  28.675   1.550
61584W        W34652  28.561  21.110  11.033
61585W        W34653  28.641  40.773  12.476
61586W        W34654  13.658  15.091  14.255
61587W        W34655  30.653  23.643  14.864
61588W        W34656  17.110  26.023  13.241
61589W        W34657  14.975  28.455  13.500
61590W        W34658  37.756  16.169  10.542
61591W        W34659  42.443   3.263  10.497
61592W        W34660  33.397  17.177  14.853
61593W        W34661  10.199   1.505   1.811
61594W        W34662   9.063   5.810  14.895
61595W        W34663  21.293  39.814  11.543
61596W        W34664  42.741  21.799  11.942
61597W        W34665  13.237  26.529  12.166
61598W        W34666   7.386  25.633   0.371
61599W        W34667   4.796   4.465   0.914
61600W        W34668   0.575  28.595  11.175
61601W        W34669  43.428  34.674  14.000
61602W        W34670  18.085  15.661  11.918
61603W        W34671  27.968  39.999  11.251
61604W        W34672  34.978  38.126  10.744
61605W        W34673  20.182   5.888  12.055
61606W        W34674  12.798  42.856   3.320
61607W        W34675  42.225  39.625   2.801
61608W        W34676  13.467  44.573   0.445
61609W        W34677  22.092  19.333  13.058
61610W        W34678  35.859  17.276  12.561
61611W        W34679  33.556  40.970  13.875
61612W        W34680  39.628  41.183  11.289
61613W        W34681  30.069  15.799   2.155
61614W        W34682  15.350  29.507   0.446
61615W        W34683  21.576  36.058   1.368
61616W        W34684  12.629  25.527   3.271
61617W        W34685  17.825   6.732   3.531
61618W        W34686  21.841  29.064   3.716
61619W        W34687   3.139   8.837  14.087
61620W        W34688   4.770  22.900  14.744
61621W        W34689  23.844  21.553  14.127
61622W        W34690   3.193  25.973   0.269
61623W        W34691   3.794  23.765  14.911
61624W        W34692  22.711  28.098   2.703
61625W        W34693  25.658  43.567   4.791
61626W        W34694  38.869  16.604  12.845
61627W        W34695  28.919   4.965  11.220
61628W        W34696  35.443  10.229  11.874
61629W        W34697  19.588   8.090  13.278
61630W        W34698  28.530   0.976  10.490
61631W        W34699  22.715   9.807   4.430
61632W        W34700  37.173  18.850   4.957
61633W        W34701  26.681  29.600   0.835
61634W        W34702   2.963  10.266   1.804
61635W        W34703  27.713   2.960  14.316
61636W        W34704  10.303  29.664  11.139
61637W        W34705   5.208   9.438  11.862
61638W        W34706  40.510  28.593   3.178
61639W        W34707  30.489   8.453   4.097
61640W        W34708  38.834  42.487   2.778
61641W        W34709   3.647  10.218  10.604
61642W        W34710   6.539  31.181   2.909
61643W        W34711  29.565   9.111   1.377
61644W        W34712  24.944  25.906  13.941
61645W        W34713  12.735  31.946  11.634
61646W        W34714  14.836  37.036  10.808
61647W        W34715  29.099  19.985  14.491
61648W        W34716  10.772   8.116  13.869
61649W        W34717  24.105  25.994   2.860
61650W        W34718  32.046  34.546  12.083
61651W        W34719  22.678  44.779  10.003
61652W        W34720  30.625  14.298  12.554
61653W        W34721  10.235  12.798   2.337
61654W        W34722   0.794  26.013   3.145
61655W        W34723  39.916  32.090  11.394
61656W        W34724  36.928  21.543   1.374
61657W        W34725  27.396   4.717   1.231
61658W        W34726  32.512   2.994   1.379
61659W        W34727  32.808   5.724  12.867
61660W        W34728   4.213  13.156   2.138
61661W        W34729  39.942  18.524   2.838
61662W        W34730  43.729  40.434  10.700
61663W        W34731  35.671  38.786  14.564
61664W        W34732  39.574  13.701  12.974
61665W        W34733   6.014  42.290  14.406
61666W        W34734  37.960  25.478  13.416
61667W        W34735   0.112  23.859   2.831
61668W        W34736   5.600  39.474  14.235
61669W        W34737  43.278  11.314   0.809
61670W        W34738   7.922  42.812   1.855
61671W        W34739  24.065  44.070   4.111
61672W        W34740  30.113  38.975  13.025
61673W        W34741  11.583  33.281  10.784
61674W        W34742  13.733   0.425   1.903
61675W        W34743  10.182   4.776   4.724
61676W        W34744   0.235  37.035  13.044
61677W        W34745  35.570  19.670   1.435
61678W        W34746  31.113  15.399   0.072
61679W        W34747  39.008   2.716  11.122
61680W        W34748  15.558  37.615   2.750
61681W        W34749  32.757   1.179  10.764
61682W        W34750   6.346  29.859  11.188
61683W        W34751  16.131  35.950   4.994
61684W        W34752  12.600  37.840   1.238
61685W        W34753   6.391  41.917   1.347
61686W        W34754  29.141  15.818  12.609
61687W        W34755  10.907  19.250  12.968
61688W        W34756   6.270  33.939  13.019
61689W        W34757  34.124  39.555   4.104
61690W        W34758  20.031  33.901   4.382
61691W        W34759  40.324  34.138   0.419
61692W        W34760  26.653  17.412   5.045
61693W        W34761   9.375  28.079   2.625
61694W        W34762  39.382   3.835   0.282
61695W        W34763  15.590   9.722   3.514
61696W        W34764  29.761  25.141   4.461
61697W        W34765  17.511  40.403  12.820
61698W        W34766  24.431  23.569   2.786
61699W        W34767  40.487   9.048   4.924
61700W        W34768  10.265   1.686  10.817
61701W        W34769  26.952  30.451   0.606
61702W        W34770  29.173  44.511   1.390
61703W        W34771  31.781  38.290  14.431
61704W        W34772  40.602  37.958  10.911
61705W        W34773   1.778  32.048   0.674
61706W        W34774  16.242  23.049   4.598
61707W        W34775  26.508  39.756  14.384
61708W        W34776   8.399  31.965  13.026
61709W        W34777  11.069   8.229  13.462
61710W        W34778  35.793  21.230   0.046
61711W        W34779   9.860  24.068   3.387
61712W        W34780  27.985  33.222  13.944
61713W        W34781  35.637  24.640  12.918
61714W        W34782  13.575  37.274  10.731
61715W        W34783  22.976  37.561   1.323
61716W        W34784  15.473  13.799  12.153
61717W        W34785  15.033  12.340  14.375
61718W        W34786   8.637   3.692   1.029
61719W        W34787  17.963   2.702   0.753
61720W        W34788  26.013  42.865  10.548
61721W        W34789  13.165  31.466  12.983
61722W        W34790  14.074  10.817   4.118
61723W        W34791  34.794  34.020  13.770
61724W        W34792  30.717   2.798   3.186
61725W        W34793  17.822  14.114  11.532
61726W        W34794  32.797  22.170  14.290
61727W        W34795   5.889   6.195   2.913
61728W        W34796  15.072  23.952  12.449
61729W        W34797  27.424  34.573  14.954
61730W        W34798   6.006   6.984  14.408
61731W        W34799   6.164  23.646  14.215
61732W        W34800   1.383  44.071   4.180
61733W        W34801  26.072   1.732   5.055
61734W        W34802  19.154  31.619   0.635
61735W        W34803  24.735   5.478   1.707
61736W        W34804   4.322  31.279  14.048
61737W        W34805  25.587  29.064  12.414
61738W        W34806  18.225  27.062   1.795
61739W        W34807  16.528  37.957   2.778
61740W        W34808   3.036  24.469   4.691
61741W        W34809  13.154  41.204  11.919
61742W        W34810   0.984   8.912   2.255
61743W        W34811  36.179  23.135  12.523
61744W        W34812  36.905  43.715  13.618
61745W        W34813  18.829  36.526   0.382
61746W        W34814   3.470  10.929   0.728
61747W        W34815  36.445  15.122   1.310
61748W        W34816   5.248  39.841   0.255
61749W        W34817  38.574  42.156  14.343
61750W        W34818   4.891  15.182  12.777
61751W        W34819  42.116  29.402  14.420
61752W        W34820   1.359  27.494   1.705
61753W        W34821  37.425  11.825  12.823
61754W        W34822  21.499   7.786  13.864
61755W        W34823  41.446  35.989   2.629
61756W        W34824  23.238  13.200   0.402
61757W        W34825   3.554  40.885  12.544
61758W        W34826  13.448  21.691  10.571
61759W        W34827  24.567  12.235   3.972
61760W        W34828   5.803  30.391   0.264
61761W        W34829   4.421  18.049  11.678
61762W        W34830   6.200  23.979  13.136
61763W        W34831  20.247  28.882  12.008
61764W        W34832  14.219  41.205  11.613
61765W        W34833  15.162  19.558   2.685
61766W        W34834  24.583  44.872   0.304
61767W        W34835  34.959   7.021   9.884
61768W        W34836  21.645  11.369  14.617
61769W        W34837  13.425   6.165   4.472
61770W        W34838   3.869  21.735   3.309
61771W        W34839  36.752  39.506  13.074
61772W        W34840   6.289  31.858   1.603
61773W        W34841  29.463  34.836   0.774
61774W        W34842  33.897  20.052   4.510
61775W        W34843  24.595  31.925   4.622
61776W        W34844  38.559  16.936   3.265
61777W        W34845  43.378  35.072  14.949
61778W        W34846  13.852   9.338   2.326
61779W        W34847  32.813  10.768  14.288
61780W        W34848   3.661  32.573  13.485
61781W        W34849  26.979  44.551  10.695
61782W        W34850   1.458   8.356   3.690
61783W        W34851  20.900  37.957  12.411
61784W        W34852  24.001   2.364  14.457
61785W        W34853   8.724  36.560   3.126
61786W        W34854  22.552  29.579   3.504
61787W        W34855  14.677  33.026   4.618
61788W        W34856  18.476  27.468  10.711
61789W        W34857  28.357  16.152   3.778
61790W        W34858  28.667  27.578  14.387
61791W        W34859  26.543  38.012  12.460
61792W        W34860  15.341  35.559   0.050
61793W        W34861  33.111   7.774  13.535
61794W        W34862  32.593  17.087   4.176
61795W        W34863  38.502  17.261  13.304
61796W        W34864  18.194  14.604  10.702
61797W        W34865  14.187  13.608   0.212
61798W        W34866  34.831  24.549   2.227
61799W        W34867   3.884  38.889   2.725
61800W        W34868   4.071  18.051   1.795
61801W        W34869  18.322  27.885   5.115
61802W        W34870  43.709  33.819  14.006
61803W        W34871  10.589  16.527  12.337
61804W        W34872  43.691  43.532   1.014
61805W        W34873   8.268  33.734   3.711
61806W        W34874  37.302  35.327   3.540
61807W        W34875  13.924  17.562  14.878
61808W        W34876  11.615  22.804   0.780
61809W        W34877  40.342  12.920  11.566
61810W        W34878  11.684   7.687   3.304
61811W        W34879  39.377  13.182   4.119
61812W        W34880   7.891  19.093  11.048
61813W        W34881  10.660  16.009  12.382
61814W        W34882   7.696  27.126  10.813
61815W        W34883  20.799  10.178   2.226
61816W        W34884  23.430  34.629   3.678
61817W        W34885  11.965  17.099   1.590
61818W        W34886  20.633  40.978  11.890
61819W        W34887  30.357   4.797   3.027
61820W        W34888  33.458  35.751   4.961
61821W        W34889   0.293  19.059   2.247
61822W        W34890  21.135  43.238   0.283
61823W        W34891  17.574  12.093   3.168
61824W        W34892  10.768  22.955   2.133
61825W        W34893  44.968  22.101   2.916
61826W        W34894  18.709  15.832   5.042
61827W        W34895  15.685  42.458   1.710
61828W        W34896  24.703   5.727  14.997
61829W        W34897  25.637  26.060  12.553
61830W        W34898   1.891  36.362  13.031
61831W        W34899  43.767  34.881   0.863
61832W        W34900  39.343  36.297   2.496
61833W        W34901  35.091  40.612  12.798
61834W        W34902  23.506   5.763   4.521
61835W        W34903  41.388  42.929   1.898
61836W        W34904  14.528  36.646  12.825
61837W        W34905  16.807   6.331   0.003
61838W        W34906  21.837   4.392  12.349
61839W        W34907   3.360  23.226  14.959
61840W        W34908   9.681  41.228   0.095
61841W        W34909  37.072  33.888  11.122
61842W        W34910  25.808  24.904   4.211
61843W        W34911   5.927  40.975   1.642
61844W        W34912  12.109  20.990   3.640
61845W        W34913  14.267  10.595  12.079
61846W        W34914  10.348   2.096  14.998
61847W        W34915  37.502  10.761   0.905
61848W        W34916  32.090  18.281   3.824
61849W        W34917  35.792   1.746   3.658
61850W        W34918  25.068  44.413  10.718
61851W        W34919  22.337  35.592   0.933
61852W        W34920  42.318  37.879  10.399
61853W        W34921   3.800  23.422   5.174
61854W        W34922  14.637  37.479  12.914
61855W        W34923  27.479  40.339  13.357
61856W        W34924  13.228  28.961   4.179
61857W        W34925  13.297  23.062  13.854
61858W        W34926  19.486  32.280  12.202
61859W        W34927   0.037   5.935  13.647
61860W        W34928  22.210   0.662  14.487
61861W        W34929   0.497  44.040   3.195
61862W        W34930  13.749  24.871  12.084
61863W        W34931  19.140  36.762   2.774
61864W        W34932  26.462   2.737   1.901
61865W        W34933  31.301  28.267   2.817
61866W        W34934  40.088   4.566   1.239
61867W        W34935   5.378  38.517   2.745
61868W        W34936  37.054   7.473   3.285
61869W        W34937  25.903   6.713  13.865
61870W        W34938   3.876  19.543   0.832
61871W        W34939  37.459  43.668   4.354
61872W        W34940  17.119  10.238   3.233
61873W        W34941  10.219  31.814  14.529
61874W        W34942   0.680   7.297  10.365
61875W        W34943  35.734  14.980  12.527
61876W        W34944  16.533  37.305   0.477
61877W        W34945  23.134  43.985  11.573
61878W        W34946  44.666  43.150  14.447
61879W        W34947  28.998   3.549  14.237
61880W        W34948  21.457  24.682  12.857
61881W        W34949   4.691  21.599   1.365
61882W        W34950  20.254  16.782   2.268
61883W        W34951  34.018  21.696   3.801
61884W        W34952  32.186  12.736  11.961
61885W        W34953  36.432  21.960   2.877
61886W        W34954  16.739  10.794   4.544
61887W        W34955  10.599  41.473  13.278
61888W        W34956  32.441  10.757   0.827
61889W        W34957  17.230  14.545   0.146
61890W        W34958   3.021  44.256   1.192
61891W        W34959  37.340   9.978   2.316
61892W        W34960  29.495  19.668   5.051
61893W        W34961  29.213   5.605   0.298
61894W        W34962  32.052  42.334   0.349
61895W        W34963  39.840  39.918   1.938
61896W        W34964  20.244  25.928  12.479
61897W        W34965  35.863  44.498   1.537
61898W        W34966   6.503  39.388   4.851
61899W        W34967  23.490  26.154   2.122
61900W        W34968  36.136  30.305  11.397
61901W        W34969  22.983  13.651   2.881
61902W        W34970  35.117  37.967  14.466
61903W        W34971  38.886  11.861  13.991
61904W        W34972  37.149  36.940  12.918
61905W        W34973  22.668  19.078  10.349
61906W        W34974  20.409   4.550  14.775
61907W        W34975  16.659  35.805  13.461
61908W        W34976  17.662  30.967  12.326
61909W        W34977  13.625  20.484   2.430
61910W        W34978  32.046  14.721   0.868
61911W        W34979   3.723  37.584  12.123
61912W        W34980   0.872  26.183  12.638
61913W        W34981  32.926  39.758   3.708
61914W        W34982   9.902  16.834  14.844
61915W        W34983  14.230  28.485  13.162
61916W        W34984  18.282  19.732   2.462
61917W        W34985  21.033   9.804  14.074
61918W        W34986  17.598  35.977   0.793
61919W        W34987  19.252  18.767  14.497
61920W        W34988  32.034  19.310   2.689
61921W        W34989  39.689  43.808   4.086
61922W        W34990  39.744  10.258   2.314
61923W        W34991  39.073  16.800   2.729
61924W        W34992  26.904  16.295   2.430
61925W        W34993  33.683  42.949  14.948
61926W        W34994  34.772   7.284  11.075
61927W        W34995   5.938  18.623   4.858
61928W        W34996  15.188  43.037   1.527
61929W        W34997  25.921  12.660   0.906
61930W        W34998  25.799  38.645   1.442
61931W        W34999  10.031   9.836   3.255
61932W        W35000   4.233  36.788   3.137
61933W        W35001  44.628   7.375   4.777
61934W        W35002  35.914  13.804   0.249
61935W        W35003  35.985  25.395   4.527
61936W        W35004   5.517   8.689  10.856
61937W        W35005  26.546   4.712   1.808
61938W        W35006  21.051  32.981  12.192
61939W        W35007  34.303   2.699  11.131
61940W        W35008  11.766  30.274  12.909
61941W        W35009  22.215   0.767  10.607
61942W        W35010   7.969  41.814  11.552
61943W        W35011  28.693   8.328   0.352
61944W        W35012  27.228  28.259   3.285
61945W        W35013  28.893  18.955   2.297
61946W        W35014  13.754  35.046  13.851
61947W        W35015  32.589  27.053   0.982
61948W        W35016  14.622   8.786   2.257
61949W        W35017  10.206  34.157   4.160
61950W        W35018  12.233  25.400   1.222
61951W        W35019  15.234  19.427  11.486
61952W        W35020  34.655   2.990   1.324
61953W        W35021  27.716   2.376   4.736
61954W        W35022  11.658   7.925   0.805
61955W        W35023  34.939  24.949   3.882
61956W        W35024  13.770  43.503  14.539
61957W        W35025  33.957  41.562  10.896
61958W        W35026  18.185  42.238   0.464
61959W        W35027  36.833  38.532  13.929
61960W        W35028   0.430  10.608   4.683
61961W        W35029  32.895  35.061   3.632
61962W        W35030  34.465  23.536  11.216
61963W        W35031  13.883  41.917  14.349
61964W        W35032  18.089  25.577  11.547
61965W        W35033   2.923  44.377  12.665
61966W        W35034  25.802  14.100  10.021
61967W        W35035  31.539   4.947  13.078
61968W        W35036  34.812   1.126  10.096
61969W        W35037  15.847  10.418  14.949
61970W        W35038  14.714  36.514   1.161
61971W        W35039  33.022  29.426   1.691
61972W        W35040  19.993  37.891   4.814
61973W        W35041  32.123   6.860  10.721
61974W        W35042  23.767  38.835  10.469
61975W        W35043  44.718   4.273  11.963
61976W        W35044  44.708   4.525  12.985
61977W        W35045  25.007  10.291   4.217
61978W        W35046  27.630  28.224  12.651
61979W        W35047  17.853  44.584  10.606
61980W        W35048  33.098  39.777  13.478
61981W        W35049  23.677  38.747   4.568
61982W        W35050   2.442  22.501   4.611
61983W        W35051  15.243  24.240   1.184
61984W        W35052  39.382  21.043  13.245
61985W        W35053  39.062  23.436  10.349
61986W        W35054  15.582  40.013  14.040
61987W        W35055  40.007  24.045   3.467
61988W        W35056  33.850  37.004  13.989
61989W        W35057  10.957   6.277  12.474
61990W        W35058  17.600  11.352   4.217
61991W        W35059  33.445  14.788   1.917
61992W        W35060  30.638  14.197  11.597
61993W        W35061  26.181  16.495  14.881
61994W        W35062  33.960  10.424  13.013
61995W        W35063  14.817  23.543  12.585
61996W        W35064  20.142  17.060   4.751
61997W        W35065  12.210  23.669   4.823
61998W        W35066  28.847  42.000  14.062
61999W        W35067  36.005  42.398   3.265
62000W        W35068   3.513  11.801  13.055
62001W        W35069  19.957  35.826   4.490
62002W        W35070  36.978  43.518   4.209
62003W        W35071  28.415  14.852  13.089
62004W        W35072   2.386  44.365  12.405
62005W        W35073  14.210  23.037   3.757
62006W        W35074  44.007   7.303   1.651
62007W        W35075  41.010  36.085  13.075
62008W        W35076   8.190   0.064   2.065
62009W        W35077  41.847  44.257  11.464
62010W        W35078  22.962  42.592   2.829
62011W        W35079   3.662  22.986   0.317
62012W        W35080  20.642  29.815  12.025
62013W        W35081  28.054  19.777   4.184
62014W        W35082   2.931  11.796  10.594
62015W        W35083   0.816  27.625  12.030
62016W        W35084  22.603   0.025  13.019
62017W        W35085   1.397  32.345   0.983
62018W        W35086  13.807  38.033  12.018
62019W        W35087  32.029  23.253  10.498
62020W        W35088  25.300  39.079   2.790
62021W        W35089  10.765  43.456   0.638
62022W        W35090  10.195   6.301   2.236
62023W        W35091  38.616  33.125  12.544
62024W        W35092  40.125  26.663  13.812
62025W        W35093   8.451  15.212  13.123
62026W        W35094  32.409  25.753  10.699
62027W        W35095  41.928  30.363  12.853
62028W        W35096  24.278  29.472  10.911
62029W        W35097   9.890  28.081  10.608
62030W        W35098  19.708  24.456  12.010
62031W        W35099  29.920  16.768   3.216
62032W        W35100  26.647  34.399  14.322
62033W        W35101   2.571  12.809   1.564
62034W        W35102   0.681   9.633  11.948
62035W        W35103  18.130   6.415  10.874
62036W        W35104  33.093  14.043  14.318
62037W        W35105  13.794   0.722  14.151
62038W        W35106  18.607  39.889   3.621
62039W        W35107   7.443  16.239  13.336
62040W        W35108  40.059   5.306   0.185
62041W        W35109  18.700  22.025  12.969
62042W        W35110  31.156  29.172   4.822
62043W        W35111  25.047  20.034   2.321
62044W        W35112  40.891   6.356   5.495
62045W        W35113  12.108   0.404  12.504
62046W        W35114  33.548  38.834  12.830
62047W        W35115  37.507   8.435  14.046
62048W        W35116  31.881  16.244   0.821
62049W        W35117  26.501  26.779   4.163
62050W        W35118  37.111  41.852  11.405
62051W        W35119  23.097  20.733   4.954
62052W        W35120   1.289  32.549   0.110
62053W        W35121  21.069  20.787   2.824
62054W        W35122  28.442  41.312   0.775
62055W        W35123  34.150  42.026  11.024
62056W        W35124  44.427  20.367  13.034
62057W        W35125  11.355   4.833   2.217
62058W        W35126  39.343  30.671   1.424
62059W        W35127  12.750  24.786  10.694
62060W        W35128   5.315  27.093   1.274
62061W        W35129  18.991  43.053  11.504
62062W        W35130   7.719  19.020   0.307
62063W        W35131  38.784  24.563  10.431
62064W        W35132  43.326  44.773   3.643
62065W        W35133  18.778  22.911   2.690
62066W        W35134  15.738  16.003   3.874
62067W        W35135   9.605   6.278  13.517
62068W        W35136  12.813   3.318  14.885
62069W        W35137   9.239  17.856   0.381
62070W        W35138  14.252  38.450   3.721
62071W        W35139  35.561  33.848   4.531
62072W        W35140  31.643  17.205  13.103
62073W        W35141   4.480  17.190  12.036
62074W        W35142   5.182  27.917  13.073
62075W        W35143   6.681  21.750  11.559
62076W        W35144  36.121   6.943  11.055
62077W        W35145  15.409  44.532  13.521
62078W        W35146  24.166   5.427   4.229
62079W        W35147   8.795  21.270   0.410
62080W        W35148   2.408   2.548   3.440
62081W        W35149  26.647  23.262   2.093
62082W        W35150  13.185  15.599  10.760
62083W        W35151   4.793  24.440   2.097
62084W        W35152  41.744  40.904  14.278
62085W        W35153  10.705  32.526   0.481
62086W        W35154  21.512   6.963   4.554
62087W        W35155  18.450  38.789   2.934
62088W        W35156  26.946  23.958   4.778
62089W        W35157  40.608   3.152  14.659
62090W        W35158  12.422   1.584  13.123
62091W        W35159  42.352  15.765   5.220
62092W        W35160  25.996  10.251  12.418
62093W        W35161  11.228  43.906  12.522
62094W        W35162  35.918  22.278   1.583
62095W        W35163   6.175  10.189   3.480
62096W        W35164   7.674  10.920  14.861
62097W        W35165  17.629   9.618   0.924
62098W        W35166  20.467  34.887  12.586
62099W        W35167   5.753  20.465  13.976
62100W        W35168  15.811  20.569   0.460
62101W        W35169  13.298  22.944  12.756
62102W        W35170   9.841  16.445   5.087
62103W        W35171   2.938  11.697   0.059
62104W        W35172  32.398  23.207  12.057
62105W        W35173  21.150  19.773  14.740
62106W        W35174  34.330  16.610   0.055
62107W        W35175  35.318  22.066  10.577
62108W        W35176  32.154   5.488  12.498
62109W        W35177  35.034  14.268  14.345
62110W        W35178  43.013  13.248   1.575
62111W        W35179  42.480  19.234  13.826
62112W        W35180  23.554  21.832   2.216
62113W        W35181  22.456   5.875   4.640
62114W        W35182  30.447  22.598   4.117
62115W        W35183  37.268  30.331   1.011
62116W        W35184  18.189  23.507  12.472
62117W        W35185  18.778  41.898  10.985
62118W        W35186  25.595  20.532  11.197
62119W        W35187  16.690  20.012   2.670
62120W        W35188  18.073   9.879   3.252
62121W        W35189  19.346  13.664   2.175
62122W        W35190  39.770  38.464   4.136
62123W        W35191   1.469  25.686   3.221
62124W        W35192  29.414  12.313  13.827
62125W        W35193  22.101  15.077   2.177
62126W        W35194  29.659   3.530   1.820
62127W        W35195  30.151  40.537  11.525
62128W        W35196  10.216  34.665   4.144
62129W        W35197   3.491  44.016  12.454
62130W        W35198  16.256  20.284   1.351
62131W        W35199  42.275  14.016  12.545
62132W        W35200  35.360  43.408  13.856
62133W        W35201  17.058  29.931   3.654
62134W        W35202   4.030   1.336   2.368
62135W        W35203   7.748  20.793  10.638
62136W        W35204   0.447  42.321   1.678
62137W        W35205   6.797  41.969  12.498
62138W        W35206  14.812   0.566   4.372
62139W        W35207  31.136  35.783   0.923
62140W        W35208  32.169  22.517   0.875
62141W        W35209  33.058  32.084  14.346
62142W        W35210  34.505  27.623   1.804
62143W        W35211  14.848   0.788   2.408
62144W        W35212  22.477  15.551  10.547
62145W        W35213  13.792  14.472   3.795
62146W        W35214  41.428  12.126  12.017
62147W        W35215  12.484  35.726   1.930
62148W        W35216   3.423  44.738  13.761
62149W        W35217   8.688  43.273  12.070
62150W        W35218   7.905   2.028  14.316
62151W        W35219   0.349  44.924   0.803
62152W        W35220  16.303  34.360  13.279
62153W        W35221  30.884   9.887   4.072
62154W        W35222  43.486  11.800   4.561
62155W        W35223  30.041  20.948   4.592
62156W        W35224  43.899  38.144  13.587
62157W        W35225  36.096   6.167   3.644
62158W        W35226   4.111   2.832  12.892
62159W        W35227  42.338  16.598  14.260
62160W        W35228  33.898  10.632   3.677
62161W        W35229  43.396  31.890  10.732
62162W        W35230   1.333   7.658   0.973
62163W        W35231  38.361  26.396  12.564
62164W        W35232  34.547   7.114  11.505
62165W        W35233  24.487   6.124   3.550
62166W        W35234  25.271  41.496  10.933
62167W        W35235  13.633   6.180  14.253
62168W        W35236  17.653  35.361   1.239
62169W        W35237  35.077   5.239   3.646
62170W        W35238  13.848  43.645   1.241
62171W        W35239  37.770  35.373   1.202
62172W        W35240  42.779  12.333  11.896
62173W        W35241   3.753  42.787   2.183
62174W        W35242  44.824  17.449   4.264
62175W        W35243  14.155  19.178  11.176
62176W        W35244   0.974  22.154   0.543
62177W        W35245  41.641   7.311   2.079
62178W        W35246   2.670   6.947   1.390
62179W        W35247  14.613   7.206   0.470
62180W        W35248   9.473  42.227  12.468
62181W        W35249  19.348  40.441   4.562
62182W        W35250   5.168  15.649   0.516
62183W        W35251  27.104  40.511   2.832
62184W        W35252  31.738  35.124  12.882
62185W        W35253  35.909  21.007   0.941
62186W        W35254  39.911  22.691  12.584
62187W        W35255   6.141  35.744  11.025
62188W        W35256   3.390  13.711   0.145
62189W        W35257  13.812   1.764  13.848
62190W        W35258  10.214  39.547  13.465
62191W        W35259  24.741  11.153   0.003
62192W        W35260  42.410  25.488  13.330
62193W        W35261  38.126   8.002  12.661
62194W        W35262   1.075  44.755  10.962
62195W        W35263  16.021   1.843   2.555
62196W        W35264  35.158   9.771  11.907
62197W        W35265  15.849   3.753  10.541
62198W        W35266  12.014  29.097   0.022
62199W        W35267  32.363  18.869   0.901
62200W        W35268   3.270   0.735   2.487
62201W        W35269   8.814  26.695   5.069
62202W        W35270  16.252  35.004   4.688
62203W        W35271  32.451  12.303  14.734
62204W        W35272  41.409  44.308   3.738
62205W        W35273  32.445  28.146  13.475
62206W        W35274  11.741  10.153  11.698
62207W        W35275  17.188  19.465  13.302
62208W        W35276  42.973  42.561  11.055
62209W        W35277  31.531  42.845  11.194
62210W        W35278  15.328  43.976  11.109
62211W        W35279  39.076  31.911  10.953
62212W        W35280  23.345   4.116   1.164
62213W        W35281  11.223   4.021  11.553
62214W        W35282  32.496  10.368   4.744
62215W        W35283  43.853  40.597  11.626
62216W        W35284  14.773  42.042   0.895
62217W        W35285  31.237   9.711   0.371
62218W        W35286   0.094  16.402   1.738
62219W        W35287   4.710  13.037   3.805
62220W        W35288  37.923  23.266   3.268
62221W        W35289  23.017  24.451  12.716
62222W        W35290  37.563  17.603   2.714
62223W        W35291   3.201  23.651   0.753
62224W        W35292  44.968  40.235   3.810
62225W        W35293  15.920  15.607  10.741
62226W        W35294   0.925   1.894  12.788
62227W        W35295   3.907  33.291  11.647
62228W        W35296  35.783  43.566   4.562
62229W        W35297   2.817   1.484   3.611
62230W        W35298  11.687   2.558  14.324
62231W        W35299  31.728  34.654  13.056
62232W        W35300  15.731  24.236   2.230
62233W        W35301  10.902   5.402   0.929
62234W        W35302  40.533  21.940   2.280
62235W        W35303   3.344   7.337   1.475
62236W        W35304  37.595  42.316   3.296
62237W        W35305  11.247  27.449   2.281
62238W        W35306  15.089   3.927  14.716
62239W        W35307  25.112  31.191   3.746
62240W        W35308  27.414  43.951   4.489
62241W        W35309   7.019  41.242  12.762
62242W        W35310   2.925  19.935  11.413
62243W        W35311  40.142   7.635  10.664
62244W        W35312  31.083  38.969   3.624
62245W        W35313  10.815   7.291  13.391
62246W        W35314   9.852  33.482  13.411
62247W        W35315   6.647   7.943  10.824
62248W        W35316  30.146  37.559  10.737
62249W        W35317  17.784  41.925  13.461
62250W        W35318   0.775  44.844   3.836
62251W        W35319  18.630  27.643   3.599
62252W        W35320  16.795  12.750  12.619
62253W        W35321  15.241  35.469  13.073
62254W        W35322  36.046  44.984   1.264
62255W        W35323   4.298  42.996   0.288
62256W        W35324  37.872  16.429   0.988
62257W        W35325  27.904  16.782   4.149
62258W        W35326  13.147  26.083  13.004
62259W        W35327  19.094  34.813  14.970
62260W        W35328  18.145   4.414   1.839
62261W        W35329  42.407  36.900  14.342
62262W        W35330  12.411  19.331   4.405
62263W        W35331  23.858  23.795  11.676
62264W        W35332  17.230  38.230  14.392
62265W        W35333  10.935  31.461  11.111
62266W        W35334  42.379  36.863  10.612
62267W        W35335  14.770  38.460   0.407
62268W        W35336   4.303  24.128  13.581
62269W        W35337  22.534  33.935   5.120
62270W        W35338  32.074  44.498  12.641
62271W        W35339  42.372  10.317  13.367
62272W        W35340  37.934  30.997  10.789
62273W        W35341  35.422  21.282   4.569
62274W        W35342   6.173  10.702  14.069
62275W        W35343  10.279  17.189   4.100
62276W        W35344  42.902  41.269   0.125
62277W        W35345  33.857  30.395  10.559
62278W        W35346  27.535  33.029   4.958
62279W        W35347  27.383  25.143   2.757
62280W        W35348   0.538  33.565   3.189
62281W        W35349  25.128  24.912   2.217
62282W        W35350   1.413  31.108   2.692
62283W        W35351  43.717  37.549  12.496
62284W        W35352  22.898  19.079   4.725
62285W        W35353  26.491  11.231  14.947
62286W        W35354  24.640   9.625   1.254
62287W        W35355  35.510  22.292   2.479
62288W        W35356  30.051  16.075   2.673
62289W        W35357  32.006  27.038   1.805
62290W        W35358  34.423  29.562  10.665
62291W        W35359  33.130   7.958   4.340
62292W        W35360  39.052  14.600   0.419
62293W        W35361  44.973  16.343  13.622
62294W        W35362  37.752   2.466  12.890
62295W        W35363  12.833  15.370   4.684
62296W        W35364  10.648  34.777   0.365
62297W        W35365   9.707  29.381  12.422
62298W        W35366   1.386  43.618  10.624
62299W        W35367   5.184  12.740  13.880
62300W        W35368  16.756  13.228  11.856
62301W        W35369  21.137  23.061   4.682
62302W        W35370  13.378   4.466   1.482
62303W        W35371  30.504  35.186   1.832
62304W        W35372  33.061   9.164   1.339
62305W        W35373  23.471  39.331  14.706
62306W        W35374  40.214  25.122   0.405
62307W        W35375  32.485  14.341   0.243
62308W        W35376  27.399  31.164   2.546
62309W        W35377  18.072  39.906  12.274
62310W        W35378  29.928  37.849   1.020
62311W        W35379  28.052  37.611   4.707
62312W        W35380  10.187  28.151   0.494
62313W        W35381  16.271   2.252   2.783
62314W        W35382  44.552  39.975  11.575
62315W        W35383  12.830  11.820   2.795
62316W        W35384  11.900  20.821  12.520
62317W        W35385  21.209   6.543   4.590
62318W        W35386  43.184  17.940   3.777
62319W        W35387  43.451  41.752   3.828
62320W        W35388  31.259  41.175   4.138
62321W        W35389   5.496  21.343  14.839
62322W        W35390   1.497  41.238  12.367
62323W        W35391  15.738   5.621  11.807
62324W        W35392  37.959  17.342   4.347
62325W        W35393  18.554  44.400  14.318
62326W        W35394  16.462  23.761  11.644
62327W        W35395  10.181  21.673   1.924
62328W        W35396  22.124  14.385   1.169
62329W        W35397  37.130  21.425   3.677
62330W        W35398   7.722  22.757   0.898
62331W        W35399  12.747  23.541  10.934
62332W        W35400  30.057  33.555  11.671
62333W        W35401   6.765  26.964   0.474
62334W        W35402  44.526  39.446  12.018
62335W        W35403  27.925  19.062  11.247
62336W        W35404  39.903   2.387  11.698
62337W        W35405   8.265  13.102   0.262
62338W        W35406   5.386  17.196  12.398
62339W        W35407  21.165   2.843  11.848
62340W        W35408  41.795  25.781   1.537
62341W        W35409  38.264   3.491  12.109
62342W        W35410  18.514  12.392  10.172
62343W        W35411  19.373  33.115  11.710
62344W        W35412  23.693  32.960  14.580
62345W        W35413  17.688   5.393   4.742
62346W        W35414  15.095  27.714  12.682
62347W        W35415  21.119  24.209   0.406
62348W        W35416  22.568  29.128   2.184
62349W        W35417  27.995  30.046  12.033
62350W        W35418  15.893  33.761   2.246
62351W        W35419  30.408  19.009  13.581
62352W        W35420  42.353  12.167   3.879
62353W        W35421  33.641  33.003   1.638
62354W        W35422   7.875  18.863   4.597
62355W        W35423   4.951   7.330  12.767
62356W        W35424  17.245  42.028   4.160
62357W        W35425   5.497   3.421   0.504
62358W        W35426   9.999   9.397   0.161
62359W        W35427   3.388  11.755  12.075
62360W        W35428  41.751  36.672  13.571
62361W        W35429  13.652   7.853  11.128
62362W        W35430  35.782   2.333   4.308
62363W        W35431   9.797   9.270   4.729
62364W        W35432  15.259  40.418  13.944
62365W        W35433  10.667  11.110  12.891
62366W        W35434  34.102  37.038   3.283
62367W        W35435  15.954  13.611  12.073
62368W        W35436  34.445  14.471   1.333
62369W        W35437  41.053  11.637   1.855
62370W        W35438  37.317  16.675  12.030
62371W        W35439  43.898  13.139  13.768
62372W        W35440   3.916   1.955   2.782
62373W        W35441  44.197  39.969  12.981
62374W        W35442   7.731  20.118  13.840
62375W        W35443  19.981   6.153  14.267
62376W        W35444  27.049  32.108   3.385
62377W        W35445  44.263  26.690  10.158
62378W        W35446  43.980  14.226  13.624
62379W        W35447  33.906   8.916  12.883
62380W        W35448  21.120  25.423   2.292
62381W        W35449  32.042  32.967  11.636
62382W        W35450  19.296  19.088   3.490
62383W        W35451  18.681   1.136  10.701
62384W        W35452   9.150  41.470   2.275
62385W        W35453  33.613  39.480   4.107
62386W        W35454  25.235  22.446  14.507
62387W        W35455  20.131   4.915  12.185
62388W        W35456  10.727  22.183   2.778
62389W        W35457   2.180   4.987  11.057
62390W        W35458  19.568  14.672  11.955
62391W        W35459   0.910   1.639  12.363
62392W        W35460  40.270  23.683  14.877
62393W        W35461  32.573  15.687   1.517
62394W        W35462  10.978  17.562   4.498
62395W        W35463  44.308  26.438   1.262
62396W        W35464   4.385  35.632   4.176
62397W        W35465  17.061  29.601  14.025
62398W        W35466  40.974  26.949  12.917
62399W        W35467  28.884  11.848  14.248
62400W        W35468   9.800  30.850  12.513
62401W        W35469  20.244  29.956   1.656
62402W        W35470  29.483  29.079  10.693
62403W        W35471  22.734  25.513   4.223
62404W        W35472   0.705  15.286   0.797
62405W        W35473   5.464  32.973   3.900
62406W        W35474   0.480  15.079  11.926
62407W        W35475  43.431   5.920   3.102
62408W        W35476  32.812   4.229  13.500
62409W        W35477  41.469   8.315  12.889
62410W        W35478  40.792  19.231  11.207
62411W        W35479   0.441  27.398  10.717
62412W        W35480  16.683   9.171  11.131
62413W        W35481  15.337  29.473   3.294
62414W        W35482  43.324  15.422   1.853
62415W        W35483  28.516  23.393   4.245
62416W        W35484  20.061  26.156  14.741
62417W        W35485  30.357   2.825  13.313
62418W        W35486  14.334  23.056  14.759
62419W        W35487  13.346  24.710  12.388
62420W        W35488  40.080  30.893   1.192
62421W        W35489   3.211  33.646   2.415
62422W        W35490   9.169   9.132  12.536
62423W        W35491  43.032  13.665   0.787
62424W        W35492  19.628  14.528  12.840
62425W        W35493  16.067  44.201   0.021
62426W        W35494  22.134  42.329   3.712
62427W        W35495  32.544  39.399   3.564
62428W        W35496  36.259  17.419   0.285
62429W        W35497  39.950  43.895  10.632
62430W        W35498   3.397  15.809   4.059
62431W        W35499  15.004  23.991   3.956
62432W        W35500   8.238  17.512  11.083
62433W        W35501  23.449  35.391  13.743
62434W        W35502  37.173  41.040   1.044
62435W        W35503  22.798  42.679   0.887
62436W        W35504  39.124  25.630   4.099
62437W        W35505   8.147  14.521  14.962
62438W        W35506  28.978   9.626   4.017
62439W        W35507  44.333  35.697   4.730
62440W        W35508  29.082  10.819   0.631
62441W        W35509  21.506  40.952  14.314
62442W        W35510   9.844   0.231   1.450
62443W        W35511   9.112   9.286   2.786
62444W        W35512   4.679  12.473  12.118
62445W        W35513  29.615   1.539   2.847
62446W        W35514  24.928  16.828  12.668
62447W        W35515  17.706  39.021  14.019
62448W        W35516  44.177  21.314  13.252
62449W        W35517   4.807  44.879   4.163
62450W        W35518  18.221  43.060   0.894
62451W        W35519  40.852  34.150   1.906
62452W        W35520  44.728  24.546  10.617
62453W        W35521  37.525  17.233   3.567
62454W        W35522  20.487  40.300  10.711
62455W        W35523  28.823  43.550  12.471
62456W        W35524  27.419  41.317  14.972
62457W        W35525   2.793  13.610   1.305
62458W        W35526  13.081   6.692  14.255
62459W        W35527   0.948  41.958   0.504
62460W        W35528  22.769   7.341   0.827
62461W        W35529  35.659  36.050   3.963
62462W        W35530  43.828  16.413   0.987
62463W        W35531   5.429  27.675  14.354
62464W        W35532  11.247   8.939  12.092
62465W        W35533  30.139  42.065   2.253
62466W        W35534   3.691  38.428  13.783
62467W        W35535  24.735  28.854   4.391
62468W        W35536   0.897  38.465   1.615
62469W        W35537  28.372  39.402   0.953
62470W        W35538  29.517   3.204   0.839
62471W        W35539  16.024  24.114  12.333
62472W        W35540   1.292   8.303  13.508
62473W        W35541  20.273  14.544   1.321
62474W        W35542  21.062  15.616   2.170
62475W        W35543  23.126  42.916  11.833
62476W        W35544  42.973  21.261   2.598
62477W        W35545  13.359  29.271  10.471
62478W        W35546  14.433  13.716   2.838
62479W        W35547  40.841  21.696  14.274
62480W        W35548   6.209  37.315   2.405
62481W        W35549   1.870  41.120   1.680
62482W        W35550  41.353   8.266   1.820
62483W        W35551  42.430  39.930   1.002
62484W        W35552  21.062  32.887   4.199
62485W        W35553  37.498   1.323  10.718
62486W        W35554   5.419  21.686  14.424
62487W        W35555  15.261   1.239   1.653
62488W        W35556  29.764   4.456   3.813
62489W        W35557  26.428  20.202  11.251
62490W        W35558  31.485  43.417  11.910
62491W        W35559  14.379  41.734  14.077
62492W        W35560   9.166  17.552   3.642
62493W        W35561  31.554  40.531  14.822
62494W        W35562   5.476  39.854   4.120
62495W        W35563  18.585  26.055   4.220
62496W        W35564  19.280  35.255  14.791
62497W        W35565  34.122  22.503  10.670
62498W        W35566  24.961  42.903   1.097
62499W        W35567  28.070   8.564   2.618
62500W        W35568  21.354  36.605   2.876
62501W        W35569   0.554  19.141  11.690
62502W        W35570  38.288  20.958  12.130
62503W        W35571  20.137   3.799  12.657
62504W        W35572  20.596  14.779   2.301
62505W        W35573  42.773  30.405  13.407
62506W        W35574  38.490  21.869  11.710
62507W        W35575   0.465  14.244  11.626
62508W        W35576  25.966   2.337   1.562
62509W        W35577  31.747  24.940  11.204
62510W        W35578   4.915  34.474   4.588
62511W        W35579  20.389  30.954  11.764
62512W        W35580  26.221  13.944   0.927
62513W        W35581  14.877  43.019   1.953
62514W        W35582  10.735  38.835   3.845
62515W        W35583  21.622  33.054   3.227
62516W        W35584  36.460  29.494  10.315
62517W        W35585  23.898  28.236  13.682
62518W        W35586  30.410  41.388  11.645
62519W        W35587  28.897   6.435  11.857
62520W        W35588  38.002  23.140   1.373
62521W        W35589  24.428  29.912  13.839
62522W        W35590  24.345  19.341   9.713
62523W        W35591   1.813  20.555   1.766
62524W        W35592  42.351  28.298   1.281
62525W        W35593  29.983  33.187   3.110
62526W        W35594  22.999  30.544   3.177
62527W        W35595  29.260  15.357  13.862
62528W        W35596   5.712  17.785   2.862
62529W        W35597  30.612  38.927   2.694
62530W        W35598   9.188   0.232   2.287
62531W        W35599  36.863   4.798   0.208
62532W        W35600  19.938  32.605  10.831
62533W        W35601  27.866  41.036  12.042
62534W        W35602  40.589  34.626  12.045
62535W        W35603  15.277  17.722   1.243
62536W        W35604  10.680  41.583  14.877
62537W        W35605  10.120  43.126  11.295
62538W        W35606  39.554  25.549   1.277
62539W        W35607  21.483  16.300  14.889
62540W        W35608  21.420   8.807  14.002
62541W        W35609  40.252  29.984  14.213
62542W        W35610  22.155   0.442  11.046
62543W        W35611  42.416  35.499   2.692
62544W        W35612  21.773   0.420  14.964
62545W        W35613   4.150  23.394  13.776
62546W        W35614  26.651   3.840   5.054
62547W        W35615  17.969  32.931   1.357
62548W        W35616  43.495   1.452  14.862
62549W        W35617  36.483  17.170   1.632
62550W        W35618  39.855  18.570   1.858
62551W        W35619  19.754  12.309   1.476
62552W        W35620  13.728  14.198   1.685
62553W        W35621  11.997   6.417   4.087
62554W        W35622  29.182  38.911   4.553
62555W        W35623  36.554   9.738   2.771
62556W        W35624  40.373   8.208  11.446
62557W        W35625  16.171  42.962  11.737
62558W        W35626  14.061  31.669  12.431
62559W        W35627  11.924   4.020   2.384
62560W        W35628   6.096  39.484   3.414
62561W        W35629  20.083  14.583  12.613
62562W        W35630  29.185   3.055  12.134
62563W        W35631  17.134   6.718  14.378
62564W        W35632   5.384  34.810  12.477
62565W        W35633   2.644  14.081   1.450
62566W        W35634   9.840  20.589   2.343
62567W        W35635  24.508  14.795   1.884
62568W        W35636  13.664  12.248  12.089
62569W        W35637  21.635  27.745  11.338
62570W        W35638  41.421   5.953   3.726
62571W        W35639  41.960  19.624   4.046
62572W        W35640  11.615  39.982  13.473
62573W        W35641  41.417  31.319   3.558
62574W        W35642  19.223   3.681   1.876
62575W        W35643  11.314  43.252  13.629
62576W        W35644  27.124  12.546  13.918
62577W        W35645   6.370  32.957   4.287
62578W        W35646  42.496  28.484   2.290
62579W        W35647   7.177  34.331   4.101
62580W        W35648   4.594  28.529   4.276
62581W        W35649   9.383  42.879   3.354
62582W        W35650  27.570  42.820   2.459
62583W        W35651   4.243  19.982   1.682
62584W        W35652   2.226  34.079  13.634
62585W        W35653   9.136   3.625   0.779
62586W        W35654  32.992  43.444  12.590
62587W        W35655   1.445   1.068   1.617
62588W        W35656  17.609  30.968   3.381
62589W        W35657  23.120  41.415  12.516
62590W        W35658  28.066  15.689  11.682
62591W        W35659  33.009  33.379  12.977
62592W        W35660  16.632  24.596   3.086
62593W        W35661  39.456  22.143   0.947
62594W        W35662  22.508  15.787  11.480
62595W        W35663  19.370  34.407   4.694
62596W        W35664  38.325   5.755  13.687
62597W        W35665  14.570  27.054   4.748
62598W        W35666  26.769  13.254   5.259
62599W        W35667   7.264   6.219   2.916
62600W        W35668  20.195  19.029  10.749
62601W        W35669  10.838  26.902   4.944
62602W        W35670  10.393  38.466  13.459
62603W        W35671  18.310  13.155   3.736
62604W        W35672  10.572  29.857  13.580
62605W        W35673  18.077  44.880   1.931
62606W        W35674  38.165  33.572  13.976
62607W        W35675  35.019  19.301  12.536
62608W        W35676  43.157  13.104  14.252
62609W        W35677   2.718  22.578   1.787
62610W        W35678  37.731  15.232   1.695
62611W        W35679  16.721   8.900  10.692
62612W        W35680   8.410  31.842  14.971
62613W        W35681  20.970  22.113   0.985
62614W        W35682  27.135  32.034  14.839
62615W        W35683  24.027  18.600  11.893
62616W        W35684  18.733  23.488  11.812
62617W        W35685   8.044  44.816   1.635
62618W        W35686  11.598  32.432   3.352
62619W        W35687  21.262  21.738  14.712
62620W        W35688   5.428  24.125  11.959
62621W        W35689   2.034  18.937   0.962
62622W        W35690   9.821  25.237  11.718
62623W        W35691  21.385   3.039  13.238
62624W        W35692  26.693   6.653  13.418
62625W        W35693  40.334  21.534  11.145
62626W        W35694  21.338  15.186  11.919
62627W        W35695  43.725   1.432  11.254
62628W        W35696  22.202   0.489   5.673
62629W        W35697   3.278   8.499  13.176
62630W        W35698  28.052  16.766  12.715
62631W        W35699  40.143  12.825  14.352
62632W        W35700   1.675   2.290  13.815
62633W        W35701   3.942  22.799   0.752
62634W        W35702   4.946   7.280   2.210
62635W        W35703  16.380  13.520   4.275
62636W        W35704  30.187   1.926   4.124
62637W        W35705  27.179  12.569   1.429
62638W        W35706  43.191  22.242   2.329
62639W        W35707   4.001  19.346  13.640
62640W        W35708  29.670  30.967   2.063
62641W        W35709  24.724   1.535   0.812
62642W        W35710  27.487  33.566   1.145
62643W        W35711  39.633  20.070   2.693
62644W        W35712   4.336   4.932  11.528
62645W        W35713   4.330  34.268  13.099
62646W        W35714  10.101  14.769  11.034
62647W        W35715  18.746   6.954  12.260
62648W        W35716  17.702  42.434  14.382
62649W        W35717   5.764   4.949  12.004
62650W        W35718  22.387  24.114  12.040
62651W        W35719  16.818  17.250  14.843
62652W        W35720  44.953  42.385  11.215
62653W        W35721   5.898   2.125  13.912
62654W        W35722  39.531  12.735  10.344
62655W        W35723  41.348   4.988  13.595
62656W        W35724  16.170   6.221  10.300
62657W        W35725  16.421  38.995   0.967
62658W        W35726   3.075  31.582  14.040
62659W        W35727   5.694  34.918   4.534
62660W        W35728  36.416  31.288  11.611
62661W        W35729  30.750  22.193   0.935
62662W        W35730   2.637   3.358   4.792
62663W        W35731   5.182  26.019  11.222
62664W        W35732  41.916  33.560   0.355
62665W        W35733  28.678  40.025   2.881
62666W        W35734  21.100  35.853   1.197
62667W        W35735  28.001  41.041  12.960
62668W        W35736  39.103  17.746   0.461
62669W        W35737  43.838   5.699  13.483
62670W        W35738  26.559  43.897  14.328
62671W        W35739  39.821  10.859  11.589
62672W        W35740   7.675   4.004   4.337
62673W        W35741   3.406  14.625   3.766
62674W        W35742   8.757   0.411  14.564
62675W        W35743  27.139  40.379  11.714
62676W        W35744  36.608  43.011   2.808
62677W        W35745  19.137  34.602   3.673
62678W        W35746  35.548  32.172   1.737
62679W        W35747  22.970  16.665  13.951
62680W        W35748  10.802  17.118   1.709
62681W        W35749  33.050  14.142  11.049
62682W        W35750  14.058  33.973  11.711
62683W        W35751  43.805   5.465   1.883
62684W        W35752  32.332  12.212  12.091
62685W        W35753   9.144   1.601  11.703
62686W        W35754  42.796  17.009   0.924
62687W        W35755  30.866  22.717   2.267
62688W        W35756  27.948  39.391   1.251
62689W        W35757  11.361  43.941   4.315
62690W        W35758  41.760   5.717   0.712
62691W        W35759  44.000  33.016  11.081
62692W        W35760  12.854  27.754   3.594
62693W        W35761  17.690  32.335   3.942
62694W        W35762   9.149  19.544  11.658
62695W        W35763  14.590  24.809   2.349
62696W        W35764  23.221  33.654  12.174
62697W        W35765  23.377  27.792   2.905
62698W        W35766  38.878  19.668   4.756
62699W        W35767  10.074  26.077  12.826
62700W        W35768  30.796  42.357   2.732
62701W        W35769   4.715  12.599   4.153
62702W        W35770  35.981  15.838  13.734
62703W        W35771  34.865  28.039   2.141
62704W        W35772  42.062  24.617   0.240
62705W        W35773  42.898  37.784  12.134
62706W        W35774  16.788  20.241  10.404
62707W        W35775   1.017   8.140  14.592
62708W        W35776   2.649  21.746   0.284
62709W        W35777  14.684   2.068   9.832
62710W        W35778   6.131  32.335  14.421
62711W        W35779  36.923   1.836  14.047
62712W        W35780  36.177  35.378   0.782
62713W        W35781  29.680   9.836   0.068
62714W        W35782  42.562  12.199  12.535
62715W        W35783  11.350  40.783   0.843
62716W        W35784  29.843  31.339   3.242
62717W        W35785   0.913  44.267  10.985
62718W        W35786  32.279   8.722   1.326
62719W        W35787  22.646  43.423   2.466
62720W        W35788  26.313   8.816   3.949
62721W        W35789  12.388  44.624  13.996
62722W        W35790  16.211   7.806  14.787
62723W        W35791  36.851  35.132  12.715
62724W        W35792  26.630   6.065   4.827
62725W        W35793   3.781  32.527  14.000
62726W        W35794  30.600   6.437   4.328
62727W        W35795  13.147   9.507   3.270
62728W        W35796  30.742  39.445   1.281
62729W        W35797  28.069  24.658  12.544
62730W        W35798  14.179  18.287  14.892
62731W        W35799   0.481  26.669  11.524
62732W        W35800   2.119  14.205   5.052
62733W        W35801  28.486  19.599  14.286
62734W        W35802  12.937  19.576   1.927
62735W        W35803  34.874  25.639  12.510
62736W        W35804  35.140  10.431  12.532
62737W        W35805  23.223  22.736  14.382
62738W        W35806   7.172  44.828   2.464
62739W        W35807   1.858  34.188  11.458
62740W        W35808  22.042  30.530  14.406
62741W        W35809   5.952  36.973  12.039
62742W        W35810  31.342   2.690  11.246
62743W        W35811  44.881   6.693   0.821
62744W        W35812   6.708  13.761   1.140
62745W        W35813   1.108  26.201  13.474
62746W        W35814  35.907  15.275   3.704
62747W        W35815  44.308  29.705   0.264
62748W        W35816  11.995   9.067   2.716
62749W        W35817  11.144   8.441   3.651
62750W        W35818   2.999  42.832   1.299
62751W        W35819  41.082  39.621  12.015
62752W        W35820  14.839  40.016   4.590
62753W        W35821  21.973  44.225   1.144
62754W        W35822   5.153   1.727   0.790
62755W        W35823  38.362  21.726  13.083
62756W        W35824  40.888  33.651  11.419
62757W        W35825  21.573  17.746   4.889
62758W        W35826   5.147  34.203   4.201
62759W        W35827  28.117   9.467  11.921
62760W        W35828  18.254  28.445   3.832
62761W        W35829   6.788  32.379  13.358
62762W        W35830  27.643   8.219  13.756
62763W        W35831  15.328  26.962   1.454
62764W        W35832  23.448  27.687   2.142
62765W        W35833  24.813  42.724   2.542
62766W        W35834   3.381  10.085  10.167
62767W        W35835  10.184  31.041  10.827
62768W        W35836  35.729  39.717  12.047
62769W        W35837  32.917  19.510   0.724
62770W        W35838   6.428  43.449  11.718
62771W        W35839  23.096   4.933   3.567
62772W        W35840   7.834  18.421  10.369
62773W        W35841  36.921  41.951  13.750
62774W        W35842   5.274   2.269  12.525
62775W        W35843  10.180  22.319  10.725
62776W        W35844  33.279   3.639   1.356
62777W        W35845   0.821  19.734   1.507
62778W        W35846  17.988   7.866   3.297
62779W        W35847  12.392  16.273  14.441
62780W        W35848   0.878   0.380  10.305
62781W        W35849  42.913  19.983  13.512
62782W        W35850  36.054  12.485   3.572
62783W        W35851  42.500  12.120  13.947
62784W        W35852  26.451  33.388  11.193
62785W        W35853  26.389  36.555  10.691
62786W        W35854  35.041  21.335   3.213
62787W        W35855  16.854  24.138  11.159
62788W        W35856  35.469  21.548   1.836
62789W        W35857  19.248  12.575   1.361
62790W        W35858  44.231   9.737   3.274
62791W        W35859  15.299  40.310   4.137
62792W        W35860   2.701  10.347   1.237
62793W        W35861  41.096  38.369   1.370
62794W        W35862  25.803  25.882   0.034
62795W        W35863  39.711  35.941  11.660
62796W        W35864   9.029   2.809   4.113
62797W        W35865  41.800   7.130   3.408
62798W        W35866  11.361  15.869   1.209
62799W        W35867   6.756   1.705  14.285
62800W        W35868  28.043  19.885  14.341
62801W        W35869   0.459  23.561   3.699
62802W        W35870  40.318  18.650   4.160
62803W        W35871  17.657   4.729  12.342
62804W        W35872  31.837  39.654  14.308
62805W        W35873  43.552  42.393   1.912
62806W        W35874   1.813   0.253   4.545
62807W        W35875  13.955  41.347   1.269
62808W        W35876  30.279  17.357   4.307
62809W        W35877   8.326  28.242   3.336
62810W        W35878  43.066  13.473   4.892
62811W        W35879   5.183   7.791   3.342
62812W        W35880  12.757  17.501  10.532
62813W        W35881   3.976  39.254  13.517
62814W        W35882  14.190   7.102  13.463
62815W        W35883  38.636   0.618   3.831
62816W        W35884  29.388  23.560   2.824
62817W        W35885  11.746  25.692  13.133
62818W        W35886  36.593  20.606  12.634
62819W        W35887  10.137  15.611   0.823
62820W        W35888   1.748  10.084   3.886
62821W        W35889  32.365   5.365  14.768
62822W        W35890   4.012  32.468   3.297
62823W        W35891   6.381   3.545   1.408
62824W        W35892  36.019  13.102  13.103
62825W        W35893  13.876  30.787  14.464
62826W        W35894  19.148   2.627   4.222
62827W        W35895  16.910  28.637   3.018
62828W        W35896   3.876   2.347  12.000
62829W        W35897  35.506  30.888  11.026
62830W        W35898  15.696   8.376  13.961
62831W        W35899  28.490   4.154   2.471
62832W        W35900  29.215  11.212   0.969
62833W        W35901   3.942  34.569   0.799
62834W        W35902  26.526  30.542   1.767
62835W        W35903  35.940   1.441  13.929
62836W        W35904  24.245  32.584  13.982
62837W        W35905  35.408  20.814   4.334
62838W        W35906  13.360   9.098   0.968
62839W        W35907   8.911  30.971  13.716
62840W        W35908  24.583   0.696  12.602
62841W        W35909  16.632  23.902   2.224
62842W        W35910  32.847  31.373   2.197
62843W        W35911   9.189   5.658   3.002
62844W        W35912  11.120  34.175   4.288
62845W        W35913   1.280   5.682  12.068
62846W        W35914  39.025  25.570   2.156
62847W        W35915  21.986  33.827  13.802
62848W        W35916  42.347  39.048  12.036
62849W        W35917  41.334  13.805   1.910
62850W        W35918  28.776  39.343  12.577
62851W        W35919  26.233  40.350   3.828
62852W        W35920  17.736  36.206  11.560
62853W        W35921  41.852   8.321  12.549
62854W        W35922  36.596  26.272  14.254
62855W        W35923  40.542   1.789   3.122
62856W        W35924  35.113   6.930   4.139
62857W        W35925  41.368  33.440  13.532
62858W        W35926   8.234  20.708  10.890
62859W        W35927   0.901  25.904   0.455
62860W        W35928   8.762  39.315   4.569
62861W        W35929  24.021  40.615   3.577
62862W        W35930  11.422   6.274  14.861
62863W        W35931  20.458  18.549   1.655
62864W        W35932  11.361   8.821  10.683
62865W        W35933   0.816  18.652   4.487
62866W        W35934  13.778  18.310   2.837
62867W        W35935  40.890   0.273  12.174
62868W        W35936  26.511  23.096   3.122
62869W        W35937  21.108   7.981   1.780
62870W        W35938  11.200  40.082   3.839
62871W        W35939  11.848  24.939   2.053
62872W        W35940  12.311   9.627   2.655
62873W        W35941  44.707  42.383  10.762
62874W        W35942  23.051   7.534  11.785
62875W        W35943  25.619  18.614   1.616
62876W        W35944  24.158  33.460   1.855
62877W        W35945   7.440  42.875   1.663
62878W        W35946  11.821   0.996  13.588
62879W        W35947  34.155  27.403  14.345
62880W        W35948  30.538   5.940  14.490
62881W        W35949  41.322  31.878   3.836
62882W        W35950  39.677  17.707  12.682
62883W        W35951  17.656  29.946  12.974
62884W        W35952  16.362  44.788   2.123
62885W        W35953  42.590  22.083   4.701
62886W        W35954  22.265  24.174   3.728
62887W        W35955  41.023  23.200  10.677
62888W        W35956  26.427  20.974  12.551
62889W        W35957  24.623  17.375   4.170
62890W        W35958  13.647  43.388  13.964
62891W        W35959  22.739   1.871  12.554
62892W        W35960   1.416  41.835   1.883
62893W        W35961   7.096  22.167  14.380
62894W        W35962  23.962  42.079   1.438
62895W        W35963  25.678  21.333  14.402
62896W        W35964  17.702   4.691   1.256
62897W        W35965  21.901  40.812   2.881
62898W        W35966  30.415  30.155  13.765
62899W        W35967   5.322  36.817   3.315
62900W        W35968  26.221  16.244  12.460
62901W        W35969  32.131  39.382  11.995
62902W        W35970   1.760  37.149   0.542
62903W        W35971  36.017  19.908   2.370
62904W        W35972  11.343  16.735   5.456
62905W        W35973  38.055  11.816  11.086
62906W        W35974   9.735  12.620  13.659
62907W        W35975   8.368  14.989  14.745
62908W        W35976  35.389  38.198  13.503
62909W        W35977   1.957  20.695   0.247
62910W        W35978  26.322  15.228  12.194
62911W        W35979  12.169  26.639  13.838
62912W        W35980  17.525  33.155  12.092
62913W        W35981  38.954  35.916  10.704
62914W        W35982  44.853  32.057  12.578
62915W        W35983  16.772  13.754  10.733
62916W        W35984  11.842  17.555  12.130
62917W        W35985   1.811  44.330   1.345
62918W        W35986  43.492   6.837   3.583
62919W        W35987  40.762  13.731  10.198
62920W        W35988  36.535  42.465  14.303
62921W        W35989  36.935  30.507  14.075
62922W        W35990  33.587  34.641  13.836
62923W        W35991  13.558   4.798  14.285
62924W        W35992  24.062   0.312  12.084
62925W        W35993   7.996   7.816  13.784
62926W        W35994  36.554   4.859   4.303
62927W        W35995  37.379  43.299   3.989
62928W        W35996   0.992  22.369  13.815
62929W        W35997  20.397  32.313  12.587
62930W        W35998  36.027   8.675   1.112
62931W        W35999  31.565  26.765   1.792
62932W        W36000  25.407  25.834  11.867
62933W        W36001   1.460  14.714   4.046
62934W        W36002  44.279  20.824  14.673
62935W        W36003  42.891  33.500  10.828
62936W        W36004   1.928  37.321  11.248
62937W        W36005   5.090   0.718   5.079
62938W        W36006  28.207  29.473   1.067
62939W        W36007   7.186   9.861  10.954
62940W        W36008  36.388   8.424   2.512
62941W        W36009  15.087  32.599   0.976
62942W        W36010  25.553  26.340  11.893
62943W        W36011  44.005  39.491  13.027
62944W        W36012   1.712   7.652   2.209
62945W        W36013  40.149   4.397   4.615
62946W        W36014  33.159   0.860  13.436
62947W        W36015  20.568  18.125   2.619
62948W        W36016  28.401  25.555   4.785
62949W        W36017   7.812   5.822  12.670
62950W        W36018  28.276  26.984   0.312
62951W        W36019  36.569  14.870  14.824
62952W        W36020  15.518  40.866  11.776
62953W        W36021  18.094  33.119   3.706
62954W        W36022  41.376  34.446  13.454
62955W        W36023  10.376  15.717   2.178
62956W        W36024  30.710  31.428  13.576
62957W        W36025  24.480  39.805   4.261
62958W        W36026  38.142  20.656   4.452
62959W        W36027   8.689  10.720  11.535
62960W        W36028   3.671   8.861  13.970
62961W        W36029  36.484   5.464   3.459
62962W        W36030  26.655   0.025  12.534
62963W        W36031  38.300  38.528   0.978
62964W        W36032  28.513  18.191   1.530
62965W        W36033  44.517  27.095  12.886
62966W        W36034  38.822  15.591  12.907
62967W        W36035   9.512  35.949   2.833
62968W        W36036  18.725   3.746  12.614
62969W        W36037  25.929  21.659  12.659
62970W        W36038  16.498  37.451   2.631
62971W        W36039  32.380  39.502   0.365
62972W        W36040  38.112   6.443   0.298
62973W        W36041  29.560  17.365   4.966
62974W        W36042  44.498  10.623  11.153
62975W        W36043  33.409   7.698  12.939
62976W        W36044  15.341  44.035   4.014
62977W        W36045  34.234  24.702   0.377
62978W        W36046  16.725  17.541   4.640
62979W        W36047  20.112   2.273   3.393
62980W        W36048  27.087  32.293   0.978
62981W        W36049  17.740  13.525  13.772
62982W        W36050  26.397   0.319   3.320
62983W        W36051  14.720  33.971   4.556
62984W        W36052  44.306  41.190   1.594
62985W        W36053   2.354  36.960  14.346
62986W        W36054  43.570   5.183  13.038
62987W        W36055  41.752  21.267   1.187
62988W        W36056  37.548   3.817  13.000
62989W        W36057  25.168   2.698  11.957
62990W        W36058  44.954  21.029   0.884
62991W        W36059  27.207   6.152   1.789
62992W        W36060  24.270  27.205  13.870
62993W        W36061  16.594  10.555  11.491
62994W        W36062  40.404  25.786  12.440
62995W        W36063  38.589  27.926   0.321
62996W        W36064   1.801  25.009   3.520
62997W        W36065  21.282  17.846  11.102
62998W        W36066  14.800  42.541  12.779
62999W        W36067  34.939  22.800  14.446
63000W        W36068  31.674  44.429  12.974
63001W        W36069  41.868  44.470   4.698
63002W        W36070  16.839  29.448   0.217
63003W        W36071  41.510  15.718  12.813
63004W        W36072  25.618  38.075   0.390
63005W        W36073  33.986  26.000   4.552
63006W        W36074  32.141   1.611  11.817
63007W        W36075  36.750  25.194   4.848
63008W        W36076  32.369   7.714   3.300
63009W        W36077  40.395  38.559  13.950
63010W        W36078  11.430  39.917  12.989
63011W        W36079  41.911   1.177  11.184
63012W        W36080  21.550  33.380   2.677
63013W        W36081  20.442  19.129   2.695
63014W        W36082  38.987  41.941  12.629
63015W        W36083  28.710  27.368   4.376
63016W        W36084  36.962  36.410  14.472
63017W        W36085  44.451  21.504  10.605
63018W        W36086  29.904  40.243   0.005
63019W        W36087   1.376  12.479  13.891
63020W        W36088  32.877  23.264  10.522
63021W        W36089   2.614   2.711  13.111
63022W        W36090  18.286   5.295  10.932
63023W        W36091  28.074   3.273  10.660
63024W        W36092   7.934   4.316  12.607
63025W        W36093  20.743   1.125   3.209
63026W        W36094  43.900  28.555  13.373
63027W        W36095   9.177  31.139   2.289
63028W        W36096  30.002   9.166  12.503
63029W        W36097  35.922  27.478   0.207
63030W        W36098  34.882   0.606   2.522
63031W        W36099  30.494  37.406  11.144
63032W        W36100  44.726   3.373   3.806
63033W        W36101  33.413  41.535   2.718
63034W        W36102  23.871  37.087  14.965
63035W        W36103  37.310  13.708  10.574
63036W        W36104   6.819  40.789  10.222
63037W        W36105   3.625   3.439   0.279
63038W        W36106   7.200   7.965   0.467
63039W        W36107  20.721  31.425   1.854
63040W        W36108  15.441  21.289  14.804
63041W        W36109   1.227  39.675   4.375
63042W        W36110  34.842  22.265  10.409
63043W        W36111  11.344  17.398   0.308
63044W        W36112  26.038   3.234  12.883
63045W        W36113  36.577  26.552  13.370
63046W        W36114   3.373  29.202  13.653
63047W        W36115  12.566  44.870   0.226
63048W        W36116   6.091   7.503   4.263
63049W        W36117  44.583   1.438   2.870
63050W        W36118  15.938  16.527   3.144
63051W        W36119  32.922   1.207  12.082
63052W        W36120  22.627  38.879   3.600
63053W        W36121  16.348  43.447   1.347
63054W        W36122  32.577  43.848  14.959
63055W        W36123  31.561  23.946   2.278
63056W        W36124  43.133  27.691   3.700
63057W        W36125  12.345   3.276   2.070
63058W        W36126   0.722   5.822  13.089
63059W        W36127  15.728  42.728   3.390
63060W        W36128  42.467  18.073  13.139
63061W        W36129   1.898  24.408   0.217
63062W        W36130   1.395  29.865   3.204
63063W        W36131   9.902   0.557  12.308
63064W        W36132  33.059   2.360  14.867
63065W        W36133  39.537  32.418  14.439
63066W        W36134  10.872  27.115   3.333
63067W        W36135  43.235  19.290   2.036
63068W        W36136   4.710  29.700   3.780
63069W        W36137   5.746  41.893  11.781
63070W        W36138  13.253   7.661   2.631
63071W        W36139  21.557  26.487  11.364
63072W        W36140   6.404   6.946  14.060
63073W        W36141  37.051   3.466   0.885
63074W        W36142  28.566  36.531   3.806
63075W        W36143  19.016  23.062   4.493
63076W        W36144  40.629  24.083  13.146
63077W        W36145   7.823   3.041  13.992
63078W        W36146  42.142  16.205   5.379
63079W        W36147  11.377  18.578  12.530
63080W        W36148  13.402  18.678   1.687
63081W        W36149  44.561  19.107  11.633
63082W        W36150   6.133  25.011   9.980
63083W        W36151  37.888   1.226   0.961
63084W        W36152   0.063  26.936  10.682
63085W        W36153  14.567   1.455   3.140
63086W        W36154  32.062   3.871  10.531
63087W        W36155   7.347  28.634  12.424
63088W        W36156  39.201  15.065   2.417
63089W        W36157   1.606   5.676   3.168
63090W        W36158  18.160  44.519  12.982
63091W        W36159  19.414  39.455  12.395
63092W        W36160  16.620  22.151   3.677
63093W        W36161  20.111  17.503   2.745
63094W        W36162  23.746  40.959  11.473
63095W        W36163  11.287  37.190   4.893
63096W        W36164  16.683  26.010  12.892
63097W        W36165  44.928   1.300   4.291
63098W        W36166  38.540  30.893   0.416
63099W        W36167   5.894  21.512  14.561
63100W        W36168  14.273  41.787  10.962
63101W        W36169   0.347  42.508   0.714
63102W        W36170  31.632  27.513  10.676
63103W        W36171  40.475  17.815  11.134
63104W        W36172  22.758  30.616  11.219
63105W        W36173  26.736   5.767  13.892
63106W        W36174   4.256   0.824   2.369
63107W        W36175  43.652  36.445  12.467
63108W        W36176  20.633   4.438   0.213
63109W        W36177  14.253  16.197   2.957
63110W        W36178  27.393   3.382  14.391
63111W        W36179  42.464  29.900  10.726
63112W        W36180  13.933  18.199  10.488
63113W        W36181  25.046  36.425   3.792
63114W        W36182  17.704  13.899  12.314
63115W        W36183  40.586  30.076  10.504
63116W        W36184  18.673  18.051  14.516
63117W        W36185  21.725   5.351  11.583
63118W        W36186  31.523  15.043   1.765
63119W        W36187  11.129  26.145  13.479
63120W        W36188  39.785  38.409  14.908
63121W        W36189  10.348  28.161  10.856
63122W        W36190  13.785  35.844  11.555
63123W        W36191   3.677  26.388  13.906
63124W        W36192  26.233   9.853   2.357
63125W        W36193  43.864  33.905   2.941
63126W        W36194   0.312  37.004  10.557
63127W        W36195  21.250  44.354   2.829
63128W        W36196   2.961  27.996  11.574
63129W        W36197  16.267   7.424   0.878
63130W        W36198  26.702  38.493  12.513
63131W        W36199  42.973  35.647  13.341
63132W        W36200  37.520  11.226  13.535
63133W        W36201   6.286  14.620  13.026
63134W        W36202  44.257   9.975   0.767
63135W        W36203  23.661  39.518  12.915
63136W        W36204   1.740  43.884   1.630
63137W        W36205  42.103   3.976   1.677
63138W        W36206  17.973   6.802   0.898
63139W        W36207  13.707  21.484   2.298
63140W        W36208  37.296   8.147   1.935
63141W        W36209  18.126  36.912  12.473
63142W        W36210  18.133   7.106  11.547
63143W        W36211  34.246   3.987   1.465
63144W        W36212  21.752   4.401   4.308
63145W        W36213   8.708  16.758  11.372
63146W        W36214  13.773   7.785   1.874
63147W        W36215  26.429  25.906   3.774
63148W        W36216  31.647  15.241  12.436
63149W        W36217  34.944  35.376   3.930
63150W        W36218  28.229   6.953  12.234
63151W        W36219  19.539  21.507   2.812
63152W        W36220  10.562  44.070  12.898
63153W        W36221  23.893  15.404  14.313
63154W        W36222  23.347  44.756   0.714
63155W        W36223  11.778  18.914   4.718
63156W        W36224  40.503  23.754  13.551
63157W        W36225  16.700  23.701   4.200
63158W        W36226  29.353  14.072  14.980
63159W        W36227   2.006  22.902   2.439
63160W        W36228  29.060  28.097   4.717
63161W        W36229   6.482  39.463  14.517
63162W        W36230  20.856  34.221  10.663
63163W        W36231  10.138  10.387  13.423
63164W        W36232   9.262  22.519   2.392
63165W        W36233  25.865  41.562   3.063
63166W        W36234  11.623  36.319   4.373
63167W        W36235  14.762  20.380  13.109
63168W        W36236   1.887   0.382  11.924
63169W        W36237  37.424  19.712  12.017
63170W        W36238  25.786   0.518   1.636
63171W        W36239  20.323  14.290   3.386
63172W        W36240  26.227  26.952   2.330
63173W        W36241  35.664  25.666  12.987
63174W        W36242  26.680  34.430   1.224
63175W        W36243  11.460  20.033   2.256
63176W        W36244  38.860  11.148  11.562
63177W        W36245   5.627  43.049  11.625
63178W        W36246  29.101  31.595  14.461
63179W        W36247   0.782  21.450   0.979
63180W        W36248  14.351  25.710   2.448
63181W        W36249  22.604  13.612  10.427
63182W        W36250   7.051  42.993   2.014
63183W        W36251  27.191  12.410  13.333
63184W        W36252  12.778  18.412  10.922
63185W        W36253  19.700  38.735   0.891
63186W        W36254  43.187  24.519  10.693
63187W        W36255  14.656  43.000   0.768
63188W        W36256  29.181  38.139   2.685
63189W        W36257  44.773   2.269  10.732
63190W        W36258  41.398   9.835  14.735
63191W        W36259  24.507  35.098  11.076
63192W        W36260  41.972  18.747  14.762
63193W        W36261   1.016  36.062   1.258
63194W        W36262  20.501   5.883   3.257
63195W        W36263  19.293   7.301  14.244
63196W        W36264  19.753  25.127   2.132
63197W        W36265  39.814   8.474  10.117
63198W        W36266   1.520  10.829   0.773
63199W        W36267  10.784  27.674  14.414
63200W        W36268  25.562  18.249  10.692
63201W        W36269  10.861   5.112  14.963
63202W        W36270   1.512  31.164   3.639
63203W        W36271   4.515  12.327  14.366
63204W        W36272  24.573  26.768  14.234
63205W        W36273   5.807  35.105  12.646
63206W        W36274   9.354  26.408  13.068
63207W        W36275  10.805  27.740  10.288
63208W        W36276  33.509  33.102  11.448
63209W        W36277  20.625  44.296  13.817
63210W        W36278  17.900  30.447   4.706
63211W        W36279  21.610  30.555  14.764
63212W        W36280  18.122  26.578   2.230
63213W        W36281  22.401  38.083   2.432
63214W        W36282   1.998  41.870  12.415
63215W        W36283  43.791  16.621   2.959
63216W        W36284   8.221  21.585  11.153
63217W        W36285   7.721  35.371  12.953
63218W        W36286  25.131   1.501  11.339
63219W        W36287   7.250  42.528   2.921
63220W        W36288  44.471  21.493   3.156
63221W        W36289  20.301  28.590  11.028
63222W        W36290  37.118  40.489  11.923
63223W        W36291  27.488  41.048  13.803
63224W        W36292  42.891  27.732  12.508
63225W        W36293  41.609  36.412  10.804
63226W        W36294  15.759  26.728   3.301
63227W        W36295  18.874  29.362   3.132
63228W        W36296   8.451  41.120   3.935
63229W        W36297   4.837   8.625  12.877
63230W        W36298  27.044  12.810  14.998
63231W        W36299  43.762  42.925   1.449
63232W        W36300  32.074  38.404   0.204
63233W        W36301  19.464  39.016   1.806
63234W        W36302  44.509  22.539   2.376
63235W        W36303  21.209   4.841  13.059
63236W        W36304  22.912  37.949   2.345
63237W        W36305  43.687   8.313   0.462
63238W        W36306  32.866   5.237  13.027
63239W        W36307  13.210  30.156   4.825
63240W        W36308  20.310  10.687   1.609
63241W        W36309  26.481  12.777  12.437
63242W        W36310  21.153  27.442   4.086
63243W        W36311   6.248  10.418   5.139
63244W        W36312   0.928  17.542  12.000
63245W        W36313   9.197  10.226   1.356
63246W        W36314  30.915  26.284  12.815
63247W        W36315   9.676  10.479   2.823
63248W        W36316   6.353   9.568   1.565
63249W        W36317  17.731  24.389   2.702
63250W        W36318  12.890  37.578  14.852
63251W        W36319  22.283  40.378   0.283
63252W        W36320  42.211   0.102   2.316
63253W        W36321  29.893  42.458   4.156
63254W        W36322  16.555  17.086  12.351
63255W        W36323  42.036  10.228   0.294
63256W        W36324   4.491  29.092  14.029
63257W        W36325  25.354  22.190  10.330
63258W        W36326  29.515  26.610   4.654
63259W        W36327  23.577  28.603  13.470
63260W        W36328  32.382   8.653  10.278
63261W        W36329  44.594   4.106   0.692
63262W        W36330  35.801   0.270  13.146
63263W        W36331  16.572  11.779   1.582
63264W        W36332   5.876  32.574  12.923
63265W        W36333   5.686   1.791   4.891
63266W        W36334  44.973  24.099   0.668
63267W        W36335  25.374   2.312   4.071
63268W        W36336  35.870  36.774   2.786
63269W        W36337  44.412  42.775  11.203
63270W        W36338   3.522  44.182   1.125
63271W        W36339  33.463  43.182   3.425
63272W        W36340  34.054   6.200   0.265
63273W        W36341  33.487  20.231   4.260
63274W        W36342  10.352   4.399  11.261
63275W        W36343  27.170  29.872   1.456
63276W        W36344   0.461  32.963   4.509
63277W        W36345  26.066  34.791   3.907
63278W        W36346  32.653  37.891   1.643
63279W        W36347  30.959   5.879  14.047
63280W        W36348  37.172   9.711   1.747
63281W        W36349  21.548  41.866  14.527
63282W        W36350   2.943  43.742   4.305
63283W        W36351  40.001  39.530   1.290
63284W        W36352   4.656  25.539  14.800
63285W        W36353  28.997  19.286   4.742
63286W        W36354  43.561  43.740   0.227
63287W        W36355   7.760  36.874  11.177
63288W        W36356  18.742  14.805   1.809
63289W        W36357  34.995  13.245  13.689
63290W        W36358  29.732   1.313   1.952
63291W        W36359  33.509   1.152  11.387
63292W        W36360  28.103  18.736   5.161
63293W        W36361  40.235   3.206  12.905
63294W        W36362  14.884  18.209  11.989
63295W        W36363  21.370  26.174   0.954
63296W        W36364  12.166  14.861   1.020
63297W        W36365  35.560  19.175   1.775
63298W        W36366  23.408   8.317  12.422
63299W        W36367  40.782  12.123  11.635
63300W        W36368  26.531  37.399   3.629
63301W        W36369  19.275  24.793  12.015
63302W        W36370   3.016  42.511   2.821
63303W        W36371  15.122  29.935   2.632
63304W        W36372  18.482  10.352  10.480
63305W        W36373  26.928  23.437   0.751
63306W        W36374   6.907  41.002   4.183
63307W        W36375  11.873  36.580   0.444
63308W        W36376  19.637  27.164   3.667
63309W        W36377  19.116  21.181   1.057
63310W        W36378  37.335  15.542   4.971
63311W        W36379  44.752  32.108  14.907
63312W        W36380   4.056  24.103   0.880
63313W        W36381   2.201   1.820   2.340
63314W        W36382  19.833  20.192   1.273
63315W        W36383  42.304  42.333  14.281
63316W        W36384  44.782  32.650  14.872
63317W        W36385  42.451  33.379   3.090
63318W        W36386   6.703  16.347   4.544
63319W        W36387  18.791  42.621   4.005
63320W        W36388  21.180  26.809  12.662
63321W        W36389   3.891  44.258  11.595
63322W        W36390   8.637   8.800   4.907
63323W        W36391  27.079  16.291   1.499
63324W        W36392  10.780  41.724   4.940
63325W        W36393  34.556   2.916  14.970
63326W        W36394   9.019  40.965   2.250
63327W        W36395  18.967  15.485  12.015
63328W        W36396  39.052  32.323   1.842
63329W        W36397   8.277   3.979   0.479
63330W        W36398  34.398  28.925  14.350
63331W        W36399  12.633  41.075  10.797
63332W        W36400  17.874  36.494   3.642
63333W        W36401  34.184   1.080  13.321
63334W        W36402  37.378  19.659   1.382
63335W        W36403  33.520  15.509  11.154
63336W        W36404  36.079  18.374  11.669
63337W        W36405  27.686  40.597   2.272
63338W        W36406   7.938   5.919   4.891
63339W        W36407   1.275  28.945  14.025
63340W        W36408  21.589  12.671  13.859
63341W        W36409  33.619   3.300  11.457
63342W        W36410  26.328   1.710   3.044
63343W        W36411  30.634  20.594   1.480
63344W        W36412  19.905  42.761  14.879
63345W        W36413  21.125   5.130   0.258
63346W        W36414  15.647  12.031  14.368
63347W        W36415  21.203  21.229  10.494
63348W        W36416  16.888  22.320   0.854
63349W        W36417  35.158  11.321  11.551
63350W        W36418  26.567  10.827  11.016
63351W        W36419  27.983  37.771   4.090
63352W        W36420  24.705   4.131   1.444
63353W        W36421  14.516  12.707   1.903
63354W        W36422   9.322  30.805  14.042
63355W        W36423  37.476  10.251  12.617
63356W        W36424  27.281   5.282   3.233
63357W        W36425   7.613  31.413  11.847
63358W        W36426  21.711  21.491   1.057
63359W        W36427   2.521  16.579   2.642
63360W        W36428  21.237   2.195   2.752
63361W        W36429  23.200  19.564   4.690
63362W        W36430   8.450   7.166  12.080
63363W        W36431  35.122  36.387  13.746
63364W        W36432  22.737  24.245   0.187
63365W        W36433  19.959  30.054  14.817
63366W        W36434  23.699  36.837   4.669
63367W        W36435  31.981  26.721   2.264
63368W        W36436  43.786  17.082   2.726
63369W        W36437  23.163   2.727  10.551
63370W        W36438  10.281  40.762   1.922
63371W        W36439  29.702  26.697   0.712
63372W        W36440  17.285  10.229   0.930
63373W        W36441  28.506  43.509   3.168
63374W        W36442   0.949  34.635   2.579
63375W        W36443  13.880  10.023  11.463
63376W        W36444  43.329  26.244  13.846
63377W        W36445   5.711   3.420   2.422
63378W        W36446  39.635  19.028   1.967
63379W        W36447  21.006   2.459   3.192
63380W        W36448  40.822  21.185   1.966
63381W        W36449   4.422  43.460  11.644
63382W        W36450   3.666  20.104   0.966
63383W        W36451   8.259  33.077  14.752
63384W        W36452   3.755   0.173  14.505
63385W        W36453  16.609   2.735   3.855
63386W        W36454   2.832   1.537   1.781
63387W        W36455  31.625  43.703  12.376
63388W        W36456  11.692  13.061   0.416
63389W        W36457  21.705   7.027  12.970
63390W        W36458  17.199  42.332  14.238
63391W        W36459  21.586  32.891  14.403
63392W        W36460  13.737  30.148  14.315
63393W        W36461   2.298  33.061  10.607
63394W        W36462  23.767   1.270  11.124
63395W        W36463  16.761  22.021  14.060
63396W        W36464   4.595  18.265  12.132
63397W        W36465  14.252   2.532   4.274
63398W        W36466  30.559   2.235   2.105
63399W        W36467  35.095  20.398   0.969
63400W        W36468   6.910  13.258   4.890
63401W        W36469  17.011   1.942  12.550
63402W        W36470   9.880  38.625  14.316
63403W        W36471  41.445  18.560   2.409
63404W        W36472  26.176  25.696   1.765
63405W        W36473  44.343  18.808   4.513
63406W        W36474  11.596  34.731   3.274
63407W        W36475  27.228   5.755   3.607
63408W        W36476  13.776   4.206   2.438
63409W        W36477  38.051  20.270  14.394
63410W        W36478  15.974  24.237   4.299
63411W        W36479   6.315  15.691  12.958
63412W        W36480  16.590   5.784  11.856
63413W        W36481  35.882  11.433  14.474
63414W        W36482   6.094   6.702   0.994
63415W        W36483   3.492  41.999   3.259
63416W        W36484  35.048  31.680  13.957
63417W        W36485  39.885  16.814   1.968
63418W        W36486  18.903  37.707   1.315
63419W        W36487  11.065   1.339   1.791
63420W        W36488  36.614  38.609   3.103
63421W        W36489  35.045  24.561   0.986
63422W        W36490  39.956  38.347   3.660
63423W        W36491  38.498  26.310  11.710
63424W        W36492   2.253   7.801  10.661
63425W        W36493  19.097  23.047   3.111
63426W        W36494   0.335  36.013   4.830
63427W        W36495  13.015   7.493   1.494
63428W        W36496  31.682   7.330   1.893
63429W        W36497  38.946  16.320   1.975
63430W        W36498   4.582  21.331   0.933
63431W        W36499  16.339   9.853  10.685
63432W        W36500  11.541   4.940  11.712
63433W        W36501  10.873   0.073   2.315
63434W        W36502  10.355  24.581  10.615
63435W        W36503  37.004  13.667   3.127
63436W        W36504  20.153  10.804   2.535
63437W        W36505  34.987  17.531   0.345
63438W        W36506  17.305  10.250   0.028
63439W        W36507   2.692  33.946  13.423
63440W        W36508   7.424   8.951   0.302
63441W        W36509   9.253   7.230  11.453
63442W        W36510  26.136   0.265   1.949
63443W        W36511   4.294  10.851  12.875
63444W        W36512  41.965   4.271   2.080
63445W        W36513  40.842   7.824   3.390
63446W        W36514  42.694  14.789  12.872
63447W        W36515  34.189  12.072   0.528
63448W        W36516  34.818  15.876  10.310
63449W        W36517  14.038   9.104  11.882
63450W        W36518  17.028  19.890   3.617
63451W        W36519  23.587  21.044   0.916
63452W        W36520  26.297  21.741   4.599
63453W        W36521  22.701  41.404   2.712
63454W        W36522   2.706  23.072   2.846
63455W        W36523   4.479   8.373   3.285
63456W        W36524  31.046  43.370  14.518
63457W        W36525   6.304  27.736   3.220
63458W        W36526  38.057  34.515   0.154
63459W        W36527  29.693  30.744  11.113
63460W        W36528  32.495  18.278  11.987
63461W        W36529  22.381  11.937  13.320
63462W        W36530   6.011   9.596   0.920
63463W        W36531   1.298   5.310  14.209
63464W        W36532  44.343   8.889  10.216
63465W        W36533   9.911   7.433   0.829
63466W        W36534  12.150  38.223  12.103
63467W        W36535  15.797   3.226  10.602
63468W        W36536  16.306  35.096   0.644
63469W        W36537   9.619  10.614  14.995
63470W        W36538   5.770  18.554  13.600
63471W        W36539   4.689   8.276   0.519
63472W        W36540  44.755  14.438  12.955
63473W        W36541   3.417  18.731   3.324
63474W        W36542  26.532  24.035  10.964
63475W        W36543  36.366  27.587  13.787
63476W        W36544  16.148  41.737  12.935
63477W        W36545  33.891  16.547  11.854
63478W        W36546  19.762  37.989  11.959
63479W        W36547  43.096  25.504  14.540
63480W        W36548  28.240  30.256   4.237
63481W        W36549   5.823  11.761   4.171
63482W        W36550   3.341  28.429   4.321
63483W        W36551   5.771  24.660   4.622
63484W        W36552  44.034  18.563   4.170
63485W        W36553  14.946   2.839   2.662
63486W        W36554  32.964  11.607   4.643
63487W        W36555   2.021   8.559  12.928
63488W        W36556  41.964  26.244   2.211
63489W        W36557   4.810  24.164   9.922
63490W        W36558  44.848   7.227  12.939
63491W        W36559  33.985  13.369  14.016
63492W        W36560  10.460  24.015   2.829
63493W        W36561  22.513  20.978   4.138
63494W        W36562   8.973   0.334  12.096
63495W        W36563   3.173  22.660   2.302
63496W        W36564   6.335  17.560   3.731
63497W        W36565  35.417  17.500  12.427
63498W        W36566  14.901  25.181  10.705
63499W        W36567   0.247  35.231   0.728
63500W        W36568  30.687  24.049   0.858
63501W        W36569  15.035  31.635  12.579
63502W        W36570   8.330  22.586  11.193
63503W        W36571   1.709   9.857   1.803
63504W        W36572  26.662  27.041  12.842
63505W        W36573  10.815   1.970   3.734
63506W        W36574  24.649  36.506  13.441
63507W        W36575  12.272  21.289   3.255
63508W        W36576  21.108  40.618   2.282
63509W        W36577  40.959  36.568  13.853
63510W        W36578  29.250  13.699   0.334
63511W        W36579  21.321  12.566  11.213
63512W        W36580  43.502  13.771   4.220
63513W        W36581  44.442  34.826   2.340
63514W        W36582  13.513  15.159  13.606
63515W        W36583  37.807  23.329  11.174
63516W        W36584  30.033  32.508   2.575
63517W        W36585  30.874  36.366  11.766
63518W        W36586  15.173  44.717   0.341
63519W        W36587  13.113   2.499  10.793
63520W        W36588  17.240   9.959  13.150
63521W        W36589  24.501   3.016  10.675
63522W        W36590  42.473  16.112  14.389
63523W        W36591   5.962  30.136   4.173
63524W        W36592  10.575  16.301   0.265
63525W        W36593  43.347  22.247  14.494
63526W        W36594  18.351  34.961  10.623
63527W        W36595  25.592  24.667  12.552
63528W        W36596  41.483  42.949   0.426
63529W        W36597  10.746  44.564  10.600
63530W        W36598  17.578  25.664  12.880
63531W        W36599   3.084   0.701   1.309
63532W        W36600  29.407   2.290   4.217
63533W        W36601  12.787  30.964  12.459
63534W        W36602  27.073  22.120  13.815
63535W        W36603  25.040  37.817  13.976
63536W        W36604  27.532  34.566  11.160
63537W        W36605  39.606   0.810   3.622
63538W        W36606  23.932  38.252  12.391
63539W        W36607  28.601  31.378  14.446
63540W        W36608  44.240   8.243   3.708
63541W        W36609  36.513  20.118   2.762
63542W        W36610  34.971   2.172   4.723
63543W        W36611  22.107  14.569   3.585
63544W        W36612  32.678  24.575   4.815
63545W        W36613  15.625  37.843   0.277
63546W        W36614  44.385  14.718  14.235
63547W        W36615  14.426  11.343   3.258
63548W        W36616  15.572  34.608   2.294
63549W        W36617   2.289  17.343  10.881
63550W        W36618  12.425  36.406   2.260
63551W        W36619   2.749   3.521   4.262
63552W        W36620  17.070   6.115   1.726
63553W        W36621  14.258  15.540  12.945
63554W        W36622   5.121  10.967  11.578
63555W        W36623  16.659  35.473   4.202
63556W        W36624   5.863   5.225  11.528
63557W        W36625  38.941  36.216  11.165
63558W        W36626  27.173   8.123  13.450
63559W        W36627  19.917  27.883  14.312
63560W        W36628  10.065   7.484   9.983
63561W        W36629  34.486  38.461   3.638
63562W        W36630  36.967  39.060  12.165
63563W        W36631  38.479   7.190  10.325
63564W        W36632  34.376  13.254   2.905
63565W        W36633  26.654  25.209   2.313
63566W        W36634  23.283  37.543   0.463
63567W        W36635  41.121  39.121  11.168
63568W        W36636  22.780  44.576   4.420
63569W        W36637   8.390  25.463   3.700
63570W        W36638  40.841  12.244   2.439
63571W        W36639  42.416  27.462  12.491
63572W        W36640   8.755  38.024  12.610
63573W        W36641  25.057  10.327   1.109
63574W        W36642   3.192   5.852   3.220
63575W        W36643   0.816  36.889  10.650
63576W        W36644   6.058  38.470   4.737
63577W        W36645  20.201  21.149  10.575
63578W        W36646  27.049  39.335  13.840
63579W        W36647   2.740  23.747  14.890
63580W        W36648  23.927  25.085   4.459
63581W        W36649  23.824  30.404  12.081
63582W        W36650  44.616  32.505  12.343
63583W        W36651   7.899   0.474   1.155
63584W        W36652   6.286  31.708  10.713
63585W        W36653  31.529  25.772   1.953
63586W        W36654  33.910   1.434   2.113
63587W        W36655  31.397  17.066   0.862
63588W        W36656  12.508  23.112  13.370
63589W        W36657  34.046  34.202   1.770
63590W        W36658   2.385  42.053  13.420
63591W        W36659  43.898   2.659  13.415
63592W        W36660  29.668  21.520  11.635
63593W        W36661  23.193  28.555   1.280
63594W        W36662   1.840   7.755  12.382
63595W        W36663   8.193  13.749  10.689
63596W        W36664  23.797  19.615   0.075
63597W        W36665  19.546   7.266  11.651
63598W        W36666  35.350  13.412  14.770
63599W        W36667   2.979  10.248  10.564
63600W        W36668  23.303  19.267   0.856
63601W        W36669  13.667  32.821  10.859
63602W        W36670   3.899  11.848  14.822
63603W        W36671  11.826  23.443   4.561
63604W        W36672   3.943  37.347   0.288
63605W        W36673  19.438   1.662  14.908
63606W        W36674   6.731  17.340  12.016
63607W        W36675  41.133  10.078   2.178
63608W        W36676  20.184  34.934  13.029
63609W        W36677  14.722  15.574   4.985
63610W        W36678   6.765   8.479   0.767
63611W        W36679  18.983  36.799  10.861
63612W        W36680  44.540  11.858   2.178
63613W        W36681   6.475  21.370  11.187
63614W        W36682  43.685   0.104  11.175
63615W        W36683  10.783  10.364  11.212
63616W        W36684  36.339  21.156   3.376
63617W        W36685  21.604   3.526  11.662
63618W        W36686  41.876   0.865  11.589
63619W        W36687  19.622  13.898  11.469
63620W        W36688   9.513  38.629   0.366
63621W        W36689  13.130  24.172  13.828
63622W        W36690  27.182  18.077  10.677
63623W        W36691  30.775  16.073   1.575
63624W        W36692   8.251  15.352   2.430
63625W        W36693  33.852  37.971  14.585
63626W        W36694  30.686  33.010  13.023
63627W        W36695  30.655  44.341  14.044
63628W        W36696  20.055  36.932  13.015
63629W        W36697   7.654  27.235   2.180
63630W        W36698   5.372  31.043   3.833
63631W        W36699  41.974   8.148  14.080
63632W        W36700  11.304  41.910  12.052
63633W        W36701  32.821  12.204   1.296
63634W        W36702  11.771  25.117  12.115
63635W        W36703  26.796   3.250   2.668
63636W        W36704  44.437  24.559  13.045
63637W        W36705  33.411  25.572  10.843
63638W        W36706  19.522  35.817   3.577
63639W        W36707  12.297  39.531   0.400
63640W        W36708  40.991   0.566   5.017
63641W        W36709  23.829  10.731   2.200
63642W        W36710  38.347  38.010   4.629
63643W        W36711   5.286   5.063   4.685
63644W        W36712  20.172   0.767   2.637
63645W        W36713  17.780  38.398   1.915
63646W        W36714  42.381  26.515  10.676
63647W        W36715  36.316   4.523  12.091
63648W        W36716  22.702  17.286   0.499
63649W        W36717  18.630  34.828   1.635
63650W        W36718   4.436  31.646  11.160
63651W        W36719  32.861   1.375   0.784
63652W        W36720   8.873  36.554  14.969
63653W        W36721   8.408  30.487  11.236
63654W        W36722   4.916  37.870   4.347
63655W        W36723   3.061   6.318  11.027
63656W        W36724  33.912  11.885  10.692
63657W        W36725   3.807  30.530  12.886
63658W        W36726  23.454  12.938  12.797
63659W        W36727  42.538  37.275   0.433
63660W        W36728   9.823  41.763   9.709
63661W        W36729  42.480  22.652   0.593
63662W        W36730  27.056   7.800   3.140
63663W        W36731   4.489   9.311   3.186
63664W        W36732  32.647  12.069  14.297
63665W        W36733  15.672  33.902  12.317
63666W        W36734  39.812  37.416  12.667
63667W        W36735   4.809  17.789  11.948
63668W        W36736   6.097  34.380  11.126
63669W        W36737   6.320  33.436   2.712
63670W        W36738   7.044  17.528   4.475
63671W        W36739   6.377  15.835   0.988
63672W        W36740  44.979  19.736  10.435
63673W        W36741   6.810  30.817   3.744
63674W        W36742  41.053  34.047   1.433
63675W        W36743  25.497  22.074  12.019
63676W        W36744  29.629  30.203   2.895
63677W        W36745  13.336  22.115  14.857
63678W        W36746  13.103  27.165  14.917
63679W        W36747  37.876  42.032   0.205
63680W        W36748   3.326   0.185  10.324
63681W        W36749  25.481  39.618   1.395
63682W        W36750  42.020  35.865   4.111
63683W        W36751  29.943  38.113   3.715
63684W        W36752  10.187   3.924  13.804
63685W        W36753  42.747  28.528   0.519
63686W        W36754  40.629  13.884  11.366
63687W        W36755  37.930  16.279   4.093
63688W        W36756  37.492   2.825  14.326
63689W        W36757  25.564  44.021   1.709
63690W        W36758  22.511  11.836   4.851
63691W        W36759  29.062  43.833  13.970
63692W        W36760   8.930   5.167   4.340
63693W        W36761   6.386  28.911   0.222
63694W        W36762   6.748  14.552  10.501
63695W        W36763  27.741  38.566  14.441
63696W        W36764  42.997  38.566   3.249
63697W        W36765   6.946  29.062  12.911
63698W        W36766  42.281  10.308   4.115
63699W        W36767  11.131   9.340  11.564
63700W        W36768  24.522  19.475   3.645
63701W        W36769  17.609  22.979   1.753
63702W        W36770   4.881  25.040   5.232
63703W        W36771  24.504   3.854  14.206
63704W        W36772  29.706  13.278  13.722
63705W        W36773  42.894  33.660  14.519
63706W        W36774   0.351   6.916   0.061
63707W        W36775  21.693  36.557  14.992
63708W        W36776  12.785  20.508  12.527
63709W        W36777  13.326  35.518  10.611
63710W        W36778  27.872  42.194   2.298
63711W        W36779   1.960  34.855   4.616
63712W        W36780  34.522  11.623  13.249
63713W        W36781   5.743  31.729   2.711
63714W        W36782   4.733  27.733  13.307
63715W        W36783  38.074   0.312   0.222
63716W        W36784   8.414   2.831  14.838
63717W        W36785   6.818   4.402  11.173
63718W        W36786  33.235   3.491   2.763
63719W        W36787  10.969  40.344  14.767
63720W        W36788   2.697  30.307  11.298
63721W        W36789  17.866  35.849   1.270
63722W        W36790  16.205  33.124   3.780
63723W        W36791  25.542  17.314   2.416
63724W        W36792  22.604  17.810   2.292
63725W        W36793  35.035  26.381  13.381
63726W        W36794  38.871  26.161  13.771
63727W        W36795   7.529  36.767  12.861
63728W        W36796  13.639  43.995  10.709
63729W        W36797  25.495  30.606  10.719
63730W        W36798  28.025  25.028  11.650
63731W        W36799  24.355   7.370   3.196
63732W        W36800   3.487  14.353  10.896
63733W        W36801  43.018  23.109   1.769
63734W        W36802   7.396  30.672   3.392
63735W        W36803  19.538  27.608   0.919
63736W        W36804  36.007  25.623   4.052
63737W        W36805   4.927  32.873   3.149
63738W        W36806   9.827  42.510   0.884
63739W        W36807   3.979  37.857   4.515
63740W        W36808   6.197  25.754   0.909
63741W        W36809  41.348   1.266  10.677
63742W        W36810  27.204  13.678  14.422
63743W        W36811  18.701  11.745   0.745
63744W        W36812  26.901  20.695   3.613
63745W        W36813  44.365  15.778   2.757
63746W        W36814   3.878  21.698   1.519
63747W        W36815   2.488  35.373   4.553
63748W        W36816  24.545  42.488  14.962
63749W        W36817  34.374  10.730  11.489
63750W        W36818  27.635  24.711  11.642
63751W        W36819  18.190   7.935   1.042
63752W        W36820  18.578  30.519   0.493
63753W        W36821  14.269  14.258   3.764
63754W        W36822   5.283  10.622   0.740
63755W        W36823  12.856  27.470  10.380
63756W        W36824  24.681  14.075   2.451
63757W        W36825  11.410  18.192  14.514
63758W        W36826  15.727  10.049  10.713
63759W        W36827  35.071  12.274   0.349
63760W        W36828  39.260  44.152  12.491
63761W        W36829  14.846  32.014   0.748
63762W        W36830  17.676  12.713   0.471
63763W        W36831  40.199  29.108   0.418
63764W        W36832  26.484  34.735  12.682
63765W        W36833  42.306  40.854  13.512
63766W        W36834   0.231  14.695  12.645
63767W        W36835  21.162  18.503   4.102
63768W        W36836  30.704   2.637  14.755
63769W        W36837   1.927  17.813  11.913
63770W        W36838  21.504   4.238   4.729
63771W        W36839   3.780  13.467   4.669
63772W        W36840  27.862   2.436  11.183
63773W        W36841   9.278  32.727  12.518
63774W        W36842  12.566  11.400   2.775
63775W        W36843  23.179  11.407   3.602
63776W        W36844  17.295   1.232  14.922
63777W        W36845  19.662  19.586   0.487
63778W        W36846  27.009   6.472   1.406
63779W        W36847  31.115  10.729   3.459
63780W        W36848  20.193  35.967   4.932
63781W        W36849  29.672   4.692  11.977
63782W        W36850  37.652  35.508  13.422
63783W        W36851   5.778  30.364  14.345
63784W        W36852   1.006  17.115   1.314
63785W        W36853  13.452  31.996   4.696
63786W        W36854  19.475  39.393  10.629
63787W        W36855  35.337   1.317   4.632
63788W        W36856  31.391  11.230   3.303
63789W        W36857  15.330  31.208  12.507
63790W        W36858   0.795  14.633  12.826
63791W        W36859  40.990  34.596  11.160
63792W        W36860  21.565   2.967  14.503
63793W        W36861  24.449  37.068   3.116
63794W        W36862  39.939  31.925   3.972
63795W        W36863  37.241  34.412  11.165
63796W        W36864   9.316  44.479  13.447
63797W        W36865  16.569  41.119  14.899
63798W        W36866  16.268  37.215   4.094
63799W        W36867  23.246  29.174  14.499
63800W        W36868   8.596   1.787   0.911
63801W        W36869  42.970   9.212  11.098
63802W        W36870  15.780  36.432   2.158
63803W        W36871  30.885  27.602  14.895
63804W        W36872   8.815   7.005   1.357
63805W        W36873  35.493   2.332   2.503
63806W        W36874   3.788  39.680   0.406
63807W        W36875  11.219   2.724   3.418
63808W        W36876  33.057  42.873  11.109
63809W        W36877  37.594  25.005   0.770
63810W        W36878   0.238  41.605  13.538
63811W        W36879  16.637  38.475  11.249
63812W        W36880  35.868  27.906  12.015
63813W        W36881  13.567  15.639   1.891
63814W        W36882   5.398  12.154  12.785
63815W        W36883  35.446  28.724  13.525
63816W        W36884  13.732  34.516  11.954
63817W        W36885  18.483  29.544   2.837
63818W        W36886  39.903  14.752  14.485
63819W        W36887  25.908  28.581   1.249
63820W        W36888   9.880  38.528  11.846
63821W        W36889  39.947  21.931  14.795
63822W        W36890  35.505  15.812  11.640
63823W        W36891  27.032  40.931  11.677
63824W        W36892  31.238  15.107  12.155
63825W        W36893  35.074  36.126  11.988
63826W        W36894  31.826   1.992  10.411
63827W        W36895  42.215  10.465   5.104
63828W        W36896  11.688   3.027  14.053
63829W        W36897   0.612  14.020  10.375
63830W        W36898  20.953  42.742  12.709
63831W        W36899  29.466  41.299   0.659
63832W        W36900  23.229  30.326   2.743
63833W        W36901  20.765  27.546  14.282
63834W        W36902  20.588  39.340  13.492
63835W        W36903   1.158  29.940   2.457
63836W        W36904  10.855  39.074   0.162
63837W        W36905  26.629   5.352  13.104
63838W        W36906  33.582  36.337   1.372
63839W        W36907   6.265   0.945  14.249
63840W        W36908  15.806   7.141  14.586
63841W        W36909   5.718  43.304  12.413
63842W        W36910  31.570  44.321   1.749
63843W        W36911  39.623  11.704   0.685
63844W        W36912  18.590  29.135  12.855
63845W        W36913  16.761  37.558  13.032
63846W        W36914   7.444  20.076   0.559
63847W        W36915  21.237  30.077  12.996
63848W        W36916  17.609   6.906   2.549
63849W        W36917  42.790   0.775   0.894
63850W        W36918  30.925  17.788   3.655
63851W        W36919  22.264  41.086  10.668
63852W        W36920  43.068   4.620  12.418
63853W        W36921  27.078  36.633  13.452
63854W        W36922  44.597  23.473  14.907
63855W        W36923  31.823  19.968   1.848
63856W        W36924  18.870  23.775   0.502
63857W        W36925  28.244  29.883   2.036
63858W        W36926  41.161   1.157  13.963
63859W        W36927  28.697  43.063  12.492
63860W        W36928   8.481   7.609  13.864
63861W        W36929   9.816  32.074  14.726
63862W        W36930   9.797   3.782   1.942
63863W        W36931   5.882  16.562   2.278
63864W        W36932  23.064   0.612   3.766
63865W        W36933  23.583  12.232   2.135
63866W        W36934  42.956  33.449  13.645
63867W        W36935  14.750   1.270  14.002
63868W        W36936   4.941  22.614   1.869
63869W        W36937  15.344  22.740   3.697
63870W        W36938  35.939  14.684   1.657
63871W        W36939  12.266  36.548  14.033
63872W        W36940  30.671   9.912  14.879
63873W        W36941  27.435  41.973  12.099
63874W        W36942  14.257   7.313  10.981
63875W        W36943   2.214  36.896  10.611
63876W        W36944  30.376  26.091  13.514
63877W        W36945   4.974  44.846  14.510
63878W        W36946  32.107   8.358   3.130
63879W        W36947  16.084   7.177  10.736
63880W        W36948  29.478   4.455  15.000
63881W        W36949  23.520  41.072  11.923
63882W        W36950   6.694  28.074   0.274
63883W        W36951  14.631   7.414  12.546
63884W        W36952  18.890  18.653  12.948
63885W        W36953  44.109  15.170  12.092
63886W        W36954  41.459   3.309  12.619
63887W        W36955  13.460  21.641   0.113
63888W        W36956  10.059  33.008   1.430
63889W        W36957  26.910  44.829   1.727
63890W        W36958  15.314  29.078  14.329
63891W        W36959   0.479  11.163   3.531
63892W        W36960  15.570  20.142  12.177
63893W        W36961  21.843  44.452   1.937
63894W        W36962  23.241  16.675  12.054
63895W        W36963   8.428   1.826   2.216
63896W        W36964  18.045  42.019  12.966
63897W        W36965   5.622  42.232   0.799
63898W        W36966  39.042  17.923  10.704
63899W        W36967  34.921  24.780  12.103
63900W        W36968  16.385  22.640   3.708
63901W        W36969  24.093  23.117  14.447
63902W        W36970  42.438  34.416  10.718
63903W        W36971  29.972  42.522  12.939
63904W        W36972  33.053   8.380   2.357
63905W        W36973   3.299   3.014  13.569
63906W        W36974  12.110   4.786  10.695
63907W        W36975  35.618  33.634   0.812
63908W        W36976  17.010  43.547   0.678
63909W        W36977  35.406  35.777   2.109
63910W        W36978  37.788   1.980  13.427
63911W        W36979  28.722  26.941   0.651
63912W        W36980  32.959  22.247   1.222
63913W        W36981  37.845   8.332   0.337
63914W        W36982  20.412   1.758   4.101
63915W        W36983  17.993   1.746  14.837
63916W        W36984  35.949  31.509   0.246
63917W        W36985  12.840   6.618  11.801
63918W        W36986   1.254   8.707  12.900
63919W        W36987   7.879  16.701  11.908
63920W        W36988  37.397   3.698   1.205
63921W        W36989  19.521  31.756  12.940
63922W        W36990  21.901  28.101   4.211
63923W        W36991  10.394   2.296   2.661
63924W        W36992  43.635  25.502  13.382
63925W        W36993  11.646  42.998   4.653
63926W        W36994  38.911   1.701  14.944
63927W        W36995  44.433  25.653  13.888
63928W        W36996  21.539  25.815  12.075
63929W        W36997  32.609  10.297  14.267
63930W        W36998  19.742  36.689   4.991
63931W        W36999  13.611  40.351   2.817
63932W        W37000  23.453  17.422   2.653
63933W        W37001  33.136  44.149   2.309
63934W        W37002  20.100   5.407   4.024
63935W        W37003   3.747  32.447   0.402
63936W        W37004  21.110  22.071   0.067
63937W        W37005  44.025  15.925   0.120
63938W        W37006  14.649  10.888   3.511
63939W        W37007  26.397  23.099   4.998
63940W        W37008  32.652  28.623   3.751
63941W        W37009  44.830  43.814   3.697
63942W        W37010  28.843  30.421   3.386
63943W        W37011   5.243  32.566   2.079
63944W        W37012  28.054  31.699   2.786
63945W        W37013  12.836   9.385  14.697
63946W        W37014  33.445  43.297  13.509
63947W        W37015  19.812  43.335   3.524
63948W        W37016  34.499  16.106   0.009
63949W        W37017  41.477  20.750  10.723
63950W        W37018  25.316   6.907   0.821
63951W        W37019  28.353  41.977   1.815
63952W        W37020  36.449  29.761   4.598
63953W        W37021   0.520  43.500   3.369
63954W        W37022  30.426  22.889  11.114
63955W        W37023  28.202  26.021  12.074
63956W        W37024   2.177  40.756  11.480
63957W        W37025  11.308  16.218   5.467
63958W        W37026   4.762   5.005   3.399
63959W        W37027  43.874   7.702  10.724
63960W        W37028  10.472   2.269   0.503
63961W        W37029  28.382  25.182  14.540
63962W        W37030   4.820   7.769   0.444
63963W        W37031  38.274   8.519   9.855
63964W        W37032   6.120  35.129  14.527
63965W        W37033   0.171  12.768  11.949
63966W        W37034  39.899  10.057  14.583
63967W        W37035  20.766   5.791  10.941
63968W        W37036   5.864  30.598   4.444
63969W        W37037  38.577  31.111  14.755
63970W        W37038  35.946   2.952   3.218
63971W        W37039  43.285   4.171  12.257
63972W        W37040  16.015  13.859  14.741
63973W        W37041  20.135   5.643   2.603
63974W        W37042   7.116  17.706  12.686
63975W        W37043   9.231  25.907  13.939
63976W        W37044  42.464  28.833  13.816
63977W        W37045  28.684  28.970   2.674
63978W        W37046  28.949   3.036   3.804
63979W        W37047  38.115  43.138  11.062
63980W        W37048  36.450  24.095   4.547
63981W        W37049   0.930  43.930  12.191
63982W        W37050   5.919  34.627   3.244
63983W        W37051  43.450  29.615   0.244
63984W        W37052  36.449  31.744   1.456
63985W        W37053  16.396  41.900   4.346
63986W        W37054  25.724   2.933   3.656
63987W        W37055  12.061  17.646   0.634
63988W        W37056  43.962  13.064   4.507
63989W        W37057   0.524  17.333  12.969
63990W        W37058   1.768  24.633  14.228
63991W        W37059  17.778  29.641  14.292
63992W        W37060  38.751   3.282  12.866
63993W        W37061  22.174   5.649   4.263
63994W        W37062  41.571  42.933   1.390
63995W        W37063  15.493  25.165  14.551
63996W        W37064  11.831  31.857  14.239
63997W        W37065  17.040  13.307  10.672
63998W        W37066  39.064  32.597   1.397
63999W        W37067  13.276  22.986   3.825
64000W        W37068   9.294  35.080  12.964
64001W        W37069  31.173  25.977   2.898
64002W        W37070  26.421  28.581  12.437
64003W        W37071  25.508   6.199  13.274
64004W        W37072  14.008   1.032   3.631
64005W        W37073   4.191   0.404  13.339
64006W        W37074  19.312  14.062  12.444
64007W        W37075  29.645   5.135   4.309
64008W        W37076  14.210  44.866  14.343
64009W        W37077  24.995  37.981   1.254
64010W        W37078  30.695  29.551   2.231
64011W        W37079   4.789  42.507  13.120
64012W        W37080  27.053  37.893   0.047
64013W        W37081  20.725   1.861   0.318
64014W        W37082  41.310   5.426   0.853
64015W        W37083  14.865  17.520   3.651
64016W        W37084  44.672   1.417  13.490
64017W        W37085  37.182   0.717   1.350
64018W        W37086   0.330  22.948   2.741
64019W        W37087  43.957   2.211   2.740
64020W        W37088  40.750  31.645   4.657
64021W        W37089  23.173   0.357  14.763
64022W        W37090   8.255   1.838   4.213
64023W        W37091  13.399  36.609  13.909
64024W        W37092  22.079   6.668   3.286
64025W        W37093  26.200  30.106  10.764
64026W        W37094  11.533   4.317  12.925
64027W        W37095  23.221  39.806   4.704
64028W        W37096  10.570  30.845  12.012
64029W        W37097  42.957  32.961   1.164
64030W        W37098  30.174  23.435  14.946
64031W        W37099  21.008  12.397  11.634
64032W        W37100  35.268  10.447   4.082
64033W        W37101   2.816   3.809   3.479
64034W        W37102   6.346  10.299   4.578
64035W        W37103  30.540   2.249   0.678
64036W        W37104  26.588  23.992  14.349
64037W        W37105   5.277  14.243  14.768
64038W        W37106  31.550  23.119  13.349
64039W        W37107  28.468   6.126  11.670
64040W        W37108   9.720  43.319   4.577
64041W        W37109   0.374  17.131  14.517
64042W        W37110   1.747  42.797  14.949
64043W        W37111  11.430  33.741   0.611
64044W        W37112  35.470  25.205  12.885
64045W        W37113  43.404   7.344  12.550
64046W        W37114  27.410  37.592   2.149
64047W        W37115  21.248  34.540  10.722
64048W        W37116  31.453  44.741  12.527
64049W        W37117   2.973  44.789  10.900
64050W        W37118  18.276  39.441   2.131
64051W        W37119  42.395  19.513   0.069
64052W        W37120  41.350  20.202   3.607
64053W        W37121   5.659   1.977  12.243
64054W        W37122   3.660  21.941  11.679
64055W        W37123   5.756  26.194   4.906
64056W        W37124  16.121  14.366   0.676
64057W        W37125   9.865  20.202   3.818
64058W        W37126   2.373  19.680  12.011
64059W        W37127  36.979   8.602   1.207
64060W        W37128  13.319  17.303   1.199
64061W        W37129   3.360  27.301  13.530
64062W        W37130  17.661  40.827   4.221
64063W        W37131  24.820   3.950  14.601
64064W        W37132  28.933  15.583   4.882
64065W        W37133  29.023  14.095  14.578
64066W        W37134  39.773  40.198  14.377
64067W        W37135  20.035  12.596  12.707
64068W        W37136  18.196  15.859   3.286
64069W        W37137  17.753  40.789  14.250
64070W        W37138  29.133  25.971   4.818
64071W        W37139  21.360  39.633   3.376
64072W        W37140   5.931  31.414   0.963
64073W        W37141  30.008  10.200   0.225
64074W        W37142  42.646  40.628  13.863
64075W        W37143  40.177  29.033   3.294
64076W        W37144  33.073  15.338   3.708
64077W        W37145  41.943   1.814   2.934
64078W        W37146   3.212  31.903  14.509
64079W        W37147  21.059  17.132  11.006
64080W        W37148  38.025  11.306  10.426
64081W        W37149  17.458  27.029   2.967
64082W        W37150  30.997  32.537  12.962
64083W        W37151  38.800   9.693   1.495
64084W        W37152  19.992  43.768  12.474
64085W        W37153  33.048  20.075  12.875
64086W        W37154  11.340  29.687  14.779
64087W        W37155  11.993  18.825  13.926
64088W        W37156  31.565  20.295  13.791
64089W        W37157  17.057  23.102   1.019
64090W        W37158  24.329   1.783  14.942
64091W        W37159  36.233  20.972   4.739
64092W        W37160  14.655   0.362   4.839
64093W        W37161  26.594  43.570   4.183
64094W        W37162  42.456  33.610   2.063
64095W        W37163  26.755  26.228  12.282
64096W        W37164  31.840   1.495   3.681
64097W        W37165  24.647  26.635   4.589
64098W        W37166  12.355  12.312   2.215
64099W        W37167  30.983  36.012   3.699
64100W        W37168  19.278  34.035  14.005
64101W        W37169  39.503   5.785   5.008
64102W        W37170  21.626   4.847  10.043
64103W        W37171  32.365   1.910   3.307
64104W        W37172  43.604  16.501  12.327
64105W        W37173  32.732   4.530  14.926
64106W        W37174  31.388  39.952   3.729
64107W        W37175  30.977  25.760  12.827
64108W        W37176  25.098  11.312  11.803
64109W        W37177  10.798  25.718  13.492
64110W        W37178  42.996  33.078   2.733
64111W        W37179   4.424  39.782   4.078
64112W        W37180  24.459  43.168   3.671
64113W        W37181  23.134  14.306  11.156
64114W        W37182  44.065  43.586  13.884
64115W        W37183  18.740   9.258   4.158
64116W        W37184  24.097  40.888  14.362
64117W        W37185   3.405  43.954   2.129
64118W        W37186  20.284   6.161   4.586
64119W        W37187  41.884  28.097   4.580
64120W        W37188   7.297  18.265  13.419
64121W        W37189  44.939  20.519   3.803
64122W        W37190   7.745   3.168   3.733
64123W        W37191  12.514  18.235   4.135
64124W        W37192  35.321  29.568   2.523
64125W        W37193   8.667  38.375   1.415
64126W        W37194  18.857  32.566  13.728
64127W        W37195  29.705  37.273  14.354
64128W        W37196  42.697  44.958   2.313
64129W        W37197   6.743  10.652   4.573
64130W        W37198  27.082  23.911   2.412
64131W        W37199  18.740  33.853   3.308
64132W        W37200  23.837  43.537   0.709
64133W        W37201  38.788   8.169  12.035
64134W        W37202   1.943  15.852   3.746
64135W        W37203   3.162  37.395  13.871
64136W        W37204   6.893  30.471   3.342
64137W        W37205   7.003  23.361   3.208
64138W        W37206  21.774  34.465   4.393
64139W        W37207  30.572  38.664  11.063
64140W        W37208  42.906  43.481   2.034
64141W        W37209   9.962   9.796  14.460
64142W        W37210  27.675  37.521   3.091
64143W        W37211  29.348   4.396   2.245
64144W        W37212  20.972  19.032   2.777
64145W        W37213  16.217  11.487  12.421
64146W        W37214  44.385  15.190  12.516
64147W        W37215   8.275  39.859  14.268
64148W        W37216  33.518  28.880   3.638
64149W        W37217   0.773  13.168   0.780
64150W        W37218   7.256   2.291  12.425
64151W        W37219  32.944  44.188  12.974
64152W        W37220  20.355  21.431   3.774
64153W        W37221  12.680  29.265  14.537
64154W        W37222  22.488  28.480   2.119
64155W        W37223  32.578   3.252  10.719
64156W        W37224  26.490  38.022   2.706
64157W        W37225  11.324   0.323  11.967
64158W        W37226  43.739  17.412   0.865
64159W        W37227  35.153  33.425   0.888
64160W        W37228   0.971   7.402   0.323
64161W        W37229  24.237   1.411   0.860
64162W        W37230  27.569  16.512  12.876
64163W        W37231  22.279  37.040   3.845
64164W        W37232  25.176  38.057  12.376
64165W        W37233  20.892  43.743   0.285
64166W        W37234  17.701  25.127   2.190
64167W        W37235  36.632   2.478   5.168
64168W        W37236  31.336  40.388  14.059
64169W        W37237  23.434  30.889   0.208
64170W        W37238  20.105  19.767   0.672
64171W        W37239  25.575  30.988   4.516
64172W        W37240   6.724  35.657   4.349
64173W        W37241  35.786  29.680  14.902
64174W        W37242  18.155  31.919  14.575
64175W        W37243  27.861  26.964  12.323
64176W        W37244   5.401  15.998  12.874
64177W        W37245  24.194  42.231   0.762
64178W        W37246  25.483  14.681   0.982
64179W        W37247  12.090  38.040  12.984
64180W        W37248   4.456   9.329  14.363
64181W        W37249  41.595  25.806  13.886
64182W        W37250  26.432   7.598  13.775
64183W        W37251  14.498   6.825   1.750
64184W        W37252   3.816  40.740  10.732
64185W        W37253  37.853  20.473  12.912
64186W        W37254  10.171   0.320  13.705
64187W        W37255  29.034   5.140   3.547
64188W        W37256   5.981  12.683  14.769
64189W        W37257  43.494  43.515   3.710
64190W        W37258  37.446   0.952  10.361
64191W        W37259  14.431   2.153   2.645
64192W        W37260  25.233  35.631   5.019
64193W        W37261  33.295  31.904  10.234
64194W        W37262  35.876  12.270   4.753
64195W        W37263  20.486  27.921  13.262
64196W        W37264  40.181  30.163   0.531
64197W        W37265   9.627  41.282  12.082
64198W        W37266   5.246  17.298   4.476
64199W        W37267   3.845  19.179   4.927
64200W        W37268   9.880  41.018   4.070
64201W        W37269  15.785  14.581  11.583
64202W        W37270  26.898  42.781  11.168
64203W        W37271  31.454  19.626  13.214
64204W        W37272  15.245  34.858  10.783
64205W        W37273  14.730   9.128   3.643
64206W        W37274  43.012   2.164  14.555
64207W        W37275  37.362  35.351  13.001
64208W        W37276  37.657  40.966  11.113
64209W        W37277  41.290   6.684   1.347
64210W        W37278  22.219  25.998  11.536
64211W        W37279   5.725  20.057  11.523
64212W        W37280  26.110  24.216  13.342
64213W        W37281  31.129  12.114   0.281
64214W        W37282  15.189  18.720   1.413
64215W        W37283  24.484   3.270   1.462
64216W        W37284  31.761  26.223  14.158
64217W        W37285  27.188   0.085   0.421
64218W        W37286   3.554  33.621   2.832
64219W        W37287  40.397  42.044  14.705
64220W        W37288   6.907   2.479   0.984
64221W        W37289  44.209  44.065   2.639
64222W        W37290  32.429  29.025  11.123
64223W        W37291  15.772  36.033   1.281
64224W        W37292  16.370  21.044  11.720
64225W        W37293  32.979   7.925  13.051
64226W        W37294   2.867  20.431   0.916
64227W        W37295  11.300   1.175  11.563
64228W        W37296  10.632  18.129   0.203
64229W        W37297  19.299  39.298  10.159
64230W        W37298  43.531  41.704  11.887
64231W        W37299  21.650  13.131  14.081
64232W        W37300  31.673   8.883   5.138
64233W        W37301  24.500  29.910   4.534
64234W        W37302  10.132  39.854   3.614
64235W        W37303  38.878  31.842  11.938
64236W        W37304   0.164  34.332   0.875
64237W        W37305   7.630  39.338   2.773
64238W        W37306  27.207   7.607  13.319
64239W        W37307  15.298  37.041  11.678
64240W        W37308  27.234  23.014   4.693
64241W        W37309   4.932  32.118   0.167
64242W        W37310  16.125  36.406  13.330
64243W        W37311  31.031  34.421   0.501
64244W        W37312   0.803   0.320  13.560
64245W        W37313   4.484  32.747  13.111
64246W        W37314  10.852  27.594   1.974
64247W        W37315  35.558  44.725  14.106
64248W        W37316  10.584  22.345  13.413
64249W        W37317  38.582  34.647   0.199
64250W        W37318  10.173  16.848  13.016
64251W        W37319  23.986  37.920  13.950
64252W        W37320  11.580  44.928  12.271
64253W        W37321  25.703  27.117   0.305
64254W        W37322  44.612  15.232  12.034
64255W        W37323  16.720  34.293   0.396
64256W        W37324  25.046  32.534   4.909
64257W        W37325  11.295  10.417   4.202
64258W        W37326  29.185  40.964   2.315
64259W        W37327  34.557  34.232  14.398
64260W        W37328  28.635  35.169  12.493
64261W        W37329  21.454  16.827   2.851
64262W        W37330  15.746  38.715  12.209
64263W        W37331   6.738  26.943   2.240
64264W        W37332  22.576  27.946   3.788
64265W        W37333  34.468  13.451   4.178
64266W        W37334  26.448  29.610   4.517
64267W        W37335  16.691   3.775  12.845
64268W        W37336  24.500  17.113  12.570
64269W        W37337   7.842   0.695   2.040
64270W        W37338  37.652   5.131   0.174
64271W        W37339  42.921   0.494  11.859
64272W        W37340  38.512   9.274   1.609
64273W        W37341  28.716  34.478  14.528
64274W        W37342  21.282  19.153   3.199
64275W        W37343   3.212   0.648  11.620
64276W        W37344  32.356  13.372   3.352
64277W        W37345  25.903  41.493  14.775
64278W        W37346  11.947  13.106  12.338
64279W        W37347  28.252  18.688  11.194
64280W        W37348  43.920  13.797   1.688
64281W        W37349  42.880   3.862  12.495
64282W        W37350  12.747  28.502  13.981
64283W        W37351  30.660  42.897   0.014
64284W        W37352  44.408   3.444   5.123
64285W        W37353  31.962  38.364   1.208
64286W        W37354  27.537  34.865   3.285
64287W        W37355  32.116  30.135  14.477
64288W        W37356  42.459  21.147  14.217
64289W        W37357  17.271  34.995   1.331
64290W        W37358  14.668   5.361  14.004
64291W        W37359   9.042   3.309   4.168
64292W        W37360  17.332   7.870   1.215
64293W        W37361  22.824  35.746  10.209
64294W        W37362  40.535  23.976  10.701
64295W        W37363  14.898  36.472   3.825
64296W        W37364  17.487  31.477  13.785
64297W        W37365  23.702   3.795  10.953
64298W        W37366  24.649  30.100  14.305
64299W        W37367  26.576   3.731   3.172
64300W        W37368  18.748  35.638   0.467
64301W        W37369  17.680  26.961  10.374
64302W        W37370  36.550  16.075  11.185
64303W        W37371  27.144  17.322   4.886
64304W        W37372  14.187  26.674  14.732
64305W        W37373  40.838  14.661   2.855
64306W        W37374  21.804   3.445  12.147
64307W        W37375  43.135  25.867  12.646
64308W        W37376  11.582  39.208  14.024
64309W        W37377  31.989  23.188  11.423
64310W        W37378  35.039   7.814   4.066
64311W        W37379   8.560  41.605   2.919
64312W        W37380  37.286  12.827   4.914
64313W        W37381  25.025  36.236   0.152
64314W        W37382  23.297  13.826   1.416
64315W        W37383  26.064  36.131  12.929
64316W        W37384  26.550  27.060   4.575
64317W        W37385  37.281   4.749   0.489
64318W        W37386  19.760  43.502  10.006
64319W        W37387  41.889  43.905   3.652
64320W        W37388   5.724   1.634   2.329
64321W        W37389  41.068  17.560   0.404
64322W        W37390  13.827  10.785   4.889
64323W        W37391  31.638   7.710  11.963
64324W        W37392  21.184   5.956   4.158
64325W        W37393   7.255  37.556   2.627
64326W        W37394  34.798  34.480  10.413
64327W        W37395  33.585  17.004   0.293
64328W        W37396  37.962  18.179   2.156
64329W        W37397   0.081  28.118   0.279
64330W        W37398   9.295  26.576   0.855
64331W        W37399   6.410  34.739  12.441
64332W        W37400   0.271  28.514   2.830
64333W        W37401  44.221  10.439  11.547
64334W        W37402  17.836  18.136  12.163
64335W        W37403  20.694  34.157  14.234
64336W        W37404  44.797  39.449  10.704
64337W        W37405  39.884  12.743   1.500
64338W        W37406   7.728   7.251  11.118
64339W        W37407  29.868   2.560  14.393
64340W        W37408   7.094  22.796  14.812
64341W        W37409  38.134   5.940   0.025
64342W        W37410  39.875   2.336  13.925
64343W        W37411  17.199  29.463  11.715
64344W        W37412  10.616  13.751   1.711
64345W        W37413  43.446  20.692  10.986
64346W        W37414  41.266  22.164   2.769
64347W        W37415   6.285   3.167   3.609
64348W        W37416   2.027  20.623  10.914
64349W        W37417   9.623  40.985  10.233
64350W        W37418  36.025  14.141   5.025
64351W        W37419  38.406  43.120  12.987
64352W        W37420  43.221  16.303  13.038
64353W        W37421  39.248  36.504  12.285
64354W        W37422  22.461  18.132  13.890
64355W        W37423  40.259  28.676  10.433
64356W        W37424  13.028  26.223   2.658
64357W        W37425  42.886  35.128  11.594
64358W        W37426  35.605  38.268   4.158
64359W        W37427  12.438  30.437   2.757
64360W        W37428  12.615  28.597  13.420
64361W        W37429  24.084  16.191   3.901
64362W        W37430  43.466  32.958   1.827
64363W        W37431  13.108  13.168   1.349
64364W        W37432  11.169  40.880   4.513
64365W        W37433   5.485   3.744   4.001
64366W        W37434  19.159  33.966   4.500
64367W        W37435  32.071   5.127   5.002
64368W        W37436  39.804  36.408   3.210
64369W        W37437  18.173  22.005  13.035
64370W        W37438  34.358   3.245   4.163
64371W        W37439  43.533   0.617  11.135
64372W        W37440   3.761  43.017  13.399
64373W        W37441  15.593   9.183  14.307
64374W        W37442  17.314  13.759  10.883
64375W        W37443  43.921  20.183  13.064
64376W        W37444  13.635  42.211   2.808
64377W        W37445  30.551  28.113   4.590
64378W        W37446  10.437  20.626  13.578
64379W        W37447   9.658  44.491  12.899
64380W        W37448   3.448  27.214   2.188
64381W        W37449  35.394  14.600  12.555
64382W        W37450   6.901  42.758  13.385
64383W        W37451  34.490  38.832   2.018
64384W        W37452  10.457  20.843  10.842
64385W        W37453  27.715  32.898   0.562
64386W        W37454  28.757  43.013  13.830
64387W        W37455   4.628  34.024   4.709
64388W        W37456  15.438  34.217   3.590
64389W        W37457  15.039  42.368  11.711
64390W        W37458  35.409  27.175   3.787
64391W        W37459  22.959  27.530   2.202
64392W        W37460  32.992  33.562   1.414
64393W        W37461  25.740  40.049   3.122
64394W        W37462   9.722   7.284   4.486
64395W        W37463  38.379   5.288   0.998
64396W        W37464  33.422   7.418   3.573
64397W        W37465  40.056   5.333  13.279
64398W        W37466   8.915  32.852  13.215
64399W        W37467  24.574  16.426   3.543
64400W        W37468  28.944  18.610  13.556
64401W        W37469  16.354   9.272   1.337
64402W        W37470  10.098   5.784   2.256
64403W        W37471  43.445  27.419  10.497
64404W        W37472   2.769  40.821  10.663
64405W        W37473  20.092  17.721  13.662
64406W        W37474  42.832  21.036  13.456
64407W        W37475  29.370  44.739   4.897
64408W        W37476   5.483  16.596   4.164
64409W        W37477  27.916  43.880   4.414
64410W        W37478  26.167  37.577   0.904
64411W        W37479  23.711  41.468   0.727
64412W        W37480   2.408  19.975   0.274
64413W        W37481  33.873  35.437   0.494
64414W        W37482  23.900   8.367   1.645
64415W        W37483  18.054  44.837  12.508
64416W        W37484  36.266  19.627  14.867
64417W        W37485  19.510   3.199  14.005
64418W        W37486   7.146  23.628  12.432
64419W        W37487  41.112  34.844   1.210
64420W        W37488  39.386  20.279   0.878
64421W        W37489  43.489   8.103  13.567
64422W        W37490  32.923  25.429   3.794
64423W        W37491   3.801   6.510   0.942
64424W        W37492  25.053  14.982   4.520
64425W        W37493  15.831  27.921   4.594
64426W        W37494  28.013  37.366   0.955
64427W        W37495  43.759  40.037   4.728
64428W        W37496  14.429  17.149   0.350
64429W        W37497  13.678  44.071  13.627
64430W        W37498  34.391   1.179  12.848
64431W        W37499  34.999  41.931  10.548
64432W        W37500  36.398  32.555   4.708
64433W        W37501  10.873  35.067  14.424
64434W        W37502  37.978   1.370   4.506
64435W        W37503   3.656  11.653  13.868
64436W        W37504   0.223   7.349   0.319
64437W        W37505   7.167  33.450  12.934
64438W        W37506  21.216  25.706   1.767
64439W        W37507  28.062  42.684   2.364
64440W        W37508  34.905  39.089  13.797
64441W        W37509   2.759  26.413  11.471
64442W        W37510  40.336   4.164  10.610
64443W        W37511   8.985  25.776   1.353
64444W        W37512  26.902  26.175   1.182
64445W        W37513   9.871  26.054  12.261
64446W        W37514   3.730  34.559   0.317
64447W        W37515  25.925  13.951  12.105
64448W        W37516  44.380  18.614  14.182
64449W        W37517  25.200  31.677  14.034
64450W        W37518  26.845  11.712  11.623
64451W        W37519  23.780   3.726  12.861
64452W        W37520   1.289  16.613   0.359
64453W        W37521  14.390   2.237  12.559
64454W        W37522  14.153  13.937   1.944
64455W        W37523   7.345  35.592   3.362
64456W        W37524   2.162  27.155   4.050
64457W        W37525  28.703  44.745   1.315
64458W        W37526  10.791   8.828   3.629
64459W        W37527  10.345  19.015  10.853
64460W        W37528  14.438   2.736  11.643
64461W        W37529  33.077  16.565  11.772
64462W        W37530   9.184  31.496   0.616
64463W        W37531  14.692  30.698   5.078
64464W        W37532  37.773  14.349   4.256
64465W        W37533  37.824  16.758   0.261
64466W        W37534  13.824  14.260   2.676
64467W        W37535  32.468  43.205  12.479
64468W        W37536   0.899  15.981   0.036
64469W        W37537  26.280  28.405   3.223
64470W        W37538  15.799  15.177  13.097
64471W        W37539  23.288   5.727   1.957
64472W        W37540   9.777   2.422   4.541
64473W        W37541  42.785   0.315   3.175
64474W        W37542  23.900   6.385   1.873
64475W        W37543  40.540  23.144  14.006
64476W        W37544  14.571  28.939  12.461
64477W        W37545  14.243  21.651  13.549
64478W        W37546  10.014  21.634   3.456
64479W        W37547  29.761  19.214   0.348
64480W        W37548  30.166   5.352  10.424
64481W        W37549  14.862  20.596   5.013
64482W        W37550   8.791  26.072  11.263
64483W        W37551  38.863  11.578  13.093
64484W        W37552  44.358  11.198  14.371
64485W        W37553  32.335   2.052  11.969
64486W        W37554  11.574  34.709  14.948
64487W        W37555   3.366  39.877  11.504
64488W        W37556  11.759  20.117  11.641
64489W        W37557  10.763  40.250   2.361
64490W        W37558   2.728  34.444  10.550
64491W        W37559  10.396  15.923  10.671
64492W        W37560  12.560  38.833  12.806
64493W        W37561  16.963  12.114  14.383
64494W        W37562  20.606   3.119  12.854
64495W        W37563  18.868  25.058  14.452
64496W        W37564  17.707   0.217  12.688
64497W        W37565  23.210  19.607   2.336
64498W        W37566  24.746  42.811   3.078
64499W        W37567  28.652  33.379  12.829
64500W        W37568  36.458  40.441   4.586
64501W        W37569  44.233  31.438   2.269
64502W        W37570  10.736  30.382  12.415
64503W        W37571  11.346  23.697  13.263
64504W        W37572  29.527   0.899  13.455
64505W        W37573  14.802   3.353  11.100
64506W        W37574  20.347  20.482  11.072
64507W        W37575  12.257   6.892   3.341
64508W        W37576  11.907   6.394  14.731
64509W        W37577  22.048  34.052  14.869
64510W        W37578   3.243   7.751  14.212
64511W        W37579  43.009  22.214  12.086
64512W        W37580  13.222  33.321  11.994
64513W        W37581  23.106   8.359   1.451
64514W        W37582  43.931   2.341  11.967
64515W        W37583   6.350  38.540   0.166
64516W        W37584  24.454   3.713   3.789
64517W        W37585  12.805   9.482   0.213
64518W        W37586  25.747  34.894  13.892
64519W        W37587  17.216  43.279   1.396
64520W        W37588  44.269  17.712  13.425
64521W        W37589  28.593   7.168  13.399
64522W        W37590   5.270  10.496   4.347
64523W        W37591  10.679  18.732   4.679
64524W        W37592  17.497  43.930  11.834
64525W        W37593   7.657  44.868   3.034
64526W        W37594  20.646  14.218  14.522
64527W        W37595  20.588  20.277  13.383
64528W        W37596  19.650  12.206  14.061
64529W        W37597  17.727  43.769  10.941
64530W        W37598  34.800   5.420   4.061
64531W        W37599  13.207  17.318   2.158
64532W        W37600  40.422  39.354  11.076
64533W        W37601   5.850  34.027   0.547
64534W        W37602  20.705  18.740  13.441
64535W        W37603   2.272  41.502   4.222
64536W        W37604  42.995  26.189  13.451
64537W        W37605  16.721   9.227   4.222
64538W        W37606  28.520  32.999  14.926
64539W        W37607  16.018  26.031   0.879
64540W        W37608  34.952   7.931  11.712
64541W        W37609  12.196  40.365   0.963
64542W        W37610  14.374  35.467  14.500
64543W        W37611  24.496  28.398  12.966
64544W        W37612  28.960  34.343   0.016
64545W        W37613  20.693  16.168  12.005
64546W        W37614  12.185  15.348   4.096
64547W        W37615   3.620  21.306  14.845
64548W        W37616  28.645  21.548   3.886
64549W        W37617  26.887  30.548   3.274
64550W        W37618  35.493   2.372   4.782
64551W        W37619  44.953  36.862  13.526
64552W        W37620  36.352  34.976   1.584
64553W        W37621  41.414   3.919  14.397
64554W        W37622   5.050  28.950  10.454
64555W        W37623  23.198  31.673  13.073
64556W        W37624  29.157  21.792   0.832
64557W        W37625  29.021  33.859  12.330
64558W        W37626  34.931  35.444  13.105
64559W        W37627   8.620   0.499   0.076
64560W        W37628  19.429  17.374  14.838
64561W        W37629   9.698  25.057   0.663
64562W        W37630   2.141  40.333   3.312
64563W        W37631  11.784   9.613   1.504
64564W        W37632   3.509  35.210  11.570
64565W        W37633   3.503  35.935  12.945
64566W        W37634  26.110   2.945  11.596
64567W        W37635  41.962   8.299  11.671
64568W        W37636   7.294   6.562   1.465
64569W        W37637   9.645  11.193   1.307
64570W        W37638  13.403  35.362   4.526
64571W        W37639  30.081  37.597   3.832
64572W        W37640   3.266  38.032   4.336
64573W        W37641   7.822  39.545   3.250
64574W        W37642  16.910  35.352  10.847
64575W        W37643  26.359  24.187   3.709
64576W        W37644  18.168  16.797   3.194
64577W        W37645  40.122  29.564  13.416
64578W        W37646  36.316  33.131  14.927
64579W        W37647   1.203  13.244   4.056
64580W        W37648  26.074  29.898   4.127
64581W        W37649  30.097  11.327   1.419
64582W        W37650   9.315  39.801   5.092
64583W        W37651  30.543  29.226   2.636
64584W        W37652  10.273  18.434   4.556
64585W        W37653  24.583  28.367   0.780
64586W        W37654  29.673  34.948   2.831
64587W        W37655  31.052   0.438  11.992
64588W        W37656   8.018   4.897  12.525
64589W        W37657  35.165   6.298   5.000
64590W        W37658  34.445  41.074   2.188
64591W        W37659  35.885  24.524   1.314
64592W        W37660   9.802  42.082  11.532
64593W        W37661  23.197  39.557  14.314
64594W        W37662   7.623  25.098   3.781
64595W        W37663  33.136   8.275  12.332
64596W        W37664  24.294  13.083  10.716
64597W        W37665  38.446  27.361  11.603
64598W        W37666  35.233  21.209  11.987
64599W        W37667  13.831  12.856   3.722
64600W        W37668  15.310  15.306   1.782
64601W        W37669  22.973  30.117  11.157
64602W        W37670   2.325  10.821  14.433
64603W        W37671  40.366  18.555  13.550
64604W        W37672  26.636  10.654   2.879
64605W        W37673  13.425  23.625   1.073
64606W        W37674   9.116  37.451   3.703
64607W        W37675  36.892  26.862  10.743
64608W        W37676  17.126  24.695   0.374
64609W        W37677  33.713  23.520   0.326
64610W        W37678  10.733  26.465   4.676
64611W        W37679  18.724  14.034   0.616
64612W        W37680   8.388  19.071  12.948
64613W        W37681  28.303   6.644   3.417
64614W        W37682   8.926  39.179  10.146
64615W        W37683  41.407  19.697  10.722
64616W        W37684   4.267  15.626  11.370
64617W        W37685  13.145   2.783   3.483
64618W        W37686  22.632  22.262   2.761
64619W        W37687  21.708  41.417  14.332
64620W        W37688   5.952   7.848   1.901
64621W        W37689  20.797  19.570  14.404
64622W        W37690  16.535   3.990   0.739
64623W        W37691  19.722  24.227   4.310
64624W        W37692  11.130  37.318  14.332
64625W        W37693  27.959  28.703   2.172
64626W        W37694  14.657  13.238   3.615
64627W        W37695  23.401   3.436  13.782
64628W        W37696  25.118   8.807   1.303
64629W        W37697   5.626  22.252   3.220
64630W        W37698  20.029  30.875  14.525
64631W        W37699   6.191   6.955   4.142
64632W        W37700  15.810  28.850  12.005
64633W        W37701  28.264  37.366   4.299
64634W        W37702  15.768  17.543  10.814
64635W        W37703  31.365  15.631   2.293
64636W        W37704  15.708  22.621  14.995
64637W        W37705   9.710  16.852  12.397
64638W        W37706  37.938  18.189   1.151
64639W        W37707   8.673  28.553  14.046
64640W        W37708  37.666  26.679   1.961
64641W        W37709  15.693  12.575   0.783
64642W        W37710  28.657  19.701  10.249
64643W        W37711  22.480  35.916  13.269
64644W        W37712  35.528   0.349  10.885
64645W        W37713  37.044   6.712  12.831
64646W        W37714  27.182  18.529   1.449
64647W        W37715   4.927   7.292   0.244
64648W        W37716  28.817  31.707  11.272
64649W        W37717   5.633  35.869   1.830
64650W        W37718  22.856  33.890   2.373
64651W        W37719  31.951  18.500  12.402
64652W        W37720  33.885  37.701  12.997
64653W        W37721  31.686  15.255   3.545
64654W        W37722  42.121  35.220   3.246
64655W        W37723  21.602  34.291   2.655
64656W        W37724  18.468  37.838  11.566
64657W        W37725  35.984  37.623   1.305
64658W        W37726   8.090  40.293   2.849
64659W        W37727  11.213   7.628  13.458
64660W        W37728  24.504  18.602  13.450
64661W        W37729  41.589  25.199  10.674
64662W        W37730   1.579  15.827   0.697
64663W        W37731  43.915  19.215  13.551
64664W        W37732  15.800  33.528  10.266
64665W        W37733  41.934  42.239   3.936
64666W        W37734  39.579   9.624  12.108
64667W        W37735  27.623  29.065   1.779
64668W        W37736  41.917  33.509  12.991
64669W        W37737  36.208  19.112  13.897
64670W        W37738  10.770  12.296  14.836
64671W        W37739  30.649  13.652  13.887
64672W        W37740  13.069  35.092  12.378
64673W        W37741  25.703  37.679   0.722
64674W        W37742  26.626  10.084  14.961
64675W        W37743  39.587  27.833   3.689
64676W        W37744  36.399  43.246   1.865
64677W        W37745  27.576   9.992  12.824
64678W        W37746  29.554  24.707   3.608
64679W        W37747  17.554  43.495   3.727
64680W        W37748  33.952  13.677   0.374
64681W        W37749  26.446  18.048  13.481
64682W        W37750  14.353  32.697   4.914
64683W        W37751  14.093  43.335   0.896
64684W        W37752  21.721   0.027  10.582
64685W        W37753   6.970  33.941   2.819
64686W        W37754  22.677  24.475   0.662
64687W        W37755  20.761  31.906  12.546
64688W        W37756  15.119   1.729  11.364
64689W        W37757  41.655  32.694   4.556
64690W        W37758  33.523  40.054   3.597
64691W        W37759  21.231   2.705   2.786
64692W        W37760  12.591  25.863  14.537
64693W        W37761  12.560  15.057   4.303
64694W        W37762  30.367  42.612  12.094
64695W        W37763   4.839  43.028   3.124
64696W        W37764  14.835   1.504   0.267
64697W        W37765   9.423  26.043   3.112
64698W        W37766  11.154   0.392  12.515
64699W        W37767   4.162  17.429  12.572
64700W        W37768  43.787  10.380  11.191
64701W        W37769  43.009  36.707  11.250
64702W        W37770  19.668  32.934   2.812
64703W        W37771  33.870  13.845  10.482
64704W        W37772   3.073  11.012  14.385
64705W        W37773   0.911  23.666   4.557
64706W        W37774  39.234  10.408  11.394
64707W        W37775   0.736  30.059   1.784
64708W        W37776  26.393  38.057  10.465
64709W        W37777   7.953  13.068  14.812
64710W        W37778  44.737  24.080   1.625
64711W        W37779  37.303  30.259   0.433
64712W        W37780   3.225  37.974  10.772
64713W        W37781  41.589  38.506   4.208
64714W        W37782  13.708  23.578   1.511
64715W        W37783  34.100   5.362   3.384
64716W        W37784  11.492  15.418   5.128
64717W        W37785  12.916  22.836   4.165
64718W        W37786  43.482   0.158   0.364
64719W        W37787   1.462  14.335  14.761
64720W        W37788  28.075  26.508   0.299
64721W        W37789  26.904  42.717   5.188
64722W        W37790  25.846  44.113  14.064
64723W        W37791  22.493  33.087  14.916
64724W        W37792  38.406   8.865  11.931
64725W        W37793   9.376   4.893   3.732
64726W        W37794  13.710  27.236   2.875
64727W        W37795  33.165  12.785   0.658
64728W        W37796  41.855   2.327  11.851
64729W        W37797  15.082  28.442  11.099
64730W        W37798  10.644  14.996  14.865
64731W        W37799  34.194  31.848   4.276
64732W        W37800   5.923  31.821  13.496
64733W        W37801   1.029  19.323  11.628
64734W        W37802  36.190  22.421   9.614
64735W        W37803   6.751  11.281   1.798
64736W        W37804  41.912  33.794  11.141
64737W        W37805  34.903  14.515   2.296
64738W        W37806  11.750  17.315   2.059
64739W        W37807  28.360  23.406  14.885
64740W        W37808  34.373  24.750  12.638
64741W        W37809  39.517   7.932   0.808
64742W        W37810  29.139  26.167  13.032
64743W        W37811  29.202  25.981   0.059
64744W        W37812   3.769  19.984  14.672
64745W        W37813   5.944  17.978   0.909
64746W        W37814  35.913  42.791   3.589
64747W        W37815  22.182   9.180  11.350
64748W        W37816   1.019  30.800   2.363
64749W        W37817  17.070  28.978  11.679
64750W        W37818   0.818  24.967   3.151
64751W        W37819  20.905   4.954   4.096
64752W        W37820  22.190   0.255  10.584
64753W        W37821  41.307  16.496   9.788
64754W        W37822   0.041  39.457  11.995
64755W        W37823  30.643  42.025   1.361
64756W        W37824  27.213  23.474  12.424
64757W        W37825  39.716  44.272   3.607
64758W        W37826  22.161   7.655  10.387
64759W        W37827  32.093  21.178   1.408
64760W        W37828  31.220  30.047   3.855
64761W        W37829  24.338  34.962  13.559
64762W        W37830  18.801  11.173  11.986
64763W        W37831   8.422  23.817   0.812
64764W        W37832  39.215  35.100  14.882
64765W        W37833  35.338  23.990  13.788
64766W        W37834  15.716  23.226   2.034
64767W        W37835  38.408  10.463   2.662
64768W        W37836   7.798   4.477   2.726
64769W        W37837  22.576  13.487   0.818
64770W        W37838  41.320  29.649  14.079
64771W        W37839   6.176  26.050  11.220
64772W        W37840  44.241  11.814   4.322
64773W        W37841  28.436  28.446  11.263
64774W        W37842   3.870   0.520   4.587
64775W        W37843  40.589  40.453  13.971
64776W        W37844   9.284  13.090   4.231
64777W        W37845  25.373  14.773   2.891
64778W        W37846   7.022  37.562  11.187
64779W        W37847   3.627   5.360  11.120
64780W        W37848  21.167  19.619   2.028
64781W        W37849  12.791  20.803  12.103
64782W        W37850  32.604  39.541   4.070
64783W        W37851   6.349  31.283   0.230
64784W        W37852   8.861  31.531  14.960
64785W        W37853  28.944  29.572   0.498
64786W        W37854  32.405  18.586  14.168
64787W        W37855  26.558   2.991   0.507
64788W        W37856  14.599  40.251  12.516
64789W        W37857  38.919  24.891  14.799
64790W        W37858  22.665  30.197  12.539
64791W        W37859   2.245  30.341   1.397
64792W        W37860   0.211  20.449   0.762
64793W        W37861   1.390  23.211  13.827
64794W        W37862  28.702   4.420   4.671
64795W        W37863  28.095   9.827  13.473
64796W        W37864   9.484  11.721   0.372
64797W        W37865  43.212  44.319   1.415
64798W        W37866  40.522  21.086  14.782
64799W        W37867  14.197   5.569  10.607
64800W        W37868  31.612   6.853  10.742
64801W        W37869   2.689  28.632  13.605
64802W        W37870  13.356   1.423  11.099
64803W        W37871  13.853  32.965   3.336
64804W        W37872  32.233  17.372  10.324
64805W        W37873  31.946  37.680  11.277
64806W        W37874  13.346  11.793   2.783
64807W        W37875  27.703   9.129   1.405
64808W        W37876   0.727   3.852   0.382
64809W        W37877   8.164  26.058   4.901
64810W        W37878  19.158  23.662   0.920
64811W        W37879  38.092  26.438   1.746
64812W        W37880   2.519   7.279  14.638
64813W        W37881   6.609  25.949  12.473
64814W        W37882  42.733  41.535   1.884
64815W        W37883  24.077   7.985  13.161
64816W        W37884  23.962  19.137   4.544
64817W        W37885  38.412   3.165  12.488
64818W        W37886  31.857   6.079   2.100
64819W        W37887  11.759  12.337   3.852
64820W        W37888  34.363   3.933  14.336
64821W        W37889   2.798  10.764  13.667
64822W        W37890  26.570  27.739  10.700
64823W        W37891  13.552   1.329   3.325
64824W        W37892  22.281  37.045  14.512
64825W        W37893   2.699   0.799  11.585
64826W        W37894  29.449  26.201  11.352
64827W        W37895  28.800  33.049   1.356
64828W        W37896  41.125  10.755  14.527
64829W        W37897   1.405  37.055  14.452
64830W        W37898  28.071  19.154  10.180
64831W        W37899  37.496   6.759  14.962
64832W        W37900  17.175  24.159   4.601
64833W        W37901  18.731   7.177  11.194
64834W        W37902  36.406  42.844   0.782
64835W        W37903  28.618   1.771   2.731
64836W        W37904  40.972  34.994   3.398
64837W        W37905  29.478   4.280   3.383
64838W        W37906  37.641  34.641   4.247
64839W        W37907  32.538  21.968   1.330
64840W        W37908  33.340  38.023   1.086
64841W        W37909  17.743  11.006   2.051
64842W        W37910  29.642  25.700  14.994
64843W        W37911  29.924  40.148  11.749
64844W        W37912  13.815  17.356  10.585
64845W        W37913   6.619  41.651   1.727
64846W        W37914  10.245  15.436  14.948
64847W        W37915  28.962  37.330  12.008
64848W        W37916  39.346   0.371  12.138
64849W        W37917   8.171   9.649   0.012
64850W        W37918   0.904  21.351  13.908
64851W        W37919  19.930  26.262  12.907
64852W        W37920  40.496   4.475  14.900
64853W        W37921   6.927  17.156  13.436
64854W        W37922  28.160  13.125  14.283
64855W        W37923  38.052  24.457  11.686
64856W        W37924  22.506  16.194  11.187
64857W        W37925  26.585  29.020  12.626
64858W        W37926  12.598   8.792   2.218
64859W        W37927   3.312  13.503   1.286
64860W        W37928  27.818  22.182  14.933
64861W        W37929   8.804   1.924  10.729
64862W        W37930  35.333   3.973   2.774
64863W        W37931  24.481  18.440   3.683
64864W        W37932  41.801  24.820  12.152
64865W        W37933  37.849  15.662  10.438
64866W        W37934  44.409  25.389   2.718
64867W        W37935  32.933   4.765   1.877
64868W        W37936  14.947   0.038   2.297
64869W        W37937  21.655   3.306  10.789
64870W        W37938  26.587  42.965  12.673
64871W        W37939   1.685  39.370   4.611
64872W        W37940   1.045  34.832  12.647
64873W        W37941  15.338  20.227  12.738
64874W        W37942  44.345  17.745  14.735
64875W        W37943  15.303  38.561   4.517
64876W        W37944  32.137  25.586   0.728
64877W        W37945  38.908  29.885   2.904
64878W        W37946  44.426  25.594   1.997
64879W        W37947  13.035   2.881  11.162
64880W        W37948  32.528  12.198   4.271
64881W        W37949  10.126  38.246  13.063
64882W        W37950  18.495  17.352  12.913
64883W        W37951  30.088   4.789  14.738
64884W        W37952   0.771  11.548   1.097
64885W        W37953  16.943   3.535   1.885
64886W        W37954   2.425  44.947   4.550
64887W        W37955  15.303  30.126  10.628
64888W        W37956  14.647  22.986   2.159
64889W        W37957  15.525  40.893  14.133
64890W        W37958   1.816  29.397  12.993
64891W        W37959  19.074  37.268   2.604
64892W        W37960  23.686  15.550  13.466
64893W        W37961  44.442  28.899   1.946
64894W        W37962  10.602  16.583   9.775
64895W        W37963  43.908  27.628  10.685
64896W        W37964  13.599  40.299  10.552
64897W        W37965  24.422   4.391   4.576
64898W        W37966  27.590  16.278   1.814
64899W        W37967   3.734  13.249   2.370
64900W        W37968  23.038   5.845  12.427
64901W        W37969  42.072  38.582   0.240
64902W        W37970  11.096   3.322  13.117
64903W        W37971  19.064  15.185   1.991
64904W        W37972   4.218  11.758   3.611
64905W        W37973  33.338  24.574   2.392
64906W        W37974  26.999  23.261  12.882
64907W        W37975  29.959   8.032   3.263
64908W        W37976  37.394  37.016  12.029
64909W        W37977  23.252  12.195  14.389
64910W        W37978  10.223  44.923  12.213
64911W        W37979  12.980   1.910   0.771
64912W        W37980  21.830   1.009  14.530
64913W        W37981  36.998  36.324   3.232
64914W        W37982   2.735  37.013   2.870
64915W        W37983  18.740  24.615  14.698
64916W        W37984  15.281  29.504  12.392
64917W        W37985  34.128  32.628   2.884
64918W        W37986   3.432  21.530   3.108
64919W        W37987   1.275   9.249  12.621
64920W        W37988  34.592   8.444   0.855
64921W        W37989  12.801  35.835   0.301
64922W        W37990   0.360  21.124  11.870
64923W        W37991   6.849  18.757  11.785
64924W        W37992  23.570  18.619   1.890
64925W        W37993  11.432  32.010  12.980
64926W        W37994  44.000  31.420  13.072
64927W        W37995  35.496  30.858   4.524
64928W        W37996  13.370  30.979   4.362
64929W        W37997  18.556  26.348  11.632
64930W        W37998  38.456  28.807   4.803
64931W        W37999  28.172  10.859  11.993
64932W        W38000  42.700  18.558  13.895
64933W        W38001  16.241  26.462  11.168
64934W        W38002  23.537   2.980  14.848
64935W        W38003   7.682  31.563  11.364
64936W        W38004  26.890  24.687   1.424
64937W        W38005  29.431  15.847  11.476
64938W        W38006  20.183   3.667   1.766
64939W        W38007  23.938   0.275   2.670
64940W        W38008  27.412  36.030  12.494
64941W        W38009  28.899  14.704   4.395
64942W        W38010  43.857  41.046   2.808
64943W        W38011   7.833   1.139  12.946
64944W        W38012  12.338  35.381  14.811
64945W        W38013  17.096  41.340  12.775
64946W        W38014  40.194  29.891   1.401
64947W        W38015   7.137  22.002  11.595
64948W        W38016  12.210  38.571   1.313
64949W        W38017  20.298  36.213   4.484
64950W        W38018  22.408  25.670  13.630
64951W        W38019  41.389  22.248  12.426
64952W        W38020  38.386  39.580  11.652
64953W        W38021   1.850   4.211  10.897
64954W        W38022  20.253   0.571  12.476
64955W        W38023  42.917  14.126   1.200
64956W        W38024  43.666  33.801  10.024
64957W        W38025   5.855  12.381  12.521
64958W        W38026   7.831   4.377   5.094
64959W        W38027  18.600  36.430  10.674
64960W        W38028  40.806  31.448  10.652
64961W        W38029   3.913  22.617   3.412
64962W        W38030  28.536   8.475   3.293
64963W        W38031  38.612   5.978  13.107
64964W        W38032   8.180   3.985   1.031
64965W        W38033  26.610  24.895   4.637
64966W        W38034   1.157  27.715   2.693
64967W        W38035  25.935  12.405   0.445
64968W        W38036  13.256  42.759   0.722
64969W        W38037   6.338   7.453  14.048
64970W        W38038  32.622  23.225   2.123
64971W        W38039  14.069   9.408   1.803
64972W        W38040  33.263  41.214  11.923
64973W        W38041  44.467   4.679  14.934
64974W        W38042  33.645  15.684  14.424
64975W        W38043  12.392  17.427  11.680
64976W        W38044   5.134  33.738  13.982
64977W        W38045   2.500  44.747  11.085
64978W        W38046  14.837  28.578  11.559
64979W        W38047  41.122   2.482   0.214
64980W        W38048  26.188  36.916   0.737
64981W        W38049  11.138  43.281   2.283
64982W        W38050  36.549  18.144  11.673
64983W        W38051   0.889  30.642   1.709
64984W        W38052   4.211  44.350   4.618
64985W        W38053   0.313  38.521  10.581
64986W        W38054  18.382  40.867  14.811
64987W        W38055   3.871  24.914   3.079
64988W        W38056  44.703  36.062  11.160
64989W        W38057   6.285  36.191   3.120
64990W        W38058  30.131  39.023  10.210
64991W        W38059  43.943  21.537   1.254
64992W        W38060  26.015  11.350   1.288
64993W        W38061  10.836  19.204  12.056
64994W        W38062   5.678   7.791   0.019
64995W        W38063  23.004   5.265  12.002
64996W        W38064   7.307  26.879  11.058
64997W        W38065  25.444  12.930   0.909
64998W        W38066   7.168  14.728  11.718
64999W        W38067   8.212  30.895  12.019
65000W        W38068  11.771   5.037  12.169
65001W        W38069  10.898  16.695  13.229
65002W        W38070  35.441  24.255   0.828
65003W        W38071  12.706  39.299  13.031
65004W        W38072  40.442  28.154   2.310
65005W        W38073  39.909  16.143   4.915
65006W        W38074  31.425  39.672  11.963
65007W        W38075   5.773  12.122   1.334
65008W        W38076  24.560  41.943   3.333
65009W        W38077   4.942   7.822  12.568
65010W        W38078   0.875  18.439   4.959
65011W        W38079  34.891  29.474   0.375
65012W        W38080  25.125   8.423  11.920
65013W        W38081  36.652   6.683   3.251
65014W        W38082  44.788   5.654  14.015
65015W        W38083  25.183  37.071  13.453
65016W        W38084   1.334  26.240   0.404
65017W        W38085  15.556   7.628   2.474
65018W        W38086   6.439   2.972   2.176
65019W        W38087  18.719  19.267   1.294
65020W        W38088  21.133  30.880  13.648
65021W        W38089   0.295  34.073  13.455
65022W        W38090  19.607  28.638   4.385
65023W        W38091  20.802   2.732  11.008
65024W        W38092  38.344  15.070  12.434
65025W        W38093  27.907  14.419   0.867
65026W        W38094  12.668   6.059   2.961
65027W        W38095  23.455  13.424  11.535
65028W        W38096  17.233   7.353  14.960
65029W        W38097  11.627   9.271  11.675
65030W        W38098  34.904  19.655   1.583
65031W        W38099  19.876  29.885  13.909
65032W        W38100  23.018   0.731   3.288
65033W        W38101  34.300  33.196   4.571
65034W        W38102  28.000  17.292   0.973
65035W        W38103   9.420  12.499   1.970
65036W        W38104  26.051  38.425  10.621
65037W        W38105  38.100  33.155  12.467
65038W        W38106  42.792   3.734  14.752
65039W        W38107  32.445  37.031  10.727
65040W        W38108  44.727  15.029   0.423
65041W        W38109   4.564   3.491   1.083
65042W        W38110  35.784  26.830   3.698
65043W        W38111   0.513  27.085   1.627
65044W        W38112  13.560  22.528   4.694
65045W        W38113  40.307  28.351   2.767
65046W        W38114  40.170  15.927   3.683
65047W        W38115  36.563  19.705   0.832
65048W        W38116  32.346  30.152  10.012
65049W        W38117  39.564  27.113  12.593
65050W        W38118  31.328  32.503   1.688
65051W        W38119  31.641   0.486   1.213
65052W        W38120   7.930  13.577  14.888
65053W        W38121  42.868  14.558   0.904
65054W        W38122  30.455   4.811   1.588
65055W        W38123  12.292  18.226  14.781
65056W        W38124  43.954   0.763  14.332
65057W        W38125  38.592  10.603   3.200
65058W        W38126  32.909   3.741   1.866
65059W        W38127  20.453  17.609   1.814
65060W        W38128  35.098  10.199   1.866
65061W        W38129  18.523   4.571   5.054
65062W        W38130  15.123  26.379  14.340
65063W        W38131  40.488  19.758  13.405
65064W        W38132  25.075  23.208  11.235
65065W        W38133  36.922  39.290  12.637
65066W        W38134  16.682   3.522   2.488
65067W        W38135  18.619  14.227   1.080
65068W        W38136   9.962  18.576  11.076
65069W        W38137  39.304  19.784   2.402
65070W        W38138  35.392  23.759  14.936
65071W        W38139  17.552  27.573  11.647
65072W        W38140  40.294  10.839   1.424
65073W        W38141  37.436  36.410   1.981
65074W        W38142  26.230  28.092  14.254
65075W        W38143   6.948   9.697  10.528
65076W        W38144   1.192  19.756   2.746
65077W        W38145  23.435  27.535  12.068
65078W        W38146  26.521  34.996   0.871
65079W        W38147  25.233   5.774   3.788
65080W        W38148  33.996  37.090   4.747
65081W        W38149   2.256  18.568  13.372
65082W        W38150  31.599   9.688   2.816
65083W        W38151  13.031  20.283  14.648
65084W        W38152  24.037  32.707  11.298
65085W        W38153  29.427   4.634   5.244
65086W        W38154   1.019   4.489   2.283
65087W        W38155  19.800  28.026  12.540
65088W        W38156  16.320  11.238   3.354
65089W        W38157   1.195  32.203   2.974
65090W        W38158  28.039  14.793   1.254
65091W        W38159  31.815  17.257  12.614
65092W        W38160  41.626  10.159   2.164
65093W        W38161  35.126   7.051  12.018
65094W        W38162   0.461  38.513  14.791
65095W        W38163  25.400  19.775  14.079
65096W        W38164  25.297  30.063  12.944
65097W        W38165   0.841  18.527   1.913
65098W        W38166   0.910  37.127  13.779
65099W        W38167  34.356  26.412  14.510
65100W        W38168   0.870  16.666  14.050
65101W        W38169  39.122  16.286  12.516
65102W        W38170  17.535  44.796  12.454
65103W        W38171  15.204  18.390  11.622
65104W        W38172  35.784  34.159   4.896
65105W        W38173  20.924   8.778   0.450
65106W        W38174  19.747  33.600   3.148
65107W        W38175  43.893  19.673   4.365
65108W        W38176  14.102  35.149  14.845
65109W        W38177  44.161  34.356  13.076
65110W        W38178  15.584  29.501   4.181
65111W        W38179   8.707  11.291   2.245
65112W        W38180  18.674   2.692   3.291
65113W        W38181  20.512   6.266   2.111
65114W        W38182  13.325  29.423  10.979
65115W        W38183  38.798   4.284  12.610
65116W        W38184  34.995  15.692  14.324
65117W        W38185   2.349  28.643  11.416
65118W        W38186  41.135  14.863   4.557
65119W        W38187  21.391  28.080   4.194
65120W        W38188   2.597  33.630  12.929
65121W        W38189  26.031  40.488   2.339
65122W        W38190  26.025   8.466  14.567
65123W        W38191  39.188  40.939  11.123
65124W        W38192  35.015  44.196   2.494
65125W        W38193  15.050  12.827   1.634
65126W        W38194  19.753  35.979  14.279
65127W        W38195  42.828  15.846  11.140
65128W        W38196  12.264   3.430   2.705
65129W        W38197  23.531   4.242   4.596
65130W        W38198  18.821  32.938  11.043
65131W        W38199   3.440   0.750  14.998
65132W        W38200  28.691   1.830  11.034
65133W        W38201  35.314   1.892   2.280
65134W        W38202  14.186  33.989  10.741
65135W        W38203   0.311   0.786  14.653
65136W        W38204  19.510  29.085  14.130
65137W        W38205  13.635  33.847  10.655
65138W        W38206  32.902  32.958  12.697
65139W        W38207  35.366  23.218   0.921
65140W        W38208  20.914  33.929  12.428
65141W        W38209  15.040  25.570  12.542
65142W        W38210  30.957  34.082  14.319
65143W        W38211  22.786   8.744  12.892
65144W        W38212  10.629  42.894  13.356
65145W        W38213  20.852  17.571  11.160
65146W        W38214  33.936  23.916  12.600
65147W        W38215  28.648   9.013  10.743
65148W        W38216   6.016   8.315  13.341
65149W        W38217  35.331  19.065  11.540
65150W        W38218  29.677  40.900  14.850
65151W        W38219  34.357  41.587  12.157
65152W        W38220  21.583   7.205  12.501
65153W        W38221  10.771  44.262   2.863
65154W        W38222  42.570   5.510   2.815
65155W        W38223   5.956  27.029   0.884
65156W        W38224  27.009   0.332  14.966
65157W        W38225  25.506  25.071  10.687
65158W        W38226  29.335   0.258  10.533
65159W        W38227   7.458  27.580  14.454
65160W        W38228  26.649  14.182   3.295
65161W        W38229  33.504  12.413  13.970
65162W        W38230  19.249   0.731  11.059
65163W        W38231   4.698  18.824  11.083
65164W        W38232  33.458   5.618   0.870
65165W        W38233  41.889   1.498   0.226
65166W        W38234   7.359  37.969   4.842
65167W        W38235  15.240  36.254   2.916
65168W        W38236   7.057  11.840  13.012
65169W        W38237   6.937  35.707  11.548
65170W        W38238   7.203  31.426  11.070
65171W        W38239   7.511  33.412  11.188
65172W        W38240  32.927  42.932  12.503
65173W        W38241  17.275  34.782  14.873
65174W        W38242   9.009  20.324   1.449
65175W        W38243  33.069  29.793   1.310
65176W        W38244  41.887   2.447   0.970
65177W        W38245   7.877  30.530   3.253
65178W        W38246  19.164   2.444   1.309
65179W        W38247  33.595  44.126   4.919
65180W        W38248  24.707  19.078  13.437
65181W        W38249  13.915  33.478   3.317
65182W        W38250  26.985  26.012   1.667
65183W        W38251  20.612  36.934  11.699
65184W        W38252  31.166  25.299  11.091
65185W        W38253  11.667   9.388  14.338
65186W        W38254  43.460  27.997   2.225
65187W        W38255   7.840  21.154  14.061
65188W        W38256  19.739  31.627   3.228
65189W        W38257   7.796  24.523   0.017
65190W        W38258  33.703  44.217   2.694
65191W        W38259  18.684   8.932   5.032
65192W        W38260   9.267  16.039   2.727
65193W        W38261  12.433  37.404  13.331
65194W        W38262   2.794  44.329   3.759
65195W        W38263  19.685   9.846   0.425
65196W        W38264  40.473  12.312  13.628
65197W        W38265   0.327  30.250  12.996
65198W        W38266   3.403  39.163   2.348
65199W        W38267   1.391  42.389   1.814
65200W        W38268  10.349  31.539   4.653
65201W        W38269  25.130  37.406   5.403
65202W        W38270   8.885  25.922   3.103
65203W        W38271  41.882  33.004   0.292
65204W        W38272  38.987   9.101  12.615
65205W        W38273  25.698   1.997  10.454
65206W        W38274  35.620   3.506  11.182
65207W        W38275  17.023  18.035   0.451
65208W        W38276   1.834   2.932  11.622
65209W        W38277   8.222  42.067  12.913
65210W        W38278   5.271  37.467  14.937
65211W        W38279  27.810  35.391  11.224
65212W        W38280  36.410   3.665   0.291
65213W        W38281  38.341  43.972  10.685
65214W        W38282  12.069   4.767  14.856
65215W        W38283  20.117   2.294  14.798
65216W        W38284  34.978  10.360  13.015
65217W        W38285  15.144   8.707   4.185
65218W        W38286  11.514   8.016  13.327
65219W        W38287  27.875  28.577  14.834
65220W        W38288  14.717  30.047   3.755
65221W        W38289  35.520  39.966  12.485
65222W        W38290   4.414  39.997  14.823
65223W        W38291  19.979   2.353  12.523
65224W        W38292  40.036   1.553   3.849
65225W        W38293  40.982  35.402   3.706
65226W        W38294   0.277  32.762  14.058
65227W        W38295  34.372  20.198  11.451
65228W        W38296  13.861  26.675   0.553
65229W        W38297  43.086  39.887   2.710
65230W        W38298   3.443  13.251  12.496
65231W        W38299  31.585  33.413  10.769
65232W        W38300   2.686  44.884   2.223
65233W        W38301  37.107  39.678   1.431
65234W        W38302  27.906   3.845  14.770
65235W        W38303  16.872   3.841   4.538
65236W        W38304  11.145  30.686   3.826
65237W        W38305  12.702  19.515   4.026
65238W        W38306  10.164  30.141  13.756
65239W        W38307  11.236  22.177   2.609
65240W        W38308   1.658   4.246   4.088
65241W        W38309  22.408  40.981  13.415
65242W        W38310  39.287  43.416   1.840
65243W        W38311  10.013  44.984   0.122
65244W        W38312  23.233   0.661  12.100
65245W        W38313  35.044   2.226   1.820
65246W        W38314  23.214  29.729  13.041
65247W        W38315   8.174  39.473   5.401
65248W        W38316  31.324   4.937  12.270
65249W        W38317   3.318  11.116  10.836
65250W        W38318   0.223  18.130  11.686
65251W        W38319  37.449  23.086   3.049
65252W        W38320  42.972  20.730  11.210
65253W        W38321  24.735   9.356   2.866
65254W        W38322  24.681  33.824  11.599
65255W        W38323  20.181  40.348   2.618
65256W        W38324  40.575   3.368   3.217
65257W        W38325   3.472   9.307   3.175
65258W        W38326  13.609  10.227   1.831
65259W        W38327  42.804  24.156   3.104
65260W        W38328  22.973  27.653   0.791
65261W        W38329  10.308  42.671  11.150
65262W        W38330   9.846  31.957  10.536
65263W        W38331  29.544  29.722  11.043
65264W        W38332  32.131  29.875   1.311
65265W        W38333  37.817   4.451  12.385
65266W        W38334  27.896  15.855   0.869
65267W        W38335   1.529  25.590   4.595
65268W        W38336   9.858   4.009  11.648
65269W        W38337  11.350   8.396  13.000
65270W        W38338  28.552  11.422   3.148
65271W        W38339  39.597   8.759  12.860
65272W        W38340  16.418  26.624  12.034
65273W        W38341   2.913  24.523   3.311
65274W        W38342   8.681  42.348   1.883
65275W        W38343  10.015  35.003  12.107
65276W        W38344  23.464  16.231  14.420
65277W        W38345  27.221  15.239  14.837
65278W        W38346  23.257  32.425   3.198
65279W        W38347   3.442  18.080  11.204
65280W        W38348  36.391  23.897  11.105
65281W        W38349  35.510   6.893  11.688
65282W        W38350  44.748   5.863  10.957
65283W        W38351  27.461  17.101  14.404
65284W        W38352  12.555  17.615   0.493
65285W        W38353   6.431  38.609  14.671
65286W        W38354  19.189  36.299  13.569
65287W        W38355  24.502  11.321   3.224
65288W        W38356  19.483  30.567  10.934
65289W        W38357  22.106  26.037   3.750
65290W        W38358  35.135   8.138  11.234
65291W        W38359  11.072  13.581  14.810
65292W        W38360  24.089  20.787   1.292
65293W        W38361  26.821  38.755  14.267
65294W        W38362  20.645   6.243  10.730
65295W        W38363  16.045   0.365  11.695
65296W        W38364  32.981  10.536  10.829
65297W        W38365  32.817   3.170  13.470
65298W        W38366  40.201  28.143  13.856
65299W        W38367  28.992  21.552   0.396
65300W        W38368  24.256   6.732  10.364
65301W        W38369   5.696   6.170   1.578
65302W        W38370  36.132  24.900   2.722
65303W        W38371  30.766  21.805   2.954
65304W        W38372  10.238  34.616   0.723
65305W        W38373  24.246  19.975  13.415
65306W        W38374  21.845  10.270   3.284
65307W        W38375  20.834  10.222  14.821
65308W        W38376  22.615  18.284   0.464
65309W        W38377  11.971  32.128  13.147
65310W        W38378   4.416  32.621  14.535
65311W        W38379  13.274  41.468  12.844
65312W        W38380  40.518  22.912   0.302
65313W        W38381  26.400  43.768  12.853
65314W        W38382  40.328   0.385   2.271
65315W        W38383   5.284  18.483  14.917
65316W        W38384  26.165   2.153  12.967
65317W        W38385  27.924  44.323  11.210
65318W        W38386  11.211  14.809   4.014
65319W        W38387   5.190  42.959   4.537
65320W        W38388  11.899  24.097  11.193
65321W        W38389  35.615   6.247   2.317
65322W        W38390   8.616  31.328  11.348
65323W        W38391  17.314  25.961   3.961
65324W        W38392  44.839  26.336   4.816
65325W        W38393  36.129   0.552  10.518
65326W        W38394  20.617  18.815  12.456
65327W        W38395  19.559  10.377   2.123
65328W        W38396   1.086  41.718  14.204
65329W        W38397  27.505  12.116  14.628
65330W        W38398  40.875  31.346  14.716
65331W        W38399  32.379  16.883  10.781
65332W        W38400  27.121   7.819   2.230
65333W        W38401  25.969   4.601  13.382
65334W        W38402  39.251  35.913  11.870
65335W        W38403   7.830  39.746  14.493
65336W        W38404   1.488  31.043  13.415
65337W        W38405  18.353  16.840  13.609
65338W        W38406   8.123  19.365  14.480
65339W        W38407  29.995  13.015   0.268
65340W        W38408  10.615  13.662  11.600
65341W        W38409   5.813  16.990  11.624
65342W        W38410  39.011  33.603   4.613
65343W        W38411  32.291  32.863   1.368
65344W        W38412   5.564  25.478   2.950
65345W        W38413  14.103  28.199   1.265
65346W        W38414  19.378  21.660  14.565
65347W        W38415   7.400  11.383  11.988
65348W        W38416   5.342   4.025  13.944
65349W        W38417   7.151  11.770   0.806
65350W        W38418  10.393  34.875  14.377
65351W        W38419   7.672   8.209  14.555
65352W        W38420  25.080  41.877  14.401
65353W        W38421  43.655  27.484   2.820
65354W        W38422  36.930  10.140  12.846
65355W        W38423  43.447  36.395  13.318
65356W        W38424   2.837  14.400  11.132
65357W        W38425  44.041   6.236  12.059
65358W        W38426   7.526  12.704   0.530
65359W        W38427  19.085  26.205  14.343
65360W        W38428  11.276   7.501   1.610
65361W        W38429  28.671   5.904  11.209
65362W        W38430  15.620   1.757  13.114
65363W        W38431  24.589  15.797   0.776
65364W        W38432  18.659  38.294  10.501
65365W        W38433  18.262  25.510   3.603
65366W        W38434  10.841  10.328   1.440
65367W        W38435  27.216  40.829   1.380
65368W        W38436   4.937  23.334  11.625
65369W        W38437  43.704  18.766   3.541
65370W        W38438  11.242  12.597  12.451
65371W        W38439  10.359  39.923  12.563
65372W        W38440  35.103  15.670  13.834
65373W        W38441   0.789  27.692  14.973
65374W        W38442  39.579  37.076   0.879
65375W        W38443  24.976  13.090  11.541
65376W        W38444  36.127  23.613   3.612
65377W        W38445  20.283  33.634  12.822
65378W        W38446  23.269   0.443  13.718
65379W        W38447  40.016  37.917  14.234
65380W        W38448   2.496  18.056  14.979
65381W        W38449  38.793  41.528  12.388
65382W        W38450  20.439  26.227  13.081
65383W        W38451  19.500  35.588   4.453
65384W        W38452  24.203  11.396   5.059
65385W        W38453  27.927  29.940  12.531
65386W        W38454  33.523  37.638   3.544
65387W        W38455  20.231  10.810   3.082
65388W        W38456  21.128  29.218   9.808
65389W        W38457  19.757  30.131  11.068
65390W        W38458   8.216   6.728   4.143
65391W        W38459  34.604  44.691   0.679
65392W        W38460  15.295   5.920  11.568
65393W        W38461  15.163   7.486  12.506
65394W        W38462  15.271  17.571  11.209
65395W        W38463  40.635  10.169   2.130
65396W        W38464  21.147  21.137  12.541
65397W        W38465  14.261  29.740   2.844
65398W        W38466  13.009  39.310  11.083
65399W        W38467  22.039  31.585   0.890
65400W        W38468  16.251  35.968   3.558
65401W        W38469  13.662  22.303   0.290
65402W        W38470   3.425   8.703   3.787
65403W        W38471  38.007  41.949  12.604
65404W        W38472  23.491  33.481   0.842
65405W        W38473  36.413  43.041   3.657
65406W        W38474  13.076  37.750   1.471
65407W        W38475  10.577  16.982  12.085
65408W        W38476   9.194  44.064   3.888
65409W        W38477  12.788   6.811   0.903
65410W        W38478  42.449  40.980  14.563
65411W        W38479  42.788  39.351  13.363
65412W        W38480  28.031  18.737  13.072
65413W        W38481  28.709  17.226  13.422
65414W        W38482  22.704   8.705   3.638
65415W        W38483  32.181   4.300  14.139
65416W        W38484  24.739   4.919   1.878
65417W        W38485  43.897  15.008   3.378
65418W        W38486   9.691  24.160   0.550
65419W        W38487  18.836  10.891   0.407
65420W        W38488  38.604  39.888   1.263
65421W        W38489  14.589  26.517  14.396
65422W        W38490  10.427  27.220   1.833
65423W        W38491  25.290   6.443   4.520
65424W        W38492  21.845  25.508   2.897
65425W        W38493  16.093  36.734  11.081
65426W        W38494  31.508  39.933  12.910
65427W        W38495   2.935  30.976  13.415
65428W        W38496   1.039   0.464   0.805
65429W        W38497  39.172  12.094  13.582
65430W        W38498  33.835  27.087  14.846
65431W        W38499  31.075   9.421   4.023
65432W        W38500  16.727  33.150   2.322
65433W        W38501  34.475  20.496  12.672
65434W        W38502  34.910  38.160  11.853
65435W        W38503  24.782  11.424   2.802
65436W        W38504  41.348  33.574   0.799
65437W        W38505  24.825  32.043  11.182
65438W        W38506  13.362  18.033   3.017
65439W        W38507   5.438  36.145   0.784
65440W        W38508  19.760  25.219   3.901
65441W        W38509  31.036  14.626  14.489
65442W        W38510  42.567  24.115   1.767
65443W        W38511  25.017  29.615  14.435
65444W        W38512  13.589  41.531  12.063
65445W        W38513  14.259   4.705   1.516
65446W        W38514  16.388  39.178  14.476
65447W        W38515   5.161  43.849  14.424
65448W        W38516  27.093  10.426   2.347
65449W        W38517   9.784  22.000   1.179
65450W        W38518  29.904  22.129   1.745
65451W        W38519   9.746  39.075  10.462
65452W        W38520  20.311  19.446   3.172
65453W        W38521   3.404  34.091   2.654
65454W        W38522  17.580  27.214  12.032
65455W        W38523  44.024  38.280   2.927
65456W        W38524  22.471  24.545   1.578
65457W        W38525  40.098   4.405   3.655
65458W        W38526  33.544  35.435   4.074
65459W        W38527  15.409  38.825  11.243
65460W        W38528  12.042  29.690   0.783
65461W        W38529  21.748  38.412   1.806
65462W        W38530  26.451  29.437   1.360
65463W        W38531  35.574  22.740   0.954
65464W        W38532   1.140   7.899   1.404
65465W        W38533   4.817  20.141   0.388
65466W        W38534   4.182  32.502  12.724
65467W        W38535   6.946  31.600  14.920
65468W        W38536   9.763   1.523   0.710
65469W        W38537  16.592  31.252  12.833
65470W        W38538  18.374  31.421   1.337
65471W        W38539   9.372  25.817  11.004
65472W        W38540  26.823   9.618  14.916
65473W        W38541  35.899  24.574   3.070
65474W        W38542  20.756   8.881   2.865
65475W        W38543   0.046   8.225   4.822
65476W        W38544  19.226  39.368  11.082
65477W        W38545   6.258  24.103   3.289
65478W        W38546  26.954   7.422  13.726
65479W        W38547  32.856  35.430  11.104
65480W        W38548   7.831  32.893   3.682
65481W        W38549   8.067   2.484  12.110
65482W        W38550   8.828  32.482  14.502
65483W        W38551  19.658  13.686  10.961
65484W        W38552  23.110  38.455  14.114
65485W        W38553  15.742  41.344   3.683
65486W        W38554  35.958  17.859   4.067
65487W        W38555  13.234  28.533  11.954
65488W        W38556  11.643  33.429  13.593
65489W        W38557   6.863  23.041   2.800
65490W        W38558  38.851  34.546  11.143
65491W        W38559  18.103   9.624  13.527
65492W        W38560  19.367   2.658  13.121
65493W        W38561   6.801   8.403  14.883
65494W        W38562  17.086  28.540   1.481
65495W        W38563  12.327  21.805   3.219
65496W        W38564  12.689  10.649  10.972
65497W        W38565  34.508   0.876   3.684
65498W        W38566  19.428  35.267  13.461
65499W        W38567  19.212  24.459  12.419
65500W        W38568  24.530  26.441   0.188
65501W        W38569  31.059  21.781  12.511
65502W        W38570  16.684  25.490  13.740
65503W        W38571  10.370  26.514  10.539
65504W        W38572   5.353  34.608   3.509
65505W        W38573  23.217   7.318   3.911
65506W        W38574  34.845  21.542   4.997
65507W        W38575  17.723  33.793  12.566
65508W        W38576  25.260  12.711   3.259
65509W        W38577   0.735   1.482  11.058
65510W        W38578  28.716  16.680   1.400
65511W        W38579  39.734  17.345  10.674
65512W        W38580  30.771  14.965   2.347
65513W        W38581   6.279  14.103   1.343
65514W        W38582  18.346  34.491   4.587
65515W        W38583  33.970   7.787   4.134
65516W        W38584   7.790  24.735  14.081
65517W        W38585  34.561  17.019  12.390
65518W        W38586   3.409   2.296  11.709
65519W        W38587  13.119  37.901  13.902
65520W        W38588  29.010  17.381  11.142
65521W        W38589  16.123  21.136   4.612
65522W        W38590  27.419  29.118   0.300
65523W        W38591  10.931  34.428  12.800
65524W        W38592  34.677  28.341   4.528
65525W        W38593  18.132  34.875  11.085
65526W        W38594   3.477  28.766   1.206
65527W        W38595  41.939  11.404  14.021
65528W        W38596  42.900   8.947   0.351
65529W        W38597  36.808  17.191  11.494
65530W        W38598   8.729   6.194   4.566
65531W        W38599   5.829  31.452   4.886
65532W        W38600  31.582  17.884  10.943
65533W        W38601   0.134   2.667   1.987
65534W        W38602  21.955  24.621  12.895
65535W        W38603  40.116  43.258  13.361
65536W        W38604  30.565   3.709   1.006
65537W        W38605  12.287   1.833  12.260
65538W        W38606  33.973  11.732  12.618
65539W        W38607  27.681  19.726  11.585
65540W        W38608  30.078  34.235   0.473
65541W        W38609  40.960  35.569  13.036
65542W        W38610  28.466  21.205  13.391
65543W        W38611  14.834   2.463   1.805
65544W        W38612  24.728  31.675  11.739
65545W        W38613  26.435  28.798   1.393
65546W        W38614   9.205  25.274   5.066
65547W        W38615   0.950  35.991  14.787
65548W        W38616  14.129   7.235  12.641
65549W        W38617  16.410  35.931   4.554
65550W        W38618  40.506  37.317  12.941
65551W        W38619  32.766  29.098   2.083
65552W        W38620  29.291  36.488  13.323
65553W        W38621   7.761   3.764   2.969
65554W        W38622   7.825  15.593   0.317
65555W        W38623  25.517  44.191  10.574
65556W        W38624  17.254  18.110   3.771
65557W        W38625  12.303   7.912  11.615
65558W        W38626  10.208  24.728   1.866
65559W        W38627  38.319  34.049  13.436
65560W        W38628  35.697  26.454  11.910
65561W        W38629  14.082  33.856   2.350
65562W        W38630  23.213  33.618   2.082
65563W        W38631  14.863   3.873  12.851
65564W        W38632  12.545  27.654   4.003
65565W        W38633  16.496  27.157  13.446
65566W        W38634  40.515  41.887   1.508
65567W        W38635  10.774  14.051  11.872
65568W        W38636  15.640  11.752   2.476
65569W        W38637  31.703  28.326  10.399
65570W        W38638  16.766   1.388  11.413
65571W        W38639  15.453  13.401  12.948
65572W        W38640   5.824   1.004   0.020
65573W        W38641  40.561   9.991  12.015
65574W        W38642   3.898  23.472  14.471
65575W        W38643  28.941  40.848   0.299
65576W        W38644  27.977   0.412  14.215
65577W        W38645  14.007  12.165  11.440
65578W        W38646  19.680  21.534   2.297
65579W        W38647  21.229  31.875   5.064
65580W        W38648  39.940   5.183   0.698
65581W        W38649  23.093   1.280  13.614
65582W        W38650  14.125   0.393  14.434
65583W        W38651  31.561  10.614  14.960
65584W        W38652  44.593  14.240   1.881
65585W        W38653   1.904  27.894  14.387
65586W        W38654  20.255  43.441   5.056
65587W        W38655   0.067   8.816  13.306
65588W        W38656  36.846   7.877   1.970
65589W        W38657  20.775  25.660  11.644
65590W        W38658  23.025  26.475  12.525
65591W        W38659  34.327  14.550  12.781
65592W        W38660  30.890  19.176   4.616
65593W        W38661  26.818  22.139  11.562
65594W        W38662   9.115  38.603   1.203
65595W        W38663  43.140   1.037   3.139
65596W        W38664   8.665  22.289  10.582
65597W        W38665   0.204  25.753  11.074
65598W        W38666  26.384   6.255  13.087
65599W        W38667  31.538  29.537   4.865
65600W        W38668  18.686   8.031   3.773
65601W        W38669  35.162  17.185  11.544
65602W        W38670  30.699   4.454   4.893
65603W        W38671  23.071   0.233   5.145
65604W        W38672  10.611  18.247  14.700
65605W        W38673  18.990  28.120   0.311
65606W        W38674  35.870   4.136  14.772
65607W        W38675  25.182   8.703  12.427
65608W        W38676   0.478   6.303  12.993
65609W        W38677  21.839   2.785   1.445
65610W        W38678  11.004  43.301   3.213
65611W        W38679  11.772  32.683   2.604
65612W        W38680  36.384  37.861   2.092
65613W        W38681  29.667  43.367   4.643
65614W        W38682   0.542   5.027  13.984
65615W        W38683  24.557  19.335  11.935
65616W        W38684   1.804  43.113   2.795
65617W        W38685  13.851  37.103   4.217
65618W        W38686  36.337  22.158  11.989
65619W        W38687  31.501  25.533   1.450
65620W        W38688  17.678  43.946  10.441
65621W        W38689   0.463  40.030   3.650
65622W        W38690  42.394   3.893  11.256
65623W        W38691  16.395  42.804   0.245
65624W        W38692  25.814   0.200  13.408
65625W        W38693  18.584  13.766   1.563
65626W        W38694  33.949  28.063   0.434
65627W        W38695  40.795  20.519   3.234
65628W        W38696   5.857   9.996  14.355
65629W        W38697  43.774  19.049  12.052
65630W        W38698  11.827  22.960  11.257
65631W        W38699  35.836  15.656  11.992
65632W        W38700  17.527  12.274   0.734
65633W        W38701   7.779   5.318   2.324
65634W        W38702  14.355  41.656  12.435
65635W        W38703  37.352  20.777  13.371
65636W        W38704   3.785  18.672  12.430
65637W        W38705  14.856  21.706   1.478
65638W        W38706   7.111  42.722  14.972
65639W        W38707  19.282  40.445   3.656
65640W        W38708  28.424  35.053   3.599
65641W        W38709  23.645  33.360   3.260
65642W        W38710   6.162   8.274  14.365
65643W        W38711  10.444  28.947   2.109
65644W        W38712  40.530  17.559  10.671
65645W        W38713   4.159   2.265  12.474
65646W        W38714  33.740  43.882  12.980
65647W        W38715  40.372  22.620  12.814
65648W        W38716  21.969   0.283   0.409
65649W        W38717  15.028   5.765   1.349
65650W        W38718   3.851   9.461  12.983
65651W        W38719   7.419  24.085   0.878
65652W        W38720  20.305  19.707  14.443
65653W        W38721   7.224   2.863  10.651
65654W        W38722  36.684   1.367   3.837
65655W        W38723  34.079  33.798  10.185
65656W        W38724  33.297  32.393  13.023
65657W        W38725   7.461   8.040   3.234
65658W        W38726  35.335  15.460   2.772
65659W        W38727  27.161  34.636  10.725
65660W        W38728  22.109   1.300  12.012
65661W        W38729  13.260  44.686  11.751
65662W        W38730  30.177  29.734   1.346
65663W        W38731  39.125  39.821   1.283
65664W        W38732  33.001   2.058  11.396
65665W        W38733  30.980   2.992   0.979
65666W        W38734  13.233   6.655  13.345
65667W        W38735  37.468  17.033  14.052
65668W        W38736   3.477  15.000  12.003
65669W        W38737  20.177  19.058  12.895
65670W        W38738   4.144  37.991  13.605
65671W        W38739  31.710  13.738  13.389
65672W        W38740  33.459  34.283   3.371
65673W        W38741   4.819  35.865   4.064
65674W        W38742   9.463   9.346   0.181
65675W        W38743  12.199   1.383   4.550
65676W        W38744   6.691  42.547  13.811
65677W        W38745  30.254   4.227   2.299
65678W        W38746   1.155   2.049  11.599
65679W        W38747  29.656  38.932   2.374
65680W        W38748  25.397  26.020   2.879
65681W        W38749  10.734   4.733  11.406
65682W        W38750  18.887  18.120  12.999
65683W        W38751  19.514   7.420   1.337
65684W        W38752  22.997  32.437   4.130
65685W        W38753  35.149  42.890  13.155
65686W        W38754  16.077  19.114   2.611
65687W        W38755  29.723  22.268  11.998
65688W        W38756  17.916  10.884   0.590
65689W        W38757   6.404  11.047  12.534
65690W        W38758  35.792  43.910   0.449
65691W        W38759  19.674  25.200  12.487
65692W        W38760   8.979  20.797  11.772
65693W        W38761  24.790  22.776   0.918
65694W        W38762  27.003  31.251  13.434
65695W        W38763  38.056  24.184   0.692
65696W        W38764   1.881  43.787  10.704
65697W        W38765  24.132  24.927  14.348
65698W        W38766  13.221  27.769   0.225
65699W        W38767  24.735  27.867   0.705
65700W        W38768  18.103  33.044   2.247
65701W        W38769   3.276  38.304   3.912
65702W        W38770  26.774  13.086   2.321
65703W        W38771   0.386  21.447  12.862
65704W        W38772  20.848  37.053   0.216
65705W        W38773   7.200  37.960   3.831
65706W        W38774  42.989  24.442  14.825
65707W        W38775  11.755  16.674  14.834
65708W        W38776  30.639  35.268   4.664
65709W        W38777  23.027   5.402  14.964
65710W        W38778  29.415  37.880   1.206
65711W        W38779  36.065   4.663   2.665
65712W        W38780   3.694  32.061  11.109
65713W        W38781   3.158  35.977   3.572
65714W        W38782   7.735  40.073   4.131
65715W        W38783  33.924  16.573   2.631
65716W        W38784  20.157  18.310   2.335
65717W        W38785  22.427  40.004   4.154
65718W        W38786  37.052  30.870  14.448
65719W        W38787  16.134  39.907   3.405
65720W        W38788   1.706  24.875  14.952
65721W        W38789  31.211  29.613  11.155
65722W        W38790   6.542   3.326   2.677
65723W        W38791  30.685  25.435   2.808
65724W        W38792   4.846   6.377   1.017
65725W        W38793  31.873  44.485   1.318
65726W        W38794  26.405  22.664  14.067
65727W        W38795  17.808  16.092  12.916
65728W        W38796  17.616  32.089  13.301
65729W        W38797  10.873  38.413  11.096
65730W        W38798   1.526  25.452  11.677
65731W        W38799  36.957  28.224   0.921
65732W        W38800  25.226  10.193   1.572
65733W        W38801  19.844  42.400   3.283
65734W        W38802  10.517   4.935  13.378
65735W        W38803   4.154  40.057  12.079
65736W        W38804  35.996  21.575  14.096
65737W        W38805  28.794  34.289  12.483
65738W        W38806   6.694  20.699  14.728
65739W        W38807  40.265  35.121   0.055
65740W        W38808  35.435  17.641  10.957
65741W        W38809  24.919  32.546   3.641
65742W        W38810  21.302   1.462   5.643
65743W        W38811  31.447  42.716   3.881
65744W        W38812  37.447  26.028  14.747
65745W        W38813  19.075  44.280   0.327
65746W        W38814  34.057  39.533   0.960
65747W        W38815   4.022  16.531  10.962
65748W        W38816  34.987  12.845   1.428
65749W        W38817  11.294  16.813   4.165
65750W        W38818  14.573  22.327  11.626
65751W        W38819  23.018  34.774   3.333
65752W        W38820   1.611  38.842   0.779
65753W        W38821  21.725  28.068  11.904
65754W        W38822  24.871  39.670   4.548
65755W        W38823  16.489   9.319   4.716
65756W        W38824  32.114  29.189   4.033
65757W        W38825  14.306  18.798   3.571
65758W        W38826   4.826  29.654  12.464
65759W        W38827  13.816  39.522  13.811
65760W        W38828  12.856  21.730  14.257
65761W        W38829  18.813  29.500  11.596
65762W        W38830  23.011  29.166  12.005
65763W        W38831   7.562   1.230   3.283
65764W        W38832  32.310  39.114   4.077
65765W        W38833  34.370  18.528  14.441
65766W        W38834  32.502  11.910   2.875
65767W        W38835  11.105  20.222   0.955
65768W        W38836  19.411  40.519  13.195
65769W        W38837  23.137  37.922  12.292
65770W        W38838  39.567  28.901  12.834
65771W        W38839   8.262  27.007   0.401
65772W        W38840  17.424   7.806  12.485
65773W        W38841  24.020  39.913   4.065
65774W        W38842  39.332  37.491   0.009
65775W        W38843  18.668  21.638  12.057
65776W        W38844  25.027  16.557   0.797
65777W        W38845  44.370  21.144  12.000
65778W        W38846  42.046  26.209   1.686
65779W        W38847  28.661   2.436  14.824
65780W        W38848   9.637   0.408  11.101
65781W        W38849  14.088   2.450   2.394
65782W        W38850  14.628  13.868  14.346
65783W        W38851  41.556  36.987   2.264
65784W        W38852  15.567  30.476  12.700
65785W        W38853  34.866   5.709  14.513
65786W        W38854   2.830  34.972  13.098
65787W        W38855  28.502  13.753  14.020
65788W        W38856  28.214  35.152  12.773
65789W        W38857  15.794  17.543   2.220
65790W        W38858  11.938   3.891   3.247
65791W        W38859   2.267   0.578   5.090
65792W        W38860  27.450  13.710   3.254
65793W        W38861   4.420  38.899   2.790
65794W        W38862  31.544  36.804   3.482
65795W        W38863   4.027   1.824  10.116
65796W        W38864  36.578  14.968  12.359
65797W        W38865   9.931  43.233  14.581
65798W        W38866  33.797  28.600   3.334
65799W        W38867  13.773  30.626   0.521
65800W        W38868  12.229  16.599  13.745
65801W        W38869  16.259   4.392   4.307
65802W        W38870  28.001  44.939  11.639
65803W        W38871  15.213  43.475   1.189
65804W        W38872  25.283  39.012  14.291
65805W        W38873  32.154  43.626  13.123
65806W        W38874  21.492   9.335   0.870
65807W        W38875   3.264  12.663  10.686
65808W        W38876  15.798  23.899  11.244
65809W        W38877   3.187  15.505  14.571
65810W        W38878   3.745  18.741   4.164
65811W        W38879  28.164  35.566  13.559
65812W        W38880  16.259  37.730  11.004
65813W        W38881   5.230  28.464  13.807
65814W        W38882  11.804   8.709   4.836
65815W        W38883  26.464  30.305  14.798
65816W        W38884  16.275  44.958  13.315
65817W        W38885   0.962  15.701  14.371
65818W        W38886  40.586  19.050   3.364
65819W        W38887  30.589  15.741  13.755
65820W        W38888  34.013  23.529   2.639
65821W        W38889  29.516  28.483   2.188
65822W        W38890  10.643  41.189   1.935
65823W        W38891  31.886  29.423   0.398
65824W        W38892  32.671  42.753  14.979
65825W        W38893  27.962  21.817  12.006
65826W        W38894  27.996  17.688  13.061
65827W        W38895  43.574  25.075  12.977
65828W        W38896  40.977  29.072  10.405
65829W        W38897  40.549  42.431   2.917
65830W        W38898   1.926  30.014   0.141
65831W        W38899   7.313   1.534   4.260
65832W        W38900  44.483  43.357   4.774
65833W        W38901  30.794   2.264   3.140
65834W        W38902  29.955   4.246   1.814
65835W        W38903  25.521  30.844  13.868
65836W        W38904  28.105  39.284   2.531
65837W        W38905   4.931  39.933  13.838
65838W        W38906  13.681   1.887   0.188
65839W        W38907   9.041  36.936   3.654
65840W        W38908  24.472  41.874  12.472
65841W        W38909  20.736  27.160  12.129
65842W        W38910  28.150  34.455   5.150
65843W        W38911  12.149  24.517   4.653
65844W        W38912  18.596  40.201   2.691
65845W        W38913  22.795  18.674  10.669
65846W        W38914  35.067  30.401   2.286
65847W        W38915  32.543  37.107   1.427
65848W        W38916  30.490  32.223   1.651
65849W        W38917  11.951  17.171   3.731
65850W        W38918  30.628   0.944  13.058
65851W        W38919  11.816  21.419  14.517
65852W        W38920  25.010  23.895  13.846
65853W        W38921  26.317  21.203   2.814
65854W        W38922  25.281  32.187  13.846
65855W        W38923  17.632  17.797   2.656
65856W        W38924  32.241  43.054   2.870
65857W        W38925  43.956  10.203  10.704
65858W        W38926  38.563  33.647  14.345
65859W        W38927  31.134   7.693  11.157
65860W        W38928  33.620  14.988   0.955
65861W        W38929   5.909  41.818   4.537
65862W        W38930  29.433  16.155  13.474
65863W        W38931  17.245  35.305  12.350
65864W        W38932  37.377  40.510   4.715
65865W        W38933   2.975  16.069  12.555
65866W        W38934  38.633  12.347  12.138
65867W        W38935   6.671   4.383   4.006
65868W        W38936   2.090  27.844  11.609
65869W        W38937  23.137  11.854   1.189
65870W        W38938  24.694  37.463  10.823
65871W        W38939  40.420  18.431   3.187
65872W        W38940  25.515  39.457  10.630
65873W        W38941  19.206  12.682   0.845
65874W        W38942  13.838  28.520   2.699
65875W        W38943  15.605  21.160  13.489
65876W        W38944  33.854  44.309  13.922
65877W        W38945   4.394  19.358   3.064
65878W        W38946   4.856  27.120   3.047
65879W        W38947  19.242  15.783  11.658
65880W        W38948  29.685   5.389   0.422
65881W        W38949  10.207  30.478  14.549
65882W        W38950   3.511   5.802  13.127
65883W        W38951   7.775  35.825   3.192
65884W        W38952  35.881  14.852  14.381
65885W        W38953  26.208   2.615   4.487
65886W        W38954   0.529  36.818  14.545
65887W        W38955  40.185  11.729   0.553
65888W        W38956  14.671  12.357   4.650
65889W        W38957  31.416  37.941   0.946
65890W        W38958  32.983   5.467   4.588
65891W        W38959  25.190  17.584  14.837
65892W        W38960  22.818  38.638  14.508
65893W        W38961  22.534  13.433  11.925
65894W        W38962  36.500   8.852  14.853
65895W        W38963   9.170  36.922  14.735
65896W        W38964   1.731  12.162   1.255
65897W        W38965  13.191   5.302  12.042
65898W        W38966  37.938  44.869   2.406
65899W        W38967   5.682  32.870   1.152
65900W        W38968  27.128  23.773  14.471
65901W        W38969  29.070  29.095  12.374
65902W        W38970  11.197  17.072  10.143
65903W        W38971  13.689  32.717  14.380
65904W        W38972  34.038  37.273   0.435
65905W        W38973  33.057   9.321   3.650
65906W        W38974   3.880   2.995   0.377
65907W        W38975  32.956  12.322  13.947
65908W        W38976  42.257  26.663   1.872
65909W        W38977   0.821   4.977   0.831
65910W        W38978   3.314   0.192   3.616
65911W        W38979  24.359  11.786  13.408
65912W        W38980  27.080  41.562   0.326
65913W        W38981  29.451   8.809   5.028
65914W        W38982  21.702  17.817   1.254
65915W        W38983  12.949  26.633   9.929
65916W        W38984  40.032  39.573   4.145
65917W        W38985  25.185  31.839   0.541
65918W        W38986  39.035  14.456   2.501
65919W        W38987  33.362  10.159  13.114
65920W        W38988  21.752  18.050   1.725
65921W        W38989  37.464  18.836  11.136
65922W        W38990  22.587  29.570   2.976
65923W        W38991  19.667   7.491  12.573
65924W        W38992  37.962  33.375   4.059
65925W        W38993  11.300  25.742  11.111
65926W        W38994  30.929  26.594   0.267
65927W        W38995  21.800  37.459  11.633
65928W        W38996  11.594   9.330  12.170
65929W        W38997   2.646  24.597   2.853
65930W        W38998  32.337  36.786  14.753
65931W        W38999   6.404  24.004   4.575
65932W        W39000  28.942  19.213  11.350
65933W        W39001  19.542  19.837   3.666
65934W        W39002  18.724  23.690   1.456
65935W        W39003  42.511  42.404  12.705
65936W        W39004  27.658   9.649   1.407
65937W        W39005   8.886   4.399   1.239
65938W        W39006  19.943  36.481  10.750
65939W        W39007  34.000  37.822  12.508
65940W        W39008  43.022  42.564   4.644
65941W        W39009  21.419  34.562   1.247
65942W        W39010   0.865   4.651  14.299
65943W        W39011  21.674   0.722   2.127
65944W        W39012  42.559  12.670   0.237
65945W        W39013  43.443  28.636   3.854
65946W        W39014   2.383   3.908  14.065
65947W        W39015  33.912  13.683   4.629
65948W        W39016  26.501  38.773   1.793
65949W        W39017   1.316  28.018  11.029
65950W        W39018  37.055  19.124  11.237
65951W        W39019  31.691   5.979   2.830
65952W        W39020  22.600  43.138  10.171
65953W        W39021  20.776  33.591   2.245
65954W        W39022  13.821   7.656  12.683
65955W        W39023  36.505  28.406  10.458
65956W        W39024   1.257  26.659   2.680
65957W        W39025  26.653  36.457   2.776
65958W        W39026  28.383   6.060   4.159
65959W        W39027  43.738  32.861   3.236
65960W        W39028  13.284  20.040   4.487
65961W        W39029  17.067  39.846   0.712
65962W        W39030  40.044  23.970  13.751
65963W        W39031  20.031  41.482  10.364
65964W        W39032   6.304  19.628  12.898
65965W        W39033   7.819   9.293   4.638
65966W        W39034  22.924  10.711   4.787
65967W        W39035  30.559  25.883   0.523
65968W        W39036  37.055  18.021  13.859
65969W        W39037  33.984  29.079   3.410
65970W        W39038  36.768  15.440  14.512
65971W        W39039  16.013  11.683  14.109
65972W        W39040  17.633  18.752   3.552
65973W        W39041  34.577  13.964   1.493
65974W        W39042  37.116  26.429  14.965
65975W        W39043  42.996  27.678   4.728
65976W        W39044  42.874   3.242   4.122
65977W        W39045  33.415  25.306   2.998
65978W        W39046  33.419  41.039  12.400
65979W        W39047   4.369  17.318   1.307
65980W        W39048   2.829   6.874  14.384
65981W        W39049  40.850  44.469  10.533
65982W        W39050  25.630   1.323  11.573
65983W        W39051   9.775  18.287   2.676
65984W        W39052  28.137  28.117  14.888
65985W        W39053  39.892  38.673  12.058
65986W        W39054  36.656  35.429  13.573
65987W        W39055  21.732  17.711  11.310
65988W        W39056  14.666  42.238   3.673
65989W        W39057  10.590   1.243   1.598
65990W        W39058  27.615   1.252   2.824
65991W        W39059  13.259  25.043  11.597
65992W        W39060  25.566  41.256  14.446
65993W        W39061  27.527  18.007  12.991
65994W        W39062  44.684  10.314   2.715
65995W        W39063  41.692  21.717   0.330
65996W        W39064  15.735  33.574   3.204
65997W        W39065   2.854  28.626   1.426
65998W        W39066  12.353  19.183   1.337
65999W        W39067  14.245   1.349  10.580
66000W        W39068  30.063  15.061   2.642
66001W        W39069  10.600   0.907   4.596
66002W        W39070   5.876  21.257   0.656
66003W        W39071  37.337  38.824   4.949
66004W        W39072   6.620  22.029   2.874
66005W        W39073  30.361  13.050   5.017
66006W        W39074  20.773   7.049  13.080
66007W        W39075   9.882   1.865  11.208
66008W        W39076   8.764  39.385   1.972
66009W        W39077   5.792  38.033   1.284
66010W        W39078  11.180  34.605  10.470
66011W        W39079  34.935   7.841   5.073
66012W        W39080  33.321  17.298   1.687
66013W        W39081  11.752  41.880  11.195
66014W        W39082  33.596  31.895   0.456
66015W        W39083   0.870  32.837  12.588
66016W        W39084  23.654  20.112   0.213
66017W        W39085  35.097  26.225   1.270
66018W        W39086  31.511  31.651   2.186
66019W        W39087   3.852  34.647  10.553
66020W        W39088   7.581  39.941  14.932
66021W        W39089  30.638  42.301  11.140
66022W        W39090  40.363  31.908  13.556
66023W        W39091   2.708  14.671   3.109
66024W        W39092  30.499  19.596   1.708
66025W        W39093  38.724  40.854  12.058
66026W        W39094   0.604  38.152   1.220
66027W        W39095   7.615  44.611   2.598
66028W        W39096   6.473  17.600   4.624
66029W        W39097  35.292  34.544  10.534
66030W        W39098  25.537  18.598  11.540
66031W        W39099  14.848  31.803  11.984
66032W        W39100  20.236   2.834  12.575
66033W        W39101   4.233  13.635   1.773
66034W        W39102  30.128   4.701   2.013
66035W        W39103  10.201  12.556  13.912
66036W        W39104   7.436  29.347  12.049
66037W        W39105  32.563  10.985   0.343
66038W        W39106   6.917  15.528  12.093
66039W        W39107  18.857   3.440  11.103
66040W        W39108  20.135  28.087   2.407
66041W        W39109  30.907  13.531   2.387
66042W        W39110  38.963  21.322   2.180
66043W        W39111  16.505  26.467  14.496
66044W        W39112   9.702   7.403  10.906
66045W        W39113  20.499   3.782  10.635
66046W        W39114  20.117   1.874  10.009
66047W        W39115  21.057  32.928   0.315
66048W        W39116  15.551   3.729   0.586
66049W        W39117   4.883  42.783  12.290
66050W        W39118   8.823  35.335  13.016
66051W        W39119  12.308  32.624  14.358
66052W        W39120  32.124  10.269   2.219
66053W        W39121  24.480  39.534   1.402
66054W        W39122  40.501  21.036  12.855
66055W        W39123   2.863  42.628   2.347
66056W        W39124  12.899  13.308  11.581
66057W        W39125   3.985  19.354   2.380
66058W        W39126  40.300   8.393  14.746
66059W        W39127  35.968  15.669   0.738
66060W        W39128  18.268  31.005  14.773
66061W        W39129  25.323   4.783   5.002
66062W        W39130  36.584  23.619  10.696
66063W        W39131  12.830   7.901  11.695
66064W        W39132  17.710  29.540   4.147
66065W        W39133  24.405  35.822  11.563
66066W        W39134  37.044  44.938   2.314
66067W        W39135  33.601  33.857   4.972
66068W        W39136   2.212  36.402   4.275
66069W        W39137   6.559  23.014  14.535
66070W        W39138  19.787  23.488   2.357
66071W        W39139  42.536  13.776  12.025
66072W        W39140  43.766  10.663  12.425
66073W        W39141  44.389   0.508   0.283
66074W        W39142  25.391  33.740   4.111
66075W        W39143  11.147   8.936   1.700
66076W        W39144   3.605  38.068  12.259
66077W        W39145  36.164  22.484  14.870
66078W        W39146  25.211  12.837  11.952
66079W        W39147  44.749   4.869   3.728
66080W        W39148  27.429  43.015   1.929
66081W        W39149   9.253  33.092  11.572
66082W        W39150   2.416  26.229  10.632
66083W        W39151  38.608  14.993   1.433
66084W        W39152  27.416  43.076   4.569
66085W        W39153   9.779  35.936   3.289
66086W        W39154  11.120  43.410  12.556
66087W        W39155  36.584  33.152  11.042
66088W        W39156  36.304   4.993  10.278
66089W        W39157  20.861  33.688  12.942
66090W        W39158  25.896  36.536   4.058
66091W        W39159   8.192   9.156  12.038
66092W        W39160   2.367  19.332   0.929
66093W        W39161  23.007  17.147   4.651
66094W        W39162  25.993  31.355  12.909
66095W        W39163  33.956   3.075  11.090
66096W        W39164  33.893  13.506   0.876
66097W        W39165  12.123  38.615  13.014
66098W        W39166   5.453   2.344   4.797
66099W        W39167   9.591   8.254   4.177
66100W        W39168  17.749  22.369   3.792
66101W        W39169  38.006   4.838   1.819
66102W        W39170  25.479  22.717   4.689
66103W        W39171   5.935  38.013   3.411
66104W        W39172  26.244  19.834  11.584
66105W        W39173  37.543  33.665   3.250
66106W        W39174  38.402  19.212  10.554
66107W        W39175   3.973   9.289   3.171
66108W        W39176  11.653  32.448  11.186
66109W        W39177  26.436  26.882   2.826
66110W        W39178  10.901   7.939   4.104
66111W        W39179  15.018  40.024   2.242
66112W        W39180  13.898   1.353  11.384
66113W        W39181  33.904  42.737   2.459
66114W        W39182  41.975  18.444  10.323
66115W        W39183  32.142  27.719   2.383
66116W        W39184  37.575  17.669  13.379
66117W        W39185  37.857  42.539  13.430
66118W        W39186   3.752  18.845  10.773
66119W        W39187  22.326   6.798   1.651
66120W        W39188   5.876  34.358   0.951
66121W        W39189  15.663  44.986  12.568
66122W        W39190  19.741  15.065   2.422
66123W        W39191  40.826   0.568   0.751
66124W        W39192   3.052  22.056   0.242
66125W        W39193  27.116  19.725   3.249
66126W        W39194  14.111  16.068   1.454
66127W        W39195  19.481  14.241   2.145
66128W        W39196  40.125  12.634   4.881
66129W        W39197   3.513  35.512  14.366
66130W        W39198  19.873  41.407   0.777
66131W        W39199  22.275   2.617  11.010
66132W        W39200  21.278  13.637  11.181
66133W        W39201  29.388  27.163   2.411
66134W        W39202  31.477   2.176   2.168
66135W        W39203   9.127   9.079   4.144
66136W        W39204  21.759  19.294   3.350
66137W        W39205  27.654  36.129   4.144
66138W        W39206  44.037  37.306  13.997
66139W        W39207  13.897  37.577  13.366
66140W        W39208  27.242   9.907  10.381
66141W        W39209  24.095  36.293  12.483
66142W        W39210  42.510  40.335  14.281
66143W        W39211  37.900  19.084   3.339
66144W        W39212  22.599  33.221   1.370
66145W        W39213  30.618   5.437  14.499
66146W        W39214  35.407  30.345  11.686
66147W        W39215   5.681  31.017   4.226
66148W        W39216  22.249   8.283   0.349
66149W        W39217  13.016  12.556  11.341
66150W        W39218   4.368  42.568  14.338
66151W        W39219  26.117  31.922  11.608
66152W        W39220  22.260  42.038   4.111
66153W        W39221  37.872  19.252  10.639
66154W        W39222  23.180  30.147   3.562
66155W        W39223  27.355   4.378   0.782
66156W        W39224  15.882  22.647   2.850
66157W        W39225  13.992   4.969   4.118
66158W        W39226  40.798   9.332  13.072
66159W        W39227  16.699  13.333  14.985
66160W        W39228  12.594  17.734   2.806
66161W        W39229  19.591  31.894   1.859
66162W        W39230   9.650   6.804  11.673
66163W        W39231  10.138  28.541  10.591
66164W        W39232   5.469  34.013  14.769
66165W        W39233   7.254  25.627  13.011
66166W        W39234  28.835   1.520  13.131
66167W        W39235   6.236  19.374   1.492
66168W        W39236   7.228  29.660  10.756
66169W        W39237  36.584  11.854  11.583
66170W        W39238  43.774  33.133  13.047
66171W        W39239  19.065   6.868  12.633
66172W        W39240  26.576  37.370   0.245
66173W        W39241  18.520  20.637   0.980
66174W        W39242  20.265  15.480   3.585
66175W        W39243  42.820  44.168  14.884
66176W        W39244  37.942  21.750  11.203
66177W        W39245  30.661   3.251   2.348
66178W        W39246  38.345  12.712  11.910
66179W        W39247  14.201  18.058   3.214
66180W        W39248  14.814  17.837  13.075
66181W        W39249   0.578  28.260  11.593
66182W        W39250   3.346  17.279  14.820
66183W        W39251  34.048  39.071  10.846
66184W        W39252  20.052  20.307   2.129
66185W        W39253   8.197   0.930  12.662
66186W        W39254  24.958   4.190  10.982
66187W        W39255  21.758  24.161  11.087
66188W        W39256   5.429  30.183   0.892
66189W        W39257  14.850  44.200  13.352
66190W        W39258   9.324   1.892  10.524
66191W        W39259  41.571   3.750  13.089
66192W        W39260  14.741  20.989   3.122
66193W        W39261   3.041  18.829  13.053
66194W        W39262  15.550   8.219   1.006
66195W        W39263  35.624  22.989  12.493
66196W        W39264  26.561  23.962  11.504
66197W        W39265   2.310   0.951   4.747
66198W        W39266  38.269  16.170   3.689
66199W        W39267  32.872  14.276  13.870
66200W        W39268   9.317  36.519   3.831
66201W        W39269  43.418  19.774  12.474
66202W        W39270   3.149  15.914   1.360
66203W        W39271  25.994  10.260  10.538
66204W        W39272  15.024  41.650  11.884
66205W        W39273   6.425   8.739   1.805
66206W        W39274  38.355  29.404  14.040
66207W        W39275  15.180  24.498  10.541
66208W        W39276   4.956  13.104  13.063
66209W        W39277  38.035  29.231   1.759
66210W        W39278  12.646  24.611   2.181
66211W        W39279  23.099  30.483  12.446
66212W        W39280  24.621  42.097  14.322
66213W        W39281  21.958  41.535  13.895
66214W        W39282  12.722  43.639   2.331
66215W        W39283  39.723   3.250  12.977
66216W        W39284  33.138   6.261  11.177
66217W        W39285  36.195  29.659   5.056
66218W        W39286  36.038  20.607  12.001
66219W        W39287  21.477  30.933   2.854
66220W        W39288  39.449   1.469  13.020
66221W        W39289  42.617  14.841   4.004
66222W        W39290   8.311  27.135   1.306
66223W        W39291  16.578   1.830   0.542
66224W        W39292  37.481  33.935   0.657
66225W        W39293   9.652  11.204  10.737
66226W        W39294  18.541   5.293   2.652
66227W        W39295  20.126  22.944   0.057
66228W        W39296   5.911   0.115   2.780
66229W        W39297   8.200  23.136   1.745
66230W        W39298  13.255   6.450  11.558
66231W        W39299  19.840  40.768  10.804
66232W        W39300   0.745  25.579  11.930
66233W        W39301  27.576   8.850  13.641
66234W        W39302  10.447  34.542  10.349
66235W        W39303  17.921   9.695   1.886
66236W        W39304  37.051  13.779   0.983
66237W        W39305  37.766  15.260  14.236
66238W        W39306  22.487  43.088   0.689
66239W        W39307   0.196  30.077   1.861
66240W        W39308   6.725  23.076  12.692
66241W        W39309   1.851  21.170   0.432
66242W        W39310  38.714  37.201  11.025
66243W        W39311  41.139  15.387   4.702
66244W        W39312  24.713  27.709   1.206
66245W        W39313   5.379  38.702  11.176
66246W        W39314   6.848  38.328   2.638
66247W        W39315  40.994  16.458  12.829
66248W        W39316  14.726  20.670  13.529
66249W        W39317  29.105  28.165  14.171
66250W        W39318   0.430  36.638  12.193
66251W        W39319  42.056   3.855   0.842
66252W        W39320  20.318  15.380  11.124
66253W        W39321  33.325  10.706  14.358
66254W        W39322  30.393  37.472   0.389
66255W        W39323   6.527   4.294   0.835
66256W        W39324  16.181  31.202   3.773
66257W        W39325   6.756   2.254  13.480
66258W        W39326  19.581  23.683  14.881
66259W        W39327   4.618  37.874   1.190
66260W        W39328  21.801  23.975   1.711
66261W        W39329  20.220  40.822  13.925
66262W        W39330  40.400  17.031   3.070
66263W        W39331  29.162  28.117   2.329
66264W        W39332  35.455  14.188  10.668
66265W        W39333  21.546   2.632  14.964
66266W        W39334  28.843   0.427   2.878
66267W        W39335   4.724   0.323   0.359
66268W        W39336   7.795  26.043   3.619
66269W        W39337  16.529  26.049   3.573
66270W        W39338  22.678  15.637  13.752
66271W        W39339  13.955  22.327  12.532
66272W        W39340  15.589  28.423  11.070
66273W        W39341  43.218  25.529   4.215
66274W        W39342   2.273  33.997  13.130
66275W        W39343  26.281  12.961   2.254
66276W        W39344  29.634  34.008  11.060
66277W        W39345   5.853  17.469  13.073
66278W        W39346  19.161  22.691   2.343
66279W        W39347  17.667  14.564  13.914
66280W        W39348   3.862  19.118   1.633
66281W        W39349  10.011  16.623   4.601
66282W        W39350   6.671  40.462  13.407
66283W        W39351   8.260  34.612  12.703
66284W        W39352  33.127  43.592  13.815
66285W        W39353   4.812  22.473   1.388
66286W        W39354  17.034  33.975   1.196
66287W        W39355  43.135  31.057   4.134
66288W        W39356   3.455  19.938   1.415
66289W        W39357  10.788   8.667  11.912
66290W        W39358  15.870  44.440   4.025
66291W        W39359  29.122   1.810   2.575
66292W        W39360  31.011  30.031   0.506
66293W        W39361  28.631  22.073   4.639
66294W        W39362   6.882  18.527  14.924
66295W        W39363  11.762   3.114  10.355
66296W        W39364  44.999  30.064   2.727
66297W        W39365  41.848  27.642   2.326
66298W        W39366  29.987   9.316   3.687
66299W        W39367  10.155  14.635  13.401
66300W        W39368  40.028  20.656   4.326
66301W        W39369   7.764  11.711   9.705
66302W        W39370  39.060  38.475   4.904
66303W        W39371  16.821  22.477  11.748
66304W        W39372  20.448  28.807  13.422
66305W        W39373  25.656  40.074   2.274
66306W        W39374  21.330  23.047  13.438
66307W        W39375  34.842  37.997   1.872
66308W        W39376  18.684  21.180   4.560
66309W        W39377   0.555  44.396  12.860
66310W        W39378  33.182  28.281   0.848
66311W        W39379  11.980  15.977  11.478
66312W        W39380  22.189   1.632   4.117
66313W        W39381  23.296  21.358   0.618
66314W        W39382  34.023  33.606  12.294
66315W        W39383  41.599  14.997  13.522
66316W        W39384  22.563  19.489  11.770
66317W        W39385   2.972  14.827  11.892
66318W        W39386  36.155   0.736   0.494
66319W        W39387  23.187  38.482   0.715
66320W        W39388  40.804  17.502  13.794
66321W        W39389  26.531  13.214   0.173
66322W        W39390  24.570  20.297   2.241
66323W        W39391  38.779  11.285   0.903
66324W        W39392  12.908  28.672   2.265
66325W        W39393  35.006  42.041   0.302
66326W        W39394   0.659   8.500  14.492
66327W        W39395  35.123  33.052   0.536
66328W        W39396  44.611  31.764   0.558
66329W        W39397   8.600  39.955  13.875
66330W        W39398  25.555  15.865  11.963
66331W        W39399  38.935  39.139   4.155
66332W        W39400  34.526  42.249   1.439
66333W        W39401  27.621  27.442  10.980
66334W        W39402  27.532  26.035   2.867
66335W        W39403  43.916  15.891   0.976
66336W        W39404  11.205  12.845  10.682
66337W        W39405  32.714  15.174   4.952
66338W        W39406  14.603  33.498  10.787
66339W        W39407  37.043  20.289  14.204
66340W        W39408  10.484   3.186  13.349
66341W        W39409  38.095  23.687   2.982
66342W        W39410   7.212  42.743   4.643
66343W        W39411  15.484  20.540   2.711
66344W        W39412  11.260  18.293   2.612
66345W        W39413   7.410   8.440  10.649
66346W        W39414   0.249  21.678   3.715
66347W        W39415  44.147  19.825  12.381
66348W        W39416  33.577  21.441   3.692
66349W        W39417  43.846   9.524   1.139
66350W        W39418  39.071  20.801   2.223
66351W        W39419  12.326  41.973   1.299
66352W        W39420  31.404   7.118  13.934
66353W        W39421  23.209  39.534   4.257
66354W        W39422  23.333  42.408  14.456
66355W        W39423  37.153  18.619   3.666
66356W        W39424  39.516  15.564   1.060
66357W        W39425  10.163   6.699   2.893
66358W        W39426  22.626   3.428   2.839
66359W        W39427   1.705  11.951  12.482
66360W        W39428  34.952  25.876  13.384
66361W        W39429  15.440  18.872  13.844
66362W        W39430   0.973  12.839  11.367
66363W        W39431   4.967   0.260  12.868
66364W        W39432   6.668  36.745  12.488
66365W        W39433  32.506  13.877   1.505
66366W        W39434  33.555   3.562  13.804
66367W        W39435  26.663   4.850   5.044
66368W        W39436  23.579  38.846  14.858
66369W        W39437  16.540  29.595   2.748
66370W        W39438   3.924  29.710  12.533
66371W        W39439  18.792  39.727   2.744
66372W        W39440  19.758   1.463   0.343
66373W        W39441   2.733  32.088   3.595
66374W        W39442  10.316  12.508  12.715
66375W        W39443  29.471  35.890   2.805
66376W        W39444  14.780  21.630  14.263
66377W        W39445  28.608   2.177  12.478
66378W        W39446  38.389  22.027  11.177
66379W        W39447  23.653  33.590   3.762
66380W        W39448  18.596  36.942  10.560
66381W        W39449   6.738   2.236  12.295
66382W        W39450  12.418   9.162  13.376
66383W        W39451  13.512  15.801   0.231
66384W        W39452  10.233  20.753  13.114
66385W        W39453   3.556   7.673   0.285
66386W        W39454  17.878  16.710  13.473
66387W        W39455  14.062  41.759  12.017
66388W        W39456  34.915  39.572   4.224
66389W        W39457   0.266   1.700   0.970
66390W        W39458  18.391  43.432  14.766
66391W        W39459  35.336  26.086   3.109
66392W        W39460  39.579  33.254  12.649
66393W        W39461  18.794   3.437   4.621
66394W        W39462  30.851  27.920   1.658
66395W        W39463   0.219  25.155   1.403
66396W        W39464  12.247  22.667   1.870
66397W        W39465  15.958  36.242  11.002
66398W        W39466  44.197   5.808  10.226
66399W        W39467   1.923  10.827  12.601
66400W        W39468  17.653  39.103   3.824
66401W        W39469  42.954  15.793   3.085
66402W        W39470  40.865  38.327  13.854
66403W        W39471  13.082  18.270   0.265
66404W        W39472   0.869  19.282   1.277
66405W        W39473  25.879  24.530  12.118
66406W        W39474  33.034   1.336   4.415
66407W        W39475   5.855  13.153   1.342
66408W        W39476   4.957  15.488  13.463
66409W        W39477  34.748   9.732   1.026
66410W        W39478   4.845   4.724  11.462
66411W        W39479  26.003   5.178  10.691
66412W        W39480  23.529  32.469  12.590
66413W        W39481  21.470  19.258  13.903
66414W        W39482  22.146  33.976   3.203
66415W        W39483  29.612  37.494  14.843
66416W        W39484   0.084  19.771  14.642
66417W        W39485  11.549  15.734  11.654
66418W        W39486  38.057   3.179   4.326
66419W        W39487   8.288  10.713   4.492
66420W        W39488  33.179  30.812   2.969
66421W        W39489  34.022   1.012   3.485
66422W        W39490   6.405   1.254  10.677
66423W        W39491  31.423   6.294  12.605
66424W        W39492  44.418  30.326  10.760
66425W        W39493   5.287  35.776  14.944
66426W        W39494   0.941  32.771   4.366
66427W        W39495  33.069  17.581   4.612
66428W        W39496  24.549   8.888   2.724
66429W        W39497  33.579  26.063   4.917
66430W        W39498  43.951  34.886  13.010
66431W        W39499  14.208  12.111  14.720
66432W        W39500  14.853  41.855  14.562
66433W        W39501  15.828  25.594  12.015
66434W        W39502   2.800  27.685   1.733
66435W        W39503  15.032  42.300  14.757
66436W        W39504   1.454  15.662   2.241
66437W        W39505  16.029  41.999  13.370
66438W        W39506  19.274   7.210  13.747
66439W        W39507  42.097  18.723  12.469
66440W        W39508  23.637  25.163  12.613
66441W        W39509  24.231   5.451   3.344
66442W        W39510   3.200  33.504   1.872
66443W        W39511  27.942  34.818  11.865
66444W        W39512  17.252   1.718   2.315
66445W        W39513  41.616  36.830   4.395
66446W        W39514  39.567  40.375  11.992
66447W        W39515  40.549   1.433  11.099
66448W        W39516  27.317   1.895  11.617
66449W        W39517   8.225  25.526  13.934
66450W        W39518  31.146   2.555  13.615
66451W        W39519  34.993  30.145   3.259
66452W        W39520  35.531   8.381  11.535
66453W        W39521   8.682  20.031   4.046
66454W        W39522  30.566   0.964   3.649
66455W        W39523  19.032  37.411   3.095
66456W        W39524   5.767  38.794   0.850
66457W        W39525   2.914  24.015   3.444
66458W        W39526  25.897  42.450   2.316
66459W        W39527  12.077  20.619   0.773
66460W        W39528  33.776  39.021  11.756
66461W        W39529  41.016  23.051   1.914
66462W        W39530  43.878  20.598   1.667
66463W        W39531   3.369  33.510   3.296
66464W        W39532   3.144  13.915   1.916
66465W        W39533  41.513  21.129   3.309
66466W        W39534  43.847   8.892  14.896
66467W        W39535  16.152   4.785  10.694
66468W        W39536  20.468   1.903  14.806
66469W        W39537  35.395  40.572   2.920
66470W        W39538  35.454   8.105   2.093
66471W        W39539  10.366   3.001   3.411
66472W        W39540  29.465   4.865   1.267
66473W        W39541  19.286   0.036  11.381
66474W        W39542  23.800  44.845  14.398
66475W        W39543  32.970  12.090   1.784
66476W        W39544  32.007   8.679  13.358
66477W        W39545  33.525   9.804   4.207
66478W        W39546  41.508  16.566   5.508
66479W        W39547  31.002   4.478  14.272
66480W        W39548  35.153  37.411  13.359
66481W        W39549   5.113   0.687  11.625
66482W        W39550   1.045   7.094  11.187
66483W        W39551  30.520  28.103   0.761
66484W        W39552  11.137  25.373   2.248
66485W        W39553  33.395   9.443   4.590
66486W        W39554  11.845   0.272   1.528
66487W        W39555  31.588  38.141  13.533
66488W        W39556   2.562  10.750  14.929
66489W        W39557  23.652  27.928  14.029
66490W        W39558   5.330   9.558  14.877
66491W        W39559   6.119  41.547  10.659
66492W        W39560   1.100   6.492   2.645
66493W        W39561   1.168  23.048  14.327
66494W        W39562   7.814  44.259  10.691
66495W        W39563  41.012  32.307   0.209
66496W        W39564  34.087  27.557   2.136
66497W        W39565  37.998   5.896  14.074
66498W        W39566  12.314   4.295  14.812
66499W        W39567  35.510   3.626   1.823
66500W        W39568  19.039  11.635   1.995
66501W        W39569  41.824  20.979  13.372
66502W        W39570   6.330  16.994  10.642
66503W        W39571  24.620  41.911  14.894
66504W        W39572  19.229  38.063   0.781
66505W        W39573  20.885  22.536   1.297
66506W        W39574   0.582  26.878  10.662
66507W        W39575  20.660  27.944  11.865
66508W        W39576  19.851  15.641   0.870
66509W        W39577  18.021  23.357   1.706
66510W        W39578  25.935  29.603   4.548
66511W        W39579  20.192  14.082  10.795
66512W        W39580  42.560  33.101  13.849
66513W        W39581  27.961  30.457  12.448
66514W        W39582  10.171  33.419   0.316
66515W        W39583   9.865  24.543  11.285
66516W        W39584  34.898  28.229  12.489
66517W        W39585  22.566  43.507   0.987
66518W        W39586  18.091  11.700   1.923
66519W        W39587   2.698  14.593   1.359
66520W        W39588  44.324   0.409  14.437
66521W        W39589  29.399   9.096  11.714
66522W        W39590   9.180  28.545   2.792
66523W        W39591  35.971   9.708   4.402
66524W        W39592  41.432  18.479  11.949
66525W        W39593  21.668  19.842   4.271
66526W        W39594   8.331  37.708   3.400
66527W        W39595  25.128  27.885  12.587
66528W        W39596  20.604   6.683  11.708
66529W        W39597   8.484   8.968  12.461
66530W        W39598  15.663  11.625   1.934
66531W        W39599   9.639  31.552   3.365
66532W        W39600  44.421  31.274   0.439
66533W        W39601  14.860   9.865   2.771
66534W        W39602  11.604  26.208   2.220
66535W        W39603  36.549  24.650  10.640
66536W        W39604  16.104  34.596   4.099
66537W        W39605   2.853  22.674  12.872
66538W        W39606   1.354   7.456   1.872
66539W        W39607  35.585  21.224   0.529
66540W        W39608   4.979  33.876   0.810
66541W        W39609   1.545  29.349  12.550
66542W        W39610  40.940  13.553   1.274
66543W        W39611   6.868  26.038  10.537
66544W        W39612  21.505  26.011   1.414
66545W        W39613  28.319  15.221  11.048
66546W        W39614  35.707  16.476   1.016
66547W        W39615  25.115  16.851   1.271
66548W        W39616  37.500  25.738  11.196
66549W        W39617  13.206  31.192   4.837
66550W        W39618  17.515   9.554  12.379
66551W        W39619  26.269  25.674  13.398
66552W        W39620   6.857  37.167   4.004
66553W        W39621   4.342  11.464  11.615
66554W        W39622  27.161  10.479  14.864
66555W        W39623  36.121  44.629  10.561
66556W        W39624   8.822   0.690  13.308
66557W        W39625  26.575  14.005  11.608
66558W        W39626  29.167   9.297  12.155
66559W        W39627   2.954  33.887   4.347
66560W        W39628  10.808   4.253  11.070
66561W        W39629  37.916  23.833   1.952
66562W        W39630  24.683  38.046   2.732
66563W        W39631  29.690  39.432  14.181
66564W        W39632  27.807   6.536   3.475
66565W        W39633  19.320  42.870  11.134
66566W        W39634  34.593  40.859   0.780
66567W        W39635   4.830  24.995   2.717
66568W        W39636  30.650   8.670   3.650
66569W        W39637  22.972  32.042  12.056
66570W        W39638  26.515   5.884  12.419
66571W        W39639   6.231  13.414  12.541
66572W        W39640  28.627  41.400   4.546
66573W        W39641  14.645   4.556   3.407
66574W        W39642  41.419  36.625   0.847
66575W        W39643  29.167  18.292  12.459
66576W        W39644  34.613   6.485   2.165
66577W        W39645  36.346  22.525  13.192
66578W        W39646  19.885  10.333   4.645
66579W        W39647   0.418  22.146   2.181
66580W        W39648  34.677  11.855   3.987
66581W        W39649  28.147   6.759  13.220
66582W        W39650  35.996  33.557   0.446
66583W        W39651  27.692   2.006   5.121
66584W        W39652  13.119  28.127  11.033
66585W        W39653  28.696  30.066  14.262
66586W        W39654  36.031   7.695   2.655
66587W        W39655  19.673   5.016   1.932
66588W        W39656  14.359  19.148  13.080
66589W        W39657   9.455   7.629  13.987
66590W        W39658   3.259  18.628   4.652
66591W        W39659   4.169   9.828  11.037
66592W        W39660  38.498  44.615   4.968
66593W        W39661   2.004  36.444   2.882
66594W        W39662  40.879  24.896   1.968
66595W        W39663  24.500   7.728  11.422
66596W        W39664  12.657  13.385   1.549
66597W        W39665  40.287  21.225  13.274
66598W        W39666  29.474  26.983  13.615
66599W        W39667  36.402  40.901  11.723
66600W        W39668  43.811  12.463  10.641
66601W        W39669  39.427  16.122   1.842
66602W        W39670   9.310  30.158   1.045
66603W        W39671  26.100   7.493   0.875
66604W        W39672  17.513   8.584   0.751
66605W        W39673   9.896  36.494  14.922
66606W        W39674  14.503  42.491  10.407
66607W        W39675  15.635   2.749   0.261
66608W        W39676  10.940  14.487   3.681
66609W        W39677  39.188  37.323  12.732
66610W        W39678  43.238   5.347   1.937
66611W        W39679  43.198  43.959  11.820
66612W        W39680   1.852   7.075  14.412
66613W        W39681  18.774  22.043   0.289
66614W        W39682  34.362  15.706  11.162
66615W        W39683   7.795  26.913  11.705
66616W        W39684  30.175  35.965  14.848
66617W        W39685  40.064  17.717  10.850
66618W        W39686  33.482  40.427  13.900
66619W        W39687  34.634  21.542   0.263
66620W        W39688  42.086  25.223   4.386
66621W        W39689  31.900  17.218   1.852
66622W        W39690   5.443  34.741  14.910
66623W        W39691  31.019  16.802   4.750
66624W        W39692  32.948  41.786   2.647
66625W        W39693   2.694  15.253   1.954
66626W        W39694   5.841   4.198  12.563
66627W        W39695   1.936   1.931   3.883
66628W        W39696  42.897  22.456   0.293
66629W        W39697  16.847  39.150   4.454
66630W        W39698   0.289  21.683   2.781
66631W        W39699  39.580  40.999  10.802
66632W        W39700  20.018  13.604  11.679
66633W        W39701  19.946  31.512  14.888
66634W        W39702  19.805   0.209   4.632
66635W        W39703  34.536   6.799  11.097
66636W        W39704  31.890  21.526   0.981
66637W        W39705  22.978   1.959   2.288
66638W        W39706  32.835  44.967   1.996
66639W        W39707  26.525  16.038  14.315
66640W        W39708  31.204  18.799   2.041
66641W        W39709  42.399  41.745  12.066
66642W        W39710  20.068   5.164  10.637
66643W        W39711  44.891  20.202  13.924
66644W        W39712  16.534   1.809  10.691
66645W        W39713  14.866  44.327   3.949
66646W        W39714   5.162  33.435  10.260
66647W        W39715  26.671   3.492  13.931
66648W        W39716  23.816   5.750  13.303
66649W        W39717   8.423  39.368  13.076
66650W        W39718   5.913  37.001   2.121
66651W        W39719  22.582   3.368  11.663
66652W        W39720  36.627  16.781   1.978
66653W        W39721  39.606  43.833  14.310
66654W        W39722  12.635  36.862   2.479
66655W        W39723  38.542  25.794  11.689
66656W        W39724  38.336   9.591  13.894
66657W        W39725  40.012  25.369   3.708
66658W        W39726  13.244   4.757   2.353
66659W        W39727  13.352   0.849  13.878
66660W        W39728  36.992  36.208   0.010
66661W        W39729  22.319   8.742   4.151
66662W        W39730  36.103  20.093  12.062
66663W        W39731  18.291   3.430   1.797
66664W        W39732   3.380  36.779   4.063
66665W        W39733  31.989  44.062   4.615
66666W        W39734  37.387  25.119  14.909
66667W        W39735   5.769  39.739   4.528
66668W        W39736  27.445  41.415   4.331
66669W        W39737   1.296   9.613   4.668
66670W        W39738   1.433  26.908   3.671
66671W        W39739  22.111   2.718  10.543
66672W        W39740  24.697  32.545  14.914
66673W        W39741  43.897  34.346   2.648
66674W        W39742  10.753  11.075   0.268
66675W        W39743  19.658  40.772  14.017
66676W        W39744   0.240  14.244  12.952
66677W        W39745  13.699   4.954   3.142
66678W        W39746  32.641   9.218  11.626
66679W        W39747  30.885  37.135  14.872
66680W        W39748  39.058  23.777   1.307
66681W        W39749  27.784  28.746   0.308
66682W        W39750  24.256  33.570  13.058
66683W        W39751   5.129  26.896   1.731
66684W        W39752   4.907  30.841   0.472
66685W        W39753  38.150  16.625   4.426
66686W        W39754   2.214  27.893   0.886
66687W        W39755  13.606   3.848  14.850
66688W        W39756  28.943  16.259  14.769
66689W        W39757  36.860  43.882   2.918
66690W        W39758  27.154  35.366   3.784
66691W        W39759  20.214  34.973   2.451
66692W        W39760   5.875  38.712  14.898
66693W        W39761  44.410  14.165  11.668
66694W        W39762  42.589  27.294  14.764
66695W        W39763  33.928  38.620  13.141
66696W        W39764  24.940   1.688   2.742
66697W        W39765   0.262  19.056   3.743
66698W        W39766  24.795  23.961  13.394
66699W        W39767  33.527  12.751  14.997
66700W        W39768  19.850   4.788   9.836
66701W        W39769  13.175  19.540  14.398
66702W        W39770  30.104  31.915  12.497
66703W        W39771  35.610  43.492  11.359
66704W        W39772  33.394  42.521   1.248
66705W        W39773  23.967  23.464   1.898
66706W        W39774  13.750  16.126   2.190
66707W        W39775  23.564   9.662  11.114
66708W        W39776  33.413  40.728  13.422
66709W        W39777   4.897  18.563  13.371
66710W        W39778   1.380  15.438  13.707
66711W        W39779  26.429  13.476   2.306
66712W        W39780  44.385  14.617  11.422
66713W        W39781  35.966  44.927   4.660
66714W        W39782  28.499  39.854   3.349
66715W        W39783  22.450  23.776   1.831
66716W        W39784   1.897  18.055   2.169
66717W        W39785  41.309  19.164  13.435
66718W        W39786   0.487   6.412  14.415
66719W        W39787   4.971  36.249  11.602
66720W        W39788  12.057  19.477   3.537
66721W        W39789   8.356   7.312  10.489
66722W        W39790  23.621  15.849   4.742
66723W        W39791   0.184  36.028  11.026
66724W        W39792  16.580   4.192  13.184
66725W        W39793  42.449  11.862  11.186
66726W        W39794   5.768   9.264  14.956
66727W        W39795  18.564  33.423   4.481
66728W        W39796  30.558   4.559  14.015
66729W        W39797  26.027   2.275   3.265
66730W        W39798  11.176  29.911   3.396
66731W        W39799  40.997  14.885  14.777
66732W        W39800   5.244  23.021   1.972
66733W        W39801  39.261  29.620   3.212
66734W        W39802  28.259  21.442  14.930
66735W        W39803  35.454  19.247   3.896
66736W        W39804  14.629  30.614  14.022
66737W        W39805  18.240  14.563   1.264
66738W        W39806  18.454   7.976  11.470
66739W        W39807  15.230  28.370  10.602
66740W        W39808  16.222  43.958   1.419
66741W        W39809  15.060  33.413  10.473
66742W        W39810   1.846  35.507  11.903
66743W        W39811  33.540  41.498   2.130
66744W        W39812  12.229  25.532   3.578
66745W        W39813  12.351  31.109   3.356
66746W        W39814  17.131  36.278   1.917
66747W        W39815  26.239  34.112   0.419
66748W        W39816  20.206  19.950   3.070
66749W        W39817   6.810  24.831   3.805
66750W        W39818   8.646  18.080   0.097
66751W        W39819  11.315  38.717   2.507
66752W        W39820  17.069  16.696  13.883
66753W        W39821  39.417  31.526   4.990
66754W        W39822   3.636  41.980  11.733
66755W        W39823  15.194  37.951  12.776
66756W        W39824   8.244  35.483   1.259
66757W        W39825  43.126  29.024   1.331
66758W        W39826   7.392  22.649  10.538
66759W        W39827  43.056  42.083   3.717
66760W        W39828   1.682  31.873  11.046
66761W        W39829   7.764   6.028  10.660
66762W        W39830  30.966  36.538   3.775
66763W        W39831   3.817  41.887  12.216
66764W        W39832  28.523  23.053   2.963
66765W        W39833   8.801   1.815  13.814
66766W        W39834  12.477   5.104   0.806
66767W        W39835  18.606   0.868  11.203
66768W        W39836  17.772   2.409   2.502
66769W        W39837  40.875  42.548   2.365
66770W        W39838   6.137  16.569  12.932
66771W        W39839   8.432   5.171   4.508
66772W        W39840   1.791  40.598   4.199
66773W        W39841  34.460  36.854   2.082
66774W        W39842  28.904  37.375   2.722
66775W        W39843  19.545  28.490  11.697
66776W        W39844  40.449  19.315  10.805
66777W        W39845  19.033  21.308  14.410
66778W        W39846  34.473  12.803   0.741
66779W        W39847  18.859  26.041   3.276
66780W        W39848   3.743   4.440   4.138
66781W        W39849  34.927  20.961   1.815
66782W        W39850  32.472  32.243  11.529
66783W        W39851  28.567  38.451   3.501
66784W        W39852  35.503   8.807  14.734
66785W        W39853  14.924  19.673  11.162
66786W        W39854  33.114  36.257   1.567
66787W        W39855  20.672  30.092   1.911
66788W        W39856  25.595   2.839  10.647
66789W        W39857  12.692   0.209   1.169
66790W        W39858   1.972  20.178  12.578
66791W        W39859  30.330  38.731   0.902
66792W        W39860   1.484  41.385   4.409
66793W        W39861  38.612  19.327  12.875
66794W        W39862  37.141  35.482  13.476
66795W        W39863  22.682  30.899   2.389
66796W        W39864  16.804  10.389  14.980
66797W        W39865  41.109  16.313   4.591
66798W        W39866  13.354  16.761   2.771
66799W        W39867   6.829  39.303   0.350
66800W        W39868   4.252  35.056   2.327
66801W        W39869  23.162  40.693  11.891
66802W        W39870   2.868  15.349   0.368
66803W        W39871   1.909   2.004   0.281
66804W        W39872   3.927   9.725  12.519
66805W        W39873  11.648  31.841  10.618
66806W        W39874  40.108  41.990   3.707
66807W        W39875  43.617  24.767   2.891
66808W        W39876  35.439  33.450  14.815
66809W        W39877   3.552  35.981   2.431
66810W        W39878  36.937  16.203   0.833
66811W        W39879  29.421   3.443  12.965
66812W        W39880  13.334   2.833  12.993
66813W        W39881   1.392  40.304  11.009
66814W        W39882  26.734  34.149  10.192
66815W        W39883  23.484  23.707  11.248
66816W        W39884  44.192  35.512  11.595
66817W        W39885  20.499  33.666  13.317
66818W        W39886   7.356  42.156  10.287
66819W        W39887   5.817  27.251   4.587
66820W        W39888  23.818  31.456  14.542
66821W        W39889  13.686  14.210   4.228
66822W        W39890  14.738  37.849   2.066
66823W        W39891   5.382  13.302   4.096
66824W        W39892  14.134  33.545  12.912
66825W        W39893  23.473   0.991  13.851
66826W        W39894  38.342  31.153  12.221
66827W        W39895  12.234  14.569   1.911
66828W        W39896  42.266  29.547  14.889
66829W        W39897  13.901   5.657  12.468
66830W        W39898  40.176   7.448  12.840
66831W        W39899  39.664  27.090  11.579
66832W        W39900  38.036  21.212  14.533
66833W        W39901  21.905  39.906   4.221
66834W        W39902  18.502  18.303  12.557
66835W        W39903  35.125  38.499  10.415
66836W        W39904  26.118  38.377   2.701
66837W        W39905  38.093  20.059   3.815
66838W        W39906   5.943  10.844   2.182
66839W        W39907  35.659   5.113  12.374
66840W        W39908  25.038  24.831  11.935
66841W        W39909  16.352  27.787   1.395
66842W        W39910  31.128  44.352  14.336
66843W        W39911  41.869  12.938  13.841
66844W        W39912  30.890   4.878   0.460
66845W        W39913  25.207  32.602   4.389
66846W        W39914  26.923   9.879   1.808
66847W        W39915  44.234   7.214   0.710
66848W        W39916  39.039  33.410  13.385
66849W        W39917  18.043  34.858   2.735
66850W        W39918  24.046  20.059  11.929
66851W        W39919  30.389  10.759   4.182
66852W        W39920  11.691  17.798   0.298
66853W        W39921   2.338  32.142  14.029
66854W        W39922  41.971   1.315   2.822
66855W        W39923  15.887  19.594   0.932
66856W        W39924  20.321  10.386   0.746
66857W        W39925  28.918  26.486   3.248
66858W        W39926   6.440  36.136   0.818
66859W        W39927   8.898   5.892  13.874
66860W        W39928  14.874  23.038  13.831
66861W        W39929  22.751  37.241   3.700
66862W        W39930  18.917   2.672  13.384
66863W        W39931  38.484  36.862  12.420
66864W        W39932  11.963  23.077  12.451
66865W        W39933  35.152  27.140  14.489
66866W        W39934   2.047  17.765   1.670
66867W        W39935  14.369  11.524   1.860
66868W        W39936  28.239   1.425  13.972
66869W        W39937  28.100  35.504   1.868
66870W        W39938  33.693  17.254  11.706
66871W        W39939  29.273   8.288   4.923
66872W        W39940   8.165   9.141  14.860
66873W        W39941  26.641  33.984   3.988
66874W        W39942   6.275  36.776  13.381
66875W        W39943  16.072  43.352  11.426
66876W        W39944  10.632  30.634  11.546
66877W        W39945  39.934  41.266   3.347
66878W        W39946   1.170  37.012   1.395
66879W        W39947   2.767  30.204   1.789
66880W        W39948   2.390  36.508   1.891
66881W        W39949   2.359   2.256   0.961
66882W        W39950  23.978  12.762   2.773
66883W        W39951  22.734  33.208   2.735
66884W        W39952   0.824  31.148  14.577
66885W        W39953  22.218  11.851   4.207
66886W        W39954  16.741  17.275  14.326
66887W        W39955  44.524  21.575   0.342
66888W        W39956  40.971  15.554   3.524
66889W        W39957  12.615  22.222   3.331
66890W        W39958  44.606   1.277   4.719
66891W        W39959  12.151   5.679  14.830
66892W        W39960  12.145  16.619   4.575
66893W        W39961   5.430  12.220  12.286
66894W        W39962  30.146  33.858  13.351
66895W        W39963  14.292  31.656  11.127
66896W        W39964  18.312  18.263   0.034
66897W        W39965  39.605   1.735   5.446
66898W        W39966  16.250  44.365   3.697
66899W        W39967  12.186   5.425   3.446
66900W        W39968  14.854  41.273   0.348
66901W        W39969  35.594  12.107   4.356
66902W        W39970  37.789  15.308   4.375
66903W        W39971  23.046  14.744   3.977
66904W        W39972  29.557   8.160   0.575
66905W        W39973  20.933  34.427   2.886
66906W        W39974   6.662  39.021   1.176
66907W        W39975  23.695  12.326  14.630
66908W        W39976   3.093  31.116   1.439
66909W        W39977  14.410  18.232   4.801
66910W        W39978   9.194  36.964  11.149
66911W        W39979  12.596  20.012   3.279
66912W        W39980  34.934  39.297   4.658
66913W        W39981  33.929  38.064  11.978
66914W        W39982   1.763  37.074  13.592
66915W        W39983  42.143   2.262  14.559
66916W        W39984  30.234  23.963  14.964
66917W        W39985   4.712  14.902  12.392
66918W        W39986  35.527   9.358   4.758
66919W        W39987   7.351   0.467  12.376
66920W        W39988  35.816  42.894   4.500
66921W        W39989  35.516   1.316  13.111
66922W        W39990  34.963  27.433  14.910
66923W        W39991  35.090  20.111  11.106
66924W        W39992  37.107  13.142  11.588
66925W        W39993   2.365  39.819   1.043
66926W        W39994  16.620  15.630   5.008
66927W        W39995  13.098  31.409   1.384
66928W        W39996  22.715  12.184  14.501
66929W        W39997  25.257  14.767  11.480
66930W        W39998  15.223  21.614  14.008
66931W        W39999  23.998  43.035  12.699
66932W        W40000  13.181  19.609   4.216
66933W        W40001  44.531  21.591  11.477
66934W        W40002  14.341  21.671   3.106
66935W        W40003  19.069  41.866   0.554
66936W        W40004  10.657  18.656   0.256
66937W        W40005   0.673  15.383  13.493
66938W        W40006  33.770  21.620   4.573
66939W        W40007   2.970   3.317  11.978
66940W        W40008  38.887  27.565  11.164
66941W        W40009  19.835   3.980  14.449
66942W        W40010   0.034  16.158  14.681
66943W        W40011  10.386  24.071  14.926
66944W        W40012  12.109   7.341   4.069
66945W        W40013  10.837  39.060   1.324
66946W        W40014  18.836  22.241  12.487
66947W        W40015  39.958  17.128  11.517
66948W        W40016  38.503  26.761   4.755
66949W        W40017   2.293  38.857  10.749
66950W        W40018   8.857   2.802   2.206
66951W        W40019  38.282  40.407   2.301
66952W        W40020  12.065  18.236   2.193
66953W        W40021  11.844  23.470  11.247
66954W        W40022   8.829  30.205   2.343
66955W        W40023  44.482  33.348   2.402
66956W        W40024  40.051  44.929   1.202
66957W        W40025  20.647  33.923  13.768
66958W        W40026  29.846  18.297  12.044
66959W        W40027  30.178   9.760  11.063
66960W        W40028  33.360  16.778   3.154
66961W        W40029  39.016   3.300   4.166
66962W        W40030   1.849  35.071   0.971
66963W        W40031  24.494   5.655  11.239
66964W        W40032  24.052  10.110   4.485
66965W        W40033  42.886   7.741   1.388
66966W        W40034  32.067  38.060  11.637
66967W        W40035  17.532   8.213  10.674
66968W        W40036  11.096   0.834  13.034
66969W        W40037   8.875  37.036  10.332
66970W        W40038  33.349  40.053  12.772
66971W        W40039  30.130   6.704   4.421
66972W        W40040  20.090  31.501   4.540
66973W        W40041  24.213  23.058   4.228
66974W        W40042  33.530  11.717   2.399
66975W        W40043  22.304  39.560  12.524
66976W        W40044  27.850  35.433  14.964
66977W        W40045   8.835  16.544   0.891
66978W        W40046   4.067  27.951   3.742
66979W        W40047  31.646  35.692  12.231
66980W        W40048   7.287   4.152  11.083
66981W        W40049  17.196  13.651   2.636
66982W        W40050  19.285  42.060  11.473
66983W        W40051  14.584  35.510   1.147
66984W        W40052  35.904  17.757  12.483
66985W        W40053   0.329  12.266   2.647
66986W        W40054  37.021  37.921  14.783
66987W        W40055  20.724  10.727   2.908
66988W        W40056  36.139   2.749  12.048
66989W        W40057   3.010  33.011   1.885
66990W        W40058   8.238  10.699   0.697
66991W        W40059  14.511  25.124  14.346
66992W        W40060   1.718  19.185  13.065
66993W        W40061   1.045  38.903   3.553
66994W        W40062  20.264   0.836   2.105
66995W        W40063  19.080  26.516   1.217
66996W        W40064  44.133  33.627  12.950
66997W        W40065   4.360  16.136   3.178
66998W        W40066  11.894  10.839  14.352
66999W        W40067  36.658  20.229  11.699
67000W        W40068   3.336  29.693  10.468
67001W        W40069  38.566  14.594   1.758
67002W        W40070  11.721  17.467  14.898
67003W        W40071  17.345  13.632  10.388
67004W        W40072   4.227  20.526  13.936
67005W        W40073   5.116  22.097   4.051
67006W        W40074  26.420  17.141  13.404
67007W        W40075  26.216  39.285  11.928
67008W        W40076  29.109  17.995  14.374
67009W        W40077  41.277  24.792  13.054
67010W        W40078  22.294   0.400   0.004
67011W        W40079  19.307  44.516  12.586
67012W        W40080   7.305  18.762   0.789
67013W        W40081  19.504  24.026  10.580
67014W        W40082  14.010   3.874   2.889
67015W        W40083  23.832   3.415   2.096
67016W        W40084  42.590  10.231   4.530
67017W        W40085  43.266  37.296   4.164
67018W        W40086  16.885  41.380   2.892
67019W        W40087  43.936  37.990   0.974
67020W        W40088  39.131  32.158  14.151
67021W        W40089  15.645  31.943   1.089
67022W        W40090  22.206   4.854   2.405
67023W        W40091   4.472  27.457   4.587
67024W        W40092  24.148  24.606   0.401
67025W        W40093   3.407  16.144   0.930
67026W        W40094  35.963  19.201  10.479
67027W        W40095  22.127  11.158  13.453
67028W        W40096   6.538  39.886  11.096
67029W        W40097  11.189  34.083  10.662
67030W        W40098   2.875  18.368   2.802
67031W        W40099  18.705   2.384  14.950
67032W        W40100  22.237   2.536  13.909
67033W        W40101  20.266  35.269   3.226
67034W        W40102  19.915  10.239  10.835
67035W        W40103   0.357  32.380  13.080
67036W        W40104  37.030  29.164  10.799
67037W        W40105   4.453  17.910   0.504
67038W        W40106  23.734  19.118   0.404
67039W        W40107  44.458  31.420   0.933
67040W        W40108  12.386  42.205  12.484
67041W        W40109  14.458  31.422  12.046
67042W        W40110   4.952  14.479   0.987
67043W        W40111  32.074  34.873   3.166
67044W        W40112  30.194  27.070   4.071
67045W        W40113  36.939  44.767  12.845
67046W        W40114   1.747  22.008   3.349
67047W        W40115  22.265  19.223  13.528
67048W        W40116  28.469  26.027   1.959
67049W        W40117  30.703   3.337  13.998
67050W        W40118  13.695   2.803   2.274
67051W        W40119  20.419  26.016   2.825
67052W        W40120  36.365  36.844   0.316
67053W        W40121   7.948  42.868   4.136
67054W        W40122   8.054  12.359  12.594
67055W        W40123  38.843   0.667   0.030
67056W        W40124  28.215  21.343   0.903
67057W        W40125  27.541  24.659   2.195
67058W        W40126  29.495  22.251  14.416
67059W        W40127  32.011  39.530   1.599
67060W        W40128  38.220  35.917   0.013
67061W        W40129  23.425  25.489   1.887
67062W        W40130  15.537  28.426  11.926
67063W        W40131  31.454  29.072   1.560
67064W        W40132  14.879  37.265  13.861
67065W        W40133  33.569   1.088   2.390
67066W        W40134  18.331   5.440  14.346
67067W        W40135  43.778  30.426   3.634
67068W        W40136   1.116  39.030   0.776
67069W        W40137  23.746  25.612   2.822
67070W        W40138   7.452   1.743  14.244
67071W        W40139  41.979  11.826   4.803
67072W        W40140  42.805   6.856  10.685
67073W        W40141  36.547  28.517   0.683
67074W        W40142  37.985  26.276  12.933
67075W        W40143  40.867  43.704  12.484
67076W        W40144  26.636  38.443  11.516
67077W        W40145   2.072  33.687   3.256
67078W        W40146  27.069   1.253  13.414
67079W        W40147  23.181   9.716   0.416
67080W        W40148  30.328  42.513   3.550
67081W        W40149  32.156   4.961  12.504
67082W        W40150  37.544  40.058  11.029
67083W        W40151  19.752  29.133   2.159
67084W        W40152  40.785  33.275  12.702
67085W        W40153  26.160   1.589  11.546
67086W        W40154  23.608  40.415   3.850
67087W        W40155  29.038  27.562   4.739
67088W        W40156  35.638  18.714   2.057
67089W        W40157  21.097   9.168   1.814
67090W        W40158   7.404   1.870   3.445
67091W        W40159   6.740  34.468  14.434
67092W        W40160  44.484  32.979  11.220
67093W        W40161   6.896   4.453   2.086
67094W        W40162  10.616  19.232   2.617
67095W        W40163  44.584  40.888  12.908
67096W        W40164  23.537  42.239   4.638
67097W        W40165  20.195  44.916   0.025
67098W        W40166  30.591  24.551  13.394
67099W        W40167  32.847  37.537  13.650
67100W        W40168  34.613  31.093  14.315
67101W        W40169  32.068  11.622   2.937
67102W        W40170  22.068  24.557  11.889
67103W        W40171  21.828   7.036   3.653
67104W        W40172  12.802   2.877  14.263
67105W        W40173   0.736  33.453  12.089
67106W        W40174   1.258   8.834   3.664
67107W        W40175  13.089  37.946   1.943
67108W        W40176  18.458  11.181  13.734
67109W        W40177   5.013  29.486   4.223
67110W        W40178  36.283   3.707  13.119
67111W        W40179  16.133  27.646  14.043
67112W        W40180  22.154   2.719   2.875
67113W        W40181  33.151  16.891   1.433
67114W        W40182  33.537  42.860   0.889
67115W        W40183   8.369  10.281   3.240
67116W        W40184   3.706  23.673   0.850
67117W        W40185  39.755  15.200  14.248
67118W        W40186  14.869  40.862   0.975
67119W        W40187  10.158   3.470  14.827
67120W        W40188  40.107   3.937   4.392
67121W        W40189  30.515  37.928  10.718
67122W        W40190  29.198  43.266   4.442
67123W        W40191   3.210  25.036  13.051
67124W        W40192  43.615   1.214   2.961
67125W        W40193  28.774  25.015  12.114
67126W        W40194  33.092   3.425   0.860
67127W        W40195  10.779  30.505  14.206
67128W        W40196   3.268  27.941   1.768
67129W        W40197  25.275   4.367  14.269
67130W        W40198   1.432  24.231   3.225
67131W        W40199  43.884  37.708  13.023
67132W        W40200  17.424  25.774  11.083
67133W        W40201  15.130  44.489  14.316
67134W        W40202  23.262  16.756   0.542
67135W        W40203  33.605  37.127   3.415
67136W        W40204  36.601  23.293   1.447
67137W        W40205   8.897  24.620   2.265
67138W        W40206  33.603  38.536  11.576
67139W        W40207  25.595  13.271  12.834
67140W        W40208  43.999   4.984   1.737
67141W        W40209  19.331  27.634   4.205
67142W        W40210  35.691  21.219  13.168
67143W        W40211  20.078  34.425  10.847
67144W        W40212  39.011  24.035   0.823
67145W        W40213  37.596  28.560   1.447
67146W        W40214   9.300   2.815  10.722
67147W        W40215  20.277  37.929  12.003
67148W        W40216  32.922  21.142  11.564
67149W        W40217   7.160  18.527  14.201
67150W        W40218  29.632  12.274  14.515
67151W        W40219   2.399  24.138   2.702
67152W        W40220  25.536  31.435   0.364
67153W        W40221  36.456  34.664   1.988
67154W        W40222  19.202   2.693   0.269
67155W        W40223  15.717  10.585   4.353
67156W        W40224  10.555  31.436  10.772
67157W        W40225  31.747  31.336  13.509
67158W        W40226  12.872  26.721  13.540
67159W        W40227   3.763   8.269   1.852
67160W        W40228  16.207  23.040   1.864
67161W        W40229  10.826  27.777  14.943
67162W        W40230  15.886  34.340   0.106
67163W        W40231  35.319  41.817  12.027
67164W        W40232  31.457  27.775   1.938
67165W        W40233  38.267  18.766   4.343
67166W        W40234  29.472  11.139   4.694
67167W        W40235  27.407  38.992  10.815
67168W        W40236  31.405  33.128   1.231
67169W        W40237  20.917  12.127   0.848
67170W        W40238  35.437  15.766   3.700
67171W        W40239  16.111  30.193   0.781
67172W        W40240  10.898  32.832   0.866
67173W        W40241  23.693  39.925  10.679
67174W        W40242  16.789  21.497   4.106
67175W        W40243  23.525   7.947  14.289
67176W        W40244  11.321  35.970  13.139
67177W        W40245  10.418  43.250  13.939
67178W        W40246  38.018  16.698  10.386
67179W        W40247   4.786  30.352  14.305
67180W        W40248  21.612  32.939   4.168
67181W        W40249   6.837  34.832  12.157
67182W        W40250  25.514  13.329   0.537
67183W        W40251  33.072  12.247   0.754
67184W        W40252   4.307   3.718  12.043
67185W        W40253   3.166  16.512  13.796
67186W        W40254  33.363  27.042   3.937
67187W        W40255  33.516  24.607   1.516
67188W        W40256  12.160   2.704   0.880
67189W        W40257  26.610  36.476  12.553
67190W        W40258  39.604   9.981  13.585
67191W        W40259  25.610  41.124   4.573
67192W        W40260  29.366  23.145   2.056
67193W        W40261  11.118   2.758  11.920
67194W        W40262  41.046  22.275   0.961
67195W        W40263  36.474  14.677   1.635
67196W        W40264   1.418   8.205  14.005
67197W        W40265   0.507  29.071   0.339
67198W        W40266   3.393   4.894   0.252
67199W        W40267  37.003  37.479   3.266
67200W        W40268   7.866  22.170   2.275
67201W        W40269   4.685  19.116  14.991
67202W        W40270   2.538  14.790   1.816
67203W        W40271  23.186  33.451   2.564
67204W        W40272  41.507  25.265  12.805
67205W        W40273   6.313  35.598   3.185
67206W        W40274   9.816  32.697  14.446
67207W        W40275   9.240  39.482   0.386
67208W        W40276  36.904  34.539   0.551
67209W        W40277  14.902   6.641  11.970
67210W        W40278  37.784   2.817   1.222
67211W        W40279  27.689  33.918  13.818
67212W        W40280  36.163  26.503  12.135
67213W        W40281  43.365  21.507   2.851
67214W        W40282   5.304  32.644   4.771
67215W        W40283  16.803   4.941  13.803
67216W        W40284  39.551  39.349   3.252
67217W        W40285  33.660  12.223  10.368
67218W        W40286  18.097  34.385   3.386
67219W        W40287  34.092  38.061   4.242
67220W        W40288  44.250  35.855  12.074
67221W        W40289  24.924  36.615  14.834
67222W        W40290  31.571  39.934  13.935
67223W        W40291   6.779  28.621  13.180
67224W        W40292  14.115  28.730   1.203
67225W        W40293   3.191  39.561   4.343
67226W        W40294   7.247  26.199   0.649
67227W        W40295   7.076  35.937   0.234
67228W        W40296  22.037  12.874   1.302
67229W        W40297  36.916  26.265  13.078
67230W        W40298  32.886  30.557  13.897
67231W        W40299  11.039  20.707  11.988
67232W        W40300  20.102  32.189  11.127
67233W        W40301  44.318  15.038  13.742
67234W        W40302  18.611  43.727  10.930
67235W        W40303  16.848  19.721  11.006
67236W        W40304  21.807  44.313  14.501
67237W        W40305  41.876  23.729   2.231
67238W        W40306   7.407  26.548   2.644
67239W        W40307  27.726   4.825  13.852
67240W        W40308  22.963  16.688  13.007
67241W        W40309  18.115  36.528   3.156
67242W        W40310  24.502  17.612  12.567
67243W        W40311  35.490   1.187   0.478
67244W        W40312   7.218  14.642  11.214
67245W        W40313  11.306  21.524  13.954
67246W        W40314  25.235  23.684  10.520
67247W        W40315  21.076  31.688   0.479
67248W        W40316  25.695  14.488  11.485
67249W        W40317   6.119   4.578   2.299
67250W        W40318  40.126  20.742   0.936
67251W        W40319  21.551  12.654   0.714
67252W        W40320  27.153   0.238  13.596
67253W        W40321  35.657  13.276   4.709
67254W        W40322   4.427  36.937  14.960
67255W        W40323  33.068   2.319   4.886
67256W        W40324   5.619  33.794  11.472
67257W        W40325   5.713  41.358  11.531
67258W        W40326  11.624  16.345  11.545
67259W        W40327  17.089  10.672   4.108
67260W        W40328   4.318  38.557   4.654
67261W        W40329  18.652  30.191  11.125
67262W        W40330   7.916  34.850   2.947
67263W        W40331   0.655  34.954   3.749
67264W        W40332  38.010  43.525   3.299
67265W        W40333  21.636  40.845  11.973
67266W        W40334  35.102  37.777  11.084
67267W        W40335   3.884  16.060  12.548
67268W        W40336   8.773  30.529   4.122
67269W        W40337  27.290  44.095  11.661
67270W        W40338  13.121   8.214   4.547
67271W        W40339  22.645  25.907   1.757
67272W        W40340   1.507  30.112   2.782
67273W        W40341   5.172  29.167   1.854
67274W        W40342  39.946   5.324   2.679
67275W        W40343  17.367  12.889   2.547
67276W        W40344  30.228   0.289   4.619
67277W        W40345   6.282  42.896  10.041
67278W        W40346  13.348  40.063  14.875
67279W        W40347  10.983  15.735  13.454
67280W        W40348  33.009   2.540  11.612
67281W        W40349  31.887  21.050  11.700
67282W        W40350  30.433   7.095   1.844
67283W        W40351   1.330  20.109  12.979
67284W        W40352  17.668  14.297   2.709
67285W        W40353  43.445   5.705   1.582
67286W        W40354  10.196  11.216   2.881
67287W        W40355  40.413  11.392  13.416
67288W        W40356  10.187   6.380   0.343
67289W        W40357   3.881  30.471   4.047
67290W        W40358   2.745  28.654   0.364
67291W        W40359  35.463  38.243  11.665
67292W        W40360   3.187  34.010   0.404
67293W        W40361  21.302  21.626  10.978
67294W        W40362   8.849  19.040  14.868
67295W        W40363  37.600   1.321   3.655
67296W        W40364  41.716  39.984  13.075
67297W        W40365   6.302  25.409  14.445
67298W        W40366  25.948  36.594  11.452
67299W        W40367  35.995  20.188   2.822
67300W        W40368  16.632   5.445  13.744
67301W        W40369  17.301   8.736   3.220
67302W        W40370  43.550  21.984   3.722
67303W        W40371   8.136  24.536  12.502
67304W        W40372  11.888  37.279  14.914
67305W        W40373  18.738   0.154  13.301
67306W        W40374  20.473  11.037  11.113
67307W        W40375  37.399   7.313  12.717
67308W        W40376  21.463   4.550   0.940
67309W        W40377  32.597  42.217   4.633
67310W        W40378  21.631  24.982   1.831
67311W        W40379  33.505  36.741   0.718
67312W        W40380  42.518  21.059   0.272
67313W        W40381  36.232  17.668   2.347
67314W        W40382  40.451  37.785  13.433
67315W        W40383  32.644  24.534  12.434
67316W        W40384   0.225  11.835   4.059
67317W        W40385  42.851  34.915   5.072
67318W        W40386  16.483  38.001  10.585
67319W        W40387  14.366   8.893   4.866
67320W        W40388  14.856   0.738  12.149
67321W        W40389  36.316  15.407   3.989
67322W        W40390   6.775  16.645  11.225
67323W        W40391  44.429  20.972   3.098
67324W        W40392  41.780   5.039   2.718
67325W        W40393   1.310   3.356  11.132
67326W        W40394  19.070   8.818  11.175
67327W        W40395   3.894  43.282  10.676
67328W        W40396  33.630   3.170  13.044
67329W        W40397  43.259  27.974   4.142
67330W        W40398  32.676  31.639  14.330
67331W        W40399  40.921  42.608   4.970
67332W        W40400  31.646  24.635   1.461
67333W        W40401   4.943  12.871  12.542
67334W        W40402  40.502  21.788   3.148
67335W        W40403   6.242  28.371   0.299
67336W        W40404  12.189  18.576   3.407
67337W        W40405  41.369   7.453   0.319
67338W        W40406   2.746  14.955   4.872
67339W        W40407  39.445   2.920   0.993
67340W        W40408  39.482  39.868   3.251
67341W        W40409   2.991  24.584  12.876
67342W        W40410  13.083  31.457   1.945
67343W        W40411  37.549   2.390   2.851
67344W        W40412  29.966  17.611   2.788
67345W        W40413  23.055  12.348  14.855
67346W        W40414  28.233   1.705  11.522
67347W        W40415  30.661  15.698  12.507
67348W        W40416  18.354  20.684  11.742
67349W        W40417  43.548   4.240   0.779
67350W        W40418  31.813  12.207   1.186
67351W        W40419  12.855   5.235  14.910
67352W        W40420   2.210   5.313  13.768
67353W        W40421  18.709  43.004   3.353
67354W        W40422  43.532  16.696  11.301
67355W        W40423  36.522  35.786   0.677
67356W        W40424  33.867   4.943  14.189
67357W        W40425   1.710  38.074  13.291
67358W        W40426   9.771  39.634   0.422
67359W        W40427  23.274   9.254   4.796
67360W        W40428   6.216  21.793  12.521
67361W        W40429  22.579  36.461  13.856
67362W        W40430  30.475  17.651   0.793
67363W        W40431  34.524  41.249  11.631
67364W        W40432  44.973  39.139   3.102
67365W        W40433  36.764  12.900   4.995
67366W        W40434  35.414  35.095   2.736
67367W        W40435   6.637  24.731  11.136
67368W        W40436  38.610  18.364  12.552
67369W        W40437  44.441  37.916  11.485
67370W        W40438  37.527  33.604  11.120
67371W        W40439  34.226  18.086  11.391
67372W        W40440  30.611  34.314   3.159
67373W        W40441   2.227  26.342  12.106
67374W        W40442  14.682  29.516   0.117
67375W        W40443  34.119  39.655   2.269
67376W        W40444  16.411   7.898   0.958
67377W        W40445  27.618  23.849  13.632
67378W        W40446  28.608   9.409  14.484
67379W        W40447   0.356   2.777  13.497
67380W        W40448   5.835  38.040  12.370
67381W        W40449   3.128  14.905  13.058
67382W        W40450   1.968  40.286  11.556
67383W        W40451   9.265   7.723  10.544
67384W        W40452   9.916  44.039  11.381
67385W        W40453  43.505  43.959  14.342
67386W        W40454  21.587  38.981   2.720
67387W        W40455  11.254  20.299  10.470
67388W        W40456  25.179  30.122  14.334
67389W        W40457   9.624  34.461  14.435
67390W        W40458  28.111  22.468   5.200
67391W        W40459   7.654  10.023  13.103
67392W        W40460  41.969  35.231   2.759
67393W        W40461  26.288  17.089   4.834
67394W        W40462   6.276   5.414   4.141
67395W        W40463  32.493  34.917   0.432
67396W        W40464  39.935   2.854  13.912
67397W        W40465  35.431  42.237   4.099
67398W        W40466  31.163  39.224  11.960
67399W        W40467  21.758   9.386  10.743
67400W        W40468  37.008   8.421  14.251
67401W        W40469  13.523   3.990   1.392
67402W        W40470  33.476   4.863   1.124
67403W        W40471  17.193  10.968   2.694
67404W        W40472   8.667  42.419   0.189
67405W        W40473  38.545  35.060  10.550
67406W        W40474   0.955  24.176  12.693
67407W        W40475  26.512  31.758  14.057
67408W        W40476  31.615  44.046   1.315
67409W        W40477  13.564  28.840   4.550
67410W        W40478  32.365   3.581  12.657
67411W        W40479  18.767  13.747  11.191
67412W        W40480  27.337  18.744   3.809
67413W        W40481  27.694   6.007   3.575
67414W        W40482  41.940  21.776  13.021
67415W        W40483  33.632  30.864  13.017
67416W        W40484  20.495  11.825  11.655
67417W        W40485  17.635  27.009   1.375
67418W        W40486   9.171   6.784  12.931
67419W        W40487  23.517  32.541   3.649
67420W        W40488  23.086   8.728  12.464
67421W        W40489  44.180  31.843   0.858
67422W        W40490  24.210  28.607   1.470
67423W        W40491  30.395   3.839  14.508
67424W        W40492   2.307   0.529   1.881
67425W        W40493   6.661  18.381  13.038
67426W        W40494  22.499  18.780   3.714
67427W        W40495  37.965   7.948  11.113
67428W        W40496  36.386  38.436  10.763
67429W        W40497  18.789   8.299  11.670
67430W        W40498  14.079   9.957   1.700
67431W        W40499  33.073  13.249  14.962
67432W        W40500  36.075  18.148   1.680
67433W        W40501  43.765   3.392  12.074
67434W        W40502   7.378  35.895   4.062
67435W        W40503  28.414   2.914  12.807
67436W        W40504  10.655  22.637   4.730
67437W        W40505  37.389  28.567  13.849
67438W        W40506  38.098  30.206   3.891
67439W        W40507  32.162  16.842   4.736
67440W        W40508   7.444  39.560  11.484
67441W        W40509  25.530   1.792   0.442
67442W        W40510  12.609  21.547  14.918
67443W        W40511   6.688  31.462  12.211
67444W        W40512   9.347  13.370   0.981
67445W        W40513  28.972  26.120  10.602
67446W        W40514  18.707  28.079   1.193
67447W        W40515  24.365  24.032  14.668
67448W        W40516  34.969  42.024  11.630
67449W        W40517  27.221  24.992   0.021
67450W        W40518   9.899  19.841  11.940
67451W        W40519  26.051  18.869  13.383
67452W        W40520  17.433   4.972   3.198
67453W        W40521   6.100   9.406   4.258
67454W        W40522  15.973  34.913   0.288
67455W        W40523  20.981  17.126  12.038
67456W        W40524  15.677   5.658  12.325
67457W        W40525  25.277  40.968  13.503
67458W        W40526  38.283  23.731  14.791
67459W        W40527  37.942   7.852   4.643
67460W        W40528  41.708  42.973   4.690
67461W        W40529  19.349   6.179   2.375
67462W        W40530  25.121  41.803   4.149
67463W        W40531  16.768  27.066  10.674
67464W        W40532   6.295  44.266  12.960
67465W        W40533  27.499   8.175  12.842
67466W        W40534  12.381  14.261  12.039
67467W        W40535  35.956  39.313  14.511
67468W        W40536  19.185  40.029   4.828
67469W        W40537  32.308   0.686   0.951
67470W        W40538   9.450  11.798   4.445
67471W        W40539  17.591  18.550  11.189
67472W        W40540   5.252   6.956  10.418
67473W        W40541  31.984  37.547  14.783
67474W        W40542   1.959  27.719   3.649
67475W        W40543  28.555  27.492   1.883
67476W        W40544  43.483   2.199   1.868
67477W        W40545  13.727  36.837  11.636
67478W        W40546  38.819   3.904  11.507
67479W        W40547  27.251  43.281   1.523
67480W        W40548  42.804   3.211  14.778
67481W        W40549  44.736  39.354   1.856
67482W        W40550   4.879  38.048  14.235
67483W        W40551   7.456  39.156  13.938
67484W        W40552  32.628   2.074   0.504
67485W        W40553  28.984  12.331   3.098
67486W        W40554  33.442  10.833   0.790
67487W        W40555   5.971  29.395  14.143
67488W        W40556  16.024  13.226  11.691
67489W        W40557  35.852  20.669   2.680
67490W        W40558  43.879  41.405   0.445
67491W        W40559  29.507  11.672   4.531
67492W        W40560   1.903   8.126   2.150
67493W        W40561  40.303  41.760  13.827
67494W        W40562   1.989   2.835   3.334
67495W        W40563  29.065  21.912   2.362
67496W        W40564   3.468  18.045   0.301
67497W        W40565  29.874  21.666   2.000
67498W        W40566  23.339   7.997  11.683
67499W        W40567  22.200  29.348   4.266
67500W        W40568  41.713  25.666  11.109
67501W        W40569   5.447   6.793   4.856
67502W        W40570  19.874  28.231  13.938
67503W        W40571  19.618  43.439  10.503
67504W        W40572   6.793  21.250   1.060
67505W        W40573   1.578  42.806  11.593
67506W        W40574  34.129  31.760  12.865
67507W        W40575   3.357   7.943  11.975
67508W        W40576  41.560   4.125   5.023
67509W        W40577  34.998   8.381   2.024
67510W        W40578  44.417  27.513   4.360
67511W        W40579  25.701  31.517   4.462
67512W        W40580   4.885  38.342  12.796
67513W        W40581  38.086  34.098   1.300
67514W        W40582  36.133  34.117   1.303
67515W        W40583  20.648  24.442   1.704
67516W        W40584   5.956  27.522   2.864
67517W        W40585  12.516  32.950   4.405
67518W        W40586  22.477  17.597  10.386
67519W        W40587  25.143  39.426  12.468
67520W        W40588  11.623  42.275   1.750
67521W        W40589  28.981  24.920  14.237
67522W        W40590  39.461  28.251  11.566
67523W        W40591   5.300  31.457   4.930
67524W        W40592  26.649  26.200   2.369
67525W        W40593  32.756  24.156  14.048
67526W        W40594  23.516  16.854   4.454
67527W        W40595  20.487  13.186  12.691
67528W        W40596   8.906  38.452  10.326
67529W        W40597  40.294  21.070   4.135
67530W        W40598  19.229  33.657   3.217
67531W        W40599  40.242  33.397  14.924
67532W        W40600  34.088  30.343   1.868
67533W        W40601  13.107   2.441   2.162
67534W        W40602  23.054   7.734   4.793
67535W        W40603  28.136  22.993  13.928
67536W        W40604  27.274  13.157   4.326
67537W        W40605   5.810  31.354   3.044
67538W        W40606  34.361  16.847   2.688
67539W        W40607  36.458   2.432  14.470
67540W        W40608   2.210  27.961  10.724
67541W        W40609  14.369  26.959  12.969
67542W        W40610  28.427   0.730   2.732
67543W        W40611  10.374  30.514   0.048
67544W        W40612   7.431  41.488  14.516
67545W        W40613  28.443  35.320   3.163
67546W        W40614  34.965  27.732  10.790
67547W        W40615  41.276  28.365  12.008
67548W        W40616  11.075  35.622   3.029
67549W        W40617  13.075  41.796  11.244
67550W        W40618   9.414  17.752  12.043
67551W        W40619  36.273   5.723   3.845
67552W        W40620   3.308  23.276   1.727
67553W        W40621  11.795  38.685   2.300
67554W        W40622   5.213  13.409   3.108
67555W        W40623   8.165  22.614   4.857
67556W        W40624  22.169  19.694   4.733
67557W        W40625   1.270  30.619   1.344
67558W        W40626   0.548  11.427   1.574
67559W        W40627   4.618  41.380  12.401
67560W        W40628   0.063  36.869   1.866
67561W        W40629  23.186   0.198   0.933
67562W        W40630  41.790   7.653   3.301
67563W        W40631  20.077   3.099  11.556
67564W        W40632  16.580  41.734   0.499
67565W        W40633  21.962  41.924   0.455
67566W        W40634   1.467   4.483  10.704
67567W        W40635  43.395  31.650  12.093
67568W        W40636  21.393  11.721   4.178
67569W        W40637   2.051   2.013  13.548
67570W        W40638  34.874  36.123   4.141
67571W        W40639  43.927   6.369  11.181
67572W        W40640  12.323  36.422   3.621
67573W        W40641  38.535   0.486   0.407
67574W        W40642  10.081  20.459   0.339
67575W        W40643   0.872   2.454  11.456
67576W        W40644  21.175  37.676  11.998
67577W        W40645  12.882   2.936   0.281
67578W        W40646  23.595  37.647   2.843
67579W        W40647  31.886  20.160  11.112
67580W        W40648  37.823  36.261  14.955
67581W        W40649   6.910  31.567   2.286
67582W        W40650  42.026  44.840  14.217
67583W        W40651  20.368  24.935   1.230
67584W        W40652   2.946  19.336   5.016
67585W        W40653   0.792  30.043  14.593
67586W        W40654  28.108   1.307  10.502
67587W        W40655  18.975  17.261   4.125
67588W        W40656  19.585  34.528   0.285
67589W        W40657  10.112  27.049   1.428
67590W        W40658  42.199  23.609   3.790
67591W        W40659  12.722  40.970  11.287
67592W        W40660  36.878  25.874   3.073
67593W        W40661   2.400  36.383  13.142
67594W        W40662   2.364  28.662   2.563
67595W        W40663  21.016  32.552  10.648
67596W        W40664   3.188  43.814   0.333
67597W        W40665   1.271   8.364  10.698
67598W        W40666  29.900   3.966  13.795
67599W        W40667   4.473  38.053  12.638
67600W        W40668  39.308   1.781   1.312
67601W        W40669   7.457  44.986  13.617
67602W        W40670  38.786  33.557   1.347
67603W        W40671   3.089  25.060   0.979
67604W        W40672  43.202  42.470   0.129
67605W        W40673   4.831   3.871  12.094
67606W        W40674  21.346  43.559   4.169
67607W        W40675   4.426  43.775  12.637
67608W        W40676  42.523  39.533   4.518
67609W        W40677   6.372  11.077   0.948
67610W        W40678  14.065   1.300   3.183
67611W        W40679  20.777  40.601   0.418
67612W        W40680  36.996  12.643  11.605
67613W        W40681   5.939  17.586   4.591
67614W        W40682  29.831  44.952  12.148
67615W        W40683  29.844   0.461  12.948
67616W        W40684  12.174  19.461  10.047
67617W        W40685  28.779  21.979   3.612
67618W        W40686  28.067  44.689  10.768
67619W        W40687   1.644   4.741  12.991
67620W        W40688  40.810  15.602  14.503
67621W        W40689  15.378  11.903  12.535
67622W        W40690  34.180   4.175  13.876
67623W        W40691  32.024  35.778  10.526
67624W        W40692  42.904   9.958  12.907
67625W        W40693  37.834  21.015   0.047
67626W        W40694  41.672   4.124  13.970
67627W        W40695  18.169  29.982  12.982
67628W        W40696  35.127  31.808   0.392
67629W        W40697  12.497  41.939   3.247
67630W        W40698  11.736  11.223   0.543
67631W        W40699  18.240  19.783  13.878
67632W        W40700  16.686  43.711   0.275
67633W        W40701  43.202  11.968  11.643
67634W        W40702   9.324   9.706  13.107
67635W        W40703   5.898  27.517  13.380
67636W        W40704  42.738  21.612  14.448
67637W        W40705  17.177   8.633  10.621
67638W        W40706  28.103  18.887   2.721
67639W        W40707  35.892  25.724  12.537
67640W        W40708  43.562  13.518  12.425
67641W        W40709  17.114  15.820   4.953
67642W        W40710  44.412  13.871   2.175
67643W        W40711   2.755  34.482   0.289
67644W        W40712  18.796  31.979   0.748
67645W        W40713  35.886  25.212  11.435
67646W        W40714  27.082   3.888  13.050
67647W        W40715  24.096  42.738   0.850
67648W        W40716  39.875  37.852   0.286
67649W        W40717  13.750  38.629   1.788
67650W        W40718  11.605  41.553   0.028
67651W        W40719  26.306  12.076  10.553
67652W        W40720  38.512   1.679   3.713
67653W        W40721  24.017  35.504  10.387
67654W        W40722  20.176  43.870   2.957
67655W        W40723  28.292  11.472   3.750
67656W        W40724  15.440  37.855  11.812
67657W        W40725   4.764  31.260   4.728
67658W        W40726  17.981  43.068  13.874
67659W        W40727  40.445   4.215   1.255
67660W        W40728  41.463   2.294   4.721
67661W        W40729  34.142   6.635   2.937
67662W        W40730  40.557  32.621   0.370
67663W        W40731  43.857   0.331   3.139
67664W        W40732  19.664  13.464  10.482
67665W        W40733  35.040   0.781   4.430
67666W        W40734  41.056   5.718   2.819
67667W        W40735  12.657   3.411   4.772
67668W        W40736   4.522  22.183  14.459
67669W        W40737  31.115   4.939  14.448
67670W        W40738   6.851  38.113   4.192
67671W        W40739   0.798   1.165   0.339
67672W        W40740  15.347  36.616  12.617
67673W        W40741   1.297   3.564   3.158
67674W        W40742  11.818  43.853   4.067
67675W        W40743   8.497  35.212  11.964
67676W        W40744  21.318  39.851  10.712
67677W        W40745   1.329  35.864  13.865
67678W        W40746  32.920  29.998  11.390
67679W        W40747   1.399  28.390   3.752
67680W        W40748  11.138   0.359   3.917
67681W        W40749  12.374  39.740  13.918
67682W        W40750  37.871  13.240  14.414
67683W        W40751  17.826  35.084  10.739
67684W        W40752  31.195  16.650   0.458
67685W        W40753  20.091  32.924  12.549
67686W        W40754   5.559  10.854   4.123
67687W        W40755   2.681  24.361  11.670
67688W        W40756  19.383   8.825   3.896
67689W        W40757   7.753  35.073   5.019
67690W        W40758  28.130  10.824  14.485
67691W        W40759  15.540  28.110   3.193
67692W        W40760  28.237  21.662  13.577
67693W        W40761  11.113   8.707  12.574
67694W        W40762  34.465   2.938  13.027
67695W        W40763   6.890  23.260  13.974
67696W        W40764  30.923  17.381   0.907
67697W        W40765  44.467  34.854  11.161
67698W        W40766  23.073  39.920  12.905
67699W        W40767  33.588  28.648   2.156
67700W        W40768  14.324  30.584   1.273
67701W        W40769  23.171  24.376  14.904
67702W        W40770  39.996  14.492  10.336
67703W        W40771  13.319  42.902   3.266
67704W        W40772  24.475   9.129  14.333
67705W        W40773  29.720  36.007   0.936
67706W        W40774  12.211  33.828  11.824
67707W        W40775  44.330   2.990  11.505
67708W        W40776  11.126  32.515   4.216
67709W        W40777  15.852   4.367   1.374
67710W        W40778  15.270  29.598  14.486
67711W        W40779   4.338  43.558  14.429
67712W        W40780  40.486   6.618  11.511
67713W        W40781   7.140   2.803   0.452
67714W        W40782  36.386  30.903  13.369
67715W        W40783   8.838  40.280   0.255
67716W        W40784  11.706   1.338   4.769
67717W        W40785  35.809  36.479  12.247
67718W        W40786  39.312  18.819   0.713
67719W        W40787   9.172  37.046  13.395
67720W        W40788  27.506  37.681   3.927
67721W        W40789   3.023  43.206  12.112
67722W        W40790  33.613  28.725  12.393
67723W        W40791  18.276  18.205   4.458
67724W        W40792  40.844  19.377  14.291
67725W        W40793  44.739  24.291   4.959
67726W        W40794   5.811  23.714  14.719
67727W        W40795   3.706  41.357  12.398
67728W        W40796  36.686  37.612  12.664
67729W        W40797   5.691   6.797  14.014
67730W        W40798  32.091  28.614  11.642
67731W        W40799  14.722  27.372  13.447
67732W        W40800  24.277  25.150  12.883
67733W        W40801  15.746  11.816   0.256
67734W        W40802  34.715  14.697   3.546
67735W        W40803  16.086  33.158   1.858
67736W        W40804  27.979  15.070   4.134
67737W        W40805  14.247   5.416   0.932
67738W        W40806  19.411  37.413   3.458
67739W        W40807  31.625  26.226   2.806
67740W        W40808   7.865  18.538   1.718
67741W        W40809   8.680  32.399  13.094
67742W        W40810   5.886  22.268   1.353
67743W        W40811  22.061  10.423   1.331
67744W        W40812  42.732   2.147  14.067
67745W        W40813  26.240  30.612  13.853
67746W        W40814  19.146  25.880  14.774
67747W        W40815  35.129  31.179  13.851
67748W        W40816  41.762  16.769  13.407
67749W        W40817  19.850   8.776   1.959
67750W        W40818  22.649  36.908  10.523
67751W        W40819  40.122  15.162  11.564
67752W        W40820  38.987   8.030  12.466
67753W        W40821  10.837  27.171  14.324
67754W        W40822   1.667   9.132   4.169
67755W        W40823  25.999  42.957   0.298
67756W        W40824   7.994  26.133  14.744
67757W        W40825  28.820  33.550  10.834
67758W        W40826   0.390  41.970   0.710
67759W        W40827  25.958  35.037   0.926
67760W        W40828  26.208  41.961  14.120
67761W        W40829  39.278   4.808   2.453
67762W        W40830   6.634  30.988   4.670
67763W        W40831  40.347  40.153  10.689
67764W        W40832  23.686  35.885  14.842
67765W        W40833  13.417  30.465   2.973
67766W        W40834  13.204  29.034  12.108
67767W        W40835  29.157  31.428  13.364
67768W        W40836  18.361  24.437   4.032
67769W        W40837  16.587  28.243  11.113
67770W        W40838  34.682  18.105  11.600
67771W        W40839  14.663   4.009   1.019
67772W        W40840   9.086  43.591   3.740
67773W        W40841  19.957  26.739  12.644
67774W        W40842   0.144  12.341   4.226
67775W        W40843   3.829  33.539   1.029
67776W        W40844  26.685  29.943  14.304
67777W        W40845   9.849  14.714  14.255
67778W        W40846  23.553  21.895  13.316
67779W        W40847  33.992  36.881   1.847
67780W        W40848  36.822   8.905  14.440
67781W        W40849  16.495  13.798  14.928
67782W        W40850  21.047  36.004   1.742
67783W        W40851  39.311  41.604  11.170
67784W        W40852   3.504  34.330  13.002
67785W        W40853   3.817  43.791  10.611
67786W        W40854   6.521  26.689   3.099
67787W        W40855   2.754  13.242   2.304
67788W        W40856  42.826  36.833   1.854
67789W        W40857  20.987  29.391   3.757
67790W        W40858  11.457   0.935  13.987
67791W        W40859  12.604  39.837  13.454
67792W        W40860  14.314  10.147   0.540
67793W        W40861  36.754  22.824  14.492
67794W        W40862  31.067   3.177  12.961
67795W        W40863   1.507  37.456  11.547
67796W        W40864  11.805  13.189  14.906
67797W        W40865  42.439   6.491  13.628
67798W        W40866  44.203   9.628  11.963
67799W        W40867  20.478   8.832   5.036
67800W        W40868  23.128  38.817   2.294
67801W        W40869  17.565  10.803  13.042
67802W        W40870  37.305   6.950   0.461
67803W        W40871  16.288   5.434  11.008
67804W        W40872  34.072  43.855  11.037
67805W        W40873  18.913   3.818   5.003
67806W        W40874  23.658  10.292   4.774
67807W        W40875  25.916   9.863   0.966
67808W        W40876  27.534   2.917   4.570
67809W        W40877  11.270   9.073  11.127
67810W        W40878  34.421   2.019  14.434
67811W        W40879  12.409  15.507  13.579
67812W        W40880  36.463   4.119   3.073
67813W        W40881  11.865  29.487   3.741
67814W        W40882  32.376  41.378  14.340
67815W        W40883   1.871  22.071  11.487
67816W        W40884  31.134  11.628   3.872
67817W        W40885   5.838  37.804  14.916
67818W        W40886   8.730  12.805  13.859
67819W        W40887  29.457  27.921  12.488
67820W        W40888  14.992   5.380   4.116
67821W        W40889   8.553   4.991   0.445
67822W        W40890  17.249  33.997  12.487
67823W        W40891  28.187  32.081   0.213
67824W        W40892  17.792  24.405  13.361
67825W        W40893  43.521  37.989  13.257
67826W        W40894  15.324   5.198   3.734
67827W        W40895   8.141   6.862   3.654
67828W        W40896  20.101   4.278   0.938
67829W        W40897  43.515  10.097   0.353
67830W        W40898  39.919  31.914  12.332
67831W        W40899  41.835  35.047  14.973
67832W        W40900  16.911  19.897   9.891
67833W        W40901   0.846   2.821  11.811
67834W        W40902  10.782  30.825   2.434
67835W        W40903  27.000  24.142  10.697
67836W        W40904  25.572  43.786   1.222
67837W        W40905   0.978  23.598   1.949
67838W        W40906  32.636  12.577  14.316
67839W        W40907   6.717  25.543  10.711
67840W        W40908   5.993  29.452   3.211
67841W        W40909  15.299   2.200   1.946
67842W        W40910  20.293  18.753   0.470
67843W        W40911   5.535  16.496   0.053
67844W        W40912  35.175  27.300  12.595
67845W        W40913  18.621  43.575  14.313
67846W        W40914  41.922  17.979   2.710
67847W        W40915  43.478  35.816   4.494
67848W        W40916  36.626  43.944   4.882
67849W        W40917  26.129  15.806  14.087
67850W        W40918  23.659   0.175   1.428
67851W        W40919  42.708  14.205  12.251
67852W        W40920  30.864  15.490   2.291
67853W        W40921  15.615  12.890   1.765
67854W        W40922  36.996  16.605   2.289
67855W        W40923  30.390  16.543  11.654
67856W        W40924  29.206  22.769   1.353
67857W        W40925  44.816  32.912   4.861
67858W        W40926  22.132   8.863  13.518
67859W        W40927  42.856   9.434   3.578
67860W        W40928   6.260  15.767  13.930
67861W        W40929   5.676  22.239  13.584
67862W        W40930  40.929  42.063   0.560
67863W        W40931  14.633  14.884  14.416
67864W        W40932  25.532   9.419   4.598
67865W        W40933  42.520   3.348   5.134
67866W        W40934  26.578  29.136   4.762
67867W        W40935  38.025  22.650  10.691
67868W        W40936  27.621  10.252  14.737
67869W        W40937  27.664  24.600   1.681
67870W        W40938  32.885  40.347  14.048
67871W        W40939  30.219  13.096   4.299
67872W        W40940  18.337   0.933   2.031
67873W        W40941  36.435  10.809   4.666
67874W        W40942  32.846  31.451   1.382
67875W        W40943  19.255  43.838   4.274
67876W        W40944  42.244  20.107  14.285
67877W        W40945  25.704  14.288   2.352
67878W        W40946   9.640  10.631   4.180
67879W        W40947   8.628  36.815   3.923
67880W        W40948  43.327  19.731  14.843
67881W        W40949  12.767  36.803  12.824
67882W        W40950   7.724   8.425   0.029
67883W        W40951  33.350   6.412  12.484
67884W        W40952  35.411  37.917  12.066
67885W        W40953  39.859  29.649  10.678
67886W        W40954   1.406  23.438   1.697
67887W        W40955  18.866  33.664  10.609
67888W        W40956  33.484  32.434   2.693
67889W        W40957  25.673  27.234  14.355
67890W        W40958  35.894  44.429   0.007
67891W        W40959  43.491  16.274   4.569
67892W        W40960  31.532  23.293  14.135
67893W        W40961   3.296  31.446   1.784
67894W        W40962  17.749  31.558  14.258
67895W        W40963  14.412  20.873  11.371
67896W        W40964   3.963  24.456   4.273
67897W        W40965  35.024  14.148  10.367
67898W        W40966  19.711  30.442   3.873
67899W        W40967  33.020   3.484   3.524
67900W        W40968   9.667   6.246   2.270
67901W        W40969  30.012  22.683  12.179
67902W        W40970  39.366  16.766   4.583
67903W        W40971  31.862  19.484   3.173
67904W        W40972   1.691  38.978  10.130
67905W        W40973   9.848  22.108   2.728
67906W        W40974  30.456  33.116   3.747
67907W        W40975  15.612   6.115   0.901
67908W        W40976  29.891  40.570   1.772
67909W        W40977   5.170  41.419  12.390
67910W        W40978   4.415   8.267   1.097
67911W        W40979  10.629   4.548  13.053
67912W        W40980  40.515  20.028   1.256
67913W        W40981  43.122  32.389   3.898
67914W        W40982  36.985  15.904  12.432
67915W        W40983  28.677  19.592  10.757
67916W        W40984  12.199  30.630   3.184
67917W        W40985  18.436  36.076  11.977
67918W        W40986  34.281  30.432  11.398
67919W        W40987  26.432  15.235   0.350
67920W        W40988  21.759  11.345   1.465
67921W        W40989  38.615  28.003  13.886
67922W        W40990  43.454  31.186  12.959
67923W        W40991  19.132  19.731  13.990
67924W        W40992  19.871  32.122   3.304
67925W        W40993  22.312  39.060  10.604
67926W        W40994   6.099  19.704   5.057
67927W        W40995   5.064  11.375   3.871
67928W        W40996  21.136   5.179  10.826
67929W        W40997  26.110  12.090   4.303
67930W        W40998  16.703   5.184  11.502
67931W        W40999  41.800   2.290   3.045
67932W        W41000  11.069  27.412   1.360
67933W        W41001  27.130   5.846   3.086
67934W        W41002  38.459  19.990  11.203
67935W        W41003   6.648  24.480  10.683
67936W        W41004  43.178  10.194  13.840
67937W        W41005   3.360  30.907   1.866
67938W        W41006  42.989   3.051   2.168
67939W        W41007  27.167  44.401  13.013
67940W        W41008   5.676  16.848   1.366
67941W        W41009  35.921  44.944   1.779
67942W        W41010  37.102  35.619   0.824
67943W        W41011  42.856  30.428   4.695
67944W        W41012  36.914  19.230  12.568
67945W        W41013  22.575  41.228  11.842
67946W        W41014  33.067  35.769   2.447
67947W        W41015  30.537  33.770  12.507
67948W        W41016  12.317   1.756   1.998
67949W        W41017   7.037   7.978   2.910
67950W        W41018  31.588  43.824   3.034
67951W        W41019  36.097  25.417  13.876
67952W        W41020  30.704  31.406   0.399
67953W        W41021  24.621   4.335   0.978
67954W        W41022  43.207   2.863  11.078
67955W        W41023  36.989  35.693  14.993
67956W        W41024  24.027   4.510   3.293
67957W        W41025  29.520  17.187  14.231
67958W        W41026  11.188  30.146   0.437
67959W        W41027  26.462  24.000   4.996
67960W        W41028  28.741  10.597   4.989
67961W        W41029   6.711  20.254   3.232
67962W        W41030  22.951   6.358   3.761
67963W        W41031  14.658   9.871  11.163
67964W        W41032  44.023  34.693  10.934
67965W        W41033  24.968  22.737   4.653
67966W        W41034   4.937  29.966  10.804
67967W        W41035  28.694  27.047  12.933
67968W        W41036   6.851  35.090  13.175
67969W        W41037  25.024  12.852  11.079
67970W        W41038  25.963   4.448   0.278
67971W        W41039  21.146  26.772  12.145
67972W        W41040   0.113   1.346   4.781
67973W        W41041  20.746  28.645  11.299
67974W        W41042  27.919  10.678   3.288
67975W        W41043  30.728  32.594   1.301
67976W        W41044  31.344  13.062  11.591
67977W        W41045  22.536  12.390   1.843
67978W        W41046  29.994   9.348   3.162
67979W        W41047  38.419  36.955   3.935
67980W        W41048  30.961   2.254   4.146
67981W        W41049  34.510  35.004  12.653
67982W        W41050  20.753  30.458   4.141
67983W        W41051  10.768  17.607  11.173
67984W        W41052  19.628  19.117  14.651
67985W        W41053   5.834   8.600   0.752
67986W        W41054   4.360   1.194   0.757
67987W        W41055  18.793  39.097  11.090
67988W        W41056  22.101  10.452   0.036
67989W        W41057  25.968  14.481  12.035
67990W        W41058  43.827  36.991  10.670
67991W        W41059   1.905  39.338   2.336
67992W        W41060  18.766  36.517  13.389
67993W        W41061  28.025   0.567  13.710
67994W        W41062  25.270  19.227   0.698
67995W        W41063  29.123  27.819   4.301
67996W        W41064  22.076   6.785  10.829
67997W        W41065  43.011   1.910   0.883
67998W        W41066  18.309  25.441   0.807
67999W        W41067   2.967  36.917  11.139
68000W        W41068  34.105   0.022   3.648
68001W        W41069  34.980  12.254  10.684
68002W        W41070  20.863   9.762  10.540
68003W        W41071  30.516  13.981   2.202
68004W        W41072  17.144  19.751   2.690
68005W        W41073  28.665  38.534  14.627
68006W        W41074  13.081  27.172  11.610
68007W        W41075  12.284  42.757   3.345
68008W        W41076  10.817  17.360   3.623
68009W        W41077  21.663  11.514  10.533
68010W        W41078  31.150  23.931  11.041
68011W        W41079   2.510  23.584   3.715
68012W        W41080  31.136   3.584   3.121
68013W        W41081   2.935   2.997   0.863
68014W        W41082  15.556  27.551   4.104
68015W        W41083  11.074   5.980   4.104
68016W        W41084  21.905   8.825   4.476
68017W        W41085  25.512  21.328   4.175
68018W        W41086  12.815   0.311  11.919
68019W        W41087  44.459  35.663  10.648
68020W        W41088  33.833  30.658  13.887
68021W        W41089  36.535  42.475  12.964
68022W        W41090  25.140  21.969  13.766
68023W        W41091   4.153  13.628  11.140
68024W        W41092   6.323   2.382  12.586
68025W        W41093   8.267  30.147  14.372
68026W        W41094  22.058  35.512   2.763
68027W        W41095  19.480  25.467  13.950
68028W        W41096  15.180   9.798   3.171
68029W        W41097  35.951  37.742   4.300
68030W        W41098  15.613  26.646  11.561
68031W        W41099   6.297  12.029   1.888
68032W        W41100  21.742   2.254  13.944
68033W        W41101  17.779  31.032   4.461
68034W        W41102  20.262  30.425  10.616
68035W        W41103  29.150   7.850   3.082
68036W        W41104  15.509  27.222  13.343
68037W        W41105   3.685   7.708   1.298
68038W        W41106  21.128   8.323   4.547
68039W        W41107   9.670  31.305  14.290
68040W        W41108   0.840  16.839   0.368
68041W        W41109  31.367  40.792  12.878
68042W        W41110   0.618   2.495   0.500
68043W        W41111  10.744  24.422  13.830
68044W        W41112  37.338  38.322  11.520
68045W        W41113  24.125   3.481   2.513
68046W        W41114  24.243  16.417  13.967
68047W        W41115  40.135  34.152  12.319
68048W        W41116  20.986  32.016   4.435
68049W        W41117  24.246  11.745   3.240
68050W        W41118  15.725  31.192  14.732
68051W        W41119  30.107  24.721   2.674
68052W        W41120   9.187  18.561  11.375
68053W        W41121  37.563  43.282  13.684
68054W        W41122  41.846   9.411  11.283
68055W        W41123  43.448  22.730   3.183
68056W        W41124  35.130  32.939   1.103
68057W        W41125   8.250  24.087   0.398
68058W        W41126  25.213   1.889  11.645
68059W        W41127   4.548  41.795   3.000
68060W        W41128  14.372  14.852  12.472
68061W        W41129  29.147   0.974   3.576
68062W        W41130  19.810  25.517   1.752
68063W        W41131   0.794  15.678   4.687
68064W        W41132  44.266   6.886  11.653
68065W        W41133  26.006  33.253   0.033
68066W        W41134  33.453   3.735  14.608
68067W        W41135  12.291  10.867   0.671
68068W        W41136   8.632  32.132  10.990
68069W        W41137  35.037  44.295   4.989
68070W        W41138   6.961  19.463   2.799
68071W        W41139  30.174  37.439  13.549
68072W        W41140   3.763  39.103   4.174
68073W        W41141  27.532  31.611  14.363
68074W        W41142  23.199  16.879   2.047
68075W        W41143  43.784  26.376   0.043
68076W        W41144   9.319   5.285   2.154
68077W        W41145  37.456  36.879   4.362
68078W        W41146  37.903  34.107   2.690
68079W        W41147  30.576  44.976  13.312
68080W        W41148  18.642  22.234   3.930
68081W        W41149  11.397  41.866  13.477
68082W        W41150  41.419   9.435   0.055
68083W        W41151  17.979   6.920   1.689
68084W        W41152   2.836   9.229  12.616
68085W        W41153  28.623  31.421   2.656
68086W        W41154   2.271  10.687   1.286
68087W        W41155  20.630  21.154  13.559
68088W        W41156  34.600  26.665   0.935
68089W        W41157  19.780  23.636   4.727
68090W        W41158  42.557  24.562   3.313
68091W        W41159  26.077  11.331  12.919
68092W        W41160  30.962  12.752  13.968
68093W        W41161  28.869  35.566   2.253
68094W        W41162  28.667  40.123  11.691
68095W        W41163   9.185  29.213  12.590
68096W        W41164  10.831  20.145   1.518
68097W        W41165  17.626   3.730   1.381
68098W        W41166  24.387   3.789   1.213
68099W        W41167   9.676  27.916   1.747
68100W        W41168  43.504  10.472  10.772
68101W        W41169  17.045  42.772   3.732
68102W        W41170  27.728   2.278  13.848
68103W        W41171  28.133  21.685  14.151
68104W        W41172  33.749  31.797  13.393
68105W        W41173  17.686  36.658  12.554
68106W        W41174  34.029  29.036   0.752
68107W        W41175  33.420   3.451  12.158
68108W        W41176  10.100   4.932   3.208
68109W        W41177  16.422  33.981  10.799
68110W        W41178  18.995   4.426   2.281
68111W        W41179  41.576  21.438  11.181
68112W        W41180  36.517  43.764   4.260
68113W        W41181  41.865  19.107   0.820
68114W        W41182  24.007  35.394   4.571
68115W        W41183  25.866   1.030  10.782
68116W        W41184  23.897  15.077  13.414
68117W        W41185  43.861  41.485   1.505
68118W        W41186   0.007   5.364  14.403
68119W        W41187  40.423  18.071  10.688
68120W        W41188   2.291  12.163   3.236
68121W        W41189   5.899  24.257  13.475
68122W        W41190  32.908  13.073  12.961
68123W        W41191   2.684   3.294   2.666
68124W        W41192   7.890  10.990  13.952
68125W        W41193   1.429  17.982  12.444
68126W        W41194  26.221  28.247   1.777
68127W        W41195  22.673   1.009  13.379
68128W        W41196  11.855   6.158  13.710
68129W        W41197  12.249  23.517  14.159
68130W        W41198  16.994  39.849  14.768
68131W        W41199   9.827  21.463   0.252
68132W        W41200  18.524  37.336   3.234
68133W        W41201  37.908  31.063   1.384
68134W        W41202  25.357  25.571  11.419
68135W        W41203  37.878  35.353  14.423
68136W        W41204  37.293  44.974  14.969
68137W        W41205  25.736  36.070   4.435
68138W        W41206   1.467  23.109  13.299
68139W        W41207  30.100  17.276   3.278
68140W        W41208  13.612  42.866  14.499
68141W        W41209  25.712  15.233   1.668
68142W        W41210  31.072  39.271  10.713
68143W        W41211  17.426   3.329   1.947
68144W        W41212  44.496  19.514   1.148
68145W        W41213  32.612  10.009  12.012
68146W        W41214  28.057  21.132   2.413
68147W        W41215   2.396  29.985  13.428
68148W        W41216  41.123   4.213   1.677
68149W        W41217   7.042  41.029   4.977
68150W        W41218  37.155  31.541  12.072
68151W        W41219  34.338  14.343   4.179
68152W        W41220  26.287  34.556   0.170
68153W        W41221  28.670   4.181   1.217
68154W        W41222  19.230  24.153  12.836
68155W        W41223  36.824  35.140   2.350
68156W        W41224  43.493   6.940  14.375
68157W        W41225  28.168  12.252  10.631
68158W        W41226  12.615  17.201   0.881
68159W        W41227  20.755  15.778  14.928
68160W        W41228  39.835  30.597  12.993
68161W        W41229   7.274  31.716   0.313
68162W        W41230  20.316  42.865  11.069
68163W        W41231  19.371  19.394  11.197
68164W        W41232  37.114  41.366  13.735
68165W        W41233  29.029   9.806  13.956
68166W        W41234  15.811   8.183  11.505
68167W        W41235  14.641   5.487   0.567
68168W        W41236  13.173  27.768  10.662
68169W        W41237   0.321   6.870   2.955
68170W        W41238  43.846  24.519  13.771
68171W        W41239   1.725  36.424   4.190
68172W        W41240  30.055  11.752  13.800
68173W        W41241   6.469  17.694   1.991
68174W        W41242  37.759  36.664   2.811
68175W        W41243  36.213  13.130   0.747
68176W        W41244  10.247  23.415  10.707
68177W        W41245  11.367  36.440  14.910
68178W        W41246  23.003  15.547  10.538
68179W        W41247  23.029  21.879  12.173
68180W        W41248  18.754   2.273   2.887
68181W        W41249  26.126  18.757  14.363
68182W        W41250  31.871  23.123  13.782
68183W        W41251  37.422   5.648   2.977
68184W        W41252  36.464  12.055  14.913
68185W        W41253  15.103  37.601   2.480
68186W        W41254  15.174  27.770   1.904
68187W        W41255  35.583  18.179   0.773
68188W        W41256  22.937  14.530   0.853
68189W        W41257  36.070  24.413   2.611
68190W        W41258  30.549  27.385  14.097
68191W        W41259  25.736   3.268   0.064
68192W        W41260  25.937  24.910  13.941
68193W        W41261  17.121  33.570   4.956
68194W        W41262   9.209  40.006   2.394
68195W        W41263  14.086  41.915   0.408
68196W        W41264  32.595  31.872   2.772
68197W        W41265  14.613  14.336  12.113
68198W        W41266  22.645  20.218  11.084
68199W        W41267  37.650  24.775   4.616
68200W        W41268  25.832  25.682  11.586
68201W        W41269  41.053  23.804   2.292
68202W        W41270   4.514  32.707   4.292
68203W        W41271  24.691  24.876   1.938
68204W        W41272   2.353  10.611  11.514
68205W        W41273  33.098  39.898   4.550
68206W        W41274  38.269  44.903  10.184
68207W        W41275  33.103  30.096  14.925
68208W        W41276   0.762   9.355  11.402
68209W        W41277   9.498  44.360  11.139
68210W        W41278  12.412   0.918  13.909
68211W        W41279   2.951  29.313  10.411
68212W        W41280  11.565  39.578  11.227
68213W        W41281  35.917  31.923  11.152
68214W        W41282  41.928   0.192   4.174
68215W        W41283   1.232  14.366  12.940
68216W        W41284   9.598   9.366  11.055
68217W        W41285  20.075  39.828   0.335
68218W        W41286   3.584   8.682  11.134
68219W        W41287  13.305  36.853   1.934
68220W        W41288  44.311  27.433  10.946
68221W        W41289   2.794   0.050   2.706
68222W        W41290  21.706  14.390  14.349
68223W        W41291  16.548  39.716   2.307
68224W        W41292  10.880   2.717  14.232
68225W        W41293  43.750  13.192   2.011
68226W        W41294   3.476  19.168  11.067
68227W        W41295  32.379  10.399  11.068
68228W        W41296   0.237  18.091  10.780
68229W        W41297   9.723  37.442   1.466
68230W        W41298  17.771   0.726  11.927
68231W        W41299  29.502  14.311  14.548
68232W        W41300   0.523   0.905   2.841
68233W        W41301   5.671  44.577  12.495
68234W        W41302  36.960  28.357  12.107
68235W        W41303  35.493  16.161  13.076
68236W        W41304  11.883  42.955   1.218
68237W        W41305  19.592  16.313  11.185
68238W        W41306  24.878  27.024   3.607
68239W        W41307  16.638  23.283  11.658
68240W        W41308  43.432  33.253   3.500
68241W        W41309   9.142  35.843  11.350
68242W        W41310  19.276   9.161  11.596
68243W        W41311  10.097  32.093   1.364
68244W        W41312   9.547   5.464  11.650
68245W        W41313  36.402  35.820  10.710
68246W        W41314  12.782  19.491   1.440
68247W        W41315  40.841   1.329   2.295
68248W        W41316  39.303  29.020  11.907
68249W        W41317  13.858  42.932  10.679
68250W        W41318  20.172   0.600   1.430
68251W        W41319  41.902  27.504  10.797
68252W        W41320   8.696  36.001   4.835
68253W        W41321  43.836  30.620  10.681
68254W        W41322  33.934   8.908  14.786
68255W        W41323  29.697  26.925  14.060
68256W        W41324  32.524  35.536  10.579
68257W        W41325   1.032  41.095  14.819
68258W        W41326   7.746  41.147   1.756
68259W        W41327   7.801  38.968   4.084
68260W        W41328  22.998  34.214   0.714
68261W        W41329  29.720  34.610  10.833
68262W        W41330   0.538  11.058   1.206
68263W        W41331  42.775  21.018   4.506
68264W        W41332  35.837  23.689   2.316
68265W        W41333  21.653  24.405   0.353
68266W        W41334  18.734  35.040   3.275
68267W        W41335  11.450  41.990   1.242
68268W        W41336  18.798  14.304  12.510
68269W        W41337  26.465  39.431   1.177
68270W        W41338  11.342  24.576   0.945
68271W        W41339  44.893  35.195  13.999
68272W        W41340  30.836   7.187  13.049
68273W        W41341   1.233  22.271   4.463
68274W        W41342  20.708  23.006  14.382
68275W        W41343  30.995   2.493   0.817
68276W        W41344  18.205  14.283   4.399
68277W        W41345  18.318  22.176   0.053
68278W        W41346  28.693   2.389  13.901
68279W        W41347  11.085  21.571  10.479
68280W        W41348  15.040  43.153  13.495
68281W        W41349  13.642  20.052  11.326
68282W        W41350   7.655  23.048  10.329
68283W        W41351   8.853  26.949  12.511
68284W        W41352  39.994   1.340  12.873
68285W        W41353  36.689  26.055   1.347
68286W        W41354  30.334  15.356   2.223
68287W        W41355  35.583  28.021   2.805
68288W        W41356  18.183  33.096   4.582
68289W        W41357  21.032  41.901  14.477
68290W        W41358  18.959  20.768   0.316
68291W        W41359  20.454  30.118   2.844
68292W        W41360  29.574  42.383   4.547
68293W        W41361   6.618  40.059  14.079
68294W        W41362  31.958  16.210  14.465
68295W        W41363  11.580  29.595   2.404
68296W        W41364  30.404   1.869  14.379
68297W        W41365   6.558   6.733   3.152
68298W        W41366  11.672  28.854  11.139
68299W        W41367   6.451   4.295  10.447
68300W        W41368  15.342  32.155   0.702
68301W        W41369  34.904  29.103   3.331
68302W        W41370  12.681   3.942  10.524
68303W        W41371  39.057  22.283   2.365
68304W        W41372   4.946  19.557  11.543
68305W        W41373  33.910  33.168   2.668
68306W        W41374  33.002  30.606  14.768
68307W        W41375  43.106  21.162   3.539
68308W        W41376  36.018   2.174   2.427
68309W        W41377  29.831  43.887   3.404
68310W        W41378  43.526  22.225  12.030
68311W        W41379  37.112   6.165  11.955
68312W        W41380  38.047  27.169   0.725
68313W        W41381  37.102  36.613   0.304
68314W        W41382  16.723   6.119   3.368
68315W        W41383  35.511  31.198  14.472
68316W        W41384  24.004   6.200  13.047
68317W        W41385   2.856  22.605  14.762
68318W        W41386   4.861  25.153   3.825
68319W        W41387  25.140  22.708  11.065
68320W        W41388  11.152  22.587   2.011
68321W        W41389  43.453  25.027   1.049
68322W        W41390  23.903  36.354  10.575
68323W        W41391  15.811  19.897  11.028
68324W        W41392  35.346  12.660  14.334
68325W        W41393  19.326  37.876   3.222
68326W        W41394  17.506  25.081  12.119
68327W        W41395   1.903   7.071  14.960
68328W        W41396  15.779  24.537   0.202
68329W        W41397  42.848  15.796  10.156
68330W        W41398   4.371  21.468  12.092
68331W        W41399  36.779  36.034  12.864
68332W        W41400  34.202  29.164   1.640
68333W        W41401  12.072  24.957  13.564
68334W        W41402  40.668   6.886   4.145
68335W        W41403   2.429  18.426   3.912
68336W        W41404  28.401  15.747   1.799
68337W        W41405  27.404  29.664   1.874
68338W        W41406  37.932  18.045   3.821
68339W        W41407   5.295  15.007   3.311
68340W        W41408  22.658  32.191  13.505
68341W        W41409  37.799   8.390   1.894
68342W        W41410  40.410  26.612   4.659
68343W        W41411  38.401   7.153   0.765
68344W        W41412  44.990  39.858   4.165
68345W        W41413   0.531  16.178   0.813
68346W        W41414  22.715   8.760   0.998
68347W        W41415  13.505  15.109   0.698
68348W        W41416   7.263  33.508  13.758
68349W        W41417  33.986   6.224   4.285
68350W        W41418  23.727  25.625   3.884
68351W        W41419   8.845  17.712  14.749
68352W        W41420   2.295  12.784   2.785
68353W        W41421   2.340  30.179  12.960
68354W        W41422  43.972  17.153  11.143
68355W        W41423  21.389  12.893  12.518
68356W        W41424  38.770   3.780   2.139
68357W        W41425  13.368   0.342  11.950
68358W        W41426  26.326  10.873   1.233
68359W        W41427  44.276   5.092   3.700
68360W        W41428   6.243  30.236  12.081
68361W        W41429  18.303  34.619  14.938
68362W        W41430   6.741   9.001   0.869
68363W        W41431   6.502   3.724  10.876
68364W        W41432   3.720  44.399   2.864
68365W        W41433  23.646  32.540  14.859
68366W        W41434   6.928   0.066  11.181
68367W        W41435   9.532  23.598   4.198
68368W        W41436  42.362  12.043  14.573
68369W        W41437  16.320  19.798  11.056
68370W        W41438   7.934   4.316  13.995
68371W        W41439  31.125  31.033   2.295
68372W        W41440  42.023  30.495  14.177
68373W        W41441  28.356  12.729  10.740
68374W        W41442  23.434  20.163  14.743
68375W        W41443  11.568   9.894   0.713
68376W        W41444  21.557  28.544  10.643
68377W        W41445  17.333   1.826  12.095
68378W        W41446  37.430  30.211   3.618
68379W        W41447  39.956  12.597  11.673
68380W        W41448   5.857  18.295   0.492
68381W        W41449  28.831  21.895   1.223
68382W        W41450  10.839  37.959   1.295
68383W        W41451  21.205  27.691  10.657
68384W        W41452   7.148   2.315  11.203
68385W        W41453  29.664  34.734  12.069
68386W        W41454  43.249   5.569   0.570
68387W        W41455  38.752  12.076  14.436
68388W        W41456  44.868  37.104   4.257
68389W        W41457  33.573  34.783   4.950
68390W        W41458  16.340  32.318   2.595
68391W        W41459  33.616  35.902  13.528
68392W        W41460  22.965  35.034  12.593
68393W        W41461   2.417  11.344  12.102
68394W        W41462  29.531  43.296   0.813
68395W        W41463  27.990  28.664   3.913
68396W        W41464  15.304  39.052  14.136
68397W        W41465  23.156   2.508   3.689
68398W        W41466  19.786  40.400   1.371
68399W        W41467  35.053  29.561   4.694
68400W        W41468  34.554  36.511  11.552
68401W        W41469  17.056   5.198  12.891
68402W        W41470  26.101  30.136   0.766
68403W        W41471  12.705  16.104   1.233
68404W        W41472  37.041   0.898  13.833
68405W        W41473  27.497  30.456   0.466
68406W        W41474  11.901  29.314   1.081
68407W        W41475  11.456  20.439  11.906
68408W        W41476   4.947  20.571   1.312
68409W        W41477  14.203  21.214   4.728
68410W        W41478  12.601  27.327  12.895
68411W        W41479  15.677  26.425   0.834
68412W        W41480   0.778  43.207  10.343
68413W        W41481  18.155  44.267   3.680
68414W        W41482  18.143   2.936   0.305
68415W        W41483  32.595  43.364   3.675
68416W        W41484  30.715  35.678   2.828
68417W        W41485  29.776  13.880   1.156
68418W        W41486  34.693  34.149   4.534
68419W        W41487  28.748   7.616   4.517
68420W        W41488  16.166  31.003   3.233
68421W        W41489   9.291  39.182  11.669
68422W        W41490  22.147  30.147   3.736
68423W        W41491   7.957   4.773  14.333
68424W        W41492   9.231  14.450  11.202
68425W        W41493  13.585   7.799  13.857
68426W        W41494  25.112  29.404   3.241
68427W        W41495  17.811   4.792   1.748
68428W        W41496  19.266  12.632   0.317
68429W        W41497  35.100   8.703  12.906
68430W        W41498   9.472  38.629   4.105
68431W        W41499  15.249  30.859   4.419
68432W        W41500  13.839  41.748  10.682
68433W        W41501  26.403  31.137  10.692
68434W        W41502   2.972  29.792   0.924
68435W        W41503  23.693   3.654  10.462
68436W        W41504  28.542  39.767   4.674
68437W        W41505  23.436  31.624  12.620
68438W        W41506  17.700   0.456   2.386
68439W        W41507  15.990   0.732  10.896
68440W        W41508   0.823  37.636  13.012
68441W        W41509  29.863   0.022   0.687
68442W        W41510   6.074  18.410  10.177
68443W        W41511  37.329   7.965   1.446
68444W        W41512  39.541  22.721   3.484
68445W        W41513  13.838  10.245  14.536
68446W        W41514  28.071  35.105  10.469
68447W        W41515  33.059   8.893   2.312
68448W        W41516  40.803  40.687   2.367
68449W        W41517  37.114   2.807   3.608
68450W        W41518  15.340  43.484  14.408
68451W        W41519  24.540  27.966   3.373
68452W        W41520  12.278  21.480   2.777
68453W        W41521   2.376  15.104   3.212
68454W        W41522   9.896  44.474   0.355
68455W        W41523  12.133   1.754   3.403
68456W        W41524   4.875  28.101   4.088
68457W        W41525   8.179  27.335  11.134
68458W        W41526   7.949  20.693   0.759
68459W        W41527  32.401  40.044   1.191
68460W        W41528  15.357   1.340  12.472
68461W        W41529  19.515  32.364   3.602
68462W        W41530  42.598  44.492  13.517
68463W        W41531  28.152   7.421  12.477
68464W        W41532  32.119  20.091  14.842
68465W        W41533  12.292  21.839   4.141
68466W        W41534  17.455  27.151   2.346
68467W        W41535  44.917  42.403   3.671
68468W        W41536  10.943  42.522   2.289
68469W        W41537   1.119   6.193   3.794
68470W        W41538  13.206  25.601  12.800
68471W        W41539   6.187  14.585  10.496
68472W        W41540  38.121  33.377  12.956
68473W        W41541  35.108   9.938  13.302
68474W        W41542  42.775  25.468  12.517
68475W        W41543  14.837   7.388   3.898
68476W        W41544  13.428  39.025  10.976
68477W        W41545  22.699  33.952   4.622
68478W        W41546  41.053  21.788  13.245
68479W        W41547  32.036  12.632  13.141
68480W        W41548   8.296  39.868  11.534
68481W        W41549  16.394  34.816   1.822
68482W        W41550  39.780  19.785  12.904
68483W        W41551  23.727  18.027  13.388
68484W        W41552  19.711  15.984  11.707
68485W        W41553  14.145  20.205  11.979
68486W        W41554   3.735  35.009  11.129
68487W        W41555  16.034  35.159   1.687
68488W        W41556  32.087  22.794   4.538
68489W        W41557  20.207  12.612  11.056
68490W        W41558  39.849  23.476   0.862
68491W        W41559  41.027  33.364   1.199
68492W        W41560  11.280  15.867   0.261
68493W        W41561  41.011  28.717   0.506
68494W        W41562  43.325  10.206   2.647
68495W        W41563   8.677  11.253   1.261
68496W        W41564  30.734  26.466  11.504
68497W        W41565   2.022  17.107   2.269
68498W        W41566  28.218   7.646  14.297
68499W        W41567  41.186  30.494  14.946
68500W        W41568   2.984  18.352   2.262
68501W        W41569  12.949  33.455  11.200
68502W        W41570  35.885  42.245  13.167
68503W        W41571  35.081  22.390   1.763
68504W        W41572  23.729  26.115   4.636
68505W        W41573  29.026   1.201  10.539
68506W        W41574  10.668  24.438   1.958
68507W        W41575  21.291   7.615  11.064
68508W        W41576  18.571  24.998  12.203
68509W        W41577   8.369  11.433   1.875
68510W        W41578  16.621  20.697  12.025
68511W        W41579   6.913  19.557   0.956
68512W        W41580  18.928   0.709   4.165
68513W        W41581  31.949  38.053  13.002
68514W        W41582  12.374  20.548  11.605
68515W        W41583  42.576  18.498  12.440
68516W        W41584  26.298  12.359   3.881
68517W        W41585   5.146  23.164  12.889
68518W        W41586   7.401  39.385   4.706
68519W        W41587  30.632  16.673  12.176
68520W        W41588  25.050  29.118  14.224
68521W        W41589  29.632  44.458   1.638
68522W        W41590  33.860  21.945  11.506
68523W        W41591  12.639  13.064   1.116
68524W        W41592  39.964  21.483  10.715
68525W        W41593  22.247   4.895   4.952
68526W        W41594  11.730  34.695  14.438
68527W        W41595  13.527  44.049   3.647
68528W        W41596  21.625  33.969   3.209
68529W        W41597   3.289  12.285  11.020
68530W        W41598   9.748  33.809   2.280
68531W        W41599  24.844   1.667  14.988
68532W        W41600  23.130   8.155   0.501
68533W        W41601  19.691  25.843  14.956
68534W        W41602  24.251  43.565  11.129
68535W        W41603  44.966  17.266   3.220
68536W        W41604  20.046  34.780  10.477
68537W        W41605  17.148   1.485   1.839
68538W        W41606  27.920   2.079  14.328
68539W        W41607   8.159  34.128   3.396
68540W        W41608  35.597  24.728   0.901
68541W        W41609  31.152   2.333  12.523
68542W        W41610  28.227  35.255  11.981
68543W        W41611  18.694  12.630  14.955
68544W        W41612  23.847  43.948  13.198
68545W        W41613   1.079  41.750  13.640
68546W        W41614  18.560  13.263  13.230
68547W        W41615   7.778  16.331  10.537
68548W        W41616  29.708  16.132  13.025
68549W        W41617  25.605  14.053  10.598
68550W        W41618   4.932  37.937   4.912
68551W        W41619  41.384   7.242  12.862
68552W        W41620  31.905  15.007   0.464
68553W        W41621  18.492  30.498   1.908
68554W        W41622   1.416  22.451   1.703
68555W        W41623  39.455  14.547   1.777
68556W        W41624   4.262  42.296  13.896
68557W        W41625   5.459  27.653   1.227
68558W        W41626  12.446  40.606  12.382
68559W        W41627   0.846  10.035   4.144
68560W        W41628  22.417  35.420  13.401
68561W        W41629  44.317   9.152   0.495
68562W        W41630  35.149  36.862   0.787
68563W        W41631   7.738   9.479   3.001
68564W        W41632  42.809   1.487   3.303
68565W        W41633  30.393   7.657  14.909
68566W        W41634  35.482   0.714  13.984
68567W        W41635   8.214   1.445   0.892
68568W        W41636   9.888  12.513   4.717
68569W        W41637   8.480  36.415  11.560
68570W        W41638  22.183  24.638   0.564
68571W        W41639  35.236   2.954   1.271
68572W        W41640  35.401  28.620   1.220
68573W        W41641   1.424  43.870   1.225
68574W        W41642  16.641  31.354   4.717
68575W        W41643  31.903  41.488   1.201
68576W        W41644   5.777  42.591   1.411
68577W        W41645  44.988  20.645  10.521
68578W        W41646  37.621  38.114   1.618
68579W        W41647  36.056  16.439   0.260
68580W        W41648  40.649   5.741  14.256
68581W        W41649  38.709  32.485  14.057
68582W        W41650  25.755  20.740   2.166
68583W        W41651  41.009  44.070  14.773
68584W        W41652   8.160   4.255   1.539
68585W        W41653  27.398   8.816   1.739
68586W        W41654  29.114  41.722   3.147
68587W        W41655   6.896   9.714   3.225
68588W        W41656   1.528  36.080  12.755
68589W        W41657  41.274  38.058  13.987
68590W        W41658  42.803  37.478  14.696
68591W        W41659  42.034  12.636  11.024
68592W        W41660  23.048  40.805  11.051
68593W        W41661  24.832  16.545   1.633
68594W        W41662  27.920  35.690   4.174
68595W        W41663  30.887  32.865   4.652
68596W        W41664  28.784  42.572  12.485
68597W        W41665  21.222   3.916  12.811
68598W        W41666  21.541  16.109  13.430
68599W        W41667  20.748   7.108  13.992
68600W        W41668  43.722  31.127  14.326
68601W        W41669  40.098   5.785   2.420
68602W        W41670  10.769  11.684   3.594
68603W        W41671  13.157  33.896   4.699
68604W        W41672   5.395  11.887   3.898
68605W        W41673  15.997  11.733  10.628
68606W        W41674  10.351  26.120   4.703
68607W        W41675  13.606  23.981  13.821
68608W        W41676  29.040  39.710   3.592
68609W        W41677   7.398  27.167   1.729
68610W        W41678   8.179  25.625  11.691
68611W        W41679  18.830   6.383  12.491
68612W        W41680  33.918  22.973  12.347
68613W        W41681  31.811  28.791   4.143
68614W        W41682  16.521  30.141  12.503
68615W        W41683  12.419   9.386   4.107
68616W        W41684  23.568  27.014  14.238
68617W        W41685  22.018  36.468   4.722
68618W        W41686   8.417  10.939   3.130
68619W        W41687  37.058  43.876  10.728
68620W        W41688  19.548   0.637  10.265
68621W        W41689   3.449  10.719  14.581
68622W        W41690  35.630  25.319  10.608
68623W        W41691  20.268  40.352   3.640
68624W        W41692  20.071  44.726   4.592
68625W        W41693   9.697  16.321  12.610
68626W        W41694  35.702   6.754   2.405
68627W        W41695  28.918   9.753   0.562
68628W        W41696  26.065  36.951   0.195
68629W        W41697  12.390  13.957   3.745
68630W        W41698   2.288  11.558   1.262
68631W        W41699  26.104  27.242  14.984
68632W        W41700  11.369   4.663  12.108
68633W        W41701   9.676  30.946   2.244
68634W        W41702  41.435  22.245  13.334
68635W        W41703   6.841  35.710  12.384
68636W        W41704  16.263  37.823  14.750
68637W        W41705  20.083  23.111  13.051
68638W        W41706  32.683  12.252  13.471
68639W        W41707  37.988  24.176   3.721
68640W        W41708  27.573   8.397   2.626
68641W        W41709  42.407  17.084  10.780
68642W        W41710  11.374  36.201   2.151
68643W        W41711  44.006  31.428  11.607
68644W        W41712  20.733  40.732  10.601
68645W        W41713  31.702  16.597   1.776
68646W        W41714  30.055  27.871   4.563
68647W        W41715  23.076  44.754  12.611
68648W        W41716  25.704  11.639   4.046
68649W        W41717  23.267  28.737   3.831
68650W        W41718  44.048  36.936   3.265
68651W        W41719  42.311  34.604  11.217
68652W        W41720  31.496   2.193   3.274
68653W        W41721  15.341   8.767  10.855
68654W        W41722  24.256  15.832  14.420
68655W        W41723   6.194   8.002   4.130
68656W        W41724  30.024  42.322   0.453
68657W        W41725   2.922  16.276  13.026
68658W        W41726  15.320  20.819   3.828
68659W        W41727  42.082  16.674   2.169
68660W        W41728   4.224  43.013   2.375
68661W        W41729  43.745  27.753  14.340
68662W        W41730  44.389  28.960  14.766
68663W        W41731   6.936   4.903  14.415
68664W        W41732  20.054  27.464  11.541
68665W        W41733  21.191  33.311  13.048
68666W        W41734  42.642  37.517  11.145
68667W        W41735  37.619  35.088  10.731
68668W        W41736  36.516  42.891  13.956
68669W        W41737  36.294  20.985  11.199
68670W        W41738   5.206  40.762  14.410
68671W        W41739  16.147   1.693  12.993
68672W        W41740  28.023  15.741  10.011
68673W        W41741  21.717  32.352  11.085
68674W        W41742  32.532  22.520  10.650
68675W        W41743  40.364  22.167   2.771
68676W        W41744  10.805  36.943  11.803
68677W        W41745  30.314  26.517  11.187
68678W        W41746   1.742  30.570   2.736
68679W        W41747  36.654  20.571  13.935
68680W        W41748  11.930  30.614   1.779
68681W        W41749  40.627  30.467  13.510
68682W        W41750  11.677  16.169  14.491
68683W        W41751  34.564  35.123   4.189
68684W        W41752  19.899  17.871  14.517
68685W        W41753  22.442  34.463   2.356
68686W        W41754  27.033  43.505   1.109
68687W        W41755  22.583  28.985   4.361
68688W        W41756  38.606  17.528  14.276
68689W        W41757  35.559   8.275  12.407
68690W        W41758   2.358  19.508  14.971
68691W        W41759  10.327  14.813   3.358
68692W        W41760  23.535  42.949  12.973
68693W        W41761  17.562   1.000   3.568
68694W        W41762  27.623  18.336   3.594
68695W        W41763   2.234  44.927   0.220
68696W        W41764  39.189  11.689   3.272
68697W        W41765  23.057  17.657   0.498
68698W        W41766  40.578  44.652   3.221
68699W        W41767  16.577  13.302  11.388
68700W        W41768   1.419  20.194  14.853
68701W        W41769  25.315   8.665   4.779
68702W        W41770  25.623   5.711   4.191
68703W        W41771   1.120   4.699  13.027
68704W        W41772  26.638  27.271   2.222
68705W        W41773  36.867  44.456   2.358
68706W        W41774  38.158  42.659  13.869
68707W        W41775  31.887   8.761   1.687
68708W        W41776  27.180   7.735  12.467
68709W        W41777  34.789  36.055  11.572
68710W        W41778  16.270  40.871  12.364
68711W        W41779  32.360  26.362   4.673
68712W        W41780  43.901  34.939   3.138
68713W        W41781  28.313  32.371  10.974
68714W        W41782   4.972  35.631   0.380
68715W        W41783  43.944  18.137  13.516
68716W        W41784  30.584  41.266   0.719
68717W        W41785  42.562  30.172  13.911
68718W        W41786   9.506  33.664  14.377
68719W        W41787  14.364  25.253  10.419
68720W        W41788  25.674  32.706   2.368
68721W        W41789  33.997  18.965   4.271
68722W        W41790  32.204   9.909  11.137
68723W        W41791  42.529  21.855   2.884
68724W        W41792  35.460  23.894  12.428
68725W        W41793  24.211  10.082   4.010
68726W        W41794  21.791  29.617  12.506
68727W        W41795  16.035  35.870   3.095
68728W        W41796  17.524  44.505  13.530
68729W        W41797  15.559  17.286  14.959
68730W        W41798  43.222  21.317  12.396
68731W        W41799  20.622  23.055  11.578
68732W        W41800  44.994  10.538   2.378
68733W        W41801  28.242  28.587  12.112
68734W        W41802  37.135  20.413  11.536
68735W        W41803  10.282   6.564  11.921
68736W        W41804  22.264  30.738   2.723
68737W        W41805  32.891  33.458  10.901
68738W        W41806  40.503   6.342  11.959
68739W        W41807  13.333  11.047   3.170
68740W        W41808  37.594  41.903  13.085
68741W        W41809  43.736  33.382   1.755
68742W        W41810  35.039   2.703  11.533
68743W        W41811   8.278  44.666   2.380
68744W        W41812  12.065  14.590  11.098
68745W        W41813  23.126  18.346   4.054
68746W        W41814   1.933  30.055   4.012
68747W        W41815   3.739  21.206   1.647
68748W        W41816  20.037  18.013   2.753
68749W        W41817  29.277  35.925   1.866
68750W        W41818   4.561  23.216   4.106
68751W        W41819  31.392   1.860  10.668
68752W        W41820  21.625  19.609  14.909
68753W        W41821  22.327   3.026  11.325
68754W        W41822  38.388  15.852  11.619
68755W        W41823  15.754  41.152  11.419
68756W        W41824  30.057  27.765   3.264
68757W        W41825  10.872   9.146  14.925
68758W        W41826  17.201   4.668   2.817
68759W        W41827  35.064  35.025   2.306
68760W        W41828   2.044  22.637   3.717
68761W        W41829  25.424   7.908   3.652
68762W        W41830  23.661  20.638  14.029
68763W        W41831   5.945  14.282   0.485
68764W        W41832  32.576  24.757   4.273
68765W        W41833  29.463   1.459  12.014
68766W        W41834  43.065  27.213  11.562
68767W        W41835  33.196  28.481  13.924
68768W        W41836  17.601  31.427   4.171
68769W        W41837  14.610   7.037  11.748
68770W        W41838  36.977   2.452  11.666
68771W        W41839   9.740  38.562  10.379
68772W        W41840  24.758  26.676   2.757
68773W        W41841  42.017  19.592   0.733
68774W        W41842  10.891  26.744  11.946
68775W        W41843  21.502  29.536  13.492
68776W        W41844  29.221  27.567   3.028
68777W        W41845  27.162  15.852  11.573
68778W        W41846  20.305  30.584  12.412
68779W        W41847  20.507  44.757  12.304
68780W        W41848  12.233  34.008  13.231
68781W        W41849   7.207  11.526  14.522
68782W        W41850  10.448  35.632  11.238
68783W        W41851  19.498   8.946  13.055
68784W        W41852  31.118  22.031  12.052
68785W        W41853  11.674  37.793   2.166
68786W        W41854   4.413  43.578  13.382
68787W        W41855  15.210   0.794  13.893
68788W        W41856  20.641  38.904  13.831
68789W        W41857  42.478  44.856  11.394
68790W        W41858   2.840  38.896  12.893
68791W        W41859  28.442  38.879  10.709
68792W        W41860  31.993   0.297   2.396
68793W        W41861   9.891  30.100   2.952
68794W        W41862  24.844  28.379   3.203
68795W        W41863  24.205  31.088   3.064
68796W        W41864  43.553  35.933  12.421
68797W        W41865  40.392  29.081   1.439
68798W        W41866  26.985  38.139   2.665
68799W        W41867  19.704  16.816   1.734
68800W        W41868  29.031   3.086  12.817
68801W        W41869  31.549  42.880   4.373
68802W        W41870  23.172   4.645   0.427
68803W        W41871  23.207  12.702   0.213
68804W        W41872  42.532   6.405  10.858
68805W        W41873  22.124  25.698   0.371
68806W        W41874   4.400  18.543   3.298
68807W        W41875  43.863  36.176  11.127
68808W        W41876  34.903  32.173   4.550
68809W        W41877   9.670  15.182  14.994
68810W        W41878  12.843   1.906   4.117
68811W        W41879  36.187  30.470   3.232
68812W        W41880  23.838  26.624   0.903
68813W        W41881   5.085  13.210  11.467
68814W        W41882  16.290  17.710   2.525
68815W        W41883  41.111   5.793  14.552
68816W        W41884   8.768  28.992  12.810
68817W        W41885  21.424  22.323   1.243
68818W        W41886   7.147  39.664   5.424
68819W        W41887  43.922  18.081   3.269
68820W        W41888  27.663  19.532   3.285
68821W        W41889   4.916  43.422   2.201
68822W        W41890  13.157  36.404   1.721
68823W        W41891  31.020  34.508  14.000
68824W        W41892  14.662  32.379   0.429
68825W        W41893  30.745   9.427   2.854
68826W        W41894  27.969  44.700  12.612
68827W        W41895  12.882  33.628   1.373
68828W        W41896  13.312  10.380  10.805
68829W        W41897   5.391   4.261   3.368
68830W        W41898  18.256  21.719   3.317
68831W        W41899  32.897  24.256  13.573
68832W        W41900  13.643   9.846   2.452
68833W        W41901  27.245  43.786   3.383
68834W        W41902  35.987  22.057   2.596
68835W        W41903  41.910  21.743  12.125
68836W        W41904   8.218  28.371  12.439
68837W        W41905  34.977  27.953  12.024
68838W        W41906   7.625  44.318   4.612
68839W        W41907  41.764  14.334   4.691
68840W        W41908  11.287   1.522  11.174
68841W        W41909   5.740  24.484   1.934
68842W        W41910  38.096  20.785  10.432
68843W        W41911  41.423  21.263   0.369
68844W        W41912  41.527  10.764   1.874
68845W        W41913  41.555  42.315  12.067
68846W        W41914  21.178   9.941  10.926
68847W        W41915   2.205  25.152  10.676
68848W        W41916  22.729   6.925   3.895
68849W        W41917  35.459  32.224  11.385
68850W        W41918  33.562  36.323   3.570
68851W        W41919  32.408  25.261   2.371
68852W        W41920  41.988  29.366  13.049
68853W        W41921  37.002  31.689   5.099
68854W        W41922  12.049  21.236  12.273
68855W        W41923  21.003  43.382  12.088
68856W        W41924  17.298  43.356   1.897
68857W        W41925   2.382  38.522   1.901
68858W        W41926  42.252  16.667  13.389
68859W        W41927   7.433  24.162  13.543
68860W        W41928  24.153  29.941  11.600
68861W        W41929  12.879  39.508  12.059
68862W        W41930  24.324  36.146   4.346
68863W        W41931   1.246  27.478  12.984
68864W        W41932  15.286   7.863   2.031
68865W        W41933   7.987   5.445   4.615
68866W        W41934  25.307  27.055  12.988
68867W        W41935   0.528  27.733  11.591
68868W        W41936   1.818  14.258   1.687
68869W        W41937  31.676  34.444   3.965
68870W        W41938  24.238  39.898  10.977
68871W        W41939  12.794  19.144  10.691
68872W        W41940  41.281  19.977  12.928
68873W        W41941  27.079  31.698  12.181
68874W        W41942  12.750   6.297   0.302
68875W        W41943   8.378   5.805   4.612
68876W        W41944  38.859   3.720  13.492
68877W        W41945  12.143   1.430  14.952
68878W        W41946  30.868  29.295  11.369
68879W        W41947  34.481  43.698   1.013
68880W        W41948  36.218  20.476   3.677
68881W        W41949  26.234  21.210   4.580
68882W        W41950  28.749   6.275   0.750
68883W        W41951   2.939  42.240  14.302
68884W        W41952   2.652  29.076   2.903
68885W        W41953  10.575  13.699  13.431
68886W        W41954  38.051  20.194  10.483
68887W        W41955  29.136  41.264  11.804
68888W        W41956   8.588   3.859   3.294
68889W        W41957   1.494  44.049   0.177
68890W        W41958  32.178  17.210  14.343
68891W        W41959   4.280  17.101   2.154
68892W        W41960  44.225  10.999   4.831
68893W        W41961   1.186   5.694  11.214
68894W        W41962  37.911   3.000   3.397
68895W        W41963  22.682   0.457   5.450
68896W        W41964  42.995   5.273   0.910
68897W        W41965  20.213  43.123   3.764
68898W        W41966  22.506  13.105  11.147
68899W        W41967  33.187  27.481   3.724
68900W        W41968   5.049  41.510  10.646
68901W        W41969  33.520   7.331   4.615
68902W        W41970  39.124  36.080  12.577
68903W        W41971  28.442  36.917  14.109
68904W        W41972   3.726   6.775   2.280
68905W        W41973  27.021  32.937   1.711
68906W        W41974  34.905  39.791  14.810
68907W        W41975   4.705  39.394   4.323
68908W        W41976  34.842  17.751  13.392
68909W        W41977  26.669  40.776  13.485
68910W        W41978   8.468  25.729   2.824
68911W        W41979  17.148  32.350   4.178
68912W        W41980  21.100  17.629   0.467
68913W        W41981  12.312   8.064   0.934
68914W        W41982  32.821   7.925   1.880
68915W        W41983   8.604  33.024   4.182
68916W        W41984  16.209  12.914   2.935
68917W        W41985  24.126  24.799  14.906
68918W        W41986  27.947   6.250   1.234
68919W        W41987  29.630  25.395  11.740
68920W        W41988  11.352  10.784   3.433
68921W        W41989  21.327  23.060   3.055
68922W        W41990  30.887  11.963   0.712
68923W        W41991  38.418  36.338  11.093
68924W        W41992  38.482  30.174   2.646
68925W        W41993  39.375  13.270  11.701
68926W        W41994  26.440   9.408  11.600
68927W        W41995  22.400  18.984   4.621
68928W        W41996  35.427  42.633   0.858
68929W        W41997  21.080  28.120   0.351
68930W        W41998  35.904  28.891  11.237
68931W        W41999   3.197  32.284   4.843
68932W        W42000  10.840  38.730   1.735
68933W        W42001  19.201  14.565   0.369
68934W        W42002  19.663   3.154   4.354
68935W        W42003  42.233  19.232  10.588
68936W        W42004  37.473  22.508  10.986
68937W        W42005  42.291  23.250   2.968
68938W        W42006  14.589  29.156   4.294
68939W        W42007  21.553  43.369   4.605
68940W        W42008  11.186  14.204   1.576
68941W        W42009  24.761  20.691  10.685
68942W        W42010  31.571  22.002  12.595
68943W        W42011  24.491  16.091  13.279
68944W        W42012  37.328   8.713   2.545
68945W        W42013   2.955  15.626  10.779
68946W        W42014  41.680  25.981  14.368
68947W        W42015   3.549  26.252   1.231
68948W        W42016  41.852  20.266  11.809
68949W        W42017  25.105  14.099   4.209
68950W        W42018  22.941  13.865  12.643
68951W        W42019  15.756  15.292   2.211
68952W        W42020  32.357  37.456   4.145
68953W        W42021  27.732  16.298   2.960
68954W        W42022  14.581  32.818   1.768
68955W        W42023  31.587  15.594   1.833
68956W        W42024  23.592  32.951   1.510
68957W        W42025  25.607  23.332  14.761
68958W        W42026  12.504  19.730  10.656
68959W        W42027  32.070  18.157   1.892
68960W        W42028  23.149  28.585  11.179
68961W        W42029  10.653  24.538  14.805
68962W        W42030  35.315  10.766  13.102
68963W        W42031   6.128  27.183   1.753
68964W        W42032   5.757  35.254   1.139
68965W        W42033  26.753  35.168  14.130
68966W        W42034   2.037   6.159  13.069
68967W        W42035   5.902   8.723   1.900
68968W        W42036  15.554  27.467  14.835
68969W        W42037  43.777  24.248   2.860
68970W        W42038  42.469  18.760   1.402
68971W        W42039  11.651  30.636  13.956
68972W        W42040  40.730  19.218   0.251
68973W        W42041  44.808  10.361   0.057
68974W        W42042  37.339  35.906   4.853
68975W        W42043   0.324   2.807  11.042
68976W        W42044  41.766  17.363   4.567
68977W        W42045  13.552   6.636  12.510
68978W        W42046  18.704  14.595  12.981
68979W        W42047  16.159  33.935   1.388
68980W        W42048  26.525  20.931   3.244
68981W        W42049  12.709   6.638  14.933
68982W        W42050  27.465  36.286  13.450
68983W        W42051   0.526   0.422   0.882
68984W        W42052  25.459  39.960   9.846
68985W        W42053  22.217   5.357  12.446
68986W        W42054  40.407   3.825  11.720
68987W        W42055  39.123   0.620   3.647
68988W        W42056  17.727  32.325   0.530
68989W        W42057   1.392  34.993   0.712
68990W        W42058   7.580  11.173  14.385
68991W        W42059  30.487   2.020  10.577
68992W        W42060  28.713  12.304   0.230
68993W        W42061  39.107  40.026   0.381
68994W        W42062  20.383  20.751   0.835
68995W        W42063  33.177  20.090   3.352
68996W        W42064  39.127  12.779   1.760
68997W        W42065  40.776  21.437   0.458
68998W        W42066  29.689  40.027   1.315
68999W        W42067  41.497  40.811   2.686
69000W        W42068  12.772  34.182   4.466
69001W        W42069  28.659  17.760  13.426
69002W        W42070   9.455   9.863  11.558
69003W        W42071  43.403  39.510  13.920
69004W        W42072   7.000  26.492  13.135
69005W        W42073  12.055  25.255  14.877
69006W        W42074  14.562  12.740  11.184
69007W        W42075  38.415  21.202  10.758
69008W        W42076  32.807   6.126  13.186
69009W        W42077   5.477  35.876  14.445
69010W        W42078  43.491  19.771  10.564
69011W        W42079  31.999   2.109  11.573
69012W        W42080  11.279   7.766  11.363
69013W        W42081   1.462   5.852  11.619
69014W        W42082  24.047  42.559  11.196
69015W        W42083  39.303  11.342   0.902
69016W        W42084  21.102  13.822  13.559
69017W        W42085  11.878  10.712   0.374
69018W        W42086  27.484  36.519  11.609
69019W        W42087  14.291   0.508   4.423
69020W        W42088  36.913   9.835  12.073
69021W        W42089  43.717  31.434  11.152
69022W        W42090  33.943  19.102   3.756
69023W        W42091  26.531   2.211  12.126
69024W        W42092  19.577  39.860   2.207
69025W        W42093  23.556  38.372   9.703
69026W        W42094  27.980  36.425  10.718
69027W        W42095   3.240  10.577  13.438
69028W        W42096   9.781  22.705   0.834
69029W        W42097  42.336  43.845   3.323
69030W        W42098   4.971  40.896   0.733
69031W        W42099   0.653  19.650  11.516
69032W        W42100   9.974  37.644  13.800
69033W        W42101  44.316   8.307  13.297
69034W        W42102  38.027  29.469   4.287
69035W        W42103   9.708  40.896  14.712
69036W        W42104  29.927   8.498   3.063
69037W        W42105  20.671  39.522   1.113
69038W        W42106  42.022  39.572  12.917
69039W        W42107  11.894  39.415   3.058
69040W        W42108  44.262  22.227   5.115
69041W        W42109  20.651  21.842  12.160
69042W        W42110   5.892  12.915  11.617
69043W        W42111  29.398  11.157  13.492
69044W        W42112  28.235  40.062   3.823
69045W        W42113  34.454  19.578   2.403
69046W        W42114   8.472  29.463   4.699
69047W        W42115   6.829  29.914  12.047
69048W        W42116  12.760  11.582   4.067
69049W        W42117  29.010  25.184   1.451
69050W        W42118  11.072  19.677   1.549
69051W        W42119   6.018   2.048   2.199
69052W        W42120  10.669  16.726  11.648
69053W        W42121  28.218  25.191   3.067
69054W        W42122  12.099  17.774  13.378
69055W        W42123   9.125  14.301   3.509
69056W        W42124  17.207  25.478   4.408
69057W        W42125  24.015   5.276  12.058
69058W        W42126  30.386  28.555  14.833
69059W        W42127   5.395   0.160   1.910
69060W        W42128  15.736  41.378   4.590
69061W        W42129   2.193  44.837  13.518
69062W        W42130  40.847  40.561  14.417
69063W        W42131  31.098  35.879   1.949
69064W        W42132   2.494  36.484   3.858
69065W        W42133  11.137   7.570   2.359
69066W        W42134  29.905   4.710  13.370
69067W        W42135   1.563  35.021   0.211
69068W        W42136  16.349  41.331  12.577
69069W        W42137  11.473   7.726  11.937
69070W        W42138   8.739   0.396  12.575
69071W        W42139  33.074   6.140   1.302
69072W        W42140  32.994  22.066  14.763
69073W        W42141  13.931   1.322   0.790
69074W        W42142  36.160   8.931   0.263
69075W        W42143  10.169  30.856   1.797
69076W        W42144  12.889  27.922   1.847
69077W        W42145   8.967  26.089  10.780
69078W        W42146   6.454  30.220   3.134
69079W        W42147  34.993   0.858   3.910
69080W        W42148  19.146  41.865   3.788
69081W        W42149  27.843   8.275  14.994
69082W        W42150  18.758  42.329  10.641
69083W        W42151  22.772  29.208  13.307
69084W        W42152  29.536  18.054  10.853
69085W        W42153  26.506  28.660   1.913
69086W        W42154   3.707  24.615   3.866
69087W        W42155  33.313  37.119  13.923
69088W        W42156   1.818   7.196   1.919
69089W        W42157  25.480   7.177   3.283
69090W        W42158  29.434   2.892   4.774
69091W        W42159  22.187  44.752  10.596
69092W        W42160  26.115  13.883   2.304
69093W        W42161  27.294  41.132  12.117
69094W        W42162  26.555  12.837   3.577
69095W        W42163   3.963  33.524   4.169
69096W        W42164  41.049  12.393  12.979
69097W        W42165  35.982  10.121   4.115
69098W        W42166  18.164  32.020   0.551
69099W        W42167  16.588  12.333  11.464
69100W        W42168  38.553  34.448   0.687
69101W        W42169   9.121  36.777   2.807
69102W        W42170  22.660   1.994  11.786
69103W        W42171  12.672  39.247   1.347
69104W        W42172  34.591  13.809  12.499
69105W        W42173  39.525  35.985  13.567
69106W        W42174  31.654   4.895   5.240
69107W        W42175  31.048  17.351   3.368
69108W        W42176  35.625  37.038   0.842
69109W        W42177  26.502   3.171   0.012
69110W        W42178   8.877  35.381   1.774
69111W        W42179   6.355  29.642  14.426
69112W        W42180  14.159  21.740  11.639
69113W        W42181  44.971   5.478  12.787
69114W        W42182  10.856  44.402  11.969
69115W        W42183  15.428  23.143  13.139
69116W        W42184  42.092  22.812  13.340
69117W        W42185  32.609   7.291   0.218
69118W        W42186   0.787  21.858   2.431
69119W        W42187   1.274   3.036   1.295
69120W        W42188  15.138  27.029   2.408
69121W        W42189   5.601  44.299   4.249
69122W        W42190  40.555  28.088   4.635
69123W        W42191  39.291  32.038   2.236
69124W        W42192  14.275   2.896  14.747
69125W        W42193   7.651  42.920   3.697
69126W        W42194  24.994  26.915  12.561
69127W        W42195  39.824   0.749  13.895
69128W        W42196   2.414  11.815   0.236
69129W        W42197   5.326  18.262  13.288
69130W        W42198  16.717  10.114  14.514
69131W        W42199  27.555  36.394   1.802
69132W        W42200  25.001  26.691  11.086
69133W        W42201  39.121  18.596   0.059
69134W        W42202  14.108  26.652   5.065
69135W        W42203  38.340   1.750   4.982
69136W        W42204  26.054  35.874  13.873
69137W        W42205  16.004   1.546  13.465
69138W        W42206   1.745  34.931  11.137
69139W        W42207  17.192   3.524   4.962
69140W        W42208  31.840  30.402   3.207
69141W        W42209  19.074  17.596  11.881
69142W        W42210  30.938  44.424   0.838
69143W        W42211  22.354  22.226  14.010
69144W        W42212   3.968  14.979  11.256
69145W        W42213  32.757  20.012   4.910
69146W        W42214  40.915   9.192   1.282
69147W        W42215  25.084   8.144   3.208
69148W        W42216  30.389  42.853  11.651
69149W        W42217   6.406  23.092   4.626
69150W        W42218   9.120  27.778   1.668
69151W        W42219  40.672  31.851  14.951
69152W        W42220  13.733  38.785  10.547
69153W        W42221  43.577  23.934  11.662
69154W        W42222  15.227  30.075  12.003
69155W        W42223  44.771  30.909   0.558
69156W        W42224  25.204  24.611   3.548
69157W        W42225  12.778  38.148  13.349
69158W        W42226  25.095  27.401  13.588
69159W        W42227   7.650  29.475  11.052
69160W        W42228  27.517  17.499  12.924
69161W        W42229  43.846  15.075  11.267
69162W        W42230  24.564   8.710   4.081
69163W        W42231  40.570  35.568   0.274
69164W        W42232  31.757  22.261   2.212
69165W        W42233  44.398  20.069  10.940
69166W        W42234   0.060  27.249  12.466
69167W        W42235  31.722  16.845   0.481
69168W        W42236   3.114  11.672   0.951
69169W        W42237  38.314   9.709   3.250
69170W        W42238  26.005  11.286   2.585
69171W        W42239  34.879  11.155   1.678
69172W        W42240  26.851  17.743   3.727
69173W        W42241   8.951  21.112  14.917
69174W        W42242  28.964  18.456  14.551
69175W        W42243  24.155   6.306   0.401
69176W        W42244  12.712  16.920   3.236
69177W        W42245  23.163  22.195   0.768
69178W        W42246  16.108  34.449   3.065
69179W        W42247  33.155  43.206  11.709
69180W        W42248  44.474  33.102  12.193
69181W        W42249  15.538  35.553   2.153
69182W        W42250  24.802  21.541   3.573
69183W        W42251  42.050  34.536  11.656
69184W        W42252   9.210   5.683  13.085
69185W        W42253  34.134  33.164   1.780
69186W        W42254  14.195  39.076  10.562
69187W        W42255  19.138  31.847  14.606
69188W        W42256  26.631  16.260  14.820
69189W        W42257  33.422  25.288  11.639
69190W        W42258  39.308  21.611   4.514
69191W        W42259  33.017  29.206  13.374
69192W        W42260   6.600  26.988  10.655
69193W        W42261   0.071  32.951   0.906
69194W        W42262  39.943  10.113   1.550
69195W        W42263  24.182   7.796   0.008
69196W        W42264   6.836  13.335   3.424
69197W        W42265  19.679  35.986  11.963
69198W        W42266  11.342  23.020  13.906
69199W        W42267  29.109  26.407   4.067
69200W        W42268  27.914  29.529  14.629
69201W        W42269  27.884  16.734   3.223
69202W        W42270  28.811  12.599   2.175
69203W        W42271  22.278  38.363   0.855
69204W        W42272  28.692  34.937  12.951
69205W        W42273  38.287  10.630   1.393
69206W        W42274  11.196   9.187  14.512
69207W        W42275  25.493  41.394  11.506
69208W        W42276   8.677  41.655  13.478
69209W        W42277  42.944  18.038   3.298
69210W        W42278  42.970  35.584  14.200
69211W        W42279  23.633  35.683  12.644
69212W        W42280  24.955  41.406  11.443
69213W        W42281   6.891  14.851  10.898
69214W        W42282  38.822  31.422  11.179
69215W        W42283  36.397  33.821   3.288
69216W        W42284  39.021   9.322   3.771
69217W        W42285  25.189  35.493  13.002
69218W        W42286  41.241  15.017   5.046
69219W        W42287  17.322  20.941  13.114
69220W        W42288   2.304  41.471  14.284
69221W        W42289   6.558  16.909   4.085
69222W        W42290  32.113   9.234   2.588
69223W        W42291  12.030  35.282  13.092
69224W        W42292  37.149  41.461   1.333
69225W        W42293  42.130  35.525  14.898
69226W        W42294  34.597   1.946  12.069
69227W        W42295   7.414  15.044   2.636
69228W        W42296  24.526  10.838  10.810
69229W        W42297  25.806  23.964   1.792
69230W        W42298  40.503   6.766   1.510
69231W        W42299  34.896  20.780   4.107
69232W        W42300  42.569  39.323  11.192
69233W        W42301  33.811  41.025   0.463
69234W        W42302   7.493  30.017  13.237
69235W        W42303  29.240  21.768  14.947
69236W        W42304  14.961  41.940   4.099
69237W        W42305  33.587  35.544   1.267
69238W        W42306  21.895  34.516  13.264
69239W        W42307  37.373  23.244  11.486
69240W        W42308   1.229  12.870   3.676
69241W        W42309   2.406  42.041  11.175
69242W        W42310  42.198   6.417   0.902
69243W        W42311  34.411  29.123  11.116
69244W        W42312  11.061  32.200  13.829
69245W        W42313  12.436   3.274   1.562
69246W        W42314  44.966  12.819   0.675
69247W        W42315  24.569  40.356  13.356
69248W        W42316   0.276  39.315   1.894
69249W        W42317  38.309  10.627  13.941
69250W        W42318  41.796  20.215  11.280
69251W        W42319  24.929  14.715  12.785
69252W        W42320  34.936   8.232   1.251
69253W        W42321  28.961  40.815  10.988
69254W        W42322   8.360  32.189  14.581
69255W        W42323   5.529  41.440  12.934
69256W        W42324   9.001   2.957  11.491
69257W        W42325   1.357   7.803   4.287
69258W        W42326  33.977   7.501  14.756
69259W        W42327  31.490  42.027  12.056
69260W        W42328  24.548  19.991   3.557
69261W        W42329  39.951  15.644  14.718
69262W        W42330  44.695  23.014   4.593
69263W        W42331  28.645  37.320  13.379
69264W        W42332  38.287   1.999  13.532
69265W        W42333  28.003  44.156  12.516
69266W        W42334  41.290   3.989   0.397
69267W        W42335  29.876  31.660  11.214
69268W        W42336  25.633  18.628  14.391
69269W        W42337   5.312  44.004   3.506
69270W        W42338   8.702  21.151   2.542
69271W        W42339  24.111  13.406   4.022
69272W        W42340  40.133  13.347  14.416
69273W        W42341  15.806  41.285  12.482
69274W        W42342  39.518  40.296  10.068
69275W        W42343  15.177   2.536  14.271
69276W        W42344  36.157  34.387   2.866
69277W        W42345   1.479   4.439   1.376
69278W        W42346  14.096  44.376  14.059
69279W        W42347  30.971  42.444   4.747
69280W        W42348   8.964  17.179  11.480
69281W        W42349  13.541  14.825   2.943
69282W        W42350  24.507  39.434  13.144
69283W        W42351  16.618  16.043   2.826
69284W        W42352  15.009   4.802  12.874
69285W        W42353  24.996  38.693  10.756
69286W        W42354  39.258  21.643  14.308
69287W        W42355  39.932   9.919  12.449
69288W        W42356  25.538  34.620  11.874
69289W        W42357  43.281  23.236  14.347
69290W        W42358  18.024   0.263  14.800
69291W        W42359  44.964  10.280   4.785
69292W        W42360  26.272   0.757  11.187
69293W        W42361  26.906  23.126  10.441
69294W        W42362   9.711  41.005  14.198
69295W        W42363  24.287   3.002   5.018
69296W        W42364  26.079  28.968  12.565
69297W        W42365  30.824  12.866  11.522
69298W        W42366  10.196  36.928  14.921
69299W        W42367  26.462   6.368  12.568
69300W        W42368  28.892   3.438   4.295
69301W        W42369   8.652  29.634  10.780
69302W        W42370  26.930  14.253   3.723
69303W        W42371  22.565  23.605  10.784
69304W        W42372  19.984   4.135  11.552
69305W        W42373  40.118  41.536   1.486
69306W        W42374  10.249  19.547  11.664
69307W        W42375  35.107   1.448   0.247
69308W        W42376  38.473  18.768  14.689
69309W        W42377  30.725  40.553   0.327
69310W        W42378  41.025  13.701   3.296
69311W        W42379  12.765  35.177   2.096
69312W        W42380   5.432   7.889   0.890
69313W        W42381  17.186   3.796   4.115
69314W        W42382  39.142  40.014   9.839
69315W        W42383  12.010  41.757   3.126
69316W        W42384  40.803  12.660  12.491
69317W        W42385  31.193  42.020  11.236
69318W        W42386   7.662  24.116   4.069
69319W        W42387  28.076   8.378   1.187
69320W        W42388  27.129  37.705  11.154
69321W        W42389  18.593  28.236  13.105
69322W        W42390  18.685  12.592  10.857
69323W        W42391   0.034  16.747   3.486
69324W        W42392  27.169  41.603  14.400
69325W        W42393  41.253  32.535   0.875
69326W        W42394  32.309  39.981   4.140
69327W        W42395  15.899   9.802   2.699
69328W        W42396  34.403  10.717   3.769
69329W        W42397  32.884   4.389  12.431
69330W        W42398   4.199  32.078  11.009
69331W        W42399   4.956  20.623  12.389
69332W        W42400  40.791  35.590   1.346
69333W        W42401  15.170  31.477  11.711
69334W        W42402  28.407  38.297  12.019
69335W        W42403   5.443  34.592   4.015
69336W        W42404  34.606  42.006  11.260
69337W        W42405   9.738   7.423   3.975
69338W        W42406  35.499  19.119   4.412
69339W        W42407   3.828  26.587   0.872
69340W        W42408   5.156  35.766  14.053
69341W        W42409  24.105  22.084   2.709
69342W        W42410  13.057  31.487  11.476
69343W        W42411  20.994  34.874   2.105
69344W        W42412   2.995  16.699  11.167
69345W        W42413  38.511  39.104  14.309
69346W        W42414  18.930  37.595   3.580
69347W        W42415  44.756  37.877  13.618
69348W        W42416   0.706  14.765   2.872
69349W        W42417  40.349  20.240   3.123
69350W        W42418  43.374  37.584  12.912
69351W        W42419   5.011  11.731   4.240
69352W        W42420  33.036  10.175   4.735
69353W        W42421  22.986  35.974  13.382
69354W        W42422   0.174  25.473  14.265
69355W        W42423  44.196  28.169   5.037
69356W        W42424  35.385  41.894   3.377
69357W        W42425  41.435  40.946  10.938
69358W        W42426  27.162  36.579  12.460
69359W        W42427  14.781  34.382   1.904
69360W        W42428  24.388  20.701  11.491
69361W        W42429  14.510  18.377   0.284
69362W        W42430  35.038  16.242  10.617
69363W        W42431  33.537  14.067   0.287
69364W        W42432  39.544  19.284   3.183
69365W        W42433   3.891  11.265   4.610
69366W        W42434  33.144  23.078  12.923
69367W        W42435  44.231   3.112  14.296
69368W        W42436  18.438   6.807   1.899
69369W        W42437  32.197   3.006  12.036
69370W        W42438  25.361  38.542  12.434
69371W        W42439  28.580  44.250   3.771
69372W        W42440  10.742  14.600  10.673
69373W        W42441  35.310   7.432   4.688
69374W        W42442   3.370  41.049  14.815
69375W        W42443  23.438   2.819   2.720
69376W        W42444  20.831  24.052  11.679
69377W        W42445  21.875  36.428  12.923
69378W        W42446  38.769  43.488   1.880
69379W        W42447  28.673  28.467  13.024
69380W        W42448   4.186   2.835   2.540
69381W        W42449  38.942  40.246  11.568
69382W        W42450  18.060   7.395   3.122
69383W        W42451  27.383  44.192   0.629
69384W        W42452  31.614  34.485   3.278
69385W        W42453  22.497  30.970  10.927
69386W        W42454  28.454  38.825  13.770
69387W        W42455  28.981  44.268   2.390
69388W        W42456  17.149  33.042   0.946
69389W        W42457  19.572  42.076   2.971
69390W        W42458  36.810  10.723  12.126
69391W        W42459  11.030   7.180   3.865
69392W        W42460  41.249  19.485  11.200
69393W        W42461  22.563  19.101   4.160
69394W        W42462   9.809  27.168   2.468
69395W        W42463  42.713  23.347  12.901
69396W        W42464  36.781  28.683   1.838
69397W        W42465  12.165  15.103   3.652
69398W        W42466   8.168  33.643  14.043
69399W        W42467  24.577  36.557   4.488
69400W        W42468  17.971  31.079  14.361
69401W        W42469  35.689  12.324   1.964
69402W        W42470   3.427  25.942   3.686
69403W        W42471  37.918   6.398   3.595
69404W        W42472  27.406  34.896   3.796
69405W        W42473  34.694  11.211  11.047
69406W        W42474   9.900  10.851   2.345
69407W        W42475  43.448  31.988   3.231
69408W        W42476   9.133   2.480  12.184
69409W        W42477  35.197  25.496   2.016
69410W        W42478  25.160  17.371   1.307
69411W        W42479  19.389  40.992   3.788
69412W        W42480  43.992  29.879  13.890
69413W        W42481  23.840  26.857  13.806
69414W        W42482  27.663  38.019   1.446
69415W        W42483  15.593  43.335  13.151
69416W        W42484  11.782  44.410  11.505
69417W        W42485   4.684   1.934   0.026
69418W        W42486  14.140  10.373   5.051
69419W        W42487  37.971  29.115  14.832
69420W        W42488  26.601   8.737  10.895
69421W        W42489  15.075  34.055  13.560
69422W        W42490  18.400   5.407   3.709
69423W        W42491  27.603  15.665  10.853
69424W        W42492  14.699  19.148  10.761
69425W        W42493  31.696  24.467   3.151
69426W        W42494   3.148   8.890   3.398
69427W        W42495  32.407  27.541   0.822
69428W        W42496  15.218   9.976   0.425
69429W        W42497  11.392  43.910   3.764
69430W        W42498  10.682  21.046   4.524
69431W        W42499  11.465   3.280   2.296
69432W        W42500   2.013  30.107   2.602
69433W        W42501  10.156  40.084   3.140
69434W        W42502   3.706   1.248  11.849
69435W        W42503  29.394  12.568   4.658
69436W        W42504  18.402  10.892   3.158
69437W        W42505  43.558   6.707   1.357
69438W        W42506  20.554   4.469   1.875
69439W        W42507  38.377   2.699  10.545
69440W        W42508  44.028  15.084   1.425
69441W        W42509  18.641   2.494  11.143
69442W        W42510  17.023  42.914  14.887
69443W        W42511  17.203   5.593  12.575
69444W        W42512  22.073  35.278   1.788
69445W        W42513  37.604  17.098  12.028
69446W        W42514  12.305  43.692  14.601
69447W        W42515   8.395  42.717   1.646
69448W        W42516  34.547   9.766   0.532
69449W        W42517   0.988   2.881   3.086
69450W        W42518  17.670  42.834   4.519
69451W        W42519  22.513  14.616  12.425
69452W        W42520  39.002   0.080  11.174
69453W        W42521  11.912  10.170  11.206
69454W        W42522  15.660   4.894   2.234
69455W        W42523  24.959  38.431  13.153
69456W        W42524  17.215   9.754  10.582
69457W        W42525  41.263  39.271   3.592
69458W        W42526  44.408  12.599   0.330
69459W        W42527  15.157  23.535  10.479
69460W        W42528  29.983  33.779   0.190
69461W        W42529  30.608   2.529  10.733
69462W        W42530  28.419  11.340  14.922
69463W        W42531  10.948   5.832  14.236
69464W        W42532  21.270  36.734   0.243
69465W        W42533   4.919  39.447   1.143
69466W        W42534  44.342  38.919  14.409
69467W        W42535  15.546   4.399  11.622
69468W        W42536  16.726  15.688   3.426
69469W        W42537  21.359  28.559   0.504
69470W        W42538   0.728  14.822  10.718
69471W        W42539  15.277  15.652   3.528
69472W        W42540   7.479  37.255   1.293
69473W        W42541   7.820   8.350  11.813
69474W        W42542  44.413  28.508   4.296
69475W        W42543  20.202  41.965  14.733
69476W        W42544  15.573  26.860   3.766
69477W        W42545  44.013   2.935  12.944
69478W        W42546  31.033  14.227   3.778
69479W        W42547  34.873  36.450  13.300
69480W        W42548  11.386  34.838   2.801
69481W        W42549  42.062  29.922   0.360
69482W        W42550  26.946  24.922   5.028
69483W        W42551  25.954   6.053   2.754
69484W        W42552  28.455  20.942   2.112
69485W        W42553  37.923  43.548  13.466
69486W        W42554  30.172   8.638   4.875
69487W        W42555  20.111  26.617  14.971
69488W        W42556  20.640  43.973   2.068
69489W        W42557  31.906   6.944   3.131
69490W        W42558  18.698   0.500  12.353
69491W        W42559  20.129  12.148   1.795
69492W        W42560   1.753   6.388  11.220
69493W        W42561  38.862  23.516   0.005
69494W        W42562  31.627   2.762  10.775
69495W        W42563  42.370  18.286   0.477
69496W        W42564  35.121  14.347   3.731
69497W        W42565  32.335  36.246  12.106
69498W        W42566  22.465  16.137  12.070
69499W        W42567  27.913  20.672  12.376
69500W        W42568  20.607  14.991  13.856
69501W        W42569  42.771   2.533  12.565
69502W        W42570  39.820  36.036   3.575
69503W        W42571  31.069  28.168   4.539
69504W        W42572  32.759  34.419   2.758
69505W        W42573  40.874  22.815   4.253
69506W        W42574  37.565  16.656  10.623
69507W        W42575   6.357  23.709   3.752
69508W        W42576  21.625  20.133  12.940
69509W        W42577   9.457  22.406  12.753
69510W        W42578   7.941  32.361   2.772
69511W        W42579  38.508   4.725  12.455
69512W        W42580  43.962  26.233  10.792
69513W        W42581  33.257   4.250   4.308
69514W        W42582   6.129  35.831  10.359
69515W        W42583   2.004  22.261  11.015
69516W        W42584  26.874  34.131  11.892
69517W        W42585  12.088   3.187   3.125
69518W        W42586  29.431  12.101   1.742
69519W        W42587  20.772  28.471  14.409
69520W        W42588  34.488  23.320   4.162
69521W        W42589  42.039   9.992  14.831
69522W        W42590  32.344  39.533  14.413
69523W        W42591  18.271  25.161   0.317
69524W        W42592  37.558  20.534   4.504
69525W        W42593  35.394   0.606   3.703
69526W        W42594  20.808  40.055  14.760
69527W        W42595   7.366  19.580  11.439
69528W        W42596  35.411   2.004   1.407
69529W        W42597   1.845  27.295  12.044
69530W        W42598  17.666  28.485  12.188
69531W        W42599   0.128   8.546  14.509
69532W        W42600  40.258  13.423  11.462
69533W        W42601  37.927  24.112  10.564
69534W        W42602  12.219  31.595   1.880
69535W        W42603  26.598  26.464  13.981
69536W        W42604  24.655  41.757  13.332
69537W        W42605  26.677  21.811   4.200
69538W        W42606  11.327   1.748   4.516
69539W        W42607  20.867  28.693   3.712
69540W        W42608  19.486  37.102  14.832
69541W        W42609  15.689  42.534   3.894
69542W        W42610  17.830  37.090  11.473
69543W        W42611  36.781   0.458   4.382
69544W        W42612  21.744   0.425   4.059
69545W        W42613  28.700  10.153  14.227
69546W        W42614  44.021  25.619  12.614
69547W        W42615   5.675  30.720  12.434
69548W        W42616  12.329  39.471  11.650
69549W        W42617  21.419  25.563  13.775
69550W        W42618  26.941  26.650  12.640
69551W        W42619   0.411   1.264   0.694
69552W        W42620   9.882  28.981  11.460
69553W        W42621   4.347  13.234  12.188
69554W        W42622  16.091  13.678   4.686
69555W        W42623  20.336  14.073   2.880
69556W        W42624   8.459  40.071   1.881
69557W        W42625   3.418  43.534   4.246
69558W        W42626  29.139   7.363   1.510
69559W        W42627  24.987  40.559   3.695
69560W        W42628  17.601   7.334   2.850
69561W        W42629  39.575  43.709  12.424
69562W        W42630  23.729  28.961  14.593
69563W        W42631  33.298  26.005  13.913
69564W        W42632  37.603  31.564   2.297
69565W        W42633  42.689  26.648   4.006
69566W        W42634  44.723  11.427  11.653
69567W        W42635  10.607  22.576  10.618
69568W        W42636   3.178  31.764  13.157
69569W        W42637  12.204  37.232  12.005
69570W        W42638   3.394  38.520  13.143
69571W        W42639  36.024  20.351  13.374
69572W        W42640   7.791  43.416   1.149
69573W        W42641  10.172  38.384   3.208
69574W        W42642  32.526  33.946   2.695
69575W        W42643  20.547  30.830   0.289
69576W        W42644  34.111  40.924   4.344
69577W        W42645  22.980  15.177  14.800
69578W        W42646  17.941  27.163   3.083
69579W        W42647  34.518  40.789   4.758
69580W        W42648  14.543  33.748  11.703
69581W        W42649  30.917  26.993  11.607
69582W        W42650   1.862   6.499   2.707
69583W        W42651   2.471  22.534  14.388
69584W        W42652   0.362   7.652   3.873
69585W        W42653   6.435  23.388   1.505
69586W        W42654  18.744  25.679  11.921
69587W        W42655  42.190  33.928  10.721
69588W        W42656  23.910   4.692   0.732
69589W        W42657  14.124   1.617  11.002
69590W        W42658   1.514  12.795   4.111
69591W        W42659  24.223   7.235   3.683
69592W        W42660  31.663  28.916  11.548
69593W        W42661   6.631  34.964  14.484
69594W        W42662  38.606  11.536  14.343
69595W        W42663  23.493   1.456  12.950
69596W        W42664  36.167  27.948  12.931
69597W        W42665   1.390  20.562  13.865
69598W        W42666  30.709  35.017  12.908
69599W        W42667  23.485  35.111  12.487
69600W        W42668  25.218  24.317  12.697
69601W        W42669  14.639   8.105   1.498
69602W        W42670  19.688  42.246  10.686
69603W        W42671  29.165  30.621   3.746
69604W        W42672   4.312  26.519   3.716
69605W        W42673  37.856   1.616   3.184
69606W        W42674  28.618   1.446   0.125
69607W        W42675  44.578  33.978  11.495
69608W        W42676  21.332   9.274  11.451
69609W        W42677  21.424  42.075   3.009
69610W        W42678  21.148  18.491  14.940
69611W        W42679  43.881   1.347  13.988
69612W        W42680  29.157  12.317  11.558
69613W        W42681  15.274  11.725  11.266
69614W        W42682  20.704  39.486   4.028
69615W        W42683  38.284  36.154  11.597
69616W        W42684   5.684  15.744  11.078
69617W        W42685   8.775   4.267  13.077
69618W        W42686   1.756  43.256  10.701
69619W        W42687  34.019  41.387   4.116
69620W        W42688   4.457   0.691   0.874
69621W        W42689  39.246   8.531   1.550
69622W        W42690   4.650  25.186  10.946
69623W        W42691  34.573   6.919   2.947
69624W        W42692  15.299   7.132   3.677
69625W        W42693   0.375   3.689   0.758
69626W        W42694  25.649  23.715   1.344
69627W        W42695  34.475  29.513  11.567
69628W        W42696  20.593  32.869  12.437
69629W        W42697  36.876  44.747   0.161
69630W        W42698  33.005   5.356  14.144
69631W        W42699  19.950  13.686   2.803
69632W        W42700  11.519  31.924  13.825
69633W        W42701  33.437  20.031   2.559
69634W        W42702   4.395  11.695   4.495
69635W        W42703  21.721  10.164   2.205
69636W        W42704  14.331  34.143   1.903
69637W        W42705  38.569   5.755  12.284
69638W        W42706  41.609  32.613  10.729
69639W        W42707   5.982  28.078   0.840
69640W        W42708  36.991  41.916   1.139
69641W        W42709   2.828  32.348  12.036
69642W        W42710   7.680  29.520  12.502
69643W        W42711  42.452  36.368  14.311
69644W        W42712  36.351  27.877   4.163
69645W        W42713  30.845  13.869  12.372
69646W        W42714  31.081  12.424   0.774
69647W        W42715   8.872  39.811   1.685
69648W        W42716  37.268   2.071  12.010
69649W        W42717  19.687  42.496   4.172
69650W        W42718  24.805  26.142  14.860
69651W        W42719  26.668  12.341  13.322
69652W        W42720  17.605  34.007  14.023
69653W        W42721  20.014   6.978  14.756
69654W        W42722  26.646  10.104  13.589
69655W        W42723  17.724  37.878  11.100
69656W        W42724  10.614  27.839   0.504
69657W        W42725  28.600   1.438  13.598
69658W        W42726  33.159  30.864  11.362
69659W        W42727  40.317  20.624  14.335
69660W        W42728  36.357  14.826  11.383
69661W        W42729  27.184   8.403  13.899
69662W        W42730  24.903  26.786   0.247
69663W        W42731  14.507  15.083  14.908
69664W        W42732  26.714   4.911   0.386
69665W        W42733   3.696  22.643   4.802
69666W        W42734  28.588  42.062  10.745
69667W        W42735  16.258  13.411   1.083
69668W        W42736  20.461   5.422   1.265
69669W        W42737   8.060  31.726   4.063
69670W        W42738   5.251   0.135  13.359
69671W        W42739  32.140   1.464   2.330
69672W        W42740   6.320   4.455  14.081
69673W        W42741  11.689   8.989   0.814
69674W        W42742   8.178  38.493  13.972
69675W        W42743   2.186  10.181   1.229
69676W        W42744   9.818  19.049   1.592
69677W        W42745  10.701   4.769   4.617
69678W        W42746  10.959  11.688   4.551
69679W        W42747  11.218  35.811   2.443
69680W        W42748   5.197  25.351  11.761
69681W        W42749   9.148  32.858   0.252
69682W        W42750  17.129  12.305   3.378
69683W        W42751   1.816  18.625   1.336
69684W        W42752   9.880  41.374   2.796
69685W        W42753  17.765  25.954  11.415
69686W        W42754  29.555  44.257   3.722
69687W        W42755  32.612  40.365   3.826
69688W        W42756   3.681  17.890   4.039
69689W        W42757   0.908  31.732  10.751
69690W        W42758  33.087   8.099   2.818
69691W        W42759  27.697  42.481  11.106
69692W        W42760   6.821   8.970   4.861
69693W        W42761  11.093  15.238  14.779
69694W        W42762  39.841  32.448   4.026
69695W        W42763  42.480  20.095  10.672
69696W        W42764   5.021   4.363  12.991
69697W        W42765  17.779  34.926  13.377
69698W        W42766  21.002   2.397  12.515
69699W        W42767  25.453  43.696  11.631
69700W        W42768  19.248  40.919  12.940
69701W        W42769  33.632   7.731  13.416
69702W        W42770  33.993  43.297  10.774
69703W        W42771  30.574  20.210   0.689
69704W        W42772  37.952  25.471  11.051
69705W        W42773  18.614  43.520  12.534
69706W        W42774  19.887  16.474  10.760
69707W        W42775  31.341  38.916   3.186
69708W        W42776   5.734  31.957   5.027
69709W        W42777  33.878   6.617  14.911
69710W        W42778  11.187  34.127   0.918
69711W        W42779  30.889  32.352   1.947
69712W        W42780  39.934  28.354   2.391
69713W        W42781  17.970  21.567  13.199
69714W        W42782  26.042  14.043   4.127
69715W        W42783  19.487  36.332  11.502
69716W        W42784   8.366  44.859  11.164
69717W        W42785  32.875   5.936   0.329
69718W        W42786   3.811   6.803   0.390
69719W        W42787  20.045  28.486   4.134
69720W        W42788  40.039  11.014   4.088
69721W        W42789  37.106  15.860  14.322
69722W        W42790   8.723   1.962   4.479
69723W        W42791  35.891  35.579  13.039
69724W        W42792  43.975   3.146   3.110
69725W        W42793   9.783   1.443   0.199
69726W        W42794   5.338  11.004   3.654
69727W        W42795   9.458  22.258   0.853
69728W        W42796  34.421  32.092   2.827
69729W        W42797  14.230   7.319   0.843
69730W        W42798  14.112   2.944  13.301
69731W        W42799  41.491   9.648   2.286
69732W        W42800  41.274  44.433   1.259
69733W        W42801  16.057  39.404  13.783
69734W        W42802   8.108  39.922  13.760
69735W        W42803   7.081  19.237  12.600
69736W        W42804  27.008  21.607   3.623
69737W        W42805  42.837  12.019   4.613
69738W        W42806  11.159  14.291   4.112
69739W        W42807   1.257  30.526   3.645
69740W        W42808  20.438   5.209   4.850
69741W        W42809  30.978  33.158   3.726
69742W        W42810   5.854  11.766   1.697
69743W        W42811  32.985  17.871   2.362
69744W        W42812  25.232  21.610  12.008
69745W        W42813  12.310  20.132  14.122
69746W        W42814  40.494  16.618  11.005
69747W        W42815  10.614  28.028   5.059
69748W        W42816   2.374  24.220  14.849
69749W        W42817  18.704  44.842   3.184
69750W        W42818  32.278   8.531  13.793
69751W        W42819  20.561  40.017   2.864
69752W        W42820  29.001   7.764  12.974
69753W        W42821  17.596  25.153  13.524
69754W        W42822  42.545   4.695  12.309
69755W        W42823   3.784  21.581  14.428
69756W        W42824  12.991  17.309  10.936
69757W        W42825  15.218  23.049   2.405
69758W        W42826  33.352  38.352  10.608
69759W        W42827  29.930   4.966   3.600
69760W        W42828  42.116  35.354  10.513
69761W        W42829  16.883  35.016   4.038
69762W        W42830  15.151   9.275  14.002
69763W        W42831  26.538  40.560  13.936
69764W        W42832  37.524  33.414  13.356
69765W        W42833  33.802  22.570   1.318
69766W        W42834   6.718  27.023   4.819
69767W        W42835  44.506  29.864  11.659
69768W        W42836  21.313  30.841   4.576
69769W        W42837  37.887  26.582   4.677
69770W        W42838   3.484  18.704   0.921
69771W        W42839  14.747  19.689  10.690
69772W        W42840   1.490  27.236  11.534
69773W        W42841  44.437  27.521   3.408
69774W        W42842  43.461   2.026   4.622
69775W        W42843  40.224  39.423   0.823
69776W        W42844  33.582  27.783   1.796
69777W        W42845  32.008  30.884  11.707
69778W        W42846  36.450  36.015   2.644
69779W        W42847  28.021  40.738   0.027
69780W        W42848   8.552  44.542   0.858
69781W        W42849  24.260  32.071  14.065
69782W        W42850  17.235   1.302  12.159
69783W        W42851  21.267  19.570   0.292
69784W        W42852  35.778  43.386  12.350
69785W        W42853   0.431   9.194   2.803
69786W        W42854  44.937  41.468  10.808
69787W        W42855  34.437   5.746   3.888
69788W        W42856  25.942  27.380  10.679
69789W        W42857  44.727   8.176   3.813
69790W        W42858  21.736  23.650   1.316
69791W        W42859  26.645  12.678   1.402
69792W        W42860  10.403  37.892   3.296
69793W        W42861  21.547  18.198  11.405
69794W        W42862  20.589  23.954   2.384
69795W        W42863  38.476  38.332  13.415
69796W        W42864  33.761  26.849   3.661
69797W        W42865  28.358  43.401  11.163
69798W        W42866   7.062   1.579   0.923
69799W        W42867  25.748  14.911  12.356
69800W        W42868  26.456   8.144  14.576
69801W        W42869  29.941  38.428   4.152
69802W        W42870  23.635  33.031  11.277
69803W        W42871  36.649   1.367   1.800
69804W        W42872  11.228   0.587   0.546
69805W        W42873  44.443   8.183   0.954
69806W        W42874  34.051  14.210   0.346
69807W        W42875  18.669   9.835   2.895
69808W        W42876  20.188  36.963   4.581
69809W        W42877  42.805  20.274   2.789
69810W        W42878   8.254  25.369   0.954
69811W        W42879  19.116  32.131  13.621
69812W        W42880  16.305  14.108   3.858
69813W        W42881  20.196  36.184  13.354
69814W        W42882  37.658   4.953   1.367
69815W        W42883  14.337   6.214   0.485
69816W        W42884  23.685  30.512   0.935
69817W        W42885  42.508  38.853  12.466
69818W        W42886  43.287  18.585   1.650
69819W        W42887  23.990   0.615   0.565
69820W        W42888  38.312  34.308  12.000
69821W        W42889  16.351  25.645   0.972
69822W        W42890  26.477   1.675   4.072
69823W        W42891  22.727  43.942   1.214
69824W        W42892   3.023   8.446  14.543
69825W        W42893  44.551  40.500  11.130
69826W        W42894  35.137  16.150   0.389
69827W        W42895  27.702   2.880   4.068
69828W        W42896   3.248  20.131  12.506
69829W        W42897  14.454  24.122  12.361
69830W        W42898  25.136  17.124  14.475
69831W        W42899  12.287  17.531  10.740
69832W        W42900  18.529  10.885   3.696
69833W        W42901  21.544  37.293  12.059
69834W        W42902   3.160  35.951  10.189
69835W        W42903  34.500   2.227  12.505
69836W        W42904  16.227  36.984   3.281
69837W        W42905  34.762  44.525   3.281
69838W        W42906  37.349  24.810  14.488
69839W        W42907  33.197  31.590   3.203
69840W        W42908  34.453  32.981  13.365
69841W        W42909  38.934  41.982  12.126
69842W        W42910  20.481   3.588  12.969
69843W        W42911   4.812  25.119  11.443
69844W        W42912  32.879   7.853   0.667
69845W        W42913  35.264  25.709  10.713
69846W        W42914  44.806  20.592   4.832
69847W        W42915  41.713  20.248  12.987
69848W        W42916  34.361  21.214  13.425
69849W        W42917  36.876  34.332  12.148
69850W        W42918  18.262   5.763   4.110
69851W        W42919  10.401   6.421  14.826
69852W        W42920  33.787  29.919   1.844
69853W        W42921  31.428  25.424  12.598
69854W        W42922  21.545  22.145  11.814
69855W        W42923  35.018  25.461   4.735
69856W        W42924  18.713   3.025   2.395
69857W        W42925  41.053  20.736   1.768
69858W        W42926  21.398  21.771  13.186
69859W        W42927  37.829  27.592   2.764
69860W        W42928   2.231  14.648  10.732
69861W        W42929   1.705  33.440   1.778
69862W        W42930   1.379  24.447   1.756
69863W        W42931  37.951  39.463   3.885
69864W        W42932  44.547   7.915  13.514
69865W        W42933  13.650  34.141   4.666
69866W        W42934   8.291  18.199   1.256
69867W        W42935   2.741  36.632  12.873
69868W        W42936  39.557   4.796  10.980
69869W        W42937  22.512  34.933   3.269
69870W        W42938  25.376   6.179   4.059
69871W        W42939  40.793   6.687   1.104
69872W        W42940  31.740   1.737   2.137
69873W        W42941   0.780  30.447   0.317
69874W        W42942  36.795  19.589   3.663
69875W        W42943  23.224  20.129  14.251
69876W        W42944  32.415   5.158  11.108
69877W        W42945  36.063  33.458   4.343
69878W        W42946   9.310  35.513   0.225
69879W        W42947  33.954  12.434   2.803
69880W        W42948  24.712   7.335   3.568
69881W        W42949  38.498   5.400  11.900
69882W        W42950  37.444  23.804  14.657
69883W        W42951   3.569  11.213  14.620
69884W        W42952  25.105   3.429   0.251
69885W        W42953  32.434  31.172  14.398
69886W        W42954  14.981  40.386   1.285
69887W        W42955  29.614  35.958   1.456
69888W        W42956   1.168  42.510   2.291
69889W        W42957  20.061  25.075   1.656
69890W        W42958   5.870  35.892   3.201
69891W        W42959  19.397  11.272   2.158
69892W        W42960  25.448  29.447   4.588
69893W        W42961  39.649  19.548   2.750
69894W        W42962  15.326  19.696  10.813
69895W        W42963  12.645  23.497   1.431
69896W        W42964   8.742  31.859   3.544
69897W        W42965  30.523  24.502  12.884
69898W        W42966  18.425  34.434  13.899
69899W        W42967  27.011  37.062   0.389
69900W        W42968  18.293  42.002   2.327
69901W        W42969  29.807  42.516   3.617
69902W        W42970  39.376  36.092   3.838
69903W        W42971  18.278  38.173  12.819
69904W        W42972  16.219   7.945   2.769
69905W        W42973  10.990  34.237   2.803
69906W        W42974  24.649  41.716   3.815
69907W        W42975  33.022  38.663   3.888
69908W        W42976   5.209  15.740  12.469
69909W        W42977  11.576  34.432  11.380
69910W        W42978  42.270  26.727  13.012
69911W        W42979  41.962  41.693   4.714
69912W        W42980  22.640  11.425   1.821
69913W        W42981  22.497  33.449  12.586
69914W        W42982  39.705   8.285  13.038
69915W        W42983  33.566  29.039  11.951
69916W        W42984  27.908  31.921  13.359
69917W        W42985   2.136   5.677   4.777
69918W        W42986  10.272  40.976  10.665
69919W        W42987  27.449  22.663  13.261
69920W        W42988  16.240  31.410   2.880
69921W        W42989  26.407   1.735   2.037
69922W        W42990   2.000  32.710   3.278
69923W        W42991  25.502  35.539   4.565
69924W        W42992  32.668  13.818   3.343
69925W        W42993   0.709  17.034   4.572
69926W        W42994  14.291   8.799  10.667
69927W        W42995  26.212  32.951  11.481
69928W        W42996  40.419  44.690  10.723
69929W        W42997  24.961  21.369   2.165
69930W        W42998  43.546  24.694   3.410
69931W        W42999  35.916  11.992  12.592
69932W        W43000  38.312  43.482   2.165
69933W        W43001  12.201  25.898   1.333
69934W        W43002   1.849  27.237   1.803
69935W        W43003  24.671  39.891   2.013
69936W        W43004  23.371   1.952  14.596
69937W        W43005  30.326   1.329   3.946
69938W        W43006  25.984  13.710  10.785
69939W        W43007  10.129   1.709  13.483
69940W        W43008  21.790  34.803   1.835
69941W        W43009  32.053  20.159  14.291
69942W        W43010  39.837   1.298   2.288
69943W        W43011   4.332  12.944   3.362
69944W        W43012  15.074  43.273   4.178
69945W        W43013   7.589  35.550  13.435
69946W        W43014  19.763   8.087   2.875
69947W        W43015  44.469   6.895  14.416
69948W        W43016  42.328  15.272   0.852
69949W        W43017  14.796  30.139  10.886
69950W        W43018   9.402   5.597   4.372
69951W        W43019  40.650  44.904  10.299
69952W        W43020  41.440   5.325  14.510
69953W        W43021  17.185  28.609  10.765
69954W        W43022  29.573  28.952   1.966
69955W        W43023  40.980   8.138  12.000
69956W        W43024  13.752  41.697   2.848
69957W        W43025   4.655  27.210  11.103
69958W        W43026  30.199  19.079  13.098
69959W        W43027  41.375  40.404   0.305
69960W        W43028  25.070  10.410  13.674
69961W        W43029  25.708  20.713  13.841
69962W        W43030  14.913  39.069  14.501
69963W        W43031   1.501  15.181  14.467
69964W        W43032  34.383  35.993   0.922
69965W        W43033   0.652  31.164   0.974
69966W        W43034  33.498  26.203  11.550
69967W        W43035  11.656  12.046   2.852
69968W        W43036   1.287   3.996  10.730
69969W        W43037  36.004   3.367   4.256
69970W        W43038   5.203  38.732   1.464
69971W        W43039  38.468   9.925  10.300
69972W        W43040  26.517  24.729   1.815
69973W        W43041  37.319  25.045   3.093
69974W        W43042  17.498  33.437   0.841
69975W        W43043   3.663  35.844  13.442
69976W        W43044   5.248  10.251   1.508
69977W        W43045  44.435  15.032  11.128
69978W        W43046  40.308  27.647   0.309
69979W        W43047   8.555   3.856  13.326
69980W        W43048   3.143  31.591   1.262
69981W        W43049  32.690  28.382  13.943
69982W        W43050  42.478  44.849  14.476
69983W        W43051  20.160   3.694   0.362
69984W        W43052  33.144  25.210   1.230
69985W        W43053   9.249  13.268   4.737
69986W        W43054  15.160   7.868  11.857
69987W        W43055  24.346  32.382   0.321
69988W        W43056  35.093  12.893  11.604
69989W        W43057  15.099  26.187   2.406
69990W        W43058  41.855  33.856   0.783
69991W        W43059  43.911  38.761   4.630
69992W        W43060  40.832  35.325   2.588
69993W        W43061  39.355  41.967   1.727
69994W        W43062   2.753   7.763  12.221
69995W        W43063   4.404  39.842  11.658
69996W        W43064   2.037  16.817   1.751
69997W        W43065  39.877  32.901   0.256
69998W        W43066  44.089   3.199  12.451
69999W        W43067   7.475  31.957  14.892
70000W        W43068   5.846  29.444  10.687
70001W        W43069  17.452  36.630   1.631
70002W        W43070   2.103  15.704  13.410
70003W        W43071  39.866  39.055   1.518
70004W        W43072   0.463  29.154  11.597
70005W        W43073   5.290   3.236   3.180
70006W        W43074  27.678  29.032  12.013
70007W        W43075  15.107   5.715   3.413
70008W        W43076  42.512   3.147   0.464
70009W        W43077   0.210  13.503  14.485
70010W        W43078  23.167  39.281   4.766
70011W        W43079  15.716   3.360   4.710
70012W        W43080  44.988  28.403   0.868
70013W        W43081  12.228  38.877   3.826
70014W        W43082   5.869  36.083  12.324
70015W        W43083   5.529  16.351  10.952
70016W        W43084  13.210  44.990   4.204
70017W        W43085  26.029  20.436  14.181
70018W        W43086  13.065   0.455  13.692
70019W        W43087   5.921   2.605  14.823
70020W        W43088  32.752  12.797  13.831
70021W        W43089   0.419  40.277  11.163
70022W        W43090  11.735  19.654  11.874
70023W        W43091  19.696  44.874   0.206
70024W        W43092  37.011  22.527   2.942
70025W        W43093   7.015  24.259  11.020
70026W        W43094  24.513  33.522   2.809
70027W        W43095  30.129   3.405  11.233
70028W        W43096   2.355  29.077  11.154
70029W        W43097  13.246  28.521  11.442
70030W        W43098  33.492  24.741   9.927
70031W        W43099  30.834  34.223  11.608
70032W        W43100  39.766  13.775   2.839
70033W        W43101  35.786   1.918   3.187
70034W        W43102   8.479  24.885  11.297
70035W        W43103  17.476  33.761   3.778
70036W        W43104   5.960  17.610   3.352
70037W        W43105  28.478   1.663  12.441
70038W        W43106   8.951  16.714  14.939
70039W        W43107   9.840  41.008  13.396
70040W        W43108  43.860  27.017   2.927
70041W        W43109  28.092  41.342   9.919
70042W        W43110  34.576  41.587   4.171
70043W        W43111   8.774  16.555  13.278
70044W        W43112  23.169  15.202   4.330
70045W        W43113  26.656  18.177  10.690
70046W        W43114   3.272  34.996  12.352
70047W        W43115  30.688  12.979   3.270
70048W        W43116  31.724  16.661  11.588
70049W        W43117  17.365  11.212  12.136
70050W        W43118  25.540   6.216  14.256
70051W        W43119   9.065   6.591   1.639
70052W        W43120  23.659  34.612  13.992
70053W        W43121   6.047   2.940  11.509
70054W        W43122  18.740  26.932   0.459
70055W        W43123   7.374  44.377  14.376
70056W        W43124   7.255  28.214   1.710
70057W        W43125  34.357  30.843  11.040
70058W        W43126  26.683  13.586   1.397
70059W        W43127   4.605  43.257  11.185
70060W        W43128  16.115  43.305   4.539
70061W        W43129  20.171  20.050   4.072
70062W        W43130   7.702   9.337  12.103
70063W        W43131  24.460  12.698  13.541
70064W        W43132   3.032  16.038   2.867
70065W        W43133   1.291   4.526   0.215
70066W        W43134  31.340  12.291  13.911
70067W        W43135   3.551   6.733  11.256
70068W        W43136  22.285  36.555  12.088
70069W        W43137  27.143  20.985   1.500
70070W        W43138   2.794   7.263  11.042
70071W        W43139  38.167   3.630   4.136
70072W        W43140  12.245  10.938  12.936
70073W        W43141  34.517  37.820  12.686
70074W        W43142  44.474   8.768   2.628
70075W        W43143  37.032  33.026   4.913
70076W        W43144  35.516  38.559   2.654
70077W        W43145  20.996   8.809   1.245
70078W        W43146   5.545  26.511  14.362
70079W        W43147   0.747  40.442  11.545
70080W        W43148   7.822   0.577   2.540
70081W        W43149  42.654   3.785  13.863
70082W        W43150  13.780  37.386   0.793
70083W        W43151  22.551   7.695  11.625
70084W        W43152  10.529   5.343   0.415
70085W        W43153   1.140   3.492  11.595
70086W        W43154   1.344  33.061  11.439
70087W        W43155  30.855  30.351  12.119
70088W        W43156   5.161  36.655   2.422
70089W        W43157   8.803  11.204  11.629
70090W        W43158  30.461   9.983  14.301
70091W        W43159   8.869  22.494   2.765
70092W        W43160  25.584  37.528  12.771
70093W        W43161   6.136  42.139  11.532
70094W        W43162   3.936  30.226  12.505
70095W        W43163   5.929  34.818   1.947
70096W        W43164   6.919  44.433   1.321
70097W        W43165   5.980  15.537  14.990
70098W        W43166  13.239  38.425  14.585
70099W        W43167  14.421  37.619  12.467
70100W        W43168  10.021  22.155   3.501
70101W        W43169  17.635  25.774  10.612
70102W        W43170  18.781  38.711  12.446
70103W        W43171  14.157  10.671  14.385
70104W        W43172  24.991  30.157   4.603
70105W        W43173  18.182  25.126   2.410
70106W        W43174  23.241  28.669  14.345
70107W        W43175  44.526   9.633   0.454
70108W        W43176   2.779   6.679   4.126
70109W        W43177  24.983  35.135  12.371
70110W        W43178  17.230  42.302   1.448
70111W        W43179  29.078   1.379   4.402
70112W        W43180  37.163   7.979  13.926
70113W        W43181  28.600   6.659  13.534
70114W        W43182  39.075   6.521   1.729
70115W        W43183  12.629  16.565  11.544
70116W        W43184  37.974  10.593   2.397
70117W        W43185   2.676  14.758  12.329
70118W        W43186  29.625  16.468  10.676
70119W        W43187  41.444   4.200   2.240
70120W        W43188  16.985  40.366  14.933
70121W        W43189   8.786   8.848  11.374
70122W        W43190  10.945   5.726  10.631
70123W        W43191  38.484   7.295  12.063
70124W        W43192   5.655  36.824  12.467
70125W        W43193  36.054   5.266  13.683
70126W        W43194  23.888  31.900   4.084
70127W        W43195  38.578  34.551  10.702
70128W        W43196  27.489  36.757  12.075
70129W        W43197  11.715   1.430  13.825
70130W        W43198  33.658  33.133  14.345
70131W        W43199   2.344  35.496  12.057
70132W        W43200   3.728  20.337   0.511
70133W        W43201   4.259   7.122   3.424
70134W        W43202  14.254   0.761  13.829
70135W        W43203  44.409  38.861   0.408
70136W        W43204   4.131   0.080  14.870
70137W        W43205  34.475  19.648  13.568
70138W        W43206  44.250  35.838  11.211
70139W        W43207  28.940  18.039   1.212
70140W        W43208  16.303   8.860  11.301
70141W        W43209   0.697   3.259   0.789
70142W        W43210  12.190  19.586   4.811
70143W        W43211  41.806  22.480  13.671
70144W        W43212  42.793  28.479  12.021
70145W        W43213  10.072   4.679  13.238
70146W        W43214  20.193  25.034   4.112
70147W        W43215  29.172  16.756   4.623
70148W        W43216  22.084  26.596  13.920
70149W        W43217  32.430   7.253   0.723
70150W        W43218  37.524   2.346  10.517
70151W        W43219  28.446   7.317  11.258
70152W        W43220  14.717  18.531  11.601
70153W        W43221  32.468   5.497   4.312
70154W        W43222  26.631  24.517  11.557
70155W        W43223  33.036  33.929  13.078
70156W        W43224  43.295  33.774   3.493
70157W        W43225  43.347  37.888   2.245
70158W        W43226  44.934   1.939   0.373
70159W        W43227   2.324  35.538   3.205
70160W        W43228   8.370  41.558   3.621
70161W        W43229   2.425  37.694   1.334
70162W        W43230  10.757  11.798  13.089
70163W        W43231  42.835  22.899   5.135
70164W        W43232  29.155   7.429  12.557
70165W        W43233  19.723  27.145  12.461
70166W        W43234   9.295  36.096   3.371
70167W        W43235  18.254  34.037  11.982
70168W        W43236  40.934   2.453   3.646
70169W        W43237  26.171  27.908   3.336
70170W        W43238   8.236   3.800  14.969
70171W        W43239  21.326  35.530  14.959
70172W        W43240   5.738  26.680   4.318
70173W        W43241  42.855  24.182   3.781
70174W        W43242  22.216  38.344  11.147
70175W        W43243  24.533  35.013   3.190
70176W        W43244  40.877  34.516   4.705
70177W        W43245  35.004   2.446   2.314
70178W        W43246  15.148   2.881   3.151
70179W        W43247  37.027  29.957   1.457
70180W        W43248  27.061   8.658  13.473
70181W        W43249  20.690  22.522   2.843
70182W        W43250  41.653  43.006   2.374
70183W        W43251   2.478  36.003   4.064
70184W        W43252  28.643  24.046  12.894
70185W        W43253  35.669  20.075  14.855
70186W        W43254  44.506  27.156   0.596
70187W        W43255  10.383  22.034   2.378
70188W        W43256  34.986  22.773  11.043
70189W        W43257  41.003  43.463  14.765
70190W        W43258  27.538  32.892  14.035
70191W        W43259  43.412   4.826  10.581
70192W        W43260  14.617  34.523   4.536
70193W        W43261  34.312  39.428   4.962
70194W        W43262  21.775  13.360  12.440
70195W        W43263  39.317  29.881  14.479
70196W        W43264   6.892  27.937   0.752
70197W        W43265  26.472  36.537  11.584
70198W        W43266   6.798   7.671  13.317
70199W        W43267   5.478  35.634   0.894
70200W        W43268  31.294  44.783  13.012
70201W        W43269  34.048   1.455   1.614
70202W        W43270  11.336  30.223  13.894
70203W        W43271  28.832   5.640  13.416
70204W        W43272  22.663  27.861   3.199
70205W        W43273  12.251  41.566  11.868
70206W        W43274  22.524  22.099  12.887
70207W        W43275  26.051  43.128  10.992
70208W        W43276   4.324  33.163  13.380
70209W        W43277  43.940  19.194   2.707
70210W        W43278   2.732   3.660   2.212
70211W        W43279  21.996  28.249  10.626
70212W        W43280  38.351  26.643  13.016
70213W        W43281  20.496  25.618  11.208
70214W        W43282  41.961   8.592  10.102
70215W        W43283  34.116  36.436   2.606
70216W        W43284  19.858  20.185   3.388
70217W        W43285  42.562  23.925  14.337
70218W        W43286   1.612  29.530  11.111
70219W        W43287   9.194  17.613  12.504
70220W        W43288  44.741   0.728   2.395
70221W        W43289   5.361  19.356   4.548
70222W        W43290   7.414  10.225   1.718
70223W        W43291  24.697   7.317  13.920
70224W        W43292  26.222  36.616  14.398
70225W        W43293  16.334   5.800   0.946
70226W        W43294  30.710   0.079  14.624
70227W        W43295  14.996  24.431  11.019
70228W        W43296  41.263  25.519   3.844
70229W        W43297  41.419   1.772   4.706
70230W        W43298   2.722  23.960   0.365
70231W        W43299  31.839  33.899  10.473
70232W        W43300  41.227  42.122   0.968
70233W        W43301  18.818  28.097  12.625
70234W        W43302  36.882   3.442   0.227
70235W        W43303  25.235  21.629  11.157
70236W        W43304  38.493  31.611   3.052
70237W        W43305  13.307  11.167   2.311
70238W        W43306   5.397   4.900   0.862
70239W        W43307  13.222  22.336  12.063
70240W        W43308  11.938  20.470  12.139
70241W        W43309  33.173  11.426  11.238
70242W        W43310  25.560   8.408  14.285
70243W        W43311  32.849  20.889   0.854
70244W        W43312  33.417  32.243   1.208
70245W        W43313  14.364  18.618  12.572
70246W        W43314   7.806   2.392   2.449
70247W        W43315  19.528  21.039   2.284
70248W        W43316  20.169  17.771   1.417
70249W        W43317  32.282  20.530  14.594
70250W        W43318  30.298   1.721   4.594
70251W        W43319   4.595  34.357  12.175
70252W        W43320  26.108  18.168   0.023
70253W        W43321  23.884   1.857   4.699
70254W        W43322  20.908  22.033  11.728
70255W        W43323  29.759  30.118   4.158
70256W        W43324   1.168  24.586  12.493
70257W        W43325  29.078  36.862   0.178
70258W        W43326   0.262  28.033   2.147
70259W        W43327  17.221  21.578   2.335
70260W        W43328  17.810  34.156  12.205
70261W        W43329  44.493   8.250  11.104
70262W        W43330  21.444  14.227  12.675
70263W        W43331  27.320  22.008  12.604
70264W        W43332   0.753   6.188   1.710
70265W        W43333  41.405  26.642  10.332
70266W        W43334  37.394  25.057  12.005
70267W        W43335  40.998  25.067   1.464
70268W        W43336   3.343  44.949   4.870
70269W        W43337   6.922  28.934   4.109
70270W        W43338   0.032  32.968   2.679
70271W        W43339  38.946  17.739   3.025
70272W        W43340  21.131  30.567  10.271
70273W        W43341   4.913  14.076   3.644
70274W        W43342  16.649  31.648   0.683
70275W        W43343  43.616  34.071  14.854
70276W        W43344  21.669  22.282   2.729
70277W        W43345  37.313   1.737   1.341
70278W        W43346  43.197  10.964  13.690
70279W        W43347  42.734  38.339   1.832
70280W        W43348  37.799  11.700  10.660
70281W        W43349  20.546   3.461   2.564
70282W        W43350  20.886  23.431  12.824
70283W        W43351  42.428  11.619  14.065
70284W        W43352   0.533  34.312   1.693
70285W        W43353  25.087  21.093  12.320
70286W        W43354  36.112  39.323  13.353
70287W        W43355  13.214  18.377   3.364
70288W        W43356  23.230  25.238   0.722
70289W        W43357   9.943   4.197  13.440
70290W        W43358   7.931   7.139  12.133
70291W        W43359  25.178  31.038   0.770
70292W        W43360  12.378  25.046   4.791
70293W        W43361  21.544  15.508  12.824
70294W        W43362  35.535  38.591  11.307
70295W        W43363  25.120  24.145  10.757
70296W        W43364   8.398  22.958  13.972
70297W        W43365  35.179  13.978   4.110
70298W        W43366  27.183  20.381  12.023
70299W        W43367  31.679   3.523  11.073
70300W        W43368   5.151   7.748   1.343
70301W        W43369   6.318  28.414  13.425
70302W        W43370  31.757   4.312  13.854
70303W        W43371  10.613   4.207  13.983
70304W        W43372  21.193   9.686   1.099
70305W        W43373  35.994  38.585  10.451
70306W        W43374  23.585   8.436   4.627
70307W        W43375   7.742  33.157  14.787
70308W        W43376  15.521  15.236   2.690
70309W        W43377   6.584  17.534  14.787
70310W        W43378  33.488   3.262  10.526
70311W        W43379  31.503   4.424   1.724
70312W        W43380  38.586  25.492   2.423
70313W        W43381  15.865  40.165  11.607
70314W        W43382   9.814  30.753  11.129
70315W        W43383  21.147  24.633   1.841
70316W        W43384  22.129  26.759  11.924
70317W        W43385  24.091  25.030   2.430
70318W        W43386  32.003   0.724  10.763
70319W        W43387  30.519  28.912   3.075
70320W        W43388  15.651   2.116   1.236
70321W        W43389  39.714  15.224   2.302
70322W        W43390  30.587  28.030  13.788
70323W        W43391  11.341  34.518   2.406
70324W        W43392  44.838  18.287   2.332
70325W        W43393  18.753  11.710  11.192
70326W        W43394  29.954  33.671   2.875
70327W        W43395  40.040  32.858   1.187
70328W        W43396   9.563   0.961   2.721
70329W        W43397  26.314  41.179  13.359
70330W        W43398  34.563  26.408  10.644
70331W        W43399  21.039  23.770  12.038
70332W        W43400  30.813  13.266   1.897
70333W        W43401   5.808  43.877  13.636
70334W        W43402  39.612  17.451  14.155
70335W        W43403  13.382  35.136  11.462
70336W        W43404  28.077  18.657   3.379
70337W        W43405  37.843  43.966   4.182
70338W        W43406  16.632  19.425   0.378
70339W        W43407  10.012  15.908   5.110
70340W        W43408  21.648  38.394   3.743
70341W        W43409  23.489  11.844   0.803
70342W        W43410  15.109   9.898  14.871
70343W        W43411  22.568  14.491   3.331
70344W        W43412  15.786   2.260   1.707
70345W        W43413  38.933   3.803   2.639
70346W        W43414   4.869   8.525  14.377
70347W        W43415   5.272  14.615  13.889
70348W        W43416  35.975  37.596   3.093
70349W        W43417  26.636  14.244  13.047
70350W        W43418   4.058  20.016   3.668
70351W        W43419   9.947  10.406   2.102
70352W        W43420  11.077  39.143  13.445
70353W        W43421  12.811   8.767   2.714
70354W        W43422   9.833  27.620   3.177
70355W        W43423  16.245  25.809  13.113
70356W        W43424  34.618  19.663   5.189
70357W        W43425  17.277  44.971  12.040
70358W        W43426  14.379  30.168   2.191
70359W        W43427   2.973  23.407  14.601
70360W        W43428  35.098  18.191   4.261
70361W        W43429  13.184   9.661  13.429
70362W        W43430  42.902  34.023   4.579
70363W        W43431  12.059  29.608   2.603
70364W        W43432  13.115  15.765   4.050
70365W        W43433  22.581  22.072   0.363
70366W        W43434  33.976  11.593  11.125
70367W        W43435   4.417   3.161   1.500
70368W        W43436  38.013  40.466   2.766
70369W        W43437  12.762  11.680  13.770
70370W        W43438  25.110  18.410  10.504
70371W        W43439  28.608  22.496   1.701
70372W        W43440  18.156  43.521   1.166
70373W        W43441  29.972  30.578   1.905
70374W        W43442  15.254  44.391  11.484
70375W        W43443   9.182  16.166  13.829
70376W        W43444  38.519   1.529  14.668
70377W        W43445  19.003  16.318   0.685
70378W        W43446   7.769  38.875  11.596
70379W        W43447   7.477  38.073   0.694
70380W        W43448   1.913  20.745  14.732
70381W        W43449  41.792   7.838   2.193
70382W        W43450  33.228  36.667  11.934
70383W        W43451  14.056  28.148  14.410
70384W        W43452  27.542  11.438  12.826
70385W        W43453  34.122   9.086  13.317
70386W        W43454   5.387   7.266  13.970
70387W        W43455   8.901  41.525  12.437
70388W        W43456  24.025   8.166   4.570
70389W        W43457  31.467  41.713   3.664
70390W        W43458  33.067  12.338  14.471
70391W        W43459  32.155   6.926   4.633
70392W        W43460  17.310  12.110   4.814
70393W        W43461  34.049  41.899  10.520
70394W        W43462  19.138  31.919  12.121
70395W        W43463  34.549  28.238  12.107
70396W        W43464  26.768  13.361  11.004
70397W        W43465  10.313  29.093   0.597
70398W        W43466  33.878  28.116   2.304
70399W        W43467  37.504  29.443  12.855
70400W        W43468  42.488  42.149  10.723
70401W        W43469  36.466   3.745  13.935
70402W        W43470   0.257  20.197  10.386
70403W        W43471   4.718   3.484   4.280
70404W        W43472   1.479  18.231   0.875
70405W        W43473  28.464  27.072  11.312
70406W        W43474  23.941  39.079   0.850
70407W        W43475  21.517  22.703  14.594
70408W        W43476   1.439  40.932  13.585
70409W        W43477  21.858  38.936   2.282
70410W        W43478  41.999  41.866  10.585
70411W        W43479  22.054  19.827  12.911
70412W        W43480  18.116  38.164  14.405
70413W        W43481   3.098   9.105  11.136
70414W        W43482  25.936   2.882  14.736
70415W        W43483   8.883  41.506  11.555
70416W        W43484  26.521  36.065  14.082
70417W        W43485  42.429  12.722  13.314
70418W        W43486  35.546   4.451   1.327
70419W        W43487   6.402  31.508   0.746
70420W        W43488  17.895  19.025  12.941
70421W        W43489  37.224  19.009  12.067
70422W        W43490  30.509  40.275   2.554
70423W        W43491  23.102  43.883   3.830
70424W        W43492  33.327  30.370   2.720
70425W        W43493  17.020  15.345   3.693
70426W        W43494  13.158  43.421  11.616
70427W        W43495  18.907  40.427  13.275
70428W        W43496  33.566   1.050   3.230
70429W        W43497  11.162  33.544  13.779
70430W        W43498  20.170   0.506   4.322
70431W        W43499  41.656  25.117   0.354
70432W        W43500  16.119  33.124  11.252
70433W        W43501  43.606  33.577  12.874
70434W        W43502  29.476  23.122  10.921
70435W        W43503   1.415   2.861   4.601
70436W        W43504   2.440  42.826  11.576
70437W        W43505  38.036  41.049  12.393
70438W        W43506  16.687   7.708   0.008
70439W        W43507  25.185  36.646   3.344
70440W        W43508  34.355  30.712   3.677
70441W        W43509  16.867   2.393  11.455
70442W        W43510  18.363   8.979  14.451
70443W        W43511   6.693  17.885  11.973
70444W        W43512   5.812  26.509   2.794
70445W        W43513  14.785  38.523   4.578
70446W        W43514  40.932  32.614  11.423
70447W        W43515  42.365  13.100  12.977
70448W        W43516  11.390  26.619  13.490
70449W        W43517  37.543   4.207  10.599
70450W        W43518  16.327  33.886  13.547
70451W        W43519   7.857  26.987   4.715
70452W        W43520   8.699  24.536  11.943
70453W        W43521  43.350  42.770   0.508
70454W        W43522   2.887  44.428  11.648
70455W        W43523  36.817  10.733  12.723
70456W        W43524  35.826  32.505  12.623
70457W        W43525  19.744  22.993  14.320
70458W        W43526   3.336   9.329  12.089
70459W        W43527   9.681  19.750   4.007
70460W        W43528  21.445   4.758  12.488
70461W        W43529  14.224  14.523   0.674
70462W        W43530  12.158  34.452   2.250
70463W        W43531  10.222  16.195   4.344
70464W        W43532  39.220  23.659  13.600
70465W        W43533  13.838  17.740   4.514
70466W        W43534  39.124  10.840  11.927
70467W        W43535  18.418  25.687   3.138
70468W        W43536  26.095  34.482   2.169
70469W        W43537  11.138   6.251   2.288
70470W        W43538  42.218  16.141  13.923
70471W        W43539  21.500  39.939  12.986
70472W        W43540   8.597  13.466   1.048
70473W        W43541   0.375  35.847   2.809
70474W        W43542  43.040  41.011   1.279
70475W        W43543  26.909  13.744  13.994
70476W        W43544   7.686   1.241  11.566
70477W        W43545  36.393  34.176  14.842
70478W        W43546  39.045   4.612  12.940
70479W        W43547  33.149   4.461   0.928
70480W        W43548  26.224  43.952   2.396
70481W        W43549  12.188  38.545   1.867
70482W        W43550  12.760  29.056   1.022
70483W        W43551  28.741  20.649   4.395
70484W        W43552  11.608   9.757  14.852
70485W        W43553   5.304  14.901  11.542
70486W        W43554  19.514  29.970   3.928
70487W        W43555  29.897  36.193   2.872
70488W        W43556  35.127   6.438   4.493
70489W        W43557  31.101  24.238   2.157
70490W        W43558   8.850  22.426  11.875
70491W        W43559   1.777  29.603   3.696
70492W        W43560  38.433   2.422  14.700
70493W        W43561  29.817  11.790  11.854
70494W        W43562  28.696   0.880  14.774
70495W        W43563  38.803  39.249   1.844
70496W        W43564  15.694   8.294  13.033
70497W        W43565  24.148  30.426  13.842
70498W        W43566  37.944  14.972  12.909
70499W        W43567  26.533  23.251  14.967
70500W        W43568  20.669  23.953   0.417
70501W        W43569  29.467   8.170  11.552
70502W        W43570  42.500  28.527   4.106
70503W        W43571  20.939   6.958   4.022
70504W        W43572  44.505   4.304  12.449
70505W        W43573   4.424   8.276   1.663
70506W        W43574  43.889   1.869  14.074
70507W        W43575  23.602  14.114   0.769
70508W        W43576  35.417  39.751   1.911
70509W        W43577  13.320  38.390  11.272
70510W        W43578  23.994  19.547   0.577
70511W        W43579   8.801  33.642   2.403
70512W        W43580   3.009  21.526  12.398
70513W        W43581  44.787  39.086   5.113
70514W        W43582  22.189  33.515  14.773
70515W        W43583  30.609  36.398   0.896
70516W        W43584   4.447  11.697   2.698
70517W        W43585  28.567  42.750   1.119
70518W        W43586  35.998  34.849   9.991
70519W        W43587  27.450  32.831   4.441
70520W        W43588  43.481  29.922  10.776
70521W        W43589  21.593   9.772   2.726
70522W        W43590  16.489  36.695  13.054
70523W        W43591   0.786  13.017   3.193
70524W        W43592  15.856  20.540  10.476
70525W        W43593  31.927  26.050   3.761
70526W        W43594   5.884  20.299   1.844
70527W        W43595   6.654  31.398  13.034
70528W        W43596  41.723  25.457   1.921
70529W        W43597  36.763  17.396   3.287
70530W        W43598  31.122  16.188   4.371
70531W        W43599  16.542   7.076   2.898
70532W        W43600  23.956  44.687   3.308
70533W        W43601  33.632  10.714   4.110
70534W        W43602  15.177  39.917  13.355
70535W        W43603  12.604  28.676   3.626
70536W        W43604   3.481  24.760  11.507
70537W        W43605  40.399  32.109   0.391
70538W        W43606  36.506  17.219   2.207
70539W        W43607  11.358  34.010  11.152
70540W        W43608  15.215  30.168  13.127
70541W        W43609  11.822  26.429   2.632
70542W        W43610   0.298  33.182   4.069
70543W        W43611  16.596  21.113   3.389
70544W        W43612  30.102  44.451   1.416
70545W        W43613  33.180   6.916   4.557
70546W        W43614  32.284  28.106  10.790
70547W        W43615  43.596   3.220  12.540
70548W        W43616  23.395  37.346   4.876
70549W        W43617  17.726  18.515   4.521
70550W        W43618  37.895  37.691   1.363
70551W        W43619  39.105  23.190   0.337
70552W        W43620  19.159  26.376   2.157
70553W        W43621  37.041  37.986  11.179
70554W        W43622   0.527  11.392  11.879
70555W        W43623  23.325  21.477  14.122
70556W        W43624  11.427  29.734   3.816
70557W        W43625  19.736  35.670  13.500
70558W        W43626  12.391  30.867   1.363
70559W        W43627   1.041  39.882   1.311
70560W        W43628  40.093  21.090   4.625
70561W        W43629  36.197  44.275  13.443
70562W        W43630  12.827   5.131   1.208
70563W        W43631  41.947  42.855  13.903
70564W        W43632   0.712  35.654   4.377
70565W        W43633  41.928  20.517   0.894
70566W        W43634   4.187  28.562  11.006
70567W        W43635  14.649   3.672  14.731
70568W        W43636   0.406  13.102  14.192
70569W        W43637  24.570  34.562   3.441
70570W        W43638   2.754  27.114   1.814
70571W        W43639  10.385  34.636  11.153
70572W        W43640   3.599  25.434  14.721
70573W        W43641  42.537  44.209  13.087
70574W        W43642   9.001   9.608   1.690
70575W        W43643  22.631  22.688  10.059
70576W        W43644  28.960  35.620  14.087
70577W        W43645   4.468  36.816   1.711
70578W        W43646   5.819   1.436  14.741
70579W        W43647  39.298  27.258  11.249
70580W        W43648  16.116  22.447  10.842
70581W        W43649  17.138  44.564   0.904
70582W        W43650  21.434  24.202  10.211
70583W        W43651  29.873  18.374  12.888
70584W        W43652  37.302  33.975   2.910
70585W        W43653   2.499  39.819   4.500
70586W        W43654  23.134  33.904  10.564
70587W        W43655   7.001   5.830  13.156
70588W        W43656   3.428   0.715   0.862
70589W        W43657  23.352  32.222  13.924
70590W        W43658  26.225  21.789   0.040
70591W        W43659   5.453  11.630   2.201
70592W        W43660   0.105  29.991  12.611
70593W        W43661  28.719  30.479  12.190
70594W        W43662  15.130  43.730  10.670
70595W        W43663  33.590  16.138   2.291
70596W        W43664  43.959  27.113  12.912
70597W        W43665  40.080   6.273  10.862
70598W        W43666  40.535   9.952  14.908
70599W        W43667  41.446  23.051   4.097
70600W        W43668  19.593  16.072   2.361
70601W        W43669  44.698  44.862  11.206
70602W        W43670   1.422  22.198   2.147
70603W        W43671   4.726  32.615  11.682
70604W        W43672  33.039  17.573  11.120
70605W        W43673  30.833  17.300  13.958
70606W        W43674  30.081  22.843  13.724
70607W        W43675  20.563  44.270  11.099
70608W        W43676   5.715  27.486   1.947
70609W        W43677  40.873  27.347   2.259
70610W        W43678  13.544   0.358   4.098
70611W        W43679  28.083  39.752   2.217
70612W        W43680  25.294  18.888   3.923
70613W        W43681  13.636  35.973   3.572
70614W        W43682  32.081  35.419  12.580
70615W        W43683  10.480  16.716  10.313
70616W        W43684  19.300  28.451  10.714
70617W        W43685   1.943  19.093  11.247
70618W        W43686   9.926  15.904  14.890
70619W        W43687  17.659  13.787   1.973
70620W        W43688   8.839  16.804  12.290
70621W        W43689  17.347  11.388   3.749
70622W        W43690  27.722   7.347   2.153
70623W        W43691  42.155  27.112   1.614
70624W        W43692  10.691  14.241  13.497
70625W        W43693  15.090  44.433  14.834
70626W        W43694  21.188  24.304  11.393
70627W        W43695  19.147   6.815  14.501
70628W        W43696  34.971   7.168   2.730
70629W        W43697  43.673  32.728   2.272
70630W        W43698  37.609  43.956  14.886
70631W        W43699  28.765  14.709  14.440
70632W        W43700  22.664  17.642   0.129
70633W        W43701  10.741  26.858   3.826
70634W        W43702  19.617   0.363  11.076
70635W        W43703   4.925  12.213  14.069
70636W        W43704  34.509  23.428   2.831
70637W        W43705  26.466  42.509  12.386
70638W        W43706  10.795  16.771  13.728
70639W        W43707   4.336   3.782   4.598
70640W        W43708  19.587  16.534   0.081
70641W        W43709  19.517  37.902   4.614
70642W        W43710   7.649   4.760   2.311
70643W        W43711  15.496  14.091   2.316
70644W        W43712   5.291  11.715  10.853
70645W        W43713  32.433  44.881  12.714
70646W        W43714   4.322  30.431   1.680
70647W        W43715  24.987   5.191  12.071
70648W        W43716   8.171  35.837   1.647
70649W        W43717   2.987  26.732   4.520
70650W        W43718  25.388  18.399   3.787
70651W        W43719  34.456  32.994  14.864
70652W        W43720   3.504   3.340   1.226
70653W        W43721  25.094   3.496  12.385
70654W        W43722   3.544   8.206   1.240
70655W        W43723   4.523  18.955   0.459
70656W        W43724   6.945  20.193   0.462
70657W        W43725  21.220  12.426   1.282
70658W        W43726  37.990  39.323   0.172
70659W        W43727  40.912  44.495   3.879
70660W        W43728  27.705  17.719   0.880
70661W        W43729  32.427  36.965   0.913
70662W        W43730  22.186  43.382   3.655
70663W        W43731  21.894  12.815   2.612
70664W        W43732  19.215   3.692   0.248
70665W        W43733   5.845  43.027   1.710
70666W        W43734  11.853  28.397  12.050
70667W        W43735  13.318  24.520  14.292
70668W        W43736  26.731   3.940   1.337
70669W        W43737  20.809  21.608   4.020
70670W        W43738  30.244  11.786  10.940
70671W        W43739  31.475  41.652   1.454
70672W        W43740   0.858   8.203  11.534
70673W        W43741  24.125  19.231  10.705
70674W        W43742  27.273   0.699   4.128
70675W        W43743  37.886  21.698  12.544
70676W        W43744  31.700  29.690  11.054
70677W        W43745   1.731   0.843   3.264
70678W        W43746  26.557  36.165  12.075
70679W        W43747  38.070  31.653  11.617
70680W        W43748   9.851  37.599  14.321
70681W        W43749  26.821   1.293  14.560
70682W        W43750  41.599  29.026  13.036
70683W        W43751  27.947   1.428   1.303
70684W        W43752  32.167   7.374   1.702
70685W        W43753  31.815  17.157   0.002
70686W        W43754  28.845  12.882  12.369
70687W        W43755   6.342  41.864  14.515
70688W        W43756  11.861  14.272   2.317
70689W        W43757   9.431  36.031   1.430
70690W        W43758   4.991   7.660   1.861
70691W        W43759  25.246   9.337   0.410
70692W        W43760  41.029   9.327   0.372
70693W        W43761  25.497  26.961   1.792
70694W        W43762  33.385  14.750  12.656
70695W        W43763  24.163   6.251   1.435
70696W        W43764  17.830  31.904   4.177
70697W        W43765  29.040  43.303  12.860
70698W        W43766  19.115  23.586   4.119
70699W        W43767  28.549   5.863   3.715
70700W        W43768   0.408  18.692  11.920
70701W        W43769  11.763   9.734  10.977
70702W        W43770  13.059  13.701  11.896
70703W        W43771  35.442  21.455  12.397
70704W        W43772   0.950   9.612   0.783
70705W        W43773  11.537   2.745   0.016
70706W        W43774   4.526  32.040   2.757
70707W        W43775  43.255  21.163  11.906
70708W        W43776  30.163  21.118   2.835
70709W        W43777  44.468   3.799   3.252
70710W        W43778  44.698  11.578  14.483
70711W        W43779   3.364  44.082   1.619
70712W        W43780   0.004  30.583   1.808
70713W        W43781  38.489  12.165  13.960
70714W        W43782  12.252  35.698  12.113
70715W        W43783  12.760  37.223  10.750
70716W        W43784  24.520  31.692   1.690
70717W        W43785  30.224  11.360  14.603
70718W        W43786  40.227  16.462   3.723
70719W        W43787  30.407   4.799   3.529
70720W        W43788   6.026  34.608  13.449
70721W        W43789  20.796   7.261  11.920
70722W        W43790  32.257  34.441   2.706
70723W        W43791  18.281  39.887   1.868
70724W        W43792  12.911   7.268  11.138
70725W        W43793  34.298   2.903  10.672
70726W        W43794   2.139  15.205  11.062
70727W        W43795   0.462  12.321   2.146
70728W        W43796  16.090  33.882  13.077
70729W        W43797   9.694  38.475   2.395
70730W        W43798  22.567   7.951  13.472
70731W        W43799  41.873  21.295   4.231
70732W        W43800  44.587  10.858  10.681
70733W        W43801  40.964  42.016  12.931
70734W        W43802  37.873   8.910  10.737
70735W        W43803  29.430  40.306   1.678
70736W        W43804  11.237   5.136  14.390
70737W        W43805   1.997  17.696  14.229
70738W        W43806  34.308  29.733  12.045
70739W        W43807  18.738  37.577   4.530
70740W        W43808  41.953  10.576   1.667
70741W        W43809  15.830  42.653  11.538
70742W        W43810  20.729   4.420  11.770
70743W        W43811  15.592  42.392  13.383
70744W        W43812   1.911  10.810  11.352
70745W        W43813  13.810  11.784  11.762
70746W        W43814  16.085  38.508   4.090
70747W        W43815  19.134   4.904  12.902
70748W        W43816   9.954  40.586  10.848
70749W        W43817   1.827  27.985  11.165
70750W        W43818   4.269  20.652  11.285
70751W        W43819  28.567  31.091  12.945
70752W        W43820  28.403  38.056   0.013
70753W        W43821  33.803  17.732   3.282
70754W        W43822  28.021   5.462   4.677
70755W        W43823  15.983  43.663  12.642
70756W        W43824  18.620   5.449  10.578
70757W        W43825   9.349  42.745  13.514
70758W        W43826  11.941  20.073  14.516
70759W        W43827   8.384  38.601  10.623
70760W        W43828  18.136   7.754   0.038
70761W        W43829  34.008  36.620   4.550
70762W        W43830   3.737   0.676   1.790
70763W        W43831  13.095  24.009   1.915
70764W        W43832  42.529  32.906  10.519
70765W        W43833   3.561  32.349   1.235
70766W        W43834  22.233  16.718   0.028
70767W        W43835  37.732  15.181   4.872
70768W        W43836  27.381  17.757  14.860
70769W        W43837   9.121  34.167   1.987
70770W        W43838  35.057  40.380  14.430
70771W        W43839  33.995  20.126   1.871
70772W        W43840  20.074   7.699  12.863
70773W        W43841   3.904  27.501   0.342
70774W        W43842  28.187   9.975   2.279
70775W        W43843  40.338  42.647  11.627
70776W        W43844   9.839  34.351   0.467
70777W        W43845   6.704  30.202  14.794
70778W        W43846   9.203   0.266   0.953
70779W        W43847   1.926  32.467  14.010
70780W        W43848  26.154  28.567   4.453
70781W        W43849  21.793  19.528   0.416
70782W        W43850  37.113  38.444   3.168
70783W        W43851   8.483  20.832   2.174
70784W        W43852  32.545   8.202   3.362
70785W        W43853  13.266  36.646  12.926
70786W        W43854  16.026   7.218   0.462
70787W        W43855  16.593  42.704   1.704
70788W        W43856  12.617   8.362  11.540
70789W        W43857  40.804   0.973  14.823
70790W        W43858   6.770   8.859   2.184
70791W        W43859  22.054   9.660   1.836
70792W        W43860   9.807  19.580   0.755
70793W        W43861  44.214  19.709   3.976
70794W        W43862  31.623   9.953   2.322
70795W        W43863  43.811  37.496   1.182
70796W        W43864  10.654  31.023   0.077
70797W        W43865  13.540   5.807  14.791
70798W        W43866  31.575   7.359   0.376
70799W        W43867  35.125  33.188   2.086
70800W        W43868   2.828  28.225   1.826
70801W        W43869  16.776  24.504  10.803
70802W        W43870  12.279  40.311   3.405
70803W        W43871  44.551  12.371   2.298
70804W        W43872   3.582  24.607  13.847
70805W        W43873  36.945  32.189  13.914
70806W        W43874  17.968  35.387  11.810
70807W        W43875  40.854  24.575  14.490
70808W        W43876  18.189  19.128   0.147
70809W        W43877  42.898   3.262   3.605
70810W        W43878  38.104   9.822  11.063
70811W        W43879  10.363  31.170   3.670
70812W        W43880  43.334   7.717   4.837
70813W        W43881   4.529  35.423  13.419
70814W        W43882   2.705  40.000   2.799
70815W        W43883   6.851  26.530   4.996
70816W        W43884   7.565  16.898   4.699
70817W        W43885  29.439  44.313  11.080
70818W        W43886  27.243   9.207  10.733
70819W        W43887  14.212  35.899   2.251
70820W        W43888  25.421  15.560  12.389
70821W        W43889  38.143   6.191   4.173
70822W        W43890   4.368  26.438  11.254
70823W        W43891  14.676   5.233  12.363
70824W        W43892   4.350  13.848   3.349
70825W        W43893  39.314   0.700  11.499
70826W        W43894   2.529  30.070   3.695
70827W        W43895  19.767   1.333   2.955
70828W        W43896   5.226  27.138   0.440
70829W        W43897  31.579   0.467  14.088
70830W        W43898  25.421  22.447  14.978
70831W        W43899  14.076  40.803  10.579
70832W        W43900  35.887  36.016  14.957
70833W        W43901  29.972  22.437  14.670
70834W        W43902  16.652  27.888   4.993
70835W        W43903  26.503  10.705   0.777
70836W        W43904   3.513  31.899   2.694
70837W        W43905  20.397  33.350  12.402
70838W        W43906   6.413  35.217  14.097
70839W        W43907  11.391   5.872   3.685
70840W        W43908  26.126   4.813   2.107
70841W        W43909  33.916  28.842   4.552
70842W        W43910  40.540  43.906   2.305
70843W        W43911  32.070  16.147   2.876
70844W        W43912   7.278   5.293  14.326
70845W        W43913  43.233  31.501  11.040
70846W        W43914  41.733  31.703   2.736
70847W        W43915  36.167  29.669  12.426
70848W        W43916  19.043  17.507   1.921
70849W        W43917  18.455  33.936   1.627
70850W        W43918  22.722  43.826   4.971
70851W        W43919  23.714  10.626   0.278
70852W        W43920  15.225  39.377  13.255
70853W        W43921  27.143  12.297   5.094
70854W        W43922  40.836  42.255  11.584
70855W        W43923  18.552  32.187   2.832
70856W        W43924  11.705  26.098  11.311
70857W        W43925  17.800  33.544  13.845
70858W        W43926  21.267  33.491  11.963
70859W        W43927   6.855  11.778   1.243
70860W        W43928  30.114  15.614  11.679
70861W        W43929  42.393  40.109   0.177
70862W        W43930  32.859   0.625   1.408
70863W        W43931  31.468  30.843   0.434
70864W        W43932   6.685  43.069  12.466
70865W        W43933  25.888  42.861  11.453
70866W        W43934  10.893  23.958   2.090
70867W        W43935  14.165  22.184   1.232
70868W        W43936  31.779   7.943   4.963
70869W        W43937  38.591  27.006   3.719
70870W        W43938   9.266  26.748   1.752
70871W        W43939  26.920  34.222   0.800
70872W        W43940   5.911  40.529   0.386
70873W        W43941  33.128  27.806  13.054
70874W        W43942  10.779   9.026  12.310
70875W        W43943  21.398  37.261   0.365
70876W        W43944   5.311   9.860   0.330
70877W        W43945   3.449  25.281   2.367
70878W        W43946  36.619  30.983   4.109
70879W        W43947  19.089  36.373   4.225
70880W        W43948  33.319  14.336   3.922
70881W        W43949  10.859  20.090   3.225
70882W        W43950  33.217  27.726  14.330
70883W        W43951  12.896  16.172  14.455
70884W        W43952  26.515  16.157  13.365
70885W        W43953  32.466   4.211   4.946
70886W        W43954   7.561  17.093   0.981
70887W        W43955  24.688  11.358   3.705
70888W        W43956  30.383  30.695  13.056
70889W        W43957  40.083  39.526  11.828
70890W        W43958  26.403  11.158   2.059
70891W        W43959   2.395   1.303   4.398
70892W        W43960  10.303   4.345   1.424
70893W        W43961  21.711  19.745  13.296
70894W        W43962   9.609  18.225  11.982
70895W        W43963  33.565   0.912  11.939
70896W        W43964   3.327  12.602   4.695
70897W        W43965  38.508  43.505  11.807
70898W        W43966  19.903  30.916  11.637
70899W        W43967  39.586  19.716  14.596
70900W        W43968  31.131  18.827  11.147
70901W        W43969  11.352  23.672   0.920
70902W        W43970  19.858   8.720  11.112
70903W        W43971   5.428  28.369  12.936
70904W        W43972  19.834   2.967   2.231
70905W        W43973  42.042   2.419  11.023
70906W        W43974  13.723  35.553   1.696
70907W        W43975   5.000   9.822   0.767
70908W        W43976  20.195  15.379   1.179
70909W        W43977  37.064  15.201   2.265
70910W        W43978  17.507   1.730   4.332
70911W        W43979  19.729  34.722   0.771
70912W        W43980   1.854   8.000  12.844
70913W        W43981  25.511   2.673   3.242
70914W        W43982  43.088   8.322  12.885
70915W        W43983  30.481  29.075   3.569
70916W        W43984  41.448  33.283   0.388
70917W        W43985  16.576   2.918   4.880
70918W        W43986   8.265   7.387   3.552
70919W        W43987   0.423  32.848   1.845
70920W        W43988  34.045  20.803   0.213
70921W        W43989   6.326   6.269   3.198
70922W        W43990  37.873  11.841   2.848
70923W        W43991  19.662   8.907   1.490
70924W        W43992   7.918  35.935   4.032
70925W        W43993  16.865  32.452  12.084
70926W        W43994  43.690  27.589  13.661
70927W        W43995  11.386   7.447  14.065
70928W        W43996   3.778  28.949   0.833
70929W        W43997  25.019  41.143   1.634
70930W        W43998   1.804  28.570  11.979
70931W        W43999  13.745   1.980  11.681
70932W        W44000  13.588  18.288   0.469
70933W        W44001  19.404  19.170   2.994
70934W        W44002  18.601  18.069   3.215
70935W        W44003  14.235  13.574  11.049
70936W        W44004  38.259  40.556  13.902
70937W        W44005  10.140  18.261  14.987
70938W        W44006  19.483   6.208   0.472
70939W        W44007  28.583  33.918  11.146
70940W        W44008  27.917  33.331   1.358
70941W        W44009  27.033  31.862  10.586
70942W        W44010  11.735  38.583   4.592
70943W        W44011   0.489  35.523  14.702
70944W        W44012  35.772  19.175  12.022
70945W        W44013  14.255  34.285  13.929
70946W        W44014  41.776  23.121   3.693
70947W        W44015  13.965   9.266  14.699
70948W        W44016  44.554  15.668   3.793
70949W        W44017   4.899   5.595  14.601
70950W        W44018  10.594  35.424  13.063
70951W        W44019  26.989   7.425  12.882
70952W        W44020  11.360  37.269   2.219
70953W        W44021  24.048  27.260  10.799
70954W        W44022  28.174  15.740   5.094
70955W        W44023   1.836   3.381  11.048
70956W        W44024   7.381  33.132   2.951
70957W        W44025  19.619  38.866  11.841
70958W        W44026  18.553   6.142  13.427
70959W        W44027  40.941   4.025  13.445
70960W        W44028  36.717  39.796  13.512
70961W        W44029   1.792  11.267   0.732
70962W        W44030   4.528   1.464   4.823
70963W        W44031  15.088  42.457   3.355
70964W        W44032  23.241  15.257   1.913
70965W        W44033  38.023  27.231  12.873
70966W        W44034  30.157   1.495   1.002
70967W        W44035  20.201  13.112   0.453
70968W        W44036  18.715  39.961  12.967
70969W        W44037  27.250  33.920   3.840
70970W        W44038  10.110  14.377   2.396
70971W        W44039  37.463  39.067  13.350
70972W        W44040  21.226  17.663  12.749
70973W        W44041   9.064  26.624   4.587
70974W        W44042  18.774   3.245   1.919
70975W        W44043  26.713  41.291  14.400
70976W        W44044  44.199  35.350   1.737
70977W        W44045   2.938  30.473   3.108
70978W        W44046  15.850  19.089   3.083
70979W        W44047  44.266   9.142  13.918
70980W        W44048  26.749   9.333   1.819
70981W        W44049  30.388  23.945   2.902
70982W        W44050   0.438   4.692  11.621
70983W        W44051  34.674  43.955  14.860
70984W        W44052  10.872  20.693   0.965
70985W        W44053  27.156  26.695  13.497
70986W        W44054  33.016  40.766   3.707
70987W        W44055   6.853  27.165  13.361
70988W        W44056   3.200   3.752  11.195
70989W        W44057  18.956  18.821   3.204
70990W        W44058   1.377  16.414  13.979
70991W        W44059   5.497  34.323   0.202
70992W        W44060   9.899  34.615   3.689
70993W        W44061   9.805  25.246  12.926
70994W        W44062   3.911  15.582   1.645
70995W        W44063  42.593  36.346  13.818
70996W        W44064  39.061  14.123   4.171
70997W        W44065  27.434  28.070  13.656
70998W        W44066   5.175  14.658   2.966
70999W        W44067   8.682  25.677  10.603
71000W        W44068  18.113  16.157  12.074
71001W        W44069  10.366  26.777  12.089
71002W        W44070  41.947   9.490  12.138
71003W        W44071  16.075  43.710   0.995
71004W        W44072  12.441  24.558   0.874
71005W        W44073  14.637   4.487   0.770
71006W        W44074  10.468   3.623   2.649
71007W        W44075  25.039  43.705   4.304
71008W        W44076  24.052   9.331   3.429
71009W        W44077  39.988  16.833   2.454
71010W        W44078  19.096   5.843  14.253
71011W        W44079  31.703  43.494   1.384
71012W        W44080  21.156  23.108  10.501
71013W        W44081  17.293  41.806  12.645
71014W        W44082  44.257  29.984   0.910
71015W        W44083  12.822  28.730  11.180
71016W        W44084  10.053  37.056   3.739
71017W        W44085  16.312  42.428  14.531
71018W        W44086  34.609  10.310   1.652
71019W        W44087   3.972  42.778  11.517
71020W        W44088  15.725   1.323   1.899
71021W        W44089  14.130  14.081  11.100
71022W        W44090  20.659  38.873  10.048
71023W        W44091  23.748   1.358  11.640
71024W        W44092  14.000  27.745   3.100
71025W        W44093  26.557  23.807   0.943
71026W        W44094  12.956  14.236  13.508
71027W        W44095   4.847  29.357   2.220
71028W        W44096  10.547  22.501   2.244
71029W        W44097  12.858  21.701  11.228
71030W        W44098  41.141   6.621  12.870
71031W        W44099  17.224   2.042   1.900
71032W        W44100  38.487   7.379   4.420
71033W        W44101   6.358  32.643  13.469
71034W        W44102  11.138  38.948   4.168
71035W        W44103   3.535  33.957   1.163
71036W        W44104   7.845  35.806  13.827
71037W        W44105   0.377   4.180   4.959
71038W        W44106   9.200  14.454   5.101
71039W        W44107   5.968  15.761  10.635
71040W        W44108  24.083  23.500  12.972
71041W        W44109  16.826  10.124  11.590
71042W        W44110  13.709  43.341   4.233
71043W        W44111  10.646  18.846   2.275
71044W        W44112  36.969   7.617  11.136
71045W        W44113  11.308  17.260   1.767
71046W        W44114  19.178  25.545  12.994
71047W        W44115  44.064  17.043   3.167
71048W        W44116  12.092  37.979  13.955
71049W        W44117  40.818  21.673  13.754
71050W        W44118  12.453   3.193  14.501
71051W        W44119  29.598  42.083  12.718
71052W        W44120   0.302   8.784  12.488
71053W        W44121   0.432  17.677   2.656
71054W        W44122  12.768  33.403  12.203
71055W        W44123  44.564  25.067  10.637
71056W        W44124  29.364  35.457  14.383
71057W        W44125  39.307  29.683   2.646
71058W        W44126  21.872  19.114  14.846
71059W        W44127  16.337  16.158   2.185
71060W        W44128  17.232   7.562   0.804
71061W        W44129  29.196   7.838  11.076
71062W        W44130  39.352   9.140  11.114
71063W        W44131  28.912   2.088  11.988
71064W        W44132  11.646  14.178  14.316
71065W        W44133  23.443  33.902  14.508
71066W        W44134   4.707   9.114   0.841
71067W        W44135  24.987  22.438   3.659
71068W        W44136  23.927   4.787  11.663
71069W        W44137  23.325  21.543  12.993
71070W        W44138  29.687   8.436  14.936
71071W        W44139  28.569  31.857   1.728
71072W        W44140  32.886  13.295  11.674
71073W        W44141  13.737  28.032   3.426
71074W        W44142  16.368   2.168  14.239
71075W        W44143   0.887  15.063  11.138
71076W        W44144  24.709  23.056  12.442
71077W        W44145  24.784  30.628   4.429
71078W        W44146  36.856   2.487   2.265
71079W        W44147   0.191   5.845   2.247
71080W        W44148  39.556   3.950   0.771
71081W        W44149  12.201   5.433   3.954
71082W        W44150  30.577  42.917   3.861
71083W        W44151  11.654  28.007   3.638
71084W        W44152  23.620   8.115  14.793
71085W        W44153  29.977  27.138   0.386
71086W        W44154  18.339  17.640  12.465
71087W        W44155  24.108  10.600  14.280
71088W        W44156   0.840  28.141   2.755
71089W        W44157  11.200  44.571   1.702
71090W        W44158  42.710   4.762  10.970
71091W        W44159   0.853  17.365   3.245
71092W        W44160  43.920  11.090   1.868
71093W        W44161  10.776  18.901   1.142
71094W        W44162   6.662   2.790   2.706
71095W        W44163  19.163  30.737   1.090
71096W        W44164  34.583  10.627  10.480
71097W        W44165  31.819  26.910   5.035
71098W        W44166  13.407  27.954   4.195
71099W        W44167  36.852  11.796   0.374
71100W        W44168   9.666  25.613   3.272
71101W        W44169  27.476  18.907   0.224
71102W        W44170  20.694  28.413   3.305
71103W        W44171  21.806  41.523   0.722
71104W        W44172  43.080  22.506  13.429
71105W        W44173  35.712  36.050  14.469
71106W        W44174  24.923  23.658   0.951
71107W        W44175  32.564  27.679  10.796
71108W        W44176  36.053   8.304  11.676
71109W        W44177  21.319  34.345   0.515
71110W        W44178   3.737  35.546   0.330
71111W        W44179  43.873  19.746   1.404
71112W        W44180  11.468  20.904   4.914
71113W        W44181  36.470   1.281   1.319
71114W        W44182  43.929   0.940  11.000
71115W        W44183  28.756  37.426   4.151
71116W        W44184   7.702  36.367  11.913
71117W        W44185   4.890   5.702  12.522
71118W        W44186   2.959  33.070   3.389
71119W        W44187   8.185  32.033   1.429
71120W        W44188   7.823  23.265  12.916
71121W        W44189   9.731  20.482   4.630
71122W        W44190  20.474  34.696  13.371
71123W        W44191   5.593   6.792   0.877
71124W        W44192  17.322  33.334  13.896
71125W        W44193  41.038  12.744   4.321
71126W        W44194  12.130  28.327   0.286
71127W        W44195  10.806  31.039   0.608
71128W        W44196  28.049   3.679   2.140
71129W        W44197  28.900   6.392  11.107
71130W        W44198  25.690  24.747  14.380
71131W        W44199  12.686  26.461   2.964
71132W        W44200  11.765  35.297   1.379
71133W        W44201  23.134  32.702  13.925
71134W        W44202  22.878   0.029  14.427
71135W        W44203   3.747  20.704  13.973
71136W        W44204  39.477  36.806   2.292
71137W        W44205  11.179  26.725   4.578
71138W        W44206   7.728  34.522  13.433
71139W        W44207   9.417  11.118   2.325
71140W        W44208   3.793  30.050  11.609
71141W        W44209  12.323  10.103   2.400
71142W        W44210   7.861   9.625   1.216
71143W        W44211  38.319  19.110  13.866
71144W        W44212  24.259   7.894   4.174
71145W        W44213  10.275  12.327   1.369
71146W        W44214  14.849  36.506   2.698
71147W        W44215  10.721  15.119   2.641
71148W        W44216  39.729  20.524  13.494
71149W        W44217  25.501   8.510   3.702
71150W        W44218  27.370   3.900  13.771
71151W        W44219  18.068  22.154  14.082
71152W        W44220  20.251  44.500  11.585
71153W        W44221   4.365   7.492  10.422
71154W        W44222  44.228  40.637  14.711
71155W        W44223  31.521  21.276   3.261
71156W        W44224  32.837  39.471  14.249
71157W        W44225  20.226  39.972  12.413
71158W        W44226  27.433  20.135  11.045
71159W        W44227  31.044  26.761   5.110
71160W        W44228  12.960  35.558   4.350
71161W        W44229   5.855   8.362   4.337
71162W        W44230   9.116  31.786   4.251
71163W        W44231   5.267  44.527  14.851
71164W        W44232   6.391  36.083   2.205
71165W        W44233  11.607  18.561   3.897
71166W        W44234  32.678  29.088  13.917
71167W        W44235   7.721  44.493  13.991
71168W        W44236  40.447  13.157  12.067
71169W        W44237  38.430  12.794  12.854
71170W        W44238  13.538  33.422   4.210
71171W        W44239  28.003  27.392  12.655
71172W        W44240  14.423  42.827   1.639
71173W        W44241  26.190  44.448   3.682
71174W        W44242  14.708  39.845   3.726
71175W        W44243  43.370  20.240  13.391
71176W        W44244   9.283   1.177   0.847
71177W        W44245  39.428  11.287  14.294
71178W        W44246  17.387  19.163   0.803
71179W        W44247  33.667  38.133   3.306
71180W        W44248   8.817  39.540  12.448
71181W        W44249  15.249  38.333  11.951
71182W        W44250  26.933  22.921   0.712
71183W        W44251  19.535  27.061  13.410
71184W        W44252  15.452  35.937   0.362
71185W        W44253  19.554  27.540  14.133
71186W        W44254  29.855   3.211   0.350
71187W        W44255  11.457  36.454  13.435
71188W        W44256  29.965  43.291   1.492
71189W        W44257  34.843  43.951   1.790
71190W        W44258  34.309   1.841   1.985
71191W        W44259   3.469  44.786   3.892
71192W        W44260  18.638  19.933  11.298
71193W        W44261  21.478  30.636   3.380
71194W        W44262  21.685  38.133  14.886
71195W        W44263  21.090  23.440   5.041
71196W        W44264  44.865  42.355   2.613
71197W        W44265  20.467  25.647  13.983
71198W        W44266  17.189   4.820   3.616
71199W        W44267  43.719  44.389   1.327
71200W        W44268  32.654  25.869  13.274
71201W        W44269  17.102  25.032   9.988
71202W        W44270  21.066  10.856   1.120
71203W        W44271  38.497   9.358  13.431
71204W        W44272  10.649  19.565  13.813
71205W        W44273   7.730  17.033   0.025
71206W        W44274   9.842   4.239   1.641
71207W        W44275  12.274   5.461  12.068
71208W        W44276   5.665   4.898   1.364
71209W        W44277  40.830  38.591   1.779
71210W        W44278  16.230  24.489   0.790
71211W        W44279  19.568  26.225  13.319
71212W        W44280  38.933   6.997   2.673
71213W        W44281   5.993  33.163  10.745
71214W        W44282  28.608  14.370  13.193
71215W        W44283  25.777  33.112  12.390
71216W        W44284   8.007  12.706  12.227
71217W        W44285  34.253  30.366  10.887
71218W        W44286  38.577   7.948   3.573
71219W        W44287  19.143  21.480   4.290
71220W        W44288  10.866  36.112  14.289
71221W        W44289  12.724  11.912   3.647
71222W        W44290  10.471  21.253  14.898
71223W        W44291  19.073  13.294   1.001
71224W        W44292   3.211   3.272  14.072
71225W        W44293  41.414  33.098  11.979
71226W        W44294  13.544   6.650   0.456
71227W        W44295  32.764  23.577   3.747
71228W        W44296  10.725  44.062   2.190
71229W        W44297  27.091   5.376  10.771
71230W        W44298   1.733  28.590   0.414
71231W        W44299   2.878   5.825  12.866
71232W        W44300   4.505  31.106  14.539
71233W        W44301  22.210  44.718  12.345
71234W        W44302  41.561   8.286  11.326
71235W        W44303  13.068  38.927  14.767
71236W        W44304   2.092  10.253   3.042
71237W        W44305  36.909   6.655   0.286
71238W        W44306  18.093  27.238   1.262
71239W        W44307  39.158  21.431  12.049
71240W        W44308  38.900  14.097   0.424
71241W        W44309  22.917   5.657   0.420
71242W        W44310  21.050  23.197  13.886
71243W        W44311  11.680   2.180  13.003
71244W        W44312  38.278  38.014   0.441
71245W        W44313   3.377  10.168   3.724
71246W        W44314   8.406  40.425  12.374
71247W        W44315  18.097  18.768  14.276
71248W        W44316  11.328  14.828  14.989
71249W        W44317  27.663  20.110   4.655
71250W        W44318   2.352  20.444   0.016
71251W        W44319   6.114   7.184  10.423
71252W        W44320  26.108  27.161   4.822
71253W        W44321   7.760  36.057  14.291
71254W        W44322  22.232  21.204  12.891
71255W        W44323   9.314  29.149  13.431
71256W        W44324  38.044  15.632  11.299
71257W        W44325  27.556  26.040  14.417
71258W        W44326  13.385  24.882   3.638
71259W        W44327   9.687   9.739  14.904
71260W        W44328  36.848  14.383   1.424
71261W        W44329  39.953  44.012   4.487
71262W        W44330  31.214   4.395   1.294
71263W        W44331  25.612  40.854   0.913
71264W        W44332  34.536  20.716  11.651
71265W        W44333   5.423  20.062  14.059
71266W        W44334  10.074  37.384   3.332
71267W        W44335  24.429   5.335   3.790
71268W        W44336  17.262  28.143  12.287
71269W        W44337   2.039  13.327   3.661
71270W        W44338  14.052  32.495   3.352
71271W        W44339  23.816  43.352   1.855
71272W        W44340  21.026  42.766   5.089
71273W        W44341   4.836  29.522   1.369
71274W        W44342   5.253  36.824   1.934
71275W        W44343  40.114  14.946  10.558
71276W        W44344  10.249  25.554   2.233
71277W        W44345  40.220  38.147  10.547
71278W        W44346  13.378  26.760   3.583
71279W        W44347  13.560   5.934   2.573
71280W        W44348   9.790  15.623  11.534
71281W        W44349  34.887  33.639  10.648
71282W        W44350  28.688  36.321   3.113
71283W        W44351  29.975   6.765  12.510
71284W        W44352  26.896  14.761   1.026
71285W        W44353   2.431   8.260   3.220
71286W        W44354  15.339  25.685  13.545
71287W        W44355   1.846   1.845   0.778
71288W        W44356  17.287   8.652  14.325
71289W        W44357  26.067  10.691  14.179
71290W        W44358   6.763  39.481   0.836
71291W        W44359  24.907   5.323   0.246
71292W        W44360  14.704  37.132  14.485
71293W        W44361   7.393  39.390   2.165
71294W        W44362  22.489   6.700  14.789
71295W        W44363  38.270  23.047  12.779
71296W        W44364   5.871  13.815  11.502
71297W        W44365  14.167   6.176  14.177
71298W        W44366  22.472  24.059   0.952
71299W        W44367  16.237  43.752  14.465
71300W        W44368  38.138   2.202   4.855
71301W        W44369  32.344  34.078  10.477
71302W        W44370   6.762   3.851  12.840
71303W        W44371  26.111  23.929   4.086
71304W        W44372  11.231  37.978  11.754
71305W        W44373  42.822  13.158   3.330
71306W        W44374  10.801  39.733  12.329
71307W        W44375   6.920  43.564  12.426
71308W        W44376  11.902  28.680  12.902
71309W        W44377  42.175  37.804  12.815
71310W        W44378  32.169  32.483  11.841
71311W        W44379  10.842  28.606   3.673
71312W        W44380  12.324  29.042   3.898
71313W        W44381  14.357  27.487   3.879
71314W        W44382  22.740   6.299   4.527
71315W        W44383  34.505  25.795   1.458
71316W        W44384  17.091  12.771   3.146
71317W        W44385   4.999  12.920   1.806
71318W        W44386  13.820  26.032   1.782
71319W        W44387   0.914   9.651   3.779
71320W        W44388  22.701  36.445   0.907
71321W        W44389   3.281  39.266  12.626
71322W        W44390  28.362  37.391   1.790
71323W        W44391  20.594   3.425   0.395
71324W        W44392  24.080  40.150   2.217
71325W        W44393  16.223  28.637  10.834
71326W        W44394  14.979  11.283  13.019
71327W        W44395  39.922  14.664  14.992
71328W        W44396  32.341  25.116  12.487
71329W        W44397  19.468  10.830   1.906
71330W        W44398  38.211  15.583  10.799
71331W        W44399  30.963  29.716   1.818
71332W        W44400  26.746   5.664  11.102
71333W        W44401  27.253  29.925   4.232
71334W        W44402  26.917  18.319   1.050
71335W        W44403   3.294  33.471   0.276
71336W        W44404  36.642  36.842   2.254
71337W        W44405  14.646  14.047  11.696
71338W        W44406  42.948  17.601  12.217
71339W        W44407  33.309  34.025   4.260
71340W        W44408  25.522  11.634   1.200
71341W        W44409   4.910  20.220  11.131
71342W        W44410  29.538  30.494  13.698
71343W        W44411   9.387  12.583   0.176
71344W        W44412   1.840  19.299   2.742
71345W        W44413  19.568  22.071   2.292
71346W        W44414  29.257   6.856   4.292
71347W        W44415  37.605  26.193  11.471
71348W        W44416  21.006  39.974  11.959
71349W        W44417  34.608  44.074   1.351
71350W        W44418   6.733   5.154   4.127
71351W        W44419  28.668  12.507   1.304
71352W        W44420  33.059  37.256  11.693
71353W        W44421  16.610  35.583  12.998
71354W        W44422  30.019  42.121   4.555
71355W        W44423  17.147  44.252  10.379
71356W        W44424  28.265  41.435  13.711
71357W        W44425  32.596  14.377  12.872
71358W        W44426  41.438  15.632   3.265
71359W        W44427  16.843  10.622  12.434
71360W        W44428  36.158  40.420   1.397
71361W        W44429  35.885   7.728   4.495
71362W        W44430   5.262  42.007   2.684
71363W        W44431  18.062  13.273  12.963
71364W        W44432  30.607   6.977  11.219
71365W        W44433  17.349  26.763  11.975
71366W        W44434  38.159  24.961  11.539
71367W        W44435   2.702  41.373  12.612
71368W        W44436   6.748  14.373  14.888
71369W        W44437  32.934   3.877  11.038
71370W        W44438  30.906  23.767   2.136
71371W        W44439   0.382  23.325   0.071
71372W        W44440  11.773   0.516  14.860
71373W        W44441  36.371   8.990   3.812
71374W        W44442  36.826  28.293   0.068
71375W        W44443  38.082  16.070  13.254
71376W        W44444   1.526  30.057   3.639
71377W        W44445  25.207  37.925   2.730
71378W        W44446  27.712  21.153   0.789
71379W        W44447  34.104  21.121   4.550
71380W        W44448  38.890  32.624   4.599
71381W        W44449  17.133  25.571  14.528
71382W        W44450  21.806  18.875   1.292
71383W        W44451  25.924  15.018   3.778
71384W        W44452   9.129   8.776   3.154
71385W        W44453  15.830  19.259  11.999
71386W        W44454   8.120  37.741   4.746
71387W        W44455   4.220  31.617   2.741
71388W        W44456   6.788  17.054   3.215
71389W        W44457   3.967   5.277   3.531
71390W        W44458  17.313  43.441  13.496
71391W        W44459  26.728   3.505  10.210
71392W        W44460  22.680   8.871  10.257
71393W        W44461  21.719  37.010  11.016
71394W        W44462  15.627  33.279   2.802
71395W        W44463  15.469  40.945  10.496
71396W        W44464  15.361  19.295  14.887
71397W        W44465  34.601  14.756  10.816
71398W        W44466  37.449  33.441   4.597
71399W        W44467  10.186  35.001   2.050
71400W        W44468   0.093  20.064   4.246
71401W        W44469  28.029  22.729  14.399
71402W        W44470  25.565   4.424  14.957
71403W        W44471  34.543  35.073  11.403
71404W        W44472  26.379  38.405   4.807
71405W        W44473  30.994  43.403   4.666
71406W        W44474   5.658  20.636   2.922
71407W        W44475  32.836  22.088  10.680
71408W        W44476  23.426   9.277   0.946
71409W        W44477  43.251   8.926  10.706
71410W        W44478  21.578   6.748  10.963
71411W        W44479  35.656   0.961   1.356
71412W        W44480   6.310  37.801   3.678
71413W        W44481  24.592  12.862  12.475
71414W        W44482  40.478  12.464   2.174
71415W        W44483  18.996  32.978   1.286
71416W        W44484   7.184  10.991  14.697
71417W        W44485  26.770  20.578   4.487
71418W        W44486  11.183  26.274  12.009
71419W        W44487  32.439   6.360  14.054
71420W        W44488  28.004  14.779  13.973
71421W        W44489  32.595  29.983  13.217
71422W        W44490   0.711  28.972   0.930
71423W        W44491  24.031  18.637  13.248
71424W        W44492  17.687  38.624   0.940
71425W        W44493  11.708   7.438  12.463
71426W        W44494  43.968  42.905  10.525
71427W        W44495   6.082  44.752   0.139
71428W        W44496  29.061  24.502  14.567
71429W        W44497  37.386  26.494   3.675
71430W        W44498  26.718   5.808  11.954
71431W        W44499  35.614  43.922  11.624
71432W        W44500   2.825  37.485   3.769
71433W        W44501   5.757  40.556  12.468
71434W        W44502  33.957  12.778   4.561
71435W        W44503  26.967  24.631  14.781
71436W        W44504  40.487  32.596   1.887
71437W        W44505  17.516  41.557  13.051
71438W        W44506  37.004  30.861   3.805
71439W        W44507   6.539  44.237  13.409
71440W        W44508  25.219  41.826  11.475
71441W        W44509  23.267  14.115  12.336
71442W        W44510  38.512   0.491  13.941
71443W        W44511  16.055  39.455   2.599
71444W        W44512   0.983  23.156  13.509
71445W        W44513  36.543   2.716   0.875
71446W        W44514  15.087  12.636   4.214
71447W        W44515  14.344  43.390  12.148
71448W        W44516  28.797  24.042  11.264
71449W        W44517  40.447   0.193   4.165
71450W        W44518  19.650  33.986   4.755
71451W        W44519  33.505   3.931  11.253
71452W        W44520   5.434  11.952   4.459
71453W        W44521   4.455  21.352   3.690
71454W        W44522  32.995  37.743  11.499
71455W        W44523  19.054  13.877   4.148
71456W        W44524  23.977  19.503   4.094
71457W        W44525  10.357  40.846   2.461
71458W        W44526  34.300   2.195  11.157
71459W        W44527  27.612  26.003   0.825
71460W        W44528  14.752  23.984  13.302
71461W        W44529  26.424  25.007  14.087
71462W        W44530  10.094  42.071   4.256
71463W        W44531  21.939  13.692   4.658
71464W        W44532  40.383   2.750  11.033
71465W        W44533  21.914  17.147  12.037
71466W        W44534  32.876  28.722  14.284
71467W        W44535  18.650  34.592  10.851
71468W        W44536  24.265  44.772  10.776
71469W        W44537  27.696  23.370  11.626
71470W        W44538  29.423  24.424   3.203
71471W        W44539  10.379  30.400   3.057
71472W        W44540  43.475  44.918  13.461
71473W        W44541  21.692  31.419   0.378
71474W        W44542   2.998  25.504  12.913
71475W        W44543  43.933   3.899   0.966
71476W        W44544  26.954  29.831   2.930
71477W        W44545  40.803  38.359  12.472
71478W        W44546  32.138  28.988  14.801
71479W        W44547  15.687  34.631   3.781
71480W        W44548  38.205  20.450   1.077
71481W        W44549  39.364   6.333  11.603
71482W        W44550   0.797  42.344  11.642
71483W        W44551  43.628  36.467   1.768
71484W        W44552  15.419  44.736   2.287
71485W        W44553  15.952   4.372  14.950
71486W        W44554  32.085  42.019   3.928
71487W        W44555  39.397  34.936   1.002
71488W        W44556  40.935  22.009  12.559
71489W        W44557  10.422  44.557  13.653
71490W        W44558  29.690  14.258  11.338
71491W        W44559  32.150  32.049   1.864
71492W        W44560   6.154  12.889   4.578
71493W        W44561  22.451  34.799   5.148
71494W        W44562   6.460  34.359   5.187
71495W        W44563  24.441  16.895   1.593
71496W        W44564  23.490  41.616   2.269
71497W        W44565  30.246   4.311   3.668
71498W        W44566  10.186  11.190  14.595
71499W        W44567  19.234  12.878  12.571
71500W        W44568   6.690  29.619   3.904
71501W        W44569  23.164  17.289   1.699
71502W        W44570  37.370  23.525  10.961
71503W        W44571  40.951  33.350  11.997
71504W        W44572   2.667  16.150   3.823
71505W        W44573  22.942  29.481   1.658
71506W        W44574  10.748  31.545   1.888
71507W        W44575  12.067  29.053  12.563
71508W        W44576  24.783  18.714   1.177
71509W        W44577   8.148  19.330   4.369
71510W        W44578  37.881   8.678   1.432
71511W        W44579   8.111  12.505  14.330
71512W        W44580  13.282  28.110  13.332
71513W        W44581   8.086   7.444  13.364
71514W        W44582  42.935  39.980  10.783
71515W        W44583   5.770  41.965  10.792
71516W        W44584  37.490   5.678  13.960
71517W        W44585  20.157  35.347   0.303
71518W        W44586  30.371  31.531   0.786
71519W        W44587   1.812  44.473   0.271
71520W        W44588  14.623  22.828  11.579
71521W        W44589  13.403   9.005  12.555
71522W        W44590  13.113  24.637   3.199
71523W        W44591  36.861   1.777   4.628
71524W        W44592   7.459  34.958  13.972
71525W        W44593  21.304   5.172  10.334
71526W        W44594  16.677   8.742  10.183
71527W        W44595  15.110  32.193   0.220
71528W        W44596  25.927  10.575   4.625
71529W        W44597  35.637  44.061   4.580
71530W        W44598  20.644   1.038  13.898
71531W        W44599  32.672  14.083  10.683
71532W        W44600  21.208   6.609   0.356
71533W        W44601  43.540   8.438   4.284
71534W        W44602  31.676  34.808  11.385
71535W        W44603  13.286  43.949  14.714
71536W        W44604  38.097  16.676   3.165
71537W        W44605   7.055  13.589   4.489
71538W        W44606   3.013  35.423   4.764
71539W        W44607  38.364  29.916   0.364
71540W        W44608  24.979  31.890   4.179
71541W        W44609  19.901  12.612  13.300
71542W        W44610  36.521  30.117  11.089
71543W        W44611  10.619  29.297  10.216
71544W        W44612  14.061  40.270  12.169
71545W        W44613   6.778   6.391  14.809
71546W        W44614  23.998  41.754  10.781
71547W        W44615  26.242  29.903  13.058
71548W        W44616  20.672   0.258  11.272
71549W        W44617  21.696  19.080  10.430
71550W        W44618   4.645  22.536  12.242
71551W        W44619  20.033   6.890  11.147
71552W        W44620  34.542  44.014  12.475
71553W        W44621   4.355  20.100  12.031
71554W        W44622   2.635  31.715  11.254
71555W        W44623  38.794  29.019  11.945
71556W        W44624  14.482   4.902   2.878
71557W        W44625  24.004  17.684   3.675
71558W        W44626  43.480  30.118   1.354
71559W        W44627  31.585  26.263   1.867
71560W        W44628   9.226  31.974  12.038
71561W        W44629   0.468  44.515   2.947
71562W        W44630  14.351  26.450  10.698
71563W        W44631  29.863   2.352   2.878
71564W        W44632  14.635   7.653  11.148
71565W        W44633  44.064  17.748   4.553
71566W        W44634  15.343  33.201  14.285
71567W        W44635  25.519  39.894   3.962
71568W        W44636   5.908   7.257  13.765
71569W        W44637  33.932  32.698   1.919
71570W        W44638  11.281  35.529   1.248
71571W        W44639  16.990  21.456  12.427
71572W        W44640  16.695   2.464  13.843
71573W        W44641  23.730  41.894   4.294
71574W        W44642  26.768  18.880   3.226
71575W        W44643  33.132   7.102   1.355
71576W        W44644  42.438   9.240   0.374
71577W        W44645  19.633  38.994  10.880
71578W        W44646  30.058  43.080   4.802
71579W        W44647  11.964  40.482  14.309
71580W        W44648  34.877  21.809  10.673
71581W        W44649  23.096   6.979   4.267
71582W        W44650  36.642   0.888   0.499
71583W        W44651  15.617  12.536  14.530
71584W        W44652  27.071   5.234   3.696
71585W        W44653  39.036  14.168  14.490
71586W        W44654  24.382  24.463   0.952
71587W        W44655  41.508  39.549  12.915
71588W        W44656  25.583   4.239   1.017
71589W        W44657  26.567   7.142  13.559
71590W        W44658  22.731  22.350  13.289
71591W        W44659   5.674  24.962   0.339
71592W        W44660  27.660  37.772  11.154
71593W        W44661  18.996  21.178   1.554
71594W        W44662   4.882  14.362   0.483
71595W        W44663   8.425   4.280  14.928
71596W        W44664  41.145  34.880   0.394
71597W        W44665  43.051  10.424   3.109
71598W        W44666  18.780  10.155   3.859
71599W        W44667  30.626   0.949   0.432
71600W        W44668  25.424  23.726   5.081
71601W        W44669   8.248   4.990   0.924
71602W        W44670  29.503   3.355   3.260
71603W        W44671  25.253  12.654  11.475
71604W        W44672  34.081  29.513   3.918
71605W        W44673  36.071  24.474  14.909
71606W        W44674  38.622  37.894   3.650
71607W        W44675  22.391  39.424  13.992
71608W        W44676  27.926  31.038  13.565
71609W        W44677  22.411  21.080   5.129
71610W        W44678  44.472  20.223  11.649
71611W        W44679  23.240   3.823  14.814
71612W        W44680  27.496  15.655  14.048
71613W        W44681  34.711  37.304  13.813
71614W        W44682   0.274  44.409   4.712
71615W        W44683  15.832   7.188  11.183
71616W        W44684  44.511  38.300  13.319
71617W        W44685  28.386  25.644   3.288
71618W        W44686   6.507  14.114   2.180
71619W        W44687  30.430  11.886   2.674
71620W        W44688  22.531  14.577   4.241
71621W        W44689  13.829   6.845   3.316
71622W        W44690  40.383  40.234   4.729
71623W        W44691  21.680  23.582   2.300
71624W        W44692  24.594  25.621  14.284
71625W        W44693  28.483  13.703   4.191
71626W        W44694  38.476  30.657   0.859
71627W        W44695  30.063   2.480   0.727
71628W        W44696  32.232  18.069   3.369
71629W        W44697  43.891  16.156   4.177
71630W        W44698  10.295  29.054  12.414
71631W        W44699  35.755  22.689   3.793
71632W        W44700   7.600   5.388  11.268
71633W        W44701  44.358  34.444   0.530
71634W        W44702  26.026  43.436   2.912
71635W        W44703  40.315  10.192  10.719
71636W        W44704  21.163  40.930  14.738
71637W        W44705   7.256   9.814  13.775
71638W        W44706  37.544  10.477   2.152
71639W        W44707  21.852  21.129   0.316
71640W        W44708  15.083  17.085  14.856
71641W        W44709  12.786  26.465  13.101
71642W        W44710  38.177  39.859  14.513
71643W        W44711  11.646  28.919   0.863
71644W        W44712   8.150  36.315  13.303
71645W        W44713  25.457  21.820  11.574
71646W        W44714  15.793  17.188   3.837
71647W        W44715   8.146  40.873  13.335
71648W        W44716  32.170  39.449   4.886
71649W        W44717  28.582  15.908  14.722
71650W        W44718  44.042  18.932  12.468
71651W        W44719  33.921  16.273   3.719
71652W        W44720   7.219  11.614   3.653
71653W        W44721  44.225  15.244   0.453
71654W        W44722  15.440  34.440   1.396
71655W        W44723  22.668  41.589  12.691
71656W        W44724   2.107  18.556  10.612
71657W        W44725  10.545  32.500   4.558
71658W        W44726  44.481  42.498   2.940
71659W        W44727  33.039  25.065  14.384
71660W        W44728   5.258  19.529   0.648
71661W        W44729  30.703  38.994  12.867
71662W        W44730  41.946  26.462   4.604
71663W        W44731  36.961   5.227   3.612
71664W        W44732  25.511  13.990   3.372
71665W        W44733   1.469  26.601   3.234
71666W        W44734  43.391  26.118  14.735
71667W        W44735  35.900  19.639  12.168
71668W        W44736  22.283   7.487   0.894
71669W        W44737  10.027  15.616  13.946
71670W        W44738  32.222   1.680  12.386
71671W        W44739  38.716   4.295  11.193
71672W        W44740  38.372  40.427  11.110
71673W        W44741  41.343   2.690   1.377
71674W        W44742  27.449  36.406   0.888
71675W        W44743  27.939  24.741   3.337
71676W        W44744  12.189  34.745  11.881
71677W        W44745   2.873  29.321  14.123
71678W        W44746  26.077  30.684   2.006
71679W        W44747  12.309   2.830   1.811
71680W        W44748  29.140  12.039  11.109
71681W        W44749  31.160  12.683   1.217
71682W        W44750  26.063  28.903   4.054
71683W        W44751  31.322  19.311   3.797
71684W        W44752  36.599  28.101  13.884
71685W        W44753  37.806  42.760   2.238
71686W        W44754   5.263  35.501  11.282
71687W        W44755  17.347  33.448  12.514
71688W        W44756  24.293  11.729   0.228
71689W        W44757  42.571  41.356   3.183
71690W        W44758  10.538  40.392  13.858
71691W        W44759  30.901  44.263  14.862
71692W        W44760  15.032  32.629   1.954
71693W        W44761  12.136  28.549   4.530
71694W        W44762  29.675  33.415  14.374
71695W        W44763   6.935  44.571  11.100
71696W        W44764  42.737  27.590  11.667
71697W        W44765   1.990  13.890   2.001
71698W        W44766  24.754  32.005   0.283
71699W        W44767  20.567  16.335   2.157
71700W        W44768  14.567  20.564  10.999
71701W        W44769  25.726  37.133  11.603
71702W        W44770  17.778  41.546   1.235
71703W        W44771  27.500  26.773   2.273
71704W        W44772  15.477  13.539   1.399
71705W        W44773  36.585   6.475   4.559
71706W        W44774  16.361  27.223   4.377
71707W        W44775  19.071   0.493  13.070
71708W        W44776  35.467  30.251   1.976
71709W        W44777  42.856  22.613   0.970
71710W        W44778  23.105  42.778  10.860
71711W        W44779  13.880  11.146   0.435
71712W        W44780  41.635   7.869   0.088
71713W        W44781  24.927   5.719   0.984
71714W        W44782  27.977   5.721   2.849
71715W        W44783  25.150  42.554  11.000
71716W        W44784  29.590  43.516  11.569
71717W        W44785  35.473  24.825   3.187
71718W        W44786  13.204  33.062  11.001
71719W        W44787   7.246  40.754   4.556
71720W        W44788   9.877  34.086   3.766
71721W        W44789   3.572   9.422  10.666
71722W        W44790   2.685   1.467   2.855
71723W        W44791  32.964   7.366   2.316
71724W        W44792  12.298  40.476   4.300
71725W        W44793   3.006   0.022   3.201
71726W        W44794   8.212  21.283  11.583
71727W        W44795  38.121   5.406   0.033
71728W        W44796   6.077   6.981  11.827
71729W        W44797  33.124  22.447  11.123
71730W        W44798  15.948  44.520  14.063
71731W        W44799  36.082   2.524  12.500
71732W        W44800   8.323  41.372   2.497
71733W        W44801   9.349  39.706  11.598
71734W        W44802  42.280  44.887  10.904
71735W        W44803  18.297  35.475  11.411
71736W        W44804   1.490  32.562   3.237
71737W        W44805  32.073   0.757   0.059
71738W        W44806  27.648  10.238  10.944
71739W        W44807  15.074  40.497   4.574
71740W        W44808  12.422  10.171  12.429
71741W        W44809  38.889  18.633  11.864
71742W        W44810   3.293  27.050  14.346
71743W        W44811  20.672   2.160  13.076
71744W        W44812   7.924  34.892   1.661
71745W        W44813  31.532  19.280   0.744
71746W        W44814   1.716  40.540   1.468
71747W        W44815   2.845   8.406   0.473
71748W        W44816  34.359  12.045   4.350
71749W        W44817  12.142  21.729  12.401
71750W        W44818  31.535  25.569   2.463
71751W        W44819  37.551   4.803  12.813
71752W        W44820  22.327  10.283  13.596
71753W        W44821  37.249  19.564  12.908
71754W        W44822  23.643  24.115   1.205
71755W        W44823   9.412  30.548   3.163
71756W        W44824  38.565  38.066   0.870
71757W        W44825  29.360  32.431  13.885
71758W        W44826  35.299   8.309   4.163
71759W        W44827  43.272  26.704   1.785
71760W        W44828   8.792  16.352  12.551
71761W        W44829  40.668   7.739   0.495
71762W        W44830   1.805  15.207   4.520
71763W        W44831  12.083  34.362  11.521
71764W        W44832   9.178   3.352   3.241
71765W        W44833   6.909  28.073  13.795
71766W        W44834  18.368  36.691  13.127
71767W        W44835  31.813  41.914   0.566
71768W        W44836  44.796  33.234   3.299
71769W        W44837  18.140   6.674   4.469
71770W        W44838  29.327  38.001   3.163
71771W        W44839  23.689   6.101   1.228
71772W        W44840  11.138  11.576  12.400
71773W        W44841  28.857  12.773  10.676
71774W        W44842  23.528  17.197  13.924
71775W        W44843   3.666  12.298  13.954
71776W        W44844  14.737  30.879  13.601
71777W        W44845  41.513  41.356  14.411
71778W        W44846  41.691   6.780  13.700
71779W        W44847  30.346  22.111  12.975
71780W        W44848   3.030   6.391   2.445
71781W        W44849  26.470  10.065  11.460
71782W        W44850  17.460  35.840  11.082
71783W        W44851   0.915  44.806  12.174
71784W        W44852  43.981   9.877   4.618
71785W        W44853   3.213  14.142   4.673
71786W        W44854  10.654  16.782   0.409
71787W        W44855  22.261   6.719  13.874
71788W        W44856  38.278  21.767   0.343
71789W        W44857  21.798  10.661  12.879
71790W        W44858   4.036  21.008   3.707
71791W        W44859  25.406  20.288  11.638
71792W        W44860  33.737   1.002  14.992
71793W        W44861  15.500  39.576  12.413
71794W        W44862  35.463  32.802   4.844
71795W        W44863  35.385  13.787   2.132
71796W        W44864   5.170  25.151   1.770
71797W        W44865   0.353  14.250   3.568
71798W        W44866   4.481  25.987  14.514
71799W        W44867  42.765  15.276   3.164
71800W        W44868  27.624  27.293   2.245
71801W        W44869   6.245  18.262  11.896
71802W        W44870  25.066  23.575   3.826
71803W        W44871  42.730  41.845   0.848
71804W        W44872   7.172  34.406   1.964
71805W        W44873   6.680  16.620   3.653
71806W        W44874   1.385  41.331   1.719
71807W        W44875  42.301  33.458   0.690
71808W        W44876  19.341  20.568   4.319
71809W        W44877  40.352  33.748  12.073
71810W        W44878  11.476  42.590   4.298
71811W        W44879  20.380  36.448  14.641
71812W        W44880   5.002  14.270  11.601
71813W        W44881   2.713  33.589  14.376
71814W        W44882  34.869  30.842   0.239
71815W        W44883  13.622  13.204   1.188
71816W        W44884   4.437  42.943  12.513
71817W        W44885   3.535  15.602   2.317
71818W        W44886  37.565  39.601  14.301
71819W        W44887  31.442   5.389  12.024
71820W        W44888   4.589  26.670  10.110
71821W        W44889   7.338  43.878   1.362
71822W        W44890   5.310  26.110   3.282
71823W        W44891  28.435  29.831   3.604
71824W        W44892  43.460  32.191   1.338
71825W        W44893  28.363   0.365  13.043
71826W        W44894  26.106  18.361  11.577
71827W        W44895   9.189  31.372  14.059
71828W        W44896  22.917  22.416  14.074
71829W        W44897  40.151   3.383   2.452
71830W        W44898  19.084  41.112  14.409
71831W        W44899   5.619  22.399  12.596
71832W        W44900   3.569   6.351   0.490
71833W        W44901  43.266  31.182   0.283
71834W        W44902   8.620   6.310  13.764
71835W        W44903   7.291  17.311   1.406
71836W        W44904  28.630   9.760  11.962
71837W        W44905  12.169  42.606  12.726
71838W        W44906   5.906  14.200   2.901
71839W        W44907  18.041   0.359  11.057
71840W        W44908  34.894  40.147  11.193
71841W        W44909  10.196  42.968  12.337
71842W        W44910  11.221  26.048  11.531
71843W        W44911  43.842  11.622   1.857
71844W        W44912  37.384   8.358  10.992
71845W        W44913  23.511  34.303  12.079
71846W        W44914  24.518   0.316   3.682
71847W        W44915   2.526  18.212   4.359
71848W        W44916  24.580   5.951  14.535
71849W        W44917  44.323  38.551  12.871
71850W        W44918  36.411  35.670   4.007
71851W        W44919   5.517  42.729   0.960
71852W        W44920  41.552  13.719   4.173
71853W        W44921   9.070  14.437  14.702
71854W        W44922  25.222   0.160   2.337
71855W        W44923  16.804  16.513  13.455
71856W        W44924  22.191   7.782   3.119
71857W        W44925  40.547  40.075   1.263
71858W        W44926  38.364  22.187  13.812
71859W        W44927  14.703  15.576   3.441
71860W        W44928   0.006  15.881  13.355
71861W        W44929  30.474  35.011  14.986
71862W        W44930   2.801  37.762  10.569
71863W        W44931  35.343  38.397   0.147
71864W        W44932  25.277   1.239   1.729
71865W        W44933  29.863  37.046   2.542
71866W        W44934  18.607   1.656  10.679
71867W        W44935   8.174  23.982  13.911
71868W        W44936  36.903   5.406  13.046
71869W        W44937   3.111  11.668   1.870
71870W        W44938  19.067   2.187  13.298
71871W        W44939  15.498  14.072  10.223
71872W        W44940  17.345  38.330   4.839
71873W        W44941   9.609   4.882  13.348
71874W        W44942  12.904  35.895   4.736
71875W        W44943  21.719   8.722  12.566
71876W        W44944  19.769  30.568  12.427
71877W        W44945  15.832  17.188   0.396
71878W        W44946  43.440  21.084   0.312
71879W        W44947  39.835  44.425  10.361
71880W        W44948  23.958  39.482  10.630
71881W        W44949  29.113  33.973  10.970
71882W        W44950  20.138  16.249   4.084
71883W        W44951  33.058  16.789   0.429
71884W        W44952  40.533  39.401   4.080
71885W        W44953  16.215  24.523  12.056
71886W        W44954  43.819  22.471   1.446
71887W        W44955  30.334  39.586   0.342
71888W        W44956  11.767  21.532   2.886
71889W        W44957  29.222  33.375   2.281
71890W        W44958   9.140  34.064   3.313
71891W        W44959   6.444   5.390  11.981
71892W        W44960  13.618  42.863  12.440
71893W        W44961  29.180  42.503   2.103
71894W        W44962   4.534   2.690   1.638
71895W        W44963  32.497  16.904  12.222
71896W        W44964  43.951  11.881  11.116
71897W        W44965  19.287  30.632  12.661
71898W        W44966  42.052  33.075   3.997
71899W        W44967   2.015   4.383   1.345
71900W        W44968   3.494  38.539  14.998
71901W        W44969  34.486  43.788  13.381
71902W        W44970   2.797  28.030  14.946
71903W        W44971  39.604   7.215   4.368
71904W        W44972  30.216  24.080  12.215
71905W        W44973  21.703  16.769  14.996
71906W        W44974  32.373  38.732  10.559
71907W        W44975  17.813  42.435   3.193
71908W        W44976  34.348   0.507   1.419
71909W        W44977  40.250  21.550  12.864
71910W        W44978  27.411  20.031  10.495
71911W        W44979  25.926  36.898  14.699
71912W        W44980  24.704  41.362  12.090
71913W        W44981  16.830  34.540  14.939
71914W        W44982  44.040  12.694  12.590
71915W        W44983   5.699  42.498   4.285
71916W        W44984   8.928  39.073   2.620
71917W        W44985  20.605  40.702   3.393
71918W        W44986  28.702  14.368   1.806
71919W        W44987  27.695  30.991   3.537
71920W        W44988  12.012  39.390   0.805
71921W        W44989  16.626   6.607  14.440
71922W        W44990  30.427  36.863  13.980
71923W        W44991  19.679  40.287   0.864
71924W        W44992  21.835  34.070  11.604
71925W        W44993  41.015  36.587  13.118
71926W        W44994  21.299  14.721  14.377
71927W        W44995  26.262  15.389  11.690
71928W        W44996  14.502  29.946  14.553
71929W        W44997  17.033  42.820  12.626
71930W        W44998   6.709  13.189  12.622
71931W        W44999  36.163  24.087   1.428
71932W        W45000  31.627  20.649   4.112
71933W        W45001   5.292   5.722   3.891
71934W        W45002   2.989   4.814  11.041
71935W        W45003  23.414  31.008  10.965
71936W        W45004  10.681  34.974  11.653
71937W        W45005  34.534   9.302   0.833
71938W        W45006  40.243   9.117   0.908
71939W        W45007  44.867   8.847  14.868
71940W        W45008   1.079   5.739   0.779
71941W        W45009   4.406   0.225   4.116
71942W        W45010  18.767  11.751  12.959
71943W        W45011  11.227  26.373   1.345
71944W        W45012   4.793  39.998   0.485
71945W        W45013  13.644  27.433   0.848
71946W        W45014   3.946  14.209  14.111
71947W        W45015  37.291  14.204   1.213
71948W        W45016  40.508   4.411  11.467
71949W        W45017  43.257   3.672  11.551
71950W        W45018   5.053  34.336  13.470
71951W        W45019  24.660  10.611   0.150
71952W        W45020  24.014   1.846  12.870
71953W        W45021  39.532  15.703  10.973
71954W        W45022  15.591  32.374   0.301
71955W        W45023  43.643  13.041  12.633
71956W        W45024  42.996   3.147   0.260
71957W        W45025  19.586  39.503  14.833
71958W        W45026  17.014   6.105   4.376
71959W        W45027   4.963  43.536  12.090
71960W        W45028   6.262  17.668   1.315
71961W        W45029  34.791  35.516  11.480
71962W        W45030   6.138  31.611  14.845
71963W        W45031  44.787  25.410   1.691
71964W        W45032  37.776   7.378   1.782
71965W        W45033  44.173  34.925  12.426
71966W        W45034  33.941  44.213  11.478
71967W        W45035  20.659  21.335  12.216
71968W        W45036  32.435   6.159   2.399
71969W        W45037  31.544  36.276  11.028
71970W        W45038  35.952  38.692   4.128
71971W        W45039   7.821  11.853  10.483
71972W        W45040  14.354   7.874  11.564
71973W        W45041   2.917  12.546  11.929
71974W        W45042   9.972   9.439   3.830
71975W        W45043   8.826  18.285   2.806
71976W        W45044  38.367  15.800  12.937
71977W        W45045  13.188  41.353   2.201
71978W        W45046  27.577   1.102  11.603
71979W        W45047  38.534  39.051  12.391
71980W        W45048  15.218  20.826  14.751
71981W        W45049  14.578  29.972   0.336
71982W        W45050  19.104  44.726   3.869
71983W        W45051  20.626  42.297  14.603
71984W        W45052  24.028  14.231  14.923
71985W        W45053  23.514  41.912   2.807
71986W        W45054  31.302  32.017  12.048
71987W        W45055  12.510   9.657  13.331
71988W        W45056  18.218  25.499  14.913
71989W        W45057  21.505  19.742   3.391
71990W        W45058   8.970  18.094  11.212
71991W        W45059  21.734  40.523  11.126
71992W        W45060   5.260  30.448  12.618
71993W        W45061  12.800   6.310   1.322
71994W        W45062  30.414  30.589  11.897
71995W        W45063  25.748  20.311   2.979
71996W        W45064   7.539   3.252   2.351
71997W        W45065  20.598  14.787   0.754
71998W        W45066   6.420  13.234   1.743
71999W        W45067  42.896  44.480   2.359
72000W        W45068  44.729  44.449   0.381
72001W        W45069  42.322  17.748   0.554
72002W        W45070   6.182  15.056   3.810
72003W        W45071  44.548  44.434   2.998
72004W        W45072  16.013   6.954   2.850
72005W        W45073  24.329  13.164   4.776
72006W        W45074  41.873  20.508   4.745
72007W        W45075  15.180  38.368  11.093
72008W        W45076   9.750  27.541  13.863
72009W        W45077  17.655  22.715  10.611
72010W        W45078  27.292  35.170   2.178
72011W        W45079  37.999  34.053  13.844
72012W        W45080  35.082  16.021  11.096
72013W        W45081  39.376  19.000   3.591
72014W        W45082  41.171  17.397  11.201
72015W        W45083  44.404  21.079   0.490
72016W        W45084  39.529  31.642  12.552
72017W        W45085  28.442  24.606  12.022
72018W        W45086  26.195  40.421   2.826
72019W        W45087  23.729  44.793   4.572
72020W        W45088  19.287  26.706   1.790
72021W        W45089  17.044  15.902  14.769
72022W        W45090   2.260   9.378  10.796
72023W        W45091  40.104   3.984   2.920
72024W        W45092  24.529  29.554   1.763
72025W        W45093  18.674  26.051   0.537
72026W        W45094  44.186  28.087   4.091
72027W        W45095  25.688  14.208   1.063
72028W        W45096   3.664   5.323  13.328
72029W        W45097   5.290   9.162  10.914
72030W        W45098  39.282  37.337   3.174
72031W        W45099  12.648   1.479   0.804
72032W        W45100  13.211   5.043   0.815
72033W        W45101  29.101  24.047   4.323
72034W        W45102  19.070  16.401  14.813
72035W        W45103  32.677   5.895  14.252
72036W        W45104   7.197  34.180   0.228
72037W        W45105  16.165   8.239  13.327
72038W        W45106   8.372  44.613  12.145
72039W        W45107   2.450  39.267  10.420
72040W        W45108  24.616  40.868  13.458
72041W        W45109   3.881   6.741  10.521
72042W        W45110  23.526  17.792  11.624
72043W        W45111  22.887   2.975   0.201
72044W        W45112  31.528  33.359   4.136
72045W        W45113   4.716  42.361   3.593
72046W        W45114   8.730  32.803   1.783
72047W        W45115  26.812   7.323   0.903
72048W        W45116  37.189  44.861  11.206
72049W        W45117  19.329  43.479  14.767
72050W        W45118  21.126  10.329   3.215
72051W        W45119  17.155   9.790   1.161
72052W        W45120  29.071   6.956  13.520
72053W        W45121   4.353  24.629   1.837
72054W        W45122   6.463   9.435  11.454
72055W        W45123   2.976  42.800   3.725
72056W        W45124  34.415  34.667   3.356
72057W        W45125   1.410  26.642  11.605
72058W        W45126   9.007  30.318   4.541
72059W        W45127  26.184  11.595   4.333
72060W        W45128  32.068  40.751  13.562
72061W        W45129  41.050  40.615  12.217
72062W        W45130   2.419  26.392  13.535
72063W        W45131  24.571  28.034   2.873
72064W        W45132  13.433  11.247  11.025
72065W        W45133   4.654  23.664   4.811
72066W        W45134   1.851   9.594   2.245
72067W        W45135  34.364  35.760  11.621
72068W        W45136  32.919  41.848  12.590
72069W        W45137   7.024  35.916   3.641
72070W        W45138  13.836  17.173  13.517
72071W        W45139  40.212  43.523   0.200
72072W        W45140  21.015   7.933  11.728
72073W        W45141   2.273  25.422  13.364
72074W        W45142   0.203  17.163   2.713
72075W        W45143  11.049  42.698  11.268
72076W        W45144  40.254  22.136  13.374
72077W        W45145   4.828  35.422  11.593
72078W        W45146   0.457   5.645   3.688
72079W        W45147  41.833  26.956  14.367
72080W        W45148  11.151  24.493  11.514
72081W        W45149   1.042   3.193  13.930
72082W        W45150  35.713  32.995  10.331
72083W        W45151  16.126  13.058   3.592
72084W        W45152  17.131  10.365   1.931
72085W        W45153  25.412   3.361   3.646
72086W        W45154  33.628  22.072  11.064
72087W        W45155  35.890   7.703  11.413
72088W        W45156  11.593   3.669  13.986
72089W        W45157  22.873  27.786  10.668
72090W        W45158  33.965  18.523   2.989
72091W        W45159  20.510   9.264  14.989
72092W        W45160   9.583   1.364   3.187
72093W        W45161  18.207  27.387  14.971
72094W        W45162  43.282  34.414  11.203
72095W        W45163  35.456  44.267   2.799
72096W        W45164  10.965  30.926   1.104
72097W        W45165  22.627  37.768  10.761
72098W        W45166  34.833  42.913   0.400
72099W        W45167   8.319  40.412   1.469
72100W        W45168  16.546  21.825   0.382
72101W        W45169  13.069  43.485  13.987
72102W        W45170  29.289  29.554  14.669
72103W        W45171   2.180  10.785   4.302
72104W        W45172  18.495  21.909   1.710
72105W        W45173  18.144   3.580   3.073
72106W        W45174  20.063  24.917  14.948
72107W        W45175  43.692  44.421   2.008
72108W        W45176  23.920  21.474  13.218
72109W        W45177  10.347  18.491  12.502
72110W        W45178  19.729  29.277   2.665
72111W        W45179  14.571  22.564   4.435
72112W        W45180  11.363  22.554  14.117
72113W        W45181  25.613  43.199  14.477
72114W        W45182  21.234  17.700   2.715
72115W        W45183  17.212  38.446  11.416
72116W        W45184   1.824  13.388  11.923
72117W        W45185   3.770   1.987  11.092
72118W        W45186  10.414  26.146   3.370
72119W        W45187  33.848   6.204   2.232
72120W        W45188  18.764  12.744   1.460
72121W        W45189  20.614   0.249  14.161
72122W        W45190  24.043  19.162   1.416
72123W        W45191  43.818  25.977  13.587
72124W        W45192  14.994  16.192   4.244
72125W        W45193  24.283  33.736   3.261
72126W        W45194   2.094  29.537  13.435
72127W        W45195  34.325  21.707  11.470
72128W        W45196  33.214  15.262   0.820
72129W        W45197   2.818   8.720  12.408
72130W        W45198  24.042  12.256   0.748
72131W        W45199   7.171  34.390  11.134
72132W        W45200  12.834  41.456  13.115
72133W        W45201   5.716  14.794   0.515
72134W        W45202   6.776  30.949   0.374
72135W        W45203  10.742  21.999   1.304
72136W        W45204  29.947  29.447  11.201
72137W        W45205  35.534   7.114  13.680
72138W        W45206   6.187   7.850   3.286
72139W        W45207  43.906   7.932   4.824
72140W        W45208  15.290  36.561  14.012
72141W        W45209   2.762  34.620   2.347
72142W        W45210   7.095   1.986   4.424
72143W        W45211  42.269   4.266  12.131
72144W        W45212  43.112  20.951   2.222
72145W        W45213  26.749  36.038  11.083
72146W        W45214  15.190   9.802  13.081
72147W        W45215   8.717   0.701   2.411
72148W        W45216  29.772  32.144   4.177
72149W        W45217  18.407  33.314  12.459
72150W        W45218  20.138   7.143  14.280
72151W        W45219  44.290  35.801  12.891
72152W        W45220   5.196  37.862   3.176
72153W        W45221  31.177  44.290  12.948
72154W        W45222  12.623  44.472   2.756
72155W        W45223  43.778  27.241  14.465
72156W        W45224  35.948  26.259  10.463
72157W        W45225   0.084  14.243   4.162
72158W        W45226   9.753   8.179  11.405
72159W        W45227   5.808  34.130  12.296
72160W        W45228   1.501   8.874  14.700
72161W        W45229   6.789   3.636   1.719
72162W        W45230  39.596   1.924   0.896
72163W        W45231  22.162  33.800  10.733
72164W        W45232  17.226  37.313   0.861
72165W        W45233  38.258  34.979  14.872
72166W        W45234   7.666  28.975   1.370
72167W        W45235  12.480  11.294   1.881
72168W        W45236  40.456  31.308  14.399
72169W        W45237   8.577  33.058  12.889
72170W        W45238  13.078   3.436   0.314
72171W        W45239  23.265  19.230   5.070
72172W        W45240  10.417   7.443   1.839
72173W        W45241  23.361  43.904  11.118
72174W        W45242   3.252  41.557  14.769
72175W        W45243  42.413  22.202   0.278
72176W        W45244  14.845  20.727  10.576
72177W        W45245  18.864  26.411   4.453
72178W        W45246  18.789   7.416  13.803
72179W        W45247  29.418   4.684   4.178
72180W        W45248  35.868   3.788   3.668
72181W        W45249  22.539  10.228   2.652
72182W        W45250  26.698  13.393  13.635
72183W        W45251  10.734   9.606   2.228
72184W        W45252  21.227   0.779  10.578
72185W        W45253  13.582  24.460  12.972
72186W        W45254  21.303  32.635  13.461
72187W        W45255  27.686   9.950   4.152
72188W        W45256   3.391  31.720   2.229
72189W        W45257   6.943  33.386  11.192
72190W        W45258  25.172  12.101  12.604
72191W        W45259  11.678  20.045   0.011
72192W        W45260  34.054   6.237  12.031
72193W        W45261  19.380  33.642  11.563
72194W        W45262  38.910  18.656   1.468
72195W        W45263  26.633  38.152  12.956
72196W        W45264  21.556  24.162   2.668
72197W        W45265  28.471  22.534   0.840
72198W        W45266   6.659  44.293   2.766
72199W        W45267  10.279  43.808   2.383
72200W        W45268  21.567  38.395  10.729
72201W        W45269  17.367  41.961  10.360
72202W        W45270   6.099  17.299   1.991
72203W        W45271  21.341  33.526   3.138
72204W        W45272  43.293  25.664  11.991
72205W        W45273  10.237  43.347   0.443
72206W        W45274   1.309  12.341   2.904
72207W        W45275   8.739   3.505   0.058
72208W        W45276  10.482   7.011  12.136
72209W        W45277  43.698  43.809  12.852
72210W        W45278  34.606   6.958   2.414
72211W        W45279  23.746  35.483  11.071
72212W        W45280  41.571  15.212  11.575
72213W        W45281  20.327  10.239  14.796
72214W        W45282  20.817  42.015  13.454
72215W        W45283  18.565  42.840  14.881
72216W        W45284  15.769  14.036  10.697
72217W        W45285   1.203  35.784   3.735
72218W        W45286  29.383   8.783   3.782
72219W        W45287  39.706   8.089  13.517
72220W        W45288  28.231   2.321   4.640
72221W        W45289   3.487   5.681  12.621
72222W        W45290  13.737  34.340  12.850
72223W        W45291  44.612   6.386   4.063
72224W        W45292  14.641  41.536   2.647
72225W        W45293  31.684  12.719   1.093
72226W        W45294  20.043  11.031   1.314
72227W        W45295  36.527  28.689  12.344
72228W        W45296   7.797  38.361  11.567
72229W        W45297   6.914  32.011   3.311
72230W        W45298  32.595  30.220  14.200
72231W        W45299  43.107  35.278  10.759
72232W        W45300  27.728  29.950  14.360
72233W        W45301  29.586  21.521  12.464
72234W        W45302  11.092  14.271   2.457
72235W        W45303  43.444  36.433  14.222
72236W        W45304  34.063  30.612  14.762
72237W        W45305  29.859  11.775   3.368
72238W        W45306   4.987  33.578   0.399
72239W        W45307  15.679   2.333   4.708
72240W        W45308  43.892   9.107   1.431
72241W        W45309  21.484  17.506  13.445
72242W        W45310  31.875  25.777  10.773
72243W        W45311  33.865  10.288   1.612
72244W        W45312  40.083  29.542   4.646
72245W        W45313  15.639  34.569   4.348
72246W        W45314  18.747   3.420  12.996
72247W        W45315  22.242  19.330   1.749
72248W        W45316  36.855  42.905   1.950
72249W        W45317  43.349  21.711   3.330
72250W        W45318  18.728   0.137   0.376
72251W        W45319  38.367  37.432  11.866
72252W        W45320   5.483  44.765   4.103
72253W        W45321  40.646  38.927  11.198
72254W        W45322  33.682  16.652   2.165
72255W        W45323  44.492   0.739  14.814
72256W        W45324  13.091  24.666   0.344
72257W        W45325  16.640  24.578   0.481
72258W        W45326  43.211  10.243   1.241
72259W        W45327   1.454  10.306   1.766
72260W        W45328  24.175  32.604  14.872
72261W        W45329  23.733  36.518  11.045
72262W        W45330   0.604  28.185   0.256
72263W        W45331   0.939  24.063  13.580
72264W        W45332  21.823  40.487  13.512
72265W        W45333  24.623  14.268   3.460
72266W        W45334  25.985  35.652  14.330
72267W        W45335  40.847  17.603   1.373
72268W        W45336  43.601  13.737   3.313
72269W        W45337  17.772   5.618   4.263
72270W        W45338  18.290   0.340  13.480
72271W        W45339   8.159  36.666  11.873
72272W        W45340  19.709   8.301   0.968
72273W        W45341  29.471  40.006  11.507
72274W        W45342  38.851  38.625   4.229
72275W        W45343  10.315  33.371   4.457
72276W        W45344  26.412  44.156   1.064
72277W        W45345  26.562  32.922   1.958
72278W        W45346   2.299  20.174  12.987
72279W        W45347  13.288  17.116  11.882
72280W        W45348   7.325  34.916  12.060
72281W        W45349  24.134  30.631   4.586
72282W        W45350   4.902  30.197  13.383
72283W        W45351  24.648   1.425   3.954
72284W        W45352  40.347  36.562   2.354
72285W        W45353  17.165  24.586   4.332
72286W        W45354  30.271  37.919  11.868
72287W        W45355  44.058   8.639   1.238
72288W        W45356   7.970  17.715   4.531
72289W        W45357   5.397  10.241  12.118
72290W        W45358  19.127   0.310   2.440
72291W        W45359   9.340  22.228   2.809
72292W        W45360  40.095   1.321   1.844
72293W        W45361  13.314  43.015   4.089
72294W        W45362  24.709  43.865  12.071
72295W        W45363  12.278  17.337  13.635
72296W        W45364  31.565  21.903   0.806
72297W        W45365  19.882  21.855  12.155
72298W        W45366  44.992  34.311  11.561
72299W        W45367  39.443   4.736  10.493
72300W        W45368  24.055  41.387   1.762
72301W        W45369  38.113  12.684   3.531
72302W        W45370  13.844   6.445  13.861
72303W        W45371  24.770   4.371  14.315
72304W        W45372  25.032   4.927  13.584
72305W        W45373  31.643  30.896   3.259
72306W        W45374  15.572   1.432   3.298
72307W        W45375   5.735  12.605   2.260
72308W        W45376  12.063  35.793   4.198
72309W        W45377   8.703  43.240   3.880
72310W        W45378  34.447  24.995  12.171
72311W        W45379  39.283  19.371  13.779
72312W        W45380  33.542   3.713   0.920
72313W        W45381  11.196  16.144  11.743
72314W        W45382  18.233  31.972  12.522
72315W        W45383  32.408  24.100   0.373
72316W        W45384   5.857  38.344   2.593
72317W        W45385  27.729  15.160  14.792
72318W        W45386   5.326  15.235   4.629
72319W        W45387  22.552   3.310   4.186
72320W        W45388  41.848  33.357  12.072
72321W        W45389  43.066  42.557  13.880
72322W        W45390  16.307  24.330   0.166
72323W        W45391  16.206   5.010   2.090
72324W        W45392  32.069   2.056  11.057
72325W        W45393  23.197  38.951   1.410
72326W        W45394  40.211   7.125  14.220
72327W        W45395   5.729  14.676   3.280
72328W        W45396   7.173  29.642   0.901
72329W        W45397   7.446  24.704   3.233
72330W        W45398  12.731  42.432   0.676
72331W        W45399  28.703   8.819  12.400
72332W        W45400  12.864  25.796   0.871
72333W        W45401  18.207   1.531   3.772
72334W        W45402   9.748  10.887  12.037
72335W        W45403   8.316   1.420   2.801
72336W        W45404   2.945   6.479   4.683
72337W        W45405  26.912  30.034  13.866
72338W        W45406  28.105  11.362  12.054
72339W        W45407  16.676   8.392  10.599
72340W        W45408  19.824   3.227  14.825
72341W        W45409  11.283  23.435  10.683
72342W        W45410   7.514  33.139  12.015
72343W        W45411  11.170  24.742  11.067
72344W        W45412  11.643  39.451   1.154
72345W        W45413  35.445  40.733  10.705
72346W        W45414   3.171  43.333  11.115
72347W        W45415   0.898  27.896  11.282
72348W        W45416   9.169  42.938  11.589
72349W        W45417   9.801   2.787  10.903
72350W        W45418  19.680  29.708  12.543
72351W        W45419  35.327  44.313  13.889
72352W        W45420  38.469  18.427   1.616
72353W        W45421  12.538  22.125  14.325
72354W        W45422   4.111  28.706   4.187
72355W        W45423   6.001  36.889  12.943
72356W        W45424   0.700  20.094  13.470
72357W        W45425  16.089   1.856   3.082
72358W        W45426  40.826  26.259  12.336
72359W        W45427   1.485  35.066  11.553
72360W        W45428  38.344  33.249   4.364
72361W        W45429  13.161  34.170  13.353
72362W        W45430  21.124  10.194  12.311
72363W        W45431  20.015  13.379  12.189
72364W        W45432  38.082  43.233   0.982
72365W        W45433  38.481   4.789  11.691
72366W        W45434   8.675  24.396   2.656
72367W        W45435  30.461  42.593  14.225
72368W        W45436  28.720   0.317   1.813
72369W        W45437  31.391  40.379  13.530
72370W        W45438  39.742  10.353  11.530
72371W        W45439  11.344  40.860   2.267
72372W        W45440  25.721   3.875  11.957
72373W        W45441  21.234  23.246   0.287
72374W        W45442  18.233  32.411  11.974
72375W        W45443  30.511  41.760  13.900
72376W        W45444  41.030  17.215  10.743
72377W        W45445  25.265  20.923   4.925
72378W        W45446  20.148   0.780   3.672
72379W        W45447  13.660   3.887  13.436
72380W        W45448   5.913  33.893   1.967
72381W        W45449  11.372   4.442   4.721
72382W        W45450   5.316  39.079   0.806
72383W        W45451  27.589   8.654  14.116
72384W        W45452  12.817  18.314  11.855
72385W        W45453  39.988  29.506  14.366
72386W        W45454  22.724   9.207   2.866
72387W        W45455  33.747  13.353  11.200
72388W        W45456   9.984  28.483   3.600
72389W        W45457  32.431  13.361   1.597
72390W        W45458   6.342  20.673   0.530
72391W        W45459   8.938  33.135   4.744
72392W        W45460  11.440   9.841  14.374
72393W        W45461  31.900  10.408  11.236
72394W        W45462  40.421  30.152   1.018
72395W        W45463  14.145  29.277   1.751
72396W        W45464  35.808   5.719   3.635
72397W        W45465  35.162  44.967  11.658
72398W        W45466  23.533  35.519  10.609
72399W        W45467  39.409   5.254   4.203
72400W        W45468  11.659   2.708   0.997
72401W        W45469  34.756  17.232  10.737
72402W        W45470  43.374  44.711   2.668
72403W        W45471  40.796   7.536   1.446
72404W        W45472   6.416  16.503  10.831
72405W        W45473  44.236  21.614   3.624
72406W        W45474  29.926  18.861   3.064
72407W        W45475  36.083   6.312   1.003
72408W        W45476  10.244  27.828  11.903
72409W        W45477  37.946   5.111  10.608
72410W        W45478   7.755  36.887  11.691
72411W        W45479  10.369  20.313  13.976
72412W        W45480  43.390  34.101   3.084
72413W        W45481   0.386  18.435   4.289
72414W        W45482  43.330  19.005   3.835
72415W        W45483  12.118  12.615   3.579
72416W        W45484  40.533  37.805   4.610
72417W        W45485  14.196  34.506  13.462
72418W        W45486  20.043  18.815   1.452
72419W        W45487  39.850   2.908   3.224
72420W        W45488  15.632  33.011  11.068
72421W        W45489  24.518  41.097   0.417
72422W        W45490  42.050   2.669  14.857
72423W        W45491  31.598  44.009  11.969
72424W        W45492  15.484   9.532   0.323
72425W        W45493  40.758   5.222   0.760
72426W        W45494   5.595  29.029   1.252
72427W        W45495   1.721  44.872   4.171
72428W        W45496   8.846  39.597   4.131
72429W        W45497  38.229  33.808  12.000
72430W        W45498  25.099  32.421  10.533
72431W        W45499  34.466  10.173   3.196
72432W        W45500  21.999  40.539  12.456
72433W        W45501  20.996  20.018   0.213
72434W        W45502  33.594  21.162  12.963
72435W        W45503   7.226  41.997  13.918
72436W        W45504  37.243  10.655  12.399
72437W        W45505  13.708   1.219  13.985
72438W        W45506   1.769  22.932  10.464
72439W        W45507  20.609  38.709   4.522
72440W        W45508  33.548  24.696  14.766
72441W        W45509   1.349   4.977  10.606
72442W        W45510  13.584  40.878   1.335
72443W        W45511  32.963   0.515   1.934
72444W        W45512   4.721  24.772  13.275
72445W        W45513  20.989  17.436   0.954
72446W        W45514  43.597  21.452  11.619
72447W        W45515  25.277  24.962   4.222
72448W        W45516   2.682   9.120  13.962
72449W        W45517  34.453  40.310   3.867
72450W        W45518  10.852  29.961   1.257
72451W        W45519  13.175  32.758  14.464
72452W        W45520  43.973  33.440   0.795
72453W        W45521  19.303  19.535   4.214
72454W        W45522  38.969  16.623  10.732
72455W        W45523  27.792  21.257  14.775
72456W        W45524   7.597  10.323   3.526
72457W        W45525  25.503  27.084  13.467
72458W        W45526  35.823  32.979  14.945
72459W        W45527  39.286  31.295   0.791
72460W        W45528  18.611  23.915   0.055
72461W        W45529   9.413  14.193   0.042
72462W        W45530  34.998  20.935   1.152
72463W        W45531   2.022  14.178  10.733
72464W        W45532   2.313  12.758  13.138
72465W        W45533  30.566  17.464   0.315
72466W        W45534  30.505  37.364   3.591
72467W        W45535  30.175  41.415  11.176
72468W        W45536  15.532  34.336  11.193
72469W        W45537   0.699  44.984  11.230
72470W        W45538  19.967  19.362   0.982
72471W        W45539   9.232  17.103  12.427
72472W        W45540   8.101  25.396   3.212
72473W        W45541  40.683  22.683   1.712
72474W        W45542   7.685  10.866  10.706
72475W        W45543   0.189  42.720   0.217
72476W        W45544  15.048   6.843  10.647
72477W        W45545  14.367  42.979   3.434
72478W        W45546   5.842   7.387  14.733
72479W        W45547   7.259   2.175  13.323
72480W        W45548  23.599  16.656   3.115
72481W        W45549  32.522  22.511   1.279
72482W        W45550   5.786   5.933   4.773
72483W        W45551  26.031  10.927   4.998
72484W        W45552  32.154  40.018  10.734
72485W        W45553   9.646  32.142  13.829
72486W        W45554   7.698  38.761   0.421
72487W        W45555  17.123   0.326   9.690
72488W        W45556  29.423  22.677  11.979
72489W        W45557  14.804   3.768  14.235
72490W        W45558  33.631  26.413   1.733
72491W        W45559  29.707  36.292  11.034
72492W        W45560  29.091  30.892  14.873
72493W        W45561  41.437   5.013   1.771
72494W        W45562  41.236  23.147  13.446
72495W        W45563  27.022   7.541   2.660
72496W        W45564   9.708  22.123  11.919
72497W        W45565  18.141  39.803   3.406
72498W        W45566  43.353  36.790   1.471
72499W        W45567   8.925   3.812  10.499
72500W        W45568  26.693  28.955   0.796
72501W        W45569   2.012   9.223  11.459
72502W        W45570   3.917  37.018  13.224
72503W        W45571  30.960  22.500  14.414
72504W        W45572   6.478   9.373  13.800
72505W        W45573  15.889  44.835   4.866
72506W        W45574  37.720   1.496  11.162
72507W        W45575  20.172   2.686   0.138
72508W        W45576  36.853  14.337   4.680
72509W        W45577  32.432  27.239   3.019
72510W        W45578  39.993  28.477   0.286
72511W        W45579  34.066  44.869   4.509
72512W        W45580   3.178   6.755  11.590
72513W        W45581   1.750  14.255  11.154
72514W        W45582  28.673  36.853   0.491
72515W        W45583  32.081  33.842   3.389
72516W        W45584  25.440  21.243   0.852
72517W        W45585  15.678  12.010   1.585
72518W        W45586  29.734  11.695   1.959
72519W        W45587  25.232   9.307   1.360
72520W        W45588  31.704   4.267   2.172
72521W        W45589  13.516   1.045   3.765
72522W        W45590  19.590  13.432  11.875
72523W        W45591  12.797   7.409   2.871
72524W        W45592  17.608  38.802   2.849
72525W        W45593  21.557  14.554  11.119
72526W        W45594   7.257   6.212  14.738
72527W        W45595  22.885  44.422   1.364
72528W        W45596  41.706  26.650   3.611
72529W        W45597   5.314   4.900   1.748
72530W        W45598  24.651  35.162   4.071
72531W        W45599  30.580   5.800   3.614
72532W        W45600  38.391  35.315  11.984
72533W        W45601  28.937  29.669  13.829
72534W        W45602  40.264  16.613   0.807
72535W        W45603   8.317   7.202   2.570
72536W        W45604  38.907   0.736   3.135
72537W        W45605  19.390  20.053   3.199
72538W        W45606   1.360  33.605   2.372
72539W        W45607  13.113  25.123  12.592
72540W        W45608  40.478  39.438  12.847
72541W        W45609  26.122   8.790   2.914
72542W        W45610  37.167  19.511   2.805
72543W        W45611  44.843  44.861   0.661
72544W        W45612  20.962  27.528  14.755
72545W        W45613  23.662  20.817   2.419
72546W        W45614   9.151  39.776  13.468
72547W        W45615  23.648  31.408   4.646
72548W        W45616  18.269  21.319  13.955
72549W        W45617  10.623  13.761  10.602
72550W        W45618  22.995  37.514  10.491
72551W        W45619  16.134  44.614   0.333
72552W        W45620  30.409  15.172  13.081
72553W        W45621  25.492  19.818   2.488
72554W        W45622  29.489  37.965   0.695
72555W        W45623  21.591  43.607   0.701
72556W        W45624   5.023  28.983   2.963
72557W        W45625   9.573  28.372  12.543
72558W        W45626  27.903   4.710  14.338
72559W        W45627  41.298  10.925  14.999
72560W        W45628  24.552  34.527   2.454
72561W        W45629  10.037  31.540  10.753
72562W        W45630  11.132  37.398   2.658
72563W        W45631  29.151  27.445  14.475
72564W        W45632   7.741  28.135   0.711
72565W        W45633  42.787  28.529   1.867
72566W        W45634  42.768  27.943   3.446
72567W        W45635   1.878   3.185  10.587
72568W        W45636  40.683   5.275  13.963
72569W        W45637  38.947   0.281   1.216
72570W        W45638  17.720  37.312   2.631
72571W        W45639  22.735  35.497   2.315
72572W        W45640  17.682  17.836   0.228
72573W        W45641  34.358  13.704   2.638
72574W        W45642  44.450  37.961   4.083
72575W        W45643   6.499  35.973  10.720
72576W        W45644   2.947   9.153  14.468
72577W        W45645   7.299  41.502   2.321
72578W        W45646  14.529  31.705  14.798
72579W        W45647  38.372  31.913   0.285
72580W        W45648  14.702   0.050   3.261
72581W        W45649   2.989  40.922   0.815
72582W        W45650  10.828  16.378   0.727
72583W        W45651  15.778  44.997   0.097
72584W        W45652  20.162  44.100   3.434
72585W        W45653  12.077  29.608  11.468
72586W        W45654   0.207  21.185   4.048
72587W        W45655  38.601   3.300   2.302
72588W        W45656  34.935  39.789  13.021
72589W        W45657  27.966  17.169   1.492
72590W        W45658   5.196  17.245   3.591
72591W        W45659  10.687   9.712   0.216
72592W        W45660  41.661  31.594   0.257
72593W        W45661  18.721  42.080  11.484
72594W        W45662   4.370  13.279   0.429
72595W        W45663  31.926  14.093   3.277
72596W        W45664  38.394  30.029   1.738
72597W        W45665   7.239  43.517  11.987
72598W        W45666  37.994   9.404  10.750
72599W        W45667  31.930  34.145   4.300
72600W        W45668  21.660  40.001  13.632
72601W        W45669  16.503  13.293  14.501
72602W        W45670   6.870  26.639   2.647
72603W        W45671   0.932  11.999  10.362
72604W        W45672  31.917  13.697   3.673
72605W        W45673  29.528  41.910   3.812
72606W        W45674  16.212  11.966  13.072
72607W        W45675   8.016  24.542   0.503
72608W        W45676  25.368   2.983   2.836
72609W        W45677  12.536  42.916  13.583
72610W        W45678  18.544   6.944   3.723
72611W        W45679  42.366  40.390  12.133
72612W        W45680  36.473  38.328  14.236
72613W        W45681  41.321  27.356   1.411
72614W        W45682  20.626  17.704   4.506
72615W        W45683  18.167  20.280  14.093
72616W        W45684  17.807  15.568   0.828
72617W        W45685  37.883   1.047  10.961
72618W        W45686  32.219  27.049  11.063
72619W        W45687  40.866   1.578  12.314
72620W        W45688  14.109   7.800   0.760
72621W        W45689   7.301  36.528   1.706
72622W        W45690  12.839  35.100   0.826
72623W        W45691  33.524  31.346  14.816
72624W        W45692  29.186   8.219   4.397
72625W        W45693  17.711  30.626   2.641
72626W        W45694  37.516  22.133  14.324
72627W        W45695  44.932   8.597  14.038
72628W        W45696  27.179  21.348  12.087
72629W        W45697  10.845  40.805   1.146
72630W        W45698  34.661  23.163  14.033
72631W        W45699   7.135  40.759  12.600
72632W        W45700  21.426  16.259   3.702
72633W        W45701  43.306  40.925  11.005
72634W        W45702  26.394  12.554  10.715
72635W        W45703  15.084   1.226   2.190
72636W        W45704  14.177  35.446   1.986
72637W        W45705  16.584  32.045   1.520
72638W        W45706  15.901  20.227  13.861
72639W        W45707  28.332   7.796   2.845
72640W        W45708  37.864  19.623   3.611
72641W        W45709  26.909  16.144  11.203
72642W        W45710  25.486  13.694  11.004
72643W        W45711  19.167  13.541   0.268
72644W        W45712   3.387  19.833  11.684
72645W        W45713  20.357  41.359  12.589
72646W        W45714   1.796  13.949   2.467
72647W        W45715  15.613  17.942  12.424
72648W        W45716  43.392  36.005   5.084
72649W        W45717  26.863   6.259   2.363
72650W        W45718  31.181   2.676  12.961
72651W        W45719  35.411  27.688  12.013
72652W        W45720  39.463  19.688   1.407
72653W        W45721  17.742  27.461  11.170
72654W        W45722  15.005  39.504   3.335
72655W        W45723  38.062  16.109  11.950
72656W        W45724  41.737  18.611  13.893
72657W        W45725  26.456  25.164   0.444
72658W        W45726  11.868  35.187  11.051
72659W        W45727  34.276  11.508  12.297
72660W        W45728  31.430  39.946  11.526
72661W        W45729  36.541  30.891  14.307
72662W        W45730  37.077  25.486  12.112
72663W        W45731  23.393   9.430   4.018
72664W        W45732  42.439  37.873  11.477
72665W        W45733  25.310   5.871   4.607
72666W        W45734  19.359   0.267   1.042
72667W        W45735  12.093  27.174   2.714
72668W        W45736  22.443   7.172  11.670
72669W        W45737   7.314  34.237  13.345
72670W        W45738   9.309  29.897   4.483
72671W        W45739  36.458  11.177  12.652
72672W        W45740  43.783   5.940   3.802
72673W        W45741  23.562  40.009  13.096
72674W        W45742   6.183  28.388   3.735
72675W        W45743   3.326  15.684  12.379
72676W        W45744  34.914  15.754   3.055
72677W        W45745   2.927  34.357  13.696
72678W        W45746   1.410  12.866  13.281
72679W        W45747  20.945  29.027   4.128
72680W        W45748  12.841  39.354  11.564
72681W        W45749   5.421   8.904   3.678
72682W        W45750  13.101  20.109  12.139
72683W        W45751  38.959  16.586   0.162
72684W        W45752   9.242  11.127  12.931
72685W        W45753  34.800   1.486  12.029
72686W        W45754  39.710   7.568  11.005
72687W        W45755  42.591  29.505  11.032
72688W        W45756  10.344  30.643   2.226
72689W        W45757  39.469  40.262  13.313
72690W        W45758   7.314  41.320   3.262
72691W        W45759  35.888  31.647  10.031
72692W        W45760  22.659  30.151   0.314
72693W        W45761  19.720  23.593   0.967
72694W        W45762  35.571  17.163   1.920
72695W        W45763   8.091  12.408   3.254
72696W        W45764  14.436  27.624   4.793
72697W        W45765  13.406  26.235   3.615
72698W        W45766  34.469  20.174  13.419
72699W        W45767  35.617  28.765   4.430
72700W        W45768   4.879  39.544   2.388
72701W        W45769  33.015  31.681  11.210
72702W        W45770   4.692   6.708  14.016
72703W        W45771  36.584  43.066  11.119
72704W        W45772  40.829  27.300   0.380
72705W        W45773   9.792  15.762  14.403
72706W        W45774   6.763  12.758   2.178
72707W        W45775  14.634  15.124   4.182
72708W        W45776  38.981  41.037   1.872
72709W        W45777  30.322  16.128   4.827
72710W        W45778  36.914  14.135   3.345
72711W        W45779  43.424  21.777  10.697
72712W        W45780  43.112  30.852   0.665
72713W        W45781  14.569  32.407   3.375
72714W        W45782  10.287  24.603   0.966
72715W        W45783  21.990  28.466   2.363
72716W        W45784  28.532  33.975  12.165
72717W        W45785  36.629   7.316  14.803
72718W        W45786  12.881  31.840   2.880
72719W        W45787  44.421  38.376   2.156
72720W        W45788   6.314  39.102   2.031
72721W        W45789   1.349  11.185   0.451
72722W        W45790  24.409   0.898   5.361
72723W        W45791   9.878  10.884  11.124
72724W        W45792  13.925  40.322   0.379
72725W        W45793  18.282  16.679   1.829
72726W        W45794  43.701  19.314  14.006
72727W        W45795   5.422  22.543  10.982
72728W        W45796  42.032  40.026   3.550
72729W        W45797  32.158  20.020   3.138
72730W        W45798  31.179  29.034  12.435
72731W        W45799   4.104  38.376   3.786
72732W        W45800  17.798  28.078   2.423
72733W        W45801  13.804  15.032   4.762
72734W        W45802  25.185  44.240  14.844
72735W        W45803  33.873  16.160  11.512
72736W        W45804  44.527  21.176   3.563
72737W        W45805  22.916  43.343  12.520
72738W        W45806  31.509  24.008   3.742
72739W        W45807   6.426  28.564  11.539
72740W        W45808  18.223   3.709  14.898
72741W        W45809  23.295   6.597   1.305
72742W        W45810   6.901   2.457   2.376
72743W        W45811  12.651  44.326   0.248
72744W        W45812  35.051  23.391   1.728
72745W        W45813  42.580  17.220  12.585
72746W        W45814  30.130  40.007   0.992
72747W        W45815  26.033  30.109   4.595
72748W        W45816   8.086  18.692   1.268
72749W        W45817  40.408  24.535  12.551
72750W        W45818  16.821  33.013  14.568
72751W        W45819  32.181  11.445  12.317
72752W        W45820   2.646  13.909   0.299
72753W        W45821  43.387  30.672   0.271
72754W        W45822  33.922  30.921  14.359
72755W        W45823  10.289  23.071   1.171
72756W        W45824   7.002  39.351   5.035
72757W        W45825   7.319  21.110   1.615
72758W        W45826   2.314  37.018   3.166
72759W        W45827   1.396  34.984  10.725
72760W        W45828  17.702   1.488   3.584
72761W        W45829  36.356   3.033   4.013
72762W        W45830  14.129  22.713  11.528
72763W        W45831  30.505  17.805   2.660
72764W        W45832  42.217  26.030  14.316
72765W        W45833   3.428   6.745   1.271
72766W        W45834  19.689   2.466  11.902
72767W        W45835   1.744  14.351  12.868
72768W        W45836  34.084  13.247   3.331
72769W        W45837  36.012  12.276   1.566
72770W        W45838  27.114  32.667   3.935
72771W        W45839  35.447  18.524  12.448
72772W        W45840   8.931  38.100   2.928
72773W        W45841  38.544  26.881  13.417
72774W        W45842   2.330  25.036   9.596
72775W        W45843  10.729  19.868   3.904
72776W        W45844  32.551  26.712   1.791
72777W        W45845  30.973  37.832  10.960
72778W        W45846  10.810  23.856   3.324
72779W        W45847   8.972  24.231  14.794
72780W        W45848  43.385   6.797   3.091
72781W        W45849  34.857   5.148  13.131
72782W        W45850  23.590  25.609  14.918
72783W        W45851   7.408  44.775  11.076
72784W        W45852  40.277  14.345   3.197
72785W        W45853  44.369  24.657   4.996
72786W        W45854  13.587   0.560   3.629
72787W        W45855  35.019  40.147   2.200
72788W        W45856   3.271   0.695  14.027
72789W        W45857   2.211  41.879   4.616
72790W        W45858  37.399   8.470   1.540
72791W        W45859  29.951  24.814   1.201
72792W        W45860  32.615  26.445  14.087
72793W        W45861  16.244  22.474  12.261
72794W        W45862  35.936   6.845   0.938
72795W        W45863   8.193  39.801  13.251
72796W        W45864  44.243  23.117   3.805
72797W        W45865  19.904  27.131  12.982
72798W        W45866  23.074   5.942   0.000
72799W        W45867  13.536  25.986  14.990
72800W        W45868  15.159  14.935   2.968
72801W        W45869  27.406  21.178  11.597
72802W        W45870   9.412  20.931   2.456
72803W        W45871  10.588  15.295   1.603
72804W        W45872  28.037  37.557  10.803
72805W        W45873  44.719  19.587   4.106
72806W        W45874   0.766  10.649   2.010
72807W        W45875  31.532  25.215  13.058
72808W        W45876  34.619   1.020  14.121
72809W        W45877  18.109   1.027   2.868
72810W        W45878  24.198  42.925  14.190
72811W        W45879  42.330  20.322  13.469
72812W        W45880  33.862  39.131  13.119
72813W        W45881  12.259  31.900   2.312
72814W        W45882  22.714  13.699  13.851
72815W        W45883  24.211   5.832   4.887
72816W        W45884   4.911  19.743  12.478
72817W        W45885  40.744  16.578   1.432
72818W        W45886   1.233   1.296  13.481
72819W        W45887   2.276  11.370   0.450
72820W        W45888  43.537  17.656  12.897
72821W        W45889  30.411  35.468  11.912
72822W        W45890  41.472  23.789  10.647
72823W        W45891   6.276   1.516  14.480
72824W        W45892  10.152  42.890   0.972
72825W        W45893  15.894   2.123  12.833
72826W        W45894   7.751  33.616  12.095
72827W        W45895  31.998  28.474   2.890
72828W        W45896  17.977   0.251   4.179
72829W        W45897  21.724   3.444   2.706
72830W        W45898  43.202  13.958  12.605
72831W        W45899   2.523   5.033   3.642
72832W        W45900   8.638   5.557  12.439
72833W        W45901  20.535  20.922   1.326
72834W        W45902  15.139  33.523  13.078
72835W        W45903   8.588  20.804   0.453
72836W        W45904   5.682  20.671   3.440
72837W        W45905  26.193  20.557   1.368
72838W        W45906  44.760   7.675  13.938
72839W        W45907  18.264  32.786  14.631
72840W        W45908   4.852   8.147   1.918
72841W        W45909  37.423  16.178   1.033
72842W        W45910  29.640  12.899   1.252
72843W        W45911  18.033   2.869  11.221
72844W        W45912  32.340  43.257  13.444
72845W        W45913  10.567  31.836  11.103
72846W        W45914  27.465   4.375   2.631
72847W        W45915  16.838  25.067   4.397
72848W        W45916   0.547  37.885   0.325
72849W        W45917   2.405   5.230   4.887
72850W        W45918  38.048  42.607  11.142
72851W        W45919  29.495  17.707   4.172
72852W        W45920  14.532  10.170   1.894
72853W        W45921   2.774  42.413  11.530
72854W        W45922  24.537  16.582  10.626
72855W        W45923  44.563  19.105  13.031
72856W        W45924  19.555   0.521  13.346
72857W        W45925  26.082  25.534   0.328
72858W        W45926  44.281  19.037   3.624
72859W        W45927  23.070  40.038   4.097
72860W        W45928  27.760  25.626  13.384
72861W        W45929  23.571  37.603  14.301
72862W        W45930  22.434  27.425   3.737
72863W        W45931  42.261  34.151  11.932
72864W        W45932  18.672   4.156  11.807
72865W        W45933  40.169  20.060   0.448
72866W        W45934  14.070  36.663  11.147
72867W        W45935  11.564   6.208  10.154
72868W        W45936   2.008  20.223   0.466
72869W        W45937  40.264  23.582  14.002
72870W        W45938  15.987  27.716  12.609
72871W        W45939  27.541  10.177  10.060
72872W        W45940  12.707  28.425   1.819
72873W        W45941  21.106  36.818  13.874
72874W        W45942  11.616  24.488   4.818
72875W        W45943  23.649  22.628   4.871
72876W        W45944   8.263  34.634   0.744
72877W        W45945  27.345   1.857  11.092
72878W        W45946  30.076  34.594  13.897
72879W        W45947   1.722   6.853   0.442
72880W        W45948   5.995  29.934  13.330
72881W        W45949  39.503  14.345   4.310
72882W        W45950  18.673  32.170  14.406
72883W        W45951   8.621  14.000   1.214
72884W        W45952  28.646  16.752  11.185
72885W        W45953  41.712   0.743   2.100
72886W        W45954  17.758  35.396  13.591
72887W        W45955  15.153  10.360  11.868
72888W        W45956  26.540  36.869   0.353
72889W        W45957  42.663  30.426  10.349
72890W        W45958  42.484  37.504   3.661
72891W        W45959  15.425  27.594   4.604
72892W        W45960  16.286  27.265  10.764
72893W        W45961  31.638  25.179  12.133
72894W        W45962  22.037  43.823   0.838
72895W        W45963   4.781   0.863  14.486
72896W        W45964   1.464  37.841   0.295
72897W        W45965  38.707  20.067  12.019
72898W        W45966   2.901   3.742   2.805
72899W        W45967  36.034  34.393  10.260
72900W        W45968  37.575  17.029   0.863
72901W        W45969   4.680  19.833   2.329
72902W        W45970   2.881  38.436  13.267
72903W        W45971   2.431  25.324   4.576
72904W        W45972  28.366  25.855   2.434
72905W        W45973   0.837  10.716  12.027
72906W        W45974  10.707  22.094  11.236
72907W        W45975   6.807  11.080   0.250
72908W        W45976  20.266  28.007   3.934
72909W        W45977   9.873  15.171  11.301
72910W        W45978  32.309  41.932  14.496
72911W        W45979  10.752  39.723   4.397
72912W        W45980  17.671  22.977  14.311
72913W        W45981  20.670  20.218  13.901
72914W        W45982  37.770  28.458  13.129
72915W        W45983  33.099  39.615  12.992
72916W        W45984  40.525  37.256   4.541
72917W        W45985  29.080   9.326   1.312
72918W        W45986   2.909  30.758  11.556
72919W        W45987  24.515  26.636   3.660
72920W        W45988  33.488  12.761   4.270
72921W        W45989   7.051  35.019   1.281
72922W        W45990  43.946  44.952  10.766
72923W        W45991  11.082  36.296   1.727
72924W        W45992  22.640  40.675   1.672
72925W        W45993   2.496  14.819  11.133
72926W        W45994   2.378  32.124  11.555
72927W        W45995   4.416  33.976   2.889
72928W        W45996  23.782  22.262  11.981
72929W        W45997  25.431  40.825   4.141
72930W        W45998  21.718   7.860  11.916
72931W        W45999  29.123  17.760  10.781
72932W        W46000  13.186   0.917  10.942
72933W        W46001  32.078   0.945   4.481
72934W        W46002  28.270  36.462  12.437
72935W        W46003  39.695  20.972   2.680
72936W        W46004  11.188  26.596   0.788
72937W        W46005  36.760  37.861   0.334
72938W        W46006   3.425  17.576  12.871
72939W        W46007  14.739   1.222  10.770
72940W        W46008  16.221  44.986   4.462
72941W        W46009  34.043  29.505   1.981
72942W        W46010  11.807   1.220  12.756
72943W        W46011   3.185  28.648  11.177
72944W        W46012  36.105  23.176   3.251
72945W        W46013  39.442  33.478  14.462
72946W        W46014  21.551   9.620   4.595
72947W        W46015  15.678   5.433   1.318
72948W        W46016   3.927  21.973   2.198
72949W        W46017  29.832  14.143  12.913
72950W        W46018  26.950  40.519   0.849
72951W        W46019   3.186  28.073  10.479
72952W        W46020  28.508  29.966  14.823
72953W        W46021   1.404  15.585  11.486
72954W        W46022   9.429   7.356  14.950
72955W        W46023  42.357  39.840  14.184
72956W        W46024  25.497  16.787   0.885
72957W        W46025  16.678  14.488   2.918
72958W        W46026  33.133  16.035  12.667
72959W        W46027   9.583   4.770  10.666
72960W        W46028  37.532  23.010   0.785
72961W        W46029  44.905   7.773   4.075
72962W        W46030  32.840  35.841  13.771
72963W        W46031   9.843  13.431   0.761
72964W        W46032  22.230  34.333  10.699
72965W        W46033  13.885  22.983   3.209
72966W        W46034  14.824  25.893   0.088
72967W        W46035  16.982  43.306  12.497
72968W        W46036  32.542  13.375   0.703
72969W        W46037  12.386   8.841  10.708
72970W        W46038  24.979  20.057   0.920
72971W        W46039   2.457   6.667  12.866
72972W        W46040  30.546  44.829  13.850
72973W        W46041   7.913   9.675   2.193
72974W        W46042  43.981  27.559   4.052
72975W        W46043   4.062  37.562   1.979
72976W        W46044   7.121  32.482   3.228
72977W        W46045  40.111  38.749   2.310
72978W        W46046  44.265   7.389  14.336
72979W        W46047  39.590  10.176   3.644
72980W        W46048  12.948  31.196   4.171
72981W        W46049  35.036  11.840  14.587
72982W        W46050   0.525  16.965   4.089
72983W        W46051  44.366   9.923  11.561
72984W        W46052   6.713  13.731   1.655
72985W        W46053   8.018   5.571  11.563
72986W        W46054   2.719  39.762   1.937
72987W        W46055  42.754  24.270   1.242
72988W        W46056  40.541  43.670  11.647
72989W        W46057   3.269   5.867  11.134
72990W        W46058  13.731  35.041   1.880
72991W        W46059  44.174  13.684   9.788
72992W        W46060  35.083   1.541  13.913
72993W        W46061  21.755  30.360  11.148
72994W        W46062   9.731  21.351  14.419
72995W        W46063   0.374  22.020  13.404
72996W        W46064   8.700  21.638  14.759
72997W        W46065  21.126   8.287   1.332
72998W        W46066  33.540  25.558  13.816
72999W        W46067  36.395  18.343  13.390
73000W        W46068  36.690  26.764   0.029
73001W        W46069  37.216  13.527   5.140
73002W        W46070  34.480  17.278   4.373
73003W        W46071  25.279  43.408   0.305
73004W        W46072  16.816  14.234   0.013
73005W        W46073  27.340   0.710   1.473
73006W        W46074   1.112   6.258   0.792
73007W        W46075  29.546  40.002   4.758
73008W        W46076   7.070   3.620  13.523
73009W        W46077  44.270  20.274  12.131
73010W        W46078  40.794  12.128   1.901
73011W        W46079  19.172  29.347   3.534
73012W        W46080  38.172  38.885  14.011
73013W        W46081  22.235  27.074   3.370
73014W        W46082   1.542  44.347   1.815
73015W        W46083   6.948   1.336   0.234
73016W        W46084  34.327  10.893   2.767
73017W        W46085  44.534  20.266   0.381
73018W        W46086  11.574  15.122   4.660
73019W        W46087   5.205  41.191  11.521
73020W        W46088  30.572  14.376  14.441
73021W        W46089  21.313  34.945   0.756
73022W        W46090  40.322  26.203  12.096
73023W        W46091   5.172  22.633   2.338
73024W        W46092  37.097  22.823  14.894
73025W        W46093  40.671  34.558  11.549
73026W        W46094  36.047  28.127  14.332
73027W        W46095  40.419   1.124  10.184
73028W        W46096  26.716  20.707  12.037
73029W        W46097  37.194  14.029   4.938
73030W        W46098  43.371   9.645   3.450
73031W        W46099  21.908  41.581  14.792
73032W        W46100  28.348  40.468   0.922
73033W        W46101  28.935   2.711  10.673
73034W        W46102  25.588   9.937  10.639
73035W        W46103  18.515  14.076  12.077
73036W        W46104  44.034  41.546   2.477
73037W        W46105  33.149  19.452  13.886
73038W        W46106   2.161  21.201   0.937
73039W        W46107  23.186  17.290  11.575
73040W        W46108   7.919   6.581   3.114
73041W        W46109  28.724  14.803  13.508
73042W        W46110   8.330  15.180   4.163
73043W        W46111  22.437  39.057  11.527
73044W        W46112   0.588  36.566   2.505
73045W        W46113   7.184   0.309   2.267
73046W        W46114  40.348   2.535  13.842
73047W        W46115  39.416  25.177  13.880
73048W        W46116   0.647   6.788  12.522
73049W        W46117  18.246  26.837  14.676
73050W        W46118  25.056  12.515   5.139
73051W        W46119   0.917  24.707   1.187
73052W        W46120  25.252  26.466   5.026
73053W        W46121  42.828   5.424  14.041
73054W        W46122  22.684  36.397  13.338
73055W        W46123  24.604  42.514   0.914
73056W        W46124   2.749  33.425  13.507
73057W        W46125  26.111  31.426  11.852
73058W        W46126  29.638  26.552   1.891
73059W        W46127   9.324   9.329  13.464
73060W        W46128  17.421   4.216   1.086
73061W        W46129   2.486  29.647   1.890
73062W        W46130   1.670  40.452  10.604
73063W        W46131  32.897  16.072  10.574
73064W        W46132  18.245  37.434  14.934
73065W        W46133  32.021  24.139  12.669
73066W        W46134   9.137  20.711   3.910
73067W        W46135  28.608  38.522  12.797
73068W        W46136   9.313  22.069   1.429
73069W        W46137  41.403  21.030   1.998
73070W        W46138  36.232  39.726  11.996
73071W        W46139  11.750  16.272   4.668
73072W        W46140  43.835  33.545  11.080
73073W        W46141  25.905  16.593  13.483
73074W        W46142  30.489  21.656   2.345
73075W        W46143  44.296  36.549  13.101
73076W        W46144  33.496  18.781  12.917
73077W        W46145  18.720  18.362   4.189
73078W        W46146   1.742   3.453  12.419
73079W        W46147  29.695   2.364  13.860
73080W        W46148  22.645   4.775   4.064
73081W        W46149  33.155  24.212  10.815
73082W        W46150  44.856  32.081  13.557
73083W        W46151  13.232   7.251  10.702
73084W        W46152  34.181  16.193  11.094
73085W        W46153   9.747  37.398   2.926
73086W        W46154  19.288  27.609  11.122
73087W        W46155  30.129  44.905   3.314
73088W        W46156  43.454  31.589  14.225
73089W        W46157  34.157   6.957   2.008
73090W        W46158   1.761  27.537   1.393
73091W        W46159  28.910  26.878  11.157
73092W        W46160  23.898   3.911   2.677
73093W        W46161  32.949  27.001   2.693
73094W        W46162  33.503  12.260  13.051
73095W        W46163   7.976  14.795   1.270
73096W        W46164  35.428  40.060   3.730
73097W        W46165  34.932  40.435   3.127
73098W        W46166   3.869  30.189   2.701
73099W        W46167  23.877  26.402  12.387
73100W        W46168  41.042   3.739  12.987
73101W        W46169  35.656  41.355   1.354
73102W        W46170  14.921  33.950   0.384
73103W        W46171  15.706  31.713  14.703
73104W        W46172  43.468  44.820  11.546
73105W        W46173  25.785  36.154  11.273
73106W        W46174  33.914  25.539   2.293
73107W        W46175   9.605  41.518  10.160
73108W        W46176  17.291   4.703   1.881
73109W        W46177  31.079  11.197  14.289
73110W        W46178  42.257  43.932  11.538
73111W        W46179  27.526   0.701   0.981
73112W        W46180  36.608  26.046   3.622
73113W        W46181  18.908  32.890   3.177
73114W        W46182   1.009   1.374   0.746
73115W        W46183  37.695  29.931  13.055
73116W        W46184  23.500   9.807  12.950
73117W        W46185  10.115  38.461  14.747
73118W        W46186  33.372  21.473   2.823
73119W        W46187  19.965  17.191  12.032
73120W        W46188  41.929  15.671  12.337
73121W        W46189  12.377  44.760  13.450
73122W        W46190  36.317   3.733   2.739
73123W        W46191  40.915  28.029   3.872
73124W        W46192  22.098  40.812   3.800
73125W        W46193  39.794   6.233   2.330
73126W        W46194  44.124  22.205  12.070
73127W        W46195   9.860  40.878   2.640
73128W        W46196  29.915  43.095  12.938
73129W        W46197   0.059  18.068   2.753
73130W        W46198  37.103  33.479  12.963
73131W        W46199  41.804  29.075  13.529
73132W        W46200  40.860  29.256   4.430
73133W        W46201   8.606  20.303   0.442
73134W        W46202  11.571  34.907   4.134
73135W        W46203   8.548  38.484   1.901
73136W        W46204  39.336   2.994  14.650
73137W        W46205   3.368   8.379  11.623
73138W        W46206  10.526   8.244  10.390
73139W        W46207  33.753   3.666   2.808
73140W        W46208  39.753  37.397   4.035
73141W        W46209  16.242  43.802   2.322
73142W        W46210  37.858   9.458  12.077
73143W        W46211  17.454  33.046   1.371
73144W        W46212  21.597  24.591   3.334
73145W        W46213  44.013   1.473  12.235
73146W        W46214  11.292  17.148   3.100
73147W        W46215  17.284   9.798   0.297
73148W        W46216  30.017  34.368  11.181
73149W        W46217  22.286  31.841  10.714
73150W        W46218  30.000   7.004   3.228
73151W        W46219   7.223   3.760   0.357
73152W        W46220  40.943  21.256  14.529
73153W        W46221  23.074  31.090   2.145
73154W        W46222  44.016  21.485   2.200
73155W        W46223   2.222  25.629  14.711
73156W        W46224   1.487  43.104  12.018
73157W        W46225  32.562  16.167   0.263
73158W        W46226   5.774  23.998  12.849
73159W        W46227  25.692  43.689  13.800
73160W        W46228  20.127  12.363   2.274
73161W        W46229   8.113  27.645   1.365
73162W        W46230  25.277  29.947   4.997
73163W        W46231  17.650  16.791  13.930
73164W        W46232   4.451  27.459  12.945
73165W        W46233  30.507  41.549  14.373
73166W        W46234  28.517  15.173   4.170
73167W        W46235   2.822  12.083  12.904
73168W        W46236  33.571   6.367   2.644
73169W        W46237  27.800   7.778   2.926
73170W        W46238   2.306  40.306  11.158
73171W        W46239   9.223  12.726  13.719
73172W        W46240  16.788   1.374   4.994
73173W        W46241   4.561   1.578   3.374
73174W        W46242  37.551  27.172  14.478
73175W        W46243  36.423  33.824   5.431
73176W        W46244   4.384  20.660   2.908
73177W        W46245  18.718  33.651   1.156
73178W        W46246   5.832   8.619   3.879
73179W        W46247  42.284   6.846  10.739
73180W        W46248  40.845  24.638   0.836
73181W        W46249  31.276   1.777   5.001
73182W        W46250  11.113  42.355  10.897
73183W        W46251   3.918  25.440   4.328
73184W        W46252  23.199  23.133   0.570
73185W        W46253  41.450  43.362  11.154
73186W        W46254  13.331  17.225   5.379
73187W        W46255  19.183  34.421   2.655
73188W        W46256   3.357  44.774   2.855
73189W        W46257  21.838   0.360   1.286
73190W        W46258  11.763  21.913   1.195
73191W        W46259   3.083  40.250  14.978
73192W        W46260   8.501   6.451  12.233
73193W        W46261  24.503  19.193  12.463
73194W        W46262  19.643  41.091   3.340
73195W        W46263  33.095  22.469  11.866
73196W        W46264   8.707  32.683   2.297
73197W        W46265  18.979   0.910  12.479
73198W        W46266  13.388  12.738   0.523
73199W        W46267  25.254  41.223  13.953
73200W        W46268  32.372   7.873  10.705
73201W        W46269  19.948  12.153  13.553
73202W        W46270  44.268  41.090   2.456
73203W        W46271   5.740   2.138  11.062
73204W        W46272   6.089  21.785   1.299
73205W        W46273  28.432   5.883   0.907
73206W        W46274  30.411  42.022   1.823
73207W        W46275  16.348  10.595   2.282
73208W        W46276  27.895  33.166  11.139
73209W        W46277  27.794  31.065   2.231
73210W        W46278  17.798  42.404  11.539
73211W        W46279  14.123   8.790   4.057
73212W        W46280  42.652   9.336   4.455
73213W        W46281  13.265  19.751  13.035
73214W        W46282  19.110  16.190   2.524
73215W        W46283  36.828   3.181   3.905
73216W        W46284  10.198  41.338   3.770
73217W        W46285  13.998  41.376  11.149
73218W        W46286  43.015  15.577  11.526
73219W        W46287  19.287  20.337  12.525
73220W        W46288  31.573  10.335  12.143
73221W        W46289   5.300  22.465   0.831
73222W        W46290  22.742  31.510  12.116
73223W        W46291   3.473  18.603  14.006
73224W        W46292  22.913   9.235   0.918
73225W        W46293  11.740  43.217  13.359
73226W        W46294  16.661  40.706  13.567
73227W        W46295  40.877   5.217   2.763
73228W        W46296   1.409  33.071   4.112
73229W        W46297  22.915  15.048  13.394
73230W        W46298  43.363  31.955  14.599
73231W        W46299  20.773  32.094  10.731
73232W        W46300  33.181  37.334   2.283
73233W        W46301   8.412  39.245   4.993
73234W        W46302   9.232  20.662   4.430
73235W        W46303  44.209  20.675  13.402
73236W        W46304  29.835  26.265  10.566
73237W        W46305   5.633  11.897  14.872
73238W        W46306   7.637  38.059  14.051
73239W        W46307  44.682  24.912  10.035
73240W        W46308  27.838  17.240  12.612
73241W        W46309  40.586  15.698  10.147
73242W        W46310  35.465  44.634   3.720
73243W        W46311   6.034  19.324  11.117
73244W        W46312  35.366  12.874  12.054
73245W        W46313  13.740  22.068  12.909
73246W        W46314  16.483  28.282   1.386
73247W        W46315   3.955   7.829  12.039
73248W        W46316   4.765  42.292   4.109
73249W        W46317  15.529  35.836   2.925
73250W        W46318  25.135  14.275  12.585
73251W        W46319  29.496  23.024  11.452
73252W        W46320  37.898  32.531   3.754
73253W        W46321  11.163  19.199   1.348
73254W        W46322   5.233  37.577  11.067
73255W        W46323  41.500   1.904  13.453
73256W        W46324  11.600  40.677   2.755
73257W        W46325   9.735  37.609  10.609
73258W        W46326  19.687  42.842  13.979
73259W        W46327  27.187  29.476  11.157
73260W        W46328  41.417  10.455  11.255
73261W        W46329  23.003  20.034   4.909
73262W        W46330  39.009   6.922  10.945
73263W        W46331  13.806  37.557   4.438
73264W        W46332  36.786  27.287   0.002
73265W        W46333   0.074  28.958  11.930
73266W        W46334  44.935   1.149  13.073
73267W        W46335  39.082  37.961  14.909
73268W        W46336  25.025  26.073  10.634
73269W        W46337  19.696  24.895   2.886
73270W        W46338  38.970  15.328   1.694
73271W        W46339  21.684  43.967   1.757
73272W        W46340  22.129  34.696   1.069
73273W        W46341  22.165  19.312   3.015
73274W        W46342   5.006   2.754   1.438
73275W        W46343  26.537   7.799   0.211
73276W        W46344   1.751  28.256  14.017
73277W        W46345  23.703  12.380   3.682
73278W        W46346  29.110  30.567  10.768
73279W        W46347  38.896  22.184   3.704
73280W        W46348  13.020  15.152   0.476
73281W        W46349  26.676   3.448  10.780
73282W        W46350  20.116  22.101  12.988
73283W        W46351  35.278  33.862   4.114
73284W        W46352  23.236  30.718  13.754
73285W        W46353   7.436  14.653  14.048
73286W        W46354  31.512   8.430  12.809
73287W        W46355  12.230  30.191   1.925
73288W        W46356   8.606   9.445   2.717
73289W        W46357  33.858  22.183  14.214
73290W        W46358   5.267   3.479  11.331
73291W        W46359   8.325  31.657   1.105
73292W        W46360  33.999  39.718  13.945
73293W        W46361   8.155  33.660   0.473
73294W        W46362  13.301   0.367   4.566
73295W        W46363  12.183  32.822   4.783
73296W        W46364  40.464  36.638  10.690
73297W        W46365  31.559  22.253   1.649
73298W        W46366  21.528  12.926   1.150
73299W        W46367   6.586  11.099   4.150
73300W        W46368  22.666   4.252   3.184
73301W        W46369  33.507  42.479   2.654
73302W        W46370  31.550  23.452  14.999
73303W        W46371  27.162  37.822   0.894
73304W        W46372  24.548  29.173  13.405
73305W        W46373  20.613  26.151  11.706
73306W        W46374  35.025   3.786  14.250
73307W        W46375  13.867  37.532   1.291
73308W        W46376  43.501  42.271  13.708
73309W        W46377  35.521   4.798   0.389
73310W        W46378  30.016   3.328  12.641
73311W        W46379  29.355   4.700   0.774
73312W        W46380  31.988  32.408  12.817
73313W        W46381  16.786   7.240  14.755
73314W        W46382  28.431  16.843   4.113
73315W        W46383   6.829  23.221  14.969
73316W        W46384  11.476  12.766   3.883
73317W        W46385  11.135   4.682  10.460
73318W        W46386   6.928  25.900  14.741
73319W        W46387  25.619  19.534  10.287
73320W        W46388  32.066  24.626  12.474
73321W        W46389   4.710  22.391  11.761
73322W        W46390  34.601   1.455  13.775
73323W        W46391  12.118  38.588   4.240
73324W        W46392  16.401  22.717   2.821
73325W        W46393  36.464  31.901   2.856
73326W        W46394  15.346  25.180  13.422
73327W        W46395   9.936  37.490  11.510
73328W        W46396  34.911   2.462  13.764
73329W        W46397  23.046   1.338  14.125
73330W        W46398  17.596  18.276   1.397
73331W        W46399  29.932  11.353   4.545
73332W        W46400  13.723  18.239   3.357
73333W        W46401  10.721  11.729  10.251
73334W        W46402  39.996  12.330  13.444
73335W        W46403  14.667  12.093   0.752
73336W        W46404  39.317   3.158  10.687
73337W        W46405  10.526  14.305  12.234
73338W        W46406   7.238  20.917   0.265
73339W        W46407   1.507  21.286  11.114
73340W        W46408   3.331  42.313   0.200
73341W        W46409  33.138  29.997  11.907
73342W        W46410  15.872  31.982  14.260
73343W        W46411  26.927  37.016   2.302
73344W        W46412  15.195  40.839   1.372
73345W        W46413  26.873   1.795   0.977
73346W        W46414  19.554  43.436  12.675
73347W        W46415  41.066   2.402  12.889
73348W        W46416   9.677   0.908  12.953
73349W        W46417   4.657  20.889   3.760
73350W        W46418  42.698  17.589  13.407
73351W        W46419  33.616  22.493  10.547
73352W        W46420   0.315  18.715  12.897
73353W        W46421  13.848  22.273   0.794
73354W        W46422   6.920  26.008   0.994
73355W        W46423  24.653   5.753  13.680
73356W        W46424  13.271   6.979   0.782
73357W        W46425   0.952   5.627  11.655
73358W        W46426  43.171  23.449  11.651
73359W        W46427  44.455  31.833  13.792
73360W        W46428  33.000  39.241   3.770
73361W        W46429  41.471  16.247   0.630
73362W        W46430   5.112  39.079   4.102
73363W        W46431  39.065  19.701  14.513
73364W        W46432   4.356  15.098  11.608
73365W        W46433  40.492  28.893  11.215
73366W        W46434  23.823   3.846   3.428
73367W        W46435  30.324  29.470  10.844
73368W        W46436   4.908  37.027  13.897
73369W        W46437   2.794   1.604   4.494
73370W        W46438  32.893  44.030   4.575
73371W        W46439  20.012  43.331   3.024
73372W        W46440   3.853  18.786   3.652
73373W        W46441  36.478  11.768   3.171
73374W        W46442  34.158   6.600   2.411
73375W        W46443   2.296  36.488  11.684
73376W        W46444  38.852  20.519   2.587
73377W        W46445   1.575  35.048   3.151
73378W        W46446  41.882  24.032  13.188
73379W        W46447  33.702  30.597   2.206
73380W        W46448  25.163   5.714   1.932
73381W        W46449  38.137  24.627   3.132
73382W        W46450  40.468  42.264   0.670
73383W        W46451  35.055  11.415   4.153
73384W        W46452  20.825   4.500  13.223
73385W        W46453   5.701   8.479  14.495
73386W        W46454  41.272  39.116  13.956
73387W        W46455  27.865  14.845  11.779
73388W        W46456  35.171  42.880   0.018
73389W        W46457  26.444  31.318  11.178
73390W        W46458  17.398   9.106   1.403
73391W        W46459  22.472  27.542   2.354
73392W        W46460  44.430  37.090   5.014
73393W        W46461   8.249  35.037   3.274
73394W        W46462  39.653  19.301  12.834
73395W        W46463  15.957  42.098   4.117
73396W        W46464  10.205   2.231   1.299
73397W        W46465  30.643  18.157  10.728
73398W        W46466  22.110  37.908  14.196
73399W        W46467  29.553  10.637   1.389
73400W        W46468   5.022  44.026   3.027
73401W        W46469  44.409   1.361   4.240
73402W        W46470   3.973   4.975   1.476
73403W        W46471  25.833   7.444   2.335
73404W        W46472  23.283  19.749   1.468
73405W        W46473  17.631  14.796   3.435
73406W        W46474   1.217  35.445   1.869
73407W        W46475  37.881   3.455  11.708
73408W        W46476  32.992  42.055   0.351
73409W        W46477  31.463  35.137   0.774
73410W        W46478   9.298  22.144  11.640
73411W        W46479  19.636  21.953   0.886
73412W        W46480  33.514  33.573   2.248
73413W        W46481   4.904   2.570   1.953
73414W        W46482   7.182  40.692   3.881
73415W        W46483  42.320  43.316   3.199
73416W        W46484  12.338  17.560   4.616
73417W        W46485  28.919   1.111  11.400
73418W        W46486  22.386   8.210   0.865
73419W        W46487  43.876   8.612  12.493
73420W        W46488   0.205  39.858  14.880
73421W        W46489  39.904  43.381   4.326
73422W        W46490   0.814  10.128   3.620
73423W        W46491  14.348   3.782   1.946
73424W        W46492  12.605  28.925   1.954
73425W        W46493  25.223  44.342   0.349
73426W        W46494  21.293  10.940  13.767
73427W        W46495  25.524   7.726  11.662
73428W        W46496  42.316  38.594  14.758
73429W        W46497  41.891  36.784   3.962
73430W        W46498  21.666   8.607  11.056
73431W        W46499   5.660   7.810   1.441
73432W        W46500  21.682  28.005   1.206
73433W        W46501  29.559  13.422   1.262
73434W        W46502  22.984  17.755  11.616
73435W        W46503  26.326  38.849  14.297
73436W        W46504  14.078   4.856  14.410
73437W        W46505   9.266   4.266  13.828
73438W        W46506  39.365  32.087  11.434
73439W        W46507  24.171  39.057  14.546
73440W        W46508  40.158  12.152  11.833
73441W        W46509  10.931  19.630   5.289
73442W        W46510  40.816  16.722   2.946
73443W        W46511  34.147  28.301   4.583
73444W        W46512  27.515  34.561   4.628
73445W        W46513  29.820   7.228  14.363
73446W        W46514  29.204   7.786   1.185
73447W        W46515  33.833  26.288   0.798
73448W        W46516   2.248  29.487   1.465
73449W        W46517  31.374  20.160   2.763
73450W        W46518  30.018  11.233   3.291
73451W        W46519  43.680  37.548  14.462
73452W        W46520  36.723   5.789   1.947
73453W        W46521  16.285  31.244  11.352
73454W        W46522  23.048  21.991  11.175
73455W        W46523   0.740  26.095   3.665
73456W        W46524  25.743  13.735   3.805
73457W        W46525  27.926  39.896   3.419
73458W        W46526  34.376  39.645  14.302
73459W        W46527  11.276  36.725  11.799
73460W        W46528  42.948  23.769   4.722
73461W        W46529  40.390  41.603   0.009
73462W        W46530  16.508  23.770   3.708
73463W        W46531  40.002   1.914   5.161
73464W        W46532  26.666  18.739  11.227
73465W        W46533   1.153   6.830  11.636
73466W        W46534  39.010  40.698  10.691
73467W        W46535  16.616  28.514   0.103
73468W        W46536   5.136   8.619   0.339
73469W        W46537  36.099   2.691   0.109
73470W        W46538  17.855  25.140  13.085
73471W        W46539  19.994  43.246  12.496
73472W        W46540  21.270  14.555   2.265
73473W        W46541  38.615  25.898   2.748
73474W        W46542  22.521  43.794   3.694
73475W        W46543  28.931  18.489   1.442
73476W        W46544   0.752  43.401  13.468
73477W        W46545  14.203   5.967  10.936
73478W        W46546  33.978   2.014  14.761
73479W        W46547   9.751  21.184  13.008
73480W        W46548  11.339  29.143   0.456
73481W        W46549   1.118  23.256   2.403
73482W        W46550  25.265  37.103  12.554
73483W        W46551  14.723  25.511   0.775
73484W        W46552  34.974  34.821   1.021
73485W        W46553  23.682   8.467  14.407
73486W        W46554  15.304  26.806  14.718
73487W        W46555   3.049  23.815  12.562
73488W        W46556  29.698  24.888  11.650
73489W        W46557  43.232  43.926   4.423
73490W        W46558  11.602  10.231   2.833
73491W        W46559  38.337  30.553   1.777
73492W        W46560   6.041  41.362  12.868
73493W        W46561  22.549  29.934  12.022
73494W        W46562  25.192   4.798   2.547
73495W        W46563  31.326  27.943   2.424
73496W        W46564  40.937   9.298   4.164
73497W        W46565  36.571   7.838  14.966
73498W        W46566  16.525  22.257   1.255
73499W        W46567   0.148  18.829  13.850
73500W        W46568  41.826  21.087   1.665
73501W        W46569  38.288  31.184   2.732
73502W        W46570  34.642  26.968   2.471
73503W        W46571  13.808  28.565   4.166
73504W        W46572  41.336  34.657   3.275
73505W        W46573  13.611  12.835   3.237
73506W        W46574  15.382   6.959   0.728
73507W        W46575  28.888   2.298   4.281
73508W        W46576  38.514   2.618  11.021
73509W        W46577  44.225  18.633  11.012
73510W        W46578   6.168  21.012  11.602
73511W        W46579  23.467  11.181   3.208
73512W        W46580  11.314  20.827   3.180
73513W        W46581  30.056   0.195   3.753
73514W        W46582   5.765  37.530   2.655
73515W        W46583  31.632  41.402  12.496
73516W        W46584  32.934  22.794   2.239
73517W        W46585   2.982  29.759   1.959
73518W        W46586   6.840   2.215  14.516
73519W        W46587   7.362  26.143  13.001
73520W        W46588  33.950  16.197   0.289
73521W        W46589   4.058  35.928   2.465
73522W        W46590  19.019   7.691   3.224
73523W        W46591  25.194  42.163   1.886
73524W        W46592  36.053   3.788  11.152
73525W        W46593   9.787  35.765   0.312
73526W        W46594  42.236   1.965  10.435
73527W        W46595   7.259  44.478   1.701
73528W        W46596  39.060  37.116   0.925
73529W        W46597  26.746  42.426  11.515
73530W        W46598  12.427   6.734   4.219
73531W        W46599  20.178   4.669   0.220
73532W        W46600   4.008  43.737  13.101
73533W        W46601   5.362  18.235   0.374
73534W        W46602  10.169  19.805  12.962
73535W        W46603  35.715   6.537  12.635
73536W        W46604  38.107  12.500   5.110
73537W        W46605  20.214  28.503  12.821
73538W        W46606  41.272  18.810   3.741
73539W        W46607  44.995  23.097   3.167
73540W        W46608  43.909  40.899   1.847
73541W        W46609  43.265  27.674   0.296
73542W        W46610  41.372  26.512  12.355
73543W        W46611  15.657  34.164  11.871
73544W        W46612  36.150   6.867   3.222
73545W        W46613  31.057  36.459   1.810
73546W        W46614  36.840   4.989   2.353
73547W        W46615   7.737   7.695  14.346
73548W        W46616  37.281   1.385  13.883
73549W        W46617  44.015  29.100  13.392
73550W        W46618  27.264   2.874  12.033
73551W        W46619  13.307  20.215   0.235
73552W        W46620  43.392   4.693   1.379
73553W        W46621  26.974   5.863  10.605
73554W        W46622   2.484  11.550  10.729
73555W        W46623   7.110  40.030   2.653
73556W        W46624  10.381   9.202   2.238
73557W        W46625  29.838  21.888  12.871
73558W        W46626  18.661   1.149   5.094
73559W        W46627  34.643  44.481  14.814
73560W        W46628  30.518   0.444   3.730
73561W        W46629  43.291   6.730   2.103
73562W        W46630  22.565  44.787  14.080
73563W        W46631  16.522   6.273  11.643
73564W        W46632  19.927  37.604   0.357
73565W        W46633  12.087  18.294  13.916
73566W        W46634   4.826  32.901  10.090
73567W        W46635  12.289  24.276   0.129
73568W        W46636  20.692   3.902  14.125
73569W        W46637  20.612  31.952   4.095
73570W        W46638  13.500  20.800   2.832
73571W        W46639  33.091  15.866   1.548
73572W        W46640  17.715  15.406  11.080
73573W        W46641   8.391  38.437   5.417
73574W        W46642  40.742  16.914  12.420
73575W        W46643  21.012  39.300  13.856
73576W        W46644  37.395  23.027   3.937
73577W        W46645  10.361  10.719  10.795
73578W        W46646   5.172  42.277   1.821
73579W        W46647  32.071  41.032  12.697
73580W        W46648  29.134   5.640   1.630
73581W        W46649  39.054  15.606   3.265
73582W        W46650  15.033   4.002   1.396
73583W        W46651  32.875  39.340  13.376
73584W        W46652   6.849  34.416  13.606
73585W        W46653   7.792   7.338   4.748
73586W        W46654   5.856  44.896  13.388
73587W        W46655  13.619  19.095   4.776
73588W        W46656  42.623  43.265   2.789
73589W        W46657  27.792   6.855   4.459
73590W        W46658  24.235  37.465   3.371
73591W        W46659  39.872   1.886  10.665
73592W        W46660  18.628  12.413  12.193
73593W        W46661  18.648  44.380  10.126
73594W        W46662  33.456   0.238   2.807
73595W        W46663  43.007  40.268  14.066
73596W        W46664  31.701  29.717  13.472
73597W        W46665  29.089  20.427   0.548
73598W        W46666  33.116  12.727   3.890
73599W        W46667   0.848  28.177   0.716
73600W        W46668  28.187  25.525   1.744
73601W        W46669  21.979  22.760   2.308
73602W        W46670  15.655   7.483  10.796
73603W        W46671  14.812  40.423   0.729
73604W        W46672  26.402  29.578   2.746
73605W        W46673  38.020  17.697  11.963
73606W        W46674  27.067  36.886  12.869
73607W        W46675  21.503  15.254  13.618
73608W        W46676  16.973  32.198   0.478
73609W        W46677   9.628  42.930  14.286
73610W        W46678   0.654  24.336  13.957
73611W        W46679  16.308  12.109   2.259
73612W        W46680  40.692  18.503  10.759
73613W        W46681  35.270  16.893   4.452
73614W        W46682  35.304   2.478  12.908
73615W        W46683  17.725  13.136  14.121
73616W        W46684   7.325  36.082   3.142
73617W        W46685  10.179  33.578  12.165
73618W        W46686  39.227  27.205   1.983
73619W        W46687   3.216   8.179   4.436
73620W        W46688   2.615  13.722   0.775
73621W        W46689   3.400  27.678  13.162
73622W        W46690  37.073  10.265  14.374
73623W        W46691   0.377   2.285  13.330
73624W        W46692  29.492  30.221   0.820
73625W        W46693   5.691  10.731  12.927
73626W        W46694  38.202  31.494   3.818
73627W        W46695  41.851  21.791   2.528
73628W        W46696  36.828   1.216   2.661
73629W        W46697   5.923  28.910  11.217
73630W        W46698   9.806   2.735  14.904
73631W        W46699   0.971  12.535   2.423
73632W        W46700   9.442  37.546   0.414
73633W        W46701  38.979  26.009   2.401
73634W        W46702  42.072  17.276  12.527
73635W        W46703  12.981  15.102  10.741
73636W        W46704  10.701   6.396   4.258
73637W        W46705   9.371  15.657   3.077
73638W        W46706  37.560  22.022   1.414
73639W        W46707  13.648  30.561  10.852
73640W        W46708  14.524   0.361   2.616
73641W        W46709  30.561   7.649  13.922
73642W        W46710  37.170  36.063  11.921
73643W        W46711  16.161  35.953   0.918
73644W        W46712  34.026  28.073  10.902
73645W        W46713  10.027  30.668  12.973
73646W        W46714   1.497   9.747   1.348
73647W        W46715  32.679  37.382   4.574
73648W        W46716  31.801  43.484  13.484
73649W        W46717  31.518  21.516   2.477
73650W        W46718  41.856   3.549   2.997
73651W        W46719   9.280   6.898  12.414
73652W        W46720   4.512  29.424  11.786
73653W        W46721  26.841  25.788  11.586
73654W        W46722   9.950  27.158   3.859
73655W        W46723   1.281  31.365  14.426
73656W        W46724  33.615  21.143  10.549
73657W        W46725  29.234  42.871  13.597
73658W        W46726  39.999  13.917  12.030
73659W        W46727  19.789  11.209   1.751
73660W        W46728  20.986   7.271   1.272
73661W        W46729  18.572  34.204   0.272
73662W        W46730  33.455  44.983   4.006
73663W        W46731  31.613  21.568  14.990
73664W        W46732  36.128  25.415   2.758
73665W        W46733   2.415   7.229   3.551
73666W        W46734  14.634  33.053   2.840
73667W        W46735  23.175  33.402  13.144
73668W        W46736  41.347  38.745   2.742
73669W        W46737   4.233  22.977   0.241
73670W        W46738  20.766  41.624   4.205
73671W        W46739  25.235  26.180   4.161
73672W        W46740   6.162  43.940   2.328
73673W        W46741  26.924  13.596   2.281
73674W        W46742  25.922   6.517  14.442
73675W        W46743  40.839  32.320  13.878
73676W        W46744  12.911  18.718   1.856
73677W        W46745  29.934  28.938   0.974
73678W        W46746  37.327  23.201  10.512
73679W        W46747  29.027  26.650  10.631
73680W        W46748   2.916  21.260  11.010
73681W        W46749   1.851   0.291   1.807
73682W        W46750   6.218  10.893   4.530
73683W        W46751  18.737  38.362   0.450
73684W        W46752  30.165  27.221  14.448
73685W        W46753  22.045   6.466   2.028
73686W        W46754  27.667  39.023  11.994
73687W        W46755  40.339  43.187  10.761
73688W        W46756  15.143  12.098   3.127
73689W        W46757  39.290  23.138   3.307
73690W        W46758   9.167  22.676  12.404
73691W        W46759  23.160  24.961  12.633
73692W        W46760  12.085  42.289   3.191
73693W        W46761  40.419  38.920   4.721
73694W        W46762   0.925   8.505  11.110
73695W        W46763  13.651  41.459   2.377
73696W        W46764  22.675   2.849  11.653
73697W        W46765  12.097   0.937   4.780
73698W        W46766   3.878  26.153  11.533
73699W        W46767  30.440  18.551  14.254
73700W        W46768  39.717  23.217  12.450
73701W        W46769   9.364  14.819   3.774
73702W        W46770  32.906  12.702  13.346
73703W        W46771  21.635  18.282  13.438
73704W        W46772  31.092  32.345  13.923
73705W        W46773  15.977  17.150  11.172
73706W        W46774  17.830  32.621  13.812
73707W        W46775  26.145  14.027  10.421
73708W        W46776   6.966  11.093  11.876
73709W        W46777  23.799  12.752   5.119
73710W        W46778   5.408   3.465  12.195
73711W        W46779   3.917   4.803   0.510
73712W        W46780  35.464  41.522   0.017
73713W        W46781  22.172  39.418  13.111
73714W        W46782   5.422  12.665   2.813
73715W        W46783  11.955  18.699   0.263
73716W        W46784  20.421   2.226  14.371
73717W        W46785  13.288  29.694  13.374
73718W        W46786   5.701  26.933   0.440
73719W        W46787  33.491  44.885  13.042
73720W        W46788  15.279  44.867  11.170
73721W        W46789   8.233  18.632   3.668
73722W        W46790   7.940   9.983   3.265
73723W        W46791  14.356  44.062  11.955
73724W        W46792  12.701  30.570  10.577
73725W        W46793   1.244  43.406   1.043
73726W        W46794  19.817  26.663   0.899
73727W        W46795  11.238  30.931   3.085
73728W        W46796  15.074  20.248   4.651
73729W        W46797  27.453   5.436   2.270
73730W        W46798  43.386  42.294  10.889
73731W        W46799  14.921  33.473   4.487
73732W        W46800   9.328  13.091   1.957
73733W        W46801  13.445  27.678   2.701
73734W        W46802  23.725  34.381  12.559
73735W        W46803  30.107  16.547  12.459
73736W        W46804   8.336   5.894  11.298
73737W        W46805   2.205  39.620   4.081
73738W        W46806   4.256  25.331   0.448
73739W        W46807  13.132  30.622  10.853
73740W        W46808  28.983  21.143  13.508
73741W        W46809  21.882  20.314  14.275
73742W        W46810  26.426  29.158  11.657
73743W        W46811  16.987  39.149  13.412
73744W        W46812  20.494  13.164  12.098
73745W        W46813  43.908   3.412  10.036
73746W        W46814  27.010  22.758   4.282
73747W        W46815  34.157  17.007  11.602
73748W        W46816  36.199  21.250  11.630
73749W        W46817   5.341  30.223  12.169
73750W        W46818   4.223  15.778  13.353
73751W        W46819  32.345  42.844   3.689
73752W        W46820   7.235  12.928  10.314
73753W        W46821  19.984  40.362  14.005
73754W        W46822  32.968  23.000   4.082
73755W        W46823   4.122  36.986   3.625
73756W        W46824  41.020   3.809   0.904
73757W        W46825  40.430   7.602   5.020
73758W        W46826   7.254  33.060   4.928
73759W        W46827   1.360  27.537  11.959
73760W        W46828  36.749  33.757   5.015
73761W        W46829  37.200  43.428  10.406
73762W        W46830  12.893  21.302   4.171
73763W        W46831  19.262  11.570  12.839
73764W        W46832  36.145  30.556   0.553
73765W        W46833  13.294  24.564  11.428
73766W        W46834   3.231  40.926  12.957
73767W        W46835  30.810  39.033   3.173
73768W        W46836  34.824  22.292   2.301
73769W        W46837  26.007  29.118   0.312
73770W        W46838  28.339   5.816  13.450
73771W        W46839  26.446  37.437   4.167
73772W        W46840   0.282  44.772   3.796
73773W        W46841  13.584  36.506  11.175
73774W        W46842  24.020  16.302   0.229
73775W        W46843  43.367  22.345   4.595
73776W        W46844  42.457  29.574   0.362
73777W        W46845   0.458   0.071  11.850
73778W        W46846  10.303   8.457   1.840
73779W        W46847  29.384  32.912   4.562
73780W        W46848  32.701  29.325   3.401
73781W        W46849  33.933  29.134  12.353
73782W        W46850  35.488  18.057  14.922
73783W        W46851  29.459   2.535  12.051
73784W        W46852  27.084  19.666  10.294
73785W        W46853  36.351  27.358   4.075
73786W        W46854  22.365  44.754   0.245
73787W        W46855  14.379  17.240  14.384
73788W        W46856   4.247  14.657  10.468
73789W        W46857  38.862  43.777   0.478
73790W        W46858  21.630  18.240   4.092
73791W        W46859  27.046  23.011  13.332
73792W        W46860  36.949   7.209   3.732
73793W        W46861  19.272  17.561   3.234
73794W        W46862  31.056  34.814  12.011
73795W        W46863  34.488   7.417   2.785
73796W        W46864  37.412  15.482   0.240
73797W        W46865  42.067  30.384  11.181
73798W        W46866  42.936   4.514  13.072
73799W        W46867   8.920  39.547  13.899
73800W        W46868  17.191  26.253   1.334
73801W        W46869  10.938  17.199   2.645
73802W        W46870  22.107  16.153  11.526
73803W        W46871  29.727  20.761   3.345
73804W        W46872  34.324  39.833  10.479
73805W        W46873  37.566   7.341  14.547
73806W        W46874  27.102  20.860  14.222
73807W        W46875  22.428   8.717  13.927
73808W        W46876  29.656   4.663  11.442
73809W        W46877   5.081  38.302   9.899
73810W        W46878  16.668  32.089  14.726
73811W        W46879  19.186  25.988   4.582
73812W        W46880  27.585  23.737   2.325
73813W        W46881  38.613  35.407  13.315
73814W        W46882  28.060  44.993  12.174
73815W        W46883  29.560  44.227   0.720
73816W        W46884  28.983  21.460  12.091
73817W        W46885  22.953  27.263  10.724
73818W        W46886  28.143  35.035   4.565
73819W        W46887  17.109   5.498  11.547
73820W        W46888  22.087  28.571  13.448
73821W        W46889   9.924  35.527  12.013
73822W        W46890  20.226  34.490  14.229
73823W        W46891   6.739   9.253  10.613
73824W        W46892   8.205   0.177   0.310
73825W        W46893  29.349  40.590  10.681
73826W        W46894  10.665  39.529   1.518
73827W        W46895  35.827  44.455  13.775
73828W        W46896  40.512   7.232   1.768
73829W        W46897  32.767   3.827   1.377
73830W        W46898  18.417  40.340  13.122
73831W        W46899  13.139   1.129   1.806
73832W        W46900  24.662  19.733  14.818
73833W        W46901  41.879  10.736   4.823
73834W        W46902  41.243  23.619   2.765
73835W        W46903  17.948  39.128   1.276
73836W        W46904   6.413  32.641   2.883
73837W        W46905   7.109  25.202   4.987
73838W        W46906  13.688  34.351  14.873
73839W        W46907   5.968   3.353  14.925
73840W        W46908  40.948  29.680   4.132
73841W        W46909  27.931  22.952  12.929
73842W        W46910  36.640  13.932   4.927
73843W        W46911  30.615  35.693   1.843
73844W        W46912   4.868  26.200   2.800
73845W        W46913   1.766  18.565   4.539
73846W        W46914  27.235  31.194  12.385
73847W        W46915  29.503  10.674   4.401
73848W        W46916   6.932  10.561   0.390
73849W        W46917  19.615  15.228   0.050
73850W        W46918   8.651   2.602   0.242
73851W        W46919   2.047  31.029  11.150
73852W        W46920   9.292  38.233   2.589
73853W        W46921  37.732  15.634   2.226
73854W        W46922   2.996  30.329   0.867
73855W        W46923  29.570  10.894   0.432
73856W        W46924  34.955  35.609  11.953
73857W        W46925  26.956  43.014  10.715
73858W        W46926   5.850  32.480   0.387
73859W        W46927  31.498  36.567   0.930
73860W        W46928   2.778  18.547   1.377
73861W        W46929  20.603   8.486   1.277
73862W        W46930  41.604  30.564   2.857
73863W        W46931   1.234   6.764   2.224
73864W        W46932  21.193   1.178   2.726
73865W        W46933  35.401  26.663   4.675
73866W        W46934  25.290   1.370  14.102
73867W        W46935  30.078   9.792   3.527
73868W        W46936   5.209  38.275  11.519
73869W        W46937  14.168  11.342   0.872
73870W        W46938   4.852  41.565  11.488
73871W        W46939   9.731  30.052   3.831
73872W        W46940  34.551  27.404  10.763
73873W        W46941  39.328  11.238   2.325
73874W        W46942  19.808  21.013   5.021
73875W        W46943  43.634  11.396   2.283
73876W        W46944   3.877   4.717   2.412
73877W        W46945   4.524  33.836   0.354
73878W        W46946   0.394  26.660   0.378
73879W        W46947  27.653  38.069  14.531
73880W        W46948  18.906   8.504   3.788
73881W        W46949  33.850  37.749   3.925
73882W        W46950  44.456  21.989   0.957
73883W        W46951  23.501   8.922   3.991
73884W        W46952  32.504   8.857  11.276
73885W        W46953  33.122  14.755  12.190
73886W        W46954  38.496  29.432   0.487
73887W        W46955   6.311  19.086   0.569
73888W        W46956  23.306   7.193  13.585
73889W        W46957  20.263  39.641   0.800
73890W        W46958  10.022   9.418  10.766
73891W        W46959  38.618  20.273   1.330
73892W        W46960  14.199  31.992   0.228
73893W        W46961  27.201   9.866   1.340
73894W        W46962  14.528  28.784  13.472
73895W        W46963  20.366   3.358  14.827
73896W        W46964  14.796   4.685   2.544
73897W        W46965   5.108  34.464  12.111
73898W        W46966  31.895  26.962   4.390
73899W        W46967  37.573  19.156  12.866
73900W        W46968  29.944   3.909  14.789
73901W        W46969  13.958  44.325   0.403
73902W        W46970   1.163  28.079  10.507
73903W        W46971  29.529  38.995   2.905
73904W        W46972  39.109  34.117   4.628
73905W        W46973  41.803  28.171   3.549
73906W        W46974  21.076   6.474   4.109
73907W        W46975  18.246  35.103   3.729
73908W        W46976  23.520   6.211  10.716
73909W        W46977   9.887  26.823  14.624
73910W        W46978   3.751  15.552  12.644
73911W        W46979  29.408  38.054   3.697
73912W        W46980  14.778  16.039   4.680
73913W        W46981  10.748  21.665  14.710
73914W        W46982  28.878  33.348   3.885
73915W        W46983  42.218  31.716  11.041
73916W        W46984  33.151  14.190  13.448
73917W        W46985  42.954   4.077  13.402
73918W        W46986  38.334  23.470  13.078
73919W        W46987  36.118  24.677   0.845
73920W        W46988  43.151  43.458  11.946
73921W        W46989  31.506  18.828   3.763
73922W        W46990  32.113  21.311  12.766
73923W        W46991  24.376  32.876  11.630
73924W        W46992   6.876  11.605   0.341
73925W        W46993  38.570   5.168   0.127
73926W        W46994  24.033   3.113   4.173
73927W        W46995  20.198   4.927  11.669
73928W        W46996  30.505  21.808  13.388
73929W        W46997  11.403   8.138  14.368
73930W        W46998   0.776   3.415   3.598
73931W        W46999  35.981  29.215   3.685
73932W        W47000  36.869  29.145   4.585
73933W        W47001  22.512  21.044  12.344
73934W        W47002  20.690  16.062  12.967
73935W        W47003  33.251  12.709  12.973
73936W        W47004  18.834   1.551   1.277
73937W        W47005  24.115  32.925   3.887
73938W        W47006  10.829  16.695   2.829
73939W        W47007  37.410  44.739  10.560
73940W        W47008  23.032   0.504  14.259
73941W        W47009  31.638  39.885  13.411
73942W        W47010  24.539  32.484   2.828
73943W        W47011  29.182  27.220  12.867
73944W        W47012  42.291  28.236  12.057
73945W        W47013  37.476   9.197  13.625
73946W        W47014  26.681  23.593   3.378
73947W        W47015   6.980   4.305   0.586
73948W        W47016  23.017  40.796   4.520
73949W        W47017  29.983  14.553  12.556
73950W        W47018  19.117  17.838  14.243
73951W        W47019  10.762  13.166  14.883
73952W        W47020   4.824   9.138  10.572
73953W        W47021  28.583  20.523   2.449
73954W        W47022   0.216  19.079   0.799
73955W        W47023  12.647   3.675   4.312
73956W        W47024  43.469   4.275   2.237
73957W        W47025  31.069   9.246  13.003
73958W        W47026  29.468  19.068  12.717
73959W        W47027  25.923  39.375   0.237
73960W        W47028  23.548  32.981   0.993
73961W        W47029  26.960  33.683  10.242
73962W        W47030  44.919   6.849   3.966
73963W        W47031   6.785  11.947  11.590
73964W        W47032   5.204  14.765  14.862
73965W        W47033  12.765  23.081   3.740
73966W        W47034  21.064  16.154   2.302
73967W        W47035  35.466  44.436   0.317
73968W        W47036  37.634   9.656   3.626
73969W        W47037  39.863  38.394   0.913
73970W        W47038  38.921  27.268  12.067
73971W        W47039   0.814  37.119   3.245
73972W        W47040  25.136  27.525   0.010
73973W        W47041  42.519  26.094   1.817
73974W        W47042   7.010  24.279   1.746
73975W        W47043  34.024  31.891   5.339
73976W        W47044   6.339  39.769   4.533
73977W        W47045  22.976  24.269   4.901
73978W        W47046   5.423  12.075   1.727
73979W        W47047  22.953  40.806  12.897
73980W        W47048   4.703  15.762   0.695
73981W        W47049   0.786   7.205  11.614
73982W        W47050  15.997  35.303   2.202
73983W        W47051  30.590   1.302   1.430
73984W        W47052  15.154  30.441   2.798
73985W        W47053   7.825  20.744  12.664
73986W        W47054  31.117   4.113  12.127
73987W        W47055  25.932  22.637  12.480
73988W        W47056   2.178  20.186   3.376
73989W        W47057  17.237  24.485   1.787
73990W        W47058  10.314   7.156   0.968
73991W        W47059  35.965  14.836   3.093
73992W        W47060  16.322  25.094   4.579
73993W        W47061  44.730  20.552   0.927
73994W        W47062  27.009  28.857   4.620
73995W        W47063  17.091  20.537   3.301
73996W        W47064   2.300   2.939   0.485
73997W        W47065   5.955  33.984   2.928
73998W        W47066  28.981  28.409   2.860
73999W        W47067  21.194  24.321  13.116
74000W        W47068  28.038  42.032   1.302
74001W        W47069  13.809   4.380   3.157
74002W        W47070   8.106  21.622  13.847
74003W        W47071  34.837  25.640  11.633
74004W        W47072  27.920  14.183   0.399
74005W        W47073  40.142  27.069  11.689
74006W        W47074  11.111  44.179   0.946
74007W        W47075   4.327   9.964   4.421
74008W        W47076  23.648  44.344   4.889
74009W        W47077  42.274   1.467   4.128
74010W        W47078  29.755  44.506   4.161
74011W        W47079  29.062  36.480   4.060
74012W        W47080  12.028  20.631   0.268
74013W        W47081  39.278   0.964  13.042
74014W        W47082  16.258  26.756   4.132
74015W        W47083  39.418  27.495   1.590
74016W        W47084  26.747  22.516   0.334
74017W        W47085  38.468  43.978  14.553
74018W        W47086  35.362  37.836   0.437
74019W        W47087  13.230   0.879  12.380
74020W        W47088   9.797  22.271  13.977
74021W        W47089  27.392  24.592  11.209
74022W        W47090  23.145  21.249   1.122
74023W        W47091  40.238  14.255  11.206
74024W        W47092  12.594  24.874  13.790
74025W        W47093   6.293  15.813   1.843
74026W        W47094   5.420  29.830  14.064
74027W        W47095  14.033  31.853  10.645
74028W        W47096  41.858   5.445   3.048
74029W        W47097  36.829  25.719   0.905
74030W        W47098  36.870  34.921  12.229
74031W        W47099  12.151  18.141   1.141
74032W        W47100   3.616  37.924  13.561
74033W        W47101   8.846  34.538   4.326
74034W        W47102   6.751  18.760   0.385
74035W        W47103   9.721  15.905   4.269
74036W        W47104  28.666   2.169   3.837
74037W        W47105  14.099  19.343  12.054
74038W        W47106   0.598   4.429  13.213
74039W        W47107  20.688  12.806   1.193
74040W        W47108  43.613  41.236  12.128
74041W        W47109  30.826  37.996  14.432
74042W        W47110  14.272  39.508   4.640
74043W        W47111  11.310  28.920   3.154
74044W        W47112  24.287  21.156   2.765
74045W        W47113  31.869  13.060   0.209
74046W        W47114   6.386  27.576  10.755
74047W        W47115  31.544  12.234   2.462
74048W        W47116   1.859  36.438  11.988
74049W        W47117  41.403  23.234  11.468
74050W        W47118  22.791  18.184  10.139
74051W        W47119  10.685  18.513   4.206
74052W        W47120  24.581  10.390  12.472
74053W        W47121   1.185  16.601  14.450
74054W        W47122   9.614   9.244  14.709
74055W        W47123  40.027  13.218  13.466
74056W        W47124   4.323   0.259   4.643
74057W        W47125   9.570  41.780   5.511
74058W        W47126  28.891  27.369   0.901
74059W        W47127  43.165  11.865  10.553
74060W        W47128  37.493  36.002  12.357
74061W        W47129  20.717   7.322   2.574
74062W        W47130  11.165  19.797  10.538
74063W        W47131  15.639  29.844   3.654
74064W        W47132  41.346  18.229   4.644
74065W        W47133  33.376   8.196   0.311
74066W        W47134  27.448  14.549  11.633
74067W        W47135  20.370  11.389   1.072
74068W        W47136  15.472  37.544  12.545
74069W        W47137  30.233  40.461   0.351
74070W        W47138  40.371   8.995   1.403
74071W        W47139   7.113   4.842   2.338
74072W        W47140  22.462   5.813  12.475
74073W        W47141  29.319   1.471  11.523
74074W        W47142   4.439  12.298   0.522
74075W        W47143  22.095  30.685  11.920
74076W        W47144  41.762  24.485  14.826
74077W        W47145  30.030   4.393  11.196
74078W        W47146   2.832  32.475   2.642
74079W        W47147  19.150  20.050  14.943
74080W        W47148  20.735  19.620   0.396
74081W        W47149  25.179  30.980  11.173
74082W        W47150  41.014   3.274   0.152
74083W        W47151  18.708  15.279   0.499
74084W        W47152  20.099  35.350   4.659
74085W        W47153  24.449  40.563   0.277
74086W        W47154  44.639  25.469   4.237
74087W        W47155  36.781  10.323  13.944
74088W        W47156  20.607  38.399  12.959
74089W        W47157  32.227  15.074  14.064
74090W        W47158   5.803   2.307  11.534
74091W        W47159  43.181  16.568  12.600
74092W        W47160  43.342  40.306   0.857
74093W        W47161   9.748   2.850  10.396
74094W        W47162  22.465  39.351  14.813
74095W        W47163  28.860  29.543  14.985
74096W        W47164  44.458  40.047   3.644
74097W        W47165  31.661  38.438   3.729
74098W        W47166  17.309  16.584   3.336
74099W        W47167   4.624   0.291   1.306
74100W        W47168  22.065  20.141   4.427
74101W        W47169  28.911  24.969   2.469
74102W        W47170  26.256  39.892   1.403
74103W        W47171   9.862  11.638   2.862
74104W        W47172   1.933   6.949  13.909
74105W        W47173  42.014  29.026   0.767
74106W        W47174   4.968  42.252  13.520
74107W        W47175  26.508  15.658  13.269
74108W        W47176  20.285   3.012   2.496
74109W        W47177  44.528  29.390   2.232
74110W        W47178  26.652  14.515  11.571
74111W        W47179  37.258  33.594  11.543
74112W        W47180  23.203  34.851   0.470
74113W        W47181  23.400  21.029  11.708
74114W        W47182  25.144  28.605   1.292
74115W        W47183  43.390   6.910  10.724
74116W        W47184  28.192  22.091  12.369
74117W        W47185  23.411  24.114  13.614
74118W        W47186  37.489  30.722   3.648
74119W        W47187  42.457   1.286   2.980
74120W        W47188  37.096  37.689   2.811
74121W        W47189  23.489  14.713   3.724
74122W        W47190  38.254  23.731   0.807
74123W        W47191  34.313  26.160   3.675
74124W        W47192   8.569  17.251  14.788
74125W        W47193  44.478  29.121   4.722
74126W        W47194   1.751   0.940   0.726
74127W        W47195   3.534  41.325  12.902
74128W        W47196  12.857  20.114   4.774
74129W        W47197  38.001  28.219  14.434
74130W        W47198  14.840  44.235  11.879
74131W        W47199  32.398  41.473   2.161
74132W        W47200  21.039  20.662   3.876
74133W        W47201  26.984  33.386   1.263
74134W        W47202  36.917  32.548   4.751
74135W        W47203   2.878  24.542   1.645
74136W        W47204  10.467   3.011   1.710
74137W        W47205  14.014  23.601  11.198
74138W        W47206  29.495  35.655  11.765
74139W        W47207  26.880  27.118   2.811
74140W        W47208  38.284  44.890  10.712
74141W        W47209  34.041  24.552  10.961
74142W        W47210  38.217  26.618  10.783
74143W        W47211  38.886   7.411  14.863
74144W        W47212  13.227  31.425   2.968
74145W        W47213   9.948  34.076  12.124
74146W        W47214  44.430   9.188  13.400
74147W        W47215  27.712  29.626   4.091
74148W        W47216   5.963  19.095   0.156
74149W        W47217  40.277  38.153   1.192
74150W        W47218  38.417  41.992  14.852
74151W        W47219  36.439  43.524  12.966
74152W        W47220  23.258  17.071  14.335
74153W        W47221  22.157  34.983  13.314
74154W        W47222  35.935  29.454   0.398
74155W        W47223  20.804   0.261  14.657
74156W        W47224  20.187  22.705   3.681
74157W        W47225  13.586   5.268   4.370
74158W        W47226  32.360   1.173  14.815
74159W        W47227  30.444  36.478  11.471
74160W        W47228   9.736  19.249   2.839
74161W        W47229   1.294  29.492  12.030
74162W        W47230  42.123  21.267   3.753
74163W        W47231  37.556  43.213   1.225
74164W        W47232   3.955  42.365   1.952
74165W        W47233  31.799  24.688  12.003
74166W        W47234  33.014  37.310  12.208
74167W        W47235  40.486  10.052   2.618
74168W        W47236   1.995  13.773   4.274
74169W        W47237  11.648  43.400   2.312
74170W        W47238  26.527  36.677  12.082
74171W        W47239  11.207  17.323  14.791
74172W        W47240  10.273   9.505  10.294
74173W        W47241  29.952  12.420   3.769
74174W        W47242  27.601  25.922  14.929
74175W        W47243  31.958  40.767   2.763
74176W        W47244   7.515   3.010  12.505
74177W        W47245  34.916  31.425  12.603
74178W        W47246  17.308  29.036   1.390
74179W        W47247  32.119  31.599   0.541
74180W        W47248  20.941  30.214   2.898
74181W        W47249  42.346  21.247  12.377
74182W        W47250  38.943  15.283   2.816
74183W        W47251   6.147  41.340   0.520
74184W        W47252  35.487  26.509  11.453
74185W        W47253  23.015  13.697  11.616
74186W        W47254  44.932  18.158  13.964
74187W        W47255   4.350  32.035  13.511
74188W        W47256  37.644  31.351   3.088
74189W        W47257  27.738  39.932   4.188
74190W        W47258  39.438  44.597  10.680
74191W        W47259  39.455   7.938   2.100
74192W        W47260  10.945   5.419   4.747
74193W        W47261  31.093  17.031  12.061
74194W        W47262  30.738  20.568   4.134
74195W        W47263  44.279  32.600  13.938
74196W        W47264   8.131  43.841  14.567
74197W        W47265  30.506  13.925  12.968
74198W        W47266  19.916   4.354  13.029
74199W        W47267   2.082  37.875  12.400
74200W        W47268   8.652  21.489   0.860
74201W        W47269  42.957   9.126  12.492
74202W        W47270  16.117   8.626   4.006
74203W        W47271  21.566   3.199   3.334
74204W        W47272  13.404  23.543   1.937
74205W        W47273  10.741  27.661   1.000
74206W        W47274  19.419  33.281  12.186
74207W        W47275   2.734  40.454   0.834
74208W        W47276   4.600  23.694  11.748
74209W        W47277  42.785  11.740  12.620
74210W        W47278   7.967   5.802   2.318
74211W        W47279  39.309  17.135  13.861
74212W        W47280   0.377   6.334  11.440
74213W        W47281  18.835  19.274   3.627
74214W        W47282  17.992   9.675  12.512
74215W        W47283  13.791  16.859  12.963
74216W        W47284   1.344  17.512   2.580
74217W        W47285  13.487  36.867  14.884
74218W        W47286  19.002  25.737  11.223
74219W        W47287  27.220  13.149   2.087
74220W        W47288  15.157  17.135  13.944
74221W        W47289  24.117  22.062  12.598
74222W        W47290  15.490  27.658  11.527
74223W        W47291  16.783  35.018   1.518
74224W        W47292  40.389   0.350  12.040
74225W        W47293  29.729   7.068   0.332
74226W        W47294  14.920  15.144   0.848
74227W        W47295  33.279  29.874   1.780
74228W        W47296  37.930   8.943  14.915
74229W        W47297  19.846   8.225  11.254
74230W        W47298  21.841  33.990  12.534
74231W        W47299  29.055  10.599  14.188
74232W        W47300   3.271  38.974   4.117
74233W        W47301  15.578  29.662  10.682
74234W        W47302  38.089  14.228   0.715
74235W        W47303  37.674  42.816  13.883
74236W        W47304   4.359  17.554   2.440
74237W        W47305   5.675  11.351  13.402
74238W        W47306  36.396  26.712   9.894
74239W        W47307  30.661  13.425  12.142
74240W        W47308   5.933   0.204  12.960
74241W        W47309  12.626  13.187   0.613
74242W        W47310  12.351  36.529  10.665
74243W        W47311   6.206  13.751   3.430
74244W        W47312  43.489  35.315   4.660
74245W        W47313  34.539   8.180   2.109
74246W        W47314  31.124   3.663  14.896
74247W        W47315  34.165  27.126  10.504
74248W        W47316  16.220  11.737   3.233
74249W        W47317   7.069   6.317  11.927
74250W        W47318  12.610  32.929   1.887
74251W        W47319   9.370  27.454   3.366
74252W        W47320   6.788   1.367  10.997
74253W        W47321   3.315   8.334   2.705
74254W        W47322  19.182  38.937   0.307
74255W        W47323   8.213  37.940   2.887
74256W        W47324   7.185  19.221  13.542
74257W        W47325  29.523  43.059  14.504
74258W        W47326  26.898  31.177  10.553
74259W        W47327  35.933  36.482  13.240
74260W        W47328  24.896  20.152  11.691
74261W        W47329  20.587   5.348   3.307
74262W        W47330  29.184   8.626  13.930
74263W        W47331  37.492   1.208   0.431
74264W        W47332  16.476   2.069   0.990
74265W        W47333   6.363  24.078  11.591
74266W        W47334  24.091   8.646   1.256
74267W        W47335  21.590  31.436  12.082
74268W        W47336  24.939  13.827  12.357
74269W        W47337  13.705  32.446   0.249
74270W        W47338  30.551   6.897  13.384
74271W        W47339  13.810   2.562  10.863
74272W        W47340   6.471  24.558   3.560
74273W        W47341  10.237   6.157  14.415
74274W        W47342   3.952  40.080  12.576
74275W        W47343   0.912  24.405   0.212
74276W        W47344  38.010  13.564   3.256
74277W        W47345  33.629  35.516  12.668
74278W        W47346   6.293  36.223  11.143
74279W        W47347  25.046   3.959  12.633
74280W        W47348   6.398  17.323  13.927
74281W        W47349  35.131  23.025   1.352
74282W        W47350   0.074  31.914   3.693
74283W        W47351   7.951  41.972  10.691
74284W        W47352  13.640  26.970  10.752
74285W        W47353  28.043  12.677  12.474
74286W        W47354   3.116  36.026  11.103
74287W        W47355  13.495  18.707  13.957
74288W        W47356  22.000  36.047  14.940
74289W        W47357  18.988  40.519   2.779
74290W        W47358  15.794  26.005  14.862
74291W        W47359   7.837   3.841  14.600
74292W        W47360  28.998  15.993  12.115
74293W        W47361   9.860  15.360  12.955
74294W        W47362  10.723  12.616   0.644
74295W        W47363  34.085  41.737   2.682
74296W        W47364  32.996   9.071  13.864
74297W        W47365  11.838  13.771   2.120
74298W        W47366   0.242  37.522  12.307
74299W        W47367  36.943   2.243  14.475
74300W        W47368  37.934   4.712   2.779
74301W        W47369  25.141  12.457   1.180
74302W        W47370  24.877  26.553   4.139
74303W        W47371  16.553   0.836  13.105
74304W        W47372  20.633  44.727  14.146
74305W        W47373  35.087  27.682   2.419
74306W        W47374  34.663   3.442   2.840
74307W        W47375  38.482  35.412  10.984
74308W        W47376  32.715  27.799  14.371
74309W        W47377   2.564  28.411  12.775
74310W        W47378   1.297  33.698   2.885
74311W        W47379  40.978   1.992   2.882
74312W        W47380  41.386  21.015  14.735
74313W        W47381   2.418  26.886   3.667
74314W        W47382  26.436  14.047   2.804
74315W        W47383  32.051  37.394  12.793
74316W        W47384  16.397  35.355  10.727
74317W        W47385  18.949  33.344   2.856
74318W        W47386  14.214  13.019  11.952
74319W        W47387  26.933  40.367  12.592
74320W        W47388  35.075  29.928   1.198
74321W        W47389  19.352  39.991   4.283
74322W        W47390   2.002  23.584   4.592
74323W        W47391   6.283  37.075  14.785
74324W        W47392  37.515  44.269  14.476
74325W        W47393  26.220   5.767  13.906
74326W        W47394  24.466  39.019   0.834
74327W        W47395  22.628  10.723  12.502
74328W        W47396  42.032  30.079  13.842
74329W        W47397  34.087  26.080   1.228
74330W        W47398  35.128   4.391   3.032
74331W        W47399  28.633  41.904   4.351
74332W        W47400  33.255   4.997  11.750
74333W        W47401  39.440  36.102  10.911
74334W        W47402  16.966  31.593  13.762
74335W        W47403  40.898  19.675  12.081
74336W        W47404  25.128  34.048   2.849
74337W        W47405  34.112   5.863  10.558
74338W        W47406  29.885   3.402   1.247
74339W        W47407  40.850  30.501  12.151
74340W        W47408   1.578  39.959  11.644
74341W        W47409  28.742  14.734   3.918
74342W        W47410  17.326   8.670   2.168
74343W        W47411  17.450  42.539   0.686
74344W        W47412  33.057  41.396  12.881
74345W        W47413  18.622  38.023   3.626
74346W        W47414  42.540  19.737  12.711
74347W        W47415  37.525  38.540  13.520
74348W        W47416  25.972  37.365   4.391
74349W        W47417  12.355   1.157  13.450
74350W        W47418  14.730  37.356   2.222
74351W        W47419  34.142  40.584   3.203
74352W        W47420  42.619  40.932  12.940
74353W        W47421  43.710  12.144   1.918
74354W        W47422  28.411  38.566  11.152
74355W        W47423   3.362  23.955  13.100
74356W        W47424  44.166   2.364   1.279
74357W        W47425   2.905  14.038  12.471
74358W        W47426  12.797  37.542  11.164
74359W        W47427  30.230  40.951  10.928
74360W        W47428  37.605  24.650  14.984
74361W        W47429  42.489  33.000   2.743
74362W        W47430  43.966  23.565  13.387
74363W        W47431  34.084  12.771   3.593
74364W        W47432  36.601  34.992  10.870
74365W        W47433  14.606  25.992   3.696
74366W        W47434   5.182  10.673  13.016
74367W        W47435  12.775  19.628   4.570
74368W        W47436   2.792   5.396  11.515
74369W        W47437  24.753  38.055   0.798
74370W        W47438  22.434  31.453  11.147
74371W        W47439  22.558  44.485  13.209
74372W        W47440  23.755  34.328   0.833
74373W        W47441  35.401  36.542   2.261
74374W        W47442  39.890  12.894  12.944
74375W        W47443   7.414  23.781   4.887
74376W        W47444  18.746  19.646  12.881
74377W        W47445  39.596  44.923  10.283
74378W        W47446   4.395  24.941   3.777
74379W        W47447   3.469  34.486  12.015
74380W        W47448   9.509  15.751  13.927
74381W        W47449  13.203  30.228  12.177
74382W        W47450   0.936  22.304   1.366
74383W        W47451  35.500  43.838  14.077
74384W        W47452  35.471  10.852  12.620
74385W        W47453  15.168  40.064   3.701
74386W        W47454  14.271  21.076  12.186
74387W        W47455   9.223  41.972  14.885
74388W        W47456  29.632   2.185   1.671
74389W        W47457  39.781  28.870   0.671
74390W        W47458   4.098  14.384  12.005
74391W        W47459  14.195  17.131   2.341
74392W        W47460  13.586   4.897   4.796
74393W        W47461  31.844   0.990   3.652
74394W        W47462  41.845  23.103  12.423
74395W        W47463  27.659  42.971  14.801
74396W        W47464  30.886  18.639  10.735
74397W        W47465  16.161  15.336  11.279
74398W        W47466  13.593   0.990  11.593
74399W        W47467   2.441  40.177  13.819
74400W        W47468  26.719  23.077   4.008
74401W        W47469  14.253  22.563  14.553
74402W        W47470  10.569  44.353   1.000
74403W        W47471  28.944  17.798  12.977
74404W        W47472  34.378   3.765   4.110
74405W        W47473  32.008  28.386   1.343
74406W        W47474  22.597  38.110  12.959
74407W        W47475  25.052  15.536  12.015
74408W        W47476  44.892  41.760  12.098
74409W        W47477  22.248  23.492   2.965
74410W        W47478  36.806  34.285  14.514
74411W        W47479   1.591  34.130   2.784
74412W        W47480  33.901  17.246  14.879
74413W        W47481   8.750   6.700   2.662
74414W        W47482  26.649  19.472  12.585
74415W        W47483  13.515  27.388  11.509
74416W        W47484   5.386  32.253   1.696
74417W        W47485  44.260  42.134  12.153
74418W        W47486  25.321   3.280  10.590
74419W        W47487   3.344   1.265  14.971
74420W        W47488  32.096  13.065   2.610
74421W        W47489  23.144   2.868   2.142
74422W        W47490  44.070  33.480  13.872
74423W        W47491  41.562  30.674  12.198
74424W        W47492   2.442  43.464   4.008
74425W        W47493  33.107  38.072   1.842
74426W        W47494  14.706  35.114  10.543
74427W        W47495   3.293  25.064   0.074
74428W        W47496  36.076  11.198  10.646
74429W        W47497  28.440  43.848   1.789
74430W        W47498  27.349  43.329  14.599
74431W        W47499   8.939  17.719   2.839
74432W        W47500  30.490  12.236  10.859
74433W        W47501  30.397  15.788  12.061
74434W        W47502  28.726  24.720  10.679
74435W        W47503  31.247  34.603  10.634
74436W        W47504  18.262  37.057   0.354
74437W        W47505  32.356  39.239  10.442
74438W        W47506  21.230  33.008  10.827
74439W        W47507  11.448  16.245  14.939
74440W        W47508   4.711  35.976   1.219
74441W        W47509  22.319  44.530  11.655
74442W        W47510  22.003  37.259  10.247
74443W        W47511  41.319  16.141  12.018
74444W        W47512   6.074  32.534   3.294
74445W        W47513   9.634  21.699  10.435
74446W        W47514  42.258  18.258   1.362
74447W        W47515  17.125  18.082  12.488
74448W        W47516  28.852  31.540  13.807
74449W        W47517  25.136   6.747   4.940
74450W        W47518  33.413   0.407  12.378
74451W        W47519  27.922  38.063   2.257
74452W        W47520  35.170  39.051   5.055
74453W        W47521   3.729  41.530   3.183
74454W        W47522  43.439  40.628  12.896
74455W        W47523  23.445  24.719   2.889
74456W        W47524   1.900  31.086   0.715
74457W        W47525   6.243  39.030   2.571
74458W        W47526   7.369  15.056  10.911
74459W        W47527  24.646  27.479  10.727
74460W        W47528  26.133  33.898   3.820
74461W        W47529  41.988  15.270   4.500
74462W        W47530  22.269   7.913   2.219
74463W        W47531   1.782  10.285   4.800
74464W        W47532  41.982  31.860   2.306
74465W        W47533   6.182  29.261  10.324
74466W        W47534  36.339   5.549   1.686
74467W        W47535  31.857  35.545  11.639
74468W        W47536   0.846   0.497  11.155
74469W        W47537   6.425   1.358   4.406
74470W        W47538  34.111   9.307  12.384
74471W        W47539  16.099  15.156  14.491
74472W        W47540   0.970  15.680   3.806
74473W        W47541  40.728  30.867  14.520
74474W        W47542  30.360   3.384   4.964
74475W        W47543  20.208  16.125  11.721
74476W        W47544  42.860   7.898   3.686
74477W        W47545  22.135  39.942   3.732
74478W        W47546  38.945  43.914  11.942
74479W        W47547  14.604  13.364   4.646
74480W        W47548  11.341   0.861   3.270
74481W        W47549  43.528  22.619  12.531
74482W        W47550   1.753  13.763   1.550
74483W        W47551  23.631  11.678   1.270
74484W        W47552  36.023  31.574  10.693
74485W        W47553  40.676   8.681  10.276
74486W        W47554  28.192  27.900   4.049
74487W        W47555  28.135  15.484   0.531
74488W        W47556   4.121  39.593   0.796
74489W        W47557  15.113  37.838   2.937
74490W        W47558  31.750  29.875  12.264
74491W        W47559  41.983  22.266  14.979
74492W        W47560  43.026  30.029  11.647
74493W        W47561  35.492  19.022  12.437
74494W        W47562  36.495  40.020  12.394
74495W        W47563  39.566  12.944   3.666
74496W        W47564   9.899  21.670  11.157
74497W        W47565   6.437   5.609   2.074
74498W        W47566  39.892  37.500   0.887
74499W        W47567   1.491  32.133  13.980
74500W        W47568  22.668  34.070  13.348
74501W        W47569  41.358  12.338  13.392
74502W        W47570  41.916  19.967   4.852
74503W        W47571  12.925  11.150  11.053
74504W        W47572  29.558   7.289   3.274
74505W        W47573   4.654  28.088   4.537
74506W        W47574   0.593  18.658  12.454
74507W        W47575  25.354  33.869   3.299
74508W        W47576  33.445  22.828   2.395
74509W        W47577  15.705  22.192   2.082
74510W        W47578  16.263   0.104   0.223
74511W        W47579   8.811  21.501  11.125
74512W        W47580  18.937  42.835  14.085
74513W        W47581  17.607  30.072   0.374
74514W        W47582  16.347  23.720  12.436
74515W        W47583  20.162  30.928   3.683
74516W        W47584  21.272  10.288   4.131
74517W        W47585  18.698  28.271   2.494
74518W        W47586   0.703  35.776   0.809
74519W        W47587  19.509  38.096   1.814
74520W        W47588  36.347  27.487  11.243
74521W        W47589  24.731  10.892  12.508
74522W        W47590  36.612  15.614   4.349
74523W        W47591  43.872   5.630   4.219
74524W        W47592  33.024  34.384  14.502
74525W        W47593  13.559  14.654  11.113
74526W        W47594   1.196  41.922   4.424
74527W        W47595  44.275   5.940   4.067
74528W        W47596   7.412  27.484   2.567
74529W        W47597  34.819  26.728   1.396
74530W        W47598  14.708  31.859   0.271
74531W        W47599  19.124  40.694  12.485
74532W        W47600  35.291  13.069   4.401
74533W        W47601  39.572  18.594  12.363
74534W        W47602  20.628  12.591  14.027
74535W        W47603  12.504  38.455  12.416
74536W        W47604  27.778  38.146  13.791
74537W        W47605   0.488  30.449  14.202
74538W        W47606   3.734   9.803   2.099
74539W        W47607  35.546  14.032  12.503
74540W        W47608  32.310  34.385   4.557
74541W        W47609   5.790  18.520  13.095
74542W        W47610  38.029  19.760   2.622
74543W        W47611   4.897  15.890   4.092
74544W        W47612  14.170  11.903  13.114
74545W        W47613  34.832  32.793   0.190
74546W        W47614  38.886  36.433  10.705
74547W        W47615  10.625  39.462  11.184
74548W        W47616   6.989   8.707  12.339
74549W        W47617  24.635  28.970   2.531
74550W        W47618  13.291  13.567   2.388
74551W        W47619  39.068  16.322  14.726
74552W        W47620   1.466  35.374   3.902
74553W        W47621  36.334  19.250   4.909
74554W        W47622  13.947  33.179  11.663
74555W        W47623   9.110  30.423   2.750
74556W        W47624  36.469  15.967  12.552
74557W        W47625   2.801   1.722  14.509
74558W        W47626  26.187  35.108  13.367
74559W        W47627  13.037  44.233  11.077
74560W        W47628   8.657   9.321   4.065
74561W        W47629  34.925  24.011  12.467
74562W        W47630  18.840  12.077  14.754
74563W        W47631  31.245  24.933  11.918
74564W        W47632  22.489  32.741   2.739
74565W        W47633  23.003  24.018   0.987
74566W        W47634  18.843  14.260  11.220
74567W        W47635  15.613   2.839  12.332
74568W        W47636   5.312  16.507   3.291
74569W        W47637  23.937  41.798   2.543
74570W        W47638  17.122  25.760   0.505
74571W        W47639  11.935  33.226   5.028
74572W        W47640  22.629  37.900  12.491
74573W        W47641  27.562  40.432  12.512
74574W        W47642  15.586  13.186   4.656
74575W        W47643  21.723  36.363   2.629
74576W        W47644   7.448  23.259  11.647
74577W        W47645  39.033  43.812   4.655
74578W        W47646  30.151   0.910  11.920
74579W        W47647  16.109  44.760  11.506
74580W        W47648   5.911  33.501  11.149
74581W        W47649  37.492   3.007  13.396
74582W        W47650  18.231  23.604   2.895
74583W        W47651  27.553  42.620  12.921
74584W        W47652   5.995  18.494   0.958
74585W        W47653   7.834  17.207   5.032
74586W        W47654  13.559  26.803  12.475
74587W        W47655   3.138   7.205   2.886
74588W        W47656   5.890  24.045   2.933
74589W        W47657  39.462  14.656   2.265
74590W        W47658   8.637   0.846   0.477
74591W        W47659  11.033  40.293  13.966
74592W        W47660  29.944   8.913   2.744
74593W        W47661   9.862  12.635   1.217
74594W        W47662  32.794  24.002  13.128
74595W        W47663  27.985  29.697  11.613
74596W        W47664   8.438  24.926  14.664
74597W        W47665   7.252   8.830  13.363
74598W        W47666  18.602   5.387   4.509
74599W        W47667  20.321   8.945  10.391
74600W        W47668  32.962  29.304   1.182
74601W        W47669  29.625  43.993   4.165
74602W        W47670   1.064   0.988   1.971
74603W        W47671  10.182  42.761  10.640
74604W        W47672   5.446   7.024   0.410
74605W        W47673  15.417  14.933  13.357
74606W        W47674   7.801  43.985  11.125
74607W        W47675  10.412   2.820   2.201
74608W        W47676  26.763  20.979   1.893
74609W        W47677  15.117  41.790  10.438
74610W        W47678  10.209  13.898  14.126
74611W        W47679  33.077  27.591  12.581
74612W        W47680  40.320  43.289   1.135
74613W        W47681  35.068   0.539  11.070
74614W        W47682   9.244  13.172  10.322
74615W        W47683   6.206  25.541  14.955
74616W        W47684  43.338  31.051   3.280
74617W        W47685  10.761  28.799   4.330
74618W        W47686  14.808  27.731   3.435
74619W        W47687  23.189  35.242   2.317
74620W        W47688  39.832  20.281  13.041
74621W        W47689  21.106  18.483   0.886
74622W        W47690   4.939   5.555  12.037
74623W        W47691  28.350  42.598  13.956
74624W        W47692  28.133  16.148   4.722
74625W        W47693  35.178  12.440   4.148
74626W        W47694  24.155  12.924  11.200
74627W        W47695  10.583  41.741   1.750
74628W        W47696  23.036  14.705   1.908
74629W        W47697   8.571  12.192  11.455
74630W        W47698   3.493  26.293  11.212
74631W        W47699  24.927  30.052  11.136
74632W        W47700  43.343  44.774   4.677
74633W        W47701   5.694  41.458  12.436
74634W        W47702  17.586  36.994   2.229
74635W        W47703  21.713   0.015  12.246
74636W        W47704  37.864  22.661  12.237
74637W        W47705   8.225   3.677  10.976
74638W        W47706  41.998   7.698   2.634
74639W        W47707  19.093  21.651   3.775
74640W        W47708   3.525  25.942  14.865
74641W        W47709  42.707   3.852   2.437
74642W        W47710   3.443  28.542  12.903
74643W        W47711  19.274  42.620  12.917
74644W        W47712  26.180  39.037   1.412
74645W        W47713   4.868  16.584  13.780
74646W        W47714  30.016  27.620   0.182
74647W        W47715  19.521  36.647   4.138
74648W        W47716  20.713  16.858  11.693
74649W        W47717  17.471  40.151   0.851
74650W        W47718  14.290  37.419   4.078
74651W        W47719   6.193   3.409   2.295
74652W        W47720   5.634  36.589  13.160
74653W        W47721  24.022  29.439   1.538
74654W        W47722  22.711   2.952  12.150
74655W        W47723  25.806   9.753  12.607
74656W        W47724  20.086  35.064   0.963
74657W        W47725   4.162  39.344  12.552
74658W        W47726  19.467  39.923  11.033
74659W        W47727   8.156   4.674   2.382
74660W        W47728  30.142  12.514   0.284
74661W        W47729   5.782   3.730   0.204
74662W        W47730  19.701  14.814  14.207
74663W        W47731  13.305  42.748  12.030
74664W        W47732  34.418   3.300  13.862
74665W        W47733  35.967   6.692  10.643
74666W        W47734  24.182  39.939  10.464
74667W        W47735  41.070  18.841  12.595
74668W        W47736  29.053   6.489   0.365
74669W        W47737  37.145  18.348   3.228
74670W        W47738  41.279  42.015   2.384
74671W        W47739  42.191  29.098   1.233
74672W        W47740   4.262   0.041  10.700
74673W        W47741  28.135   5.790   3.354
74674W        W47742  35.925   1.182  14.396
74675W        W47743   8.383  24.400   2.227
74676W        W47744  11.171   4.490   1.872
74677W        W47745  19.104   2.746   2.164
74678W        W47746  39.016  28.786   3.393
74679W        W47747  35.494  20.611  10.620
74680W        W47748  44.038  19.492  12.003
74681W        W47749  32.481  13.677   4.314
74682W        W47750  19.419  32.101  10.168
74683W        W47751  15.096  22.728  11.725
74684W        W47752   9.434  24.056  12.095
74685W        W47753  31.603  38.973   3.659
74686W        W47754   4.251  42.311  14.794
74687W        W47755  27.925  34.880   9.997
74688W        W47756   1.163  30.510  14.010
74689W        W47757   4.442  19.766   0.357
74690W        W47758  24.672  34.393  10.726
74691W        W47759  31.637  35.489  14.781
74692W        W47760  36.522  38.610   4.850
74693W        W47761  24.891  20.600  13.378
74694W        W47762  20.881   5.844  12.443
74695W        W47763  21.200   4.721  10.623
74696W        W47764   5.810  37.262   1.682
74697W        W47765   9.439  10.741   1.423
74698W        W47766  20.516   9.672   0.802
74699W        W47767  18.615  41.175   4.143
74700W        W47768  34.931  40.455   2.616
74701W        W47769  32.309  31.440   3.748
74702W        W47770  32.087  28.573  10.654
74703W        W47771   0.925   5.871   3.435
74704W        W47772  31.458  32.085  14.887
74705W        W47773   5.471   3.925  14.801
74706W        W47774  40.402  14.503   4.612
74707W        W47775  13.277  31.095  14.891
74708W        W47776  32.104  11.652   1.952
74709W        W47777  14.788  13.256   3.122
74710W        W47778  14.793  40.525   0.222
74711W        W47779  27.508   0.588  12.810
74712W        W47780  35.133  11.625   1.592
74713W        W47781  16.692   0.439  12.576
74714W        W47782  21.114  25.173   3.566
74715W        W47783  26.717  32.433  12.406
74716W        W47784  43.876  23.492   1.251
74717W        W47785   2.394  41.520   9.896
74718W        W47786  27.639  29.128   3.900
74719W        W47787  35.690   0.272  10.382
74720W        W47788   1.807   6.975  13.015
74721W        W47789  22.583  37.373  14.777
74722W        W47790  31.895  43.665  14.009
74723W        W47791  12.210  30.101   2.438
74724W        W47792  39.836   5.322   1.705
74725W        W47793  37.024  18.178  11.465
74726W        W47794  22.489  27.220   2.756
74727W        W47795  41.741  29.832   1.734
74728W        W47796  22.197  13.246   1.731
74729W        W47797  36.429  27.583   0.705
74730W        W47798   8.218   9.622  11.103
74731W        W47799  34.033  34.926  12.405
74732W        W47800  13.455  22.025  12.429
74733W        W47801   7.503  13.182  12.859
74734W        W47802  33.437   9.141  12.072
74735W        W47803  30.884  20.419   1.910
74736W        W47804  38.309  39.758   1.741
74737W        W47805  40.023  10.564   1.808
74738W        W47806  16.813  30.502   4.909
74739W        W47807  21.102  39.370   0.881
74740W        W47808   1.971  37.562  10.786
74741W        W47809   9.246   6.936   2.436
74742W        W47810   5.206  27.442  13.949
74743W        W47811  11.775  42.899  12.015
74744W        W47812   0.007  34.128  12.457
74745W        W47813  16.883  36.377   0.426
74746W        W47814  36.331  28.542   1.139
74747W        W47815  12.816  13.790  11.411
74748W        W47816  17.078  11.332   2.351
74749W        W47817  27.505   5.740   1.804
74750W        W47818  10.240  26.612  12.600
74751W        W47819  10.286  34.144  13.464
74752W        W47820  28.861  17.081  12.451
74753W        W47821  17.892  34.606   4.826
74754W        W47822  42.866  37.507  12.827
74755W        W47823  18.779  39.486  11.853
74756W        W47824  12.176   1.798   1.481
74757W        W47825  22.598  10.390  14.420
74758W        W47826  36.345  41.519  12.992
74759W        W47827   8.684  20.575  11.157
74760W        W47828  39.244  22.094  13.476
74761W        W47829   3.239  24.223  10.725
74762W        W47830  19.994  10.792  13.524
74763W        W47831  30.125  25.123  11.438
74764W        W47832  41.089  26.226   1.906
74765W        W47833   3.228   7.866  12.513
74766W        W47834  21.242   1.729   0.285
74767W        W47835  21.278   8.878   2.217
74768W        W47836  11.098  40.976  14.339
74769W        W47837  11.303  38.557   3.820
74770W        W47838  39.866   7.908  12.389
74771W        W47839  15.130  13.106  11.082
74772W        W47840   0.235  32.418  11.194
74773W        W47841  26.187  39.456   0.704
74774W        W47842  28.638   5.660   1.816
74775W        W47843  41.862  27.125  13.373
74776W        W47844  17.191  29.700  12.154
74777W        W47845  17.783   9.879   0.470
74778W        W47846  13.192  39.539   2.696
74779W        W47847  21.189  16.786   1.584
74780W        W47848  34.432  29.047  12.483
74781W        W47849  34.926  37.550  14.720
74782W        W47850  39.966  25.992   0.437
74783W        W47851   2.402   9.881   3.910
74784W        W47852  10.857  28.113  11.224
74785W        W47853   7.424   9.394   1.406
74786W        W47854  20.982  34.383   3.763
74787W        W47855  29.431   4.827   3.655
74788W        W47856  30.876  25.214   1.258
74789W        W47857   1.341   9.963   0.891
74790W        W47858  39.981  11.776  11.122
74791W        W47859  28.027  14.559   1.726
74792W        W47860   6.841  34.058   3.816
74793W        W47861  41.454  21.480  12.009
74794W        W47862  29.799  41.959  11.295
74795W        W47863  25.041  22.583   1.377
74796W        W47864  13.782  35.466   2.708
74797W        W47865  24.319   4.847   4.939
74798W        W47866  13.317  39.341  14.479
74799W        W47867  32.280  29.244   1.178
74800W        W47868  11.791   8.172  12.033
74801W        W47869  43.463  11.073   0.209
74802W        W47870  23.544  27.515  14.330
74803W        W47871   2.514  16.720  14.769
74804W        W47872  30.611   2.000  11.069
74805W        W47873  11.733  24.112   3.754
74806W        W47874  32.975  14.751  11.689
74807W        W47875  36.499  28.750   4.663
74808W        W47876   9.330  33.227  12.580
74809W        W47877   7.936   6.382   5.174
74810W        W47878   2.493  12.381  11.340
74811W        W47879   8.826  41.796   2.515
74812W        W47880  35.083  42.384  13.027
74813W        W47881   0.071   7.263  14.805
74814W        W47882  30.037  23.759  13.578
74815W        W47883  39.346  33.648  12.428
74816W        W47884  22.052  20.896  12.102
74817W        W47885   9.154  26.825  12.080
74818W        W47886  22.927  23.976  13.476
74819W        W47887  27.116  32.083   4.794
74820W        W47888  10.283  36.040  12.354
74821W        W47889  41.423  33.960  12.692
74822W        W47890   5.861  18.111   4.604
74823W        W47891  34.001  19.231  14.442
74824W        W47892  20.818   6.058   2.885
74825W        W47893  37.391   7.547  13.724
74826W        W47894  27.841   9.432  14.445
74827W        W47895  27.121  31.556   2.219
74828W        W47896  43.120   0.531   0.215
74829W        W47897  29.849  44.429  14.793
74830W        W47898  29.967  11.615  14.993
74831W        W47899   5.459  15.396  12.168
74832W        W47900  26.962   5.395   0.351
74833W        W47901   3.491  17.568  12.037
74834W        W47902  14.130  10.008   4.505
74835W        W47903  27.877   7.616  11.575
74836W        W47904  22.412  34.518  13.299
74837W        W47905  22.097  21.635   4.562
74838W        W47906  21.733   1.939   2.719
74839W        W47907  36.956   0.550   3.251
74840W        W47908  29.235   9.749   4.880
74841W        W47909  17.238  20.675   2.360
74842W        W47910  24.460  37.560   2.898
74843W        W47911   4.721  12.419   4.744
74844W        W47912  20.869  28.081   4.252
74845W        W47913   8.129  30.818  12.545
74846W        W47914  24.247  16.397   9.693
74847W        W47915  35.308  38.100  12.585
74848W        W47916  23.144  36.084   4.296
74849W        W47917  19.002  14.079   2.242
74850W        W47918  13.681  17.343   1.911
74851W        W47919  21.019  44.063   2.435
74852W        W47920   7.194  30.976   4.700
74853W        W47921  28.933   1.795  14.360
74854W        W47922  27.765  38.525   4.130
74855W        W47923  31.843  21.750  12.970
74856W        W47924  15.406  27.704   1.059
74857W        W47925  18.794  12.853  10.424
74858W        W47926  34.560  26.227  13.473
74859W        W47927  32.850  32.252  10.737
74860W        W47928  32.441  44.323   3.795
74861W        W47929   2.222  13.396   0.807
74862W        W47930  30.267   5.286   2.640
74863W        W47931  38.410   5.158   3.875
74864W        W47932   4.252   7.311  12.001
74865W        W47933   9.527  19.535  10.865
74866W        W47934   1.447  12.984  13.998
74867W        W47935  15.302  29.225  13.797
74868W        W47936   9.286  36.209  10.447
74869W        W47937   6.287  36.372  13.031
74870W        W47938  21.986  35.808   3.197
74871W        W47939  16.020   4.883  14.334
74872W        W47940  14.664  13.851   0.218
74873W        W47941  19.270   2.239  12.834
74874W        W47942   0.940  36.566   0.345
74875W        W47943  13.700  44.844   4.133
74876W        W47944  10.731  15.237  14.391
74877W        W47945  25.089  13.245  12.927
74878W        W47946  13.126  27.649  11.782
74879W        W47947  33.804   5.754   1.981
74880W        W47948  24.867   0.532  11.184
74881W        W47949  29.846   6.334   3.714
74882W        W47950  15.635   9.422   1.868
74883W        W47951   1.368  43.919   4.688
74884W        W47952  24.622   2.920  14.415
74885W        W47953  14.287  32.184   4.784
74886W        W47954  16.339   2.920  11.098
74887W        W47955  20.223  17.022   3.603
74888W        W47956  28.043  38.292   0.726
74889W        W47957  18.678  40.407  11.773
74890W        W47958  36.446  25.552   4.311
74891W        W47959   3.197   2.844  10.995
74892W        W47960  40.214  14.933   1.368
74893W        W47961   8.763   5.653   3.610
74894W        W47962  19.065  27.022   1.418
74895W        W47963  33.899  42.459  14.875
74896W        W47964  43.555  26.972  10.706
74897W        W47965  40.824  36.803   0.244
74898W        W47966   0.775  27.686   3.688
74899W        W47967  27.800  29.259   2.802
74900W        W47968  39.580   9.255  14.500
74901W        W47969  30.375   3.364   1.367
74902W        W47970  20.044  16.839  14.441
74903W        W47971  22.099  32.489   4.902
74904W        W47972   4.266   4.994  10.630
74905W        W47973   8.444  21.555  11.986
74906W        W47974  36.770  18.661   2.775
74907W        W47975   7.444  21.574   4.502
74908W        W47976   4.242   5.619   2.454
74909W        W47977  35.450  28.441   4.067
74910W        W47978  44.257  42.893  11.676
74911W        W47979  19.276   9.389  13.238
74912W        W47980  37.965  20.093  12.523
74913W        W47981  42.403  31.583   4.474
74914W        W47982  31.084   3.888   1.267
74915W        W47983  18.141  43.797  13.427
74916W        W47984  28.864   4.329  10.444
74917W        W47985  14.707  24.688  11.617
74918W        W47986  34.177  14.726  14.020
74919W        W47987  29.514   2.767  11.496
74920W        W47988  39.874  42.932  10.752
74921W        W47989  12.725  39.620  12.535
74922W        W47990  40.433   6.242  14.385
74923W        W47991  20.197   2.895  14.647
74924W        W47992  26.760  15.119   2.637
74925W        W47993   2.811  33.969   2.273
74926W        W47994  13.872  41.023   0.889
74927W        W47995   2.014  33.027   2.007
74928W        W47996  20.595  15.120  14.364
74929W        W47997  14.168  26.042  10.963
74930W        W47998  30.404   9.056   2.896
74931W        W47999   7.566  40.235   2.759
74932W        W48000   2.418  27.372  13.411
74933W        W48001  30.111  41.831   3.372
74934W        W48002  35.042  26.665  10.748
74935W        W48003  19.016  32.482  12.378
74936W        W48004  26.706  39.451  11.004
74937W        W48005  17.971  17.824   3.682
74938W        W48006  34.246   3.417  12.452
74939W        W48007  34.814  24.617  14.424
74940W        W48008  23.136  17.666   3.481
74941W        W48009  39.452  25.074   3.214
74942W        W48010   4.773  16.389   2.293
74943W        W48011   0.997  43.060  12.151
74944W        W48012  12.221   5.801   1.282
74945W        W48013  29.204  17.716   3.179
74946W        W48014  22.610   3.182  14.818
74947W        W48015  11.161  26.192   4.544
74948W        W48016  13.608   5.115   2.430
74949W        W48017  13.154  31.129   2.382
74950W        W48018  26.974  39.979   3.667
74951W        W48019  15.097  21.514  11.192
74952W        W48020  34.942  27.323  13.576
74953W        W48021  11.494  25.453  10.720
74954W        W48022   9.138  43.530   1.972
74955W        W48023  19.416  37.977  12.360
74956W        W48024   9.890  13.867  13.053
74957W        W48025  11.609  38.172  13.885
74958W        W48026  37.571   7.704  14.938
74959W        W48027   9.936  11.909   2.413
74960W        W48028  12.666  26.411   4.712
74961W        W48029  32.374   6.637  11.147
74962W        W48030  14.266  21.169   3.891
74963W        W48031  25.779  30.986   0.253
74964W        W48032  38.540  28.483   0.307
74965W        W48033  32.353   4.635   3.138
74966W        W48034  17.244  36.372  14.221
74967W        W48035  30.469  12.229  13.457
74968W        W48036  12.901  18.197   3.739
74969W        W48037  16.089  43.003   1.352
74970W        W48038  37.578   7.858  11.985
74971W        W48039  26.554   6.332   3.384
74972W        W48040  29.124  38.577  14.844
74973W        W48041   1.951  10.741  11.859
74974W        W48042  43.713  43.821   4.650
74975W        W48043  12.806   4.249   0.009
74976W        W48044   7.688  21.037   2.613
74977W        W48045  18.723  41.138   0.118
74978W        W48046  22.546  36.978   0.878
74979W        W48047   1.869  13.187  13.006
74980W        W48048  24.867  11.768  13.348
74981W        W48049  32.597   8.553  14.790
74982W        W48050  21.231  41.535   2.414
74983W        W48051   0.727   4.850   0.335
74984W        W48052  21.203   9.631   5.013
74985W        W48053   6.113   2.925  14.440
74986W        W48054  39.931  37.834   2.412
74987W        W48055  14.647  25.935   1.430
74988W        W48056   1.934   7.520   1.013
74989W        W48057  28.508   1.020   2.293
74990W        W48058   6.862  36.423   0.948
74991W        W48059  44.535  32.896  12.661
74992W        W48060  27.569  37.797   4.866
74993W        W48061   7.696  35.888   4.497
74994W        W48062  17.579   2.060  14.746
74995W        W48063  39.945  14.028   0.222
74996W        W48064  33.814  15.451   9.974
74997W        W48065  18.526  35.911  14.167
74998W        W48066  19.161  13.099   0.529
74999W        W48067   2.891   0.741  14.371
75000W        W48068  16.986  35.187  11.734
75001W        W48069  17.683   7.192   3.936
75002W        W48070  22.440  22.488   3.198
75003W        W48071   6.377  26.185   3.231
75004W        W48072  42.061  31.873  12.109
75005W        W48073  22.128   8.153  11.866
75006W        W48074  15.669  26.730   1.787
75007W        W48075  36.046  35.906   1.749
75008W        W48076   6.501  38.701   2.876
75009W        W48077   1.366  11.604   4.911
75010W        W48078  20.812  27.604   1.381
75011W        W48079   4.695  17.330   3.574
75012W        W48080  33.024  28.758   0.733
75013W        W48081  33.377  34.943  14.363
75014W        W48082  17.368  25.188  12.921
75015W        W48083  15.681  42.005  13.005
75016W        W48084  40.986   3.777   3.849
75017W        W48085  15.058   0.473   0.886
75018W        W48086  11.505  32.482  13.854
75019W        W48087  25.072  33.938   3.733
75020W        W48088  40.051  20.321  12.118
75021W        W48089  41.605  16.388   4.664
75022W        W48090  37.532  36.546  10.556
75023W        W48091   7.780   4.739   0.860
75024W        W48092   2.921  26.578  12.514
75025W        W48093  30.345  23.630  12.743
75026W        W48094  44.678  31.525  11.001
75027W        W48095  25.666  24.744   2.684
75028W        W48096   7.973  30.023   3.450
75029W        W48097  36.993   5.984   0.637
75030W        W48098  18.149  11.726   0.031
75031W        W48099   9.876  24.014  10.663
75032W        W48100   6.830  12.877   3.149
75033W        W48101   1.220  20.784   3.483
75034W        W48102  22.567   1.667   1.235
75035W        W48103  42.743   9.715   4.801
75036W        W48104  41.039  11.302   3.141
75037W        W48105  12.407  41.118  13.020
75038W        W48106  32.562  32.436   4.649
75039W        W48107  23.486   4.286   2.113
75040W        W48108  10.679  30.044   1.741
75041W        W48109  17.174  40.203  14.454
75042W        W48110   1.136   2.255  14.882
75043W        W48111  22.711   7.481  14.397
75044W        W48112  20.079  20.481  14.862
75045W        W48113   5.721  24.231   3.405
75046W        W48114  38.265  42.971   2.328
75047W        W48115  17.982   3.673  13.959
75048W        W48116   5.286  10.494   3.788
75049W        W48117   3.301  30.105   3.198
75050W        W48118   8.934  38.537   4.164
75051W        W48119   9.267  40.450  12.062
75052W        W48120  10.179  12.722  14.885
75053W        W48121  39.739  43.319   2.402
75054W        W48122  23.260  39.277   2.057
75055W        W48123  36.167  38.423  12.379
75056W        W48124  36.495   2.263   2.793
75057W        W48125  30.583   0.186   4.197
75058W        W48126  42.733  16.681   4.876
75059W        W48127  20.488  11.220  14.852
75060W        W48128  25.964   8.687   1.441
75061W        W48129   3.006  14.165  11.599
75062W        W48130  27.013  43.195  12.484
75063W        W48131  17.725  33.884   2.293
75064W        W48132  17.697  17.050  14.437
75065W        W48133  13.980  39.408   4.233
75066W        W48134  37.808   7.648  12.449
75067W        W48135   6.413   5.257  12.867
75068W        W48136  14.494  32.098  13.012
75069W        W48137   2.303  32.052  10.528
75070W        W48138   5.915   0.044   4.172
75071W        W48139  34.760   2.919  13.989
75072W        W48140  44.088   8.504   9.883
75073W        W48141  33.079  39.456   1.331
75074W        W48142   4.881  23.007  12.451
75075W        W48143  21.365   1.281  12.429
75076W        W48144  32.524   0.905  11.276
75077W        W48145  27.990   2.117  10.302
75078W        W48146  12.840   0.330   1.669
75079W        W48147  13.878   2.063   2.677
75080W        W48148   8.895  44.907   0.723
75081W        W48149   6.914  41.326  13.253
75082W        W48150  21.806  24.691   2.343
75083W        W48151  32.301  29.603  13.032
75084W        W48152  19.313  40.093  13.512
75085W        W48153  38.284  28.109  12.037
75086W        W48154  29.572  15.849   2.711
75087W        W48155   8.880  30.024   1.838
75088W        W48156  35.543  26.138  10.763
75089W        W48157  42.094  37.612  11.197
75090W        W48158   0.833  27.696   0.929
75091W        W48159  34.334  29.908   2.241
75092W        W48160  11.621  12.135  13.879
75093W        W48161  19.013  11.183  14.732
75094W        W48162   6.387  26.252  12.077
75095W        W48163  12.750  17.627   3.700
75096W        W48164  29.947   2.332  12.051
75097W        W48165   8.304  26.903   5.001
75098W        W48166  30.039  22.665   3.665
75099W        W48167  18.700  41.293  14.090
75100W        W48168  24.622  15.131   3.428
75101W        W48169  22.694  18.747  14.812
75102W        W48170   5.442  22.578   1.800
75103W        W48171   2.631  16.586  10.794
75104W        W48172   1.529  25.651   1.299
75105W        W48173  43.876  15.657   0.517
75106W        W48174   8.266  15.771  12.124
75107W        W48175  32.136  11.479  10.371
75108W        W48176  15.770   3.328  14.977
75109W        W48177  15.618   4.128   2.702
75110W        W48178  32.779  30.875   2.088
75111W        W48179  38.919   8.855  14.897
75112W        W48180  25.646   9.810  13.890
75113W        W48181  21.808  16.708  12.286
75114W        W48182  13.939   2.123   4.296
75115W        W48183  22.053  33.606   0.829
75116W        W48184  17.690  30.989  12.861
75117W        W48185  33.076  32.096   2.778
75118W        W48186  30.101  25.667   1.778
75119W        W48187  20.299   2.282   3.895
75120W        W48188  24.186   0.771  13.412
75121W        W48189  13.068  19.000   9.750
75122W        W48190  27.147  26.684   2.673
75123W        W48191  21.232  40.480  11.106
75124W        W48192  44.042  36.748   4.829
75125W        W48193  29.111   0.025  14.506
75126W        W48194  39.092  17.790   2.518
75127W        W48195  12.318  33.340  12.458
75128W        W48196  24.760  17.871   4.071
75129W        W48197  22.256  21.105   3.274
75130W        W48198   1.291  29.311   4.092
75131W        W48199  36.349  27.117   0.911
75132W        W48200  44.754  38.351  12.627
75133W        W48201  15.951  15.623   3.075
75134W        W48202  30.952  19.593   2.859
75135W        W48203  24.664  41.240   1.275
75136W        W48204  22.965   4.794  11.618
75137W        W48205  12.081  22.098  13.382
75138W        W48206   4.154   9.094   2.736
75139W        W48207  35.434  44.407  12.412
75140W        W48208   8.097  19.822   4.584
75141W        W48209  19.252  27.223   1.853
75142W        W48210   8.757   7.250  11.155
75143W        W48211  13.286  43.290  14.456
75144W        W48212  20.405  35.070  10.725
75145W        W48213   4.849  17.792  11.432
75146W        W48214  33.204  31.843  10.750
75147W        W48215  23.620  43.995  14.042
75148W        W48216   9.648   7.345  11.804
75149W        W48217   6.123  38.371   1.614
75150W        W48218  12.600  34.458  12.087
75151W        W48219  24.665  27.493   3.158
75152W        W48220  39.303  40.330  10.969
75153W        W48221  41.044   7.858   1.751
75154W        W48222   8.830  29.709  12.122
75155W        W48223  32.841  27.873   0.796
75156W        W48224  35.735  22.769  10.701
75157W        W48225  32.961   4.538  11.522
75158W        W48226  20.971   2.133   1.364
75159W        W48227  26.500  40.979   4.475
75160W        W48228  41.941  24.036  10.712
75161W        W48229  20.703  41.728  12.472
75162W        W48230   1.186  37.468   3.128
75163W        W48231  28.577  18.953   5.003
75164W        W48232  42.247  41.767   3.209
75165W        W48233   5.106  10.056   2.442
75166W        W48234   1.274  35.372   4.991
75167W        W48235  29.315  28.515  13.881
75168W        W48236  29.130   2.177  12.473
75169W        W48237  36.327   0.304   4.586
75170W        W48238  10.881  38.936   2.298
75171W        W48239   8.109  33.238  12.174
75172W        W48240  24.681  43.692  13.426
75173W        W48241  25.071   5.377  14.754
75174W        W48242  22.747  25.245  12.818
75175W        W48243  27.691  25.515   1.902
75176W        W48244   3.923  27.120   4.560
75177W        W48245   6.627  19.533   4.138
75178W        W48246   7.187  19.682   4.302
75179W        W48247  35.611   4.873  13.424
75180W        W48248   2.208  11.396   3.664
75181W        W48249  10.553  20.142  11.397
75182W        W48250  28.728  25.125   2.941
75183W        W48251  33.593  23.027   0.508
75184W        W48252  23.494  20.287  13.228
75185W        W48253  16.185  22.534  11.761
75186W        W48254   0.787  35.116  13.066
75187W        W48255  16.402   4.336   1.358
75188W        W48256  41.628  34.062   4.838
75189W        W48257   9.749  23.994   3.879
75190W        W48258   5.360  22.347   1.331
75191W        W48259  17.217   0.398   0.353
75192W        W48260   7.883  38.485   2.434
75193W        W48261  18.598  23.823  10.628
75194W        W48262  16.749   6.493   1.417
75195W        W48263  32.156  38.720   2.827
75196W        W48264  31.525  39.042  13.253
75197W        W48265  10.740   9.314  13.871
75198W        W48266   4.225  12.740   4.894
75199W        W48267  14.669  27.230   0.761
75200W        W48268  44.747  25.818  14.278
75201W        W48269  24.985  13.359  13.921
75202W        W48270  10.413  31.321  11.971
75203W        W48271  23.704  11.142  12.039
75204W        W48272  13.024  15.778   2.649
75205W        W48273  21.937  18.114  13.875
75206W        W48274  19.596   5.912  10.271
75207W        W48275   6.036  22.423   9.812
75208W        W48276  38.219   3.101   4.809
75209W        W48277  32.857   8.887  12.527
75210W        W48278  10.897  43.793   4.506
75211W        W48279   0.396  27.432  13.595
75212W        W48280  39.811  38.536  13.415
75213W        W48281   6.207  19.025   2.789
75214W        W48282  39.432  25.975  11.034
75215W        W48283   5.955  16.026   3.646
75216W        W48284   8.803  20.082  11.177
75217W        W48285  15.816  29.857  13.898
75218W        W48286  26.193  30.026  14.370
75219W        W48287  21.088  23.601   4.136
75220W        W48288  36.017   1.458  12.951
75221W        W48289  43.870  14.089  14.109
75222W        W48290  14.127  39.649  10.478
75223W        W48291  27.873   4.471  11.660
75224W        W48292  14.418  39.912  10.116
75225W        W48293   8.275  42.715   4.608
75226W        W48294   9.009   2.286  13.095
75227W        W48295  43.905  23.491  12.867
75228W        W48296  17.773  38.142  11.944
75229W        W48297  32.686  44.837   1.359
75230W        W48298  23.190  35.768   2.416
75231W        W48299  32.695  15.079  12.217
75232W        W48300  39.875   0.387  12.045
75233W        W48301  33.429  22.106   0.538
75234W        W48302  31.352  30.075  13.400
75235W        W48303   9.714  21.324   2.624
75236W        W48304   6.677  18.077   2.935
75237W        W48305  24.496  37.921   3.253
75238W        W48306  40.991  20.233  13.741
75239W        W48307  28.933  25.526   4.611
75240W        W48308  18.367  30.484   1.376
75241W        W48309  24.575  38.850   4.780
75242W        W48310  42.931  10.199  13.364
75243W        W48311  29.193   3.625  13.428
75244W        W48312   5.340  23.822  14.513
75245W        W48313  25.979  39.033  12.309
75246W        W48314  37.316  15.665  13.004
75247W        W48315  17.247  24.991   4.060
75248W        W48316  27.604   0.783  12.039
75249W        W48317  29.172  36.929  11.090
75250W        W48318  36.934  37.473   0.034
75251W        W48319  35.369  32.595  14.252
75252W        W48320  11.702  22.439   4.548
75253W        W48321  20.605  37.888  13.903
75254W        W48322  21.803  12.157   2.334
75255W        W48323  35.055  22.690  12.847
75256W        W48324  21.683   1.932  12.677
75257W        W48325  39.437  44.303   0.958
75258W        W48326  29.094  41.012  12.583
75259W        W48327  23.086  33.328  11.745
75260W        W48328  10.088  23.100  14.228
75261W        W48329  20.245   3.911   3.339
75262W        W48330  22.826  24.968   1.452
75263W        W48331  16.230  19.352   0.050
75264W        W48332   1.471   2.506  11.595
75265W        W48333  40.341  10.970  14.964
75266W        W48334   9.386  35.145  13.935
75267W        W48335  23.701  22.421   2.656
75268W        W48336  20.617   1.888  10.187
75269W        W48337  35.872  40.347  12.512
75270W        W48338  23.755  40.604  11.074
75271W        W48339   6.358  33.403  13.864
75272W        W48340   4.199  24.457  12.473
75273W        W48341  19.318  15.041  11.176
75274W        W48342  12.245  19.270  14.967
75275W        W48343  21.768  12.668  10.953
75276W        W48344   7.826  18.816   0.810
75277W        W48345  41.698  19.807   3.628
75278W        W48346  38.989  34.856  10.705
75279W        W48347  31.115  42.867  14.715
75280W        W48348  41.886  22.303  13.013
75281W        W48349  16.012   9.086   0.952
75282W        W48350  12.266  31.326   3.806
75283W        W48351  32.674   3.932   4.511
75284W        W48352  12.572  37.618  14.432
75285W        W48353  29.037   9.536  11.703
75286W        W48354  19.440   0.719   0.773
75287W        W48355  20.567   3.315  13.395
75288W        W48356  30.304  34.422  11.635
75289W        W48357  31.075   9.190  10.764
75290W        W48358  14.826   9.485   4.086
75291W        W48359  40.008  12.255  10.864
75292W        W48360  32.079  16.818  12.497
75293W        W48361  28.154  20.835  11.194
75294W        W48362  24.901   2.185   4.220
75295W        W48363  16.370  34.685  12.884
75296W        W48364  15.522  30.319  11.070
75297W        W48365  29.717  37.297   4.075
75298W        W48366  32.494   3.314  11.636
75299W        W48367  12.241  20.086   1.795
75300W        W48368   7.615  15.572  12.754
75301W        W48369  25.578  29.586  14.126
75302W        W48370  36.466  20.123  14.130
75303W        W48371  23.311  12.338   1.381
75304W        W48372   0.583  19.128  13.092
75305W        W48373  16.124  27.207   3.167
75306W        W48374  16.317  37.840   4.509
75307W        W48375  18.352  28.034  11.200
75308W        W48376  37.808  27.878  11.948
75309W        W48377  17.708   6.523  11.144
75310W        W48378  26.105  17.543  12.915
75311W        W48379  25.466  17.966   0.069
75312W        W48380  17.720  44.064   0.279
75313W        W48381  36.507  19.746   4.967
75314W        W48382   9.748   4.541  12.480
75315W        W48383  21.767   4.840   1.258
75316W        W48384  29.598   8.932  14.773
75317W        W48385  13.252   9.725   0.282
75318W        W48386  11.337   2.350   3.095
75319W        W48387  42.434  33.621  11.059
75320W        W48388  24.659  20.723  12.875
75321W        W48389  27.102  19.366   2.280
75322W        W48390   6.957  32.380   1.447
75323W        W48391  31.533  14.654   4.297
75324W        W48392  12.434  14.502   2.391
75325W        W48393   7.631  29.373   3.821
75326W        W48394  41.304  18.164  11.062
75327W        W48395  26.437  41.023   3.630
75328W        W48396  24.228  18.129  13.417
75329W        W48397   5.871  40.292  12.903
75330W        W48398  13.650  19.514   2.114
75331W        W48399   0.971  26.526   3.102
75332W        W48400  24.960  20.905  14.927
75333W        W48401  34.402   0.785   0.994
75334W        W48402  34.554  10.892   0.379
75335W        W48403  42.074   5.019  12.765
75336W        W48404  29.849  23.123  11.953
75337W        W48405  15.285  17.117   4.039
75338W        W48406  39.503  18.339   4.086
75339W        W48407  24.971   7.204   3.146
75340W        W48408  16.681  12.607   0.143
75341W        W48409  11.858  27.464  13.511
75342W        W48410   1.323  36.484   1.108
75343W        W48411   3.888  41.929   3.645
75344W        W48412  11.864   9.804  12.070
75345W        W48413  33.483  44.072   0.267
75346W        W48414   7.506  43.324   2.493
75347W        W48415  25.516  12.823  12.605
75348W        W48416  10.222   8.999   3.277
75349W        W48417  34.864  35.234  12.325
75350W        W48418  33.876  26.601   0.381
75351W        W48419  11.114  42.261   4.055
75352W        W48420  18.034  38.787  12.407
75353W        W48421  29.687  10.099   3.337
75354W        W48422   0.895   1.727   3.716
75355W        W48423  26.482  30.855  14.778
75356W        W48424  14.605  32.348   1.987
75357W        W48425  25.628  14.656  14.305
75358W        W48426  39.935   6.981  14.647
75359W        W48427  23.496   0.897  11.546
75360W        W48428  34.421  12.458  12.633
75361W        W48429  16.932  36.849  11.518
75362W        W48430  30.341  27.365  12.477
75363W        W48431   9.193  35.055  10.660
75364W        W48432  30.000   4.877  10.571
75365W        W48433  17.658  30.484  13.895
75366W        W48434  20.748  25.105   4.937
75367W        W48435   4.388   8.208   4.147
75368W        W48436   0.717  23.609   3.231
75369W        W48437  29.212  11.797  13.853
75370W        W48438  24.194  14.157  12.758
75371W        W48439  27.224  13.005  10.826
75372W        W48440   1.171   3.725   2.341
75373W        W48441  29.341  20.569  11.979
75374W        W48442  23.069  40.990  14.471
75375W        W48443  11.484  12.695  11.091
75376W        W48444  26.915  14.215  13.486
75377W        W48445  17.804  12.645   2.456
75378W        W48446  16.696  25.545   0.264
75379W        W48447  29.450  14.739   1.881
75380W        W48448  19.734   1.981   0.364
75381W        W48449   0.383   4.870  13.511
75382W        W48450  14.223  39.704  14.080
75383W        W48451  37.674   1.494   1.782
75384W        W48452   0.296  35.107  13.351
75385W        W48453  13.476  18.854  11.559
75386W        W48454  40.963   6.802   0.634
75387W        W48455  24.220  12.141  10.734
75388W        W48456   0.408   7.143   3.862
75389W        W48457  38.000  20.998  13.894
75390W        W48458  38.060   6.169  14.506
75391W        W48459  25.115  43.960   1.460
75392W        W48460  24.421  18.859   9.910
75393W        W48461  33.206  26.441   4.974
75394W        W48462  35.010  40.340  10.687
75395W        W48463   9.920   5.193   1.279
75396W        W48464  37.996  31.357   0.273
75397W        W48465  26.171  17.237   0.379
75398W        W48466  26.809   4.302  11.552
75399W        W48467   8.334  37.727   4.282
75400W        W48468   8.441  32.509   4.577
75401W        W48469  14.085   3.664  12.526
75402W        W48470  35.308  36.078  11.501
75403W        W48471  19.468  35.320   3.601
75404W        W48472   9.507   7.178  13.016
75405W        W48473   5.560   3.879   2.640
75406W        W48474  38.935   1.308  11.975
75407W        W48475  30.887  29.453  13.870
75408W        W48476  25.565  42.544   2.716
75409W        W48477  10.210  28.592  11.612
75410W        W48478  32.840  13.050   1.499
75411W        W48479   7.302  16.125  10.601
75412W        W48480  15.060  41.338   2.163
75413W        W48481  21.971   4.888  12.493
75414W        W48482   4.471  26.634   0.275
75415W        W48483  44.767  28.989   3.386
75416W        W48484  44.882  10.242   1.943
75417W        W48485  16.317  29.918   2.401
75418W        W48486  14.896  17.310  13.490
75419W        W48487  20.817  17.731   3.082
75420W        W48488   4.266   4.474   4.066
75421W        W48489  26.251  26.848  13.934
75422W        W48490  15.630  20.851   0.867
75423W        W48491  21.244  13.007  14.812
75424W        W48492  16.272   5.870   2.784
75425W        W48493   1.905  14.279   3.807
75426W        W48494  36.268   2.116   4.251
75427W        W48495  13.360  13.356  11.344
75428W        W48496  44.927  39.988  12.565
75429W        W48497  40.014   2.040  13.523
75430W        W48498  25.256  13.279   2.705
75431W        W48499  42.363   0.609  14.285
75432W        W48500  10.062   6.664   1.369
75433W        W48501  29.168   9.182  10.987
75434W        W48502  20.127  30.405   3.579
75435W        W48503   7.613  25.969   1.184
75436W        W48504  11.223  32.395  12.006
75437W        W48505   7.468   8.896   1.761
75438W        W48506  15.136  20.721   3.345
75439W        W48507  23.339  13.492  11.009
75440W        W48508  22.612  19.259  13.099
75441W        W48509   2.368  21.854  10.813
75442W        W48510  32.061   4.445  14.612
75443W        W48511  26.109   4.265  13.770
75444W        W48512  11.653   0.367   0.336
75445W        W48513  10.599  27.954  14.028
75446W        W48514  17.521  32.281  12.460
75447W        W48515  33.179  29.615  11.165
75448W        W48516  42.720   1.275  14.947
75449W        W48517  15.420   8.308  14.806
75450W        W48518   9.753  40.689   0.236
75451W        W48519  18.684  11.724   2.625
75452W        W48520  12.276   1.191  14.522
75453W        W48521  16.589  19.104   3.781
75454W        W48522  14.553  30.123  10.390
75455W        W48523   2.782   2.547   3.781
75456W        W48524  23.280  32.045   1.395
75457W        W48525   3.645  33.618   3.731
75458W        W48526  24.646  29.976   3.653
75459W        W48527  21.721  36.103  11.665
75460W        W48528  39.556  16.200  14.865
75461W        W48529  15.763  44.817   1.478
75462W        W48530   7.417  37.300  12.930
75463W        W48531  13.319  16.642  13.017
75464W        W48532  30.554   4.387   4.388
75465W        W48533   0.484  24.874   2.730
75466W        W48534   7.522  32.015  11.591
75467W        W48535  40.335  41.352  12.734
75468W        W48536  12.738   1.421   4.319
75469W        W48537  15.990   8.823   4.830
75470W        W48538  16.555  12.846  12.160
75471W        W48539  33.895  35.079  13.867
75472W        W48540  33.005  13.237  13.939
75473W        W48541  18.157  42.773   2.687
75474W        W48542   6.476  11.925   0.287
75475W        W48543  15.468  34.528  14.855
75476W        W48544   0.512  35.908  12.999
75477W        W48545  13.074   5.896   2.718
75478W        W48546  23.159   0.958   0.495
75479W        W48547   1.927  28.537   1.264
75480W        W48548  29.007  23.951  13.749
75481W        W48549  34.710  25.201   0.465
75482W        W48550  29.033  25.986   0.935
75483W        W48551   2.180   6.070  12.094
75484W        W48552  32.477   4.727  11.412
75485W        W48553  37.581  41.251   3.348
75486W        W48554  14.692  24.921  14.776
75487W        W48555  37.277  14.383   4.119
75488W        W48556  14.365   3.447   2.351
75489W        W48557  27.858  16.342   3.845
75490W        W48558  39.363  13.601   1.953
75491W        W48559  37.863  26.522   2.859
75492W        W48560  34.190  33.672   3.303
75493W        W48561  28.665  13.311  10.801
75494W        W48562  15.856   1.463  12.258
75495W        W48563  44.462   3.695   0.979
75496W        W48564  24.213  40.447  12.006
75497W        W48565  38.910  31.846  11.432
75498W        W48566   7.986  11.700  13.352
75499W        W48567  18.733  42.902   0.794
75500W        W48568  24.533   0.224  10.870
75501W        W48569  27.541  15.535   2.145
75502W        W48570  37.304  31.377   1.935
75503W        W48571  10.742  37.759  14.950
75504W        W48572  31.858  32.969   0.963
75505W        W48573  16.995  33.341  12.175
75506W        W48574  11.408  13.583  14.360
75507W        W48575   7.459   0.834  13.656
75508W        W48576   3.352  22.417   1.447
75509W        W48577  31.055  17.317   1.939
75510W        W48578  13.547  30.001  12.776
75511W        W48579  41.354  14.761   1.699
75512W        W48580  21.022  21.662  12.857
75513W        W48581  29.082  20.827   4.768
75514W        W48582  42.221  13.671  13.364
75515W        W48583  32.664  25.305  11.205
75516W        W48584   8.080  37.971   2.381
75517W        W48585  26.994  28.938  13.941
75518W        W48586  29.994   0.292  11.201
75519W        W48587   8.855  38.261   4.750
75520W        W48588  26.059  31.174   4.688
75521W        W48589  20.357  27.254   1.743
75522W        W48590  17.491  35.200  12.827
75523W        W48591  16.320  16.531  14.248
75524W        W48592  25.209  32.323   0.720
75525W        W48593  11.755   6.184  14.224
75526W        W48594  42.798  35.371  13.738
75527W        W48595  21.604  36.918  12.965
75528W        W48596   7.383   0.759   2.259
75529W        W48597  34.116  34.943  11.132
75530W        W48598  39.124   4.277   1.521
75531W        W48599  14.290  10.629   0.306
75532W        W48600  13.659  33.621  11.932
75533W        W48601  16.402  29.008   3.940
75534W        W48602  38.246  24.243  12.121
75535W        W48603  27.481   2.342   0.966
75536W        W48604  28.571  40.126   4.236
75537W        W48605  17.230  39.359   3.345
75538W        W48606  34.426   8.315  14.430
75539W        W48607   7.289  18.364   2.149
75540W        W48608   6.467  25.171  13.514
75541W        W48609  25.336  10.697   1.402
75542W        W48610  35.700  42.567   1.297
75543W        W48611   6.940  25.512   1.310
75544W        W48612  13.368  27.798   3.676
75545W        W48613   5.616  17.996   3.371
75546W        W48614  17.106  39.751  11.177
75547W        W48615  20.748  37.662   4.593
75548W        W48616  30.644  44.174  13.061
75549W        W48617   2.749  37.909  11.069
75550W        W48618  39.716  15.304   4.612
75551W        W48619  24.980  38.388  11.166
75552W        W48620  16.372   0.749  11.273
75553W        W48621  41.924   3.344   1.069
75554W        W48622  29.096  14.506   3.600
75555W        W48623   8.670   6.916   1.833
75556W        W48624  34.939   8.584   5.248
75557W        W48625  16.645  36.491  11.735
75558W        W48626  44.187  35.678   2.153
75559W        W48627  16.002  14.252   2.285
75560W        W48628  15.831  10.659   4.889
75561W        W48629  13.263  27.069  13.415
75562W        W48630  41.306  18.215  13.835
75563W        W48631  27.072  39.596  14.293
75564W        W48632   7.221   9.183  14.891
75565W        W48633   7.220   1.482   2.653
75566W        W48634  44.316  26.619   1.810
75567W        W48635  18.808  34.140   2.395
75568W        W48636  12.169  40.530   0.462
75569W        W48637  37.832  39.381   4.762
75570W        W48638  38.335  13.455  11.541
75571W        W48639  38.585   5.693   0.092
75572W        W48640   7.057   2.444  11.950
75573W        W48641   9.056  15.699   2.359
75574W        W48642  31.513  11.972  12.041
75575W        W48643   0.968  15.704   1.522
75576W        W48644  23.489   3.853   3.800
75577W        W48645  25.539  33.368  11.980
75578W        W48646  44.439  10.474  13.325
75579W        W48647  14.138  41.557   2.479
75580W        W48648  10.811  42.380  13.514
75581W        W48649  16.005  23.920   0.028
75582W        W48650   9.457  19.366   3.256
75583W        W48651  41.027  23.802   4.218
75584W        W48652   4.904  11.804   3.647
75585W        W48653  11.130  13.265   4.069
75586W        W48654  14.282   9.390  14.293
75587W        W48655  33.107  40.436   4.082
75588W        W48656  44.473  18.344  12.064
75589W        W48657  22.115  35.796  13.608
75590W        W48658  14.630  32.983  14.726
75591W        W48659  32.591   9.159   2.344
75592W        W48660  24.077  30.179   4.889
75593W        W48661  23.141  28.016   3.314
75594W        W48662   5.041  36.885   0.869
75595W        W48663  20.509  34.580  10.623
75596W        W48664  40.794   2.390  14.799
75597W        W48665  32.462   4.480  12.687
75598W        W48666  35.191  30.716   4.123
75599W        W48667  35.987  10.177  11.534
75600W        W48668  29.389   0.418  11.517
75601W        W48669   7.904  41.340   5.054
75602W        W48670  19.813   6.197  10.659
75603W        W48671   8.865   4.257  12.059
75604W        W48672  39.830  23.001  13.578
75605W        W48673  30.025  35.570   0.788
75606W        W48674  43.598   8.348   4.802
75607W        W48675  31.905   1.331  13.500
75608W        W48676  23.440  26.647  11.169
75609W        W48677   9.809  14.187  11.690
75610W        W48678   7.667  28.085   1.207
75611W        W48679   3.665  19.055   0.122
75612W        W48680  39.506  42.368   2.496
75613W        W48681  24.067  24.886   0.836
75614W        W48682  38.513  38.796   3.869
75615W        W48683  29.338  32.982   1.226
75616W        W48684  21.265  33.439   2.216
75617W        W48685   0.742  28.648   0.537
75618W        W48686  35.447  13.625   1.647
75619W        W48687  29.104  24.975  12.845
75620W        W48688  34.023   7.546   4.639
75621W        W48689  12.350  19.108   2.256
75622W        W48690  13.578  42.348   4.975
75623W        W48691  13.108  40.502  10.613
75624W        W48692   0.913  15.693  11.350
75625W        W48693  19.318   4.790   0.243
75626W        W48694  22.821  39.577  12.620
75627W        W48695  38.990  26.636  10.655
75628W        W48696  16.799   3.163   2.871
75629W        W48697  33.647  11.905   9.935
75630W        W48698  14.515  24.789  13.909
75631W        W48699  15.563   9.950  11.215
75632W        W48700  34.152  10.196   3.635
75633W        W48701  26.066  27.100   4.296
75634W        W48702  12.762  41.305  14.389
75635W        W48703  22.327  18.999  11.557
75636W        W48704  16.841  43.206   0.302
75637W        W48705   2.486  18.861   3.659
75638W        W48706   4.831   8.592   0.912
75639W        W48707  39.644  42.272   0.573
75640W        W48708   2.745   5.268   1.813
75641W        W48709  36.900  15.721   0.227
75642W        W48710  40.040  14.161  10.722
75643W        W48711  16.222  25.834   4.777
75644W        W48712  24.225   4.812  14.883
75645W        W48713  14.544   6.703   0.348
75646W        W48714   2.594  25.053   0.887
75647W        W48715   2.673   9.976   2.150
75648W        W48716  34.076  21.381  14.572
75649W        W48717  10.293  28.662  11.085
75650W        W48718  28.433  18.708   2.327
75651W        W48719  22.928  35.457  13.613
75652W        W48720  12.767  19.123   3.183
75653W        W48721  38.486  34.785  11.930
75654W        W48722  39.406   7.642   4.149
75655W        W48723  27.995  23.759   1.888
75656W        W48724  15.330   2.014   0.855
75657W        W48725  39.987  23.077  11.488
75658W        W48726   9.710   1.715  14.761
75659W        W48727  16.828  29.255  11.097
75660W        W48728  29.135  16.883  11.138
75661W        W48729  36.520  39.446   1.194
75662W        W48730  16.762  14.808   1.240
75663W        W48731  40.234  30.075  11.941
75664W        W48732  35.489  32.013   2.693
75665W        W48733  36.176  13.343   1.207
75666W        W48734  15.809   0.291  10.676
75667W        W48735  28.470  39.349  13.928
75668W        W48736  15.384  39.333   1.732
75669W        W48737  28.628  14.521  11.559
75670W        W48738  19.529  41.513   4.573
75671W        W48739  44.612  14.578  11.922
75672W        W48740   9.137  37.127   4.122
75673W        W48741  26.118  44.293  14.996
75674W        W48742  32.455  25.999   0.646
75675W        W48743  39.153  35.565  12.511
75676W        W48744  12.882   9.759  10.571
75677W        W48745  39.483  28.422   0.633
75678W        W48746  27.107  42.803   4.231
75679W        W48747  31.072  16.398  11.054
75680W        W48748  10.562  17.585  13.440
75681W        W48749   4.916  35.520  10.566
75682W        W48750  36.320  12.705  12.136
75683W        W48751  36.389  17.935   1.182
75684W        W48752   5.594  27.944   3.732
75685W        W48753  16.255  11.333  14.953
75686W        W48754  43.009   9.659   2.265
75687W        W48755  24.645   2.274   1.267
75688W        W48756   3.167  18.293  14.353
75689W        W48757  20.832  14.563   1.484
75690W        W48758  42.358  43.365  14.707
75691W        W48759   9.672  41.528   2.360
75692W        W48760  28.991  34.752  13.594
75693W        W48761  44.491  18.158  13.533
75694W        W48762   0.155  23.693   2.317
75695W        W48763  15.371  23.506   4.472
75696W        W48764  44.075  10.688  10.858
75697W        W48765  10.389  13.241  11.287
75698W        W48766  44.922  39.742   3.639
75699W        W48767  12.157   9.321   0.757
75700W        W48768  40.959   2.949   2.907
75701W        W48769  15.432  29.132   1.965
75702W        W48770  36.390  15.087  10.657
75703W        W48771   0.838  38.631  12.098
75704W        W48772   7.777  39.914  11.684
75705W        W48773  44.866   1.282  10.639
75706W        W48774  31.934   1.685   1.635
75707W        W48775   0.858  29.597  10.354
75708W        W48776  36.128  14.352   2.820
75709W        W48777   8.908  38.098  14.492
75710W        W48778  16.788  21.020   1.177
75711W        W48779  23.503  19.482  13.472
75712W        W48780  28.252  30.147  11.586
75713W        W48781  28.851   7.269  12.951
75714W        W48782  29.679  14.055  13.815
75715W        W48783   9.115  34.537  14.358
75716W        W48784   1.333  31.690   2.290
75717W        W48785  36.564   7.612   1.080
75718W        W48786  44.739  30.343  11.687
75719W        W48787  34.906  33.066  13.695
75720W        W48788  28.621  39.487  11.159
75721W        W48789   1.447   5.516  10.608
75722W        W48790  21.674  10.755   2.109
75723W        W48791   4.107  32.011   4.565
75724W        W48792  40.987  40.696   4.321
75725W        W48793  16.222  20.840  11.281
75726W        W48794   3.692  24.467  12.440
75727W        W48795  28.532  39.466  14.870
75728W        W48796  29.994  20.286  13.641
75729W        W48797  24.516   7.407   1.694
75730W        W48798  15.335  18.591   0.523
75731W        W48799  25.649  31.389   1.400
75732W        W48800  43.572  39.467   1.381
75733W        W48801  12.252  33.482  14.400
75734W        W48802  39.234   5.520   3.779
75735W        W48803  33.450   2.300  11.496
75736W        W48804  33.007  11.382  13.610
75737W        W48805  16.413  43.694   1.832
75738W        W48806  22.498  13.755  10.897
75739W        W48807  39.801  29.100   4.584
75740W        W48808  10.122  41.734  13.937
75741W        W48809   3.287  10.676   3.680
75742W        W48810  12.694  15.241   3.816
75743W        W48811   5.308  31.731   0.278
75744W        W48812  21.597  20.921  12.372
75745W        W48813  44.719  40.626   2.467
75746W        W48814  37.108  34.871   2.707
75747W        W48815  30.336  14.382  14.906
75748W        W48816  16.412  22.006  13.109
75749W        W48817  29.126  15.949   4.120
75750W        W48818  35.420  44.933   0.021
75751W        W48819  11.203  13.397   1.062
75752W        W48820  29.641  44.491   0.273
75753W        W48821   1.668  19.342  12.038
75754W        W48822  21.889  27.348   3.694
75755W        W48823  15.378  23.327  11.219
75756W        W48824  19.771  16.753   0.509
75757W        W48825   5.771  10.465   2.719
75758W        W48826  37.135  39.829  11.231
75759W        W48827  16.308   3.926  13.539
75760W        W48828  14.775  29.107  13.772
75761W        W48829  44.896  21.927  11.527
75762W        W48830  42.282  36.590   0.759
75763W        W48831  25.964  29.663   3.652
75764W        W48832  11.888   6.384   3.169
75765W        W48833  35.595  20.782  13.770
75766W        W48834   8.727  36.655  14.470
75767W        W48835   7.368   6.708   2.339
75768W        W48836  15.368   5.320   2.396
75769W        W48837  33.152  25.013  14.889
75770W        W48838  17.781  18.300   3.821
75771W        W48839  13.079  44.224   0.554
75772W        W48840  16.743  21.236  12.020
75773W        W48841  37.811  44.946  14.956
75774W        W48842  40.176  15.250  12.572
75775W        W48843  41.552  38.680   0.287
75776W        W48844  40.111  15.073   2.654
75777W        W48845   1.208  12.336  10.639
75778W        W48846  31.991   4.384   0.840
75779W        W48847  17.210  15.057   4.083
75780W        W48848  22.072  34.534   4.907
75781W        W48849  42.780  19.750   3.621
75782W        W48850   3.414  28.066  11.368
75783W        W48851   3.182   5.615   3.676
75784W        W48852  20.122  15.101  12.520
75785W        W48853  21.847  33.038   4.656
75786W        W48854   5.198  40.771   2.345
75787W        W48855  41.613   6.704  12.685
75788W        W48856  11.560  39.072   4.563
75789W        W48857  37.483  13.634  12.153
75790W        W48858   2.390   2.079   3.231
75791W        W48859   0.200   8.244   3.993
75792W        W48860  38.349  43.240   1.706
75793W        W48861  36.353  11.255   2.374
75794W        W48862  41.007  11.726   2.764
75795W        W48863   1.718  10.342  12.112
75796W        W48864   6.086  20.849  13.892
75797W        W48865   2.816  27.389  11.570
75798W        W48866  16.777  43.299   4.134
75799W        W48867   4.755  14.488  13.922
75800W        W48868  36.218  22.780  13.631
75801W        W48869   7.092  20.441  11.620
75802W        W48870  21.004  39.269  14.820
75803W        W48871  31.984  14.546  11.753
75804W        W48872  20.722  11.807   1.226
75805W        W48873  11.087   8.458   2.769
75806W        W48874   8.820  30.904   1.970
75807W        W48875  22.786  15.293   1.687
75808W        W48876  36.932  25.516  14.781
75809W        W48877  40.385   0.270   0.804
75810W        W48878  40.582  36.277  14.386
75811W        W48879  21.125  11.886  14.020
75812W        W48880  21.934  31.625   2.857
75813W        W48881   0.904  32.358   2.236
75814W        W48882  28.938  44.723  11.100
75815W        W48883  37.347  22.338   5.119
75816W        W48884  32.949  19.666   4.570
75817W        W48885  36.652  18.230   3.047
75818W        W48886  16.246  31.116  14.898
75819W        W48887  38.781  37.139  11.941
75820W        W48888  29.901  12.395   2.473
75821W        W48889  11.398  30.524   1.859
75822W        W48890   5.553   1.056   2.795
75823W        W48891   6.209   2.003  11.224
75824W        W48892  29.034  19.509   0.881
75825W        W48893  20.591  20.632   4.654
75826W        W48894   5.687   1.820   0.805
75827W        W48895  35.111  43.504   4.296
75828W        W48896  39.483  12.129   0.391
75829W        W48897  40.177  14.448   5.092
75830W        W48898  41.341  30.594  10.733
75831W        W48899  11.607  36.548   0.929
75832W        W48900  33.326  43.713   4.721
75833W        W48901  17.609  14.769   2.933
75834W        W48902   6.298  34.250   4.310
75835W        W48903  18.415   1.980  12.915
75836W        W48904  17.625  41.987   0.391
75837W        W48905  15.395   8.765   4.638
75838W        W48906  30.507  22.345  10.433
75839W        W48907   8.708  39.487  14.370
75840W        W48908   2.498  35.210  11.621
75841W        W48909  28.582  36.432  12.882
75842W        W48910  24.893  36.740  13.849
75843W        W48911  18.182  43.849  14.424
75844W        W48912  17.229  38.581   1.252
75845W        W48913  38.457  12.641   3.924
75846W        W48914  32.134  37.939   3.137
75847W        W48915  23.033  37.318  11.485
75848W        W48916  14.184  32.631  10.787
75849W        W48917  28.215  43.849  12.902
75850W        W48918  13.931  11.177  13.548
75851W        W48919  18.125  22.596  13.826
75852W        W48920  27.231  20.336   2.219
75853W        W48921   0.949  17.062  14.853
75854W        W48922   5.600   7.193  11.608
75855W        W48923  27.408  30.507   4.202
75856W        W48924  27.943  43.374  10.800
75857W        W48925   5.932  20.809   0.265
75858W        W48926  18.942  16.434  13.968
75859W        W48927   6.944  44.316  11.538
75860W        W48928  34.823   0.343  12.889
75861W        W48929   8.453  35.465  11.522
75862W        W48930  32.156  39.707  14.925
75863W        W48931  42.866  13.045  13.833
75864W        W48932  40.320   8.401  11.945
75865W        W48933  44.843  17.277  12.740
75866W        W48934  40.540  21.707  13.325
75867W        W48935   8.345  13.142   1.380
75868W        W48936   4.420  10.099  13.007
75869W        W48937  13.581   5.882  12.809
75870W        W48938  44.062  30.937  12.362
75871W        W48939  22.795   2.445  10.229
75872W        W48940  27.651  15.384   0.789
75873W        W48941  10.594   9.329   4.141
75874W        W48942  17.505  35.931  13.047
75875W        W48943  43.246  21.655   0.742
75876W        W48944  41.011  12.152  12.495
75877W        W48945  20.196  34.033   0.959
75878W        W48946  29.212  39.250  14.306
75879W        W48947  13.114   5.294   0.351
75880W        W48948   0.701  27.178   3.569
75881W        W48949   7.098  13.837   3.999
75882W        W48950  31.844  29.333  11.986
75883W        W48951  34.305  34.877   3.825
75884W        W48952   3.225  35.133  11.140
75885W        W48953  18.080  25.213   5.067
75886W        W48954  29.075  44.025  14.445
75887W        W48955  19.567  36.965  12.903
75888W        W48956  13.839  18.081  14.574
75889W        W48957  24.701  41.535   2.888
75890W        W48958  19.279   6.768   3.225
75891W        W48959  20.026  34.964  11.601
75892W        W48960  35.934  23.009  14.832
75893W        W48961  10.991  15.887  13.955
75894W        W48962  42.611   2.243   0.509
75895W        W48963   0.197  23.115   0.964
75896W        W48964  25.983  18.873  11.587
75897W        W48965  37.637  29.183   2.622
75898W        W48966  44.841  22.646  14.741
75899W        W48967  28.032  12.313   2.358
75900W        W48968  37.996  21.513  14.956
75901W        W48969  37.096   2.486   1.790
75902W        W48970  33.724  43.924  14.279
75903W        W48971  38.976  30.916   2.929
75904W        W48972  38.793  44.027  13.515
75905W        W48973   2.677  11.252   0.143
75906W        W48974  19.082  23.686   0.029
75907W        W48975  43.376   3.175  11.665
75908W        W48976  21.683  43.521  13.868
75909W        W48977  29.380  31.023   0.294
75910W        W48978  42.144  24.020   0.967
75911W        W48979  33.489  15.180  14.477
75912W        W48980  26.683  15.167   4.547
75913W        W48981  40.419  24.534   2.251
75914W        W48982  13.761  18.170   2.341
75915W        W48983  41.880  41.698  14.262
75916W        W48984  14.727  44.352  12.764
75917W        W48985  15.847  31.236   4.193
75918W        W48986  14.608  22.599  13.999
75919W        W48987  13.747  14.278  12.163
75920W        W48988  15.283  34.827  11.611
75921W        W48989  42.750  23.323  11.070
75922W        W48990  25.533   1.141  13.441
75923W        W48991   4.958  26.038  14.773
75924W        W48992   7.444  43.239   4.605
75925W        W48993  23.076  13.465   4.172
75926W        W48994  33.438  23.245  11.623
75927W        W48995  38.457  28.588   1.189
75928W        W48996  42.979  29.847   0.396
75929W        W48997  27.454  22.148  13.079
75930W        W48998  25.172  11.012  12.234
75931W        W48999  27.028   5.920   0.504
75932W        W49000  12.585  20.762  11.162
75933W        W49001   7.610   7.680  13.405
75934W        W49002  14.922  33.036   4.138
75935W        W49003  15.228  29.764  12.825
75936W        W49004  16.730  37.390  12.178
75937W        W49005  42.007   6.435  12.890
75938W        W49006  22.633  14.625   0.408
75939W        W49007  22.192  17.159  10.284
75940W        W49008  22.141  27.093   1.217
75941W        W49009  25.150  41.413   1.212
75942W        W49010  29.868   5.792  12.409
75943W        W49011  39.374  20.545  13.055
75944W        W49012   6.665  32.671   2.293
75945W        W49013  42.442  15.281   1.374
75946W        W49014   1.312  11.633  13.352
75947W        W49015  11.325  13.906   2.862
75948W        W49016  32.059  29.333  13.416
75949W        W49017   1.122  22.213   0.026
75950W        W49018  38.029   9.811  13.015
75951W        W49019  19.580  38.054  12.834
75952W        W49020  22.836  28.969  13.909
75953W        W49021  41.286  32.581   3.000
75954W        W49022  18.111  19.327  14.153
75955W        W49023  10.734  28.502  10.882
75956W        W49024  36.400  20.119  12.591
75957W        W49025  30.373  18.684  10.721
75958W        W49026  36.443  16.319  13.518
75959W        W49027  30.096  28.998  12.000
75960W        W49028  39.251  43.442  14.441
75961W        W49029  28.500  24.563  11.101
75962W        W49030  23.621  29.439   4.429
75963W        W49031  20.077   7.384   2.262
75964W        W49032  37.018  41.739  14.218
75965W        W49033   7.801  43.397   3.550
75966W        W49034   1.822   7.450   4.583
75967W        W49035  33.619  38.478  12.448
75968W        W49036  28.330  25.696  13.327
75969W        W49037  27.635  15.115  12.789
75970W        W49038   5.522  32.175   2.740
75971W        W49039  35.533  12.174   2.423
75972W        W49040   1.315  21.993   4.034
75973W        W49041   4.694  26.656  11.636
75974W        W49042   0.156  37.453  10.764
75975W        W49043  22.998   3.910   2.725
75976W        W49044  34.630  20.746  13.527
75977W        W49045  14.543  15.098   2.618
75978W        W49046  35.885   9.163   3.651
75979W        W49047   3.780  19.540  13.066
75980W        W49048  28.920   1.171   4.845
75981W        W49049  16.351  32.052   0.792
75982W        W49050  14.082  33.936  14.340
75983W        W49051  38.897   7.638  12.765
75984W        W49052   3.461   9.784   0.826
75985W        W49053  40.942  22.082  11.619
75986W        W49054  12.003  26.895   1.400
75987W        W49055   8.468  42.940   0.070
75988W        W49056   5.420  43.765  11.007
75989W        W49057   9.023  36.350   1.926
75990W        W49058  28.503  15.144  14.361
75991W        W49059  43.414  40.758   2.781
75992W        W49060  14.631  19.785  14.435
75993W        W49061  40.730  23.146  12.598
75994W        W49062  38.194   7.719   1.866
75995W        W49063   4.424   4.418   1.760
75996W        W49064  37.405  21.740   4.341
75997W        W49065  36.873   9.441  14.437
75998W        W49066  27.807  40.387  14.118
75999W        W49067  24.969  44.190   2.445
76000W        W49068  16.113  35.801  10.759
76001W        W49069   1.400  15.102  10.564
76002W        W49070  25.293   2.443   0.539
76003W        W49071  16.144  16.927   4.160
76004W        W49072  29.439   4.868   2.532
76005W        W49073  13.628  18.366  11.478
76006W        W49074  26.715  37.299   3.132
76007W        W49075  32.507  26.615   2.337
76008W        W49076   0.406  44.816  14.315
76009W        W49077  13.087  16.055   1.728
76010W        W49078  11.178  23.277   4.416
76011W        W49079  34.468   7.183  10.682
76012W        W49080  26.360  28.931   3.261
76013W        W49081  16.833   7.349  12.096
76014W        W49082  28.424  18.038   0.215
76015W        W49083  38.637  25.677   4.220
76016W        W49084   9.260  26.271  14.963
76017W        W49085  25.315  37.548  14.764
76018W        W49086  19.720  40.445   4.964
76019W        W49087  16.632  27.968  14.311
76020W        W49088   6.169  28.724   4.128
76021W        W49089  20.147  19.998   1.669
76022W        W49090   5.407  35.128   0.771
76023W        W49091  42.196   4.411  12.612
76024W        W49092  18.926  43.823   5.225
76025W        W49093  13.223  32.901   2.680
76026W        W49094  30.689  24.055   2.502
76027W        W49095  27.988   5.368   2.259
76028W        W49096  24.482  12.187  11.172
76029W        W49097  12.164  33.829  12.336
76030W        W49098  38.820   1.902  12.617
76031W        W49099  14.859   2.359   2.873
76032W        W49100   3.226  38.423  12.271
76033W        W49101   6.013  31.914   0.793
76034W        W49102  42.752  44.425  14.390
76035W        W49103  32.375  14.704   4.705
76036W        W49104  43.692  40.620   2.287
76037W        W49105  12.041  44.570  14.383
76038W        W49106   5.942  25.091  14.899
76039W        W49107  44.234  44.922   2.435
76040W        W49108   6.030   8.615  12.575
76041W        W49109  10.678  44.248  10.211
76042W        W49110  27.098   7.950   4.173
76043W        W49111  19.757  44.467   2.535
76044W        W49112   5.691  25.581  13.430
76045W        W49113   4.477  21.531  12.591
76046W        W49114  27.929  43.642  12.513
76047W        W49115  31.235  41.980   4.506
76048W        W49116  24.318  21.724  13.998
76049W        W49117   0.893  11.277   4.357
76050W        W49118  13.552  31.514   3.560
76051W        W49119  39.716  24.978  11.022
76052W        W49120  18.327  28.037   2.813
76053W        W49121  32.838  33.800   4.268
76054W        W49122   6.589   3.320  10.172
76055W        W49123  14.726  12.157   2.251
76056W        W49124   3.770  40.533  13.985
76057W        W49125  18.779   0.940  12.961
76058W        W49126  28.909  22.939  13.484
76059W        W49127  32.505  25.070  13.470
76060W        W49128   6.492  21.112   4.462
76061W        W49129  17.582  41.302  12.595
76062W        W49130  17.123  28.617  13.933
76063W        W49131  23.925  15.852  10.497
76064W        W49132  32.622  26.218   3.989
76065W        W49133  18.377  41.445   2.362
76066W        W49134   4.211  33.298  13.930
76067W        W49135  39.002   5.503  10.172
76068W        W49136  16.801  24.782  11.230
76069W        W49137  23.214  22.481  14.870
76070W        W49138  29.914  22.921  11.062
76071W        W49139  19.274  15.765  13.309
76072W        W49140   5.700  38.386   3.679
76073W        W49141  36.545  42.504   2.766
76074W        W49142  14.292  16.199  11.945
76075W        W49143  32.182  38.284  11.198
76076W        W49144  33.202  31.351  10.517
76077W        W49145   0.467  14.260  12.480
76078W        W49146  37.210  26.263  11.120
76079W        W49147  34.755  11.651  12.195
76080W        W49148  12.793  11.055   4.100
76081W        W49149   2.000  16.149   2.848
76082W        W49150  18.589   6.451   4.565
76083W        W49151  29.572  27.186  11.123
76084W        W49152  43.072  17.110  12.539
76085W        W49153  41.633  16.532   3.260
76086W        W49154  22.162   0.523   5.159
76087W        W49155  16.229  34.976  10.370
76088W        W49156  18.253  18.673   4.203
76089W        W49157  43.996  35.583  10.846
76090W        W49158  23.179  28.215   4.569
76091W        W49159  28.005  44.534   2.657
76092W        W49160  31.865  44.739   1.761
76093W        W49161  35.125  16.610   1.748
76094W        W49162  23.941  11.815   2.846
76095W        W49163   5.987  31.904  11.627
76096W        W49164  21.462  29.553  14.975
76097W        W49165  44.263  18.281   2.370
76098W        W49166  34.992   4.919  10.326
76099W        W49167  23.197  18.722  11.626
76100W        W49168  23.097  33.241  13.808
76101W        W49169  26.640   9.131  13.813
76102W        W49170  33.476  25.056  10.770
76103W        W49171   0.271  20.475  11.368
76104W        W49172  35.381  26.096  13.143
76105W        W49173  44.738   5.463  11.502
76106W        W49174   0.452  11.916   0.885
76107W        W49175  30.686  37.536  13.392
76108W        W49176   9.328  36.311   0.977
76109W        W49177  17.831  29.723  13.450
76110W        W49178  11.108  35.265  13.104
76111W        W49179  28.951  44.858  12.167
76112W        W49180  43.582  44.054  11.106
76113W        W49181  41.943  10.696   4.324
76114W        W49182  11.135  30.992  11.160
76115W        W49183  16.833  41.493   0.970
76116W        W49184  24.999   5.244   1.166
76117W        W49185   1.715  12.276  10.644
76118W        W49186  21.142  17.116  13.500
76119W        W49187  37.694   0.734   1.406
76120W        W49188  22.172   7.751   4.843
76121W        W49189  27.788  24.107  14.970
76122W        W49190  39.206  35.113  14.187
76123W        W49191  36.905   4.182   4.600
76124W        W49192  26.863  15.236  10.385
76125W        W49193  39.335  29.365   4.640
76126W        W49194   1.221   3.730   3.642
76127W        W49195  26.062   8.122  14.993
76128W        W49196  20.067  25.035   0.803
76129W        W49197  23.529  44.343  13.268
76130W        W49198  11.629  19.207  11.664
76131W        W49199  16.396  21.319  11.224
76132W        W49200  20.253  11.486  11.949
76133W        W49201  19.406  38.873   2.917
76134W        W49202  26.607   3.828  11.636
76135W        W49203  35.359  44.331  11.017
76136W        W49204   3.250  21.055   3.211
76137W        W49205   1.839  44.055   2.616
76138W        W49206   2.557  35.523  10.857
76139W        W49207  10.883  19.189   4.602
76140W        W49208   3.429  22.755   1.850
76141W        W49209  36.559  43.521   2.704
76142W        W49210  17.515  23.506   1.722
76143W        W49211  37.128  14.322  12.845
76144W        W49212  30.576   5.107  14.089
76145W        W49213  39.267   7.811  10.944
76146W        W49214   8.405  34.502  14.004
76147W        W49215  10.132  25.261  12.507
76148W        W49216  30.993  14.694  11.556
76149W        W49217  33.489  10.617   1.285
76150W        W49218  21.647  35.122  14.068
76151W        W49219  20.699  22.514  11.614
76152W        W49220  21.926  38.903  14.025
76153W        W49221  33.655  27.891  14.518
76154W        W49222  18.736  43.961   4.414
76155W        W49223  42.819  15.605   1.172
76156W        W49224  27.556  23.224  12.098
76157W        W49225  36.610   8.702  14.027
76158W        W49226   9.729  16.919  11.894
76159W        W49227  16.654  17.529   2.856
76160W        W49228  17.646  26.489   1.344
76161W        W49229  14.561  19.091   4.358
76162W        W49230  16.240  16.703  11.129
76163W        W49231  30.980  11.471   1.996
76164W        W49232   2.852  24.183  13.756
76165W        W49233  39.332  34.506   3.407
76166W        W49234  34.939  13.841   3.672
76167W        W49235  28.321  32.619   4.039
76168W        W49236  41.692   2.876  10.556
76169W        W49237   7.921  43.319  11.591
76170W        W49238   8.280   0.518  11.887
76171W        W49239  15.861  40.635  13.811
76172W        W49240  12.775  14.081  10.872
76173W        W49241  13.105  16.581   4.798
76174W        W49242  11.189  23.142   0.854
76175W        W49243  18.493   2.954   4.711
76176W        W49244  44.581  31.033  13.429
76177W        W49245   4.001   7.248  14.386
76178W        W49246  10.380   7.332  14.498
76179W        W49247  18.919  27.012  13.077
76180W        W49248  19.777   5.770   0.057
76181W        W49249  14.486  19.523   1.867
76182W        W49250  33.125  39.077  13.024
76183W        W49251  34.738  41.555  12.493
76184W        W49252  42.343  12.284   3.361
76185W        W49253   9.626  22.946   0.416
76186W        W49254  14.492   3.684   2.786
76187W        W49255  27.814   8.804   0.064
76188W        W49256  27.415  13.819  13.051
76189W        W49257  19.985  44.424   1.688
76190W        W49258  24.994  33.047  12.001
76191W        W49259   8.478   9.785  10.684
76192W        W49260  39.501  44.324  11.640
76193W        W49261   3.257  24.779  12.431
76194W        W49262  17.667   4.205  12.416
76195W        W49263  42.412  27.288   1.158
76196W        W49264  41.852   9.206   2.799
76197W        W49265  19.034  14.593   3.767
76198W        W49266  17.302  44.552  11.202
76199W        W49267  12.344  38.598   2.813
76200W        W49268  33.471  14.062  10.755
76201W        W49269  36.655  29.987  12.077
76202W        W49270  15.107   3.890   2.702
76203W        W49271  23.648  38.463   2.328
76204W        W49272  11.151  42.929   1.315
76205W        W49273  37.608  17.565  11.402
76206W        W49274  43.780  42.893  11.865
76207W        W49275  35.774   7.985   0.318
76208W        W49276  40.416  33.368  14.437
76209W        W49277  43.524  41.588   2.371
76210W        W49278  11.118  28.450   1.279
76211W        W49279  39.863   7.764   2.386
76212W        W49280  33.066  21.265  14.414
76213W        W49281  28.955  15.810   0.088
76214W        W49282  23.559  36.678  11.597
76215W        W49283  26.120  40.998   0.857
76216W        W49284  20.088  15.202  14.464
76217W        W49285   7.516  38.414   2.059
76218W        W49286   6.903  30.686  14.864
76219W        W49287  14.728   6.201   1.397
76220W        W49288  40.194   0.042   3.723
76221W        W49289  32.585  34.306  13.326
76222W        W49290  34.063  32.243  11.154
76223W        W49291  19.076  35.515  10.740
76224W        W49292  27.510  41.462   4.860
76225W        W49293   5.298  29.030   4.415
76226W        W49294  19.219   6.916  13.338
76227W        W49295  28.152  44.925  14.440
76228W        W49296  32.121   2.918   2.282
76229W        W49297  21.338  19.694  13.661
76230W        W49298   5.844  14.094   0.965
76231W        W49299  13.783   8.705   3.650
76232W        W49300  34.586   8.840  12.051
76233W        W49301  40.224  35.931  14.649
76234W        W49302   9.206  24.611   1.806
76235W        W49303  27.922  36.928   0.722
76236W        W49304  19.229  17.069  12.484
76237W        W49305  12.704  22.253  12.057
76238W        W49306  22.834   3.806  11.078
76239W        W49307  41.114   4.278   2.639
76240W        W49308  13.529   2.965  11.026
76241W        W49309  22.771   5.315   1.740
76242W        W49310  11.069   0.998   0.200
76243W        W49311   3.850  13.763   2.492
76244W        W49312   3.334  12.751  11.699
76245W        W49313  32.571   2.349   1.826
76246W        W49314  18.179  19.282  13.289
76247W        W49315  11.329  13.221  11.012
76248W        W49316  33.961  40.592  10.754
76249W        W49317  11.426  36.261   0.416
76250W        W49318  21.093  26.296   3.172
76251W        W49319  41.338  21.065   1.480
76252W        W49320   9.100  25.413  14.043
76253W        W49321  11.216   2.373   2.077
76254W        W49322  34.431  11.514  11.821
76255W        W49323  15.071  10.277  12.356
76256W        W49324  43.885   6.052   2.154
76257W        W49325  30.398  36.010   3.070
76258W        W49326   4.927  11.883   2.815
76259W        W49327  24.117  23.650  11.260
76260W        W49328  33.550  41.818  10.694
76261W        W49329   3.183  21.327   4.117
76262W        W49330  19.102   8.643  14.014
76263W        W49331  29.405   9.626   0.469
76264W        W49332  24.810  32.878   1.459
76265W        W49333  38.300  19.582   3.922
76266W        W49334  14.654  41.716   3.731
76267W        W49335  37.128  22.118  11.700
76268W        W49336  27.915  10.170   1.875
76269W        W49337  14.732   0.718  14.063
76270W        W49338   9.232  32.415   0.492
76271W        W49339   8.676  33.647   0.298
76272W        W49340  14.116  23.474   4.002
76273W        W49341  36.552  10.278   4.771
76274W        W49342  15.719  16.762  12.117
76275W        W49343  42.877  12.287   4.146
76276W        W49344  40.264  12.340   4.216
76277W        W49345  35.086   7.274  13.887
76278W        W49346  25.861  28.092   0.353
76279W        W49347  27.111  43.544   1.953
76280W        W49348  40.875  40.371  13.106
76281W        W49349  30.734  27.174  13.269
76282W        W49350  27.282  34.948  12.830
76283W        W49351  32.639   7.442   4.055
76284W        W49352  33.983  42.276  13.932
76285W        W49353  14.372  26.858  12.188
76286W        W49354  21.025  26.552  14.004
76287W        W49355  40.291  40.068   2.839
76288W        W49356   8.727  24.687   4.138
76289W        W49357  28.063  24.999   2.202
76290W        W49358   9.136  23.083   0.425
76291W        W49359  17.630  19.653   4.147
76292W        W49360  12.275  24.832  12.538
76293W        W49361  21.264  33.161  13.543
76294W        W49362  12.770  27.744  14.475
76295W        W49363   2.327   2.330   2.459
76296W        W49364  31.542  39.804   3.249
76297W        W49365  20.631  11.624   2.644
76298W        W49366  18.814  18.213  13.535
76299W        W49367  22.744  31.495   0.281
76300W        W49368  29.292  32.052  14.279
76301W        W49369  25.646  26.024  14.550
76302W        W49370   5.733  11.377  10.767
76303W        W49371  11.733  44.322   3.832
76304W        W49372   5.961   9.920   4.333
76305W        W49373   4.839  15.125  14.729
76306W        W49374  13.081  36.997  13.833
76307W        W49375  22.577  22.011  11.393
76308W        W49376   2.888  25.897  14.091
76309W        W49377   7.444  21.067   4.624
76310W        W49378  44.500   7.878   0.489
76311W        W49379  22.689  37.352   2.849
76312W        W49380  24.236  24.119  11.499
76313W        W49381  26.094  18.681  12.055
76314W        W49382  15.462  27.119   4.365
76315W        W49383  22.501   0.363  11.697
76316W        W49384  15.659  38.971  12.986
76317W        W49385  42.921  17.725   1.211
76318W        W49386  32.161  18.136  13.548
76319W        W49387  39.288  15.253   4.287
76320W        W49388   7.467  40.545  14.302
76321W        W49389  34.982   8.875   1.928
76322W        W49390  35.446  35.058  12.496
76323W        W49391  36.957  12.670   4.007
76324W        W49392  44.219  29.956   2.396
76325W        W49393  37.580  36.992  14.749
76326W        W49394  16.110  26.061  14.028
76327W        W49395  25.222  14.617   0.522
76328W        W49396   2.204  38.900   0.153
76329W        W49397  14.259  25.769   4.716
76330W        W49398  12.351  39.388  13.518
76331W        W49399   5.514   5.648   3.126
76332W        W49400  28.053   2.766   1.481
76333W        W49401  35.773  28.963   0.484
76334W        W49402  38.225  29.581  12.359
76335W        W49403  14.269  15.243  12.088
76336W        W49404   6.358   8.266  12.399
76337W        W49405   7.897  39.389  11.648
76338W        W49406  37.091  34.122   2.183
76339W        W49407  37.439  31.232  14.309
76340W        W49408   6.155  30.410  10.348
76341W        W49409   7.059  12.576  10.714
76342W        W49410  16.191  22.133  14.402
76343W        W49411  20.705   9.320   3.243
76344W        W49412  37.360  37.783   4.172
76345W        W49413  16.781   8.574  14.422
76346W        W49414  11.263   4.166  14.748
76347W        W49415  28.651  10.477   5.484
76348W        W49416  34.980  26.534  11.621
76349W        W49417   2.677  41.794   1.962
76350W        W49418  44.493  30.688   3.149
76351W        W49419  27.922  43.365  12.084
76352W        W49420  39.798  10.068   0.086
76353W        W49421  33.991   3.311  10.627
76354W        W49422  34.928  17.337  14.880
76355W        W49423  34.957  29.608  10.659
76356W        W49424  40.558  17.718  12.074
76357W        W49425  23.735  19.057  13.299
76358W        W49426  30.421  31.529   3.210
76359W        W49427  34.856  43.410   2.587
76360W        W49428  19.609  31.756  12.007
76361W        W49429   8.434  21.976   0.789
76362W        W49430  35.302  36.644  14.930
76363W        W49431  28.646  28.026  13.978
76364W        W49432  41.421  20.433  12.044
76365W        W49433  39.464  25.836   0.438
76366W        W49434  22.205  21.638   3.057
76367W        W49435  44.606  37.553  10.723
76368W        W49436   0.556  21.270   3.664
76369W        W49437   5.719  40.305   3.556
76370W        W49438   5.027  24.513  12.735
76371W        W49439  11.928  37.631  11.194
76372W        W49440   4.752  28.022   2.676
76373W        W49441  21.761  44.373  12.854
76374W        W49442  13.192   9.876   4.083
76375W        W49443  36.906  27.877  13.506
76376W        W49444  13.127  18.740   3.720
76377W        W49445  21.574   8.088  11.036
76378W        W49446  44.487   0.065   4.099
76379W        W49447  21.049  17.645  11.945
76380W        W49448   7.728  16.500   3.915
76381W        W49449  13.996  20.401  11.539
76382W        W49450  23.227  22.123   1.757
76383W        W49451  16.172  28.479  13.364
76384W        W49452   2.688   9.748  10.605
76385W        W49453   0.977   6.068   2.947
76386W        W49454  39.310  33.600   1.295
76387W        W49455  24.640  15.307   1.899
76388W        W49456  17.911  21.701  11.414
76389W        W49457  32.700  28.959   2.595
76390W        W49458  35.598  18.121   4.308
76391W        W49459  44.369  27.527   0.256
76392W        W49460  37.385  35.168  14.369
76393W        W49461   7.559   5.793  11.599
76394W        W49462  33.993   8.594   2.628
76395W        W49463  13.650  11.839  11.256
76396W        W49464  17.038   7.684  13.370
76397W        W49465  24.222   3.863  13.774
76398W        W49466  37.106  23.335   1.567
76399W        W49467  16.817  15.740   0.747
76400W        W49468  29.666  34.266  13.768
76401W        W49469  18.688  40.917   4.604
76402W        W49470   1.845  19.103   3.235
76403W        W49471  38.131  16.680  12.460
76404W        W49472  44.950  22.242  11.113
76405W        W49473   9.141  26.048   3.988
76406W        W49474  17.605   3.075  11.420
76407W        W49475  31.059  44.298   2.259
76408W        W49476  38.425   2.936   3.458
76409W        W49477   2.033  23.016   3.337
76410W        W49478  23.392  41.008  12.697
76411W        W49479   9.370   5.672  14.504
76412W        W49480   9.811  40.475  13.075
76413W        W49481  19.606   2.745   1.792
76414W        W49482  35.566   5.893   3.186
76415W        W49483  11.207  36.967  13.319
76416W        W49484   5.058  38.305   4.575
76417W        W49485  10.921  16.114   4.166
76418W        W49486  31.227  34.595  11.555
76419W        W49487  23.246  40.193   0.621
76420W        W49488  20.244  28.948   2.889
76421W        W49489  41.350  14.389   0.806
76422W        W49490  13.712  26.190  11.217
76423W        W49491  15.642  11.273   0.602
76424W        W49492  17.684  39.802  10.576
76425W        W49493  32.155  20.659   1.358
76426W        W49494  18.323  34.416  11.208
76427W        W49495   6.340   6.902  11.382
76428W        W49496  22.017  12.264  10.749
76429W        W49497   8.365   8.586   2.691
76430W        W49498   8.329  19.164   0.012
76431W        W49499  43.401  19.713   3.197
76432W        W49500  33.083   2.006   2.357
76433W        W49501   5.883  28.930  10.713
76434W        W49502  43.034   2.446   4.890
76435W        W49503  30.095  25.691  12.998
76436W        W49504  13.901  11.320   1.853
76437W        W49505  26.116  16.052   3.695
76438W        W49506  38.848  40.813   1.020
76439W        W49507  30.440  18.596   3.604
76440W        W49508   3.737  31.351  13.228
76441W        W49509  11.162  15.518  14.305
76442W        W49510  35.455  41.378  13.198
76443W        W49511  44.379   6.555   0.941
76444W        W49512  42.660  31.268   4.148
76445W        W49513  29.470  23.111   2.561
76446W        W49514  32.522  43.908  11.911
76447W        W49515   0.323  25.509   4.737
76448W        W49516  20.729   8.356   2.781
76449W        W49517  12.398  44.345  11.685
76450W        W49518  37.429  40.458  13.707
76451W        W49519   9.687  29.871   0.298
76452W        W49520  11.669   3.767   4.227
76453W        W49521  33.606  35.931   0.285
76454W        W49522  12.381  42.000   4.129
76455W        W49523   8.759  13.218   0.198
76456W        W49524  19.330   0.341   3.751
76457W        W49525  33.855   8.311   4.267
76458W        W49526  29.106  30.602   4.765
76459W        W49527  13.798  19.636  13.190
76460W        W49528  34.082  41.726  12.607
76461W        W49529  32.305  28.120   2.652
76462W        W49530   3.346  20.678   0.764
76463W        W49531  27.726  10.510  12.916
76464W        W49532  40.546  30.707  12.509
76465W        W49533  41.350  44.460  12.312
76466W        W49534  37.855  14.407   0.280
76467W        W49535  33.538  21.599  11.267
76468W        W49536   8.843  42.534   2.723
76469W        W49537  28.678   7.736  12.545
76470W        W49538  20.629   5.342  14.593
76471W        W49539  40.875  12.889  12.980
76472W        W49540  19.751  39.557   4.859
76473W        W49541  31.765  19.457  12.559
76474W        W49542  31.058  18.971  14.481
76475W        W49543   0.797  44.451   4.662
76476W        W49544  28.913  23.231   3.686
76477W        W49545   6.799  13.792  14.114
76478W        W49546  27.492  36.426  14.847
76479W        W49547  19.994   0.776  11.650
76480W        W49548  10.640  37.570  10.710
76481W        W49549  22.584  30.930  10.396
76482W        W49550   7.465  32.508   3.719
76483W        W49551  42.360  15.383   0.348
76484W        W49552  34.809  11.796   1.983
76485W        W49553  25.002  15.859   1.414
76486W        W49554   6.363  40.152   4.175
76487W        W49555   1.866  37.350   4.192
76488W        W49556  25.072  39.528   2.738
76489W        W49557  43.337  17.932  12.424
76490W        W49558  35.582  31.597   2.386
76491W        W49559  15.591  17.011  12.580
76492W        W49560  25.636  28.103   9.793
76493W        W49561  42.490  39.290   2.257
76494W        W49562  17.056  29.887   0.453
76495W        W49563  38.902  37.973  14.421
76496W        W49564  36.912  42.369  13.366
76497W        W49565  21.632   1.856  13.167
76498W        W49566  31.397   3.522   0.397
76499W        W49567  44.342   5.391   1.847
76500W        W49568   2.795  22.134  10.628
76501W        W49569  33.054  22.491   0.081
76502W        W49570  20.445   0.358   1.937
76503W        W49571  31.887  15.814   2.221
76504W        W49572   0.049  24.773   3.005
76505W        W49573  15.087  19.182   4.903
76506W        W49574  21.532  10.658   3.197
76507W        W49575  33.288  23.777   1.307
76508W        W49576  31.398  41.268   2.258
76509W        W49577  28.720  38.502   1.151
76510W        W49578  15.334   2.481   2.635
76511W        W49579  44.431   5.400  12.576
76512W        W49580  41.843   8.679   2.837
76513W        W49581   2.290  41.559  12.919
76514W        W49582  26.965  23.001  12.426
76515W        W49583  42.736  44.774  13.100
76516W        W49584  10.347  10.073  11.139
76517W        W49585   6.828  42.408  14.650
76518W        W49586  22.122  18.237   4.275
76519W        W49587  16.230  28.163   4.837
76520W        W49588  36.953  21.653   2.936
76521W        W49589   2.054  29.159   3.667
76522W        W49590  23.714  43.499  12.045
76523W        W49591  10.870  33.347   0.774
76524W        W49592  19.010  11.212  14.228
76525W        W49593  11.734  33.831   1.832
76526W        W49594  11.785  42.349   0.764
76527W        W49595  34.781  31.155  14.808
76528W        W49596  11.547  39.237   0.639
76529W        W49597  18.685  28.195   3.700
76530W        W49598  11.294  12.574  13.880
76531W        W49599  39.883  41.587   1.053
76532W        W49600  13.881   9.282  12.358
76533W        W49601  11.650  35.829  11.641
76534W        W49602  34.228  19.639  11.036
76535W        W49603   4.015   4.694   2.911
76536W        W49604  44.810  29.802  12.975
76537W        W49605  31.300  19.606  12.735
76538W        W49606  13.047   1.923   1.314
76539W        W49607   5.099  29.969   1.321
76540W        W49608   0.379   5.147   1.188
76541W        W49609  15.329  37.028   3.320
76542W        W49610   3.408  20.364  14.808
76543W        W49611  10.306  36.948  13.300
76544W        W49612  12.965  14.198  14.531
76545W        W49613  26.069  16.300   0.369
76546W        W49614   5.656  14.216   2.051
76547W        W49615   9.999   2.265  12.461
76548W        W49616  30.979  33.443  13.059
76549W        W49617  43.236  11.663  12.946
76550W        W49618  31.037  42.575  14.236
76551W        W49619  19.058  30.569   1.977
76552W        W49620  41.103  37.009  14.846
76553W        W49621  17.351   5.141  12.403
76554W        W49622  35.811  13.198  12.139
76555W        W49623   7.414   0.974  12.640
76556W        W49624  24.012  34.657   1.140
76557W        W49625  43.760   7.729  14.782
76558W        W49626  16.192  34.495  14.211
76559W        W49627  17.413  37.556  13.564
76560W        W49628  19.783   7.988  14.533
76561W        W49629  28.533  42.831   2.615
76562W        W49630   6.997  32.165  12.915
76563W        W49631  40.557   1.954  12.659
76564W        W49632  26.502  15.527  11.248
76565W        W49633  43.475  33.341  10.316
76566W        W49634  36.434   5.520  12.182
76567W        W49635  41.806  35.994  10.526
76568W        W49636  43.827   9.374  14.728
76569W        W49637  35.568  22.778  12.031
76570W        W49638   6.605  44.671   0.071
76571W        W49639  25.105  15.592   0.599
76572W        W49640  34.840   9.331   1.722
76573W        W49641  19.668  14.861  12.416
76574W        W49642  17.300  29.657   3.208
76575W        W49643   3.677  22.210   0.014
76576W        W49644  43.081  31.986  11.182
76577W        W49645  44.392  22.764   3.299
76578W        W49646  18.999  29.395  13.077
76579W        W49647   8.040  42.988   1.344
76580W        W49648  21.360  36.450   1.836
76581W        W49649  13.045   5.688  14.662
76582W        W49650  11.867  11.649  12.847
76583W        W49651  35.463  11.283   2.394
76584W        W49652  13.249  27.193   1.782
76585W        W49653  14.306   8.937   1.869
76586W        W49654  16.971  39.560  13.718
76587W        W49655  32.038  38.906  13.259
76588W        W49656  23.991   3.437   1.015
76589W        W49657  30.612  19.755  11.242
76590W        W49658  32.704  18.816  12.872
76591W        W49659   0.905  10.821   4.809
76592W        W49660  27.739   1.471   1.779
76593W        W49661  39.542  42.528  13.896
76594W        W49662  22.449  37.275  12.568
76595W        W49663  32.612  10.926   3.520
76596W        W49664  21.002  16.706  12.635
76597W        W49665  42.350  17.450  14.870
76598W        W49666  11.274  11.804   3.689
76599W        W49667  32.644  37.347   3.703
76600W        W49668  22.990  40.958   2.788
76601W        W49669   0.473  44.555  11.024
76602W        W49670   0.531  39.030   3.637
76603W        W49671  40.472  32.602   1.357
76604W        W49672   8.887  44.243  13.571
76605W        W49673  31.021  20.000  12.871
76606W        W49674  29.000  10.856   3.165
76607W        W49675  35.454  36.827   3.113
76608W        W49676  42.824  18.754   1.764
76609W        W49677  43.783  23.975  13.120
76610W        W49678  18.230  41.761  12.124
76611W        W49679  13.062  28.128   1.072
76612W        W49680  13.193  33.386   4.608
76613W        W49681  28.446  20.065   3.336
76614W        W49682  23.795   1.806   1.717
76615W        W49683  33.131  19.773  13.484
76616W        W49684   0.903  11.892  12.503
76617W        W49685  10.200  41.818  13.027
76618W        W49686  22.938  40.327  11.590
76619W        W49687   3.257  20.307  12.998
76620W        W49688  19.376   4.580  11.238
76621W        W49689   2.858  22.551   4.237
76622W        W49690  32.140  42.272   2.263
76623W        W49691   1.035  16.711   1.662
76624W        W49692  24.035  37.845   3.029
76625W        W49693   4.149  32.179  14.732
76626W        W49694  16.191  35.487   3.928
76627W        W49695  41.031  31.448   4.281
76628W        W49696  32.888  20.816  13.453
76629W        W49697  28.122  43.447   1.840
76630W        W49698   7.434  28.525   1.324
76631W        W49699  15.909  31.756   4.133
76632W        W49700  12.758   2.296   0.466
76633W        W49701  23.298  38.083   4.121
76634W        W49702   5.270  43.923  11.894
76635W        W49703   7.450  10.157  12.631
76636W        W49704  39.466   9.481  13.459
76637W        W49705  28.077  30.985  14.978
76638W        W49706  37.424   5.627   1.967
76639W        W49707   9.874  34.878  14.269
76640W        W49708  15.142  28.662   0.841
76641W        W49709  32.859  19.930  11.084
76642W        W49710   3.342  12.140  10.522
76643W        W49711   3.837  38.779   4.580
76644W        W49712  36.671  29.745   1.782
76645W        W49713  29.793  35.946   1.952
76646W        W49714  41.232  15.369  13.477
76647W        W49715  35.566  12.751   4.084
76648W        W49716  35.636  36.082   2.457
76649W        W49717  20.323   3.819   0.864
76650W        W49718  28.007  30.797  12.847
76651W        W49719  34.521  37.831   2.816
76652W        W49720  31.544  15.788  12.093
76653W        W49721  31.107  44.428   4.627
76654W        W49722   2.886  12.172   3.286
76655W        W49723  35.852  28.701   0.952
76656W        W49724   7.442  31.435  14.791
76657W        W49725   9.075  44.433   2.605
76658W        W49726  18.979  17.579  12.955
76659W        W49727  34.560   4.691   3.314
76660W        W49728   8.161  28.087   1.046
76661W        W49729  30.143   8.221  10.926
76662W        W49730  20.673  16.107   0.599
76663W        W49731  15.157  43.330  12.888
76664W        W49732  27.970  25.334  10.107
76665W        W49733  37.965   2.407   4.222
76666W        W49734  11.622  28.320  12.600
76667W        W49735  21.633   4.434  10.644
76668W        W49736  20.194  23.227   3.754
76669W        W49737  31.912  40.274  13.562
76670W        W49738  25.278  33.109  11.584
76671W        W49739   3.812  35.916  14.301
76672W        W49740  36.770  25.196   0.201
76673W        W49741  26.112  29.114   2.756
76674W        W49742  43.275  41.747  13.570
76675W        W49743  24.666  28.520   2.745
76676W        W49744  17.048  32.417  12.545
76677W        W49745   7.207  42.370   0.431
76678W        W49746  23.210   4.441  10.562
76679W        W49747  39.073  37.909   3.907
76680W        W49748   5.752  23.631   1.232
76681W        W49749  10.332   4.478   3.174
76682W        W49750  21.695  34.483   3.118
76683W        W49751  31.036  13.849   1.017
76684W        W49752  10.083  11.088   0.594
76685W        W49753   2.455   6.434  14.485
76686W        W49754  29.558  35.835  11.239
76687W        W49755   1.670  16.482  14.500
76688W        W49756  42.084  14.751   4.521
76689W        W49757  20.155  35.796  11.491
76690W        W49758  40.838  27.169  13.923
76691W        W49759   7.194  33.245   0.535
76692W        W49760  10.381  20.704  12.558
76693W        W49761  19.360   5.547  11.090
76694W        W49762  40.299  19.354   3.658
76695W        W49763  42.526  39.323   3.120
76696W        W49764  22.545  26.112  13.402
76697W        W49765  11.834  12.113   0.396
76698W        W49766  11.221  19.851   4.129
76699W        W49767   5.631   9.171   0.925
76700W        W49768  13.851  29.424   2.764
76701W        W49769  11.791  10.752  10.655
76702W        W49770   4.905   6.183   4.067
76703W        W49771  36.003  19.727  10.743
76704W        W49772   4.019   0.327   3.129
76705W        W49773  20.482  32.737   4.561
76706W        W49774  28.061  44.431   0.295
76707W        W49775   2.971  21.102   2.780
76708W        W49776  28.017  42.427   4.696
76709W        W49777   4.904  38.458  11.918
76710W        W49778   2.806   3.731  13.838
76711W        W49779  21.367   5.143  13.747
76712W        W49780  43.469  30.675  14.394
76713W        W49781   7.238  15.265  11.806
76714W        W49782   8.853  21.968   3.835
76715W        W49783   7.863   3.315  11.742
76716W        W49784  17.293  42.996  12.179
76717W        W49785  43.936  11.274  13.060
76718W        W49786  20.196  23.555   0.690
76719W        W49787  30.698   9.676   2.162
76720W        W49788   6.467  14.986  10.653
76721W        W49789   3.181  19.563   4.588
76722W        W49790  43.931  27.499   4.583
76723W        W49791  14.424  15.354  13.424
76724W        W49792  37.519   8.921   2.996
76725W        W49793  16.630  15.142   1.633
76726W        W49794  11.136  10.372   1.901
76727W        W49795   8.001  35.781  13.240
76728W        W49796  36.399   6.748   0.496
76729W        W49797  12.192  33.801  10.810
76730W        W49798  44.564  38.989  10.451
76731W        W49799  39.982  20.102   3.504
76732W        W49800  34.094  41.623   3.199
76733W        W49801  28.933  24.213   0.800
76734W        W49802  10.895   0.837  12.539
76735W        W49803  24.801  38.798  14.319
76736W        W49804   4.255   9.269   1.486
76737W        W49805  19.834  21.250  13.080
76738W        W49806   9.274  16.764   1.484
76739W        W49807  21.706  20.629   0.167
76740W        W49808  35.332   3.702   0.551
76741W        W49809  24.227  39.347   1.812
76742W        W49810  41.522  10.632  11.727
76743W        W49811  17.657   0.996   2.590
76744W        W49812   2.590  13.872  11.171
76745W        W49813   5.152  13.353   0.773
76746W        W49814  32.078  12.548   1.466
76747W        W49815  27.514   3.016   2.218
76748W        W49816  37.834   8.209   4.999
76749W        W49817  17.580   1.873   4.829
76750W        W49818  21.622  36.388   0.486
76751W        W49819  20.656   0.886   3.658
76752W        W49820  39.296  21.648   0.309
76753W        W49821  14.354  39.097   2.465
76754W        W49822  16.067  13.800  13.979
76755W        W49823  31.671  15.174  14.259
76756W        W49824  20.100  26.895   1.408
76757W        W49825  28.118  42.420   2.827
76758W        W49826   3.810  14.781   4.193
76759W        W49827  15.534  35.097   2.479
76760W        W49828  27.909  42.027   0.250
76761W        W49829  38.617  44.960   3.140
76762W        W49830  16.476  18.276   4.141
76763W        W49831  11.476  40.297  14.832
76764W        W49832   2.673  39.496  13.916
76765W        W49833   4.129   5.240  11.088
76766W        W49834  33.523  29.893   3.598
76767W        W49835  15.141  32.638   0.455
76768W        W49836  38.653  26.047   1.136
76769W        W49837  14.131  37.552  12.899
76770W        W49838  36.692  29.484   4.227
76771W        W49839  41.860  40.528   2.362
76772W        W49840  38.489  38.918   4.445
76773W        W49841  34.402   6.800  13.793
76774W        W49842  16.806   9.647  11.356
76775W        W49843  35.561   8.450   2.856
76776W        W49844   7.236  38.379  14.312
76777W        W49845  21.128  11.280   4.173
76778W        W49846  17.816   2.940  14.910
76779W        W49847  14.621  30.919  12.205
76780W        W49848  10.620   0.967   2.864
76781W        W49849  43.463  18.236  14.962
76782W        W49850  38.466  42.167   4.155
76783W        W49851  22.628   0.490  10.744
76784W        W49852  39.307   7.259  13.899
76785W        W49853  24.444   1.258  13.356
76786W        W49854   6.188  22.676   1.272
76787W        W49855  22.656   8.832  14.627
76788W        W49856  19.528   8.847   3.254
76789W        W49857  16.602  39.849   3.702
76790W        W49858  26.656  39.598  12.028
76791W        W49859  14.972   6.652   1.650
76792W        W49860   7.169  44.984  12.383
76793W        W49861  38.967  38.682   2.748
76794W        W49862  35.689  17.101  11.588
76795W        W49863  24.666  27.195   1.320
76796W        W49864   0.336   6.766  11.149
76797W        W49865   5.379  39.492   2.654
76798W        W49866  36.083  11.500  11.070
76799W        W49867   1.743   3.482  13.216
76800W        W49868  18.989  31.519  11.206
76801W        W49869  26.996  11.896   3.266
76802W        W49870  12.849  34.471  12.997
76803W        W49871  24.926  19.621  13.399
76804W        W49872  37.824  20.051  13.941
76805W        W49873  16.698  10.234  10.670
76806W        W49874  25.873  23.297   0.702
76807W        W49875  12.535  30.927   2.909
76808W        W49876  44.771  41.696  13.324
76809W        W49877   0.958  12.259   3.802
76810W        W49878   1.888  31.118  12.028
76811W        W49879  13.767  23.670  12.517
76812W        W49880  11.864  25.028  11.025
76813W        W49881  44.516  34.007  12.942
76814W        W49882  30.309  13.818   4.448
76815W        W49883  36.354  11.393  11.609
76816W        W49884   1.864   6.928   4.554
76817W        W49885  11.256  29.629  13.926
76818W        W49886  43.903  41.111  11.740
76819W        W49887   1.156  15.634   2.669
76820W        W49888   5.005  25.374  13.978
76821W        W49889  35.362   6.141  13.873
76822W        W49890  16.725  30.407  14.427
76823W        W49891  25.442  36.207  10.898
76824W        W49892  11.630  32.827  14.201
76825W        W49893  36.350  35.390   2.527
76826W        W49894  44.323  10.600   0.121
76827W        W49895  40.563  31.901  13.081
76828W        W49896  12.240  25.239  12.860
76829W        W49897  16.268  35.324  14.608
76830W        W49898  22.926  31.614  12.600
76831W        W49899  42.750  16.640  14.553
76832W        W49900  29.038  31.643   3.760
76833W        W49901  21.231  29.876   3.700
76834W        W49902  10.210  10.690  12.254
76835W        W49903  15.257  40.324   0.438
76836W        W49904   0.314  44.733  11.486
76837W        W49905  30.531  10.964  12.661
76838W        W49906  27.507   0.111   0.013
76839W        W49907  36.262  13.370   4.155
76840W        W49908  31.349   1.810  12.269
76841W        W49909  26.551  27.508   0.737
76842W        W49910  29.938  24.206  11.238
76843W        W49911  36.282  18.500  12.882
76844W        W49912   9.479  40.560   0.708
76845W        W49913   2.906  11.582  12.127
76846W        W49914  38.387   0.419   4.595
76847W        W49915  17.653   2.913   2.313
76848W        W49916  19.096  33.459   4.584
76849W        W49917   2.245  34.490   0.103
76850W        W49918  17.547  43.348  12.559
76851W        W49919  33.462  43.864   0.767
76852W        W49920  41.867  30.155  13.329
76853W        W49921  19.022  16.633  13.153
76854W        W49922  19.774  40.844  13.024
76855W        W49923  37.912  32.360   3.199
76856W        W49924  25.542  37.875   3.141
76857W        W49925  36.106  15.212  11.098
76858W        W49926  35.284   8.328  13.839
76859W        W49927   5.478  29.493   3.273
76860W        W49928  37.055  11.335   0.237
76861W        W49929  22.729  28.673  12.435
76862W        W49930   7.228   7.104  12.605
76863W        W49931  19.843   3.849   0.739
76864W        W49932  39.282  15.663  11.467
76865W        W49933  39.324  14.408   1.308
76866W        W49934  35.523   4.998  14.876
76867W        W49935  39.936  34.643   4.137
76868W        W49936  10.723  24.255   4.744
76869W        W49937  22.787  39.254   3.251
76870W        W49938  38.912  44.865   2.695
76871W        W49939  33.133  12.329   3.074
76872W        W49940  41.324   0.333   3.244
76873W        W49941   6.679  21.829  11.035
76874W        W49942  23.030  21.785   3.117
76875W        W49943  39.107  38.060   3.431
76876W        W49944  19.015   3.387  11.988
76877W        W49945  35.040  30.592  11.987
76878W        W49946   1.234   1.171  12.983
76879W        W49947  21.203   1.583  10.174
76880W        W49948  29.455   7.194  13.983
76881W        W49949  26.306  31.959  13.596
76882W        W49950  19.529  44.975  12.482
76883W        W49951  40.643  35.061   0.403
76884W        W49952  10.308  10.121   4.147
76885W        W49953  26.501   3.519   2.257
76886W        W49954  21.553  29.837   0.873
76887W        W49955  12.447  20.100   2.801
76888W        W49956  15.442  39.081   0.850
76889W        W49957  28.143  42.795   4.059
76890W        W49958  40.239  16.377   0.364
76891W        W49959  22.442   2.319  13.437
76892W        W49960  28.226  44.370  12.976
76893W        W49961  31.932  21.193   4.550
76894W        W49962  39.027  10.119  11.031
76895W        W49963  17.226  30.300   0.102
76896W        W49964  11.193   7.646  12.560
76897W        W49965  28.535  27.580  11.124
76898W        W49966   1.134  31.087   1.147
76899W        W49967  24.054  30.134   4.385
76900W        W49968   6.867  37.078   2.321
76901W        W49969  33.525   3.696   2.347
76902W        W49970  15.803  10.685  14.424
76903W        W49971  21.513   9.646  11.749
76904W        W49972  22.741   4.773  12.082
76905W        W49973  12.253   9.966  13.644
76906W        W49974  41.069  42.846   0.063
76907W        W49975  18.819  44.876  14.090
76908W        W49976   9.855  34.569  11.013
76909W        W49977  12.118  39.195  13.978
76910W        W49978  16.374  32.116  14.251
76911W        W49979  36.434  42.746  13.404
76912W        W49980  38.398  38.079  14.412
76913W        W49981  23.217  23.615   3.368
76914W        W49982  24.427  17.885   0.640
76915W        W49983   3.507  15.757  14.902
76916W        W49984   3.399  38.720   2.633
76917W        W49985   3.004   4.009   4.432
76918W        W49986   0.813  44.651   0.484
76919W        W49987  31.953  36.360  14.554
76920W        W49988  28.985  43.505   4.013
76921W        W49989  35.134  43.564  14.367
76922W        W49990   0.344  16.337   1.279
76923W        W49991  11.923  22.196  12.445
76924W        W49992   6.953  27.146   4.326
76925W        W49993   4.221  44.697  12.428
76926W        W49994  43.706  20.627  13.274
76927W        W49995  37.657  25.486  13.983
76928W        W49996  13.165  28.695   3.726
76929W        W49997  28.397  26.501   3.267
76930W        W49998  30.168  18.595  13.254
76931W        W49999   1.546  43.409  13.887
76932W        W50000   4.493  29.428   3.145
76933W        W50001  42.250  30.482  13.617
76934W        W50002   7.408  10.235  14.053
76935W        W50003  17.214  18.375   4.613
76936W        W50004  14.251  26.687  11.725
76937W        W50005  13.684  42.335  14.583
76938W        W50006  36.419   6.676   4.112
76939W        W50007   6.476  31.637   4.161
76940W        W50008  33.377  29.580  14.084
76941W        W50009  43.277   0.827  11.741
76942W        W50010   6.208  25.519  11.398
76943W        W50011  15.560  32.549  10.804
76944W        W50012  40.746   3.352  12.836
76945W        W50013  15.083  23.639  12.001
76946W        W50014  37.805  24.002   4.181
76947W        W50015  10.472  19.050   0.558
76948W        W50016  13.815  24.990  14.942
76949W        W50017  16.543   7.659  13.521
76950W        W50018   2.849  21.617  10.632
76951W        W50019   2.541  25.622  11.586
76952W        W50020  26.187  31.678   4.622
76953W        W50021  40.562  18.749   0.416
76954W        W50022  21.913  35.617   3.689
76955W        W50023  25.031  19.517   2.295
76956W        W50024  35.589  19.370   0.468
76957W        W50025  37.583  33.210   0.136
76958W        W50026  18.378   7.376  12.982
76959W        W50027  34.040  17.827   0.387
76960W        W50028  33.611  37.572   1.253
76961W        W50029  29.820   8.229  12.422
76962W        W50030   7.975  37.132   4.833
76963W        W50031   2.826  38.582  14.341
76964W        W50032  36.257  32.177  11.518
76965W        W50033  26.818   2.617  11.971
76966W        W50034   1.663  40.726  11.517
76967W        W50035   4.247  39.585   4.510
76968W        W50036  44.346  36.501   3.269
76969W        W50037  35.081  15.690  10.705
76970W        W50038  44.582  32.821   0.756
76971W        W50039  10.858  15.630   4.012
76972W        W50040  18.748   4.846   1.314
76973W        W50041  40.797   8.299   1.785
76974W        W50042  31.847   2.743   1.852
76975W        W50043  22.048  28.289   0.478
76976W        W50044   6.096  27.042  10.754
76977W        W50045  37.332  35.623   0.359
76978W        W50046  33.079   1.530   0.312
76979W        W50047  21.012  43.614  14.394
76980W        W50048  15.001  23.637   3.027
76981W        W50049  23.101  36.817   1.589
76982W        W50050  32.661  33.094   3.213
76983W        W50051  11.276   1.821   1.815
76984W        W50052  23.561   4.261   1.613
76985W        W50053  29.497  13.840   2.129
76986W        W50054  22.254  38.905  12.004
76987W        W50055  42.853  44.341  11.954
76988W        W50056  42.903  21.676   3.590
76989W        W50057  12.219  27.911   3.417
76990W        W50058  42.296   7.474  14.510
76991W        W50059  13.998  36.145  12.089
76992W        W50060  20.654  43.232  11.213
76993W        W50061  32.949  28.503  11.676
76994W        W50062  32.378  34.809  11.144
76995W        W50063  28.739  41.543   0.413
76996W        W50064   0.747  15.206   3.793
76997W        W50065  23.330  44.856   1.863
76998W        W50066  38.484   2.289   1.187
76999W        W50067  17.421  39.561  13.395
77000W        W50068  36.454  23.503   0.756
77001W        W50069  16.719  19.312  13.436
77002W        W50070  20.690   7.986   1.203
77003W        W50071  27.375  21.717   0.426
77004W        W50072  26.440  44.371  11.466
77005W        W50073  23.264  41.970  11.129
77006W        W50074  20.121  35.941   1.338
77007W        W50075  32.733   7.737   4.591
77008W        W50076   6.839  37.744  14.640
77009W        W50077  21.634  30.454   2.922
77010W        W50078  25.706   8.296  13.794
77011W        W50079  15.519  30.170  13.598
77012W        W50080  20.107  28.946   0.698
77013W        W50081  37.382  19.076  10.694
77014W        W50082  33.634  20.534  14.593
77015W        W50083  40.562   9.442  14.695
77016W        W50084  24.223  34.449   0.106
77017W        W50085  13.588  34.171  14.400
77018W        W50086   9.667   3.597   2.450
77019W        W50087  31.011  44.912   3.395
77020W        W50088  25.024   9.116   4.876
77021W        W50089  22.148  31.068  14.740
77022W        W50090  37.232  37.516  12.055
77023W        W50091  16.028  33.921  11.610
77024W        W50092  17.207  27.404  11.190
77025W        W50093  14.823  42.539   1.778
77026W        W50094  35.872  27.261   0.896
77027W        W50095   3.710  23.630   4.602
77028W        W50096  29.471  30.663   2.755
77029W        W50097   4.941  12.195  11.626
77030W        W50098   1.717  27.152   0.411
77031W        W50099  25.077  11.042   1.676
77032W        W50100  17.824   9.323  14.168
77033W        W50101  18.069  23.232  14.988
77034W        W50102  33.566  24.893  14.282
77035W        W50103   5.241  40.037   3.676
77036W        W50104  42.268  23.562  11.127
77037W        W50105  27.417  31.409   3.675
77038W        W50106   1.968  33.191  11.538
77039W        W50107   8.128  23.965   2.323
77040W        W50108   6.591  32.609   3.361
77041W        W50109  38.093  44.840   0.968
77042W        W50110  44.977   3.929   0.997
77043W        W50111  30.158  13.156  12.356
77044W        W50112  14.550   0.747  10.819
77045W        W50113  27.097  40.965   4.138
77046W        W50114  35.230  27.478   4.589
77047W        W50115  41.286  25.559   4.900
77048W        W50116  25.275  10.843  13.004
77049W        W50117  27.956   4.316   5.169
77050W        W50118  43.426  36.811   4.207
77051W        W50119   3.015  25.601   3.328
77052W        W50120   1.744  26.164   3.309
77053W        W50121  41.362  20.623   4.461
77054W        W50122  32.156  12.170   0.231
77055W        W50123  24.044  41.379   3.112
77056W        W50124  15.273  19.086   0.372
77057W        W50125  19.570  43.820   3.804
77058W        W50126  21.221  34.842  11.951
77059W        W50127  15.668  16.970   3.401
77060W        W50128   3.469  11.418  11.211
77061W        W50129  32.191  43.217   3.347
77062W        W50130  21.584  11.853  14.799
77063W        W50131  30.732  26.985   0.527
77064W        W50132  21.170  27.689  11.580
77065W        W50133  14.563   8.266  12.180
77066W        W50134  28.185  11.232   4.199
77067W        W50135  24.660  38.407   4.061
77068W        W50136  10.672   6.534   2.715
77069W        W50137  26.482  44.983  10.756
77070W        W50138  44.934  33.485   4.272
77071W        W50139  33.319   5.964   1.902
77072W        W50140   9.311   1.808  13.951
77073W        W50141  12.359  19.048   3.570
77074W        W50142  24.049  17.649   1.942
77075W        W50143  39.618  12.677   4.096
77076W        W50144  12.747  34.254  12.547
77077W        W50145   1.465  15.679   3.632
77078W        W50146  25.347  39.133  12.858
77079W        W50147  22.757  26.537  10.711
77080W        W50148  40.843   5.294   2.205
77081W        W50149  19.976  44.140   3.932
77082W        W50150  43.795  18.000  10.731
77083W        W50151   5.518  18.635  11.423
77084W        W50152  40.876  24.294   2.362
77085W        W50153  20.756   1.936   2.731
77086W        W50154  37.438  27.247   2.774
77087W        W50155  21.863   8.943   0.827
77088W        W50156  16.535  25.495   1.453
77089W        W50157  44.656  19.637  13.230
77090W        W50158  12.827  22.012  14.790
77091W        W50159   7.259  20.217  14.108
77092W        W50160  20.645  29.588   1.996
77093W        W50161   1.363   1.666  13.013
77094W        W50162  27.473  20.144   2.660
77095W        W50163  10.235  31.790  13.082
77096W        W50164   7.571  44.290  12.507
77097W        W50165  44.802  13.368  12.439
77098W        W50166  36.101   3.266  12.002
77099W        W50167  12.772  31.963  14.946
77100W        W50168  39.844  39.307  14.088
77101W        W50169  28.712  17.041   2.228
77102W        W50170  25.629  23.688   2.649
77103W        W50171  34.018  31.608  14.740
77104W        W50172   5.846   7.651  12.394
77105W        W50173  17.111  42.865   4.579
77106W        W50174  32.553  19.160  14.461
77107W        W50175  35.972   0.712  13.411
77108W        W50176  10.641  19.346   3.841
77109W        W50177  14.616  41.551   4.732
77110W        W50178  40.916   0.708   1.746
77111W        W50179  37.927  44.815   2.911
77112W        W50180  41.301  15.232   0.396
77113W        W50181  43.603  42.896   2.637
77114W        W50182  36.948  28.569  14.643
77115W        W50183  33.819  24.521   3.953
77116W        W50184   5.268  41.981  10.595
77117W        W50185  30.530  13.457   4.127
77118W        W50186  41.273   5.492   1.916
77119W        W50187  34.192  28.614  13.989
77120W        W50188  18.245  21.326  11.541
77121W        W50189   7.642   9.406   4.186
77122W        W50190   9.862  26.277  14.462
77123W        W50191  10.558  40.535   1.527
77124W        W50192  35.538  36.650  13.535
77125W        W50193  34.722  20.261  11.855
77126W        W50194  33.456  23.337  13.412
77127W        W50195  12.633  34.593  14.898
77128W        W50196  10.664  18.864  12.633
77129W        W50197  42.041  10.508  11.824
77130W        W50198  38.790   3.467   1.424
77131W        W50199  43.896  21.477  10.662
77132W        W50200  30.403   0.324  13.674
77133W        W50201  43.298  35.102   0.813
77134W        W50202  34.353  26.207  12.097
77135W        W50203  40.915  21.548   3.453
77136W        W50204   9.827  43.272   2.792
77137W        W50205  11.655  26.042  14.534
77138W        W50206  35.889  28.718  12.418
77139W        W50207   2.827  28.420  14.045
77140W        W50208  38.039  25.370   5.036
77141W        W50209  37.479  44.419  13.077
77142W        W50210  35.932  28.604  13.732
77143W        W50211   7.967   8.964   1.931
77144W        W50212  19.447  39.827  11.981
77145W        W50213  14.276  25.095   3.715
77146W        W50214   5.564  20.656   3.973
77147W        W50215  10.781  30.086  13.138
77148W        W50216  44.729  28.083   4.141
77149W        W50217  25.024  20.192   4.678
77150W        W50218  14.383   8.651  11.173
77151W        W50219   2.220  33.445   0.294
77152W        W50220   3.996  13.125   3.705
77153W        W50221  20.580   3.204  11.509
77154W        W50222  12.797   4.475   2.340
77155W        W50223   6.896   6.220   0.730
77156W        W50224  32.443  38.615   4.158
77157W        W50225   7.318  26.916  13.480
77158W        W50226  24.642  33.326   4.189
77159W        W50227  13.531  27.561   3.233
77160W        W50228  26.379  22.832   2.299
77161W        W50229   9.764  32.474   0.467
77162W        W50230   2.902   1.453  11.457
77163W        W50231  31.943  37.683   2.198
77164W        W50232  27.091  14.741   2.807
77165W        W50233  19.047  17.627   1.409
77166W        W50234   9.169  31.882  13.809
77167W        W50235  31.472  15.539  10.950
77168W        W50236  17.334  25.545  11.968
77169W        W50237  28.688  11.163  14.490
77170W        W50238  18.051  44.237  11.654
77171W        W50239  18.602   6.388  10.693
77172W        W50240  12.750  31.068  14.800
77173W        W50241   4.898   3.350  12.987
77174W        W50242   1.520  19.933   4.076
77175W        W50243  41.174  32.327   5.196
77176W        W50244   7.723  17.764  13.814
77177W        W50245  11.462  10.868   4.424
77178W        W50246  28.901  20.789  13.872
77179W        W50247  10.667  34.401   4.136
77180W        W50248  31.912  28.624  13.988
77181W        W50249  33.709  40.059  12.359
77182W        W50250  26.200   1.855   1.531
77183W        W50251  38.115  37.013  14.792
77184W        W50252   4.868  31.443  11.984
77185W        W50253  42.505  13.996   5.062
77186W        W50254  18.295  18.180  13.546
77187W        W50255  26.676  17.222   3.573
77188W        W50256  24.369  26.549  12.430
77189W        W50257  18.608  35.287  12.383
77190W        W50258  21.698   6.536  11.728
77191W        W50259  15.616  19.790  13.995
77192W        W50260  19.192  34.798   0.478
77193W        W50261   1.597   8.464  12.618
77194W        W50262  33.938   0.506   1.789
77195W        W50263  34.423  36.325  10.747
77196W        W50264  31.604  22.216   3.292
77197W        W50265   3.195  32.186   3.796
77198W        W50266  15.583  30.679  13.679
77199W        W50267  30.029  26.932  11.132
77200W        W50268  17.766  43.803  12.327
77201W        W50269  31.603   0.452   0.152
77202W        W50270  15.391  36.841  14.858
77203W        W50271  34.145   5.486  10.890
77204W        W50272   9.726  21.738  14.768
77205W        W50273  27.993  35.904  14.482
77206W        W50274  31.545  37.479  14.419
77207W        W50275  23.391  39.329  13.876
77208W        W50276   9.834   1.576   4.601
77209W        W50277  38.597  16.901   4.134
77210W        W50278  16.060  21.412  14.955
77211W        W50279  22.988  19.682  11.539
77212W        W50280   9.344  16.213  11.782
77213W        W50281   6.725  39.754  13.083
77214W        W50282  24.720   1.191   3.485
77215W        W50283   5.791   5.321  14.289
77216W        W50284  34.605  42.016   0.976
77217W        W50285  23.189   3.594   4.984
77218W        W50286   0.489  15.611   3.994
77219W        W50287  22.680   0.952  10.505
77220W        W50288  25.445  18.426  13.963
77221W        W50289   3.462  43.467   3.127
77222W        W50290  43.581   9.919   3.853
77223W        W50291   6.476  29.954  13.498
77224W        W50292  31.980  42.873   0.875
77225W        W50293  26.151  17.865   1.580
77226W        W50294  42.794   1.714  13.793
77227W        W50295  40.065  37.329  13.606
77228W        W50296   2.528   1.919  13.321
77229W        W50297  11.729   7.691   3.856
77230W        W50298  41.374  28.584   4.486
77231W        W50299  27.095  10.771   2.708
77232W        W50300  42.955  14.387  14.471
77233W        W50301  43.188  38.088   4.736
77234W        W50302  28.697  41.496   3.424
77235W        W50303  35.278  10.395   2.803
77236W        W50304  44.859  12.842  11.552
77237W        W50305  27.118  44.563   0.372
77238W        W50306   0.254  43.550  12.633
77239W        W50307  35.426  29.605  12.902
77240W        W50308  22.515   3.744  12.488
77241W        W50309  23.095  22.621   4.250
77242W        W50310   6.194  42.901  14.532
77243W        W50311  30.985  44.159   5.119
77244W        W50312   8.062  22.575  12.492
77245W        W50313  42.959   4.180  13.962
77246W        W50314  10.346  13.343  12.701
77247W        W50315  24.482  43.499  14.434
77248W        W50316   0.013  14.397  10.829
77249W        W50317   4.438  29.922   0.143
77250W        W50318   1.179   4.341  11.676
77251W        W50319  22.751  10.840  13.849
77252W        W50320  16.196  43.844   3.706
77253W        W50321  35.334  35.281   4.252
77254W        W50322   2.720   5.700  11.069
77255W        W50323   1.059   1.031   5.046
77256W        W50324   2.138  30.682  11.857
77257W        W50325  33.174   5.052   2.250
77258W        W50326  28.200  15.337   3.748
77259W        W50327  28.504  21.133   4.165
77260W        W50328  44.338  41.525   0.643
77261W        W50329  10.811  10.879  11.046
77262W        W50330  27.665  14.689   4.599
77263W        W50331   7.475  10.732   3.205
77264W        W50332  17.305  21.362   1.842
77265W        W50333  26.098  17.146  12.011
77266W        W50334  42.302   5.085   2.676
77267W        W50335   6.346  39.295   1.504
77268W        W50336   6.429  37.526  12.940
77269W        W50337   3.419  12.834   4.240
77270W        W50338  29.498  21.254   4.107
77271W        W50339  23.505  42.417  13.907
77272W        W50340  18.646   4.434  11.395
77273W        W50341  16.291  33.602  11.122
77274W        W50342  43.663  31.658   3.589
77275W        W50343  42.366  17.628  10.638
77276W        W50344  43.248   3.714   3.565
77277W        W50345   1.193   1.227   1.191
77278W        W50346   3.036  13.895   2.799
77279W        W50347  37.070  23.664  10.572
77280W        W50348  14.843  12.233  13.052
77281W        W50349   6.306  36.489  10.713
77282W        W50350  36.717  36.662  14.932
77283W        W50351  26.033  11.606  10.568
77284W        W50352   7.011  26.535   0.299
77285W        W50353   6.297   8.618  14.873
77286W        W50354  30.653  38.992   4.961
77287W        W50355  26.198   8.314   0.476
77288W        W50356   8.451  40.480   0.570
77289W        W50357   3.277  13.628   4.622
77290W        W50358  40.556  22.337  12.421
77291W        W50359  40.989  13.563  14.416
77292W        W50360  44.962  44.508   2.681
77293W        W50361  38.117  43.925  14.961
77294W        W50362  13.331   2.351   1.120
77295W        W50363  38.895  42.241  10.757
77296W        W50364  17.440  12.239  14.219
77297W        W50365  26.136  14.309   1.309
77298W        W50366  37.966  36.538   3.251
77299W        W50367   2.323  26.132   4.669
77300W        W50368  41.921  24.308   3.875
77301W        W50369  13.763  33.363   0.058
77302W        W50370  41.828  16.110  12.056
77303W        W50371   3.730   8.370   4.146
77304W        W50372  36.316  19.782  13.407
77305W        W50373  31.661  33.758  13.829
77306W        W50374  31.050  25.700   1.163
77307W        W50375  36.998   7.125  10.476
77308W        W50376   5.256  20.202   1.121
77309W        W50377  23.243  21.046  12.873
77310W        W50378  30.400  38.950  10.656
77311W        W50379  36.832  35.415   0.394
77312W        W50380   3.912  13.852   4.333
77313W        W50381  40.362  42.059  11.626
77314W        W50382   7.427   6.330  11.476
77315W        W50383   9.265   5.900  11.730
77316W        W50384  28.085  25.233  13.379
77317W        W50385  19.417   8.448  11.061
77318W        W50386   8.252  38.848   2.212
77319W        W50387  38.121  17.078  12.021
77320W        W50388  31.136  36.635  14.394
77321W        W50389  33.301  44.794   0.975
77322W        W50390   2.191   5.805   4.254
77323W        W50391   0.026  44.356  14.971
77324W        W50392  23.088  14.008   0.878
77325W        W50393  18.108   3.516  11.540
77326W        W50394   1.871  36.787   0.188
77327W        W50395  21.271  41.655   1.449
77328W        W50396   2.949  31.463   2.184
77329W        W50397  34.014  35.478  12.302
77330W        W50398  26.122  23.631   1.527
77331W        W50399  31.204   5.902  12.360
77332W        W50400  16.008  34.973  14.305
77333W        W50401   8.320  41.583  13.106
77334W        W50402  16.418  14.329  11.196
77335W        W50403  42.785  20.725  10.307
77336W        W50404   8.230  14.844   0.806
77337W        W50405   4.558  34.443   2.119
77338W        W50406  27.955  19.156   3.729
77339W        W50407  13.088  21.034   3.633
77340W        W50408  18.506  17.609  14.794
77341W        W50409   0.412  31.979  10.933
77342W        W50410  43.844  43.996  14.758
77343W        W50411   0.889  36.073   4.654
77344W        W50412  33.605   1.528   5.129
77345W        W50413  18.736  33.339   3.343
77346W        W50414   4.891  27.645  11.278
77347W        W50415  25.252  40.641  11.006
77348W        W50416  15.742  40.638  11.388
77349W        W50417  23.370  13.760   3.832
77350W        W50418   2.517  36.101  14.791
77351W        W50419  28.176  44.394   2.176
77352W        W50420  17.714   6.876   3.048
77353W        W50421  17.764  15.660  14.766
77354W        W50422  31.809  11.734   0.962
77355W        W50423  33.843  15.232  10.635
77356W        W50424  31.527  36.067   1.103
77357W        W50425  34.204  44.099  14.298
77358W        W50426   2.787  30.277  12.730
77359W        W50427  14.567  35.874  13.986
77360W        W50428  24.761  31.566  10.579
77361W        W50429   8.954  36.234   1.403
77362W        W50430  32.114  21.562   0.486
77363W        W50431  23.096  36.427  14.587
77364W        W50432  21.593  12.514   2.943
77365W        W50433  30.012  26.453   4.755
77366W        W50434  44.332   9.386  11.530
77367W        W50435   4.825   7.927   4.184
77368W        W50436  38.019   0.561   2.163
77369W        W50437  21.966  27.606   2.428
77370W        W50438   7.621  21.975   2.715
77371W        W50439  42.161  37.241   3.136
77372W        W50440  22.694  15.033   2.741
77373W        W50441  35.103  11.654   3.708
77374W        W50442  43.293  41.892  12.580
77375W        W50443   1.093   7.555  14.856
77376W        W50444  26.115   1.849   4.398
77377W        W50445  43.765  22.826  11.647
77378W        W50446  19.518  36.097  14.738
77379W        W50447  24.035  32.444  12.524
77380W        W50448  29.380  30.106  13.309
77381W        W50449  28.652  15.690  12.518
77382W        W50450  27.115  21.876   0.854
77383W        W50451  24.820  32.383   4.123
77384W        W50452   1.108   5.570   3.044
77385W        W50453  31.477  36.525   2.156
77386W        W50454  24.108  14.572  11.969
77387W        W50455  14.047  39.746   1.770
77388W        W50456  25.500   2.962   1.429
77389W        W50457  38.530  41.502   3.115
77390W        W50458   6.698  38.150   3.706
77391W        W50459  33.653  29.933  11.962
77392W        W50460  39.877  26.732  14.338
77393W        W50461  34.461   6.666   3.886
77394W        W50462  30.541   6.173  14.033
77395W        W50463   1.317  18.301   4.683
77396W        W50464  14.234  17.754  11.662
77397W        W50465  25.782  41.369  13.963
77398W        W50466  15.766  13.393   1.828
77399W        W50467   3.368  39.085   5.104
77400W        W50468  40.964  44.794  11.469
77401W        W50469  22.629   5.942   4.155
77402W        W50470   8.014   3.809  14.114
77403W        W50471  41.994  32.097  10.756
77404W        W50472  20.990  13.847   1.765
77405W        W50473   2.566  41.916   4.093
77406W        W50474  29.138  19.767   2.371
77407W        W50475  24.326   9.016  12.799
77408W        W50476  29.890  20.723  10.576
77409W        W50477  41.842  40.265  10.417
77410W        W50478  36.067  29.196   2.763
77411W        W50479  42.851   5.748   3.781
77412W        W50480  11.479  38.287  12.494
77413W        W50481   9.735  42.027   5.093
77414W        W50482   9.749  19.390   2.027
77415W        W50483  19.245  27.943  10.740
77416W        W50484  43.090  18.680   3.064
77417W        W50485  37.403  18.685  13.843
77418W        W50486  32.706   4.314  11.149
77419W        W50487   3.749   7.349   2.020
77420W        W50488  41.062  35.496  11.529
77421W        W50489   7.652  32.682   4.177
77422W        W50490  16.308   7.116  12.052
77423W        W50491   5.881  28.401  10.688
77424W        W50492  32.396  11.889  12.486
77425W        W50493   1.912  37.239  11.790
77426W        W50494   8.352  32.740   3.695
77427W        W50495  26.005  40.182  12.319
77428W        W50496  43.922  40.070   0.299
77429W        W50497  21.568  44.401   1.416
77430W        W50498   2.444  29.937  12.501
77431W        W50499  17.374  27.928   2.818
77432W        W50500   7.872  35.610  10.692
77433W        W50501  39.820  23.613  11.237
77434W        W50502   8.149   6.156  14.941
77435W        W50503  28.140  37.463  13.387
77436W        W50504   0.733  33.446  11.216
77437W        W50505   5.236  35.095   1.279
77438W        W50506  20.944  13.998  14.896
77439W        W50507  36.588  19.705  14.457
77440W        W50508  37.562  14.018  12.945
77441W        W50509  18.725  44.719   2.158
77442W        W50510  24.187  11.470   1.846
77443W        W50511  37.996   2.225   0.952
77444W        W50512  39.787   0.799  14.820
77445W        W50513  11.879  37.317  11.625
77446W        W50514  10.190  27.040  11.507
77447W        W50515  35.481  39.493  13.911
77448W        W50516  42.385  22.058   4.225
77449W        W50517  16.643   7.806   3.950
77450W        W50518   3.025  40.051   0.453
77451W        W50519  19.843  27.831   0.511
77452W        W50520   5.523  35.577   0.364
77453W        W50521   2.899  10.799   3.104
77454W        W50522  24.117  39.362  11.861
77455W        W50523  25.162  21.944   3.511
77456W        W50524  33.040  17.988  13.962
77457W        W50525  40.075   8.684   4.998
77458W        W50526  41.195  23.247   1.221
77459W        W50527  18.093  23.671  13.406
77460W        W50528  42.729   2.900   4.865
77461W        W50529  20.218   6.405  10.384
77462W        W50530   4.487  42.018   1.357
77463W        W50531  43.626  37.122  13.595
77464W        W50532   4.209   1.868  13.918
77465W        W50533  15.749  28.998  14.641
77466W        W50534  19.774   5.652  10.696
77467W        W50535  28.582  35.942  13.102
77468W        W50536  44.493  30.662   4.153
77469W        W50537  22.417  12.828  13.511
77470W        W50538  12.288  39.386   3.882
77471W        W50539  22.218  37.401  14.143
77472W        W50540  30.138  35.858   1.224
77473W        W50541  37.463  42.254  14.913
77474W        W50542  28.599  39.852  14.078
77475W        W50543  27.492  33.414  13.932
77476W        W50544  17.570  29.499   1.343
77477W        W50545  14.799  11.784   1.174
77478W        W50546   7.317   0.178   3.248
77479W        W50547  38.690  38.477   2.328
77480W        W50548  15.232  12.063   0.297
77481W        W50549  10.639  20.709   4.155
77482W        W50550   7.695  27.203  13.193
77483W        W50551  13.771  30.111  11.758
77484W        W50552  37.436  36.641   3.308
77485W        W50553   0.674   8.934   1.832
77486W        W50554  43.477  18.834  10.527
77487W        W50555  38.043  10.997   4.393
77488W        W50556  42.513  43.362   0.700
77489W        W50557  20.071  41.268   2.427
77490W        W50558  23.090  25.650  11.070
77491W        W50559  12.440  10.182  11.095
77492W        W50560   8.837   0.515   2.900
77493W        W50561  11.588   3.048  11.215
77494W        W50562   8.864   2.866  12.403
77495W        W50563  18.762  26.602  10.872
77496W        W50564  20.086  34.931  14.778
77497W        W50565  37.276  22.249  12.781
77498W        W50566  11.253  34.123  11.649
77499W        W50567  44.495  38.413  14.257
77500W        W50568   4.816   2.981   0.570
77501W        W50569  25.605  24.922  13.519
77502W        W50570   9.876  29.028   2.820
77503W        W50571   1.337  21.261  14.204
77504W        W50572  41.509  36.123  12.554
77505W        W50573  30.021  28.491  12.132
77506W        W50574  12.554  23.730   3.239
77507W        W50575  30.577  16.335  10.545
77508W        W50576  31.100  11.759   4.682
77509W        W50577  16.117  18.048  10.886
77510W        W50578  32.592  16.870   2.748
77511W        W50579  18.348   8.361   0.715
77512W        W50580  36.634  40.263  14.415
77513W        W50581  14.055  16.879  12.521
77514W        W50582  32.868  39.938   1.431
77515W        W50583  41.117  16.098   3.625
77516W        W50584  24.605   7.070   4.013
77517W        W50585  40.885   8.220   2.702
77518W        W50586   5.933  36.116  10.737
77519W        W50587  37.256  10.440   1.239
77520W        W50588  14.310  15.298   4.802
77521W        W50589  43.627  12.523   2.288
77522W        W50590   9.772  30.319  13.399
77523W        W50591  37.666   3.247  10.230
77524W        W50592   9.185  24.587   3.343
77525W        W50593  12.345   7.672   2.751
77526W        W50594  20.048  21.157   0.877
77527W        W50595  33.121  35.010  14.808
77528W        W50596  13.772  34.553   1.423
77529W        W50597   6.737  15.593   1.681
77530W        W50598  32.143  21.772   3.701
77531W        W50599  22.582  34.383  11.110
77532W        W50600  44.883  36.827   4.973
77533W        W50601   3.691  27.865  13.975
77534W        W50602  29.548  19.638   2.073
77535W        W50603   9.329  44.701  10.712
77536W        W50604  43.816  26.990   4.721
77537W        W50605  19.684  40.040   4.663
77538W        W50606   5.318   9.917   3.620
77539W        W50607  38.168  37.173  10.754
77540W        W50608  16.682  20.775   0.738
77541W        W50609  12.571  35.936  12.602
77542W        W50610   1.227  32.556  12.834
77543W        W50611  19.146  28.116  13.565
77544W        W50612  21.771   6.735  14.061
77545W        W50613  34.339   8.135  12.971
77546W        W50614   1.277   4.921   3.647
77547W        W50615  30.980   6.546   2.670
77548W        W50616  27.048  25.207   1.361
77549W        W50617  42.585  15.907  11.616
77550W        W50618  37.385  40.242   1.382
77551W        W50619  14.262  21.323  13.125
77552W        W50620  10.447   8.171   2.306
77553W        W50621  11.152  43.588   1.836
77554W        W50622   8.791  40.059   5.025
77555W        W50623  18.987  24.251   3.204
77556W        W50624  31.590  11.404   4.662
77557W        W50625  34.938  23.795  11.179
77558W        W50626  11.640  11.382  10.723
77559W        W50627  21.166  25.423   4.980
77560W        W50628  10.088  32.631  12.991
77561W        W50629   1.678  31.083   1.190
77562W        W50630  37.805   9.267  11.206
77563W        W50631  18.489  20.642   0.450
77564W        W50632  15.980  23.815  10.540
77565W        W50633  37.170  18.054  11.950
77566W        W50634  17.654  42.307  12.519
77567W        W50635   3.714  20.691   1.774
77568W        W50636   1.556  15.202   3.440
77569W        W50637  28.525   3.458  10.466
77570W        W50638  29.690  32.652   4.212
77571W        W50639  27.636  26.620   4.606
77572W        W50640  19.732   3.869   4.545
77573W        W50641  34.662  18.744  14.831
77574W        W50642  14.350  42.966  11.495
77575W        W50643  16.539   4.685  14.484
77576W        W50644   5.327  19.819   1.448
77577W        W50645  11.050  18.649  12.920
77578W        W50646   6.429  42.490  10.358
77579W        W50647  23.645  15.623  14.974
77580W        W50648   0.178  35.714   0.923
77581W        W50649  39.281   6.680   2.999
77582W        W50650  12.315  18.185  12.054
77583W        W50651   4.984   3.144  14.836
77584W        W50652  15.301   3.367   3.259
77585W        W50653   9.318  31.151  13.351
77586W        W50654  21.725  35.570   2.215
77587W        W50655   1.871   8.153   0.213
77588W        W50656   8.426  40.486   4.583
77589W        W50657  29.637  20.086   1.799
77590W        W50658  35.905  28.888   2.355
77591W        W50659  12.672   5.399   3.729
77592W        W50660  18.968  25.127  10.546
77593W        W50661  24.708  33.553   0.417
77594W        W50662  32.939  14.190   3.100
77595W        W50663   0.387  11.380  10.510
77596W        W50664   7.329  10.863  11.088
77597W        W50665  14.667  30.666  12.802
77598W        W50666  38.170  41.161  12.902
77599W        W50667  43.909  42.579   3.699
77600W        W50668  35.584   4.451   2.741
77601W        W50669  41.832  13.752   3.744
77602W        W50670   4.483  19.450  12.470
77603W        W50671  20.667  15.359   4.233
77604W        W50672   4.915  12.669  14.328
77605W        W50673  26.432  23.757  14.842
77606W        W50674  21.157  25.909   4.762
77607W        W50675  28.866  44.908   2.748
77608W        W50676   5.309  27.535  12.588
77609W        W50677   6.485   2.354  11.868
77610W        W50678   5.891  30.622  14.792
77611W        W50679  21.818   1.534  12.370
77612W        W50680  36.699  17.969  12.117
77613W        W50681  19.898  23.474  11.210
77614W        W50682  19.395  10.188   4.489
77615W        W50683  41.369   2.466  11.702
77616W        W50684   6.583  37.433  14.330
77617W        W50685  28.644  16.105   4.209
77618W        W50686  23.324  41.448   3.626
77619W        W50687  42.303  44.394  11.209
77620W        W50688  14.712   9.944  12.531
77621W        W50689  21.833  26.807  10.577
77622W        W50690  10.809  15.668  12.967
77623W        W50691   6.540  43.774   1.855
77624W        W50692  24.698  44.360   0.363
77625W        W50693   6.824  13.292   1.412
77626W        W50694   9.185  32.248   1.294
77627W        W50695   7.887  29.086   3.092
77628W        W50696  32.440  31.697   1.135
77629W        W50697  38.122  14.237   3.896
77630W        W50698  16.809  27.044   4.612
77631W        W50699  30.040   9.923   1.460
77632W        W50700  38.475  13.714  11.127
77633W        W50701  30.266  39.240   3.445
77634W        W50702  15.627  16.547   5.053
77635W        W50703  23.071  44.836  10.616
77636W        W50704   4.737  41.978  10.587
77637W        W50705  23.134  21.638  13.630
77638W        W50706  18.943  27.081  14.572
77639W        W50707  43.470  36.340   4.552
77640W        W50708  34.780  17.084   3.011
77641W        W50709  22.576  16.487   3.356
77642W        W50710  24.501   5.419   1.211
77643W        W50711  30.664   7.472  11.249
77644W        W50712  36.967   1.134  12.939
77645W        W50713  37.427  37.333  13.815
77646W        W50714   6.436  29.719   3.185
77647W        W50715  28.641   2.338  13.393
77648W        W50716  14.879  43.459   1.684
77649W        W50717   9.526  29.223   1.903
77650W        W50718  13.576  15.168   1.233
77651W        W50719  38.850   3.223   2.768
77652W        W50720  44.039  11.853  13.867
77653W        W50721  36.220  22.687   5.153
77654W        W50722  18.743  38.382  13.402
77655W        W50723  40.349  22.291  13.873
77656W        W50724  32.527  12.490   0.354
77657W        W50725  27.151  23.647   5.200
77658W        W50726  40.173   7.825   4.597
77659W        W50727  39.416   1.765  13.433
77660W        W50728  15.132   2.870   4.098
77661W        W50729  20.716  39.068   3.740
77662W        W50730  16.810  21.194   4.945
77663W        W50731  14.724   8.873   0.232
77664W        W50732   8.920  16.952   5.222
77665W        W50733  23.032  40.791  14.942
77666W        W50734  36.596  28.008   3.729
77667W        W50735  44.920  38.137   4.235
77668W        W50736  40.531   9.748  12.874
77669W        W50737  26.137  23.363  10.768
77670W        W50738  11.800  41.093  10.878
77671W        W50739   0.561  32.838  13.518
77672W        W50740  32.373  37.238  12.023
77673W        W50741  20.067  19.965  14.845
77674W        W50742  38.033  11.404  13.589
77675W        W50743  11.210  11.232   1.489
77676W        W50744   3.151  17.782  14.935
77677W        W50745  26.010  20.942   0.470
77678W        W50746   5.794  27.745   2.407
77679W        W50747  20.180  25.711   3.252
77680W        W50748  40.454  17.992   5.057
77681W        W50749  12.575  44.910  10.616
77682W        W50750  41.042  11.243  12.420
77683W        W50751   5.395  37.244  12.376
77684W        W50752  43.497  23.298  13.422
77685W        W50753  38.469  25.408  12.610
77686W        W50754   5.707  34.360   1.825
77687W        W50755  13.634  37.516   4.991
77688W        W50756  29.012  20.309   4.091
77689W        W50757  32.881   7.793  10.576
77690W        W50758  17.644  27.668  13.046
77691W        W50759  41.733   5.157  13.970
77692W        W50760  28.630   9.042   1.418
77693W        W50761  22.057  14.133   0.711
77694W        W50762   8.785  12.769   2.059
77695W        W50763   9.337  40.745  11.608
77696W        W50764  19.497   2.881   0.734
77697W        W50765  22.757  22.571   1.011
77698W        W50766  25.008  18.606  13.322
77699W        W50767  11.661  31.094  11.180
77700W        W50768   5.754  19.102  11.509
77701W        W50769   2.281  41.580   3.711
77702W        W50770  25.151   5.721  12.934
77703W        W50771  21.616  13.675   3.218
77704W        W50772  11.845  44.518  14.855
77705W        W50773  35.636  30.964  12.975
77706W        W50774  27.023  33.427  14.830
77707W        W50775   8.658  26.590   3.659
77708W        W50776  22.851  22.170   4.090
77709W        W50777  34.206  20.799  11.267
77710W        W50778  28.325   0.373   4.587
77711W        W50779  13.592   4.621   2.739
77712W        W50780  20.978   6.779  12.647
77713W        W50781   8.120   8.310   1.247
77714W        W50782  28.226   4.387   3.733
77715W        W50783  35.755   9.554  11.107
77716W        W50784  19.682   5.783  12.073
77717W        W50785  35.561  32.477  13.221
77718W        W50786  35.465  21.989  12.462
77719W        W50787   4.144  44.060  14.362
77720W        W50788  36.667  35.129   2.861
77721W        W50789  25.893   7.085  12.462
77722W        W50790  36.841  25.180   0.755
77723W        W50791  24.152  16.540  12.009
77724W        W50792   1.263  44.964   0.719
77725W        W50793  32.946   9.658  13.582
77726W        W50794  21.560   1.332   3.542
77727W        W50795  24.686  23.633  14.561
77728W        W50796  42.963  18.729   3.545
77729W        W50797  29.182  41.355   0.216
77730W        W50798  39.330   2.338  11.018
77731W        W50799   2.455   8.570   3.626
77732W        W50800  20.674  29.140  11.450
77733W        W50801  22.199   0.001  10.138
77734W        W50802   5.762  25.553   2.185
77735W        W50803  30.948  19.066   2.429
77736W        W50804  18.478   9.996  10.878
77737W        W50805  26.301   9.280   2.691
77738W        W50806  28.956   1.666   1.326
77739W        W50807  23.970   0.886  13.963
77740W        W50808  20.624  18.579  12.923
77741W        W50809   4.997  37.053   3.823
77742W        W50810  26.677  25.222  12.731
77743W        W50811  22.137  25.536   2.446
77744W        W50812   0.575  24.916   0.845
77745W        W50813  35.842  37.508   5.054
77746W        W50814  11.198  40.111  12.589
77747W        W50815  35.658   9.301  12.499
77748W        W50816  38.575  18.726   3.943
77749W        W50817  17.926   0.411   1.408
77750W        W50818  14.346  10.200  14.419
77751W        W50819  40.652  17.053  13.556
77752W        W50820  28.888   7.861   4.090
77753W        W50821  44.840   8.616   2.971
77754W        W50822   2.038   3.372   0.441
77755W        W50823  37.026   3.600   2.928
77756W        W50824  28.900   6.657  14.883
77757W        W50825  13.271  38.846   0.812
77758W        W50826  32.063  35.799   2.288
77759W        W50827  25.655   3.770   0.772
77760W        W50828  39.825   6.317   3.787
77761W        W50829  26.862  22.592   4.758
77762W        W50830  20.246  42.536  11.514
77763W        W50831  40.417  31.080   0.472
77764W        W50832   7.824  12.814  11.483
77765W        W50833  13.259   1.788  12.047
77766W        W50834  16.772  37.042  11.051
77767W        W50835  20.993  25.327   2.791
77768W        W50836  13.508  40.971   4.347
77769W        W50837  18.489  10.456  13.052
77770W        W50838  34.951  21.485   1.887
77771W        W50839  24.553  12.355   0.824
77772W        W50840  38.307  18.013   2.481
77773W        W50841  36.519  40.033   2.841
77774W        W50842  36.144   8.202   4.558
77775W        W50843  42.306  19.332   4.311
77776W        W50844  41.440  10.446   0.902
77777W        W50845   8.162  11.744   2.757
77778W        W50846   3.759  20.083  12.698
77779W        W50847  32.086   9.717   2.307
77780W        W50848   6.885  30.657  12.532
77781W        W50849   8.278  26.556  13.999
77782W        W50850  16.492  34.981   2.334
77783W        W50851  26.459   1.846  13.994
77784W        W50852  10.289   8.665  14.623
77785W        W50853   3.246  23.988   0.339
77786W        W50854  40.940  17.692   3.875
77787W        W50855  28.869  30.111  13.355
77788W        W50856  40.514  39.438   1.896
77789W        W50857   6.727  22.720  11.309
77790W        W50858  29.523  31.117   4.146
77791W        W50859  24.560  43.678   2.687
77792W        W50860  15.729  35.022   0.732
77793W        W50861  43.736  29.944   2.246
77794W        W50862  29.088  28.610   4.685
77795W        W50863  31.076  38.577  14.887
77796W        W50864  16.063   2.245  11.887
77797W        W50865  22.060   3.260  14.498
77798W        W50866  42.314  41.869  14.041
77799W        W50867   9.498   6.320  11.572
77800W        W50868  13.918  17.588   2.304
77801W        W50869  22.099  36.826  11.281
77802W        W50870  39.223  24.979  11.147
77803W        W50871   6.840  18.106  12.502
77804W        W50872  40.807  25.509   4.114
77805W        W50873  31.579  43.307   2.884
77806W        W50874  18.124  30.989   2.624
77807W        W50875  40.716   3.199  10.283
77808W        W50876  44.286  44.717  13.131
77809W        W50877  14.440  28.578   3.333
77810W        W50878  13.751  15.888  13.627
77811W        W50879   2.211  36.547   3.398
77812W        W50880  10.552   1.358   2.181
77813W        W50881   3.915  21.265  10.143
77814W        W50882  11.408  30.464   2.846
77815W        W50883  13.887  12.506  14.894
77816W        W50884  22.306  28.880   3.654
77817W        W50885  33.958  17.130   3.840
77818W        W50886  17.668  12.066  13.710
77819W        W50887   9.350   0.471   2.754
77820W        W50888  36.069  16.081  12.876
77821W        W50889  34.110  31.370   3.194
77822W        W50890  23.753  23.544  14.953
77823W        W50891  29.445  22.628   3.394
77824W        W50892  24.844  37.305  10.348
77825W        W50893  10.246   0.229  10.408
77826W        W50894  44.894  24.435   2.011
77827W        W50895  22.151  15.210  12.261
77828W        W50896  28.808   0.029  13.158
77829W        W50897  34.677  23.629  10.762
77830W        W50898  18.731  27.193   3.846
77831W        W50899  18.036  31.135  13.460
77832W        W50900  32.698  15.315   0.796
77833W        W50901   7.205  34.446   0.934
77834W        W50902  26.034  30.591   0.477
77835W        W50903  29.222  17.775  12.512
77836W        W50904  44.864  10.533   0.979
77837W        W50905  35.993   2.194   0.030
77838W        W50906  35.466   0.951  14.531
77839W        W50907  24.142   9.674   2.202
77840W        W50908  15.300  43.823  14.035
77841W        W50909  12.310   5.219   4.400
77842W        W50910  26.156   5.477  13.266
77843W        W50911   9.358  31.077  11.410
77844W        W50912   3.522  20.556   4.521
77845W        W50913  44.879  30.584   2.708
77846W        W50914   8.711  13.315   2.770
77847W        W50915   8.414  35.003  12.984
77848W        W50916   9.093  26.535   2.202
77849W        W50917  17.073   5.125  11.935
77850W        W50918  25.957  30.537  10.948
77851W        W50919  20.991  34.927  11.508
77852W        W50920  32.811  14.749   0.027
77853W        W50921   3.969  29.467  11.867
77854W        W50922   2.465  27.889   3.630
77855W        W50923  31.103  10.671   2.891
77856W        W50924  31.422  41.604   3.067
77857W        W50925  32.423  29.532   4.266
77858W        W50926  16.078  35.842  14.505
77859W        W50927  33.893  32.186   3.128
77860W        W50928  41.543  14.149   2.751
77861W        W50929  34.488  33.895   1.155
77862W        W50930  10.386  23.915  10.624
77863W        W50931  37.973  13.670   1.306
77864W        W50932   0.872  21.926   4.295
77865W        W50933   0.836  43.937  14.084
77866W        W50934  39.244  33.362  11.568
77867W        W50935   4.126   2.526   3.135
77868W        W50936  42.133  39.044  11.221
77869W        W50937  21.172  39.876  13.944
77870W        W50938  37.911  31.927  11.190
77871W        W50939  39.434  26.601  12.457
77872W        W50940   7.667  11.278   0.288
77873W        W50941  30.674  36.885  14.458
77874W        W50942   1.155   6.813  12.416
77875W        W50943  25.708  24.057  12.007
77876W        W50944   2.823  27.802  14.497
77877W        W50945  13.230   2.933  12.073
77878W        W50946   6.509  18.106   3.626
77879W        W50947  32.414  43.821   3.794
77880W        W50948  28.204  13.881   4.870
77881W        W50949  33.390   0.367  14.417
77882W        W50950  10.396  19.552  13.355
77883W        W50951  29.623  24.201   3.647
77884W        W50952  31.498  39.866   0.789
77885W        W50953  34.227   8.503  14.868
77886W        W50954  12.143  28.034  10.712
77887W        W50955  14.327  26.161   3.256
77888W        W50956  33.670  28.708  13.998
77889W        W50957  37.098  42.341   4.664
77890W        W50958  36.799  11.916  14.295
77891W        W50959   8.172   1.595  12.470
77892W        W50960   5.278  42.544  14.818
77893W        W50961  27.669  17.228  11.499
77894W        W50962  42.221  30.420   1.638
77895W        W50963   7.154   2.768   1.795
77896W        W50964  26.434  29.449  11.225
77897W        W50965  19.696  37.809   0.819
77898W        W50966  10.823  10.409  14.792
77899W        W50967  44.440   6.253  10.446
77900W        W50968   9.940   0.268  11.888
77901W        W50969  44.375  28.543   1.208
77902W        W50970   7.967   8.190   3.349
77903W        W50971  34.139  14.172  13.328
77904W        W50972  19.475  10.829   3.900
77905W        W50973  22.471  25.034   5.073
77906W        W50974   1.729  17.170   2.715
77907W        W50975   4.372  13.755  14.384
77908W        W50976  29.673   8.000   4.409
77909W        W50977  11.655  43.818  12.221
77910W        W50978  33.158   9.231  13.396
77911W        W50979  28.147  24.316  10.710
77912W        W50980   5.297  12.867   1.356
77913W        W50981  44.786  13.453   4.726
77914W        W50982   4.125  15.550  13.794
77915W        W50983  34.514  17.079   1.480
77916W        W50984  19.685  15.381  12.493
77917W        W50985  15.251  12.848   0.761
77918W        W50986   2.443   5.667   2.733
77919W        W50987  38.771  23.366  11.067
77920W        W50988  25.150   5.689   2.450
77921W        W50989  38.761  18.144   1.256
77922W        W50990  40.896  37.430  11.269
77923W        W50991  23.707  17.171  10.045
77924W        W50992  23.844  22.709   9.861
77925W        W50993   3.999   1.923  12.994
77926W        W50994   2.642  32.135   0.898
77927W        W50995  13.383  37.307   4.552
77928W        W50996  35.503  15.896  13.549
77929W        W50997  25.066  32.119  12.127
77930W        W50998  29.908  10.329   4.684
77931W        W50999  42.972  15.138   0.119
77932W        W51000  19.466  43.358   0.745
77933W        W51001   8.839   8.628  12.279
77934W        W51002  34.460   7.624  14.979
77935W        W51003   5.161  43.571   2.669
77936W        W51004  12.749  10.137   4.566
77937W        W51005  26.899  29.519   3.654
77938W        W51006  24.511  12.703  14.565
77939W        W51007  27.664  22.750   3.747
77940W        W51008  11.220  24.467  12.805
77941W        W51009  15.838  12.697   1.290
77942W        W51010   0.831   6.085  11.120
77943W        W51011  13.263   6.607   2.068
77944W        W51012   9.606  41.922   4.205
77945W        W51013  22.353  31.933  13.876
77946W        W51014  17.009  15.772  13.949
77947W        W51015   4.478  18.651  11.527
77948W        W51016  39.605  10.804   4.528
77949W        W51017  37.311  44.728   1.363
77950W        W51018   0.346   5.912  12.192
77951W        W51019   0.623  26.131   0.037
77952W        W51020  32.470  15.262   0.334
77953W        W51021  27.695   6.675  12.964
77954W        W51022   6.717   1.153  14.245
77955W        W51023   9.311  18.304  13.727
77956W        W51024  38.104  35.217  10.725
77957W        W51025   7.994  38.909   0.832
77958W        W51026   9.224  40.208  10.256
77959W        W51027  22.864  39.902  11.135
77960W        W51028   6.229   1.548   0.022
77961W        W51029  31.632  18.118   4.117
77962W        W51030  36.639  25.084  13.452
77963W        W51031   2.837  35.590  10.420
77964W        W51032  40.034  43.983  12.923
77965W        W51033  38.996  43.299   4.615
77966W        W51034  34.639  34.542  13.932
77967W        W51035  43.354  11.437   2.724
77968W        W51036  24.506  25.734  11.148
77969W        W51037  23.902  41.108  14.855
77970W        W51038  22.065  39.488  10.487
77971W        W51039   7.927  23.502  10.236
77972W        W51040  34.787   4.647  11.357
77973W        W51041   8.142   5.706   4.172
77974W        W51042   8.246  28.803  14.811
77975W        W51043  25.110  19.354  10.655
77976W        W51044  36.659   7.957  13.021
77977W        W51045  28.905  41.459   1.304
77978W        W51046  20.824   4.878   3.213
77979W        W51047  23.451  17.773   0.826
77980W        W51048  44.268  19.374  12.667
77981W        W51049  11.645   4.839   4.968
77982W        W51050  20.781  14.382   1.015
77983W        W51051  38.223  44.534   1.469
77984W        W51052   4.396   5.190   1.257
77985W        W51053   4.349  22.595  14.750
77986W        W51054  16.727  16.549   2.633
77987W        W51055  29.980  14.734   0.846
77988W        W51056  42.851  32.158  13.004
77989W        W51057   0.752   7.775   2.530
77990W        W51058  34.973  38.889   1.822
77991W        W51059  43.540  25.576  12.848
77992W        W51060  14.342   2.865  14.241
77993W        W51061  19.753  22.669  14.738
77994W        W51062  40.085   0.935  12.023
77995W        W51063  10.511  36.350   2.696
77996W        W51064   6.094   1.731   1.778
77997W        W51065   4.408  27.785   3.257
77998W        W51066   0.847  43.309   0.270
77999W        W51067   2.036  17.692  12.869
78000W        W51068  29.807   0.080  11.645
78001W        W51069  16.720  16.335  12.011
78002W        W51070  23.502  33.010  14.093
78003W        W51071  26.803  44.249  11.091
78004W        W51072  10.693  38.854  12.115
78005W        W51073  37.772  11.264  14.014
78006W        W51074  10.361   8.914   2.761
78007W        W51075   1.026  26.530   3.618
78008W        W51076  39.931  35.892   4.058
78009W        W51077   1.753   0.488  12.412
78010W        W51078  40.926  28.394   4.850
78011W        W51079  40.875  44.533  11.037
78012W        W51080  17.073  14.814   2.817
78013W        W51081  41.434  10.980  11.364
78014W        W51082   2.750  42.352   3.855
78015W        W51083  16.781  36.015   4.872
78016W        W51084  32.166   2.382  13.260
78017W        W51085  17.224  39.265  10.378
78018W        W51086  29.932  13.681  14.293
78019W        W51087  19.230  30.385  12.185
78020W        W51088  35.457  33.674   9.782
78021W        W51089  18.078  18.778   4.819
78022W        W51090   7.988  29.580  11.522
78023W        W51091   2.447  20.582  13.566
78024W        W51092  20.477  21.551  10.411
78025W        W51093  20.229  16.694   3.154
78026W        W51094  36.416  31.159  12.489
78027W        W51095  41.849  19.874   1.174
78028W        W51096  13.509  38.445  12.602
78029W        W51097  12.002  15.442  11.482
78030W        W51098  23.201  35.975  12.045
78031W        W51099  28.055   4.385  13.389
78032W        W51100  40.013  29.412  11.561
78033W        W51101  12.336   8.838   1.461
78034W        W51102  31.093  31.571   4.293
78035W        W51103   1.750  40.569  14.463
78036W        W51104  23.742  28.072   2.685
78037W        W51105   8.172  15.570  14.035
78038W        W51106  43.063  34.621   3.702
78039W        W51107  11.096   3.384   0.252
78040W        W51108   9.251  17.581  11.582
78041W        W51109   4.431  16.846  10.764
78042W        W51110  17.163  31.612   0.765
78043W        W51111  22.306  11.806   1.957
78044W        W51112  38.137  34.546  13.308
78045W        W51113  19.663  22.595   2.231
78046W        W51114  27.550  29.563  14.066
78047W        W51115   9.187   5.627   0.376
78048W        W51116  31.061   8.182  10.588
78049W        W51117  31.687  39.296   3.252
78050W        W51118  24.708  23.514   0.053
78051W        W51119  30.077  11.840   4.600
78052W        W51120  40.500  27.288   3.921
78053W        W51121  23.991  32.211  11.248
78054W        W51122  13.142   2.448  14.347
78055W        W51123  33.215  35.277   1.505
78056W        W51124  16.263  31.931   3.101
78057W        W51125  22.526  14.273   0.017
78058W        W51126  31.641  20.578   0.446
78059W        W51127  32.597  11.449   2.689
78060W        W51128  28.674  38.094  11.160
78061W        W51129  12.601   5.355   0.369
78062W        W51130   1.471  26.420   4.686
78063W        W51131   2.709  42.947  13.561
78064W        W51132  26.609  28.975  11.212
78065W        W51133  41.449  22.623   0.481
78066W        W51134   4.729  16.230   4.492
78067W        W51135  22.099   1.980  11.485
78068W        W51136  26.164  19.165   1.200
78069W        W51137   0.935  22.060   2.882
78070W        W51138  33.102  13.229  14.454
78071W        W51139   6.968  41.163  11.349
78072W        W51140  42.865  14.553  14.954
78073W        W51141  35.278   8.080   0.430
78074W        W51142   8.884  32.013  12.822
78075W        W51143  35.685  28.679  11.671
78076W        W51144   7.659  15.637   2.089
78077W        W51145  40.138  10.091   2.015
78078W        W51146  27.106  19.019   1.308
78079W        W51147  29.892   4.840   2.822
78080W        W51148  12.886  36.448   1.271
78081W        W51149   3.509   7.895   4.075
78082W        W51150   2.012   2.502   0.099
78083W        W51151  36.568  39.503   4.157
78084W        W51152  10.870  27.571   2.993
78085W        W51153   9.816  32.532  14.952
78086W        W51154  27.179   7.289   2.206
78087W        W51155  36.536  15.176   3.566
78088W        W51156  32.429  38.352   1.476
78089W        W51157   9.183  16.203   1.202
78090W        W51158  14.130   5.738  13.870
78091W        W51159  22.224  34.804   1.561
78092W        W51160  14.096  39.417   3.111
78093W        W51161   9.571  35.636   5.055
78094W        W51162  44.059  27.088  10.612
78095W        W51163  44.706  24.736  14.886
78096W        W51164  44.003  41.061  13.445
78097W        W51165   8.314   3.031   0.845
78098W        W51166  16.705  39.939   2.740
78099W        W51167  19.693  12.684   1.131
78100W        W51168  40.078  39.406  13.194
78101W        W51169   1.899  24.616   4.467
78102W        W51170  14.692  22.252  12.371
78103W        W51171   0.947  31.582   1.074
78104W        W51172  39.609  10.137   4.506
78105W        W51173  19.617  34.747  13.568
78106W        W51174  31.478   7.573   1.460
78107W        W51175  11.800   1.713   0.442
78108W        W51176  20.743   3.837   3.257
78109W        W51177   9.485  32.607   2.692
78110W        W51178  42.528  25.674   2.753
78111W        W51179  36.302  15.593  12.861
78112W        W51180  14.679  21.656   1.979
78113W        W51181   7.336  10.226   2.595
78114W        W51182  17.267   8.134  14.371
78115W        W51183  17.091   8.149  10.411
78116W        W51184  33.949  41.318   3.606
78117W        W51185  42.191  10.296  10.603
78118W        W51186  13.277  13.654   4.847
78119W        W51187   1.128  10.807   4.317
78120W        W51188  39.567  17.360  13.043
78121W        W51189  13.197  38.741   2.341
78122W        W51190  14.099  27.949   2.191
78123W        W51191  28.457  36.620  10.701
78124W        W51192   7.667   4.905  10.827
78125W        W51193  36.891   0.714   2.740
78126W        W51194  23.718   9.789   4.891
78127W        W51195  10.561  10.846  14.788
78128W        W51196  31.844  25.142   0.763
78129W        W51197  23.592   6.708   4.104
78130W        W51198  36.486  14.939   3.099
78131W        W51199  28.981  15.606  11.615
78132W        W51200  43.739  10.960   4.641
78133W        W51201   3.918  44.503   1.145
78134W        W51202  19.814  37.994   0.032
78135W        W51203  29.822  36.899   4.410
78136W        W51204   2.356   2.968  13.960
78137W        W51205  36.907  40.884  11.688
78138W        W51206  27.491  32.646  13.594
78139W        W51207  39.349  37.855   1.305
78140W        W51208  28.079  33.010   3.564
78141W        W51209  18.837  18.686  13.913
78142W        W51210  15.649  14.761   2.904
78143W        W51211  37.027  12.621   3.485
78144W        W51212  25.270  32.754   0.177
78145W        W51213  44.059  38.844  12.459
78146W        W51214  10.619  12.834  14.056
78147W        W51215  14.947   8.767  10.520
78148W        W51216   8.153  13.824  11.578
78149W        W51217  40.815  33.013   2.442
78150W        W51218   5.963  24.007   1.871
78151W        W51219  18.792   9.654   2.418
78152W        W51220   0.571  11.422   3.960
78153W        W51221   8.242   5.527   1.004
78154W        W51222   5.261  44.624   3.166
78155W        W51223  35.027  18.021  10.320
78156W        W51224  42.867   0.702  12.977
78157W        W51225  21.337  12.548   4.220
78158W        W51226  30.319   4.785   2.493
78159W        W51227   1.697  14.720   0.484
78160W        W51228   1.780  19.058   2.295
78161W        W51229  12.131  18.452  10.709
78162W        W51230  25.245  31.816  12.552
78163W        W51231   6.913  11.138   2.787
78164W        W51232  41.377  41.068  10.451
78165W        W51233  19.806  17.328   3.749
78166W        W51234  18.651  32.665  10.634
78167W        W51235  36.317  30.591  11.030
78168W        W51236  25.032  25.757  11.039
78169W        W51237  16.053   2.553  13.121
78170W        W51238  38.226  25.112   1.277
78171W        W51239  29.146  27.076  12.039
78172W        W51240  34.943  38.979   3.260
78173W        W51241  18.142  26.461   3.648
78174W        W51242   4.620  36.483   0.176
78175W        W51243  43.849  34.588  14.377
78176W        W51244  43.641  11.643  13.304
78177W        W51245  39.539  13.560   1.441
78178W        W51246  24.432  38.121   1.243
78179W        W51247  10.507   2.303  12.386
78180W        W51248   9.765  27.642  13.047
78181W        W51249  29.305  39.068  14.958
78182W        W51250  28.249  39.491  13.418
78183W        W51251  44.867  10.990  13.051
78184W        W51252  43.063  35.406  12.477
78185W        W51253  30.610  40.047   3.030
78186W        W51254   0.032  25.998   0.861
78187W        W51255  34.973  23.276   3.408
78188W        W51256  25.041  33.424   3.845
78189W        W51257   1.906  12.883  13.452
78190W        W51258  34.019  18.099  11.867
78191W        W51259   7.865  31.155  14.931
78192W        W51260  34.009  24.071  10.792
78193W        W51261  27.129  16.715  13.040
78194W        W51262  12.199  15.338   1.238
78195W        W51263  39.908  17.015   2.914
78196W        W51264  19.110   3.566  14.248
78197W        W51265  44.866   8.328  13.264
78198W        W51266  33.483  33.618  14.886
78199W        W51267  20.596  36.433   1.336
78200W        W51268  26.867   0.506   1.425
78201W        W51269  12.987  28.918  11.647
78202W        W51270  20.317  21.806   4.106
78203W        W51271   8.217  23.532  11.600
78204W        W51272  18.140  10.902   4.049
78205W        W51273  21.529  18.159   2.710
78206W        W51274  41.625  14.938  14.370
78207W        W51275  20.832  12.975  11.586
78208W        W51276  38.632  31.436  13.833
78209W        W51277   3.226   2.014  14.462
78210W        W51278  18.349  36.402   2.142
78211W        W51279   1.309  18.807   4.504
78212W        W51280  43.198  43.451   4.138
78213W        W51281  14.720  37.625  14.737
78214W        W51282  35.153  37.271   1.736
78215W        W51283   0.015  44.868   1.188
78216W        W51284  39.392  27.281   0.589
78217W        W51285   9.401   4.336   1.873
78218W        W51286  18.538  18.195   2.382
78219W        W51287  20.528  13.264  10.669
78220W        W51288  22.635  22.793   1.880
78221W        W51289  41.275   4.457  13.515
78222W        W51290  32.590  33.360   4.152
78223W        W51291  35.350  35.393   0.321
78224W        W51292  43.454  43.520  11.482
78225W        W51293  13.850   5.754   0.817
78226W        W51294  35.785  27.010   0.019
78227W        W51295  18.611  10.727   4.189
78228W        W51296  24.461  32.416  11.331
78229W        W51297  43.571  33.133   0.947
78230W        W51298  24.847   7.159   2.349
78231W        W51299   2.227   0.374   0.471
78232W        W51300  34.629  10.344  11.262
78233W        W51301  35.456  11.192  12.027
78234W        W51302  30.455  24.087  13.608
78235W        W51303  32.562  32.958   4.508
78236W        W51304  41.433   2.947  14.504
78237W        W51305  44.058   9.496  14.295
78238W        W51306  20.306  36.885   0.318
78239W        W51307  29.467  37.802   1.748
78240W        W51308  25.760  34.142   4.222
78241W        W51309   7.752  43.445   3.040
78242W        W51310  30.838  28.492   3.039
78243W        W51311   5.787  11.126   3.368
78244W        W51312  37.820   7.443  14.062
78245W        W51313  27.104  34.786   1.348
78246W        W51314  11.883  20.013   1.387
78247W        W51315   2.847  22.003  12.569
78248W        W51316   7.707  37.573   2.361
78249W        W51317  31.081   9.375  14.105
78250W        W51318   5.202  43.170  12.386
78251W        W51319  29.047  20.967   3.351
78252W        W51320   6.210  12.096   3.359
78253W        W51321  21.083  28.292   2.846
78254W        W51322   3.393  33.886  14.038
78255W        W51323  40.157  44.864  13.053
78256W        W51324  11.453  11.689   1.426
78257W        W51325  20.513   6.689   1.829
78258W        W51326   5.806  20.545  11.996
78259W        W51327  22.563  14.003   2.896
78260W        W51328  10.869  12.840   4.407
78261W        W51329  19.244  11.885  11.173
78262W        W51330   3.667  43.516  12.513
78263W        W51331   3.291  23.042  12.251
78264W        W51332   2.920  25.050   2.832
78265W        W51333  22.445  42.352  11.068
78266W        W51334  10.915   3.880   2.692
78267W        W51335   9.374  19.935   5.071
78268W        W51336  34.119  38.312  12.406
78269W        W51337  26.728  41.763   3.170
78270W        W51338  14.191  16.852   0.715
78271W        W51339  13.755  40.047   4.493
78272W        W51340  24.844  41.580  13.982
78273W        W51341  16.129  22.977  10.812
78274W        W51342  30.679   1.226   3.041
78275W        W51343  33.854  19.485   4.476
78276W        W51344  42.920  31.230  10.719
78277W        W51345  10.449  32.254  12.917
78278W        W51346  20.147  27.949  11.777
78279W        W51347  11.171  11.271   3.720
78280W        W51348  22.495  43.016   1.206
78281W        W51349  44.298  25.153  13.866
78282W        W51350   4.406   6.333  11.813
78283W        W51351  40.129   4.871  14.896
78284W        W51352  34.520  29.271  12.035
78285W        W51353  40.464  26.128  13.991
78286W        W51354  27.456   3.109  13.507
78287W        W51355  24.098  19.151  12.131
78288W        W51356   6.847  15.766  11.635
78289W        W51357  37.568  29.294   4.470
78290W        W51358   5.246  34.672   0.478
78291W        W51359  32.053  20.975   0.426
78292W        W51360  24.954  32.691   2.625
78293W        W51361   9.447  25.996   1.295
78294W        W51362  41.902  12.093   0.411
78295W        W51363   3.307  39.042  13.093
78296W        W51364  31.209  12.643   4.054
78297W        W51365  16.243  34.522   0.458
78298W        W51366  33.134   8.698  13.452
78299W        W51367  15.920  41.485  13.385
78300W        W51368   7.139  19.676   4.807
78301W        W51369  10.586  13.845   2.234
78302W        W51370  17.315   6.698  13.396
78303W        W51371   1.384  41.495  14.761
78304W        W51372  13.049  28.071  11.534
78305W        W51373   4.194  11.149  10.615
78306W        W51374  38.943   3.280   1.874
78307W        W51375  37.956  26.949   1.630
78308W        W51376  36.409   0.027  11.976
78309W        W51377  25.054  30.705   1.421
78310W        W51378   5.040  41.632   3.200
78311W        W51379   0.022   0.248  14.800
78312W        W51380  43.836  15.420  14.530
78313W        W51381  15.225  35.088  13.887
78314W        W51382   1.855   7.458  13.858
78315W        W51383  44.413  34.114  13.457
78316W        W51384  25.607  28.159  10.950
78317W        W51385  14.090  40.640   5.082
78318W        W51386  37.211  19.765   1.865
78319W        W51387  15.876  10.340  14.035
78320W        W51388  42.572  30.184   1.333
78321W        W51389  23.888  23.708   9.714
78322W        W51390  40.315   9.286  12.789
78323W        W51391  16.068  18.799  11.977
78324W        W51392  11.282   8.425   0.348
78325W        W51393  41.753  16.722   9.676
78326W        W51394  32.468  31.660  12.381
78327W        W51395   7.274  40.790   0.250
78328W        W51396  34.545  28.748  12.068
78329W        W51397  44.262  37.576  12.029
78330W        W51398   9.212  18.568  11.906
78331W        W51399  13.275   2.158  13.906
78332W        W51400   9.155  29.255   0.623
78333W        W51401  34.497  28.710   1.796
78334W        W51402  21.907   8.635  13.925
78335W        W51403  19.302  22.639   3.800
78336W        W51404   3.811   6.389   1.731
78337W        W51405  25.206  41.389  10.314
78338W        W51406  13.247  19.288  13.933
78339W        W51407   6.394   6.375   0.137
78340W        W51408  17.536  16.734   0.250
78341W        W51409  17.623  41.530  12.110
78342W        W51410   3.832  33.238   3.441
78343W        W51411  12.663  40.704  10.430
78344W        W51412  41.298  11.650  10.630
78345W        W51413  40.345  14.615  10.876
78346W        W51414  27.332  23.992  14.041
78347W        W51415  30.550  36.667   1.830
78348W        W51416  20.620  34.197  13.324
78349W        W51417  31.024  13.742   2.866
78350W        W51418  38.814   2.393   3.262
78351W        W51419  15.369   9.010  13.610
78352W        W51420  19.761  18.764  12.869
78353W        W51421  26.575  20.116   2.480
78354W        W51422   0.370   1.252  12.430
78355W        W51423  18.473  44.469  11.417
78356W        W51424  20.591  28.933   1.479
78357W        W51425  42.921  42.964  11.943
78358W        W51426   0.978  22.615  11.877
78359W        W51427   0.823   8.575   4.274
78360W        W51428  10.836  30.984   3.455
78361W        W51429  21.636  15.242   2.356
78362W        W51430  15.188  14.269   1.177
78363W        W51431   6.075  17.746   2.324
78364W        W51432  16.613  38.328   0.450
78365W        W51433  15.141  39.097   3.057
78366W        W51434   6.592  15.333  11.613
78367W        W51435   7.376   7.586   1.752
78368W        W51436  24.519  15.044   2.358
78369W        W51437   8.865  12.065  13.149
78370W        W51438  19.746  39.356  12.011
78371W        W51439  29.465  28.433  12.579
78372W        W51440  43.378  16.720   2.645
78373W        W51441  16.357   1.056   4.124
78374W        W51442  33.606  16.759   4.534
78375W        W51443  33.523  21.530   1.941
78376W        W51444   7.337  16.630  10.536
78377W        W51445   4.147  34.048   4.908
78378W        W51446  19.263  19.567   3.328
78379W        W51447  27.479  30.302  12.448
78380W        W51448  22.737  18.588  13.911
78381W        W51449  22.787  11.098   1.445
78382W        W51450  29.509   6.947   0.807
78383W        W51451   1.446  41.772   3.609
78384W        W51452  44.793  24.242  12.058
78385W        W51453   5.449  38.866   1.905
78386W        W51454  11.079  39.316  13.932
78387W        W51455  26.555  39.183   2.678
78388W        W51456  36.010  17.508  13.051
78389W        W51457  19.565  14.446  13.834
78390W        W51458  36.003  23.169   2.348
78391W        W51459  14.470  31.584   1.452
78392W        W51460  32.572  29.760  14.446
78393W        W51461   2.554   3.404   0.276
78394W        W51462  25.197  32.849   2.177
78395W        W51463   7.831  25.609   4.576
78396W        W51464  37.026  22.792  10.548
78397W        W51465  30.071   6.042   2.278
78398W        W51466   8.722  42.852  14.171
78399W        W51467  11.735   5.497  11.982
78400W        W51468  28.025  33.613   0.460
78401W        W51469  39.413  17.214  11.595
78402W        W51470   4.821   3.893   0.818
78403W        W51471  35.949  22.122  12.342
78404W        W51472   5.496  29.978   0.395
78405W        W51473  40.379  32.141  14.021
78406W        W51474   5.193  26.549   1.336
78407W        W51475   4.214  35.301   0.400
78408W        W51476  42.069  13.695   5.058
78409W        W51477  38.902   1.039  11.539
78410W        W51478  26.757   2.015   0.292
78411W        W51479  30.541  44.749   0.559
78412W        W51480   2.009  12.668   4.103
78413W        W51481   2.361   5.903   0.470
78414W        W51482   5.779  10.886  14.893
78415W        W51483   3.637   4.555   1.500
78416W        W51484  28.105  33.570   4.973
78417W        W51485  44.604  41.346   4.802
78418W        W51486  31.568  27.053   2.233
78419W        W51487   9.225  29.840  13.991
78420W        W51488  14.704  13.934  12.623
78421W        W51489  42.891  16.625   0.547
78422W        W51490   8.731   3.193  11.129
78423W        W51491  15.823  25.226  11.258
78424W        W51492  36.018  22.292  12.835
78425W        W51493  16.766  39.284  14.105
78426W        W51494   0.875   1.535  13.146
78427W        W51495  30.264  43.221   2.841
78428W        W51496   6.343  33.824   0.320
78429W        W51497  17.734  29.244   1.801
78430W        W51498  17.251   0.212   2.304
78431W        W51499   8.157  18.035   2.273
78432W        W51500   7.177  23.283  13.543
78433W        W51501  34.080  15.633  10.392
78434W        W51502  32.013   6.878   3.639
78435W        W51503  42.359  20.168   3.903
78436W        W51504  34.965  34.937  10.618
78437W        W51505  27.442  38.478   1.344
78438W        W51506  33.988  30.332  14.272
78439W        W51507  33.975  39.300  12.616
78440W        W51508  34.029  16.799   1.323
78441W        W51509  29.116  39.627  12.866
78442W        W51510   2.754   5.796  11.887
78443W        W51511  29.679  30.599  12.375
78444W        W51512   0.258  41.396  12.062
78445W        W51513  21.292  12.134   2.439
78446W        W51514  26.934  43.990   1.271
78447W        W51515  11.686  14.357   3.204
78448W        W51516  11.869  38.409   2.760
78449W        W51517  22.064   2.715  13.083
78450W        W51518  27.940  41.399  11.663
78451W        W51519  17.360  23.624   4.768
78452W        W51520  31.934  28.833  12.964
78453W        W51521  31.422  27.001  14.859
78454W        W51522  19.130  17.591  10.680
78455W        W51523   8.335  37.500  11.434
78456W        W51524  10.465  17.430   4.522
78457W        W51525   4.766   5.844   0.043
78458W        W51526  41.831  26.581   3.132
78459W        W51527  42.437  29.089   4.739
78460W        W51528  10.996  20.046   2.483
78461W        W51529  13.238   6.500   1.000
78462W        W51530  28.188  26.972  12.895
78463W        W51531   8.374  36.803  13.066
78464W        W51532  14.886  24.699   0.210
78465W        W51533  26.073  18.025  13.129
78466W        W51534  24.181  36.800  12.559
78467W        W51535  37.412  28.894   2.263
78468W        W51536  27.622   9.706   2.937
78469W        W51537  16.632  19.282  12.610
78470W        W51538  20.199  26.067   3.644
78471W        W51539   1.480  38.096   3.962
78472W        W51540   6.769  16.289   2.699
78473W        W51541  25.103   4.899   3.537
78474W        W51542  15.605   9.258   4.659
78475W        W51543  29.113   3.444   2.889
78476W        W51544  43.673  31.989   1.832
78477W        W51545  28.601   2.671   3.698
78478W        W51546  21.325  23.906   3.817
78479W        W51547   6.839  19.577  12.189
78480W        W51548   6.034  23.875   4.179
78481W        W51549  13.452  27.206  14.532
78482W        W51550  39.887  35.347  10.817
78483W        W51551  23.859  32.958   1.959
78484W        W51552  42.534  27.659   4.508
78485W        W51553   1.667  41.542  11.126
78486W        W51554  27.085  32.953  11.607
78487W        W51555   8.237   7.762   4.098
78488W        W51556   9.206  26.630   3.669
78489W        W51557  23.681   5.876  14.710
78490W        W51558  43.333  22.612  10.768
78491W        W51559  10.362  36.480   0.431
78492W        W51560  39.752   6.610   1.162
78493W        W51561   5.422   1.005  11.956
78494W        W51562  32.610  39.750  13.254
78495W        W51563  35.314  15.211  13.766
78496W        W51564   1.705  30.428  14.518
78497W        W51565   4.381  23.988   0.058
78498W        W51566   7.925  17.532  11.492
78499W        W51567  40.440  23.557  12.461
78500W        W51568  17.159  15.235   4.573
78501W        W51569  15.184  37.324   0.565
78502W        W51570  36.324  20.927   1.951
78503W        W51571  40.785  12.304   4.147
78504W        W51572  30.232  19.398   5.248
78505W        W51573  30.572  34.273   0.714
78506W        W51574  22.066  19.052   2.153
78507W        W51575   5.608  36.111   0.304
78508W        W51576   5.487  40.816   0.717
78509W        W51577   9.261  27.611  11.724
78510W        W51578  39.181  23.188  10.795
78511W        W51579  39.084  27.404   2.884
78512W        W51580  34.885  40.995   1.912
78513W        W51581  37.963   6.900   0.840
78514W        W51582  34.701   5.323  12.655
78515W        W51583   7.109  39.932  12.203
78516W        W51584  19.652  36.123   2.239
78517W        W51585  19.188  24.157   0.758
78518W        W51586   1.820  38.411   2.360
78519W        W51587  15.340  25.711  12.149
78520W        W51588   8.858  34.944  12.675
78521W        W51589   1.870  41.116   4.187
78522W        W51590  25.596  24.221  13.047
78523W        W51591  12.819   1.568   1.711
78524W        W51592  14.100  25.677   1.998
78525W        W51593  35.011  14.590  11.126
78526W        W51594   8.854  18.135   0.562
78527W        W51595  31.430  37.074   2.151
78528W        W51596  39.020   2.260   5.008
78529W        W51597  28.620  19.436  13.807
78530W        W51598  12.617  26.715   0.759
78531W        W51599   0.732  22.525   0.950
78532W        W51600   4.143  23.768   1.794
78533W        W51601  37.046  25.985  10.508
78534W        W51602  30.830  40.315   4.251
78535W        W51603  21.312  14.300   2.706
78536W        W51604  26.434  16.176   2.613
78537W        W51605  29.916   2.041  14.394
78538W        W51606  41.670  32.190   4.478
78539W        W51607  30.175  34.571   1.731
78540W        W51608  40.539  16.033  13.142
78541W        W51609  22.592  22.519  11.559
78542W        W51610  21.173   7.399  13.283
78543W        W51611  31.607  32.843   2.662
78544W        W51612  38.607   5.676   3.182
78545W        W51613  11.686  32.219  12.161
78546W        W51614  12.812  24.650  14.311
78547W        W51615  23.550  19.237   4.149
78548W        W51616  15.270  28.232  14.171
78549W        W51617  31.967   2.395  10.698
78550W        W51618  14.760  40.984   2.453
78551W        W51619  12.701   9.907   3.333
78552W        W51620  32.584  14.797   0.964
78553W        W51621  23.153  40.774   1.702
78554W        W51622  40.482  21.044  11.147
78555W        W51623  11.820  27.901   5.097
78556W        W51624  38.498  31.603   1.834
78557W        W51625  25.205  31.409  11.923
78558W        W51626  41.257  35.849  12.137
78559W        W51627  25.014  40.335  10.671
78560W        W51628   3.012  41.735  14.339
78561W        W51629  34.899  34.163   2.528
78562W        W51630  36.141  27.399  13.347
78563W        W51631  39.318  25.520  13.328
78564W        W51632  38.771  42.360   4.513
78565W        W51633  30.262  15.593   0.306
78566W        W51634  32.525  20.850  12.862
78567W        W51635   3.242  38.532  14.041
78568W        W51636  20.286  34.762   3.326
78569W        W51637   1.551   2.683   3.619
78570W        W51638   9.596  23.536   3.688
78571W        W51639  11.638  24.531  10.977
78572W        W51640   9.379   6.293   3.673
78573W        W51641  25.009  17.072   0.819
78574W        W51642   8.720   0.844   4.564
78575W        W51643   0.501  28.479   3.307
78576W        W51644  36.255  38.394  14.748
78577W        W51645  36.397   1.014  13.598
78578W        W51646  19.683  30.592   2.891
78579W        W51647  38.443  12.688  11.149
78580W        W51648  28.655   8.181   3.716
78581W        W51649   1.235  10.688   0.286
78582W        W51650  28.556  13.161   0.298
78583W        W51651  34.413  21.801   3.516
78584W        W51652  44.492  36.579  12.610
78585W        W51653  43.594  25.880  12.414
78586W        W51654  11.833  12.645  10.148
78587W        W51655  38.811  44.850  13.888
78588W        W51656  17.956  37.505   3.991
78589W        W51657  10.217   4.514  12.250
78590W        W51658   2.064  24.591  11.117
78591W        W51659  18.127  24.482  13.890
78592W        W51660  38.271  21.701  14.521
78593W        W51661  33.348  26.122   3.856
78594W        W51662  44.843  31.034  11.083
78595W        W51663   5.316  39.245  11.151
78596W        W51664  29.214  32.839  13.583
78597W        W51665  31.376  19.278   2.207
78598W        W51666  44.037  36.116  12.536
78599W        W51667   8.307  36.345  12.801
78600W        W51668  38.582   5.439  13.363
78601W        W51669  24.039  26.690  11.981
78602W        W51670   5.932  36.322  14.924
78603W        W51671  43.478  35.399  14.216
78604W        W51672  36.807  33.545  14.053
78605W        W51673  22.578  41.923  13.548
78606W        W51674  13.989   4.945  13.026
78607W        W51675   9.332  22.984   0.908
78608W        W51676  23.705  11.365  14.288
78609W        W51677  32.592   7.781  13.354
78610W        W51678  27.130  24.281  14.428
78611W        W51679  33.539  43.447  14.380
78612W        W51680  13.625  21.538   0.992
78613W        W51681  25.070  22.067   1.314
78614W        W51682  35.003  38.391   2.726
78615W        W51683  43.714  33.240   2.241
78616W        W51684  29.112  30.532   1.449
78617W        W51685  29.978  31.539  12.122
78618W        W51686  41.891  44.065   3.158
78619W        W51687  18.724  26.513   3.100
78620W        W51688   1.251  38.263  12.117
78621W        W51689  34.916   6.470   4.027
78622W        W51690   4.744  19.644   5.042
78623W        W51691  16.175  26.973   1.770
78624W        W51692  34.448   1.346   4.459
78625W        W51693  40.329   8.122   4.984
78626W        W51694   1.025  20.077  12.541
78627W        W51695  43.015  25.514  14.021
78628W        W51696  24.501  17.083   0.228
78629W        W51697   2.896  28.156  13.550
78630W        W51698  30.979   8.357  11.069
78631W        W51699  43.686   3.730  13.785
78632W        W51700  17.575   6.250  13.535
78633W        W51701  11.969  26.678   4.127
78634W        W51702  27.797  27.717  14.871
78635W        W51703  19.396  16.061   0.019
78636W        W51704  37.352   0.085  14.061
78637W        W51705  32.640  32.931   1.799
78638W        W51706  40.712   8.821   1.013
78639W        W51707  24.585  30.674  10.640
78640W        W51708  31.031  36.468   4.753
78641W        W51709   2.913   8.396   1.358
78642W        W51710  26.432  39.501  12.946
78643W        W51711   1.485  35.515   2.809
78644W        W51712  42.869  32.939  11.918
78645W        W51713  20.049   3.289  12.777
78646W        W51714  18.293  43.443  12.079
78647W        W51715  28.949   2.164   1.177
78648W        W51716   0.317  13.859  10.798
78649W        W51717  24.702  21.288   4.022
78650W        W51718  13.453  22.102   1.799
78651W        W51719  30.145  33.958   4.187
78652W        W51720  36.493  30.357  14.329
78653W        W51721  31.407  19.637  10.690
78654W        W51722  20.341   4.473   1.399
78655W        W51723  24.390  22.987   3.722
78656W        W51724   3.735  44.242   0.652
78657W        W51725   2.438  41.209  11.351
78658W        W51726  12.793  30.526  14.013
78659W        W51727  42.725  43.067   2.317
78660W        W51728  30.057  25.236  10.438
78661W        W51729  33.935   8.414   3.294
78662W        W51730   3.441  35.010   0.239
78663W        W51731  42.034   0.490  14.872
78664W        W51732  24.183  15.265  11.153
78665W        W51733  35.908  41.010  10.787
78666W        W51734   7.909  34.652   3.764
78667W        W51735   9.815  26.561  13.632
78668W        W51736  41.708  16.032   2.293
78669W        W51737  15.067  14.645  13.076
78670W        W51738   3.751   5.838  10.367
78671W        W51739  44.851  33.430   3.780
78672W        W51740  39.547   4.601  12.829
78673W        W51741  10.768   5.004  12.890
78674W        W51742   9.780  18.772  13.365
78675W        W51743  41.322  25.557  11.940
78676W        W51744  40.363  12.185   4.715
78677W        W51745   1.698  42.518   0.471
78678W        W51746  32.473  24.514   2.792
78679W        W51747  34.319  37.498   3.145
78680W        W51748  11.091  19.662   4.586
78681W        W51749  41.058   5.294   3.295
78682W        W51750  18.356  28.976  11.555
78683W        W51751   9.331  32.202  13.420
78684W        W51752  25.309  26.030  14.962
78685W        W51753  10.621  17.330  14.749
78686W        W51754  28.434  21.807  14.573
78687W        W51755  33.356  30.113   3.152
78688W        W51756   2.386  37.533  11.104
78689W        W51757  14.898  34.634  12.749
78690W        W51758  28.481  38.037  13.035
78691W        W51759  28.401  33.417   3.689
78692W        W51760   9.499  18.539   3.726
78693W        W51761   6.643  19.122   3.760
78694W        W51762  42.556  15.303   5.081
78695W        W51763  21.234   3.783  13.324
78696W        W51764   9.879  14.988  11.772
78697W        W51765  36.559  16.166  12.095
78698W        W51766  18.828  21.254   3.578
78699W        W51767  18.156  11.239  14.819
78700W        W51768  44.410   4.022   2.772
78701W        W51769   5.280  15.659  13.842
78702W        W51770  44.105  43.057   2.312
78703W        W51771  38.550   9.258   3.308
78704W        W51772  11.856  43.886   3.549
78705W        W51773  26.353  10.025   3.178
78706W        W51774  39.421  17.176   2.812
78707W        W51775   9.138  21.618  13.837
78708W        W51776  30.150  37.378   0.841
78709W        W51777   3.440  36.711   4.608
78710W        W51778  11.872   9.329  12.607
78711W        W51779  10.897  36.379   0.345
78712W        W51780  18.092  23.590  10.637
78713W        W51781  15.504   4.410   2.292
78714W        W51782  13.204  14.362  11.437
78715W        W51783  35.739  31.415  11.087
78716W        W51784  20.843  42.668   1.615
78717W        W51785  13.080  25.370   3.491
78718W        W51786   7.210  29.128  11.625
78719W        W51787  34.464  26.342   3.202
78720W        W51788  31.031  38.990  14.328
78721W        W51789  23.815  19.653   1.476
78722W        W51790  14.327  11.074  10.835
78723W        W51791   4.156   5.499   4.233
78724W        W51792  27.854  38.784  14.951
78725W        W51793   1.784  43.559  13.451
78726W        W51794  38.555  28.674  13.482
78727W        W51795   7.656  35.026  13.489
78728W        W51796  14.418  23.989   1.368
78729W        W51797  36.463  43.807  11.560
78730W        W51798  26.169  42.602   1.289
78731W        W51799  37.765  22.479  11.796
78732W        W51800   2.443  37.654  14.425
78733W        W51801  40.374  25.967   2.094
78734W        W51802  10.230  16.558  14.371
78735W        W51803   1.188  36.415   3.184
78736W        W51804   6.457  25.042  14.075
78737W        W51805  15.646  23.221  10.743
78738W        W51806  32.595  34.007  12.357
78739W        W51807  44.553  16.579  14.834
78740W        W51808  38.981  40.040   3.225
78741W        W51809   7.033   8.346   3.317
78742W        W51810   9.530  38.926  11.295
78743W        W51811   3.682  11.872  14.335
78744W        W51812  10.289   4.746   0.634
78745W        W51813  11.125   6.294   4.541
78746W        W51814  22.838  32.099   1.619
78747W        W51815  34.044  21.189   3.624
78748W        W51816   5.841   6.343  13.372
78749W        W51817  37.144  33.229   0.405
78750W        W51818  31.083  42.130  14.526
78751W        W51819  35.652  13.780  13.826
78752W        W51820  30.480  16.177   4.308
78753W        W51821  34.309   6.209  11.576
78754W        W51822  28.839   7.695   0.789
78755W        W51823  21.588  13.895  14.458
78756W        W51824  35.501  42.852   3.210
78757W        W51825   6.426  38.627  13.753
78758W        W51826  25.052  28.870  11.590
78759W        W51827  40.455   4.751  13.853
78760W        W51828  21.681   0.851  14.085
78761W        W51829   2.785  12.832  10.615
78762W        W51830  15.734  17.077  11.714
78763W        W51831  17.677  29.021   2.586
78764W        W51832  18.188  18.014   0.959
78765W        W51833  16.694  13.458   2.037
78766W        W51834   1.562  17.102  13.130
78767W        W51835  13.713  30.964  13.087
78768W        W51836  36.793   5.448   1.224
78769W        W51837  36.530  22.126  13.474
78770W        W51838  18.560   7.272   3.319
78771W        W51839  11.891  26.586  12.138
78772W        W51840  39.464  34.954  12.197
78773W        W51841  18.221  26.938   0.727
78774W        W51842  28.019  32.664   1.829
78775W        W51843  38.241  19.599   0.950
78776W        W51844  40.776  23.446   0.857
78777W        W51845  40.890  14.797   0.766
78778W        W51846  25.509  31.690  12.984
78779W        W51847  39.868  43.334   1.886
78780W        W51848  15.991   2.135   0.844
78781W        W51849   8.295   5.736   1.503
78782W        W51850   3.239  30.025   0.076
78783W        W51851  41.474  15.789   3.803
78784W        W51852  13.797  35.625   4.794
78785W        W51853  36.184  23.566  11.915
78786W        W51854  34.565  14.723   0.883
78787W        W51855  26.951  32.922  14.910
78788W        W51856  38.055  40.349  12.143
78789W        W51857  24.168  40.665   2.213
78790W        W51858  41.487  12.440   3.023
78791W        W51859  21.704  43.736   2.271
78792W        W51860  18.082  23.563  11.555
78793W        W51861  10.017   0.678  14.526
78794W        W51862  21.762  32.142  11.559
78795W        W51863  23.702  37.101  14.351
78796W        W51864  34.272  26.757  11.258
78797W        W51865  30.907  17.049   4.299
78798W        W51866  30.621  39.097   0.256
78799W        W51867  10.775  28.928   2.521
78800W        W51868  41.204  11.651   0.456
78801W        W51869  25.240   9.418  13.014
78802W        W51870   0.973   9.347   1.901
78803W        W51871  43.511  22.080  14.021
78804W        W51872  35.220   4.851   2.786
78805W        W51873  38.455  22.528   4.309
78806W        W51874   0.051  32.910  13.552
78807W        W51875   6.185  22.383   3.720
78808W        W51876   0.845  30.499   4.607
78809W        W51877  21.017  10.495   0.280
78810W        W51878  25.702  16.347   1.818
78811W        W51879  16.782   6.890  11.863
78812W        W51880  28.425   6.266   4.752
78813W        W51881  23.304  14.225  10.667
78814W        W51882   9.452  17.162   3.838
78815W        W51883  13.255  40.978   4.817
78816W        W51884  15.875  42.120  14.717
78817W        W51885  37.422   7.469   1.388
78818W        W51886  40.069  11.514  14.812
78819W        W51887   7.211  13.136  11.347
78820W        W51888  43.194  44.554  10.269
78821W        W51889  10.909  34.873  11.192
78822W        W51890  15.101  33.067   1.719
78823W        W51891   2.820  19.228  10.511
78824W        W51892   6.717  29.014  11.680
78825W        W51893  21.666  13.979  11.900
78826W        W51894  31.942  14.713  12.515
78827W        W51895  34.806  17.644   1.733
78828W        W51896   4.850   8.349  12.395
78829W        W51897   9.148  42.393   3.369
78830W        W51898  15.570   5.911  14.870
78831W        W51899   5.446   3.940  11.414
78832W        W51900  39.035  39.537   3.187
78833W        W51901   7.191   6.626   0.039
78834W        W51902  44.012  37.522   0.323
78835W        W51903  40.763  16.639   3.793
78836W        W51904  32.633  12.411   2.897
78837W        W51905  11.301  27.445   4.084
78838W        W51906  12.667  42.384   3.525
78839W        W51907  32.408  24.274   4.191
78840W        W51908  32.404   7.755   0.919
78841W        W51909   0.244   9.168   1.373
78842W        W51910  37.455  11.518   2.433
78843W        W51911  22.567  13.605   2.584
78844W        W51912  23.178  27.435   3.202
78845W        W51913   3.698  28.612  13.510
78846W        W51914  15.875  35.364  12.341
78847W        W51915   2.613  41.942  11.628
78848W        W51916  14.479  22.532   2.412
78849W        W51917  10.726   5.201  10.752
78850W        W51918  17.671  16.879   1.194
78851W        W51919  31.136  29.524   3.173
78852W        W51920   7.606   6.685   1.860
78853W        W51921   8.476  37.629  10.915
78854W        W51922  26.622  38.260   5.242
78855W        W51923   0.496  24.105   2.307
78856W        W51924  44.270  39.587   1.821
78857W        W51925  28.007  32.054  11.678
78858W        W51926  40.085  22.572  14.472
78859W        W51927  24.889  33.810   4.212
78860W        W51928  34.493  37.420   1.200
78861W        W51929   3.593  11.883   0.944
78862W        W51930  32.471  20.946   2.899
78863W        W51931  31.743   2.933   0.523
78864W        W51932  35.617   9.301   1.321
78865W        W51933   3.150   4.788   1.537
78866W        W51934  11.292  18.638  13.384
78867W        W51935  17.158  22.092  14.561
78868W        W51936  34.084   7.676   0.791
78869W        W51937  12.120   2.472   3.851
78870W        W51938  33.047  39.919  14.972
78871W        W51939  20.777   0.942   0.759
78872W        W51940  14.343  28.724  14.896
78873W        W51941   8.749  22.997   2.682
78874W        W51942  39.988  39.460  11.334
78875W        W51943  30.668  14.488   2.148
78876W        W51944  37.189  20.109  11.127
78877W        W51945  37.143   4.685   5.091
78878W        W51946   8.411  20.193   3.371
78879W        W51947   7.261  30.155  10.711
78880W        W51948  42.996  19.717   1.833
78881W        W51949   0.500   8.306  12.486
78882W        W51950  35.359  18.503  13.390
78883W        W51951  11.500  35.311  13.941
78884W        W51952  10.704  26.325  14.875
78885W        W51953  33.928  36.679  13.580
78886W        W51954   8.697  18.129   1.600
78887W        W51955  23.258  18.494   4.512
78888W        W51956  33.098  10.438   0.680
78889W        W51957  36.917  30.397   0.087
78890W        W51958   5.785  29.235  13.396
78891W        W51959   6.418  24.271   1.782
78892W        W51960  39.312  21.568   1.797
78893W        W51961  27.269  29.501  12.004
78894W        W51962  44.286  19.537  11.557
78895W        W51963  36.622  17.850   3.880
78896W        W51964  30.443   2.482   3.480
78897W        W51965  10.809  31.955   0.059
78898W        W51966  24.455  19.625  10.190
78899W        W51967   2.216  14.645   0.447
78900W        W51968  19.777  34.677   2.327
78901W        W51969  43.909  13.861  10.488
78902W        W51970  33.451  14.902  13.139
78903W        W51971  16.700   6.762  12.626
78904W        W51972  13.844  27.904   3.905
78905W        W51973  18.402  16.011   1.431
78906W        W51974  24.566  23.695  10.728
78907W        W51975  19.706  20.838  13.482
78908W        W51976  20.688  31.998   3.191
78909W        W51977   1.974  28.331  11.547
78910W        W51978  23.662  24.633  13.561
78911W        W51979   2.431   5.274   1.393
78912W        W51980   7.615  29.976  12.749
78913W        W51981  25.098  28.900  12.515
78914W        W51982  29.081  29.257   4.180
78915W        W51983  38.032   0.515  12.737
78916W        W51984  25.036  19.341  14.777
78917W        W51985  24.868  42.357   3.328
78918W        W51986  25.783  27.438  11.648
78919W        W51987  18.661  19.504  13.963
78920W        W51988  43.254  15.412   0.962
78921W        W51989  12.129   0.949  11.893
78922W        W51990  31.960  20.895   1.835
78923W        W51991   6.200  14.790  13.833
78924W        W51992  28.497   3.939   3.640
78925W        W51993  29.189  32.922   4.081
78926W        W51994  24.951  10.783  10.540
78927W        W51995  13.760   3.889  12.114
78928W        W51996  36.954   3.689  13.449
78929W        W51997  22.002  41.064   1.458
78930W        W51998  44.786  19.155   2.323
78931W        W51999  19.777   9.393  13.082
78932W        W52000  38.030  25.537   1.516
78933W        W52001  35.914  32.982  11.713
78934W        W52002  13.618  43.909  12.458
78935W        W52003   2.819   5.801   4.068
78936W        W52004  39.094  27.933   3.787
78937W        W52005   3.348  35.518   3.501
78938W        W52006  17.483  14.794   1.065
78939W        W52007  19.986  24.647  13.636
78940W        W52008  35.470   3.699  11.662
78941W        W52009  21.616  41.418   2.821
78942W        W52010   0.871  35.075   1.369
78943W        W52011  24.199  21.206  12.353
78944W        W52012  43.466  43.364   2.809
78945W        W52013  34.551   4.755   0.268
78946W        W52014  16.327  15.227  13.096
78947W        W52015  14.707   9.624  12.975
78948W        W52016  25.655  32.162  10.773
78949W        W52017  30.934   9.470   1.745
78950W        W52018  36.953  35.974   4.505
78951W        W52019   7.636  34.504  12.016
78952W        W52020  35.292  28.635  14.364
78953W        W52021  43.871   4.053   1.932
78954W        W52022   8.029  12.097   2.330
78955W        W52023  41.316   6.478   0.863
78956W        W52024  21.981  39.129  12.393
78957W        W52025  43.414  28.540   3.342
78958W        W52026  27.200  41.491  12.956
78959W        W52027  13.278  32.424   3.985
78960W        W52028   2.932  21.880  13.949
78961W        W52029  10.921  30.458   1.416
78962W        W52030   4.686  24.441   3.198
78963W        W52031  15.850  22.248   4.841
78964W        W52032  39.840  44.084   0.675
78965W        W52033  29.421   4.962  11.097
78966W        W52034  31.094   8.455   1.557
78967W        W52035   5.843  23.054   2.705
78968W        W52036   7.196  25.638   1.894
78969W        W52037  31.881  34.988  12.383
78970W        W52038   1.978   7.249   2.398
78971W        W52039  16.388  38.335   1.214
78972W        W52040  25.240   0.163  12.650
78973W        W52041  10.141   7.560   3.617
78974W        W52042  11.844  43.060  12.849
78975W        W52043  42.392  30.645  12.645
78976W        W52044  35.955  31.219   2.887
78977W        W52045  15.414  21.038  11.115
78978W        W52046   9.681   5.243   1.746
78979W        W52047  21.487  14.289  11.556
78980W        W52048  44.108  35.051   3.621
78981W        W52049  28.432  42.245  12.632
78982W        W52050   8.882   2.015  12.180
78983W        W52051   6.206  16.333   1.857
78984W        W52052   1.446  37.411  11.033
78985W        W52053  13.099  34.427   2.181
78986W        W52054  38.275  37.462   3.854
78987W        W52055  29.459  38.834  14.018
78988W        W52056   4.748  20.035  11.672
78989W        W52057   5.347  12.250  13.747
78990W        W52058  18.087   8.563   3.885
78991W        W52059  16.744  28.740  11.067
78992W        W52060  43.417  29.420  10.727
78993W        W52061  20.914   5.277  13.055
78994W        W52062  38.129  14.748   0.005
78995W        W52063  20.943  22.540   0.300
78996W        W52064  10.339  19.819  10.222
78997W        W52065  41.331  31.278  14.980
78998W        W52066  33.617  28.109  10.046
78999W        W52067   7.223  20.613   1.753
79000W        W52068  11.634  38.788  11.677
79001W        W52069  40.308  14.608  13.757
79002W        W52070  25.937  13.713  13.969
79003W        W52071  32.596  33.539  14.026
79004W        W52072  33.600  31.451  12.198
79005W        W52073   6.925  13.587  12.073
79006W        W52074  31.144  17.489  10.126
79007W        W52075  28.243  29.752   4.095
79008W        W52076  40.683  18.881   4.448
79009W        W52077   1.020  13.134   4.850
79010W        W52078   6.465   4.759   1.068
79011W        W52079  14.283  22.256  11.191
79012W        W52080  22.901   4.804   1.703
79013W        W52081  44.358  22.994   2.183
79014W        W52082  12.210  44.256   3.575
79015W        W52083  22.619  22.812   3.563
79016W        W52084  38.497  18.333  14.036
79017W        W52085  24.415  19.493  13.421
79018W        W52086  41.323   1.073  14.715
79019W        W52087  28.538  10.825  14.848
79020W        W52088  24.550  44.093  11.538
79021W        W52089  23.646  19.115  11.903
79022W        W52090  29.009  16.929   3.765
79023W        W52091  13.365  42.501   4.103
79024W        W52092  41.517  23.121  14.740
79025W        W52093  38.489  32.929   0.573
79026W        W52094  17.646  36.565   0.802
79027W        W52095   0.537  12.543  11.162
79028W        W52096  37.124  18.494  14.930
79029W        W52097  23.620  29.424  14.844
79030W        W52098  31.618  33.537   1.480
79031W        W52099  41.366  43.802  13.096
79032W        W52100   6.968  16.199  11.385
79033W        W52101  43.444  30.685   1.481
79034W        W52102   6.139  14.263   1.856
79035W        W52103   7.178  24.642  10.723
79036W        W52104   6.310  15.184   4.691
79037W        W52105  26.195  22.216  14.749
79038W        W52106   3.550   3.823  12.493
79039W        W52107  39.537   6.066  12.014
79040W        W52108  43.453  12.783  13.103
79041W        W52109  22.062  13.656   0.896
79042W        W52110   9.343   3.961  14.795
79043W        W52111  24.634  43.877   2.226
79044W        W52112   1.672  34.952   3.673
79045W        W52113  33.806  21.076   1.031
79046W        W52114  29.050  35.263   4.430
79047W        W52115  17.632   5.939  12.748
79048W        W52116   2.799  28.926  11.392
79049W        W52117  28.340  13.857   0.964
79050W        W52118   2.908   1.763  13.626
79051W        W52119  39.438  23.455  12.847
79052W        W52120  43.794   1.835  11.864
79053W        W52121  24.575  17.666  13.393
79054W        W52122  18.991  28.103  14.467
79055W        W52123   4.730  41.472  10.232
79056W        W52124  33.420  34.147  13.862
79057W        W52125  10.375  23.119  14.695
79058W        W52126  16.261  36.335   2.370
79059W        W52127  16.442  36.146   0.273
79060W        W52128  12.686  34.008   3.468
79061W        W52129  29.002  21.162   3.957
79062W        W52130  29.784   1.207  11.564
79063W        W52131  18.691   6.654  11.236
79064W        W52132  25.173  27.140  12.136
79065W        W52133  16.239  31.645  14.090
79066W        W52134  26.945   9.352  12.420
79067W        W52135  31.690  38.975   2.799
79068W        W52136  27.709  30.538   4.635
79069W        W52137  33.881  42.427   4.892
79070W        W52138   0.754  41.461   0.613
79071W        W52139  20.323  30.760   1.201
79072W        W52140  43.018  39.645  12.104
79073W        W52141  14.121  22.560   0.087
79074W        W52142  16.940  27.851  11.192
79075W        W52143  36.582  12.474   9.944
79076W        W52144  38.889  11.301  12.144
79077W        W52145   2.061  28.440  10.599
79078W        W52146  31.910  29.095   0.833
79079W        W52147  28.121  31.673   1.926
79080W        W52148  39.109   7.891   2.804
79081W        W52149  34.030   9.367  10.664
79082W        W52150  23.640  18.236  10.650
79083W        W52151  44.435  33.118  13.907
79084W        W52152  22.702   5.919   0.840
79085W        W52153  22.075  42.862   1.971
79086W        W52154  14.181  14.800  14.172
79087W        W52155  21.027  38.889  12.965
79088W        W52156  38.380  16.191  14.241
79089W        W52157  27.577   2.411  10.384
79090W        W52158  28.956   4.326   4.224
79091W        W52159  10.733  23.480  13.767
79092W        W52160  40.359  16.740   4.569
79093W        W52161  21.137   7.939  13.492
79094W        W52162  36.677   4.610  12.923
79095W        W52163  41.995  29.081   3.849
79096W        W52164  24.162  39.418  12.769
79097W        W52165  18.264  31.351  10.563
79098W        W52166   6.447  39.303   4.343
79099W        W52167  31.591  30.584   0.907
79100W        W52168  23.686  20.642  11.967
79101W        W52169  11.639  34.344  10.610
79102W        W52170  25.761   7.732  13.489
79103W        W52171   7.393  34.574  14.931
79104W        W52172  32.382   3.656   5.103
79105W        W52173  44.918  24.592   1.499
79106W        W52174   2.278  40.946   2.465
79107W        W52175  37.877  23.395   0.921
79108W        W52176  37.752   0.056  12.654
79109W        W52177  23.023   6.000  10.655
79110W        W52178  22.399  20.187   1.422
79111W        W52179  25.802  18.638   3.975
79112W        W52180  25.058   2.990   2.418
79113W        W52181   7.096   1.763  14.709
79114W        W52182   1.146  10.261   1.303
79115W        W52183   5.228   1.754  12.484
79116W        W52184   6.262  41.002   2.887
79117W        W52185  41.470  37.343   4.595
79118W        W52186   6.152  37.464   3.288
79119W        W52187  23.098   6.177  14.545
79120W        W52188  16.504  26.922  11.138
79121W        W52189  20.161  34.811  13.764
79122W        W52190   3.087   5.822   0.055
79123W        W52191  20.689  42.318  11.657
79124W        W52192  16.588  31.664  11.616
79125W        W52193  42.876  31.143  11.217
79126W        W52194  44.905   8.137  14.268
79127W        W52195  43.608  41.407  11.045
79128W        W52196   2.828  27.495  10.983
79129W        W52197   1.377  22.715  13.661
79130W        W52198  33.517  34.141  12.867
79131W        W52199   1.495   0.365   4.127
79132W        W52200  42.866  10.639   1.229
79133W        W52201   8.898  19.184  12.923
79134W        W52202  17.054  39.531   2.872
79135W        W52203  13.762  38.348  11.626
79136W        W52204  11.057   2.380  11.554
79137W        W52205  24.105  43.088  12.100
79138W        W52206  15.245  10.356   0.059
79139W        W52207  36.994  11.629   4.438
79140W        W52208   3.251   9.336  14.868
79141W        W52209  25.686  35.203  13.464
79142W        W52210  28.474  27.128  14.632
79143W        W52211  41.501  31.576  13.888
79144W        W52212  23.148  16.283  10.709
79145W        W52213  14.787  17.676  12.554
79146W        W52214  23.236  42.979   4.624
79147W        W52215  10.791  26.003   1.698
79148W        W52216   2.875  38.492   1.663
79149W        W52217  17.967   9.881  14.530
79150W        W52218   0.315  15.660   4.489
79151W        W52219  27.626   4.852   0.796
79152W        W52220  33.061  38.256  11.017
79153W        W52221  32.488  16.830  14.192
79154W        W52222  17.378  17.124   3.317
79155W        W52223  22.009  32.494   2.808
79156W        W52224  23.766  14.833  13.863
79157W        W52225  27.636   3.501  12.027
79158W        W52226  35.356  28.476  12.527
79159W        W52227   1.573  15.647  11.973
79160W        W52228  19.638  10.757   4.943
79161W        W52229  14.154  29.408  13.858
79162W        W52230  40.818  20.193   2.833
79163W        W52231  37.348  27.643   3.759
79164W        W52232  17.563  26.627   2.242
79165W        W52233  12.845  40.524  13.917
79166W        W52234  43.804  11.382  11.116
79167W        W52235  23.753  13.102  14.376
79168W        W52236  16.763  31.394   2.792
79169W        W52237  31.772  34.625   2.801
79170W        W52238  28.814   9.446   3.313
79171W        W52239   0.702  14.721  11.616
79172W        W52240  29.652   2.770   4.325
79173W        W52241   4.208  16.066   3.675
79174W        W52242  37.918  14.334  13.807
79175W        W52243   4.852  13.794   0.716
79176W        W52244  33.058  44.863   2.875
79177W        W52245   4.090  36.613  11.986
79178W        W52246  12.788  18.605  12.577
79179W        W52247  15.064  11.297  14.471
79180W        W52248  11.346  19.818   5.007
79181W        W52249  15.618   2.618   1.257
79182W        W52250  34.933  14.622  12.057
79183W        W52251  13.856  29.414  14.860
79184W        W52252  32.497  23.279  13.535
79185W        W52253  29.896  19.609   1.124
79186W        W52254  11.599  17.089  12.012
79187W        W52255  33.366  33.188  13.886
79188W        W52256  43.641  38.601   3.997
79189W        W52257  31.243  29.602   2.246
79190W        W52258  31.069   7.166  11.389
79191W        W52259  39.643   4.771   4.197
79192W        W52260  15.237   7.219  13.823
79193W        W52261  13.078  30.212   0.098
79194W        W52262  40.366   2.735   0.576
79195W        W52263  43.578  20.022  11.507
79196W        W52264  10.307  41.022   4.388
79197W        W52265  29.069  35.629  13.090
79198W        W52266  30.212  19.725   0.731
79199W        W52267   7.277  14.250   1.239
79200W        W52268  13.862  43.154  13.353
79201W        W52269  10.287   0.704   1.440
79202W        W52270  17.678   6.903   4.353
79203W        W52271  23.575   9.199   2.142
79204W        W52272   9.761  39.255   0.009
79205W        W52273  38.891   4.713  13.429
79206W        W52274  39.946  33.546  14.436
79207W        W52275  25.424   0.782   1.929
79208W        W52276  43.376   3.443   1.368
79209W        W52277  42.246  39.018   1.881
79210W        W52278  44.552  11.831  12.488
79211W        W52279  37.364  27.584  12.770
79212W        W52280  24.816  19.165   0.272
79213W        W52281  43.880   6.744  10.840
79214W        W52282  14.372  41.842   3.332
79215W        W52283  21.568  44.558   0.857
79216W        W52284   3.957  22.982  11.457
79217W        W52285  11.625  40.091  14.373
79218W        W52286  28.163  21.143   1.416
79219W        W52287  35.313   8.834   0.602
79220W        W52288  18.114   2.246  14.009
79221W        W52289   6.436  44.967   4.133
79222W        W52290  19.123  14.766  13.520
79223W        W52291   6.296  23.191   0.147
79224W        W52292  29.403  27.459   3.527
79225W        W52293  31.941  36.326  13.054
79226W        W52294  13.245  21.154   4.564
79227W        W52295   0.768  28.143   1.230
79228W        W52296   9.367   9.793  12.073
79229W        W52297  13.659  18.618   0.865
79230W        W52298  33.157  40.775   2.280
79231W        W52299   9.149  16.776   0.499
79232W        W52300   7.314   2.325   0.290
79233W        W52301  32.935  29.579   4.115
79234W        W52302  32.336  24.238  13.074
79235W        W52303   0.002  12.095   2.251
79236W        W52304  13.782  17.562   1.086
79237W        W52305  21.728  44.930  12.746
79238W        W52306  44.894  27.697   0.001
79239W        W52307  42.994  30.977  11.690
79240W        W52308   2.851  18.598  12.234
79241W        W52309  27.669  34.872  13.814
79242W        W52310  28.671   5.011   3.192
79243W        W52311  24.134  36.173  14.758
79244W        W52312  34.424  22.095   0.083
79245W        W52313  22.732  39.017   0.420
79246W        W52314  42.762  19.469  13.443
79247W        W52315  23.223  30.126   4.561
79248W        W52316  15.064  21.398  12.064
79249W        W52317  35.842  11.079   2.124
79250W        W52318  22.724  35.507  12.624
79251W        W52319  30.485   3.504   2.843
79252W        W52320  14.157  41.859  12.945
79253W        W52321  10.457   0.790   3.654
79254W        W52322  18.669   8.287  13.175
79255W        W52323  14.636  26.605   0.767
79256W        W52324   1.675  10.208   1.284
79257W        W52325   9.321  25.693   1.824
79258W        W52326  12.072  32.030  10.838
79259W        W52327  19.861   8.122  13.736
79260W        W52328  20.099   4.495  11.176
79261W        W52329  22.850  24.474   2.304
79262W        W52330   8.918  26.684   2.668
79263W        W52331  27.449  26.039  11.563
79264W        W52332  10.634  42.863  12.077
79265W        W52333  16.207  17.809   3.008
79266W        W52334  36.546  38.101  12.903
79267W        W52335  39.843  37.952  12.846
79268W        W52336  20.179  11.155   0.276
79269W        W52337  22.961   6.808  12.519
79270W        W52338   2.821  13.054  11.954
79271W        W52339  22.604  19.668   1.497
79272W        W52340  41.795   8.339   2.399
79273W        W52341  38.866  39.829  13.806
79274W        W52342   7.792  27.971  14.385
79275W        W52343  31.353  10.120   2.784
79276W        W52344  44.992  15.993  12.222
79277W        W52345  12.135  26.412   1.299
79278W        W52346  26.404   9.407  14.214
79279W        W52347  31.852  12.131  11.625
79280W        W52348  40.811   2.854  12.892
79281W        W52349   0.467  37.730  11.089
79282W        W52350  12.374  12.619   4.034
79283W        W52351   1.965  35.566  14.583
79284W        W52352   9.774  42.975   3.700
79285W        W52353  21.676  43.327   0.246
79286W        W52354  23.046  13.148  14.923
79287W        W52355   0.599  36.889   1.680
79288W        W52356   4.870  40.953   3.622
79289W        W52357   5.263  20.993  11.508
79290W        W52358   5.016  37.414  13.548
79291W        W52359  33.922  37.224  10.734
79292W        W52360  39.573  17.300   1.266
79293W        W52361  11.393   2.223  13.467
79294W        W52362  17.832   6.825  10.735
79295W        W52363  25.620   1.024   0.915
79296W        W52364   1.889  33.748  12.339
79297W        W52365   9.301   1.205  14.543
79298W        W52366  38.492  32.131  12.169
79299W        W52367  27.722  32.248   0.022
79300W        W52368  12.996  22.796   1.546
79301W        W52369  44.566  12.522  12.499
79302W        W52370   6.635  41.888   2.862
79303W        W52371  34.837   5.209   2.723
79304W        W52372  37.270  28.411   2.379
79305W        W52373  42.453  30.026  14.830
79306W        W52374  10.485  10.125   5.052
79307W        W52375  39.657  40.637  11.194
79308W        W52376   4.258   0.341   3.618
79309W        W52377  37.849  26.224   3.769
79310W        W52378  42.104  15.058   4.949
79311W        W52379   6.912   6.157   4.076
79312W        W52380  39.531  44.336  14.270
79313W        W52381   3.775  29.569  14.635
79314W        W52382  22.445  39.080   0.862
79315W        W52383  15.261  22.005   2.864
79316W        W52384  20.474  18.129   4.166
79317W        W52385  30.652  38.051   2.519
79318W        W52386  13.343   6.388  10.643
79319W        W52387  36.535  20.043   0.059
79320W        W52388  32.857  15.856   3.289
79321W        W52389  11.758  28.942   2.904
79322W        W52390  10.967   3.302  14.511
79323W        W52391  31.512  11.686  13.645
79324W        W52392   2.158   9.912  11.972
79325W        W52393   0.310  11.312   2.565
79326W        W52394   4.818  21.763  13.662
79327W        W52395  40.968  43.081  11.166
79328W        W52396  25.669  40.755   5.454
79329W        W52397  35.867  24.098   3.287
79330W        W52398  15.476  15.776  10.413
79331W        W52399  17.851  23.318   2.680
79332W        W52400  14.897  33.449   2.520
79333W        W52401  30.383  12.703  12.350
79334W        W52402  34.375  41.561   0.855
79335W        W52403  30.445  23.130  12.089
79336W        W52404  14.867  42.867  11.619
79337W        W52405  35.924  40.946   3.761
79338W        W52406   5.763   5.432   3.986
79339W        W52407  39.320  19.736  10.908
79340W        W52408  35.891  33.665   1.244
79341W        W52409  25.361  26.604  13.304
79342W        W52410  36.023  11.614   3.625
79343W        W52411   5.956  36.803   0.826
79344W        W52412   8.818  21.469   3.683
79345W        W52413  26.251  25.530   2.276
79346W        W52414  30.359  38.804  14.293
79347W        W52415  43.373   3.258   3.779
79348W        W52416  11.969  30.854  13.598
79349W        W52417  29.382  18.070  12.928
79350W        W52418  11.817   7.070  14.232
79351W        W52419   2.197  22.005   0.162
79352W        W52420  10.212  11.678  13.304
79353W        W52421  10.127  41.307  11.925
79354W        W52422  20.209  28.478  10.422
79355W        W52423  37.582   9.699   2.693
79356W        W52424  30.455  43.813   1.020
79357W        W52425  13.730  14.275  13.032
79358W        W52426  12.189   1.278   3.609
79359W        W52427  40.613   1.367   4.630
79360W        W52428   9.351  29.049  11.139
79361W        W52429  41.517  38.988   3.191
79362W        W52430  19.843  44.985  13.337
79363W        W52431  14.828  29.110  12.889
79364W        W52432  43.260  42.115  12.111
79365W        W52433  34.524  33.129   5.033
79366W        W52434  39.274   4.698   1.255
79367W        W52435  26.538  32.050  10.706
79368W        W52436  36.333  29.225   4.488
79369W        W52437  14.636  28.598  12.037
79370W        W52438  36.189   5.240   4.305
79371W        W52439  20.041  39.491   3.198
79372W        W52440  23.361  19.540  10.292
79373W        W52441   6.595  41.523  10.252
79374W        W52442  39.921  13.452  10.182
79375W        W52443  40.907   2.441   1.186
79376W        W52444   0.772  43.561   1.787
79377W        W52445   0.530  33.623  12.616
79378W        W52446  12.936  35.451  13.985
79379W        W52447   3.323  13.725  11.588
79380W        W52448   1.027  36.100  12.949
79381W        W52449  13.264   5.350   3.193
79382W        W52450  18.506  30.929  13.495
79383W        W52451  36.071  44.544   4.277
79384W        W52452  41.966  43.316  11.086
79385W        W52453   8.083  30.996   0.370
79386W        W52454  28.822   4.583  11.706
79387W        W52455  39.059   9.663  14.525
79388W        W52456  10.131  23.984  11.496
79389W        W52457  26.021  29.690  11.467
79390W        W52458  13.462  16.582  11.975
79391W        W52459  42.110  21.325   2.475
79392W        W52460  20.604  40.526   2.908
79393W        W52461  32.123  11.886  13.863
79394W        W52462  33.381  28.180   4.082
79395W        W52463  37.762  32.726   2.808
79396W        W52464  36.171  10.222  10.658
79397W        W52465  26.562  15.757  13.799
79398W        W52466  29.549  14.797   3.358
79399W        W52467   1.422  32.174   2.483
79400W        W52468  14.865  19.657  13.516
79401W        W52469  14.524  12.425  14.414
79402W        W52470  10.627  17.446  12.602
79403W        W52471   2.273  16.175   2.397
79404W        W52472   2.852  19.607  12.653
79405W        W52473  33.363  12.131  10.779
79406W        W52474  24.639  33.594  12.043
79407W        W52475  12.717  19.259  11.660
79408W        W52476  42.187  32.880   3.192
79409W        W52477  40.356  17.798   4.585
79410W        W52478  16.129  20.969   3.192
79411W        W52479  31.568   0.150   0.820
79412W        W52480   7.117   8.727  13.978
79413W        W52481  14.761  31.629  13.052
79414W        W52482  39.364  14.356  13.093
79415W        W52483  31.699  10.238   3.164
79416W        W52484   9.826  31.163  10.467
79417W        W52485  35.163  36.003   2.669
79418W        W52486  16.654  16.836  11.927
79419W        W52487  25.931  30.589   0.984
79420W        W52488  24.154  40.421   4.037
79421W        W52489   6.494  37.441  11.594
79422W        W52490  42.318  13.103  12.092
79423W        W52491  19.732  20.692  11.638
79424W        W52492   5.753  10.682  13.771
79425W        W52493  41.959   9.022  10.983
79426W        W52494  19.561  37.050   2.685
79427W        W52495  14.600   8.194  14.550
79428W        W52496   9.873  36.897   3.265
79429W        W52497  43.506  44.889   1.799
79430W        W52498  10.583  36.155  11.848
79431W        W52499  19.963  44.333  13.492
79432W        W52500  26.974  14.177  14.388
79433W        W52501   5.809  11.526  14.331
79434W        W52502  32.687  14.177  12.413
79435W        W52503  16.607  14.801  12.006
79436W        W52504  24.376  22.429  13.404
79437W        W52505   9.480   8.285  14.925
79438W        W52506  16.176   4.779  12.098
79439W        W52507   4.316  30.017   2.479
79440W        W52508  25.168   3.736  11.738
79441W        W52509   4.893  22.227   2.217
79442W        W52510  34.446   0.545   2.274
79443W        W52511  10.276   4.003   1.858
79444W        W52512  28.361   1.333  13.131
79445W        W52513  32.683  12.608  12.100
79446W        W52514  17.793  42.544  12.988
79447W        W52515  18.758  24.336  13.550
79448W        W52516  28.474   3.887  12.977
79449W        W52517  40.144  40.920   4.320
79450W        W52518  32.897   2.973   2.662
79451W        W52519   4.566  36.416  11.929
79452W        W52520  41.881   2.205   1.951
79453W        W52521  17.820  13.641  14.271
79454W        W52522  14.220  30.246   2.824
79455W        W52523  22.263  30.183  12.925
79456W        W52524  40.886  38.378   3.789
79457W        W52525   5.861  11.807   3.653
79458W        W52526  24.532  39.302   4.454
79459W        W52527  34.508  40.259   3.366
79460W        W52528  12.345  34.975   0.094
79461W        W52529   0.314  16.218  11.439
79462W        W52530  21.572  31.375  11.202
79463W        W52531  30.560  24.547   3.756
79464W        W52532  19.209  11.190  13.226
79465W        W52533  37.757  33.532   0.518
79466W        W52534  27.517  41.914   4.585
79467W        W52535  37.027  43.701  11.213
79468W        W52536   3.676  29.391   4.164
79469W        W52537  26.717  22.467   2.297
79470W        W52538   8.131  29.656  10.838
79471W        W52539   5.023  28.364  14.720
79472W        W52540  31.592   1.022   2.775
79473W        W52541   7.938  36.368  13.792
79474W        W52542  20.443  27.120   2.244
79475W        W52543  13.030  19.079   4.162
79476W        W52544  22.140  35.204  14.220
79477W        W52545  11.341   5.251   4.452
79478W        W52546  29.120  24.231  11.593
79479W        W52547  12.530  39.816   4.130
79480W        W52548  33.561   4.576  13.886
79481W        W52549  32.571   3.186   2.271
79482W        W52550  40.072  32.142   1.762
79483W        W52551  32.652  41.885  14.098
79484W        W52552  25.713  36.821   0.942
79485W        W52553  37.402   3.395   1.710
79486W        W52554  33.581   3.902  12.498
79487W        W52555  14.888  36.556  14.409
79488W        W52556  40.607   1.904  14.978
79489W        W52557  35.587  19.558   0.944
79490W        W52558  34.178  32.524  14.989
79491W        W52559  18.989  12.298  13.432
79492W        W52560   9.952  22.523  11.139
79493W        W52561   9.711  17.777  14.507
79494W        W52562   9.994  40.465  14.801
79495W        W52563  36.425   5.484   4.788
79496W        W52564  29.268  10.403   3.201
79497W        W52565  39.520   6.405  14.441
79498W        W52566  11.617  37.373  14.462
79499W        W52567  10.771  37.768   2.788
79500W        W52568   3.253  30.207  10.387
79501W        W52569  35.494   8.266  14.710
79502W        W52570   4.560  23.557   2.685
79503W        W52571  26.935  12.354  12.034
79504W        W52572  37.927  36.866  14.321
79505W        W52573  28.228  15.587  14.570
79506W        W52574  37.872   5.832   2.786
79507W        W52575  38.405  10.131  10.765
79508W        W52576  32.093   5.602  11.582
79509W        W52577  10.820  32.107  12.126
79510W        W52578  19.794  43.918   1.783
79511W        W52579  36.688  41.243  13.427
79512W        W52580  29.085  10.853   4.162
79513W        W52581  30.411  21.531  10.476
79514W        W52582  23.001  19.910   4.383
79515W        W52583   7.783  23.662   3.859
79516W        W52584  12.042  25.943   2.247
79517W        W52585  17.257  24.138   0.463
79518W        W52586   7.732  29.419   2.727
79519W        W52587   0.618  41.037  12.008
79520W        W52588  32.376  41.327   3.148
79521W        W52589  17.237  18.773   0.480
79522W        W52590  10.795   2.480   4.796
79523W        W52591  32.332   9.182   1.044
79524W        W52592  42.296  29.589   2.639
79525W        W52593  30.255  21.665   2.794
79526W        W52594  22.477   8.393   3.251
79527W        W52595  34.079  28.526  12.196
79528W        W52596  29.266   0.464  12.812
79529W        W52597   9.905  37.309   4.756
79530W        W52598   5.473  44.927  12.905
79531W        W52599  25.241  36.459  12.065
79532W        W52600  10.349  27.958  14.489
79533W        W52601  12.218  41.340   2.381
79534W        W52602  20.281  25.521  14.953
79535W        W52603  43.755  43.511  14.325
79536W        W52604  17.348  40.920   4.642
79537W        W52605   8.577  32.861  13.624
79538W        W52606  25.969  21.542   1.313
79539W        W52607  25.963  21.532   0.408
79540W        W52608  41.671   1.322   4.775
79541W        W52609  20.047   7.785  11.591
79542W        W52610  27.525  39.536  13.963
79543W        W52611  16.565  41.494  11.934
79544W        W52612  41.026  21.602  10.537
79545W        W52613   0.443  34.588  11.604
79546W        W52614  35.551  13.302  12.991
79547W        W52615   1.887   5.242   0.315
79548W        W52616   6.281  29.458   1.257
79549W        W52617  39.501  33.419   1.947
79550W        W52618   5.322  33.065   2.140
79551W        W52619  37.888  35.786   2.486
79552W        W52620  43.781  19.398  12.433
79553W        W52621  13.310   1.376  12.543
79554W        W52622   9.794  18.777  11.524
79555W        W52623  34.240  19.635   0.994
79556W        W52624   2.738  32.624   1.670
79557W        W52625  31.096  14.773   0.958
79558W        W52626  29.836  35.207   3.290
79559W        W52627  37.365   6.308   1.293
79560W        W52628  35.053  19.735   4.920
79561W        W52629  28.778  36.601  11.089
79562W        W52630   2.553  20.064   1.988
79563W        W52631  35.041  36.962  12.241
79564W        W52632  28.409  11.674  12.338
79565W        W52633  25.487  20.595   3.657
79566W        W52634  15.856  24.024   1.775
79567W        W52635   3.793   1.201   3.261
79568W        W52636  27.183  38.521   2.957
79569W        W52637  38.845  19.739  13.090
79570W        W52638  41.472  11.350   1.769
79571W        W52639  26.194   3.965   4.495
79572W        W52640  41.788  19.301   2.169
79573W        W52641   0.831  21.142   1.403
79574W        W52642  39.381  19.717   4.885
79575W        W52643  43.750  39.319  12.454
79576W        W52644  35.048   6.348  13.239
79577W        W52645  13.007  30.003   3.425
79578W        W52646  36.320  35.501   0.297
79579W        W52647  17.823  28.703   3.691
79580W        W52648  20.467  27.375  11.264
79581W        W52649  23.219  36.368  13.112
79582W        W52650  38.713  32.054  14.435
79583W        W52651  43.052  22.093   4.963
79584W        W52652   9.656  43.509   3.737
79585W        W52653  33.945  18.534   4.561
79586W        W52654  23.122  24.605  14.412
79587W        W52655   8.503  23.988  14.785
79588W        W52656  37.885   1.101   3.244
79589W        W52657  42.680  34.105   1.937
79590W        W52658  42.654  41.155   0.916
79591W        W52659  22.549  33.462   4.758
79592W        W52660  19.074  42.773  13.377
79593W        W52661   8.244  11.781   3.692
79594W        W52662   2.716  34.410  14.260
79595W        W52663  39.789  27.169   0.919
79596W        W52664   4.411  10.732  13.479
79597W        W52665  25.471  21.172   2.306
79598W        W52666   1.934  23.295  14.112
79599W        W52667  27.964  20.495   0.029
79600W        W52668  18.581   7.587   2.247
79601W        W52669   1.492   2.400   0.335
79602W        W52670   5.060  21.822  10.651
79603W        W52671   0.827  12.898  12.605
79604W        W52672   1.853  13.461   2.310
79605W        W52673  44.578  16.229  14.450
79606W        W52674  16.378  24.235   3.963
79607W        W52675  44.829  17.001  11.941
79608W        W52676   5.360  38.542  14.523
79609W        W52677   6.449  32.165   3.107
79610W        W52678  10.774  12.740  12.625
79611W        W52679  36.302  41.064  13.911
79612W        W52680  18.667  34.117   4.352
79613W        W52681  39.498  36.521   4.082
79614W        W52682  38.374   5.501   0.517
79615W        W52683  25.377   7.905  13.858
79616W        W52684   1.919   1.396  14.471
79617W        W52685  24.507  29.614   2.300
79618W        W52686  24.789  41.970   1.595
79619W        W52687  13.454   2.387   1.750
79620W        W52688  10.758  12.603   1.179
79621W        W52689  35.078  33.138   1.580
79622W        W52690   5.873  44.315   2.090
79623W        W52691  34.000  23.759  14.028
79624W        W52692  15.973  37.417  12.502
79625W        W52693  14.675  14.759   5.111
79626W        W52694  34.381  12.064  13.481
79627W        W52695   6.443  29.457  11.531
79628W        W52696  28.628  35.154  11.681
79629W        W52697  42.671  14.030  14.845
79630W        W52698  17.593  19.934   3.725
79631W        W52699  14.115   5.133   0.522
79632W        W52700  36.360   1.602  13.697
79633W        W52701  16.282  29.603  11.830
79634W        W52702  32.639  25.009   1.204
79635W        W52703  34.459  33.061  11.855
79636W        W52704  19.733  43.806  12.980
79637W        W52705   8.098  11.270  14.351
79638W        W52706  27.009  31.006  13.887
79639W        W52707  38.215   2.798  11.433
79640W        W52708  39.753  37.023  13.856
79641W        W52709   7.271  15.938   2.384
79642W        W52710  44.016  18.199   1.910
79643W        W52711   7.644  25.231  14.410
79644W        W52712  17.609  12.688  14.422
79645W        W52713  22.925  11.680  11.513
79646W        W52714  34.466  31.249   4.607
79647W        W52715  26.167  37.813   3.584
79648W        W52716  34.128  34.426   4.002
79649W        W52717  11.856   3.909  14.516
79650W        W52718  18.247  27.473  11.164
79651W        W52719   3.231   1.521   2.750
79652W        W52720  14.359   9.862  11.573
79653W        W52721   7.669  37.528  13.338
79654W        W52722  20.581  30.667   3.705
79655W        W52723  16.042  23.532  10.951
79656W        W52724  24.263   7.992   0.513
79657W        W52725   0.671  16.090   3.734
79658W        W52726  21.464  18.387  10.389
79659W        W52727  24.698  15.838  12.865
79660W        W52728  35.565  33.048   1.758
79661W        W52729  17.314  38.977  13.057
79662W        W52730  26.564  14.352   1.030
79663W        W52731  19.649  26.784   4.131
79664W        W52732  24.303   3.941   1.717
79665W        W52733   9.667   9.783   3.610
79666W        W52734  24.641  41.458   1.825
79667W        W52735  39.451  40.268  11.498
79668W        W52736   1.324  38.460   2.279
79669W        W52737   7.598   0.958  12.107
79670W        W52738  24.479  24.793   2.790
79671W        W52739  23.981   0.295   4.614
79672W        W52740  36.604  25.197  12.316
79673W        W52741  43.743  15.032  11.773
79674W        W52742  21.731  15.447  12.110
79675W        W52743  16.342  27.581  13.047
79676W        W52744  12.407  20.895  12.460
79677W        W52745  16.193  40.413   2.130
79678W        W52746  25.259  34.249   4.123
79679W        W52747  33.468   9.149  14.856
79680W        W52748  24.619   1.247  10.733
79681W        W52749  38.131  23.492   4.277
79682W        W52750  25.403  25.149  14.494
79683W        W52751  21.536  20.623   2.685
79684W        W52752  30.432  39.257   1.687
79685W        W52753   9.863  16.111  11.278
79686W        W52754  42.576   6.037  13.482
79687W        W52755  14.392   5.228  13.165
79688W        W52756  16.132   0.424   3.668
79689W        W52757  29.038  34.001  12.825
79690W        W52758  14.874  17.474  10.191
79691W        W52759  13.269  28.314   3.342
79692W        W52760  30.469  27.490   3.235
79693W        W52761  25.082  15.897   5.040
79694W        W52762  14.596  38.017  10.620
79695W        W52763   3.231  28.982   2.203
79696W        W52764  29.071  18.215  11.041
79697W        W52765  15.229  21.059  12.447
79698W        W52766  37.417  14.206  10.641
79699W        W52767   9.319   5.532  12.109
79700W        W52768  20.583  11.902   1.709
79701W        W52769   6.685  42.817  14.295
79702W        W52770  30.491  11.134  13.136
79703W        W52771   0.175   9.131   2.236
79704W        W52772  31.649  41.752  11.086
79705W        W52773  43.011  39.000   0.519
79706W        W52774   2.932  43.335   3.781
79707W        W52775  20.030  14.884   4.600
79708W        W52776  12.253  12.156   3.794
79709W        W52777   8.489   3.661  13.869
79710W        W52778  43.299  34.669  12.067
79711W        W52779  26.220   4.879   0.278
79712W        W52780   2.550  20.869  12.579
79713W        W52781  42.219  36.395   4.103
79714W        W52782  26.494  31.488   2.947
79715W        W52783   0.690  42.349  10.522
79716W        W52784  40.847  14.409  14.925
79717W        W52785  31.870   9.458  11.129
79718W        W52786  25.053  30.551  10.432
79719W        W52787   3.710  18.240  13.033
79720W        W52788  11.690   8.137   1.786
79721W        W52789  16.114  15.771  11.613
79722W        W52790   9.859   6.813   4.692
79723W        W52791  36.911  43.547  14.847
79724W        W52792   1.197   9.802   1.759
79725W        W52793  21.534  21.955   0.885
79726W        W52794  42.570  42.981  10.381
79727W        W52795   4.936  38.279   0.239
79728W        W52796  35.734  20.536   0.736
79729W        W52797  43.534   2.377  13.106
79730W        W52798  42.213  28.318   2.693
79731W        W52799   5.825  15.091   4.553
79732W        W52800  25.160  15.295  14.878
79733W        W52801  25.948  42.800   3.696
79734W        W52802  36.186  12.172   1.085
79735W        W52803  10.243  35.512   0.265
79736W        W52804  39.189  35.241   4.366
79737W        W52805  27.375  18.564  10.751
79738W        W52806  43.083   5.330  13.160
79739W        W52807  28.165  33.213   2.685
79740W        W52808  44.547  29.994  13.947
79741W        W52809   1.271  27.872   3.631
79742W        W52810  31.394   8.598   1.190
79743W        W52811  24.957   9.241  14.055
79744W        W52812  20.233  21.046  12.071
79745W        W52813  30.674  38.598  13.629
79746W        W52814  10.323  12.856   1.428
79747W        W52815  26.970  44.524   2.890
79748W        W52816  41.623   2.512   0.460
79749W        W52817   6.656  23.776  13.313
79750W        W52818  20.439  39.477   0.147
79751W        W52819   4.404  39.528   2.172
79752W        W52820  42.980  34.190   2.754
79753W        W52821  32.384  13.001   0.316
79754W        W52822  34.898  29.281  12.443
79755W        W52823  41.326  25.676  12.492
79756W        W52824  16.240  19.788   4.603
79757W        W52825  13.011   7.245   2.428
79758W        W52826  33.814  22.156  10.165
79759W        W52827  16.406   1.807   5.188
79760W        W52828  41.486  23.581   4.278
79761W        W52829   8.347   4.306   4.677
79762W        W52830  26.971  42.676  12.501
79763W        W52831  15.614  44.788  13.074
79764W        W52832  11.296  18.119  13.354
79765W        W52833  31.406  31.818   3.431
79766W        W52834  23.597  35.428   3.293
79767W        W52835  11.547  19.492  10.410
79768W        W52836  13.619   3.773   2.191
79769W        W52837  34.411  43.499  12.509
79770W        W52838  15.653  17.043  10.772
79771W        W52839  40.367  34.602  14.175
79772W        W52840  28.238  21.066  12.396
79773W        W52841  10.692   1.121  12.934
79774W        W52842  28.656   5.403   0.945
79775W        W52843  16.783  29.641   3.210
79776W        W52844  29.544  20.344   4.195
79777W        W52845   9.146  25.512   2.351
79778W        W52846  44.835   1.874  12.000
79779W        W52847  27.932  40.904   3.747
79780W        W52848  17.737   8.484   4.709
79781W        W52849  32.703  36.897   2.856
79782W        W52850  11.235   5.483   4.002
79783W        W52851  21.753  42.996  13.234
79784W        W52852  16.923  23.730   1.743
79785W        W52853  39.522  10.874   3.273
79786W        W52854  12.762  19.970   2.190
79787W        W52855  28.339  42.733  10.023
79788W        W52856  13.353  32.398   1.317
79789W        W52857  40.912  44.736  12.325
79790W        W52858   9.682  38.451  12.330
79791W        W52859  34.571  31.449   4.127
79792W        W52860  36.782  12.904  12.037
79793W        W52861  29.941  32.946   4.573
79794W        W52862  44.714   7.698   0.036
79795W        W52863  18.659  34.591   2.614
79796W        W52864   2.965   6.318  11.866
79797W        W52865  20.253   9.622  11.150
79798W        W52866  17.221  41.871   1.155
79799W        W52867  44.705  26.551  12.848
79800W        W52868  37.532  30.678   0.694
79801W        W52869  31.455  39.920   1.678
79802W        W52870   0.881  32.119  11.137
79803W        W52871  24.434  22.157   3.086
79804W        W52872  33.973  10.533   2.416
79805W        W52873  12.113  23.452   0.494
79806W        W52874   3.922   5.416  12.451
79807W        W52875  41.466  31.113  12.467
79808W        W52876  17.139  24.740  13.892
79809W        W52877  39.918  19.341  10.830
79810W        W52878  21.126  28.814   2.831
79811W        W52879  27.459  22.004  10.972
79812W        W52880   3.709   0.957  13.877
79813W        W52881   9.108  14.197   1.327
79814W        W52882  21.309  35.431   1.414
79815W        W52883  34.006   9.574   1.425
79816W        W52884  25.462   3.476  11.033
79817W        W52885  15.888  35.538  11.853
79818W        W52886  27.760  42.877  10.749
79819W        W52887   4.021   5.930   2.784
79820W        W52888  19.026  43.893   1.001
79821W        W52889  22.010  11.690   4.969
79822W        W52890   3.320  12.747  12.717
79823W        W52891   3.414  19.414   1.443
79824W        W52892   8.909   1.887   3.683
79825W        W52893  13.325  37.897  12.543
79826W        W52894   1.999  35.153  11.577
79827W        W52895  39.413   4.217  14.064
79828W        W52896  18.054   5.706   0.406
79829W        W52897   1.786  15.573  14.686
79830W        W52898   5.356  10.905  12.524
79831W        W52899  28.467  17.777  12.136
79832W        W52900  43.544   6.458  12.055
79833W        W52901  40.997  40.761   0.774
79834W        W52902  44.232  34.483   4.861
79835W        W52903  35.415  32.877  10.737
79836W        W52904  16.569   4.815   4.212
79837W        W52905  32.456  43.910  10.587
79838W        W52906  39.320   1.202   9.801
79839W        W52907   3.936  21.502   2.856
79840W        W52908  35.611  18.383   3.339
79841W        W52909  10.456  33.127  13.164
79842W        W52910  13.162  19.820  14.863
79843W        W52911   8.393  33.928  11.059
79844W        W52912  16.065   9.288  14.033
79845W        W52913  12.127  12.267   4.296
79846W        W52914  15.982  40.743   2.812
79847W        W52915  43.786  18.724   2.577
79848W        W52916  23.236  34.004   2.693
79849W        W52917  16.453  25.987  11.212
79850W        W52918  11.796  36.533   3.607
79851W        W52919  27.503   5.595   4.492
79852W        W52920  32.965  23.246  12.317
79853W        W52921   3.965  29.662   0.127
79854W        W52922  11.332  32.249  10.795
79855W        W52923  10.736  22.993   4.298
79856W        W52924  40.255  19.164   0.434
79857W        W52925  14.313  40.768   1.809
79858W        W52926  18.495  38.185  14.796
79859W        W52927   7.408   3.412   1.024
79860W        W52928  19.564  15.013  10.722
79861W        W52929  16.398  33.576   4.826
79862W        W52930  27.691   1.034  13.474
79863W        W52931  10.393  10.810  13.378
79864W        W52932  21.524  36.160  12.497
79865W        W52933  28.533  19.449   0.713
79866W        W52934   5.952  29.647  11.489
79867W        W52935  13.862  19.175  12.894
79868W        W52936  27.776   4.755   4.913
79869W        W52937  40.991   1.464   3.820
79870W        W52938  16.081  27.296  14.435
79871W        W52939  33.551  33.649  10.113
79872W        W52940  29.297  39.288   2.115
79873W        W52941   9.143  44.220  10.788
79874W        W52942  11.744  38.088   3.147
79875W        W52943  42.591  14.387  11.473
79876W        W52944  42.380  43.158  13.814
79877W        W52945  20.940  31.914   1.926
79878W        W52946  25.626  33.512   4.539
79879W        W52947  19.503   1.017  11.673
79880W        W52948   9.166   7.397   1.310
79881W        W52949   4.467  27.853  14.418
79882W        W52950  15.651  29.445   0.851
79883W        W52951   2.693  37.653  13.932
79884W        W52952   3.274  44.314   3.111
79885W        W52953  38.039   6.854   2.332
79886W        W52954  40.994   1.980   0.963
79887W        W52955   9.404  35.422   2.035
79888W        W52956   9.699  20.876  14.266
79889W        W52957  10.415  16.634   2.398
79890W        W52958  32.567  14.807   1.937
79891W        W52959   8.399  43.712   0.565
79892W        W52960  36.443  19.607   0.343
79893W        W52961  16.542   2.474   2.394
79894W        W52962  41.371   6.954   1.796
79895W        W52963   2.090  33.947   2.795
79896W        W52964  19.191  22.158  14.497
79897W        W52965  14.456  41.823   4.180
79898W        W52966  11.197  20.034  14.360
79899W        W52967  24.236  16.108  11.713
79900W        W52968  31.471   6.774  12.395
79901W        W52969  40.386   9.657  12.375
79902W        W52970  23.976  17.961   2.346
79903W        W52971  33.373   0.558   3.242
79904W        W52972  13.106   8.343  11.627
79905W        W52973  14.630  15.759  14.142
79906W        W52974   4.415  31.207  10.709
79907W        W52975   4.749  43.297   0.915
79908W        W52976  20.694  32.205   3.672
79909W        W52977  26.176  14.309   0.158
79910W        W52978  18.661  18.675  13.415
79911W        W52979  42.897   8.441   0.182
79912W        W52980  42.903  22.529   4.740
79913W        W52981  12.657  22.786   3.304
79914W        W52982   1.653  29.181   2.772
79915W        W52983   8.217  20.517  12.407
79916W        W52984  15.757  26.943  12.967
79917W        W52985  39.025  38.174   2.915
79918W        W52986  14.120  35.402   0.931
79919W        W52987  22.061  32.358  13.874
79920W        W52988   9.148  13.398  11.592
79921W        W52989  34.203  16.258   4.166
79922W        W52990  42.317  15.156  11.152
79923W        W52991  28.688   2.763   0.325
79924W        W52992  38.431  14.416  13.887
79925W        W52993  12.958  32.035   4.766
79926W        W52994  37.110  42.117  12.352
79927W        W52995  33.648  43.414   3.852
79928W        W52996  25.411  23.713   4.581
79929W        W52997   1.363  21.763   3.086
79930W        W52998  10.677   8.244  10.877
79931W        W52999  34.566  29.528  14.293
79932W        W53000  33.468   2.570  11.918
79933W        W53001  29.620  34.220  11.954
79934W        W53002  21.708  31.734  12.493
79935W        W53003  33.458  21.716  11.745
79936W        W53004  16.320  14.621  11.590
79937W        W53005  27.094  28.579   3.682
79938W        W53006  38.376   0.908  12.630
79939W        W53007  13.712  44.785   2.265
79940W        W53008  39.079  24.209   2.368
79941W        W53009  24.968  22.861  14.326
79942W        W53010  25.084   4.459  13.338
79943W        W53011  21.928   1.015  10.255
79944W        W53012  28.460  15.093   1.400
79945W        W53013  39.100  31.664   3.618
79946W        W53014  12.583  33.907  14.339
79947W        W53015  38.114   4.199   2.802
79948W        W53016  32.285   9.047  12.022
79949W        W53017  42.019  25.606  13.629
79950W        W53018  29.880   1.284  12.890
79951W        W53019  34.375  41.523  11.206
79952W        W53020  25.120  28.944  10.604
79953W        W53021   8.966  39.611   0.808
79954W        W53022  10.094  14.446   1.556
79955W        W53023  17.811   7.231   1.216
79956W        W53024   5.107  17.120  13.859
79957W        W53025  15.100  37.893  13.297
79958W        W53026   4.215   1.740  12.555
79959W        W53027  21.570   0.240  11.044
79960W        W53028   4.468   9.358   2.337
79961W        W53029  13.065  30.959  14.374
79962W        W53030  14.738  15.030   4.678
79963W        W53031  34.665  31.434  12.047
79964W        W53032  41.814  24.276  12.186
79965W        W53033  29.863  32.140   2.910
79966W        W53034  24.071  40.581  14.793
79967W        W53035   3.074  10.740   0.001
79968W        W53036   3.290  16.812   4.249
79969W        W53037  16.088   6.975  11.603
79970W        W53038  15.696   4.506  14.134
79971W        W53039   8.827  15.653  10.614
79972W        W53040  16.396  44.283   2.837
79973W        W53041  20.013  39.269  14.974
79974W        W53042  42.771   5.649  11.483
79975W        W53043  29.884  26.396  11.997
79976W        W53044   3.045   0.371  13.019
79977W        W53045  27.704  25.606  13.896
79978W        W53046  28.091  44.432  11.682
79979W        W53047  28.458  26.154   2.853
79980W        W53048   7.892   4.368  12.109
79981W        W53049  32.498   2.803  13.288
79982W        W53050   9.117  15.715  13.566
79983W        W53051  12.140  27.410  12.068
79984W        W53052  13.088   5.933  13.005
79985W        W53053  12.192  36.985   1.535
79986W        W53054  38.505   4.452  14.388
79987W        W53055   3.307  13.419   1.784
79988W        W53056  20.174   2.826  12.036
79989W        W53057  30.113  35.586   1.729
79990W        W53058  19.965  10.085  10.349
79991W        W53059  25.019   9.444   0.887
79992W        W53060  16.988  38.896  11.518
79993W        W53061  20.166   4.198   0.418
79994W        W53062  36.261   2.193  12.879
79995W        W53063   2.248   9.754   4.381
79996W        W53064  19.601  43.860   0.833
79997W        W53065  33.787  34.835   3.926
79998W        W53066  26.499  21.132  13.032
79999W        W53067   8.289   9.890  12.442
80000W        W53068  39.619  37.962   4.286
80001W        W53069  18.315  39.265  13.747
80002W        W53070   4.597  34.978  12.860
80003W        W53071  33.395   8.973   3.867
80004W        W53072  41.238   4.193  11.111
80005W        W53073   7.899   6.412   4.651
80006W        W53074  34.569   9.303   0.300
80007W        W53075  11.612  27.073  10.974
80008W        W53076  43.284  37.769  11.036
80009W        W53077  11.751  26.614  12.642
80010W        W53078  43.086  15.071   2.758
80011W        W53079   2.576  40.343  10.736
80012W        W53080  37.860  28.139   0.741
80013W        W53081  14.751   5.334   4.580
80014W        W53082  38.575   2.753   1.411
80015W        W53083  35.443   0.442  14.413
80016W        W53084  43.786  27.115  11.873
80017W        W53085  34.816  23.719   3.156
80018W        W53086  41.504  19.141   4.308
80019W        W53087  37.540  28.066  12.824
80020W        W53088  33.114   1.340   3.094
80021W        W53089  37.050  34.561  12.580
80022W        W53090  40.843  17.812   1.853
80023W        W53091   6.920  37.423  13.025
80024W        W53092  28.142  33.805   3.929
80025W        W53093  40.363  19.106  11.719
80026W        W53094  23.980  11.074   4.084
80027W        W53095  23.884  42.287  11.603
80028W        W53096   7.027  39.886  11.241
80029W        W53097  14.539  44.450  13.682
80030W        W53098  26.017   8.440   3.745
80031W        W53099  44.527  13.280   3.364
80032W        W53100   9.620   9.706   0.954
80033W        W53101  36.311  42.834  11.656
80034W        W53102  41.451   7.169   4.793
80035W        W53103  21.279  31.667   4.157
80036W        W53104  36.056   9.342   4.732
80037W        W53105  43.276  43.974  12.559
80038W        W53106   5.111  20.854  10.652
80039W        W53107  30.555  12.436   0.821
80040W        W53108  42.990  18.646   2.242
80041W        W53109  31.589   2.645   3.512
80042W        W53110  12.683   6.489   2.680
80043W        W53111  44.999  12.087  11.171
80044W        W53112  40.884  11.061  13.286
80045W        W53113  21.571  31.503   4.924
80046W        W53114  42.838  44.732   4.214
80047W        W53115  39.606   7.829   2.812
80048W        W53116  35.314  12.150   4.803
80049W        W53117   4.805  27.959   2.166
80050W        W53118  24.805  44.251  11.123
80051W        W53119  33.186  43.247  13.036
80052W        W53120   5.766  21.783   0.045
80053W        W53121   5.745  40.822   3.581
80054W        W53122  15.766  27.395  11.133
80055W        W53123  26.535  39.840  10.667
80056W        W53124   6.395  20.273   4.104
80057W        W53125   3.178  32.578  13.310
80058W        W53126  44.742  15.803   3.111
80059W        W53127  16.162  44.910  14.342
80060W        W53128   6.817  35.496   3.352
80061W        W53129  24.676  12.201  14.390
80062W        W53130  29.073  35.212   3.662
80063W        W53131  38.360  31.550  14.913
80064W        W53132  37.952  11.848   1.995
80065W        W53133  31.142  16.371   1.818
80066W        W53134   2.810  26.826  14.427
80067W        W53135  14.157  11.096  12.137
80068W        W53136  25.500   0.921  13.904
80069W        W53137  29.573  42.214   0.183
80070W        W53138  11.922   1.863  14.011
80071W        W53139   4.721  34.995  14.239
80072W        W53140   4.323  26.101  10.644
80073W        W53141  10.822  36.745  11.018
80074W        W53142   7.288  11.257   4.485
80075W        W53143  32.096  30.336  13.550
80076W        W53144  40.352  29.813  10.931
80077W        W53145   2.551  40.304  14.922
80078W        W53146  15.820  44.397   2.368
80079W        W53147   2.550  17.560  13.021
80080W        W53148  40.874   7.975  14.243
80081W        W53149  42.529  10.630   2.334
80082W        W53150  15.914  17.190  13.459
80083W        W53151   9.605  14.090   3.566
80084W        W53152  13.151  31.224   3.695
80085W        W53153   1.204  40.953   1.408
80086W        W53154  37.284  19.871  12.477
80087W        W53155  35.470  10.277   2.302
80088W        W53156  14.032  38.146   2.362
80089W        W53157  23.573  36.430   3.788
80090W        W53158  42.047   5.223   0.374
80091W        W53159   7.941   8.484   0.575
80092W        W53160   9.758   2.464   1.179
80093W        W53161  13.581  10.023  14.960
80094W        W53162   3.494   9.878   1.343
80095W        W53163  41.978   1.056   0.439
80096W        W53164  18.315  31.499   2.532
80097W        W53165   2.440  22.314   2.998
80098W        W53166   8.749   1.875  12.814
80099W        W53167   6.398   6.393  11.324
80100W        W53168  33.407  38.471   2.700
80101W        W53169   7.392  38.912   4.411
80102W        W53170  34.366  44.400   4.813
80103W        W53171  44.304  24.264  13.791
80104W        W53172  39.516  16.755   4.098
80105W        W53173  28.588  22.762   2.143
80106W        W53174  41.406  13.231  13.820
80107W        W53175  18.529  21.265   3.143
80108W        W53176   7.848  14.641  12.386
80109W        W53177  39.958  14.211   4.676
80110W        W53178  29.471  14.629  12.716
80111W        W53179  16.678  20.339  12.485
80112W        W53180  36.855  11.531   1.818
80113W        W53181   4.696  28.964  11.880
80114W        W53182   7.041  23.172  14.466
80115W        W53183  30.435  30.922   4.634
80116W        W53184  19.839   4.707   0.997
80117W        W53185  22.732  22.383  12.047
80118W        W53186  36.016  26.560   2.392
80119W        W53187   9.690  38.810  14.765
80120W        W53188  37.037  20.130   0.834
80121W        W53189  28.515  19.219  10.463
80122W        W53190  44.213  29.538   3.573
80123W        W53191   5.309  25.580   0.845
80124W        W53192  13.724  39.209   3.847
80125W        W53193  18.174   5.262   4.228
80126W        W53194   8.391  35.721  11.957
80127W        W53195  42.750   6.458  12.433
80128W        W53196  29.311  18.289   0.330
80129W        W53197   6.426  41.380   1.342
80130W        W53198  31.861  41.866  12.394
80131W        W53199  27.724  33.186  14.397
80132W        W53200  30.621  19.135  10.711
80133W        W53201   8.750  31.217   1.102
80134W        W53202   4.862  36.117   4.537
80135W        W53203  14.427  10.337   2.373
80136W        W53204  28.829  25.422  14.486
80137W        W53205  44.923  17.899   4.053
80138W        W53206  15.232  23.237  11.714
80139W        W53207  38.902  35.102  12.029
80140W        W53208  23.142  37.470   3.017
80141W        W53209  18.524  29.066  14.497
80142W        W53210  36.594  33.974   1.460
80143W        W53211  11.275  42.222   0.784
80144W        W53212  27.041  17.824  11.118
80145W        W53213  35.327  31.585   0.831
80146W        W53214  24.192  40.922   4.916
80147W        W53215  44.974  28.859  13.284
80148W        W53216  22.998  20.362  13.370
80149W        W53217  38.769  44.891  14.422
80150W        W53218  21.153  30.211   0.203
80151W        W53219  33.922  15.003   1.740
80152W        W53220  17.979   1.857   0.830
80153W        W53221  34.062   2.977  13.347
80154W        W53222  39.479  42.070   3.977
80155W        W53223  10.746  12.130   1.414
80156W        W53224  23.139   0.542  10.985
80157W        W53225  17.282  22.076  10.811
80158W        W53226  17.093  26.661   3.710
80159W        W53227  14.032  27.625  14.940
80160W        W53228  26.114  33.820  12.463
80161W        W53229  26.056   1.272   3.253
80162W        W53230  22.748  23.162  12.542
80163W        W53231  17.239  35.246   1.821
80164W        W53232  32.440   9.788   4.185
80165W        W53233  37.481  37.761   0.662
80166W        W53234  26.109  22.654  14.485
80167W        W53235  34.628  43.757  14.388
80168W        W53236   0.074  22.253   0.361
80169W        W53237   0.526  34.090   2.675
80170W        W53238  34.400  37.015  11.563
80171W        W53239  41.389  44.481  13.918
80172W        W53240   0.814   0.174  10.769
80173W        W53241  32.708  44.993   2.495
80174W        W53242  11.124   7.203   4.371
80175W        W53243  13.245   4.305   3.241
80176W        W53244  33.893   6.891  12.466
80177W        W53245  37.726   1.971  14.385
80178W        W53246  29.916  18.725   3.577
80179W        W53247   2.310  34.423   4.535
80180W        W53248  10.223   7.329  13.976
80181W        W53249  21.289  32.846   1.733
80182W        W53250   4.986  16.621   1.886
80183W        W53251   8.895  17.632  12.920
80184W        W53252  41.198  10.176   1.259
80185W        W53253  33.031  10.342   1.170
80186W        W53254  19.170   5.647  12.919
80187W        W53255  37.043  44.342  11.915
80188W        W53256  31.547   6.261  12.107
80189W        W53257  35.786  40.680  12.073
80190W        W53258  40.309  42.107   3.231
80191W        W53259  31.644  13.249   0.985
80192W        W53260  40.057  40.017   2.389
80193W        W53261   4.502  15.577  14.772
80194W        W53262   1.175  17.550   3.801
80195W        W53263  41.423   0.341  12.075
80196W        W53264  31.333  40.554  12.154
80197W        W53265  36.840  15.755  11.950
80198W        W53266  15.115  25.634  10.808
80199W        W53267  26.703  43.819   3.141
80200W        W53268  20.000  33.401   5.123
80201W        W53269  37.022  16.615  11.609
80202W        W53270  31.624  29.009  14.974
80203W        W53271  11.738   7.610   0.340
80204W        W53272  34.587  35.381   2.727
80205W        W53273   3.487   7.204  14.484
80206W        W53274  37.345   0.493   2.839
80207W        W53275   9.115  26.919   4.134
80208W        W53276   8.401  44.858  11.682
80209W        W53277  16.705  43.982  11.463
80210W        W53278  40.730  33.832   2.276
80211W        W53279   7.768  13.610   0.765
80212W        W53280  22.509  27.731  11.701
80213W        W53281   2.960   8.238  14.063
80214W        W53282  35.933   2.720   4.634
80215W        W53283  21.398  16.377  10.359
80216W        W53284  27.443   7.779  10.670
80217W        W53285  24.958   9.943   0.794
80218W        W53286  28.213  12.186   0.317
80219W        W53287  12.619  32.004  12.151
80220W        W53288  39.443   2.659  10.615
80221W        W53289  36.692  22.075   0.346
80222W        W53290  19.927  39.551  12.487
80223W        W53291  33.562  28.146   3.348
80224W        W53292   2.445  24.741  12.035
80225W        W53293  13.691  21.003   0.996
80226W        W53294   7.897  31.667  14.959
80227W        W53295  17.591  12.614   4.723
80228W        W53296  23.186  10.916  11.011
80229W        W53297  21.096  12.063   4.897
80230W        W53298  23.301  13.302  12.333
80231W        W53299  38.928  16.758   1.696
80232W        W53300  38.243  13.106   0.266
80233W        W53301  30.996  43.724   0.273
80234W        W53302   9.743   6.960  12.160
80235W        W53303  11.813  12.663  13.105
80236W        W53304  27.509  35.826  11.221
80237W        W53305  20.508   7.755  12.568
80238W        W53306  20.755   9.836  12.422
80239W        W53307  29.548  30.955  13.989
80240W        W53308  14.618  17.616   0.840
80241W        W53309  43.091   0.468  11.334
80242W        W53310   4.023   3.302   1.223
80243W        W53311  16.337   4.304   3.792
80244W        W53312   5.232  28.180   2.812
80245W        W53313  42.943  22.709   2.377
80246W        W53314   8.926  34.098   0.441
80247W        W53315  29.990   4.905  11.130
80248W        W53316  23.666   8.315   3.184
80249W        W53317  25.932  26.470  12.433
80250W        W53318  43.839   6.425   4.712
80251W        W53319  44.824  35.395  13.404
80252W        W53320  33.626  23.952   0.849
80253W        W53321  43.431  18.700  14.708
80254W        W53322  31.297  38.946   0.829
80255W        W53323  23.175  36.092   3.760
80256W        W53324  35.573  18.834   3.597
80257W        W53325  31.449  26.247   3.847
80258W        W53326  10.885   9.689   1.293
80259W        W53327  33.020  30.850  10.767
80260W        W53328  37.280  36.502   2.828
80261W        W53329  16.606  30.888   3.821
80262W        W53330   8.289   0.465  12.886
80263W        W53331  43.515  12.624  12.391
80264W        W53332  23.260  18.224   1.724
80265W        W53333  23.490  42.719   1.269
80266W        W53334  37.831  40.402   3.260
80267W        W53335  35.014  21.644   4.506
80268W        W53336   9.819  26.531  11.161
80269W        W53337   2.419  29.205  14.405
80270W        W53338  32.757   5.729  11.978
80271W        W53339  37.519  41.286  11.491
80272W        W53340  17.608  33.462  12.954
80273W        W53341  14.814  24.553   1.251
80274W        W53342  17.611  17.723  11.947
80275W        W53343  10.583  38.805  12.629
80276W        W53344  43.670  15.197   0.444
80277W        W53345  21.083  35.106   4.559
80278W        W53346  21.101  42.236  10.670
80279W        W53347   4.873  12.196  13.568
80280W        W53348   0.495  30.570   4.155
80281W        W53349  11.161  24.647  12.328
80282W        W53350   6.742   9.499  12.953
80283W        W53351  23.294  39.408   0.177
80284W        W53352   9.103  23.142  10.741
80285W        W53353   4.742  19.766   4.506
80286W        W53354  19.212  27.592   2.689
80287W        W53355   3.007   3.854  12.588
80288W        W53356   0.478   6.646   3.760
80289W        W53357   4.010  31.142   0.472
80290W        W53358  44.556   9.700  13.418
80291W        W53359  42.314   0.916   0.802
80292W        W53360   6.263   7.464   2.838
80293W        W53361  24.062   9.101   2.177
80294W        W53362   5.660   2.771  14.268
80295W        W53363  33.535   6.226  14.545
80296W        W53364  29.399  21.790   2.859
80297W        W53365   6.431   4.793  12.666
80298W        W53366  43.316   3.928  14.683
80299W        W53367  33.353  25.722   0.356
80300W        W53368  10.577  33.231  12.140
80301W        W53369  30.213  36.108   1.668
80302W        W53370  26.884  17.756  14.697
80303W        W53371   6.415   1.295  12.012
80304W        W53372  19.325  14.820   4.116
80305W        W53373  44.261   3.156  13.416
80306W        W53374  44.953  25.573   0.264
80307W        W53375   8.220  32.159  14.057
80308W        W53376  35.399  38.851  12.858
80309W        W53377  16.885  23.016  12.835
80310W        W53378  29.401  12.977  11.156
80311W        W53379  26.076  28.587  14.424
80312W        W53380  21.273   1.643   9.604
80313W        W53381  41.025   2.876   0.929
80314W        W53382  33.394  21.577   0.865
80315W        W53383  32.385  43.386  11.985
80316W        W53384  43.000  26.411   2.626
80317W        W53385  39.566  20.813  13.893
80318W        W53386  10.265  39.849   1.640
80319W        W53387  44.357  27.048   0.059
80320W        W53388   6.229   0.935  12.741
80321W        W53389  12.331  31.440   4.580
80322W        W53390  13.422  24.103   1.306
80323W        W53391  18.644  17.782  11.649
80324W        W53392   4.404  12.118  13.431
80325W        W53393   8.090  11.493  11.161
80326W        W53394   6.615  21.030   3.651
80327W        W53395  18.311  26.996   2.736
80328W        W53396  32.842   0.192  13.012
80329W        W53397  32.067  34.613   0.316
80330W        W53398  21.972  17.664  10.375
80331W        W53399  39.376   5.082  12.793
80332W        W53400  22.564  36.865  14.970
80333W        W53401  35.485  32.953   2.861
80334W        W53402  11.307  40.617  12.619
80335W        W53403  39.114   7.815  10.473
80336W        W53404  35.370  10.632   3.507
80337W        W53405  22.972  10.229   1.779
80338W        W53406  41.807  27.596   3.860
80339W        W53407  29.950  18.451   4.395
80340W        W53408  41.537  29.400   2.225
80341W        W53409  10.633  12.257   2.841
80342W        W53410  13.050  23.687   2.339
80343W        W53411  31.144  43.044   1.040
80344W        W53412  11.629  11.362  12.109
80345W        W53413  34.855  15.235  14.010
80346W        W53414  28.421   1.178   3.809
80347W        W53415  41.622   1.454   3.188
80348W        W53416  33.879  43.422   3.238
80349W        W53417   8.663  25.975   4.135
80350W        W53418  41.778  11.165   3.634
80351W        W53419  32.509  18.535   0.521
80352W        W53420  18.282   1.786   4.230
80353W        W53421  32.974   1.883  14.307
80354W        W53422  20.280  36.366   1.741
80355W        W53423  14.251  33.868   3.265
80356W        W53424  36.188  17.339  14.355
80357W        W53425   8.649   6.883  13.036
80358W        W53426  41.138  30.173   4.177
80359W        W53427  15.402  18.000   4.993
80360W        W53428  34.948  43.458  12.160
80361W        W53429   7.741   9.820   1.706
80362W        W53430  17.839  15.568   2.770
80363W        W53431  41.998  26.288  12.057
80364W        W53432   1.762  27.546  14.745
80365W        W53433  17.469  23.555   3.599
80366W        W53434  37.624   7.874  12.872
80367W        W53435  14.235  43.529   2.858
80368W        W53436  34.012   2.042   0.740
80369W        W53437  28.584  27.818   4.669
80370W        W53438  12.700  14.282  13.057
80371W        W53439  28.490  38.657   2.513
80372W        W53440  36.425  11.840   1.650
80373W        W53441  13.331  39.986  12.964
80374W        W53442  44.214  25.441  11.083
80375W        W53443   7.772  17.582   0.683
80376W        W53444   6.920   2.292   2.878
80377W        W53445   7.278  16.745   0.700
80378W        W53446   6.112  22.699   0.269
80379W        W53447  44.635  12.136  13.643
80380W        W53448   7.139  20.964  11.548
80381W        W53449  38.479  13.285   3.134
80382W        W53450  37.100  13.867   2.132
80383W        W53451  14.721  14.188  13.048
80384W        W53452   8.595  27.433  12.496
80385W        W53453  21.463   9.652  14.317
80386W        W53454  10.346  26.999  14.402
80387W        W53455  15.025  25.712   1.128
80388W        W53456  41.024  15.875   0.820
80389W        W53457  44.279  18.811   2.660
80390W        W53458   6.224  37.924  12.030
80391W        W53459   3.211   1.968  12.122
80392W        W53460  16.608  21.820   1.554
80393W        W53461  29.892  10.666   4.047
80394W        W53462  43.405   0.292   4.536
80395W        W53463  16.911  26.471  12.981
80396W        W53464   0.660  40.832   3.558
80397W        W53465  14.062  17.900   2.722
80398W        W53466  32.108  31.093  13.189
80399W        W53467   4.391  30.918  11.675
80400W        W53468  42.414  44.581  12.743
80401W        W53469  18.070  41.361  12.438
80402W        W53470  44.271  34.802   0.934
80403W        W53471   8.341  29.341  14.745
80404W        W53472  28.423  33.911   4.601
80405W        W53473  13.315  38.857  14.301
80406W        W53474  10.918  22.445  13.814
80407W        W53475  28.026  21.965  13.175
80408W        W53476  12.802  26.049  14.107
80409W        W53477   8.407  13.111   4.178
80410W        W53478   0.519   1.328  11.510
80411W        W53479   7.450  23.421   1.729
80412W        W53480  31.117  23.490   1.691
80413W        W53481  10.257  31.643   2.304
80414W        W53482   0.963  11.194   3.326
80415W        W53483  23.692  42.032  14.519
80416W        W53484  41.732   9.817   0.211
80417W        W53485  42.193  44.420   1.240
80418W        W53486  40.208  44.396  13.621
80419W        W53487  23.518   3.317   4.036
80420W        W53488   9.837  35.142   4.657
80421W        W53489  27.460  34.936   1.706
80422W        W53490  34.496  44.405   3.739
80423W        W53491  19.113  11.738   0.432
80424W        W53492  28.956  42.573   1.449
80425W        W53493  26.627   2.452   3.735
80426W        W53494  44.973   9.886  14.850
80427W        W53495  19.280  32.963  13.548
80428W        W53496  39.854  29.131  13.521
80429W        W53497   7.137  12.871  12.604
80430W        W53498   6.658  31.149  14.819
80431W        W53499  17.763  11.284  14.290
80432W        W53500  16.753   9.097  14.490
80433W        W53501  23.650  14.745   2.224
80434W        W53502  34.414  27.499  12.954
80435W        W53503  16.538  21.285  13.497
80436W        W53504  36.550  35.502  11.668
80437W        W53505   2.049  34.982   0.088
80438W        W53506   8.136  36.812  13.536
80439W        W53507  35.058   1.355  10.502
80440W        W53508  39.826  22.264  11.103
80441W        W53509   4.088  19.082  13.196
80442W        W53510   8.372   4.187  12.111
80443W        W53511  14.547  32.976  13.261
80444W        W53512  14.176  16.809   1.669
80445W        W53513  23.460  22.420  14.048
80446W        W53514  32.949  10.198   1.655
80447W        W53515  22.161   2.204  12.976
80448W        W53516  20.318  42.417  12.938
80449W        W53517  35.116  25.110   3.430
80450W        W53518   9.059  30.953   3.926
80451W        W53519  15.952  25.985  11.149
80452W        W53520  30.211   2.140  13.972
80453W        W53521  44.445  11.379   4.547
80454W        W53522  27.477  36.098   0.469
80455W        W53523   9.323  27.997   2.124
80456W        W53524  37.789  24.232   0.270
80457W        W53525  19.660   1.235   4.801
80458W        W53526  40.721  13.036   5.261
80459W        W53527  39.059  38.973   0.974
80460W        W53528   7.862  40.944  10.441
80461W        W53529   5.633   1.308   1.302
80462W        W53530  20.510  24.137  10.781
80463W        W53531  34.368   8.423   0.356
80464W        W53532  38.014  21.873   0.939
80465W        W53533  19.500  12.217  10.612
80466W        W53534   2.924  43.934   1.917
80467W        W53535   1.735   3.174   0.829
80468W        W53536  23.508  39.040   3.191
80469W        W53537  26.323  30.828  12.336
80470W        W53538  33.976   9.110   2.653
80471W        W53539  30.646  23.309  13.611
80472W        W53540  16.238  20.573   1.887
80473W        W53541  41.253  20.267   3.095
80474W        W53542  34.357  27.961   2.208
80475W        W53543  33.456  35.121  12.383
80476W        W53544  14.026  19.136  14.480
80477W        W53545  21.717   9.243  12.656
80478W        W53546  33.934   2.113   4.145
80479W        W53547  19.184  42.992   1.046
80480W        W53548  27.103  17.554  13.803
80481W        W53549  37.609   0.392  13.286
80482W        W53550  34.485  16.818   0.508
80483W        W53551  19.158  31.935   3.709
80484W        W53552  11.437  41.018  13.339
80485W        W53553  13.622  19.608  14.126
80486W        W53554  27.853  24.208  13.312
80487W        W53555  21.987   3.716   1.314
80488W        W53556  13.367   3.439  13.429
80489W        W53557  16.328   1.071   0.866
80490W        W53558   9.108  19.251   4.473
80491W        W53559  16.588  10.173  12.590
80492W        W53560  27.963  17.792   0.333
80493W        W53561  29.581  23.505  11.718
80494W        W53562  28.934  18.124   1.847
80495W        W53563  35.877  25.049   1.204
80496W        W53564   4.818  28.247   4.991
80497W        W53565   5.809  22.638  10.620
80498W        W53566   1.015   7.024  14.961
80499W        W53567  22.597  41.511   2.212
80500W        W53568  31.949  31.564   1.885
80501W        W53569  22.782   5.895  12.895
80502W        W53570  23.254  40.392  14.101
80503W        W53571   1.280  42.479   3.117
80504W        W53572  25.815  37.531   9.533
80505W        W53573  31.637   0.486  11.103
80506W        W53574   8.980  20.464  12.896
80507W        W53575   8.839  20.202   3.092
80508W        W53576  14.866   1.277  12.592
80509W        W53577  22.646  25.673  12.457
80510W        W53578  34.846  35.708   1.298
80511W        W53579  35.610  32.482   2.504
80512W        W53580  18.032   4.598   4.840
80513W        W53581   3.745   7.714  14.364
80514W        W53582  44.526   2.989  13.011
80515W        W53583  32.407  35.049  12.365
80516W        W53584  13.583  25.416  11.494
80517W        W53585  19.665  26.755   5.099
80518W        W53586  10.610  15.695  11.133
80519W        W53587  31.945  13.805  11.191
80520W        W53588  43.195  38.816   0.981
80521W        W53589  44.059  23.257   1.815
80522W        W53590  36.405   4.177   0.466
80523W        W53591  26.448  13.313  12.602
80524W        W53592   6.298  14.570   2.277
80525W        W53593  36.662  33.846   2.313
80526W        W53594  21.976  17.835   0.739
80527W        W53595   9.121  15.276   3.362
80528W        W53596  27.043  42.104   1.927
80529W        W53597  44.253  25.702   4.545
80530W        W53598  25.538  36.570   3.703
80531W        W53599  32.708  31.783  11.625
80532W        W53600   7.836  24.586   4.160
80533W        W53601   6.220  35.247  11.067
80534W        W53602   7.857  20.850   4.899
80535W        W53603  15.789  11.232   1.613
80536W        W53604  30.672  21.103   4.172
80537W        W53605  24.483   8.587   0.357
80538W        W53606  22.413  33.342  11.180
80539W        W53607  42.349  35.022  14.930
80540W        W53608  24.194   0.922  12.897
80541W        W53609   6.430  34.914   1.895
80542W        W53610   1.767   4.759   3.887
80543W        W53611  14.579  30.316  14.938
80544W        W53612  20.712  21.667   1.288
80545W        W53613  28.693  44.999   2.233
80546W        W53614  28.514  44.003  10.471
80547W        W53615  38.820   3.669  11.968
80548W        W53616  36.936   7.460  12.486
80549W        W53617  30.645  43.567  11.812
80550W        W53618  30.320   5.660  12.198
80551W        W53619  22.150   5.383  10.661
80552W        W53620  39.158  20.278   2.249
80553W        W53621  34.434  13.394  13.736
80554W        W53622  11.617  16.716  12.384
80555W        W53623   7.765  40.882   0.153
80556W        W53624  11.520  22.958  13.376
80557W        W53625   6.685   1.795   3.724
80558W        W53626  17.569   2.809   3.710
80559W        W53627  35.656   6.926  12.972
80560W        W53628   4.909  21.587   0.467
80561W        W53629  13.193  12.394  12.880
80562W        W53630   2.736  43.884  13.612
80563W        W53631  20.102   6.636   3.684
80564W        W53632  32.401  17.570   3.297
80565W        W53633  17.643  34.055  10.777
80566W        W53634  20.260  20.219  11.572
80567W        W53635   1.747   0.018   0.409
80568W        W53636  25.296  18.576  11.082
80569W        W53637  10.688  37.193   0.877
80570W        W53638   9.124  12.783   1.617
80571W        W53639   8.729   1.277  13.812
80572W        W53640  18.150   0.704   2.461
80573W        W53641  40.474  32.822  11.498
80574W        W53642  13.980  17.394  12.429
80575W        W53643  13.509  40.093   4.033
80576W        W53644  15.698  40.932   1.281
80577W        W53645  27.914  33.678  11.108
80578W        W53646   1.267  30.958   4.350
80579W        W53647  29.371  44.914  11.377
80580W        W53648  37.804  25.503   2.000
80581W        W53649   0.659  28.326   4.248
80582W        W53650  11.451  27.923   4.101
80583W        W53651  15.362  26.518  10.261
80584W        W53652  21.854  32.489   4.103
80585W        W53653   9.333   9.233   3.271
80586W        W53654   0.806  29.140   1.401
80587W        W53655  15.324  15.508  14.874
80588W        W53656  17.981  13.025  14.708
80589W        W53657   1.532   3.357   0.371
80590W        W53658   2.392  17.002   5.029
80591W        W53659   8.248   6.882  12.467
80592W        W53660  13.834  26.544   1.430
80593W        W53661  18.272  22.109  14.542
80594W        W53662  31.564  31.801  11.625
80595W        W53663  34.974  16.667   3.260
80596W        W53664  42.995  10.555  10.676
80597W        W53665   6.843  38.062  13.596
80598W        W53666   0.847   3.292  14.929
80599W        W53667  40.724   9.813   0.403
80600W        W53668  35.457  34.598  13.429
80601W        W53669  23.615   8.644   0.493
80602W        W53670  37.841  28.608  14.109
80603W        W53671  17.339  22.771  12.058
80604W        W53672  16.882  14.390   0.499
80605W        W53673  27.506   0.276   4.026
80606W        W53674  35.826  24.456   4.915
80607W        W53675   9.632  34.876   3.288
80608W        W53676  36.004  21.020  14.529
80609W        W53677  42.305  23.247  11.515
80610W        W53678  43.574  11.310  13.706
80611W        W53679  10.597  39.350  12.021
80612W        W53680  12.722  20.989   0.826
80613W        W53681  38.517  42.684   4.125
80614W        W53682   9.291  44.873   4.425
80615W        W53683  19.030  37.962  12.699
80616W        W53684  37.252   7.909  11.560
80617W        W53685  11.261  12.961   4.910
80618W        W53686   9.397  43.981   1.833
80619W        W53687  41.042  25.193   4.634
80620W        W53688   4.665  41.393   4.090
80621W        W53689  39.590   1.721   4.079
80622W        W53690  34.939   5.720   2.701
80623W        W53691  10.523  11.843   3.169
80624W        W53692  36.973  36.524  11.200
80625W        W53693   9.825  37.799  11.087
80626W        W53694  16.671  17.483  13.181
80627W        W53695   1.299  29.548  10.637
80628W        W53696  36.702  43.662   0.352
80629W        W53697   9.628  39.763  10.989
80630W        W53698  27.626  41.432  11.251
80631W        W53699   8.934  22.131   2.383
80632W        W53700  13.247  19.415   5.299
80633W        W53701  33.523  26.059  11.053
80634W        W53702  17.146   8.252   3.070
80635W        W53703  22.547  15.217  11.939
80636W        W53704  12.202  36.922  11.555
80637W        W53705  17.625  23.056   4.762
80638W        W53706   1.607  19.249   0.979
80639W        W53707  12.578   0.437  13.807
80640W        W53708  27.664   1.749   2.727
80641W        W53709  33.327   4.295  13.474
80642W        W53710   8.043  18.117   3.226
80643W        W53711  14.941  34.920  13.464
80644W        W53712   7.203  14.546   5.173
80645W        W53713  42.765   3.718   3.388
80646W        W53714  25.952  23.774   0.491
80647W        W53715  43.419   0.241   2.627
80648W        W53716  12.619  37.076  11.280
80649W        W53717  24.231  23.509  14.767
80650W        W53718  24.518  38.100  13.995
80651W        W53719  33.038   1.418   4.974
80652W        W53720  26.988  12.181  12.893
80653W        W53721  44.295  29.373   1.768
80654W        W53722  16.155  27.723  10.971
80655W        W53723  14.226   1.737   2.408
80656W        W53724  27.456   9.364  13.671
80657W        W53725  40.869   5.920  10.766
80658W        W53726   9.807  43.863   2.630
80659W        W53727  25.625  15.657   2.773
80660W        W53728  39.762  17.702   1.951
80661W        W53729  13.899   3.030  10.640
80662W        W53730  22.097  15.099   3.568
80663W        W53731  34.637   2.003  11.540
80664W        W53732   9.788   4.907   0.841
80665W        W53733  38.628   8.787   4.144
80666W        W53734  15.944   4.834   0.683
80667W        W53735   9.932  10.705  14.518
80668W        W53736  20.595  36.037  11.594
80669W        W53737  18.497   6.988  13.790
80670W        W53738  29.031  27.009  13.347
80671W        W53739  37.542  28.237   4.590
80672W        W53740  17.684  38.173  14.108
80673W        W53741  14.249  32.604  13.056
80674W        W53742   3.798   2.749   2.190
80675W        W53743  36.313   3.174  13.103
80676W        W53744  14.028  31.626  14.728
80677W        W53745  22.144  41.981   4.608
80678W        W53746   9.764   8.615   2.436
80679W        W53747   9.068  26.379  11.631
80680W        W53748   5.336   4.805  11.378
80681W        W53749  27.575  27.487   0.283
80682W        W53750   2.259  43.963   3.115
80683W        W53751  43.978  32.877   1.866
80684W        W53752  14.822  36.910   3.017
80685W        W53753  38.875  26.643   0.442
80686W        W53754  41.626  38.551  10.776
80687W        W53755   7.489  29.210  13.802
80688W        W53756  15.161  27.336  11.311
80689W        W53757  19.386  30.612   1.540
80690W        W53758   9.399  14.771  11.656
80691W        W53759  34.060  29.094  13.922
80692W        W53760  20.229  13.422  14.022
80693W        W53761   0.736  31.088   1.475
80694W        W53762  27.162  11.107  12.999
80695W        W53763  40.827  27.093  12.007
80696W        W53764  29.137  32.686  11.053
80697W        W53765  31.467  18.664  12.436
80698W        W53766  16.444  21.831  11.213
80699W        W53767   5.484  26.661  12.906
80700W        W53768   8.165  41.981  14.832
80701W        W53769  28.462  30.794   1.738
80702W        W53770   1.449  35.982   4.145
80703W        W53771  30.911  38.485   3.827
80704W        W53772  17.783  28.546  12.721
80705W        W53773  37.288  39.438  12.978
80706W        W53774  19.777   7.237  12.098
80707W        W53775  11.900  11.559   4.133
80708W        W53776  24.100  15.693  11.453
80709W        W53777  10.457  19.463  11.169
80710W        W53778   3.892  28.394   2.625
80711W        W53779  32.749  44.312  12.165
80712W        W53780  43.078  35.042   0.362
80713W        W53781  28.006   5.960  12.558
80714W        W53782  17.273   0.065  12.996
80715W        W53783   6.193   2.633  13.409
80716W        W53784  37.628   3.628  13.956
80717W        W53785  37.146  18.253  12.552
80718W        W53786  12.545  15.949  10.741
80719W        W53787  29.888  26.271  13.423
80720W        W53788  17.371  43.321   0.402
80721W        W53789  30.960  43.840  14.235
80722W        W53790  24.561  18.325  10.199
80723W        W53791  37.890  27.687   3.791
80724W        W53792   0.958  38.551  13.263
80725W        W53793  41.733   3.560  11.767
80726W        W53794  18.734  13.601  12.062
80727W        W53795  42.165   0.668   2.337
80728W        W53796  42.659   4.411   0.446
80729W        W53797  26.920  30.891  12.065
80730W        W53798  13.359  43.439   1.267
80731W        W53799  35.044  18.560   5.057
80732W        W53800  24.552  35.999  11.103
80733W        W53801  31.128  44.819   2.177
80734W        W53802  32.642  34.887  14.934
80735W        W53803  18.724  12.209  11.188
80736W        W53804   1.186  15.510   0.783
80737W        W53805  32.657  28.616   1.902
80738W        W53806  35.503   6.439  10.675
80739W        W53807  11.644  26.652  13.938
80740W        W53808  15.198  20.512   1.785
80741W        W53809  29.042  10.788  14.649
80742W        W53810   6.765  28.896  10.427
80743W        W53811   2.461  27.681  12.564
80744W        W53812  13.933  42.073  11.643
80745W        W53813  23.887  14.736  14.984
80746W        W53814  14.737  26.102  14.084
80747W        W53815  29.687   4.329   4.860
80748W        W53816   0.907  36.066   4.125
80749W        W53817  39.426   6.222   5.254
80750W        W53818  37.885  14.476   3.084
80751W        W53819  26.149  16.266   4.211
80752W        W53820  15.455  24.688  14.744
80753W        W53821  41.605  35.761  14.383
80754W        W53822  20.873   5.218  13.579
80755W        W53823  24.741  11.752   4.337
80756W        W53824  21.104  31.845  10.408
80757W        W53825  39.749  15.741  12.894
80758W        W53826  11.594   3.934  12.401
80759W        W53827  15.820   1.703   3.662
80760W        W53828  23.488  30.995   0.870
80761W        W53829  23.440  30.031  13.417
80762W        W53830  32.978  40.264  11.409
80763W        W53831  40.280  29.988   2.790
80764W        W53832  21.753  24.753  14.366
80765W        W53833  13.331   3.127  12.560
80766W        W53834  36.563   0.328  14.360
80767W        W53835   4.261  39.039  11.392
80768W        W53836  32.284  13.781   2.999
80769W        W53837  17.284  34.065  13.468
80770W        W53838  37.928  44.237  12.889
80771W        W53839  35.994  34.652  12.916
80772W        W53840   4.347   6.385   1.752
80773W        W53841  20.797  43.741   1.637
80774W        W53842  40.589  39.521  13.931
80775W        W53843   9.416  13.761   4.649
80776W        W53844  36.847  29.924  12.553
80777W        W53845  43.543  24.658   1.373
80778W        W53846  30.302  39.847  10.505
80779W        W53847  42.508  29.092  12.949
80780W        W53848  23.284  18.259  14.333
80781W        W53849  42.728  11.635   1.376
80782W        W53850   8.312   0.108   1.310
80783W        W53851  18.185  12.614  12.315
80784W        W53852  37.317  16.579   2.787
80785W        W53853  20.576  37.595  12.667
80786W        W53854  19.428  31.036   2.808
80787W        W53855  43.746  42.498  13.114
80788W        W53856  32.859   7.888  12.511
80789W        W53857  15.284  44.152   3.117
80790W        W53858  40.572  20.173   0.107
80791W        W53859  14.062  35.778   3.365
80792W        W53860   4.996   2.365   3.569
80793W        W53861   3.964   6.268  13.418
80794W        W53862  20.294  19.488   4.159
80795W        W53863  32.461  26.161   0.115
80796W        W53864   6.220  18.791  13.475
80797W        W53865   7.855  40.913  12.908
80798W        W53866  18.678  23.398   0.186
80799W        W53867  10.364   3.866  11.641
80800W        W53868   5.093  40.465   2.755
80801W        W53869  34.447  29.553   1.334
80802W        W53870  25.228  28.852  13.367
80803W        W53871  38.793  21.038  11.992
80804W        W53872  22.431   5.867   0.424
80805W        W53873  10.415  26.621   5.090
80806W        W53874   2.079  24.681  13.822
80807W        W53875  14.379  14.135  14.890
80808W        W53876   6.649   0.896   3.712
80809W        W53877  20.569  33.017   4.129
80810W        W53878  44.312  31.901  14.684
80811W        W53879  10.121  43.733  13.090
80812W        W53880  25.463  42.009   4.925
80813W        W53881  39.053  40.024   2.433
80814W        W53882  20.013  42.281   1.340
80815W        W53883  19.271  12.752  10.631
80816W        W53884  32.558   9.627  14.751
80817W        W53885  26.586  43.128   4.982
80818W        W53886  42.191  13.546  11.712
80819W        W53887   1.988   0.764  13.125
80820W        W53888  31.207  36.903  12.542
80821W        W53889  43.784   2.723  12.516
80822W        W53890  14.773   7.686   1.773
80823W        W53891   4.761  41.990  13.014
80824W        W53892   9.292  23.949   1.319
80825W        W53893  29.901  27.646  12.428
80826W        W53894   0.278  25.394  11.910
80827W        W53895  34.588  26.906  11.657
80828W        W53896  13.863  13.028  13.560
80829W        W53897   3.419  13.088   2.849
80830W        W53898  43.806  39.576  13.608
80831W        W53899   7.444   7.736   3.680
80832W        W53900   8.563  38.805  10.194
80833W        W53901  27.631  10.137  12.130
80834W        W53902  44.389  26.644  13.814
80835W        W53903  39.104   8.750  12.996
80836W        W53904  38.056  41.746  10.769
80837W        W53905  39.734   4.357  13.665
80838W        W53906  43.545  40.521  11.178
80839W        W53907  29.123   1.107  13.733
80840W        W53908   4.268  24.497   4.672
80841W        W53909  42.880  29.057  11.135
80842W        W53910  25.006  12.820   2.811
80843W        W53911   4.550  25.154  10.435
80844W        W53912  23.638  15.776  13.951
80845W        W53913  43.970  14.372  12.562
80846W        W53914   4.841  21.626   3.391
80847W        W53915  25.157  37.610  10.077
80848W        W53916  36.343  16.146   5.077
80849W        W53917  38.744  40.467  12.966
80850W        W53918  10.047  30.845  12.016
80851W        W53919   9.464  40.177   1.868
80852W        W53920  38.490   2.839   2.917
80853W        W53921  26.423  38.942  12.543
80854W        W53922  35.306   0.686   2.800
80855W        W53923  16.627  25.083   0.526
80856W        W53924  37.640  41.255  13.681
80857W        W53925  20.039  34.595   1.213
80858W        W53926  31.020  44.446   3.107
80859W        W53927   4.809  11.337   2.864
80860W        W53928  19.124  29.454  14.059
80861W        W53929  24.665   8.277  12.091
80862W        W53930  27.723  31.321  12.270
80863W        W53931   4.807  15.032  13.270
80864W        W53932   7.705  16.139   2.183
80865W        W53933   3.333  18.798  12.121
80866W        W53934  22.034  10.063  11.854
80867W        W53935  42.749  41.257  10.372
80868W        W53936  27.750   8.467  11.536
80869W        W53937  10.901  23.954  13.629
80870W        W53938  10.834   0.926  10.892
80871W        W53939  37.345   3.043  11.917
80872W        W53940  34.862  36.627   3.983
80873W        W53941  28.153   7.423  13.429
80874W        W53942   5.863  13.703   0.604
80875W        W53943   6.319  37.187  11.151
80876W        W53944  40.768  22.591  13.778
80877W        W53945  12.715  35.704  13.541
80878W        W53946   5.377  28.096   4.184
80879W        W53947   8.793   2.081  14.269
80880W        W53948  42.812   6.920   0.793
80881W        W53949  13.544  42.351   0.537
80882W        W53950  21.748  41.919  11.185
80883W        W53951  25.096  42.411  14.247
80884W        W53952  30.151  12.335  12.604
80885W        W53953   4.616  41.525   4.624
80886W        W53954   5.749   2.505   4.406
80887W        W53955  26.947   1.734   2.174
80888W        W53956  30.337  16.187  14.472
80889W        W53957  33.525  23.949  12.022
80890W        W53958  44.020   9.851  14.720
80891W        W53959  44.478   9.183  12.008
80892W        W53960  37.336  42.019   2.971
80893W        W53961   5.141   8.938   1.719
80894W        W53962  34.532  40.624   4.261
80895W        W53963   2.051  28.120   0.370
80896W        W53964  24.265  20.240   2.769
80897W        W53965  37.023  36.520  10.680
80898W        W53966  37.361  15.828  12.083
80899W        W53967  28.091  43.839   3.071
80900W        W53968  40.788  22.022  10.732
80901W        W53969  29.937  38.537   2.840
80902W        W53970  31.099  41.686   1.064
80903W        W53971  16.809  25.949   3.141
80904W        W53972  31.501  15.730   3.599
80905W        W53973  11.076   9.839  12.516
80906W        W53974  12.747  44.774  12.534
80907W        W53975  12.384   0.995   0.527
80908W        W53976  20.954  11.626  12.878
80909W        W53977  43.007  29.527   2.079
80910W        W53978  18.620  33.069  12.879
80911W        W53979   7.685  31.076   2.159
80912W        W53980  38.844  23.688  13.013
80913W        W53981  15.779   9.076   0.455
80914W        W53982  17.710  34.011  14.548
80915W        W53983  36.301  21.132   0.020
80916W        W53984   9.341  25.163  11.539
80917W        W53985  42.878  12.787  11.634
80918W        W53986  21.644  42.507  10.413
80919W        W53987  31.191  41.491  11.158
80920W        W53988   1.225   2.429   4.093
80921W        W53989  26.791  34.967   4.412
80922W        W53990  42.236  19.754   3.628
80923W        W53991  13.078  35.905  12.518
80924W        W53992  38.370   9.823   2.405
80925W        W53993  16.079  29.567  10.850
80926W        W53994  19.691  43.682   5.606
80927W        W53995  13.437  43.770  14.255
80928W        W53996  16.113  19.066  12.658
80929W        W53997  32.118  21.692   1.421
80930W        W53998  25.056  31.397  13.081
80931W        W53999  33.131  11.368   2.809
80932W        W54000  30.644  18.979  11.923
80933W        W54001  16.289  40.256  12.959
80934W        W54002  27.910  44.529  14.130
80935W        W54003  42.563   3.924   0.687
80936W        W54004  39.643  34.353  11.341
80937W        W54005  20.661  42.275  12.522
80938W        W54006  14.819  19.319  11.738
80939W        W54007  12.267  15.568   4.563
80940W        W54008  25.870  15.843  12.417
80941W        W54009  18.754  44.412  13.853
80942W        W54010  22.950  14.957  11.175
80943W        W54011  20.434  24.339   0.681
80944W        W54012  37.649  39.109  11.160
80945W        W54013   1.164  14.535   1.373
80946W        W54014  24.216  28.576   0.370
80947W        W54015  23.732  14.119  12.522
80948W        W54016  10.219  21.715  14.946
80949W        W54017  13.924   5.751  14.390
80950W        W54018  32.316  24.585  12.020
80951W        W54019  16.699  29.362  13.703
80952W        W54020  32.565  22.760  13.505
80953W        W54021  41.991   0.269   5.033
80954W        W54022  11.094  23.511  11.465
80955W        W54023  12.878  28.814  13.025
80956W        W54024  10.695  40.906   4.720
80957W        W54025  39.482  11.361  10.570
80958W        W54026   2.126  26.481  13.980
80959W        W54027  17.206   7.173   3.689
80960W        W54028  21.582  24.176  13.828
80961W        W54029  25.866  22.694   2.322
80962W        W54030  25.436  25.615  12.340
80963W        W54031  17.855   3.371  14.640
80964W        W54032  42.192  24.075  11.159
80965W        W54033   4.220  12.759  11.964
80966W        W54034   8.755  37.589  12.939
80967W        W54035  25.473  41.471  13.547
80968W        W54036   7.669  19.498  13.198
80969W        W54037   9.875  11.649   4.159
80970W        W54038  28.312  17.963   2.629
80971W        W54039  27.015  16.749   1.224
80972W        W54040  37.147  39.475  13.478
80973W        W54041  40.439   4.019  13.576
80974W        W54042  11.316  19.055   3.797
80975W        W54043   2.732  32.678  12.965
80976W        W54044  31.636  21.482   3.717
80977W        W54045   4.466  42.082  13.438
80978W        W54046  33.891  11.919  14.733
80979W        W54047  32.484   2.180   3.738
80980W        W54048  44.875  15.433  13.017
80981W        W54049  23.655  42.680   3.911
80982W        W54050  25.954  21.655   4.225
80983W        W54051   6.704  32.091   2.394
80984W        W54052  15.836  26.528   2.801
80985W        W54053   4.286  40.121   3.695
80986W        W54054   7.090  41.895   5.519
80987W        W54055  16.801  26.871  14.823
80988W        W54056  42.513  21.478   2.160
80989W        W54057  16.189   7.191  14.266
80990W        W54058   7.640  24.128   2.282
80991W        W54059  44.787  13.630   2.428
80992W        W54060  25.372  37.500  14.235
80993W        W54061  17.136  16.195  13.669
80994W        W54062  18.120  15.266  14.326
80995W        W54063  33.308  15.219  13.973
80996W        W54064  40.825  14.807   3.360
80997W        W54065  26.952  43.589  14.408
80998W        W54066  36.378  39.210   1.685
80999W        W54067  31.526  19.102  12.126
81000W        W54068  25.499   4.736  13.552
81001W        W54069   2.879  39.026   3.464
81002W        W54070  22.243  31.948  14.795
81003W        W54071  23.738  42.342   0.988
81004W        W54072  19.281  32.590   2.305
81005W        W54073  20.231  22.135   0.501
81006W        W54074  31.069  44.130   1.286
81007W        W54075  17.542  38.922  11.631
81008W        W54076  25.589  37.535   4.064
81009W        W54077   4.389  36.593   0.893
81010W        W54078  16.099  20.718  11.993
81011W        W54079  41.053   2.030  12.490
81012W        W54080   5.053  43.054  11.892
81013W        W54081   2.459  22.239  12.335
81014W        W54082  37.838   0.338   2.626
81015W        W54083   7.827   7.426   4.249
81016W        W54084  21.185  22.591   0.867
81017W        W54085   4.598   4.316  12.099
81018W        W54086   0.461   5.369  14.670
81019W        W54087  21.547  12.355   0.039
81020W        W54088   6.339  20.468  12.536
81021W        W54089  32.648   3.780  13.823
81022W        W54090  39.378  20.031  13.139
81023W        W54091  13.163   2.885   2.449
81024W        W54092  26.923   7.860  10.725
81025W        W54093   4.444  24.200  14.071
81026W        W54094  17.699  30.213  13.439
81027W        W54095  20.639   9.414   4.222
81028W        W54096  44.319  32.198   1.236
81029W        W54097   6.934  17.655   3.104
81030W        W54098   5.392  26.820   0.839
81031W        W54099  27.561  13.073  14.874
81032W        W54100  44.936   6.182  13.157
81033W        W54101  28.080  34.059   0.178
81034W        W54102  23.412  30.624   1.385
81035W        W54103   9.546  43.351   0.540
81036W        W54104  34.762  13.633   0.948
81037W        W54105  42.954  28.070   0.423
81038W        W54106  44.138  38.959  13.907
81039W        W54107  20.585  33.909   0.265
81040W        W54108  20.813   3.833   0.805
81041W        W54109   2.411   0.486  11.926
81042W        W54110  24.057  39.554   4.458
81043W        W54111   2.629  22.211  14.980
81044W        W54112   1.432  44.450   3.351
81045W        W54113  22.266  34.440  12.417
81046W        W54114   5.875  10.966  12.484
81047W        W54115  14.114  21.560  12.111
81048W        W54116  38.977   2.754   1.786
81049W        W54117  29.808  39.006  14.979
81050W        W54118   1.242  24.451  13.362
81051W        W54119  25.036  26.717  14.033
81052W        W54120  33.223  25.781   3.073
81053W        W54121  18.718  16.802  12.289
81054W        W54122  44.910   4.800  12.002
81055W        W54123  21.022   3.723  10.668
81056W        W54124  31.432   4.333   0.822
81057W        W54125  42.564  35.339  10.770
81058W        W54126  21.189  35.653   4.231
81059W        W54127  33.698  26.681  13.330
81060W        W54128   9.630  16.574   0.525
81061W        W54129  24.273  19.420  11.270
81062W        W54130  32.933  18.714  10.662
81063W        W54131  14.228  24.408  14.212
81064W        W54132  30.812  28.205   2.586
81065W        W54133   8.845  11.930  13.653
81066W        W54134  17.366  22.122   0.837
81067W        W54135   7.177  44.359   4.917
81068W        W54136  24.959  11.294   4.200
81069W        W54137  17.748  20.561  13.841
81070W        W54138  37.164  24.571  14.053
81071W        W54139  25.046  44.730   4.160
81072W        W54140  10.139  23.449  11.512
81073W        W54141  36.973  13.896   1.495
81074W        W54142  42.713  24.628  10.538
81075W        W54143  31.111  31.596  12.417
81076W        W54144   4.445  16.620   1.892
81077W        W54145  26.941  13.636   0.382
81078W        W54146  31.184  38.940   2.682
81079W        W54147  35.655  23.967   1.411
81080W        W54148  16.918  12.304  13.460
81081W        W54149  38.391   6.337  11.429
81082W        W54150  21.733   0.520  12.132
81083W        W54151  25.620  16.241   3.676
81084W        W54152  27.477  26.174  10.649
81085W        W54153  43.255  16.210   3.225
81086W        W54154  17.850  20.952   3.663
81087W        W54155  19.064   5.404  11.538
81088W        W54156  28.452  39.757  10.732
81089W        W54157  34.553  20.474   1.003
81090W        W54158  29.561   8.466  11.140
81091W        W54159  26.169  11.051  12.508
81092W        W54160  19.499  15.566  12.043
81093W        W54161  29.477   8.438   2.288
81094W        W54162  18.062  10.622   1.012
81095W        W54163   0.689  22.508   5.138
81096W        W54164  19.932  29.388  10.808
81097W        W54165  10.355   2.712   4.630
81098W        W54166  36.778   2.166   0.422
81099W        W54167  40.827   4.781   2.353
81100W        W54168  32.037   3.325  12.987
81101W        W54169  29.571  40.734  13.457
81102W        W54170  44.166  43.379   4.314
81103W        W54171  44.528  15.904   2.187
81104W        W54172  18.808   6.990   0.445
81105W        W54173  19.368  36.514   4.641
81106W        W54174   2.857  10.626  12.139
81107W        W54175   9.774  41.750   3.755
81108W        W54176  40.975  24.128   3.778
81109W        W54177  41.533  26.231   1.652
81110W        W54178  28.646   8.777  13.965
81111W        W54179  40.039  42.661  11.180
81112W        W54180  12.199  28.941  14.569
81113W        W54181  17.781  41.450   4.763
81114W        W54182  33.355  31.232   1.313
81115W        W54183  39.887   9.271  11.062
81116W        W54184  36.375  36.486   3.602
81117W        W54185  21.272  22.506   1.708
81118W        W54186  14.668  40.502   2.615
81119W        W54187  12.093  15.312   2.570
81120W        W54188  12.086  21.680   4.591
81121W        W54189  37.066  40.287   3.876
81122W        W54190   8.282  17.629   3.905
81123W        W54191   5.248   2.998   3.649
81124W        W54192  25.441  23.593  13.862
81125W        W54193   0.773  27.835   4.181
81126W        W54194  12.871  21.777  12.899
81127W        W54195  33.419  27.957  12.637
81128W        W54196  19.450  16.739  10.861
81129W        W54197   3.827  20.319   1.421
81130W        W54198  10.373  17.981   2.809
81131W        W54199  18.254   9.472  14.442
81132W        W54200  13.295  22.951   4.888
81133W        W54201   4.082  28.195   3.301
81134W        W54202   0.112   9.604  11.135
81135W        W54203  43.945  32.574  13.530
81136W        W54204  32.367   4.705  13.601
81137W        W54205  13.298   1.337  13.638
81138W        W54206  38.520   9.948  12.617
81139W        W54207   8.312  21.151  13.070
81140W        W54208  38.975  22.752  12.211
81141W        W54209   1.388  12.546   0.238
81142W        W54210  35.821  37.275   2.728
81143W        W54211   6.593   6.172  11.763
81144W        W54212  44.347   5.416   4.119
81145W        W54213  27.560  14.700  10.770
81146W        W54214  29.618  13.482  11.117
81147W        W54215  15.385  24.649  13.290
81148W        W54216  35.508  26.059  14.140
81149W        W54217   3.220  32.613  11.313
81150W        W54218  14.355   6.402  10.713
81151W        W54219  39.999  23.198   2.249
81152W        W54220  12.159  24.453  12.155
81153W        W54221   2.237  43.492  13.152
81154W        W54222  22.634  42.832  11.087
81155W        W54223  35.639  39.009   2.885
81156W        W54224   1.358  21.522   0.455
81157W        W54225  12.803  15.031  12.444
81158W        W54226  25.352  21.514   1.839
81159W        W54227  20.971  11.864   0.374
81160W        W54228  31.730   6.484   0.776
81161W        W54229  25.064   1.705  12.909
81162W        W54230   2.475  42.433  14.448
81163W        W54231  11.353  13.290   1.538
81164W        W54232   6.817  16.585   2.264
81165W        W54233  31.533   8.766  10.974
81166W        W54234  22.677  39.820  10.002
81167W        W54235  34.845   8.902   1.416
81168W        W54236  11.253  16.132   4.578
81169W        W54237  37.087  26.229   4.391
81170W        W54238  21.278  33.928  10.609
81171W        W54239  34.854   4.468  11.849
81172W        W54240  32.387  20.901  14.948
81173W        W54241   2.735  17.054  12.463
81174W        W54242  26.060  34.813   3.378
81175W        W54243  27.923   7.256  11.967
81176W        W54244  13.474  38.797  13.808
81177W        W54245  25.114  31.172  13.896
81178W        W54246  15.415   0.041  13.497
81179W        W54247  23.446  13.303   3.251
81180W        W54248  27.231  19.792   1.015
81181W        W54249  26.648  19.701   1.693
81182W        W54250  35.401  42.490  12.497
81183W        W54251   2.462  19.158  11.170
81184W        W54252   1.376   6.791   4.565
81185W        W54253  20.247   5.889   4.120
81186W        W54254  24.168  24.117  14.164
81187W        W54255  37.649   5.696  12.227
81188W        W54256  40.456  25.051  14.484
81189W        W54257  23.667   3.153  10.837
81190W        W54258   4.611  42.448   5.096
81191W        W54259  33.350  44.655   9.948
81192W        W54260  12.084  39.078  10.056
81193W        W54261   2.502  12.367   3.664
81194W        W54262   8.825  38.990   3.145
81195W        W54263  20.125  12.797   0.873
81196W        W54264   4.815  26.946   2.140
81197W        W54265   7.790  42.108   3.042
81198W        W54266  15.167   4.069  11.668
81199W        W54267   5.306  11.654   0.733
81200W        W54268  23.731  33.535  14.774
81201W        W54269   1.866  25.665   0.895
81202W        W54270  32.071  43.424   3.803
81203W        W54271   4.885  17.372  14.258
81204W        W54272  17.214   8.711  12.446
81205W        W54273  10.259  16.375  11.601
81206W        W54274   5.725  37.040   1.224
81207W        W54275  16.191   8.905   1.669
81208W        W54276   4.940  34.391   0.803
81209W        W54277  31.412  15.243  13.379
81210W        W54278   1.768  25.384  14.829
81211W        W54279  41.983  20.610   1.758
81212W        W54280   6.750  13.162   4.395
81213W        W54281  40.317   7.109  11.501
81214W        W54282  32.555  40.283   4.766
81215W        W54283  11.609  17.712  12.555
81216W        W54284  42.045  40.346   1.071
81217W        W54285  22.248   9.304  11.832
81218W        W54286  23.831   8.865  12.815
81219W        W54287  22.904   6.473  14.983
81220W        W54288  13.101  20.048  11.097
81221W        W54289  16.884  43.132  14.427
81222W        W54290   4.957  44.787  13.066
81223W        W54291  17.908  16.128   1.345
81224W        W54292  44.158  26.643   0.292
81225W        W54293  23.941  41.709  14.131
81226W        W54294  43.956  30.120  10.669
81227W        W54295  18.634  41.535   0.470
81228W        W54296  15.708  21.928   1.213
81229W        W54297  24.505  18.611   0.735
81230W        W54298  35.498  16.776   3.169
81231W        W54299  42.362  17.548   2.424
81232W        W54300  21.794  39.616  12.323
81233W        W54301  18.850  24.133  11.305
81234W        W54302   4.419  10.489  13.933
81235W        W54303  25.206  14.637   4.107
81236W        W54304  22.084  20.546   2.433
81237W        W54305  14.305  13.344  10.575
81238W        W54306   7.243  13.232  11.850
81239W        W54307   1.520   1.957   2.754
81240W        W54308   8.051  28.841   5.240
81241W        W54309  42.741  38.373  12.503
81242W        W54310  19.552  11.724   4.626
81243W        W54311   0.267  13.268   0.738
81244W        W54312  33.190  24.428   4.680
81245W        W54313  14.353  28.924  12.942
81246W        W54314  14.656  27.614  12.979
81247W        W54315  33.363  21.436   4.900
81248W        W54316  11.413  12.858  13.426
81249W        W54317   1.275  33.657   3.814
81250W        W54318  24.935   2.857  11.533
81251W        W54319   0.801  34.750   1.766
81252W        W54320  41.483  41.818  12.017
81253W        W54321  34.949   2.515  12.358
81254W        W54322  43.500  26.583   3.328
81255W        W54323  27.982  26.160   2.673
81256W        W54324  32.649  12.699   4.118
81257W        W54325  11.842  12.654  12.069
81258W        W54326  25.801  34.437   0.264
81259W        W54327  21.754  14.899  12.067
81260W        W54328  29.267   0.778   3.094
81261W        W54329  42.527  23.820   1.287
81262W        W54330  21.187   5.590  11.131
81263W        W54331   4.270  23.774  10.938
81264W        W54332   5.664  43.733  10.551
81265W        W54333  43.446  12.811   3.959
81266W        W54334  25.764  10.240  14.363
81267W        W54335  39.171  18.789   3.171
81268W        W54336  16.342  42.779  13.041
81269W        W54337  41.572   0.621  14.607
81270W        W54338  37.988  42.315   1.978
81271W        W54339  27.950   6.980  13.642
81272W        W54340   7.702   1.278   0.897
81273W        W54341  13.763  12.539  12.527
81274W        W54342  28.294   5.457   4.210
81275W        W54343   7.667  14.984  13.021
81276W        W54344  12.919   8.965  14.364
81277W        W54345   1.758  33.475   2.879
81278W        W54346  11.706  37.771   4.150
81279W        W54347   2.501  33.063   1.864
81280W        W54348  17.750  14.340  13.446
81281W        W54349   2.951   2.030   1.704
81282W        W54350  29.022  12.246   4.022
81283W        W54351  14.584  15.883  14.633
81284W        W54352  16.793  16.248  12.835
81285W        W54353  17.346   6.251  11.965
81286W        W54354   9.334  20.651  11.455
81287W        W54355  26.445  17.733   0.290
81288W        W54356   2.852  35.456   2.323
81289W        W54357   5.457  29.588  11.619
81290W        W54358  10.098  14.380  10.167
81291W        W54359  38.134  20.089   1.481
81292W        W54360  29.538   9.243  13.503
81293W        W54361   0.467  33.223  13.881
81294W        W54362  37.567  13.210  11.880
81295W        W54363  39.082  21.448  13.365
81296W        W54364  42.240   5.696  13.252
81297W        W54365  11.035  18.516   2.201
81298W        W54366  22.223  39.711   0.816
81299W        W54367  23.542  16.153   3.931
81300W        W54368   0.391   8.819  11.828
81301W        W54369  15.706  41.836   0.966
81302W        W54370  21.602  38.128   1.358
81303W        W54371  13.132  38.040   2.876
81304W        W54372  13.413  19.746  11.681
81305W        W54373  14.066  40.672   3.612
81306W        W54374  13.198  34.727  12.043
81307W        W54375  39.964  32.815   3.603
81308W        W54376  42.493  16.494   2.493
81309W        W54377  43.387  22.785   1.469
81310W        W54378   5.052  20.477  11.549
81311W        W54379  25.165  43.038  12.022
81312W        W54380  31.650  44.981   2.164
81313W        W54381  32.456   0.279  13.688
81314W        W54382  22.147   1.791  10.600
81315W        W54383  27.517  35.601   1.262
81316W        W54384  32.575  34.558  14.304
81317W        W54385  25.675  14.268   5.081
81318W        W54386   0.763  30.395  13.235
81319W        W54387   0.703   4.307   1.814
81320W        W54388  11.422  22.182  11.185
81321W        W54389   1.877  17.569   4.306
81322W        W54390  41.890  21.724   3.874
81323W        W54391   2.868   8.799   1.683
81324W        W54392  18.601  13.663   2.944
81325W        W54393  20.314  24.016  11.581
81326W        W54394  23.268  24.797   2.375
81327W        W54395  44.191   8.734   2.184
81328W        W54396  15.623  20.770   3.184
81329W        W54397  44.948   4.846   1.707
81330W        W54398  22.628   6.205   2.666
81331W        W54399  39.466   3.495  13.872
81332W        W54400  36.646  39.654   1.687
81333W        W54401   4.829  31.207  12.441
81334W        W54402  22.086  18.332   5.150
81335W        W54403  43.138  17.882   0.759
81336W        W54404  32.465  34.741   1.814
81337W        W54405  13.614  41.013  11.140
81338W        W54406  16.804   3.384  14.964
81339W        W54407  33.065   0.430  14.829
81340W        W54408   4.389   0.492  14.666
81341W        W54409  35.877   4.839   3.548
81342W        W54410  24.719   3.438  14.455
81343W        W54411  10.909  42.260  12.654
81344W        W54412  21.213  20.722  14.909
81345W        W54413  18.598  44.254  10.931
81346W        W54414  33.854  44.857  12.116
81347W        W54415  39.670  15.378  12.536
81348W        W54416  30.578   0.903   1.746
81349W        W54417   1.726   5.856   1.375
81350W        W54418   7.449  25.864  13.429
81351W        W54419   6.866   4.112   3.110
81352W        W54420  39.309  10.692   3.702
81353W        W54421  30.052   9.121   2.208
81354W        W54422  43.252  36.095  10.758
81355W        W54423  20.697   9.258   0.486
81356W        W54424   9.483  42.025  10.018
81357W        W54425  33.884  36.772  10.954
81358W        W54426   5.460   6.183   2.129
81359W        W54427   5.988  22.457  12.967
81360W        W54428   8.801  35.024   0.823
81361W        W54429   2.375  16.712  11.558
81362W        W54430   7.000  42.801   0.977
81363W        W54431  28.426  42.400  12.128
81364W        W54432  43.000  38.553  12.926
81365W        W54433  31.198  15.718   4.604
81366W        W54434  35.927  21.559   2.681
81367W        W54435  18.236   3.986   3.419
81368W        W54436  10.938  16.586   2.330
81369W        W54437  36.939  40.743   0.296
81370W        W54438   7.386  33.134   1.382
81371W        W54439  13.183   3.744   2.475
81372W        W54440   4.755   2.738   0.104
81373W        W54441  28.664  44.349  12.061
81374W        W54442  28.638  36.468  14.321
81375W        W54443  20.652  34.070  14.754
81376W        W54444  35.014  21.731  12.446
81377W        W54445  32.492  13.845   3.822
81378W        W54446   9.449   7.886   1.327
81379W        W54447   8.811  29.047  13.328
81380W        W54448  12.145  29.183   4.933
81381W        W54449  10.459  34.382  12.503
81382W        W54450  37.854  10.995   4.892
81383W        W54451  43.216   6.061  12.406
81384W        W54452   4.249  38.090   0.890
81385W        W54453   9.856   1.400   2.742
81386W        W54454  36.610   0.403   0.350
81387W        W54455  31.439  28.054   9.986
81388W        W54456  27.532  15.849  14.935
81389W        W54457  16.426   3.171   4.112
81390W        W54458  25.483  38.823   1.925
81391W        W54459   8.783   6.803  12.529
81392W        W54460   2.654  17.985   3.135
81393W        W54461  18.639  30.972   1.184
81394W        W54462  20.029   8.755   4.607
81395W        W54463  36.140   0.493  12.027
81396W        W54464  43.330  34.155  12.086
81397W        W54465  18.581  37.608  11.119
81398W        W54466  23.469  33.134   0.035
81399W        W54467  16.659  28.118   3.928
81400W        W54468  25.758  40.032   1.453
81401W        W54469  43.735  34.002  11.811
81402W        W54470  27.983  43.282   4.069
81403W        W54471  20.459  19.710  11.586
81404W        W54472  42.581  29.664  14.478
81405W        W54473  23.942   9.364   1.005
81406W        W54474  26.087  43.003  11.884
81407W        W54475  36.065   4.948   3.080
81408W        W54476  42.057  42.998  11.934
81409W        W54477  28.193  13.221  10.647
81410W        W54478  12.682  41.331   4.010
81411W        W54479  41.866  13.390  12.093
81412W        W54480  10.295  20.804   2.390
81413W        W54481  35.406  37.360  10.589
81414W        W54482  14.089  11.167  14.490
81415W        W54483  41.909  22.086   1.053
81416W        W54484  37.002   0.368  11.509
81417W        W54485  20.541   4.267  10.847
81418W        W54486  30.162  33.241  14.430
81419W        W54487  28.923  40.723   1.734
81420W        W54488   2.158  27.572   4.410
81421W        W54489  32.844  43.059  13.388
81422W        W54490  24.218  14.630   0.414
81423W        W54491  17.033  27.638   0.534
81424W        W54492   1.938  34.843  12.558
81425W        W54493  17.983  39.887  11.753
81426W        W54494   1.135  13.389  12.651
81427W        W54495  44.489  13.880  14.854
81428W        W54496  30.677  40.517  11.576
81429W        W54497  36.020  20.883  13.469
81430W        W54498  19.050   8.676   3.312
81431W        W54499  40.070  44.758  11.158
81432W        W54500   5.935  22.779  12.426
81433W        W54501   0.940  23.218   1.459
81434W        W54502   4.174   9.668  12.012
81435W        W54503   6.288  32.786   0.316
81436W        W54504  22.163  24.003   2.839
81437W        W54505  21.246  17.296  13.990
81438W        W54506  40.930   0.965  10.639
81439W        W54507  30.918   3.188  14.733
81440W        W54508   9.606  22.888  12.613
81441W        W54509  16.558  31.880   2.038
81442W        W54510  22.160  41.574   1.401
81443W        W54511  30.728   3.888   2.016
81444W        W54512  24.707  21.648  12.868
81445W        W54513   7.352  25.249  12.453
81446W        W54514  28.105   1.382  11.952
81447W        W54515   1.374  35.662   1.367
81448W        W54516  27.435  20.799   0.504
81449W        W54517  42.822  29.907  13.549
81450W        W54518  44.750  21.924  14.994
81451W        W54519  30.359  19.655  10.811
81452W        W54520  35.888  34.432  11.173
81453W        W54521  29.567  35.424   3.710
81454W        W54522   5.665   8.461  11.971
81455W        W54523   2.942   3.422  12.861
81456W        W54524  20.747  35.529   2.267
81457W        W54525  28.059  42.948   2.805
81458W        W54526  41.548   4.504   1.838
81459W        W54527  26.661  41.807  14.337
81460W        W54528  10.194   0.323   3.698
81461W        W54529  18.114  37.034   3.091
81462W        W54530  39.230   1.966   0.519
81463W        W54531  17.840  44.886  11.140
81464W        W54532  31.052  12.265  12.622
81465W        W54533  31.612  26.609   0.952
81466W        W54534  42.353   3.629   0.294
81467W        W54535   3.449   9.225   3.676
81468W        W54536  35.803  42.247   0.794
81469W        W54537  20.540  27.167  14.559
81470W        W54538  10.437  22.155   0.923
81471W        W54539   8.236  35.904   0.959
81472W        W54540  17.219  36.141  10.031
81473W        W54541  31.646  23.984  14.904
81474W        W54542  18.670   3.388   4.128
81475W        W54543  30.603   6.679  14.011
81476W        W54544  40.230  23.668   3.793
81477W        W54545  12.922  20.024  10.609
81478W        W54546  35.383   3.956  12.958
81479W        W54547  38.921   3.445  12.414
81480W        W54548  27.302  16.291   4.699
81481W        W54549   5.523   4.386   0.898
81482W        W54550  18.581  29.621   1.898
81483W        W54551  38.552  43.583   4.621
81484W        W54552  20.496  11.558  11.215
81485W        W54553  35.219   1.372   0.867
81486W        W54554  26.218  22.333   2.175
81487W        W54555   9.344   3.151   0.850
81488W        W54556  33.570  41.047   2.423
81489W        W54557   4.233  26.254   4.185
81490W        W54558   8.460   4.747  14.455
81491W        W54559  22.692  43.250   3.344
81492W        W54560  41.742  13.852  13.437
81493W        W54561   7.767  20.568   3.916
81494W        W54562  10.712   3.703   1.836
81495W        W54563  19.409  15.661   1.168
81496W        W54564  16.915  38.470  12.086
81497W        W54565  14.434   8.444   0.219
81498W        W54566  42.057   8.134   3.362
81499W        W54567  23.962  42.726   5.085
81500W        W54568  43.771  20.957  11.633
81501W        W54569  43.361   7.411  13.062
81502W        W54570  43.831  18.790   4.619
81503W        W54571  11.153  39.385   4.452
81504W        W54572  22.251  17.042   0.420
81505W        W54573  12.583  20.996   4.489
81506W        W54574  24.945  44.905  12.320
81507W        W54575   5.501  14.848  13.488
81508W        W54576  13.168  23.583   5.166
81509W        W54577   8.047  20.696   3.052
81510W        W54578  13.049  16.115  10.751
81511W        W54579  24.046  18.726   3.624
81512W        W54580  38.826   5.049   1.249
81513W        W54581  34.385  31.850  10.252
81514W        W54582  15.932  33.508  13.436
81515W        W54583  20.601  13.504   3.756
81516W        W54584  39.499  19.255   1.027
81517W        W54585  17.219  41.785   3.630
81518W        W54586  14.700  10.720  10.826
81519W        W54587  37.264   2.183   0.553
81520W        W54588  38.993  35.432  13.822
81521W        W54589  40.024  16.652  14.666
81522W        W54590   0.385  16.577   0.425
81523W        W54591  13.075  38.539   0.418
81524W        W54592   3.747  12.677  11.045
81525W        W54593  21.116   1.945  11.717
81526W        W54594   1.920  40.747   0.729
81527W        W54595  32.618   6.859  10.729
81528W        W54596   0.041  30.059   3.653
81529W        W54597  36.212   3.578  12.387
81530W        W54598  33.207   6.703   4.070
81531W        W54599  14.719  18.019  11.533
81532W        W54600  27.527   3.801  12.829
81533W        W54601   0.463  33.331   0.933
81534W        W54602  20.252  31.968  10.699
81535W        W54603  33.586  43.911  11.177
81536W        W54604   3.771   5.625   0.498
81537W        W54605   8.592  36.483  12.084
81538W        W54606  21.751  22.688   1.727
81539W        W54607  44.513   7.403   2.813
81540W        W54608  30.500  38.997  13.337
81541W        W54609   9.620   1.331  10.889
81542W        W54610  17.832  31.983   0.949
81543W        W54611  17.714  38.018  13.613
81544W        W54612  23.236  15.134  10.775
81545W        W54613   3.798  14.839  13.765
81546W        W54614  21.967   8.748   0.307
81547W        W54615  32.015  21.040   0.933
81548W        W54616  28.192   6.298   0.717
81549W        W54617  22.562   3.685  13.560
81550W        W54618  31.182  20.656   1.456
81551W        W54619  27.486   9.656  14.093
81552W        W54620  12.879   3.185   0.740
81553W        W54621   9.718  14.345  10.965
81554W        W54622  17.566   4.372   0.046
81555W        W54623  25.703  39.862   4.890
81556W        W54624  37.587  42.249   1.456
81557W        W54625  42.935   3.830   2.901
81558W        W54626  18.482  37.255  12.588
81559W        W54627  10.736   1.917  11.620
81560W        W54628  42.871  22.030   1.375
81561W        W54629  15.550  26.507  12.737
81562W        W54630   2.349  12.297  12.946
81563W        W54631   0.187  16.653  14.584
81564W        W54632   5.795  36.582   0.393
81565W        W54633  41.918  28.143  13.127
81566W        W54634  14.641   8.442  10.765
81567W        W54635   8.890  36.411   4.113
81568W        W54636   1.198  17.003   4.741
81569W        W54637  16.000  22.044  12.138
81570W        W54638  34.859  39.493  12.103
81571W        W54639   7.451  22.186  11.227
81572W        W54640   5.211  25.889  11.720
81573W        W54641  27.103  22.171  10.604
81574W        W54642   9.157  24.181   2.569
81575W        W54643  10.629  22.263  14.184
81576W        W54644  30.249  12.772   3.129
81577W        W54645   2.779  11.676  13.300
81578W        W54646   7.983   1.495   0.354
81579W        W54647  35.765  12.441  11.109
81580W        W54648  24.180  19.529   1.066
81581W        W54649  12.151  24.154   0.817
81582W        W54650  12.163  37.913  10.770
81583W        W54651  42.883  24.118   0.313
81584W        W54652  33.906   2.032  14.255
81585W        W54653  36.390  43.825   1.868
81586W        W54654   3.244   5.130   3.827
81587W        W54655   4.683  18.533   1.353
81588W        W54656  38.969   4.977  13.909
81589W        W54657  30.765  15.050  11.045
81590W        W54658  17.690  20.845   1.254
81591W        W54659  16.140  33.929   3.159
81592W        W54660   5.738  29.069   0.735
81593W        W54661  19.201  14.770  12.981
81594W        W54662  41.448  33.941  13.578
81595W        W54663  43.430  33.994  13.135
81596W        W54664  14.850  32.538   4.849
81597W        W54665  24.722  34.428  14.912
81598W        W54666  28.493  43.281   4.015
81599W        W54667  30.934  28.140   1.192
81600W        W54668  24.772  34.583   2.946
81601W        W54669  12.112  19.249   3.986
81602W        W54670  33.600   0.987   4.179
81603W        W54671   1.896  19.149  12.577
81604W        W54672   0.804  41.513  12.020
81605W        W54673  20.169  34.513  12.344
81606W        W54674  20.483  26.503   3.674
81607W        W54675  43.433  31.837  12.569
81608W        W54676  24.778   4.079   1.959
81609W        W54677  44.777  21.524   4.880
81610W        W54678   7.815  29.426   4.285
81611W        W54679   3.942  31.537   4.764
81612W        W54680   4.196  10.575  11.966
81613W        W54681  14.095  34.558   4.610
81614W        W54682  17.124  27.454   1.990
81615W        W54683   6.631  36.532   2.307
81616W        W54684  13.679  38.267  14.810
81617W        W54685  19.778  32.752   2.330
81618W        W54686  10.701   2.235   1.938
81619W        W54687   7.403  42.078  12.191
81620W        W54688  42.844  34.501   4.783
81621W        W54689   8.644  33.339  13.887
81622W        W54690  35.414  17.136  11.114
81623W        W54691  19.175  30.925  11.850
81624W        W54692   7.510   6.772   3.364
81625W        W54693   7.352   7.012  13.908
81626W        W54694  23.166  18.652   2.340
81627W        W54695  36.150   0.778   2.320
81628W        W54696  11.955   2.900  11.575
81629W        W54697   7.674  32.424   0.392
81630W        W54698  20.127  42.281   2.223
81631W        W54699  15.960  39.106   3.379
81632W        W54700   2.979  14.390   2.767
81633W        W54701  12.578   0.532   0.767
81634W        W54702  32.028  36.545   3.672
81635W        W54703  10.617  37.278   2.669
81636W        W54704   8.593  12.781   3.678
81637W        W54705  10.778  39.670   3.050
81638W        W54706  33.556  19.196   4.142
81639W        W54707  11.286   8.307  11.243
81640W        W54708  31.941  38.492   0.698
81641W        W54709   1.399  33.592  12.606
81642W        W54710  21.471   9.269  13.279
81643W        W54711   4.686  24.328   3.760
81644W        W54712  17.654   3.961  10.676
81645W        W54713  25.492  42.717  13.882
81646W        W54714  31.245  23.735  14.019
81647W        W54715  19.754   8.201  14.984
81648W        W54716  33.737  31.952  10.532
81649W        W54717  37.038  23.558  12.516
81650W        W54718  39.487  44.028  13.845
81651W        W54719   5.170  16.845  11.642
81652W        W54720  33.044  14.578  13.071
81653W        W54721  26.539  13.289  10.253
81654W        W54722   4.389  10.084   1.872
81655W        W54723  11.245  22.055  13.982
81656W        W54724  34.116  29.602  12.511
81657W        W54725  38.806  13.369  14.179
81658W        W54726   4.927  38.955   1.903
81659W        W54727  25.521   1.172  12.548
81660W        W54728  16.358  12.873  14.778
81661W        W54729  42.140  11.757  10.791
81662W        W54730  29.933  26.514   1.439
81663W        W54731  38.471  17.557   1.741
81664W        W54732  15.375  17.342   2.672
81665W        W54733   4.799  43.024   1.374
81666W        W54734  35.147  40.644   2.177
81667W        W54735  13.335   8.719   2.755
81668W        W54736   7.382  38.057  12.411
81669W        W54737  10.707  17.551   4.959
81670W        W54738  12.376  43.912  11.996
81671W        W54739  31.013  44.978   4.945
81672W        W54740  33.953  19.909   0.115
81673W        W54741  43.955  30.624  14.610
81674W        W54742  27.649  34.055   1.223
81675W        W54743  28.745  20.082   2.212
81676W        W54744  24.755  33.486  14.863
81677W        W54745  43.485   2.869  12.913
81678W        W54746  15.998  11.166  10.184
81679W        W54747  28.085  28.531   3.432
81680W        W54748  10.338   2.142  14.396
81681W        W54749   6.318  32.122   4.094
81682W        W54750   7.424  20.118   3.110
81683W        W54751  43.007  33.401  14.959
81684W        W54752  27.606  16.127  10.575
81685W        W54753   0.566  28.967   2.765
81686W        W54754  35.045  39.713   0.306
81687W        W54755  35.462  35.295  13.088
81688W        W54756  15.088  39.909  13.891
81689W        W54757   7.936  32.875  11.851
81690W        W54758  12.494  24.769  11.142
81691W        W54759  39.469  13.837   2.428
81692W        W54760  15.141   6.728   2.127
81693W        W54761  38.159  26.463  11.272
81694W        W54762  31.558  20.814  13.860
81695W        W54763  21.452  14.789   1.673
81696W        W54764   3.245  28.888   1.665
81697W        W54765  26.499  18.670  10.722
81698W        W54766  16.840  21.008  13.850
81699W        W54767  39.051  21.334  11.123
81700W        W54768  41.006   1.206  11.100
81701W        W54769   3.281  37.154   3.079
81702W        W54770  36.924  31.827   9.701
81703W        W54771  14.169  41.484   1.865
81704W        W54772  36.970  41.365   1.800
81705W        W54773  18.189  17.216  10.708
81706W        W54774  16.121  30.628   1.736
81707W        W54775  31.756  43.343  10.389
81708W        W54776  13.805  11.795   2.565
81709W        W54777   4.816  23.128   4.549
81710W        W54778  10.339  32.578   1.285
81711W        W54779  28.702  23.303   4.889
81712W        W54780  17.560  37.583   3.669
81713W        W54781  41.176   2.872   3.391
81714W        W54782  25.132   2.090   1.368
81715W        W54783  37.808  38.487   1.954
81716W        W54784  30.332  40.441  11.976
81717W        W54785  28.911  43.936   1.942
81718W        W54786  22.787  19.157  13.574
81719W        W54787  37.005   6.741  11.958
81720W        W54788  16.266   9.449  13.568
81721W        W54789   2.006  29.101  13.905
81722W        W54790  41.514  10.718  12.216
81723W        W54791  40.050  18.630  11.537
81724W        W54792  18.112  39.040  10.521
81725W        W54793  43.945  33.489   1.311
81726W        W54794  27.688  31.695   1.272
81727W        W54795  37.301  16.532   4.757
81728W        W54796   3.744   8.921   4.112
81729W        W54797   2.920  13.597   3.215
81730W        W54798  27.156   4.225   4.572
81731W        W54799   9.855  26.811   0.308
81732W        W54800  31.534  28.416   2.333
81733W        W54801  43.455   2.683  10.612
81734W        W54802  40.696  36.801  13.461
81735W        W54803  14.246  32.138  12.555
81736W        W54804  13.119  21.454  10.871
81737W        W54805  29.084  21.274   4.456
81738W        W54806  21.833  28.420  14.247
81739W        W54807  40.320   2.436   5.375
81740W        W54808   1.447  16.157  12.583
81741W        W54809  13.220  44.531   0.962
81742W        W54810   9.947  34.386  13.817
81743W        W54811  44.813  25.744   2.689
81744W        W54812  18.488  43.985  14.020
81745W        W54813  24.097  22.797   4.673
81746W        W54814  33.066  42.434  12.437
81747W        W54815  16.133   2.961  14.366
81748W        W54816   7.939  28.515   4.860
81749W        W54817   5.727  25.777  11.601
81750W        W54818  11.288  32.927   2.676
81751W        W54819  25.990  14.233  10.885
81752W        W54820  33.971  24.205  12.169
81753W        W54821  36.432  38.483   3.903
81754W        W54822  42.327   2.809  13.448
81755W        W54823   5.763  22.052   2.730
81756W        W54824   0.938  22.978   0.299
81757W        W54825   3.719   7.728  12.473
81758W        W54826  17.685  15.362  12.038
81759W        W54827  33.438  32.258  12.546
81760W        W54828  27.777  27.176  10.566
81761W        W54829  16.171  15.811   2.627
81762W        W54830  41.569  18.725  12.391
81763W        W54831  25.819  22.111  12.418
81764W        W54832  30.091  18.730   0.975
81765W        W54833  38.410  24.003  13.087
81766W        W54834  10.772  20.527   2.398
81767W        W54835  12.969  17.857  10.225
81768W        W54836  11.078  11.344  14.474
81769W        W54837  15.410   5.277   0.295
81770W        W54838  35.646  34.258  12.047
81771W        W54839   8.948   1.562  12.393
81772W        W54840  41.996   9.829  11.054
81773W        W54841  37.910   6.756   3.219
81774W        W54842  18.254   5.900   0.856
81775W        W54843  29.696  29.097   2.875
81776W        W54844  43.626  13.391  11.905
81777W        W54845  25.537  24.319  11.177
81778W        W54846  26.513  13.271   1.831
81779W        W54847   8.938  40.567  12.475
81780W        W54848  41.089   8.404   4.211
81781W        W54849  25.421  26.508  12.356
81782W        W54850  15.803  42.497  10.687
81783W        W54851  22.902   8.202  12.441
81784W        W54852  29.499  24.244  14.525
81785W        W54853   5.648  26.682  13.478
81786W        W54854  18.046  19.475   2.878
81787W        W54855   3.734  36.621  13.537
81788W        W54856  26.498  44.036   1.562
81789W        W54857  24.452  13.145  11.617
81790W        W54858  42.820  26.300   4.444
81791W        W54859   1.702  18.842  12.192
81792W        W54860  15.509  11.549  14.259
81793W        W54861  18.496  23.227   1.995
81794W        W54862  33.345  15.590   3.287
81795W        W54863  13.134  29.509   1.618
81796W        W54864  18.619  20.225   3.681
81797W        W54865  30.494  33.689   1.869
81798W        W54866  11.375  12.872  12.892
81799W        W54867   6.659   3.963  13.321
81800W        W54868  27.051  41.108   1.811
81801W        W54869  34.693  33.885   4.970
81802W        W54870  39.523   8.247  11.625
81803W        W54871  10.531  28.242  11.810
81804W        W54872  28.998  23.186   2.836
81805W        W54873  29.366  36.095   2.337
81806W        W54874  33.081   8.866   1.781
81807W        W54875  42.854   2.167  12.912
81808W        W54876  39.390   1.177  11.641
81809W        W54877  29.946  18.953  11.072
81810W        W54878   6.788  40.462   4.222
81811W        W54879  33.888  32.080  11.965
81812W        W54880  21.490  36.576  10.830
81813W        W54881   6.700  10.619  12.478
81814W        W54882   3.793  24.994  11.160
81815W        W54883  30.097  16.902   3.692
81816W        W54884  11.131  42.776  13.514
81817W        W54885  19.958   8.448  12.563
81818W        W54886  13.044   6.179  11.983
81819W        W54887  35.793  17.979   3.594
81820W        W54888  28.100  33.956  12.463
81821W        W54889   2.187  39.349  13.993
81822W        W54890  39.802  21.641  14.275
81823W        W54891  44.076   5.724   0.661
81824W        W54892   8.785  43.581   0.073
81825W        W54893  16.203  11.634  11.083
81826W        W54894  15.084  39.911  12.381
81827W        W54895   5.915  40.102   1.338
81828W        W54896   9.466  18.308   3.240
81829W        W54897   6.160  27.940  11.713
81830W        W54898   6.800   7.138   0.423
81831W        W54899  19.807   4.211   3.230
81832W        W54900  17.160  29.133  13.843
81833W        W54901  37.901  15.209   3.898
81834W        W54902  30.484  35.968   3.582
81835W        W54903  19.451  16.483  14.083
81836W        W54904   4.372   4.591  12.470
81837W        W54905  31.991  15.685  10.342
81838W        W54906  17.006   3.431  12.595
81839W        W54907  22.592  41.637   1.703
81840W        W54908  21.396  37.983   2.681
81841W        W54909  22.007  13.827  10.693
81842W        W54910  14.353  41.796   1.488
81843W        W54911  36.368  12.127   4.854
81844W        W54912  21.551  38.616   0.576
81845W        W54913  26.180  11.846  10.999
81846W        W54914  24.399  36.605  14.880
81847W        W54915   6.182   1.866   2.685
81848W        W54916  32.981  33.076  13.399
81849W        W54917  16.544  29.596   1.207
81850W        W54918  27.748  15.073  12.300
81851W        W54919  35.756   4.280   4.548
81852W        W54920  10.942  41.522  12.886
81853W        W54921   3.883  19.219  14.136
81854W        W54922  38.897  18.615   2.763
81855W        W54923  11.785  34.216  14.655
81856W        W54924  37.056  23.780  13.436
81857W        W54925  10.289   7.918  12.067
81858W        W54926  37.007   2.318  12.403
81859W        W54927  10.791  32.359   3.199
81860W        W54928  23.090  39.744   3.647
81861W        W54929  26.019  26.146  13.400
81862W        W54930  36.885  28.831   2.312
81863W        W54931  27.947  41.915  11.876
81864W        W54932  23.184  33.825  11.700
81865W        W54933  30.351  40.498   4.277
81866W        W54934  27.692  29.338   0.959
81867W        W54935  14.139   7.642   2.762
81868W        W54936   8.187  25.563  10.693
81869W        W54937   7.619  23.011   0.428
81870W        W54938   1.982  31.106  14.702
81871W        W54939  41.569  25.088   4.545
81872W        W54940  39.382  23.135   0.952
81873W        W54941  10.748  29.928  12.647
81874W        W54942  15.686  25.074   0.989
81875W        W54943   6.900  28.353  14.851
81876W        W54944   2.536  10.594   0.811
81877W        W54945  32.316  23.562   0.421
81878W        W54946  29.648  12.275  11.966
81879W        W54947  39.548  44.311   4.085
81880W        W54948   3.798  25.702   4.755
81881W        W54949   7.673  34.885  14.434
81882W        W54950  34.865  22.743   2.614
81883W        W54951  44.308  39.533  13.750
81884W        W54952  35.989   2.215  14.465
81885W        W54953  23.073   1.999   1.426
81886W        W54954  21.101  26.595  10.630
81887W        W54955  11.644  14.601   4.233
81888W        W54956  42.888  18.824  11.207
81889W        W54957   3.918  17.358   4.091
81890W        W54958  20.307   8.205  11.651
81891W        W54959   5.604  17.844   2.141
81892W        W54960  24.574  11.516  12.972
81893W        W54961  31.223  34.574  12.973
81894W        W54962   1.370  16.390  11.108
81895W        W54963  10.280  20.550   1.416
81896W        W54964  27.590  28.017   4.593
81897W        W54965  19.073  37.780  11.098
81898W        W54966  27.470  14.690  12.128
81899W        W54967  17.107  36.109   3.250
81900W        W54968  20.521  41.786  13.836
81901W        W54969  43.987  17.755  13.857
81902W        W54970  13.766  20.749  12.510
81903W        W54971  36.952  41.854   0.170
81904W        W54972  26.958  33.562   2.202
81905W        W54973   5.243  24.627  11.009
81906W        W54974  33.967   4.850   0.923
81907W        W54975  38.311  13.799  14.804
81908W        W54976  10.627  44.991   1.853
81909W        W54977   2.316   0.325   3.735
81910W        W54978  10.930  20.109   4.918
81911W        W54979  36.607  30.765   0.287
81912W        W54980   7.867  39.510  10.776
81913W        W54981   3.990  36.569   0.061
81914W        W54982   9.893  37.302   0.379
81915W        W54983  25.925  27.994  13.804
81916W        W54984  24.084   8.354   4.059
81917W        W54985  32.016  37.025   3.385
81918W        W54986  15.062  17.702   4.093
81919W        W54987  14.950   3.488  13.272
81920W        W54988  38.124   9.139  11.606
81921W        W54989  22.542   1.470  10.447
81922W        W54990  29.698  28.657  13.052
81923W        W54991  16.901  28.337   1.021
81924W        W54992  13.352  31.670  11.112
81925W        W54993  13.348  10.574   3.624
81926W        W54994   2.551  39.275   1.802
81927W        W54995  36.440   4.335  10.530
81928W        W54996  16.631  24.736   0.974
81929W        W54997  16.632   6.234   2.856
81930W        W54998  24.225  22.460  12.908
81931W        W54999   5.106  18.090  10.467
81932W        W55000  41.819  24.757  14.400
81933W        W55001   1.997  32.622  14.498
81934W        W55002  43.334  11.540   3.241
81935W        W55003   1.479  40.808  14.931
81936W        W55004   3.184  33.240   2.786
81937W        W55005   9.110   0.742  14.315
81938W        W55006  13.804  21.139  10.788
81939W        W55007  15.711  42.724  13.916
81940W        W55008   1.423  33.128  13.746
81941W        W55009  42.920   0.802  13.503
81942W        W55010   7.376  23.011   3.893
81943W        W55011  24.007  28.478  14.891
81944W        W55012  28.440  29.896   1.240
81945W        W55013  29.649   2.173   0.888
81946W        W55014   6.442  25.052  14.998
81947W        W55015  25.556  38.031   5.025
81948W        W55016   8.116   2.661  13.078
81949W        W55017  26.001  21.280   0.870
81950W        W55018  20.293   1.201   2.910
81951W        W55019   8.342  26.307  12.989
81952W        W55020  20.666   4.861  12.904
81953W        W55021  40.871  16.412  12.326
81954W        W55022  30.024  21.329  11.994
81955W        W55023  10.328  38.335  14.292
81956W        W55024  15.428  11.773  14.851
81957W        W55025  31.718  13.337  12.490
81958W        W55026  11.641   5.097   2.667
81959W        W55027  18.844   2.048   1.458
81960W        W55028   8.967  19.215   3.404
81961W        W55029  16.155  19.665   0.482
81962W        W55030  25.605  10.887  12.022
81963W        W55031  29.928   7.729   1.935
81964W        W55032   2.286  44.904   2.561
81965W        W55033  39.136  41.268  11.518
81966W        W55034   0.856   7.694   4.103
81967W        W55035   1.294   0.365  14.477
81968W        W55036  23.510  34.772  12.884
81969W        W55037  20.106  16.762  12.880
81970W        W55038   0.259  22.507  14.475
81971W        W55039  27.564   4.328  14.032
81972W        W55040   8.881  29.666  12.632
81973W        W55041  33.604  20.503   1.845
81974W        W55042  21.220  29.313   2.840
81975W        W55043  12.606  11.830   1.837
81976W        W55044  18.819   0.297  14.434
81977W        W55045  39.801  44.505   4.496
81978W        W55046   6.334  39.590  11.869
81979W        W55047  15.839   6.974   1.726
81980W        W55048  24.557   1.610   3.096
81981W        W55049  27.353   4.386  11.637
81982W        W55050  26.229   2.169   2.375
81983W        W55051  26.510  19.689  12.126
81984W        W55052  20.820  36.053   4.385
81985W        W55053   9.613   5.110  13.840
81986W        W55054  30.002  31.142   4.916
81987W        W55055  30.032   8.172   4.056
81988W        W55056  13.215  26.737  14.504
81989W        W55057  29.394   6.283  14.472
81990W        W55058  32.619  34.527  13.793
81991W        W55059  26.941   7.049   1.777
81992W        W55060  38.270  15.573  12.484
81993W        W55061  42.698   5.873  12.369
81994W        W55062   2.053   8.420  11.891
81995W        W55063   1.386  32.150   3.953
81996W        W55064  12.677  34.969   3.309
81997W        W55065  31.027  18.611  14.089
81998W        W55066  10.091   2.329  11.155
81999W        W55067   8.916  28.043   2.861
82000W        W55068  33.435  23.656   3.027
82001W        W55069  41.803  12.076   4.025
82002W        W55070   8.078  27.896  12.512
82003W        W55071  25.227   5.134  11.631
82004W        W55072  29.957  25.631   2.302
82005W        W55073  27.221   6.837  11.273
82006W        W55074  31.039  39.697  10.422
82007W        W55075   5.994  17.791   0.428
82008W        W55076  31.027  17.163  10.567
82009W        W55077   0.113   2.838   3.865
82010W        W55078  18.226  41.504  14.061
82011W        W55079  11.461   5.758  14.346
82012W        W55080  18.119  17.189  13.324
82013W        W55081  35.097  10.629  13.767
82014W        W55082  18.202  33.968  11.449
82015W        W55083   6.685   5.692  11.647
82016W        W55084  40.418  15.036   0.853
82017W        W55085  36.397  24.905   5.136
82018W        W55086  18.898  20.247   3.171
82019W        W55087  39.920  10.427  12.467
82020W        W55088  10.715  10.537   0.789
82021W        W55089  42.510  21.689  10.571
82022W        W55090  36.998  34.040   3.705
82023W        W55091  14.242  35.877   1.713
82024W        W55092  15.762  19.904  12.608
82025W        W55093  39.780  10.778   0.289
82026W        W55094   7.712  12.818   3.350
82027W        W55095  25.138  33.326   0.603
82028W        W55096   3.591  36.407   0.505
82029W        W55097  27.083   3.751  10.615
82030W        W55098   7.481   5.360  12.072
82031W        W55099   1.456  24.190   2.221
82032W        W55100   8.095   4.177  11.677
82033W        W55101  15.382  36.421  14.522
82034W        W55102  27.574  26.668  11.918
82035W        W55103  10.186  37.334  10.580
82036W        W55104  35.075   5.339   0.426
82037W        W55105   5.651  43.291   4.469
82038W        W55106  39.948  26.745  12.464
82039W        W55107  29.381  31.513  13.810
82040W        W55108   0.365  10.406   1.754
82041W        W55109  16.733  33.204  13.114
82042W        W55110  21.426  35.601  14.083
82043W        W55111  38.735  16.101  10.964
82044W        W55112  29.028   7.843  11.568
82045W        W55113  25.650  23.986   0.884
82046W        W55114  30.916  19.759  12.420
82047W        W55115  44.126  33.876  14.914
82048W        W55116  17.569  34.907  12.418
82049W        W55117  12.781   1.934   4.656
82050W        W55118  12.832   0.998   0.811
82051W        W55119   7.536  40.350   0.236
82052W        W55120   0.849  30.107  14.076
82053W        W55121  25.546  13.701  13.623
82054W        W55122  29.619  17.669   0.846
82055W        W55123  26.417  43.086  14.976
82056W        W55124  39.884   3.561   4.692
82057W        W55125   3.582  43.021   5.113
82058W        W55126  23.618  35.145   1.775
82059W        W55127  35.372  10.353  13.414
82060W        W55128  28.444  11.977   9.938
82061W        W55129   2.203  16.876  10.696
82062W        W55130  30.465  17.302   1.187
82063W        W55131  10.211  34.608   3.253
82064W        W55132   2.285  44.409   3.374
82065W        W55133  31.707   4.806   0.915
82066W        W55134   0.099   8.115  12.802
82067W        W55135   7.221  20.496   3.369
82068W        W55136   5.939  18.242   4.108
82069W        W55137   5.888  42.870  12.043
82070W        W55138   2.878  11.182  13.362
82071W        W55139  24.972  28.092   3.644
82072W        W55140   0.966   2.817  14.751
82073W        W55141  18.588   4.352  10.893
82074W        W55142   9.145   2.301  10.814
82075W        W55143   2.605   2.639   4.675
82076W        W55144   6.128   1.038   4.985
82077W        W55145  30.670  27.295  11.193
82078W        W55146  22.120  30.580  14.939
82079W        W55147  22.085  28.795   1.910
82080W        W55148  10.137  17.677   4.172
82081W        W55149   9.344  18.698   2.234
82082W        W55150  22.092  25.039   0.912
82083W        W55151  15.112   7.449   2.720
82084W        W55152  37.566  14.296   0.708
82085W        W55153  38.031  44.227  12.111
82086W        W55154  38.733  41.844   2.369
82087W        W55155  23.538  26.549  12.002
82088W        W55156   9.442  13.632  12.929
82089W        W55157  37.320  34.392   0.854
82090W        W55158   7.754  36.234   2.871
82091W        W55159  11.175  22.531   1.497
82092W        W55160  29.235  17.783   2.149
82093W        W55161  43.917  10.164   4.171
82094W        W55162   4.778  37.434   4.100
82095W        W55163  21.790  15.628  14.746
82096W        W55164  18.208  17.676  13.387
82097W        W55165  25.357  12.049   3.872
82098W        W55166   6.510   2.856  12.459
82099W        W55167  22.508  23.025  11.567
82100W        W55168  37.340  33.468   0.806
82101W        W55169  40.522  43.422  11.189
82102W        W55170  31.859  37.495   4.263
82103W        W55171   4.344  30.728  13.028
82104W        W55172   4.404  19.566  14.883
82105W        W55173  31.698  18.625  12.887
82106W        W55174  21.298  34.854   1.668
82107W        W55175  15.452  30.849  11.082
82108W        W55176  30.454  22.612  12.476
82109W        W55177   8.960  39.745   5.466
82110W        W55178  31.200   3.960   2.246
82111W        W55179   6.219  25.467  10.884
82112W        W55180   6.825  44.227   1.802
82113W        W55181  44.691  28.321   3.680
82114W        W55182   9.626   5.867  11.355
82115W        W55183  37.069  23.768   2.002
82116W        W55184  10.158  22.570   3.195
82117W        W55185  36.429   2.796   4.806
82118W        W55186  25.697  41.876  11.311
82119W        W55187  40.845  15.753  10.592
82120W        W55188  39.824  36.408   2.313
82121W        W55189   2.267  31.744  14.390
82122W        W55190   9.448  44.991  12.953
82123W        W55191  25.077   9.535   3.219
82124W        W55192   1.334  43.917   2.630
82125W        W55193   0.971  24.979  13.316
82126W        W55194   4.156  27.619   0.936
82127W        W55195  35.800   1.269   4.913
82128W        W55196  38.333  41.971  13.885
82129W        W55197  40.035  11.876   1.467
82130W        W55198  41.171  25.297   0.469
82131W        W55199  36.414  27.055  10.601
82132W        W55200  11.352  15.308   1.265
82133W        W55201  17.018  30.696   4.038
82134W        W55202  19.820  27.513  13.328
82135W        W55203  37.534  34.864   5.143
82136W        W55204  27.566  10.746   2.454
82137W        W55205  44.840  43.978   1.822
82138W        W55206  31.588   2.647  11.686
82139W        W55207   7.167   1.284  13.437
82140W        W55208  11.294  30.428   3.361
82141W        W55209  20.808  11.118   2.083
82142W        W55210  29.161  41.436  12.301
82143W        W55211   6.383   4.463  11.476
82144W        W55212  21.187   8.473  14.894
82145W        W55213  14.892   1.177  11.660
82146W        W55214   4.485  36.126  12.814
82147W        W55215  19.980  31.538  12.842
82148W        W55216   0.896  16.364   3.358
82149W        W55217  22.349   2.834  14.378
82150W        W55218  20.054  24.579   2.358
82151W        W55219  15.180  15.838  13.437
82152W        W55220  40.559  37.297  13.460
82153W        W55221  17.372  11.990   2.688
82154W        W55222   8.198  28.111   5.019
82155W        W55223   2.138   0.778   0.141
82156W        W55224   1.721  35.019   4.181
82157W        W55225  28.539  30.036  13.783
82158W        W55226  22.409  30.388   1.403
82159W        W55227  14.864   0.220  12.112
82160W        W55228  41.723  16.887   3.697
82161W        W55229  32.299   2.542  11.098
82162W        W55230  10.803  28.010  10.712
82163W        W55231   2.303  15.040   4.622
82164W        W55232  43.304  32.353  10.422
82165W        W55233   5.358  26.692  11.967
82166W        W55234  44.290   1.989  12.792
82167W        W55235  42.473  23.752  12.633
82168W        W55236  32.044  33.862  14.161
82169W        W55237  27.578  21.607  14.343
82170W        W55238   4.977  17.053  11.221
82171W        W55239  23.996  18.233   4.515
82172W        W55240  30.985  29.553   0.983
82173W        W55241  26.079   7.958  13.882
82174W        W55242   1.007  12.679  13.589
82175W        W55243  43.059  37.094   4.590
82176W        W55244  39.080   1.981   3.110
82177W        W55245  29.488  13.787   4.222
82178W        W55246  32.249  29.653  10.185
82179W        W55247  25.481   9.803   2.640
82180W        W55248  37.834  18.901   2.844
82181W        W55249   9.689  42.312  11.087
82182W        W55250  11.980  29.176  10.793
82183W        W55251  44.851   7.719   3.071
82184W        W55252  13.339  26.078  14.509
82185W        W55253   8.409  18.597   1.724
82186W        W55254  19.484   3.422   4.765
82187W        W55255  27.193  40.891   3.200
82188W        W55256  40.454  36.388  13.890
82189W        W55257   3.932  23.011   3.810
82190W        W55258   0.495  32.219  11.911
82191W        W55259  21.589  27.000  14.543
82192W        W55260   1.509  26.094   1.953
82193W        W55261  22.079  33.371  11.606
82194W        W55262  40.498  17.534   4.143
82195W        W55263  44.970  25.626   1.250
82196W        W55264  40.294  41.831  11.144
82197W        W55265  20.248  41.383   5.080
82198W        W55266  39.835  24.721  13.121
82199W        W55267   8.369  27.529  14.060
82200W        W55268  19.213  11.105   2.993
82201W        W55269   9.926  20.957   1.350
82202W        W55270  26.589   6.658  12.062
82203W        W55271  26.149  11.604   1.779
82204W        W55272   6.180  36.326   2.616
82205W        W55273  11.852  23.361   3.666
82206W        W55274  14.612  33.960  14.973
82207W        W55275  22.763  22.972   2.344
82208W        W55276  33.281  13.194   1.297
82209W        W55277   8.199  31.307  11.010
82210W        W55278  35.095  13.245  12.631
82211W        W55279  18.444   0.347   1.263
82212W        W55280  38.546  24.981   2.229
82213W        W55281  20.782  34.741   0.870
82214W        W55282  40.509   8.727   1.824
82215W        W55283  21.042  38.845  13.490
82216W        W55284   6.209  31.994  12.433
82217W        W55285  40.963  44.199  13.821
82218W        W55286  36.993  38.950   3.206
82219W        W55287  15.526  25.567   1.105
82220W        W55288  18.163  16.217  14.546
82221W        W55289  11.611  30.925   2.700
82222W        W55290  30.754  32.062   0.319
82223W        W55291  42.075  23.661  13.529
82224W        W55292  31.433  18.859   2.520
82225W        W55293  21.632   5.451  10.682
82226W        W55294   9.498   6.185   5.105
82227W        W55295  43.081   3.429  10.826
82228W        W55296  19.951   0.297   5.131
82229W        W55297  38.844   6.016  11.407
82230W        W55298  15.184  31.725   0.426
82231W        W55299  25.670  41.268  10.060
82232W        W55300  42.920  24.513   5.018
82233W        W55301  27.248   5.338  13.045
82234W        W55302  40.085   6.274   1.773
82235W        W55303  41.795  12.295   4.513
82236W        W55304  41.225  38.102   4.111
82237W        W55305  32.391  18.307  11.122
82238W        W55306   4.386  37.501   2.766
82239W        W55307  38.164   5.429   2.536
82240W        W55308  37.619  15.681  13.414
82241W        W55309  16.424   4.894   3.057
82242W        W55310   5.245  13.139   2.652
82243W        W55311  21.628  42.503   1.348
82244W        W55312  12.530  28.148   3.782
82245W        W55313  38.610   1.851   1.852
82246W        W55314   8.236   9.166   4.318
82247W        W55315  18.200  24.594  10.716
82248W        W55316   0.766  41.027   0.264
82249W        W55317  42.593  21.117  14.724
82250W        W55318  32.844  29.965  12.359
82251W        W55319  32.659  33.547  12.627
82252W        W55320  12.923  26.734   3.800
82253W        W55321  32.053  29.955  11.306
82254W        W55322  18.592  19.788  10.808
82255W        W55323  28.282  23.626   1.467
82256W        W55324  17.164  41.883  14.005
82257W        W55325  28.663  38.315   1.612
82258W        W55326   9.893  23.937   0.127
82259W        W55327  25.715  41.587   4.188
82260W        W55328   0.992  16.611   0.809
82261W        W55329  22.485  21.115  13.327
82262W        W55330  23.438   0.348   1.885
82263W        W55331  40.816   1.445  13.301
82264W        W55332  30.445  18.046  13.955
82265W        W55333  26.952  40.140  10.345
82266W        W55334  40.298  23.242   3.078
82267W        W55335   8.269  27.344   3.834
82268W        W55336  30.512  20.348   4.787
82269W        W55337  14.093  43.535  13.658
82270W        W55338   7.714  22.956   1.803
82271W        W55339  33.030  38.246   3.603
82272W        W55340   9.637  22.161  14.451
82273W        W55341  14.178  39.881  11.704
82274W        W55342  31.218   9.372   2.640
82275W        W55343  42.484  41.811   4.939
82276W        W55344  23.749   3.873  12.088
82277W        W55345  43.122   3.416  12.607
82278W        W55346  32.626  36.537  10.768
82279W        W55347  19.520  23.525   2.805
82280W        W55348  21.201   4.469  11.560
82281W        W55349  30.399  33.922  11.548
82282W        W55350  41.560  43.533  14.405
82283W        W55351  42.367  20.507   2.574
82284W        W55352  17.058  11.569  10.939
82285W        W55353  31.367   8.834   4.134
82286W        W55354   4.842  11.675  11.690
82287W        W55355  25.491   6.861   0.317
82288W        W55356  10.623  38.922  10.222
82289W        W55357   1.513  18.370  14.849
82290W        W55358  12.107  17.270   9.934
82291W        W55359  34.681   4.204   4.444
82292W        W55360  36.123  10.937  11.433
82293W        W55361  32.561  26.865   3.336
82294W        W55362  32.378  10.444   2.653
82295W        W55363  11.622   7.402   0.814
82296W        W55364  25.610  44.831   2.118
82297W        W55365  11.626  16.840   1.892
82298W        W55366  22.671  27.395  14.538
82299W        W55367  12.170  38.017   1.893
82300W        W55368  29.704  27.147   3.858
82301W        W55369  44.406  14.201   1.013
82302W        W55370   0.846  32.892   1.425
82303W        W55371  21.091  38.810  11.526
82304W        W55372  30.613  43.359  14.751
82305W        W55373  29.142  41.037  13.594
82306W        W55374  35.641  21.154   2.517
82307W        W55375  17.638   3.535   3.235
82308W        W55376  24.615  17.442  10.464
82309W        W55377  37.792  19.579  13.132
82310W        W55378  13.345  40.990   0.878
82311W        W55379  33.432  14.519   2.375
82312W        W55380  32.155  33.569  10.732
82313W        W55381  35.648  17.334  14.374
82314W        W55382  13.253  38.984  10.483
82315W        W55383  43.296  11.233  11.106
82316W        W55384  35.505  44.808   2.707
82317W        W55385   7.218  26.396   1.136
82318W        W55386  36.061  32.523   0.386
82319W        W55387  16.189   3.929  14.719
82320W        W55388  33.937   7.731   2.163
82321W        W55389   7.606  25.352  11.128
82322W        W55390  31.215  22.736   0.493
82323W        W55391  20.161  26.964   4.172
82324W        W55392  34.809  24.492   4.647
82325W        W55393  31.432  37.043   0.727
82326W        W55394  10.784  25.519  11.138
82327W        W55395   8.845   1.491   2.814
82328W        W55396   4.244  44.313   3.621
82329W        W55397   0.711  41.458  13.380
82330W        W55398  17.810  17.706  10.753
82331W        W55399  43.709  42.045  12.833
82332W        W55400  30.327  43.819   3.542
82333W        W55401   0.513  20.146   1.860
82334W        W55402  32.039  25.477   1.672
82335W        W55403  12.720  23.110  11.683
82336W        W55404  31.398  29.132  12.892
82337W        W55405  37.836   3.447   1.361
82338W        W55406  13.753  30.788   1.813
82339W        W55407  36.519  31.604   1.983
82340W        W55408  33.055  15.892  11.865
82341W        W55409  14.367  32.687  14.004
82342W        W55410  27.236   5.819  11.051
82343W        W55411   8.328  21.324   1.406
82344W        W55412  43.095  29.723  14.442
82345W        W55413  32.854  36.922   2.362
82346W        W55414  33.844   2.363   1.340
82347W        W55415   6.620  30.436  13.370
82348W        W55416  34.374   2.462  11.583
82349W        W55417  31.933   8.322   0.446
82350W        W55418  36.894  28.695  11.086
82351W        W55419  42.859   4.659   4.917
82352W        W55420  39.435  42.042  11.947
82353W        W55421  19.814  36.608   0.316
82354W        W55422   2.609  27.925   2.226
82355W        W55423  11.114  27.233  11.202
82356W        W55424  42.215  14.512   4.091
82357W        W55425  16.746  13.880   4.050
82358W        W55426   3.771  12.393   4.401
82359W        W55427  10.132  11.652  13.866
82360W        W55428  27.481   1.227   1.388
82361W        W55429  32.942  44.383   3.597
82362W        W55430  29.635  42.270   2.168
82363W        W55431   0.324   2.654  11.587
82364W        W55432  12.644   1.029   3.712
82365W        W55433   3.007  23.100   0.945
82366W        W55434   9.775   8.948  12.069
82367W        W55435  28.162  24.819  10.783
82368W        W55436  18.061  10.323   4.672
82369W        W55437   7.522  36.837   0.373
82370W        W55438  36.219  19.670  11.234
82371W        W55439  29.663  42.425   1.683
82372W        W55440  14.218   7.663  12.362
82373W        W55441  32.618  25.811  11.155
82374W        W55442  44.061   8.071  12.876
82375W        W55443  39.051  25.024  11.628
82376W        W55444   8.660   4.442  11.097
82377W        W55445  30.462  24.017   4.311
82378W        W55446  19.214   6.182  13.845
82379W        W55447  26.034  15.645  11.065
82380W        W55448  33.831   6.381  11.583
82381W        W55449   7.707  41.553   0.939
82382W        W55450  20.833   5.741  14.301
82383W        W55451  28.214  40.070  12.143
82384W        W55452  34.608  10.159  14.325
82385W        W55453  12.617  32.599  12.907
82386W        W55454   4.797  22.627   3.697
82387W        W55455  25.787  29.077   2.319
82388W        W55456  31.048  26.729   9.960
82389W        W55457  43.120  24.998  14.742
82390W        W55458   8.783   9.375   3.206
82391W        W55459  39.339   7.519   2.494
82392W        W55460   2.034   4.133   0.875
82393W        W55461  27.672  44.408   2.223
82394W        W55462   0.173  22.213  14.871
82395W        W55463  20.811  22.098  12.592
82396W        W55464  31.057  23.466  11.269
82397W        W55465  21.695  21.511  13.935
82398W        W55466  30.844  42.132   4.173
82399W        W55467   4.364  28.723  13.082
82400W        W55468  36.456  37.045   4.751
82401W        W55469  43.571  31.132   1.770
82402W        W55470  23.884   6.303  14.947
82403W        W55471  42.761  18.315   1.418
82404W        W55472   0.438   1.893  10.926
82405W        W55473  29.206   5.250   4.598
82406W        W55474  17.901  30.639   3.790
82407W        W55475  11.790  43.598  12.760
82408W        W55476   7.648  38.743   3.633
82409W        W55477  16.623  40.241  13.379
82410W        W55478  12.827  30.000  13.859
82411W        W55479   8.328  31.273  12.373
82412W        W55480  16.814  38.048  14.093
82413W        W55481  33.473  15.728   0.911
82414W        W55482   1.278  43.025   2.336
82415W        W55483  11.079  30.549  10.646
82416W        W55484  41.527   0.503  10.201
82417W        W55485  32.413  40.523   0.952
82418W        W55486  42.393  10.327  12.806
82419W        W55487  33.378  17.815   1.716
82420W        W55488  11.831  43.727  13.375
82421W        W55489  26.959  22.258  12.899
82422W        W55490   0.424  35.039  13.864
82423W        W55491  11.622  29.135  12.866
82424W        W55492  37.347   5.135   2.194
82425W        W55493  36.128   7.414   3.143
82426W        W55494  39.988  34.669   1.726
82427W        W55495   8.405   4.354  13.508
82428W        W55496  19.484  33.689   2.049
82429W        W55497  25.724  12.093  14.223
82430W        W55498  24.813  21.117  10.382
82431W        W55499  21.990  22.739  14.369
82432W        W55500   9.752  12.729  14.410
82433W        W55501  16.306  31.713   3.795
82434W        W55502  16.914  16.542  10.511
82435W        W55503  20.868   7.311  11.080
82436W        W55504   5.916  13.339  13.035
82437W        W55505  14.314  16.600  10.794
82438W        W55506  11.909  11.069  12.576
82439W        W55507   4.487  32.142  14.336
82440W        W55508  11.726  43.490  13.806
82441W        W55509  14.373   5.906   3.813
82442W        W55510  21.044  24.495  11.845
82443W        W55511   9.099  17.223  14.816
82444W        W55512   3.448  27.999   0.609
82445W        W55513  10.116   4.858  13.709
82446W        W55514  44.533   1.940   2.828
82447W        W55515  10.908  40.985  13.256
82448W        W55516  31.517  26.177   0.044
82449W        W55517  40.382  11.113  12.979
82450W        W55518  12.338  29.506  12.480
82451W        W55519  17.211   1.461  11.173
82452W        W55520  33.846  18.753  14.344
82453W        W55521  20.673  12.685  11.985
82454W        W55522  40.421   0.869   3.540
82455W        W55523  42.244  17.308  13.900
82456W        W55524  22.225  41.892  10.993
82457W        W55525   1.661  11.246  11.172
82458W        W55526  15.762   1.197   3.732
82459W        W55527   8.280  15.896   3.302
82460W        W55528   1.649  10.812   4.304
82461W        W55529  28.457  14.280   4.637
82462W        W55530   8.112   3.382   4.579
82463W        W55531  28.841  31.626   3.274
82464W        W55532  40.919  33.453   2.704
82465W        W55533  28.447  36.055   3.620
82466W        W55534  33.022  24.962   3.064
82467W        W55535   5.413  37.029   4.730
82468W        W55536  17.196  25.729   1.353
82469W        W55537  35.585  37.483  14.941
82470W        W55538   9.616  28.893  12.564
82471W        W55539  31.434   9.801   3.310
82472W        W55540   1.456  23.530  12.926
82473W        W55541   1.006  37.665   2.010
82474W        W55542   8.249  29.944  11.964
82475W        W55543  37.006  40.217  13.570
82476W        W55544  31.496  27.276   1.769
82477W        W55545  18.284  15.729  14.457
82478W        W55546  21.573   1.217  11.420
82479W        W55547  30.635  40.476   3.814
82480W        W55548  40.049   9.523  11.509
82481W        W55549  10.668  44.752   1.394
82482W        W55550   6.816   6.321  13.353
82483W        W55551  10.755  24.181  11.499
82484W        W55552  35.021  31.990  11.511
82485W        W55553  18.852  14.788  11.222
82486W        W55554  12.720  43.052   2.373
82487W        W55555  39.938  15.171   3.166
82488W        W55556  24.064  24.030  12.950
82489W        W55557  19.697   4.930   4.584
82490W        W55558   7.078  18.111  12.977
82491W        W55559  22.033  24.095   4.201
82492W        W55560  34.066  19.946  13.716
82493W        W55561  26.881  25.779  12.548
82494W        W55562   9.159  12.638  12.904
82495W        W55563  22.630  36.024   2.222
82496W        W55564  21.113  39.814   0.617
82497W        W55565  13.701  22.811   0.257
82498W        W55566  22.350  17.794  11.986
82499W        W55567  25.282  40.337   4.053
82500W        W55568  17.289   2.268   2.362
82501W        W55569   2.041  24.961  14.566
82502W        W55570  21.457  43.908   2.688
82503W        W55571   3.719  41.403   0.696
82504W        W55572  42.514  22.145  13.857
82505W        W55573  16.712  44.990  12.984
82506W        W55574  24.624  25.416   4.888
82507W        W55575   7.386  30.900  14.824
82508W        W55576  25.427  21.630   1.303
82509W        W55577  44.370  38.894   2.292
82510W        W55578  36.026  44.086  10.623
82511W        W55579  20.608  11.508   0.260
82512W        W55580  42.502  32.884   4.663
82513W        W55581  42.117   5.795  14.248
82514W        W55582  26.427  13.710   3.179
82515W        W55583  34.816  27.902   3.383
82516W        W55584   4.414  25.089   2.314
82517W        W55585  38.448  39.281   4.033
82518W        W55586   5.458  17.483  13.987
82519W        W55587  37.435   1.178  11.659
82520W        W55588  37.773   4.736   3.755
82521W        W55589   2.715  21.089  14.198
82522W        W55590  36.524  23.103   2.371
82523W        W55591  10.161  40.930   0.011
82524W        W55592  14.439  18.730  11.214
82525W        W55593  21.319  24.963   2.239
82526W        W55594  38.509  30.403  12.452
82527W        W55595  16.525  30.363   3.872
82528W        W55596   9.201  35.471   3.664
82529W        W55597   5.743  18.252  12.642
82530W        W55598  41.907  42.776   1.781
82531W        W55599   6.487  40.487  11.983
82532W        W55600  15.773  28.985   1.541
82533W        W55601  40.795  36.239   3.752
82534W        W55602  32.532  39.070  11.802
82535W        W55603  15.292  31.252   0.701
82536W        W55604  39.584  43.401  11.608
82537W        W55605  24.242  23.624  14.278
82538W        W55606  21.224  13.825  11.657
82539W        W55607  35.766  42.266  13.680
82540W        W55608  34.035  38.743   3.642
82541W        W55609  20.965  15.510  14.535
82542W        W55610  36.938  29.879  13.452
82543W        W55611   1.508  28.700  14.448
82544W        W55612   2.309  10.588  10.438
82545W        W55613  12.319  37.411   1.253
82546W        W55614  27.368   3.294   4.205
82547W        W55615  14.736  31.658  13.969
82548W        W55616   4.195   2.254   0.965
82549W        W55617  20.760  42.513   0.823
82550W        W55618  16.331  33.960   4.283
82551W        W55619  22.096  16.178   3.588
82552W        W55620  20.816  10.894   1.600
82553W        W55621  11.563   8.560   3.384
82554W        W55622  35.525  34.745   1.416
82555W        W55623  17.417  30.570   3.636
82556W        W55624   1.819  29.795   4.872
82557W        W55625  11.990  32.283  10.158
82558W        W55626   4.888   5.144   1.925
82559W        W55627  24.699   0.451  14.846
82560W        W55628  37.123  14.014   3.794
82561W        W55629  35.309  11.216   1.293
82562W        W55630  19.416  18.038  11.041
82563W        W55631  22.993   4.719  13.397
82564W        W55632  21.097  15.162  14.177
82565W        W55633  15.477  19.283   0.810
82566W        W55634   0.569  29.477  13.461
82567W        W55635  35.085   2.441  10.768
82568W        W55636  34.740  26.953  14.981
82569W        W55637   8.912   7.207   2.779
82570W        W55638  19.250  18.279  11.782
82571W        W55639  41.072  21.118  10.300
82572W        W55640  22.140  23.175   1.211
82573W        W55641  41.206  31.804   0.073
82574W        W55642  29.427  23.021   3.070
82575W        W55643  22.711  35.451  11.023
82576W        W55644   5.302   2.745  14.905
82577W        W55645  21.549  16.216   2.129
82578W        W55646  16.944  21.112   2.270
82579W        W55647  24.546   8.099  14.458
82580W        W55648  29.021   1.737  10.623
82581W        W55649  39.521  31.218  11.675
82582W        W55650  29.611   0.367   3.529
82583W        W55651  37.998  17.052   3.493
82584W        W55652  42.852  27.437   3.308
82585W        W55653  33.474  40.059  10.923
82586W        W55654  19.367  26.264   3.305
82587W        W55655   8.869  25.421   2.796
82588W        W55656  19.128  42.400  14.307
82589W        W55657  43.621   8.265   3.159
82590W        W55658  37.201  10.943  13.137
82591W        W55659   6.279  39.305   3.857
82592W        W55660  36.053   0.779   4.649
82593W        W55661  34.085  21.707  14.968
82594W        W55662  26.969  37.688   2.891
82595W        W55663  16.644   2.779   4.381
82596W        W55664  12.296   4.858   3.259
82597W        W55665   1.379  22.122  11.697
82598W        W55666  26.577  38.260   2.244
82599W        W55667  31.041  15.209   2.725
82600W        W55668   7.126  11.622  14.015
82601W        W55669  11.654   0.880   0.739
82602W        W55670  12.961  38.830  13.884
82603W        W55671  23.126   9.032   3.172
82604W        W55672  44.774  20.202  12.094
82605W        W55673  28.220  12.252   4.942
82606W        W55674  13.316  33.250  13.294
82607W        W55675   2.861  30.792  14.743
82608W        W55676   4.321   8.368  12.422
82609W        W55677  37.928  34.349  12.866
82610W        W55678  20.280  30.568  14.922
82611W        W55679  23.940  30.728   0.236
82612W        W55680   2.221  42.286   0.852
82613W        W55681  12.192   0.955  12.990
82614W        W55682   2.172  28.887   4.137
82615W        W55683  34.914  12.646  14.986
82616W        W55684   5.744  30.489   1.738
82617W        W55685  33.362  18.153  12.611
82618W        W55686  36.873  40.556  12.584
82619W        W55687   7.370  39.162   1.685
82620W        W55688  11.233  14.917  11.432
82621W        W55689  31.913  27.824   5.358
82622W        W55690   8.211  41.389  13.563
82623W        W55691  34.582   1.516  10.624
82624W        W55692   3.239  29.455   9.984
82625W        W55693  16.798  20.967   0.243
82626W        W55694  26.945  37.786  13.869
82627W        W55695  40.063   6.517  12.920
82628W        W55696  10.154  18.216   5.014
82629W        W55697  16.877  40.530  12.123
82630W        W55698  44.114  29.727  11.275
82631W        W55699   3.967  41.652   0.293
82632W        W55700  13.448   0.407  13.341
82633W        W55701  36.138  40.596   3.357
82634W        W55702  34.258  24.333  11.755
82635W        W55703  43.547  31.703  13.054
82636W        W55704   8.213  44.073   3.765
82637W        W55705  10.802  22.151  11.720
82638W        W55706  36.435  30.391  13.375
82639W        W55707  22.449   7.298   1.733
82640W        W55708  40.520  22.573  13.317
82641W        W55709  44.784   7.959   1.373
82642W        W55710   1.890   2.698  12.440
82643W        W55711   7.882   9.150   1.430
82644W        W55712  36.525  32.538  13.841
82645W        W55713  18.246  38.566   2.086
82646W        W55714  43.790  37.527   2.437
82647W        W55715  24.613  43.827  10.693
82648W        W55716  36.826  24.080  11.397
82649W        W55717  10.569  35.649  14.323
82650W        W55718  15.115   9.356   1.758
82651W        W55719   5.317  40.097  12.895
82652W        W55720  26.090  23.775   3.521
82653W        W55721   1.599  31.897   2.934
82654W        W55722  40.029   9.098   0.418
82655W        W55723  36.549  23.241  12.150
82656W        W55724   1.244  22.382   0.924
82657W        W55725  25.991  34.354   3.632
82658W        W55726  42.329   3.914  12.546
82659W        W55727  11.749  19.433   3.137
82660W        W55728  36.336   8.373  13.060
82661W        W55729  36.751  43.387   2.224
82662W        W55730  42.812  12.904   1.940
82663W        W55731   4.020   5.690   0.031
82664W        W55732   2.546  22.548   3.821
82665W        W55733   6.654  24.293   0.484
82666W        W55734  39.374  10.905  14.625
82667W        W55735   8.457  21.337   2.067
82668W        W55736  39.988  31.818  13.944
82669W        W55737   8.405   4.553  12.473
82670W        W55738  36.289  12.544  14.903
82671W        W55739  19.992   4.937   4.150
82672W        W55740  10.950  36.464  13.468
82673W        W55741   7.804  38.342  12.436
82674W        W55742  28.424  25.225   2.533
82675W        W55743  37.617   0.819  13.612
82676W        W55744  38.575   8.665  10.943
82677W        W55745  16.103  31.967   2.295
82678W        W55746  14.673  20.174  14.783
82679W        W55747  31.465  43.225  12.427
82680W        W55748   1.863  35.968  12.358
82681W        W55749  37.868  29.413  13.251
82682W        W55750  43.834  32.991   1.381
82683W        W55751   6.578   4.978  14.808
82684W        W55752  23.969  19.473  13.700
82685W        W55753  42.399  26.467   2.333
82686W        W55754  13.297  21.154  14.901
82687W        W55755  29.387  29.911  12.425
82688W        W55756  12.464  30.773  13.685
82689W        W55757   9.144  35.036  14.502
82690W        W55758  38.008  40.756   0.940
82691W        W55759  26.731   4.483  10.176
82692W        W55760  27.122  42.787   1.368
82693W        W55761  22.169   4.238  14.601
82694W        W55762  38.990  22.078  12.563
82695W        W55763   2.724  23.392  11.747
82696W        W55764   5.199   3.019  14.356
82697W        W55765  39.790  15.746   2.275
82698W        W55766   3.760  37.446   4.779
82699W        W55767   8.194  35.026   4.684
82700W        W55768  30.692  39.029  11.957
82701W        W55769  10.355  34.945   2.791
82702W        W55770   4.926   4.169  11.621
82703W        W55771  19.701   0.749   1.232
82704W        W55772  27.534  32.894   3.367
82705W        W55773  40.781  19.781  11.143
82706W        W55774  11.655  16.699  14.335
82707W        W55775   9.996  43.072  11.823
82708W        W55776  24.229  18.617  11.389
82709W        W55777  11.097  10.223   0.968
82710W        W55778  36.266  38.801   0.383
82711W        W55779  44.396  14.519  13.759
82712W        W55780  22.630  25.549   0.323
82713W        W55781  43.224  35.448   2.143
82714W        W55782  41.841   3.366   3.886
82715W        W55783  16.520  43.409  14.862
82716W        W55784  37.283  13.433   1.904
82717W        W55785  40.104   9.188  14.614
82718W        W55786  20.721  40.571  14.414
82719W        W55787  27.931  14.666  10.365
82720W        W55788  21.245  22.605   3.692
82721W        W55789   3.300  36.812  12.556
82722W        W55790  35.008  38.590   4.072
82723W        W55791   9.123  32.947   2.495
82724W        W55792  16.624  22.714   1.963
82725W        W55793  23.379  44.810  11.012
82726W        W55794   3.508  10.742   1.200
82727W        W55795   4.734  15.010  13.815
82728W        W55796   4.945  10.790  13.509
82729W        W55797  19.120  35.752  14.931
82730W        W55798  22.880  33.613  11.332
82731W        W55799  39.734  36.698   1.796
82732W        W55800  23.063   3.181  11.848
82733W        W55801  15.781   4.629   2.674
82734W        W55802   9.804  25.470   1.962
82735W        W55803  31.187   1.242   2.201
82736W        W55804  44.207  15.329   1.854
82737W        W55805  26.553  12.753   3.072
82738W        W55806  22.570  21.462   4.750
82739W        W55807  14.182  26.594   2.399
82740W        W55808   2.454  17.504  14.386
82741W        W55809  21.516  39.081   0.819
82742W        W55810  22.298  15.560  11.033
82743W        W55811  12.615  14.776  12.878
82744W        W55812  14.155   6.693   1.345
82745W        W55813   5.940  42.517   2.362
82746W        W55814  23.120  44.790   3.880
82747W        W55815  36.559   9.241   0.220
82748W        W55816  11.605  24.076  10.768
82749W        W55817   6.491  31.745   9.886
82750W        W55818  35.534  38.331  12.988
82751W        W55819  13.165  27.239  10.757
82752W        W55820  37.904  25.630  14.971
82753W        W55821  15.239  12.809  13.822
82754W        W55822  13.294  42.918   1.207
82755W        W55823  12.135  38.067   4.216
82756W        W55824  19.390  27.669   0.363
82757W        W55825  16.713  37.580   0.003
82758W        W55826  39.898  24.062  11.492
82759W        W55827  11.352   2.996   3.831
82760W        W55828   1.486   0.896   4.139
82761W        W55829  32.680  28.014   4.444
82762W        W55830  17.587  32.922   0.049
82763W        W55831  24.885  19.598  13.917
82764W        W55832  27.769  16.791  11.867
82765W        W55833  17.144  43.959  14.317
82766W        W55834   3.034   5.687   1.885
82767W        W55835  34.981   7.223  14.387
82768W        W55836  38.100   9.351   3.544
82769W        W55837  24.553  23.600  13.838
82770W        W55838  41.491  27.399  14.929
82771W        W55839  35.065   8.393  12.473
82772W        W55840   3.685  12.825   0.045
82773W        W55841  14.242  26.001  11.480
82774W        W55842  27.197   9.313   4.844
82775W        W55843   5.386   7.032  12.959
82776W        W55844  42.559  16.988   2.350
82777W        W55845  34.076  34.122   0.912
82778W        W55846  23.931   7.664   3.820
82779W        W55847  39.923  31.828  10.418
82780W        W55848   1.912  28.442   4.087
82781W        W55849  33.808  16.715  14.914
82782W        W55850  27.534   4.716   3.312
82783W        W55851  38.807   1.555   3.256
82784W        W55852  31.481  38.307  12.134
82785W        W55853  19.630  13.715  14.999
82786W        W55854  34.127  15.249  14.865
82787W        W55855   2.693  32.241   4.973
82788W        W55856  22.833  43.100   2.847
82789W        W55857  11.053  38.509  12.696
82790W        W55858  12.542  43.346  12.137
82791W        W55859   8.654  33.331  12.093
82792W        W55860  34.316  44.832   3.199
82793W        W55861   3.183  19.712   2.438
82794W        W55862  15.243  15.792   4.533
82795W        W55863  34.524   0.020   2.295
82796W        W55864  18.511  39.349   0.657
82797W        W55865  21.258  27.273  12.875
82798W        W55866  13.901   8.715  10.993
82799W        W55867   5.845  11.635   1.200
82800W        W55868  20.474  39.394  12.537
82801W        W55869  35.116   8.920   3.177
82802W        W55870  18.559  39.851   2.301
82803W        W55871  43.464   7.337  11.015
82804W        W55872  30.849  34.952  14.243
82805W        W55873  36.035  32.322   1.826
82806W        W55874   0.226  41.982  12.434
82807W        W55875   0.973  20.803   0.233
82808W        W55876  10.734  14.598   4.132
82809W        W55877  26.605  27.015  14.710
82810W        W55878  37.469  19.621  10.695
82811W        W55879  18.850  23.156   4.002
82812W        W55880  14.512   3.403  12.021
82813W        W55881  30.200  33.559   0.997
82814W        W55882  43.787  17.491  10.746
82815W        W55883  33.915  44.700   4.037
82816W        W55884  31.637   7.655  11.141
82817W        W55885  38.567   1.044   5.559
82818W        W55886  32.236  35.512   1.869
82819W        W55887  35.717  34.016  13.370
82820W        W55888   0.833  32.971   4.875
82821W        W55889  11.324   0.926   4.128
82822W        W55890   2.447   7.310  10.648
82823W        W55891  19.581  14.706   3.674
82824W        W55892  18.422  29.334  11.191
82825W        W55893  40.387  26.149   1.262
82826W        W55894   0.451  12.646   3.305
82827W        W55895  27.070   0.816   1.908
82828W        W55896  39.512  37.071   3.641
82829W        W55897  35.978   5.156  10.712
82830W        W55898  37.020  17.978  14.896
82831W        W55899  35.819  17.757   1.965
82832W        W55900  39.503  26.681   3.249
82833W        W55901  35.026  31.376  14.378
82834W        W55902   1.769  29.336  11.643
82835W        W55903  23.047  25.132   4.364
82836W        W55904  36.020  11.389   4.104
82837W        W55905   2.234  25.490  11.130
82838W        W55906   0.439  44.616   4.264
82839W        W55907   0.215  43.242   0.643
82840W        W55908   7.674  43.278  13.102
82841W        W55909  32.638  36.298   0.332
82842W        W55910  21.444   5.227  12.004
82843W        W55911  38.542  10.278   4.568
82844W        W55912  38.980  31.579   4.554
82845W        W55913  37.281  33.602  14.286
82846W        W55914  11.203  18.795   2.591
82847W        W55915  19.727  34.149  14.279
82848W        W55916  28.969  20.820  10.715
82849W        W55917  25.782   8.754   3.342
82850W        W55918  42.982  11.378  10.607
82851W        W55919  13.909  43.841  14.030
82852W        W55920   9.467  12.846  13.271
82853W        W55921  25.747   8.211   3.358
82854W        W55922  24.121  37.506   3.873
82855W        W55923  35.342   5.818   4.827
82856W        W55924  12.345  44.413  12.214
82857W        W55925   2.852   4.916  13.265
82858W        W55926   0.333  10.328   0.797
82859W        W55927   0.966  43.149   1.396
82860W        W55928  16.810  12.610   4.064
82861W        W55929  43.120  41.038  12.949
82862W        W55930  25.306   3.893  14.481
82863W        W55931  17.179  17.126  11.448
82864W        W55932  34.152  30.035   2.733
82865W        W55933  36.909  27.520  14.537
82866W        W55934  32.012  43.064  11.246
82867W        W55935   1.298  38.194   4.445
82868W        W55936  37.282   6.095   4.640
82869W        W55937  43.999  14.755   2.100
82870W        W55938  37.902  36.334   1.804
82871W        W55939   3.983  11.448  14.435
82872W        W55940   7.915  30.181  11.062
82873W        W55941  10.572  34.489  11.587
82874W        W55942  34.694  43.215  13.106
82875W        W55943  21.098  29.747   1.794
82876W        W55944  40.748  13.049   1.316
82877W        W55945   1.391  36.426  13.129
82878W        W55946  17.110  32.880  13.365
82879W        W55947  40.077  22.139   2.335
82880W        W55948  38.582  28.568   1.700
82881W        W55949  16.099  22.021   0.755
82882W        W55950  19.380   7.826  12.354
82883W        W55951  42.789  42.732  13.494
82884W        W55952  36.177  44.774  13.323
82885W        W55953   5.118   4.255   0.536
82886W        W55954  31.239  14.616  11.997
82887W        W55955  36.188   9.137  12.449
82888W        W55956  30.897   9.230  14.782
82889W        W55957  38.401  43.007   0.531
82890W        W55958   2.419   1.231   3.390
82891W        W55959  15.825  26.523  14.904
82892W        W55960  20.121   3.432   4.186
82893W        W55961   0.868  33.156  11.659
82894W        W55962   9.704  33.985   0.892
82895W        W55963  26.259  37.748  13.530
82896W        W55964  40.387  35.135  10.772
82897W        W55965  27.392  21.220  12.566
82898W        W55966  10.563  13.649  14.795
82899W        W55967  29.635   7.718   2.927
82900W        W55968  22.543  27.105   4.226
82901W        W55969  17.348  31.088   0.890
82902W        W55970   5.857  12.373   2.752
82903W        W55971   4.702   4.783   3.891
82904W        W55972  13.134  42.665  14.380
82905W        W55973  17.752  21.254   4.153
82906W        W55974  25.781  33.231  11.546
82907W        W55975  29.368   3.214   4.347
82908W        W55976  23.575   1.851   3.077
82909W        W55977  29.661  41.087  14.351
82910W        W55978   7.490  14.308   0.391
82911W        W55979   3.016  40.896  12.496
82912W        W55980  14.060   0.527  14.931
82913W        W55981  28.639  16.230   1.963
82914W        W55982  13.643   4.739   0.769
82915W        W55983  32.497   2.276  11.507
82916W        W55984  20.453  36.046  14.057
82917W        W55985   0.268  44.240  11.615
82918W        W55986  22.496   5.349  10.245
82919W        W55987   5.490  26.433   0.398
82920W        W55988   9.643  36.895   2.800
82921W        W55989  12.284  23.738  11.107
82922W        W55990  16.329   9.178   0.548
82923W        W55991  33.523  22.422  13.825
82924W        W55992   8.616  14.181  10.345
82925W        W55993   9.747  41.046  10.726
82926W        W55994   6.866  32.881   4.535
82927W        W55995   5.666  39.030  12.518
82928W        W55996  34.629  24.569   2.714
82929W        W55997   5.314  37.985  12.972
82930W        W55998  30.242  44.606  13.015
82931W        W55999   5.818  44.760   2.328
82932W        W56000   2.514  42.702   3.519
82933W        W56001  12.842   8.658   4.482
82934W        W56002  26.996  35.515   1.942
82935W        W56003  41.679  17.599  13.923
82936W        W56004  38.969  18.304   3.218
82937W        W56005  25.588  28.825   3.758
82938W        W56006  36.808  15.175   2.745
82939W        W56007  25.682  19.590   1.703
82940W        W56008  21.709  30.067  10.720
82941W        W56009  26.851  24.759  13.010
82942W        W56010  25.694   5.828  13.960
82943W        W56011  15.537  18.805   0.044
82944W        W56012  26.085  36.397  12.454
82945W        W56013  41.353  33.639  10.734
82946W        W56014  11.908  43.010   2.588
82947W        W56015  42.459   9.712  12.819
82948W        W56016   7.339  32.641   1.211
82949W        W56017  16.827   4.499   1.693
82950W        W56018  25.606  17.857   9.732
82951W        W56019   2.013  13.227   0.349
82952W        W56020  14.717  15.787  13.135
82953W        W56021  37.863  33.638   0.026
82954W        W56022  39.522   9.753  14.315
82955W        W56023  28.156   7.925  13.313
82956W        W56024  18.644  19.099  13.115
82957W        W56025  15.759  12.837  12.588
82958W        W56026  15.355   0.968   3.273
82959W        W56027  41.519  41.382   4.773
82960W        W56028  34.690  27.943  13.033
82961W        W56029  41.462  44.221   2.646
82962W        W56030   4.501  21.496  13.338
82963W        W56031  13.897  20.891  11.521
82964W        W56032  12.715  37.024   0.713
82965W        W56033  30.360  28.549   3.390
82966W        W56034  11.288  42.322  13.789
82967W        W56035  17.285  29.213   4.174
82968W        W56036  41.178  43.276  14.151
82969W        W56037  37.310  27.235  13.165
82970W        W56038   2.817  38.290   4.168
82971W        W56039  12.696  32.924  14.535
82972W        W56040  10.901  31.251  14.251
82973W        W56041   6.816  31.849   4.978
82974W        W56042  36.576  10.535   0.209
82975W        W56043  27.069  26.462   2.215
82976W        W56044  28.093   1.887  12.030
82977W        W56045  13.599   3.410   0.336
82978W        W56046  32.167   7.337   1.178
82979W        W56047  38.707  37.619   4.094
82980W        W56048  10.264  13.399   1.483
82981W        W56049  18.541   9.203  12.975
82982W        W56050  30.081  25.293  13.375
82983W        W56051  35.859  33.045  13.567
82984W        W56052  17.244   2.400  12.525
82985W        W56053  22.067  44.014  14.831
82986W        W56054  13.127  36.928   1.194
82987W        W56055  23.601   2.504  12.079
82988W        W56056  35.554  40.946   3.274
82989W        W56057  35.601  26.786   5.274
82990W        W56058  44.237  22.644   0.328
82991W        W56059  23.914  38.339   0.335
82992W        W56060  42.333  44.127   2.868
82993W        W56061  15.035  33.692  14.286
82994W        W56062  30.010   1.876   2.786
82995W        W56063  18.557  19.506   0.405
82996W        W56064  14.085  27.537   1.265
82997W        W56065   2.646  15.134   1.401
82998W        W56066  39.337   9.153  12.022
82999W        W56067   2.954  44.015   4.758
83000W        W56068  23.029  37.577   0.007
83001W        W56069  40.837  13.083  14.935
83002W        W56070  33.858  32.708   2.441
83003W        W56071  32.929  34.419   0.944
83004W        W56072  14.625   3.256   0.380
83005W        W56073  24.546  39.622   2.877
83006W        W56074  13.230  30.438  12.750
83007W        W56075  41.385  13.297   3.192
83008W        W56076  15.688   8.083  13.531
83009W        W56077  31.140  22.257   3.714
83010W        W56078  37.996   1.893   4.467
83011W        W56079  36.060  11.700  14.900
83012W        W56080   0.827   0.003  13.129
83013W        W56081  16.773  16.001  13.293
83014W        W56082   0.709  18.746  13.989
83015W        W56083  12.192  18.580  14.368
83016W        W56084  36.110  31.983   0.517
83017W        W56085   0.584  43.939  12.594
83018W        W56086  28.030  27.634  10.738
83019W        W56087  32.972  15.100   0.389
83020W        W56088  31.089  25.701  12.321
83021W        W56089   8.527   3.744  11.406
83022W        W56090  16.683  41.107   3.326
83023W        W56091  26.578  20.692   2.744
83024W        W56092  23.173  32.652  11.220
83025W        W56093  20.681  24.538   2.934
83026W        W56094  24.515  34.931  10.575
83027W        W56095  22.566  25.422   2.169
83028W        W56096  40.430   7.417  11.105
83029W        W56097   0.316   0.073   0.318
83030W        W56098   8.406  18.542  12.934
83031W        W56099  17.597  43.967  13.448
83032W        W56100   6.924  42.270  12.085
83033W        W56101  35.959  21.682  10.698
83034W        W56102   8.639  26.187   1.354
83035W        W56103  28.885  12.730   0.451
83036W        W56104  19.642   5.039  14.495
83037W        W56105  13.076  33.430   2.375
83038W        W56106  17.883  30.488   1.222
83039W        W56107  22.647  44.920  11.473
83040W        W56108   7.349  12.115   3.629
83041W        W56109   0.013  14.766   4.517
83042W        W56110  36.837  41.412  12.916
83043W        W56111  10.263   5.981   1.799
83044W        W56112  27.050  21.988   2.650
83045W        W56113   4.011  30.991  14.397
83046W        W56114  28.102   2.785   4.828
83047W        W56115   7.324   9.476   0.360
83048W        W56116  34.366  35.074   1.705
83049W        W56117  35.641  26.098   2.666
83050W        W56118  40.837  13.639   0.664
83051W        W56119   4.824   0.991   1.047
83052W        W56120   4.979   1.487   4.545
83053W        W56121  12.783  37.849  11.589
83054W        W56122  27.576  35.364   3.464
83055W        W56123   7.107  40.002  13.933
83056W        W56124  17.595   6.931  13.811
83057W        W56125  18.225  37.978  11.132
83058W        W56126  25.140   8.654   3.365
83059W        W56127  22.410  26.377   3.129
83060W        W56128   0.652  37.680   2.373
83061W        W56129  12.595  21.758  12.137
83062W        W56130  22.831  31.850   1.164
83063W        W56131   8.185   6.321  11.066
83064W        W56132  44.264  40.371  10.715
83065W        W56133  18.102   3.096   3.267
83066W        W56134  33.965  40.443  12.610
83067W        W56135  20.597  34.164  11.974
83068W        W56136  16.698  32.128   2.913
83069W        W56137   9.953  11.285  10.306
83070W        W56138  44.263  20.682   0.172
83071W        W56139  24.092  35.025   1.938
83072W        W56140  32.524  27.134  11.503
83073W        W56141  16.757  43.619  14.451
83074W        W56142   1.350  39.383   0.239
83075W        W56143  23.710  24.571   1.483
83076W        W56144  10.708  39.964   4.860
83077W        W56145  14.561  27.195  10.971
83078W        W56146  28.944  16.389  12.477
83079W        W56147   5.201  33.834  12.787
83080W        W56148  35.049  32.321  12.124
83081W        W56149  41.324  15.988   9.884
83082W        W56150  28.123  20.988   3.323
83083W        W56151  22.859  14.668  14.933
83084W        W56152  33.125  30.423  11.621
83085W        W56153  42.812  15.624  13.450
83086W        W56154  35.000   7.203  10.586
83087W        W56155   4.976  32.848   0.910
83088W        W56156  22.643  21.465   3.264
83089W        W56157  34.072   5.905   3.572
83090W        W56158   0.230   9.881  12.000
83091W        W56159  20.738  43.029   0.676
83092W        W56160  14.695  19.613  13.013
83093W        W56161  33.623  34.973  10.392
83094W        W56162  36.726   6.692   2.375
83095W        W56163  13.674  26.498  14.601
83096W        W56164  18.193   4.914   3.851
83097W        W56165  35.043  44.189  10.611
83098W        W56166  22.592   5.219   1.245
83099W        W56167  37.318  38.788   4.388
83100W        W56168  32.410  23.481  11.609
83101W        W56169  12.181   2.963  13.055
83102W        W56170  19.159   1.246   2.197
83103W        W56171  13.756   8.283  13.987
83104W        W56172  42.930  25.252   3.647
83105W        W56173  24.982  44.273  14.356
83106W        W56174  17.420  20.426  11.489
83107W        W56175  40.906   4.570  11.194
83108W        W56176   6.856  35.283   2.848
83109W        W56177  14.379   3.321  14.474
83110W        W56178  44.109  37.169   2.794
83111W        W56179   4.218  15.098   4.586
83112W        W56180  28.477   2.336  12.000
83113W        W56181  44.818  14.643   2.110
83114W        W56182   8.164   9.395  12.482
83115W        W56183  37.293  39.133  11.544
83116W        W56184  43.330   5.815  10.689
83117W        W56185   6.539  44.514   4.392
83118W        W56186  42.301  32.301  12.796
83119W        W56187  11.797   4.006   3.786
83120W        W56188   4.335  39.035  12.927
83121W        W56189   9.886  10.610   0.489
83122W        W56190  14.365  44.369   1.396
83123W        W56191   9.763  21.738   0.700
83124W        W56192  44.205   0.719   0.860
83125W        W56193  29.580  25.490   1.906
83126W        W56194  15.517  42.975   0.007
83127W        W56195   9.810   7.191  11.348
83128W        W56196  16.303   5.185  14.025
83129W        W56197  23.200  32.640   4.556
83130W        W56198  30.540  34.857  11.108
83131W        W56199   1.798  13.903  11.985
83132W        W56200   4.483  30.271  13.873
83133W        W56201  42.977   7.227  10.292
83134W        W56202  29.340  33.526  10.990
83135W        W56203  18.518  32.385  12.454
83136W        W56204   1.279  33.518   0.537
83137W        W56205  11.573  11.736   3.260
83138W        W56206  17.969  12.141  11.449
83139W        W56207  34.724  32.903  11.077
83140W        W56208  15.536   0.735  10.626
83141W        W56209   4.985  25.383  10.585
83142W        W56210   3.168  30.460  11.162
83143W        W56211  17.206   1.702  10.343
83144W        W56212  11.524  19.155   2.767
83145W        W56213  30.402  42.386   4.039
83146W        W56214   5.604  20.931  12.831
83147W        W56215  26.925   0.554   0.429
83148W        W56216   8.811  10.332  12.438
83149W        W56217   5.418   1.800   1.259
83150W        W56218  27.740  22.819  11.081
83151W        W56219  36.327  34.460  14.357
83152W        W56220  15.512  42.986  14.475
83153W        W56221   9.948  25.208   3.405
83154W        W56222   2.473   3.271  11.928
83155W        W56223  11.170   6.336   3.738
83156W        W56224  11.137  36.143   4.269
83157W        W56225  30.692  31.102  11.233
83158W        W56226  16.483  33.302  14.285
83159W        W56227  15.361  39.923  10.942
83160W        W56228  27.064   7.288  14.201
83161W        W56229  10.268  10.552  11.272
83162W        W56230  15.657  27.280   0.315
83163W        W56231   2.954  10.220  11.644
83164W        W56232  16.102  38.101   3.137
83165W        W56233  13.832  10.341  12.239
83166W        W56234  26.973  36.314  13.855
83167W        W56235  37.003  24.160  13.791
83168W        W56236  16.150  43.833   0.462
83169W        W56237  21.709  38.145  12.394
83170W        W56238  15.898  21.658   4.080
83171W        W56239  25.787  33.123  14.387
83172W        W56240  27.418  21.638  14.856
83173W        W56241   6.686  24.087   3.594
83174W        W56242  12.811  15.600   1.266
83175W        W56243  26.514  42.426  11.073
83176W        W56244  33.669  28.924  11.460
83177W        W56245  38.519  19.987   1.785
83178W        W56246   2.290  30.676  12.892
83179W        W56247  40.949  19.042  13.909
83180W        W56248   2.829  29.506   4.864
83181W        W56249  29.996  16.304   2.206
83182W        W56250  41.755  33.614  12.502
83183W        W56251  16.653  23.926   1.315
83184W        W56252  12.024   9.036   4.121
83185W        W56253  14.336  17.779  11.173
83186W        W56254  19.986  21.824   1.993
83187W        W56255  41.458   3.162   4.164
83188W        W56256  35.152  12.519   2.384
83189W        W56257  11.587  21.236  12.527
83190W        W56258   7.091  21.520  13.844
83191W        W56259  30.549  28.622  12.941
83192W        W56260  25.827  37.399  14.711
83193W        W56261  33.935  21.676  12.948
83194W        W56262   2.335  11.071  10.615
83195W        W56263  19.211  25.830  12.040
83196W        W56264  28.931  35.157  14.361
83197W        W56265   0.249  34.609  13.234
83198W        W56266  40.347  39.232   2.340
83199W        W56267  32.130  31.582   4.593
83200W        W56268   8.293  31.993  12.081
83201W        W56269   6.209   7.783  11.614
83202W        W56270  11.627  15.180  11.711
83203W        W56271  34.982  13.739   4.538
83204W        W56272  35.046  11.263  10.651
83205W        W56273  10.027  30.294   3.426
83206W        W56274  38.997   8.250  12.920
83207W        W56275  34.355  16.082  10.427
83208W        W56276  23.736  38.965   0.350
83209W        W56277  26.702  19.544  13.447
83210W        W56278  11.673   2.048  11.636
83211W        W56279   5.218   4.654   2.218
83212W        W56280  28.054  32.550   0.377
83213W        W56281  26.793  43.580   0.273
83214W        W56282  27.394  13.042  11.620
83215W        W56283  14.794  29.127  12.007
83216W        W56284   0.435  43.671   2.834
83217W        W56285   2.664  44.697  13.384
83218W        W56286  33.584  22.972   3.734
83219W        W56287  26.745  12.208  10.791
83220W        W56288   7.885  30.129  14.975
83221W        W56289   7.360  17.738  14.197
83222W        W56290  40.889  41.976  12.023
83223W        W56291   3.442   2.862   2.628
83224W        W56292  42.868  32.595   2.906
83225W        W56293  21.048  16.609   4.771
83226W        W56294   4.394  13.615  12.557
83227W        W56295   0.853  17.842   0.311
83228W        W56296   1.993  38.795  12.348
83229W        W56297  44.319   9.214  14.960
83230W        W56298  31.806  27.972  10.762
83231W        W56299  12.727  35.106   4.385
83232W        W56300  18.213  27.770  13.987
83233W        W56301  22.267  24.282  11.099
83234W        W56302  15.231  21.306   3.678
83235W        W56303  23.079   0.447   4.667
83236W        W56304   0.239  12.190   0.161
83237W        W56305   4.613  43.001  10.010
83238W        W56306  13.087   1.844  12.568
83239W        W56307   9.023  18.080  12.058
83240W        W56308  17.282  39.165   4.172
83241W        W56309  35.623  35.952   4.570
83242W        W56310  30.438  15.718   3.919
83243W        W56311   5.955  17.665  10.706
83244W        W56312  11.951  23.699   0.955
83245W        W56313  19.529   5.429   4.646
83246W        W56314  20.324   8.927  10.915
83247W        W56315  32.483  32.163   0.900
83248W        W56316  40.485   9.378   0.231
83249W        W56317   1.165  14.725  12.491
83250W        W56318  35.460  36.360   3.342
83251W        W56319  23.980  13.018  12.961
83252W        W56320  11.565  27.607  13.933
83253W        W56321  12.555  13.754  11.898
83254W        W56322   1.525  10.524  11.646
83255W        W56323  11.922  21.449  10.960
83256W        W56324  25.193   1.988  14.737
83257W        W56325  37.102  10.434   2.421
83258W        W56326  18.518  14.668   4.572
83259W        W56327  43.387  31.203   4.554
83260W        W56328  35.819  24.039  14.930
83261W        W56329  34.074  30.594   1.402
83262W        W56330   4.135  30.544   0.878
83263W        W56331  12.207  27.606  11.595
83264W        W56332  14.987  12.344   3.556
83265W        W56333   3.687  17.339  13.884
83266W        W56334  43.457  17.141  11.038
83267W        W56335  13.414  33.594   3.315
83268W        W56336  21.574  13.422   0.945
83269W        W56337  19.580  25.321   2.596
83270W        W56338  28.070  21.321  11.047
83271W        W56339  18.396   7.123   2.331
83272W        W56340  39.548   0.795   1.168
83273W        W56341  21.571   5.496   0.029
83274W        W56342  26.000   1.323  13.339
83275W        W56343  25.966  23.800   5.007
83276W        W56344  28.395  13.413   2.667
83277W        W56345  30.404  30.980  13.538
83278W        W56346   7.879  35.440   0.263
83279W        W56347  12.725  10.540   1.770
83280W        W56348   0.938  31.242  10.523
83281W        W56349  39.425  28.678  11.057
83282W        W56350  42.419   6.042  11.505
83283W        W56351   5.525  10.163  11.006
83284W        W56352  25.718  32.402  11.222
83285W        W56353   9.226  24.986  13.793
83286W        W56354   7.801  37.582  10.234
83287W        W56355   7.120  42.436   4.234
83288W        W56356  25.868   0.367   0.264
83289W        W56357  37.027  34.565  14.088
83290W        W56358  31.066  18.287   1.903
83291W        W56359  25.397  16.629  13.548
83292W        W56360  13.775  13.549  11.647
83293W        W56361  33.613   2.320  13.503
83294W        W56362  11.625  28.797  12.436
83295W        W56363  20.831  11.267  12.507
83296W        W56364  10.095   6.469  13.473
83297W        W56365  40.813  30.983   4.018
83298W        W56366  31.696  13.138   4.596
83299W        W56367   8.547  44.901   1.740
83300W        W56368  34.537  44.408   1.752
83301W        W56369  37.913  44.562  13.494
83302W        W56370   5.426  38.470   0.046
83303W        W56371  26.640   7.348  14.540
83304W        W56372  41.687  29.017   4.346
83305W        W56373  10.184  24.899  14.381
83306W        W56374  33.035  37.725  12.504
83307W        W56375   5.391  34.123   3.763
83308W        W56376  20.642  10.398   3.942
83309W        W56377  30.524  19.151   0.879
83310W        W56378  35.057  22.856  13.914
83311W        W56379   5.831  37.740  10.403
83312W        W56380  23.254  32.914  12.543
83313W        W56381  33.175   0.965   1.629
83314W        W56382   9.783  42.415  13.373
83315W        W56383   2.472   3.864   3.101
83316W        W56384   9.928   7.523  14.339
83317W        W56385  34.226  43.442  13.014
83318W        W56386  21.593   1.894   1.287
83319W        W56387  24.238   1.494  11.454
83320W        W56388   9.027   3.622   3.668
83321W        W56389  11.260   6.978   1.700
83322W        W56390   6.718  39.532  12.198
83323W        W56391  21.141  21.109   4.154
83324W        W56392  12.348  43.857   1.908
83325W        W56393  21.931  25.613  13.831
83326W        W56394  27.462  44.754   2.541
83327W        W56395  40.408   8.742  11.362
83328W        W56396  32.662  42.236   2.796
83329W        W56397  14.804  14.280  13.871
83330W        W56398  14.802   5.338   1.554
83331W        W56399  42.039  26.063  11.287
83332W        W56400  32.979  18.810   0.336
83333W        W56401   1.908  11.644  13.019
83334W        W56402  33.144   7.217  14.506
83335W        W56403  21.161  19.641   3.915
83336W        W56404  25.047  23.551  14.219
83337W        W56405  34.577  22.459   1.745
83338W        W56406  15.716  24.522   1.210
83339W        W56407  42.558  34.752   1.510
83340W        W56408  35.588  32.332   0.402
83341W        W56409  29.382  41.754  11.018
83342W        W56410  43.495  38.490  14.424
83343W        W56411  30.952  15.117  13.143
83344W        W56412  29.576  36.545  12.868
83345W        W56413  25.188  37.803   0.249
83346W        W56414  13.897  12.627  13.865
83347W        W56415  23.142   4.959   4.107
83348W        W56416  22.914  30.501   1.437
83349W        W56417  40.434   9.282  14.223
83350W        W56418   6.428   9.692  10.579
83351W        W56419  37.862   7.448  11.973
83352W        W56420  38.161  41.019   1.900
83353W        W56421   4.041  39.810  10.622
83354W        W56422  34.858  38.095  14.027
83355W        W56423  19.615  33.017  10.721
83356W        W56424  28.220  12.378   3.641
83357W        W56425  42.967  26.630   1.296
83358W        W56426  43.373  10.425  11.559
83359W        W56427  33.518  36.408   4.571
83360W        W56428  43.810  30.829   3.204
83361W        W56429  33.664  34.969  10.905
83362W        W56430  12.416  37.886  11.208
83363W        W56431  30.493   8.392  11.261
83364W        W56432   1.746  25.636   1.828
83365W        W56433  29.003  12.940   4.669
83366W        W56434   5.338  18.283   2.097
83367W        W56435  22.048   4.296  11.899
83368W        W56436  18.516  29.920  11.604
83369W        W56437  29.437  34.443  11.226
83370W        W56438  41.344   0.686   3.840
83371W        W56439   9.937  27.491   1.625
83372W        W56440   6.831  10.934   0.760
83373W        W56441  35.063  41.051  13.052
83374W        W56442  37.232   9.594  14.958
83375W        W56443   5.161   6.748  12.106
83376W        W56444  36.026  15.165   2.272
83377W        W56445  13.299  16.167  12.806
83378W        W56446  31.981  18.581   4.685
83379W        W56447   0.736  12.343  14.502
83380W        W56448   4.352  25.719   3.332
83381W        W56449  41.743  30.882   3.235
83382W        W56450  13.293   9.246   3.720
83383W        W56451   2.282  34.461  14.591
83384W        W56452   4.988  21.948  14.607
83385W        W56453   8.695   8.055  14.335
83386W        W56454  34.301   2.218   4.507
83387W        W56455   1.971  14.759  14.106
83388W        W56456  27.937  41.619   1.855
83389W        W56457  28.033   4.918  13.432
83390W        W56458  10.232   6.638   0.832
83391W        W56459  26.979  35.398  13.729
83392W        W56460   5.989  31.753   3.968
83393W        W56461  38.818  22.318  11.968
83394W        W56462  43.302   4.934   3.666
83395W        W56463   1.243   0.925   0.677
83396W        W56464  32.000   3.688   1.654
83397W        W56465   4.693   6.974  14.856
83398W        W56466  20.652  26.270  12.206
83399W        W56467   2.536  17.150   2.286
83400W        W56468  28.299   1.907  10.658
83401W        W56469  18.049  17.838  14.855
83402W        W56470  24.444  43.061  11.688
83403W        W56471   6.161  28.962   3.658
83404W        W56472  26.161  14.827  13.375
83405W        W56473  32.861   5.440  11.036
83406W        W56474   4.109  16.093  10.657
83407W        W56475  18.240  40.297   0.391
83408W        W56476  38.122  13.009   4.971
83409W        W56477  28.432  20.304  13.556
83410W        W56478   5.339  18.724   3.967
83411W        W56479   0.530  23.017  13.278
83412W        W56480  41.832   3.361   1.594
83413W        W56481  42.761  26.169   1.355
83414W        W56482   6.874  21.493  11.994
83415W        W56483  21.766  10.514  10.606
83416W        W56484  33.568  32.852  10.672
83417W        W56485   6.688  34.214  12.926
83418W        W56486  35.934  23.525  14.818
83419W        W56487  37.447   0.245   1.355
83420W        W56488   1.912  12.876   4.555
83421W        W56489   0.497  20.337   4.520
83422W        W56490   2.890  25.251  12.462
83423W        W56491  32.841  35.020  14.349
83424W        W56492  36.332  10.284  11.156
83425W        W56493   8.330  26.949  12.456
83426W        W56494  38.335  24.457  13.341
83427W        W56495  40.149  24.013  11.941
83428W        W56496  29.456  31.603  12.127
83429W        W56497  10.913   7.305   1.933
83430W        W56498  31.106   9.729  12.813
83431W        W56499  15.597  23.180   3.762
83432W        W56500  25.228  34.569   0.949
83433W        W56501  27.517  15.077  13.384
83434W        W56502  31.160   3.888  10.578
83435W        W56503  20.058  10.670  12.435
83436W        W56504  23.730  27.622   0.323
83437W        W56505  32.151  11.368   4.790
83438W        W56506  12.626  24.099   3.633
83439W        W56507  25.516  15.214  10.702
83440W        W56508  44.864  19.735  13.687
83441W        W56509   3.307  30.705   2.344
83442W        W56510   8.465   3.682   4.876
83443W        W56511  14.107  10.299   4.085
83444W        W56512  35.817  18.611  14.516
83445W        W56513  31.556   6.602  14.073
83446W        W56514  44.800  17.760   5.086
83447W        W56515  35.104  26.205  10.511
83448W        W56516   3.274   0.258   2.680
83449W        W56517   4.707  30.917   4.155
83450W        W56518  29.005  34.053  14.585
83451W        W56519  37.099  28.126   3.733
83452W        W56520  18.278  24.411   0.764
83453W        W56521  19.698  42.906   1.809
83454W        W56522  11.716  10.656  11.147
83455W        W56523  39.530   5.320   0.436
83456W        W56524  15.523  18.551   4.277
83457W        W56525  27.983  42.524   1.452
83458W        W56526  36.114   4.881  13.340
83459W        W56527  44.488  31.562   3.990
83460W        W56528  36.784  13.592   1.847
83461W        W56529  35.550   9.358  10.665
83462W        W56530  41.955  34.893  12.006
83463W        W56531  22.613  20.352   0.132
83464W        W56532   5.377  43.960  13.958
83465W        W56533  39.859  24.261   1.366
83466W        W56534  39.500  24.507  11.133
83467W        W56535  38.980   3.252   4.697
83468W        W56536  20.508  39.408  10.606
83469W        W56537   5.751   9.088   4.806
83470W        W56538  39.751  29.227  11.002
83471W        W56539  11.751  43.435   4.926
83472W        W56540   1.236  33.163   3.647
83473W        W56541  10.794  29.843   4.085
83474W        W56542  10.311  25.280  11.142
83475W        W56543   3.335  12.009  14.907
83476W        W56544  11.081  31.700  14.498
83477W        W56545  38.789  39.141   2.967
83478W        W56546   7.885  17.217  13.137
83479W        W56547  34.129  44.841   0.476
83480W        W56548  15.828  27.041   1.162
83481W        W56549  41.816   4.093  12.305
83482W        W56550  39.053  35.339   3.850
83483W        W56551  32.055  14.316  11.263
83484W        W56552  22.041  33.918   1.763
83485W        W56553  27.036   6.982  10.785
83486W        W56554  24.474  16.653  11.592
83487W        W56555  11.964   7.306   3.565
83488W        W56556  24.614  42.864   1.744
83489W        W56557  28.775  30.203  10.955
83490W        W56558  44.982  22.748  12.963
83491W        W56559  10.856   4.236  10.548
83492W        W56560  36.962  41.296   2.772
83493W        W56561  15.645  14.292   4.161
83494W        W56562  25.024  26.674   1.877
83495W        W56563  21.693  41.456   1.215
83496W        W56564  22.169  30.499   0.966
83497W        W56565  39.824   0.845  12.959
83498W        W56566  21.370   0.401   1.084
83499W        W56567  40.073  17.621  11.365
83500W        W56568  28.251  34.404  12.190
83501W        W56569  40.004  16.749  11.007
83502W        W56570  41.327  20.641   3.937
83503W        W56571  24.764  30.605  11.938
83504W        W56572   2.435   8.183  12.142
83505W        W56573  14.698  34.170  11.455
83506W        W56574  31.516  19.730  13.740
83507W        W56575  23.442  44.245  12.321
83508W        W56576   2.447  21.745  14.496
83509W        W56577  19.020  20.814  14.515
83510W        W56578  31.031  13.368   4.249
83511W        W56579  16.133  17.475   3.384
83512W        W56580  39.055  22.138  14.516
83513W        W56581  14.273  25.878  13.935
83514W        W56582  36.544  18.685  13.840
83515W        W56583   9.734  38.545  12.869
83516W        W56584  15.262   4.025   4.601
83517W        W56585   9.427  17.889  11.182
83518W        W56586  25.962  35.113  11.553
83519W        W56587  13.265  35.361   2.458
83520W        W56588  19.592  25.136  11.598
83521W        W56589  17.371  29.940  10.482
83522W        W56590  44.788  29.858   4.413
83523W        W56591   7.416  14.015   0.795
83524W        W56592   6.821  42.876   2.919
83525W        W56593  22.591  42.431   2.481
83526W        W56594  13.875  26.563  13.797
83527W        W56595  17.781  44.296  14.799
83528W        W56596  18.215  15.605   4.078
83529W        W56597  35.795  44.964  13.627
83530W        W56598  38.993  35.210   0.770
83531W        W56599  44.367   2.597  14.238
83532W        W56600  32.544  29.637   3.769
83533W        W56601  33.399   6.011   0.489
83534W        W56602  27.108  33.428  10.716
83535W        W56603  14.215   6.172   1.386
83536W        W56604  39.165  12.240  11.390
83537W        W56605  17.491  35.016  14.482
83538W        W56606  42.223  20.225   3.421
83539W        W56607   3.411   3.793   2.742
83540W        W56608  23.043  17.645   2.047
83541W        W56609  38.606  16.692  14.109
83542W        W56610  26.674  19.648   2.220
83543W        W56611  21.685   5.851   0.748
83544W        W56612  14.785  44.001   0.854
83545W        W56613  39.024   5.438  14.864
83546W        W56614  28.109  10.547   1.003
83547W        W56615  18.642  18.989  11.954
83548W        W56616  18.911  32.213  14.882
83549W        W56617   0.190  24.679   4.646
83550W        W56618   0.977  30.846  12.002
83551W        W56619  23.052  36.266   2.387
83552W        W56620  40.246   1.274   0.764
83553W        W56621  28.451  34.671  12.581
83554W        W56622  26.205  38.747   0.093
83555W        W56623  38.806  25.099   3.393
83556W        W56624  25.191  26.591   4.542
83557W        W56625  41.530  15.138  14.850
83558W        W56626  43.553   9.138   3.116
83559W        W56627  22.730  32.105  12.521
83560W        W56628  15.944  18.059  13.555
83561W        W56629   9.426   2.905   4.402
83562W        W56630  21.104  33.391   4.956
83563W        W56631  19.652  25.737   5.039
83564W        W56632  25.455  21.094  14.855
83565W        W56633  31.668  25.124   4.306
83566W        W56634  20.809   0.736  12.083
83567W        W56635  28.142   9.788   3.077
83568W        W56636  24.554  13.743  14.466
83569W        W56637  13.412  17.637  12.962
83570W        W56638  23.774   7.048   2.536
83571W        W56639  44.292  38.745   9.943
83572W        W56640  13.190   3.998  10.648
83573W        W56641  37.482  24.555  13.036
83574W        W56642   6.516   7.265  14.484
83575W        W56643   5.360  28.188  14.322
83576W        W56644  20.093  44.777  10.297
83577W        W56645   2.077  39.401   3.271
83578W        W56646  36.487  40.533  13.985
83579W        W56647   8.751  35.065   0.303
83580W        W56648   9.945  42.557  13.855
83581W        W56649  26.647  10.681   4.154
83582W        W56650   2.250  37.903  14.020
83583W        W56651  36.340  23.028   1.886
83584W        W56652   4.649  23.119   1.422
83585W        W56653  16.200  31.409   2.345
83586W        W56654   2.555  38.621  14.882
83587W        W56655  26.646  43.152   9.970
83588W        W56656  28.590  15.340   2.792
83589W        W56657   0.205  35.951  14.511
83590W        W56658  43.384   8.681  10.188
83591W        W56659  33.938  33.407  11.432
83592W        W56660  26.992   7.935  12.959
83593W        W56661  19.892   5.241   5.006
83594W        W56662  40.544  11.637  10.282
83595W        W56663   5.220   0.184   4.251
83596W        W56664  16.105  25.202   2.247
83597W        W56665  22.333  28.572  12.998
83598W        W56666  11.143  20.881  11.091
83599W        W56667  24.482  12.594  14.060
83600W        W56668  35.090  36.006   3.199
83601W        W56669   5.149  41.471  13.897
83602W        W56670  37.587  26.378  13.713
83603W        W56671   1.208  34.924   4.181
83604W        W56672   7.977  30.434   4.674
83605W        W56673  39.961  15.091   0.480
83606W        W56674  17.566  34.422   3.446
83607W        W56675   4.834   3.056   4.622
83608W        W56676   3.464  14.690  12.751
83609W        W56677  25.792  19.324  14.913
83610W        W56678  12.580  31.629   3.274
83611W        W56679  42.461  38.591  12.902
83612W        W56680  29.928  25.210   1.552
83613W        W56681  36.488  37.931  14.892
83614W        W56682  21.210  33.408  10.447
83615W        W56683  39.814   6.744   4.149
83616W        W56684  25.186  24.194   4.558
83617W        W56685  22.105  13.802   2.581
83618W        W56686  27.528  20.749  13.306
83619W        W56687  12.359  31.164  14.024
83620W        W56688  35.507  43.438   3.230
83621W        W56689  39.299   1.379  14.822
83622W        W56690  36.841  24.039  12.407
83623W        W56691  35.624  39.234  13.124
83624W        W56692  19.098  34.062  11.490
83625W        W56693   9.122  26.012   2.219
83626W        W56694  11.384  41.027   3.501
83627W        W56695  10.436  15.784   1.256
83628W        W56696  21.557  21.194  11.340
83629W        W56697  38.505  24.519  10.870
83630W        W56698  34.161   0.930  14.396
83631W        W56699  40.935  26.035  13.265
83632W        W56700  14.431  28.447  12.679
83633W        W56701  14.200   6.836  12.979
83634W        W56702  21.890  36.981   4.545
83635W        W56703   8.385   9.699  14.016
83636W        W56704  13.237  10.895  12.960
83637W        W56705   3.213  18.847  14.931
83638W        W56706  39.966  24.142  12.403
83639W        W56707  18.309   8.368  11.153
83640W        W56708  39.513  24.952  14.396
83641W        W56709  16.355  19.075  14.630
83642W        W56710  10.196   4.154  12.594
83643W        W56711  17.954  44.017  13.005
83644W        W56712  37.279  38.494   1.766
83645W        W56713  13.478  20.669   4.809
83646W        W56714  22.592  16.773   1.321
83647W        W56715   2.217  27.043   3.219
83648W        W56716   8.337  20.177   2.858
83649W        W56717  35.866  32.820  12.196
83650W        W56718  13.872  24.974   2.922
83651W        W56719  36.453   3.335   3.587
83652W        W56720  22.312  40.452   2.972
83653W        W56721  20.690  27.952  14.923
83654W        W56722   6.258  39.113  13.731
83655W        W56723  29.085  27.078   3.307
83656W        W56724   5.419  38.585  10.274
83657W        W56725  41.988  26.708  14.821
83658W        W56726  44.742  19.482   1.629
83659W        W56727  43.026  44.407   3.828
83660W        W56728  35.910  22.545   2.738
83661W        W56729  36.258  14.307  11.830
83662W        W56730   9.300  42.286  10.434
83663W        W56731  37.016  12.356   1.341
83664W        W56732   4.781  31.615   3.731
83665W        W56733  26.544  38.775   3.841
83666W        W56734  27.442   2.470   4.293
83667W        W56735  44.158  23.166  11.493
83668W        W56736  37.329  29.695   3.513
83669W        W56737  37.531  34.918   3.807
83670W        W56738  44.655  21.431  13.395
83671W        W56739  10.601  12.550   4.042
83672W        W56740  17.566  15.200   1.742
83673W        W56741  10.297  28.642   0.283
83674W        W56742  20.692  12.466   3.748
83675W        W56743  23.383   9.877  14.306
83676W        W56744  32.193  40.114   3.241
83677W        W56745  44.875  34.891  13.548
83678W        W56746  14.568  43.514   0.828
83679W        W56747   8.256  32.634  12.930
83680W        W56748  31.732  27.593  14.398
83681W        W56749  38.454  21.280  13.809
83682W        W56750  23.664   6.184  12.675
83683W        W56751  33.601  11.187  12.919
83684W        W56752  13.246  28.484   1.900
83685W        W56753  20.065  13.057  10.808
83686W        W56754   6.815   6.193   3.156
83687W        W56755  26.264  29.290   0.892
83688W        W56756  11.712   0.354   2.442
83689W        W56757  16.073  39.896  14.941
83690W        W56758  12.443  27.820  12.890
83691W        W56759   4.232  24.830   0.359
83692W        W56760  42.976  44.925  10.626
83693W        W56761  12.817  35.769  10.653
83694W        W56762  26.524  26.120  13.282
83695W        W56763  39.060   9.140  14.460
83696W        W56764  26.237  41.810   3.298
83697W        W56765  33.444  34.524   0.278
83698W        W56766  13.875  39.065  13.560
83699W        W56767  18.399   5.662  11.269
83700W        W56768  28.445  11.709  10.400
83701W        W56769  29.565  33.153   1.733
83702W        W56770  28.205  26.600  12.522
83703W        W56771  21.044  36.964  14.737
83704W        W56772   6.963   0.269   4.168
83705W        W56773  20.206  33.072  13.987
83706W        W56774  27.666  44.972  14.264
83707W        W56775   2.781  26.439   2.808
83708W        W56776  17.624   5.751   2.196
83709W        W56777  21.050  28.528   2.382
83710W        W56778  42.768  11.783   0.511
83711W        W56779  35.002  16.223  12.397
83712W        W56780  37.826  10.430  13.862
83713W        W56781  33.741   1.276  12.745
83714W        W56782  15.239  44.744  12.660
83715W        W56783  13.246  41.352  14.535
83716W        W56784  27.227   9.552   5.322
83717W        W56785  10.818   6.781  12.497
83718W        W56786  16.855  17.673  13.640
83719W        W56787  35.557  16.336   2.344
83720W        W56788   0.859   9.898   4.740
83721W        W56789  28.291  30.893   2.266
83722W        W56790  42.470  18.512  11.201
83723W        W56791   0.306  39.911   3.167
83724W        W56792  15.125  28.721  11.967
83725W        W56793  19.936  17.289   1.449
83726W        W56794  30.945  38.260  10.684
83727W        W56795  26.957  23.572  11.528
83728W        W56796  24.758   2.369  12.692
83729W        W56797  20.182  32.675  11.280
83730W        W56798  32.624  16.089  12.050
83731W        W56799  40.240  43.949   2.755
83732W        W56800  36.079  15.487  10.637
83733W        W56801   8.832  40.863   4.622
83734W        W56802  12.110  13.670   3.436
83735W        W56803   2.261  32.152  13.488
83736W        W56804  30.190  11.764   1.698
83737W        W56805  36.263  43.401   4.554
83738W        W56806  12.063  12.315  10.524
83739W        W56807  10.219  20.027   1.343
83740W        W56808  43.501  30.898  10.400
83741W        W56809   3.679  42.936   3.236
83742W        W56810  11.672  21.267   1.975
83743W        W56811  17.808  22.927  11.052
83744W        W56812   5.281  28.227  12.095
83745W        W56813  20.917  26.480   3.953
83746W        W56814  31.024  12.138  12.012
83747W        W56815  16.665  19.101   4.643
83748W        W56816  39.540  14.361   2.684
83749W        W56817  30.137   2.651  13.961
83750W        W56818   6.743   3.122   1.754
83751W        W56819  13.382  39.511   1.322
83752W        W56820  30.555  15.682   1.892
83753W        W56821  28.431  35.046  14.252
83754W        W56822  27.116  42.070  11.656
83755W        W56823  33.363  41.567   4.741
83756W        W56824  33.084  20.017   0.779
83757W        W56825  42.045  16.703  11.587
83758W        W56826  33.290  44.553   3.236
83759W        W56827  32.893  35.945   2.897
83760W        W56828  27.043  31.940   1.846
83761W        W56829  41.029  18.103   0.680
83762W        W56830  20.648  16.332   5.000
83763W        W56831  17.282   4.242   1.585
83764W        W56832  42.865   2.193   0.046
83765W        W56833  12.108  13.824  12.193
83766W        W56834  13.087   6.237  11.053
83767W        W56835   6.337  14.228   3.181
83768W        W56836  34.210  42.961   4.079
83769W        W56837   1.838  14.317   3.301
83770W        W56838   2.375  15.539   0.388
83771W        W56839  30.684  35.790  14.688
83772W        W56840   7.142  42.227   0.918
83773W        W56841  42.247   4.941  13.329
83774W        W56842  28.000   7.962   3.821
83775W        W56843  38.571  31.541   4.180
83776W        W56844  11.605  19.919   0.919
83777W        W56845   4.917  26.174   4.560
83778W        W56846  26.640  22.759   1.846
83779W        W56847  17.237   8.226  12.250
83780W        W56848   3.484  16.591   2.320
83781W        W56849  22.924  10.104   0.212
83782W        W56850  20.200   5.696   3.628
83783W        W56851   9.675  22.573  10.707
83784W        W56852  10.338  26.501   0.604
83785W        W56853   8.725  38.029  10.607
83786W        W56854  21.489  44.795   2.736
83787W        W56855   2.810  19.619   1.994
83788W        W56856  40.444  25.973   0.761
83789W        W56857  22.805   6.732   1.421
83790W        W56858  12.715   0.059  14.753
83791W        W56859  20.064  37.719   2.854
83792W        W56860  35.653   2.954  11.207
83793W        W56861  38.824   8.368  13.386
83794W        W56862   2.764   3.430   1.750
83795W        W56863   6.942  21.613   2.848
83796W        W56864   5.893  23.734  10.462
83797W        W56865  19.491   2.211   1.666
83798W        W56866  18.025  24.153  14.797
83799W        W56867  37.980  17.426  11.095
83800W        W56868   0.432  21.499   0.449
83801W        W56869  36.518  37.044  12.559
83802W        W56870  21.054   7.840  10.046
83803W        W56871  18.771  28.618  10.679
83804W        W56872  34.671  33.045  12.310
83805W        W56873   8.431  13.769  11.138
83806W        W56874  26.190   7.919  11.946
83807W        W56875   3.684  26.973  12.155
83808W        W56876  36.118  29.063   1.899
83809W        W56877  26.409  43.318   2.161
83810W        W56878  31.011  42.831  12.818
83811W        W56879  29.454  25.924  10.508
83812W        W56880  26.806   1.968   3.804
83813W        W56881  12.808   4.174   0.882
83814W        W56882   0.905   9.888  10.571
83815W        W56883   7.314   8.307  11.149
83816W        W56884  30.453   2.177  12.091
83817W        W56885  23.148  30.738  12.880
83818W        W56886  35.463   3.526  14.379
83819W        W56887  43.037   1.276  14.003
83820W        W56888   2.439   7.450  11.599
83821W        W56889  17.867  11.808   4.187
83822W        W56890  12.241   9.748   3.174
83823W        W56891   0.474  38.421  12.394
83824W        W56892  16.527  39.276  13.623
83825W        W56893  10.661   1.538   3.272
83826W        W56894   9.328  42.237  13.532
83827W        W56895  14.262  18.679   4.516
83828W        W56896  26.271  18.567   2.369
83829W        W56897  12.712  12.428   3.677
83830W        W56898  20.437  27.881   1.150
83831W        W56899  14.332  36.315   1.450
83832W        W56900  38.811  10.431  10.699
83833W        W56901  16.739   3.320   4.521
83834W        W56902  34.341  27.179  12.029
83835W        W56903   3.491   3.184   2.166
83836W        W56904  29.711  31.672   4.961
83837W        W56905  24.209  40.804   0.701
83838W        W56906  16.928  20.556  11.624
83839W        W56907  35.064  34.672   0.158
83840W        W56908   9.250   0.246  14.541
83841W        W56909  36.434  25.713  12.577
83842W        W56910  12.046  22.740  11.668
83843W        W56911  18.669   7.976   4.609
83844W        W56912  40.488  32.425  13.450
83845W        W56913  31.596   4.390   3.552
83846W        W56914  22.022  14.704  12.469
83847W        W56915  26.024  21.109  14.956
83848W        W56916  30.183  12.000   0.329
83849W        W56917  32.855  39.108   3.216
83850W        W56918  42.751   9.313  13.462
83851W        W56919  33.932   6.924  14.108
83852W        W56920   6.783  33.696  13.823
83853W        W56921  27.200   0.012  12.044
83854W        W56922   1.094  29.879   0.842
83855W        W56923   2.822   9.740   1.724
83856W        W56924  14.280  21.734  11.159
83857W        W56925  43.798  20.778   3.552
83858W        W56926  16.171  36.464   3.382
83859W        W56927  40.225  40.511  12.585
83860W        W56928   6.960  17.601   2.196
83861W        W56929  20.125  11.683   0.223
83862W        W56930  20.237  43.018   1.789
83863W        W56931  14.534  26.625   1.961
83864W        W56932  10.116  38.002  12.006
83865W        W56933  34.054  35.126  13.357
83866W        W56934  40.607  24.957  10.822
83867W        W56935   6.095  31.407  11.670
83868W        W56936  27.166  39.050  10.355
83869W        W56937  39.301   4.529   1.978
83870W        W56938   9.590  13.866   0.862
83871W        W56939  19.701  28.062  11.015
83872W        W56940   4.841  26.740   3.704
83873W        W56941  32.165  41.122  11.144
83874W        W56942  36.657  31.726  13.818
83875W        W56943  15.731  24.028  13.611
83876W        W56944  23.566   4.826   3.319
83877W        W56945  10.419  27.098  12.503
83878W        W56946  18.584  22.813  10.632
83879W        W56947   0.458  40.849  14.008
83880W        W56948  31.256  36.049  12.083
83881W        W56949  44.875  35.853   4.563
83882W        W56950  41.382   5.326   2.901
83883W        W56951  41.464  35.074   4.571
83884W        W56952   9.192  28.230   3.617
83885W        W56953   4.229  34.597  11.348
83886W        W56954  24.458  28.506   4.115
83887W        W56955  35.062  32.843  12.036
83888W        W56956  28.112   1.541   3.602
83889W        W56957  11.524   3.566   0.472
83890W        W56958   5.090  25.894  13.921
83891W        W56959   6.903  38.809   2.498
83892W        W56960  35.045  35.523   2.425
83893W        W56961  27.528  38.365  14.929
83894W        W56962  30.684  11.821  10.629
83895W        W56963  40.903  32.337   3.806
83896W        W56964   6.212  36.994  10.650
83897W        W56965  35.550  33.034  12.550
83898W        W56966  21.165   7.218  12.787
83899W        W56967  31.937  20.748  12.128
83900W        W56968  15.648   2.740   2.936
83901W        W56969  37.971  36.847   4.500
83902W        W56970   7.961  31.586  12.173
83903W        W56971   8.158  24.450   1.761
83904W        W56972   5.553  20.244   3.667
83905W        W56973  18.259  44.828  14.219
83906W        W56974  28.972  39.969   2.095
83907W        W56975   3.746   1.907  14.911
83908W        W56976  38.374  34.636   2.253
83909W        W56977   2.771  31.816  12.778
83910W        W56978  23.590  31.900   4.504
83911W        W56979  27.609  28.711   3.575
83912W        W56980  26.950   8.916   1.498
83913W        W56981  30.143  32.024   0.892
83914W        W56982  43.276  38.997  12.890
83915W        W56983  40.695  14.850   4.237
83916W        W56984  34.616  19.090   0.252
83917W        W56985   2.494  30.104   2.770
83918W        W56986  43.040  34.185  12.840
83919W        W56987  43.931  17.994  14.952
83920W        W56988   4.405  31.717  12.073
83921W        W56989  12.359  44.263  13.627
83922W        W56990  24.671  16.751   9.696
83923W        W56991   4.482  31.746  13.102
83924W        W56992  38.807  12.771   2.645
83925W        W56993  18.552   1.415  11.134
83926W        W56994  12.034  38.492  13.850
83927W        W56995   6.136   3.857  11.240
83928W        W56996  20.353  38.115  11.155
83929W        W56997  29.462  31.238  14.594
83930W        W56998  26.042  22.920  10.993
83931W        W56999  10.249  39.345  11.550
83932W        W57000  37.373  22.969   1.853
83933W        W57001  22.504  44.913  11.966
83934W        W57002  41.420   5.680   3.282
83935W        W57003  37.247  43.777   0.231
83936W        W57004  10.230  34.352  10.767
83937W        W57005  42.317   0.150  10.457
83938W        W57006  31.727   8.983  14.777
83939W        W57007  31.005  20.147   0.952
83940W        W57008  38.416   7.185   2.580
83941W        W57009  38.293  29.399  14.543
83942W        W57010   4.141   4.759  12.888
83943W        W57011  23.705  35.509   4.186
83944W        W57012   8.872  26.463   4.135
83945W        W57013   1.740   5.574  14.385
83946W        W57014  39.011  13.586   0.472
83947W        W57015  38.685  11.918  13.488
83948W        W57016   4.241  14.659  12.415
83949W        W57017  21.782  25.912   0.746
83950W        W57018  36.086  10.820  11.942
83951W        W57019  34.594   6.280  11.166
83952W        W57020   6.933  30.869  13.409
83953W        W57021  36.385   6.153  11.530
83954W        W57022  19.304  10.355  14.789
83955W        W57023   3.911  33.637  10.671
83956W        W57024  40.689   4.134  10.997
83957W        W57025  39.398  38.798  10.519
83958W        W57026  15.370   9.835  14.439
83959W        W57027  14.799  25.328   3.237
83960W        W57028   9.668  32.619   3.656
83961W        W57029  33.626  35.598   3.590
83962W        W57030  43.400  21.180   9.858
83963W        W57031  28.958   2.322   0.265
83964W        W57032  40.483  27.022   4.372
83965W        W57033  44.271   6.209  14.028
83966W        W57034  22.689   9.857  10.560
83967W        W57035   6.209  39.025  10.551
83968W        W57036  42.775  20.045   0.935
83969W        W57037  23.433  14.376   3.291
83970W        W57038  14.717  42.344  13.269
83971W        W57039  18.789  43.715   1.929
83972W        W57040  23.749  19.322  11.454
83973W        W57041  16.845  21.534   1.200
83974W        W57042  44.690   7.846   2.601
83975W        W57043  34.210  41.891  14.341
83976W        W57044  25.653   4.961   1.754
83977W        W57045  29.479  25.224   3.624
83978W        W57046  32.268  22.381  10.212
83979W        W57047  11.112  27.565  13.513
83980W        W57048  34.578  17.650  14.689
83981W        W57049  42.537  37.296   1.281
83982W        W57050   4.695   2.875  12.105
83983W        W57051  28.928  17.018   4.257
83984W        W57052  18.914   5.293  13.157
83985W        W57053   1.099  40.139   4.618
83986W        W57054  32.118  44.647  13.135
83987W        W57055  35.891  31.986  14.506
83988W        W57056  34.169  18.635  13.944
83989W        W57057  38.026  32.651   0.434
83990W        W57058  38.567  31.837  10.184
83991W        W57059  34.957  10.241  12.093
83992W        W57060  41.903  19.035   1.681
83993W        W57061  27.236   5.785  13.913
83994W        W57062  41.598  34.939   1.338
83995W        W57063  40.175  29.453   2.843
83996W        W57064  30.935  20.075   3.053
83997W        W57065   4.759  24.477   2.641
83998W        W57066   7.942   8.891  13.884
83999W        W57067   5.290   6.223   1.259
84000W        W57068  32.516  28.526   2.872
84001W        W57069   6.311   4.216   4.379
84002W        W57070  10.412  14.482  14.827
84003W        W57071   3.511  24.668  12.877
84004W        W57072  44.073  30.960  13.344
84005W        W57073  31.770  44.993  11.034
84006W        W57074  34.977  20.703  14.749
84007W        W57075  15.591  40.835   3.275
84008W        W57076   3.422  14.706   0.848
84009W        W57077  11.174  43.073   1.810
84010W        W57078   2.927  24.059   4.356
84011W        W57079   7.871  26.347   4.081
84012W        W57080   7.018   9.365  13.912
84013W        W57081  22.708  34.740  12.075
84014W        W57082   0.776  27.454   0.454
84015W        W57083  43.246   1.280   1.715
84016W        W57084  20.772  19.490   2.864
84017W        W57085   3.872  10.016  12.982
84018W        W57086  37.286  21.585  14.373
84019W        W57087  40.351  33.040   1.626
84020W        W57088  18.193  31.615   0.883
84021W        W57089   8.757   0.879   3.310
84022W        W57090   1.797  33.101  10.707
84023W        W57091  25.254  27.196   2.224
84024W        W57092   2.816   6.138   0.387
84025W        W57093  23.341  15.836   2.818
84026W        W57094  24.650  41.925   2.107
84027W        W57095   0.322  26.887  13.955
84028W        W57096  30.143  33.345  12.515
84029W        W57097   7.827  21.661  14.271
84030W        W57098  23.468  23.522   1.776
84031W        W57099   1.297  34.150   1.194
84032W        W57100  16.852  21.986  12.824
84033W        W57101  25.482  36.629  11.198
84034W        W57102  12.569  32.050  10.741
84035W        W57103  27.467  29.990  14.841
84036W        W57104  33.598  28.405   0.243
84037W        W57105  27.276  12.681  11.202
84038W        W57106  14.934  36.408   0.392
84039W        W57107   2.357  29.736  14.362
84040W        W57108  20.255  12.035   1.313
84041W        W57109  37.588  24.480  11.463
84042W        W57110  14.057  31.628   3.405
84043W        W57111  17.870   4.733  14.848
84044W        W57112  42.617  16.428   1.481
84045W        W57113   6.368  21.594  14.355
84046W        W57114  12.521  43.259   3.196
84047W        W57115  38.304   8.857   3.515
84048W        W57116  24.089  28.144   3.559
84049W        W57117  19.509  21.665  13.183
84050W        W57118  28.701  22.064   0.336
84051W        W57119  36.027  18.162   2.200
84052W        W57120   7.099  12.929   0.728
84053W        W57121  21.804  10.937  13.887
84054W        W57122  22.400  12.331   4.956
84055W        W57123  11.132   1.070   0.717
84056W        W57124  27.408  22.978   2.476
84057W        W57125  19.173   9.730  14.188
84058W        W57126  34.447  42.938  11.244
84059W        W57127  44.703  12.607  13.428
84060W        W57128  33.225  21.044  11.995
84061W        W57129  16.696   4.450   4.605
84062W        W57130  30.416   1.718  12.351
84063W        W57131  21.161   9.754  11.404
84064W        W57132  17.322   2.257  11.644
84065W        W57133  27.929  11.681  12.559
84066W        W57134   8.866  33.946   3.757
84067W        W57135  34.053  10.752   0.408
84068W        W57136  42.396   8.946  13.557
84069W        W57137  29.824  26.457  11.057
84070W        W57138  14.727  20.633  14.508
84071W        W57139  31.482  27.791  13.544
84072W        W57140  41.753  18.237   2.142
84073W        W57141  29.950  19.722   0.258
84074W        W57142  19.145  12.369  10.938
84075W        W57143  16.523  27.099  11.893
84076W        W57144  23.395   9.964   1.870
84077W        W57145   3.291   2.390   1.513
84078W        W57146  26.137  41.113   1.725
84079W        W57147  42.646   0.818   3.104
84080W        W57148  11.594  29.876  13.630
84081W        W57149   7.160  37.529   3.120
84082W        W57150  12.360  31.061   4.234
84083W        W57151  32.018  32.149  14.339
84084W        W57152  35.947  17.652   1.084
84085W        W57153  10.399  11.376   3.377
84086W        W57154  14.880  40.020   0.226
84087W        W57155  44.957  27.548   3.321
84088W        W57156   5.783  44.200  12.850
84089W        W57157  24.561  25.916   0.275
84090W        W57158   4.921  43.460  11.587
84091W        W57159  26.488  27.580  12.062
84092W        W57160  42.232   6.736   1.329
84093W        W57161  10.026  27.656   0.245
84094W        W57162   5.732  29.660  12.413
84095W        W57163  36.458  11.688  12.829
84096W        W57164   8.102  25.729  12.179
84097W        W57165  42.705  10.446  12.372
84098W        W57166  36.829   4.298   0.109
84099W        W57167  17.196  42.978   3.287
84100W        W57168  38.862  39.832  14.946
84101W        W57169   7.731  10.261  13.579
84102W        W57170  39.900  35.055   2.925
84103W        W57171  14.033  41.100   2.211
84104W        W57172  23.518  37.957  13.081
84105W        W57173  20.948   9.233   0.941
84106W        W57174   3.502   7.205   0.497
84107W        W57175  38.548   6.778  11.181
84108W        W57176   1.243  30.482   5.003
84109W        W57177  36.156   8.734   4.249
84110W        W57178  15.760   4.815  11.793
84111W        W57179  44.348  30.106  13.000
84112W        W57180   4.714  11.289   4.232
84113W        W57181  44.246   4.518   2.887
84114W        W57182  27.516   2.402  14.300
84115W        W57183  13.305  15.164   4.760
84116W        W57184  17.087   7.409  12.529
84117W        W57185  39.068   1.070  12.416
84118W        W57186   5.567  30.991   1.576
84119W        W57187  30.174  43.350  12.494
84120W        W57188  44.552  20.493   2.255
84121W        W57189  21.699  20.059   4.771
84122W        W57190  37.802  13.741  10.712
84123W        W57191  10.715  42.100  14.905
84124W        W57192  25.898  29.685   1.975
84125W        W57193  27.797   2.086  10.811
84126W        W57194  19.295  29.041   1.268
84127W        W57195   4.241  35.826  14.016
84128W        W57196  25.197  41.986  13.005
84129W        W57197  36.580   4.123  13.037
84130W        W57198   1.430  25.258   2.795
84131W        W57199  12.604  19.997   3.783
84132W        W57200  40.229  43.725   4.119
84133W        W57201  13.834  27.512  14.083
84134W        W57202  25.440  28.541   4.449
84135W        W57203   1.430  14.652  11.173
84136W        W57204  39.987  29.955  12.388
84137W        W57205   3.585   3.784   0.941
84138W        W57206   6.290  29.447  13.385
84139W        W57207  18.211   3.956   2.177
84140W        W57208  40.660   8.351   9.667
84141W        W57209  31.411  29.503  13.858
84142W        W57210  41.728  15.727   1.861
84143W        W57211  22.447  18.213  13.027
84144W        W57212   1.567  43.042  13.521
84145W        W57213  42.225  23.827   3.072
84146W        W57214  34.661  26.575  13.091
84147W        W57215  23.561  16.102   5.181
84148W        W57216  40.800  18.326   0.275
84149W        W57217  15.575  41.291   2.320
84150W        W57218   3.347  41.031  12.094
84151W        W57219  10.645   0.529  13.842
84152W        W57220  15.151  15.008  11.169
84153W        W57221  24.260   4.056  11.587
84154W        W57222  33.506  40.337   1.757
84155W        W57223  10.193  12.365   3.755
84156W        W57224  10.356  37.900  14.018
84157W        W57225  21.619  19.009   0.415
84158W        W57226  14.518  26.019  11.939
84159W        W57227   4.746  43.311  13.093
84160W        W57228  32.045  29.609   0.872
84161W        W57229  14.848  19.566  14.878
84162W        W57230   5.199  16.360  11.400
84163W        W57231  27.599  18.637  13.378
84164W        W57232  31.059  42.598   1.310
84165W        W57233  37.915  16.272  11.486
84166W        W57234  40.848  26.542   3.734
84167W        W57235  39.053  32.888   4.136
84168W        W57236  25.141  16.371  13.963
84169W        W57237  25.698   8.892  14.456
84170W        W57238  32.837  19.548  14.783
84171W        W57239  31.989  14.638  13.929
84172W        W57240   6.686   1.703   0.542
84173W        W57241  43.536  36.217   0.881
84174W        W57242  23.603   7.904   4.136
84175W        W57243  30.037  42.098  14.992
84176W        W57244  22.451  21.615   0.545
84177W        W57245  23.481  42.210   1.444
84178W        W57246  38.757  35.460   1.183
84179W        W57247  18.088  19.724  11.545
84180W        W57248   5.601   3.842  12.851
84181W        W57249  28.629  32.894  13.004
84182W        W57250  25.513  26.992  12.499
84183W        W57251  19.547  30.649   0.729
84184W        W57252   6.743  11.267   1.283
84185W        W57253  19.228  38.334   2.731
84186W        W57254  34.325   5.132  14.963
84187W        W57255  31.888  32.381  14.985
84188W        W57256  13.447  22.277  11.021
84189W        W57257  19.502  20.080  14.292
84190W        W57258  31.363  38.368  11.638
84191W        W57259  30.932  10.834  13.911
84192W        W57260  11.337  26.137   2.680
84193W        W57261  44.837  20.177  14.439
84194W        W57262  33.659  35.183   0.901
84195W        W57263  29.069  33.118  13.106
84196W        W57264  30.183   4.935   1.148
84197W        W57265   4.969  35.939   0.782
84198W        W57266  40.888   2.254   4.969
84199W        W57267  30.936   3.991   0.774
84200W        W57268  24.767  24.082  11.659
84201W        W57269  12.028  18.386   4.300
84202W        W57270   0.709   4.310  11.922
84203W        W57271  12.147  44.891  12.418
84204W        W57272   5.793  19.581   1.355
84205W        W57273   3.220   4.188  12.287
84206W        W57274  33.820  33.421   4.716
84207W        W57275  42.024  42.641   2.325
84208W        W57276  37.525  13.105  13.505
84209W        W57277  18.265  26.694  12.498
84210W        W57278  40.845  20.011   3.330
84211W        W57279   3.673   1.213  12.869
84212W        W57280  25.156   4.930   4.532
84213W        W57281  22.946  31.813   2.609
84214W        W57282  32.206  21.065   2.280
84215W        W57283   1.966  34.051  14.450
84216W        W57284  39.832  40.402   3.048
84217W        W57285  39.285   4.577  13.717
84218W        W57286  42.462  34.113  11.117
84219W        W57287  23.236  15.721  12.210
84220W        W57288  38.132  29.670  11.405
84221W        W57289  27.424  41.738   3.722
84222W        W57290  44.698  12.281  10.780
84223W        W57291   6.197   8.291   1.877
84224W        W57292   2.484  14.252   3.601
84225W        W57293  18.839   0.669  10.773
84226W        W57294   8.877  16.992   3.181
84227W        W57295  29.622  37.864  13.789
84228W        W57296  40.519  15.419   4.307
84229W        W57297   5.104  16.539   1.011
84230W        W57298   8.883  42.662  13.311
84231W        W57299  24.640   6.613   2.883
84232W        W57300  13.225  20.011   1.866
84233W        W57301  37.622  24.594  11.972
84234W        W57302  25.516  22.935  12.500
84235W        W57303  10.740   0.047  10.429
84236W        W57304  19.085  28.943  13.865
84237W        W57305   2.955  28.037   1.328
84238W        W57306  19.754   9.377   3.293
84239W        W57307   5.887  38.865   4.393
84240W        W57308  12.832   7.600  10.748
84241W        W57309  28.357  17.209  12.590
84242W        W57310   1.651  19.646   4.531
84243W        W57311  19.540  12.277   3.390
84244W        W57312  27.003  32.350  10.782
84245W        W57313  39.517  31.142   2.314
84246W        W57314  42.831  41.884  12.328
84247W        W57315  33.899  38.802   0.522
84248W        W57316  21.197  11.095  12.188
84249W        W57317  14.465  10.687  14.812
84250W        W57318   1.089  31.831  13.890
84251W        W57319  17.057  42.202  11.758
84252W        W57320  17.633  17.027  11.188
84253W        W57321   1.426  40.503  13.254
84254W        W57322  42.002  36.062  12.419
84255W        W57323  13.070  20.237  12.976
84256W        W57324  32.194  28.912   2.695
84257W        W57325  10.934   6.808  10.532
84258W        W57326  40.124  40.104   5.159
84259W        W57327  41.941  20.440  12.535
84260W        W57328  10.298  36.964  11.887
84261W        W57329  39.931  31.455   4.254
84262W        W57330  16.642  22.944  14.606
84263W        W57331  13.072  40.306  11.101
84264W        W57332  39.913  38.810  11.555
84265W        W57333   9.823   1.209  14.730
84266W        W57334  35.604  42.085  11.139
84267W        W57335  32.495  42.637   1.480
84268W        W57336   5.157   7.768   2.363
84269W        W57337  36.049  19.292   0.245
84270W        W57338  22.547   6.310   2.187
84271W        W57339  43.444   8.602   0.049
84272W        W57340  32.888  25.933   3.592
84273W        W57341  18.063  42.232   3.669
84274W        W57342  25.056  36.154   3.219
84275W        W57343  21.229  36.463   0.828
84276W        W57344  40.108  34.571  13.336
84277W        W57345  17.267  19.630  12.834
84278W        W57346  21.108  30.151   2.184
84279W        W57347   7.802   8.961   2.856
84280W        W57348  23.091  12.871  13.972
84281W        W57349  24.306  42.605  11.906
84282W        W57350  23.455  25.130   4.693
84283W        W57351  32.427  39.476  10.890
84284W        W57352  33.529  10.835  10.764
84285W        W57353  30.115  40.292  10.710
84286W        W57354  17.503  20.550  11.976
84287W        W57355  28.580  34.959  11.198
84288W        W57356   3.812  14.768   0.508
84289W        W57357  15.748  37.876   2.302
84290W        W57358  25.457  10.387   3.384
84291W        W57359  27.184  33.600   3.425
84292W        W57360  20.345   0.531   0.901
84293W        W57361  43.062  30.618  14.858
84294W        W57362  43.577  44.968  12.018
84295W        W57363  18.044  37.936  14.899
84296W        W57364  14.256  43.324   1.427
84297W        W57365  39.973  24.933  14.643
84298W        W57366  14.139   9.782   2.206
84299W        W57367   1.941  30.213   3.074
84300W        W57368  14.231  19.632   1.378
84301W        W57369  44.775   0.848  12.168
84302W        W57370  24.583  26.956   3.171
84303W        W57371  11.067   9.420  12.077
84304W        W57372  25.507  10.426  10.486
84305W        W57373  14.670  29.440   2.099
84306W        W57374  35.795   4.971  10.216
84307W        W57375  33.965  13.376  10.719
84308W        W57376  11.196  35.245   4.050
84309W        W57377  24.578  43.945   4.152
84310W        W57378  34.851   4.781   3.747
84311W        W57379  15.325  35.611  14.069
84312W        W57380  11.276  43.914  10.887
84313W        W57381   5.734  16.056   4.561
84314W        W57382  30.045  22.941   0.744
84315W        W57383  38.271  20.013   2.234
84316W        W57384  13.251  41.913   2.954
84317W        W57385  24.255  42.994  10.384
84318W        W57386  37.995  13.686   0.773
84319W        W57387  32.158  18.166  10.693
84320W        W57388  40.833  28.469   1.393
84321W        W57389  35.942  38.756  12.992
84322W        W57390  34.492  25.765  11.181
84323W        W57391  41.058  26.540  14.793
84324W        W57392   3.857  19.725  13.977
84325W        W57393  43.005  38.034  13.648
84326W        W57394   2.862  27.128  13.432
84327W        W57395   8.169  30.060  10.519
84328W        W57396   1.922  20.154  14.972
84329W        W57397  43.647  29.064   1.389
84330W        W57398  20.218  21.746   2.802
84331W        W57399  41.439  39.965  12.633
84332W        W57400  32.636  15.852  14.214
84333W        W57401  30.902  18.185   0.446
84334W        W57402  38.781  13.613  12.431
84335W        W57403  23.540  40.458  12.820
84336W        W57404  40.368   4.911  13.344
84337W        W57405  18.852  12.825   5.067
84338W        W57406  22.744  44.789  13.569
84339W        W57407   0.639   4.709  11.112
84340W        W57408   6.198  23.877   1.401
84341W        W57409  29.683   3.374   4.748
84342W        W57410  15.750  17.552  14.285
84343W        W57411  14.642  13.155   4.143
84344W        W57412  17.660   1.306   4.060
84345W        W57413  11.582   9.668   1.982
84346W        W57414  13.049   6.182  13.477
84347W        W57415   5.874  37.920  10.894
84348W        W57416   2.431   9.032  13.513
84349W        W57417  31.629  34.920   0.301
84350W        W57418  37.555  18.580   2.316
84351W        W57419  30.447   9.302   1.897
84352W        W57420  44.193   7.198   4.582
84353W        W57421  30.393  29.562  12.582
84354W        W57422  42.027  29.599  13.547
84355W        W57423  20.638  39.460   1.772
84356W        W57424  23.190  41.531   0.670
84357W        W57425  36.846   7.344   1.896
84358W        W57426   9.612  30.474  14.499
84359W        W57427  42.852  18.832   0.771
84360W        W57428   1.752  24.156  12.153
84361W        W57429  10.455  11.615   4.131
84362W        W57430  29.848  15.234  11.163
84363W        W57431  15.360  13.929   2.815
84364W        W57432  20.720  21.174  10.673
84365W        W57433   0.010  12.599  11.134
84366W        W57434  19.124  26.138   0.752
84367W        W57435  36.456  23.141   4.398
84368W        W57436  32.014   4.452  12.448
84369W        W57437  14.834  27.754   3.939
84370W        W57438  13.155  18.790  10.650
84371W        W57439  29.061  27.542  13.468
84372W        W57440  41.977  40.591  12.425
84373W        W57441  41.749  19.320  10.749
84374W        W57442   7.405  19.248  14.006
84375W        W57443  41.986   5.183  11.198
84376W        W57444  31.168  42.084   1.387
84377W        W57445  35.349  24.110  11.027
84378W        W57446  41.311  44.834  11.064
84379W        W57447   3.186  19.297  12.433
84380W        W57448  16.399  22.734   0.317
84381W        W57449  16.294  44.276  12.419
84382W        W57450   5.679  37.475   4.695
84383W        W57451   3.793  13.668   1.457
84384W        W57452  26.067   5.712   1.898
84385W        W57453  28.614  35.486   0.462
84386W        W57454  20.543  23.878   0.922
84387W        W57455   4.341  27.477  11.950
84388W        W57456   9.908  37.134   2.425
84389W        W57457  17.764  21.507   4.604
84390W        W57458   6.037  42.853   0.062
84391W        W57459  28.034  36.343   1.440
84392W        W57460  11.791  34.026  12.949
84393W        W57461  21.202  29.056  10.319
84394W        W57462  30.606  14.183  13.955
84395W        W57463  43.314  12.782   2.856
84396W        W57464  15.574  41.721  11.587
84397W        W57465  28.289  24.376   4.027
84398W        W57466  28.917   4.785   0.481
84399W        W57467  35.840  38.963  14.114
84400W        W57468  11.779  15.613   1.316
84401W        W57469  28.694   0.533   4.250
84402W        W57470  36.607  13.287   3.261
84403W        W57471   0.459   3.472   1.219
84404W        W57472  31.008  19.678   3.400
84405W        W57473  24.004   5.906   4.364
84406W        W57474  40.885   0.902   3.754
84407W        W57475  27.453   0.278   2.565
84408W        W57476  15.221  28.477   4.362
84409W        W57477  19.036  18.474   1.564
84410W        W57478  12.703   7.417   4.744
84411W        W57479  20.674  11.667   0.740
84412W        W57480  16.864  23.773   4.683
84413W        W57481   4.057  32.437   1.379
84414W        W57482  31.962  28.907   1.432
84415W        W57483  21.189  20.080  12.485
84416W        W57484  40.079  12.029  13.920
84417W        W57485  36.079   9.622  12.458
84418W        W57486  16.495   7.671   1.470
84419W        W57487  30.609  17.193  12.079
84420W        W57488  34.323  21.677   1.314
84421W        W57489  21.551  18.998   4.613
84422W        W57490  21.817  39.060  10.773
84423W        W57491   3.602  44.562   1.576
84424W        W57492  12.150   6.923  13.827
84425W        W57493  22.699  18.641  11.504
84426W        W57494  28.540  11.477  14.116
84427W        W57495   8.273  30.986   2.633
84428W        W57496   1.758   4.277  14.106
84429W        W57497  33.019  16.534  12.749
84430W        W57498  10.854  25.534   3.878
84431W        W57499  37.037  14.230  11.182
84432W        W57500   5.458   6.402  13.720
84433W        W57501   0.213  27.205  14.392
84434W        W57502  27.497  21.229  13.068
84435W        W57503  10.766  23.411  11.094
84436W        W57504  23.651  38.322   1.816
84437W        W57505   2.413  36.809  12.454
84438W        W57506   1.309  30.836  14.391
84439W        W57507  38.004   9.040   3.158
84440W        W57508   4.398  41.460  11.196
84441W        W57509  43.977  18.842   3.098
84442W        W57510  12.294  42.028  13.516
84443W        W57511  20.213   1.771   0.370
84444W        W57512  37.299   0.530   4.404
84445W        W57513  13.680   9.713   1.951
84446W        W57514  29.579  10.136   1.508
84447W        W57515  31.427  22.513  10.419
84448W        W57516   6.889  17.598   1.675
84449W        W57517   2.749  20.540  12.163
84450W        W57518  27.620  39.306  11.188
84451W        W57519  22.925  17.113  12.005
84452W        W57520  15.299  32.931  11.618
84453W        W57521  31.925  26.457   0.240
84454W        W57522  37.016  10.991   1.060
84455W        W57523  42.040  28.070   2.082
84456W        W57524  18.980  10.863   1.481
84457W        W57525   4.793  22.344   0.884
84458W        W57526  22.736  24.202   1.874
84459W        W57527   1.481  27.162  14.429
84460W        W57528  38.122  44.977   3.367
84461W        W57529  30.741   5.367  12.308
84462W        W57530  32.966  23.452   0.004
84463W        W57531  38.932  19.189   3.804
84464W        W57532  28.600   1.668   3.717
84465W        W57533  43.037   1.975  12.444
84466W        W57534  14.740  40.918  13.910
84467W        W57535  36.452  34.885  12.942
84468W        W57536   9.892  22.601  11.841
84469W        W57537  17.753   4.268   3.816
84470W        W57538  32.418  31.564   1.658
84471W        W57539   6.456  38.521  11.929
84472W        W57540  15.685  27.818   3.676
84473W        W57541   4.776  14.145  13.494
84474W        W57542  11.863  24.953   4.670
84475W        W57543  30.550  27.790   1.215
84476W        W57544  34.636  13.865  13.841
84477W        W57545  28.376   0.078  14.928
84478W        W57546  40.414  30.120   2.293
84479W        W57547  41.552  28.408   0.747
84480W        W57548  20.233   6.382  11.880
84481W        W57549   3.663  25.076  14.299
84482W        W57550  42.513  15.998   2.824
84483W        W57551  30.498  27.364   0.813
84484W        W57552  41.665   4.687   3.115
84485W        W57553   6.135   0.814  10.743
84486W        W57554  23.116   3.396   2.720
84487W        W57555  17.309  12.658   4.280
84488W        W57556  24.017  38.045  12.918
84489W        W57557   3.768  35.108  14.027
84490W        W57558  16.731  25.502   2.860
84491W        W57559   4.713  42.233  11.059
84492W        W57560   6.204  17.277  11.461
84493W        W57561   9.711  40.979   3.140
84494W        W57562  31.037  31.370  13.993
84495W        W57563  30.634  19.875  13.698
84496W        W57564   5.968  21.367  11.047
84497W        W57565   8.044   5.286  12.130
84498W        W57566  18.607  24.672  13.200
84499W        W57567   8.022  32.868   0.744
84500W        W57568  13.790  38.213   0.725
84501W        W57569  16.612  17.631  11.509
84502W        W57570  21.452  39.087   4.319
84503W        W57571  31.652   3.926  13.093
84504W        W57572  15.126  10.386   4.122
84505W        W57573   0.523  39.022  10.574
84506W        W57574  41.136  18.751   4.244
84507W        W57575  25.068  23.285  14.667
84508W        W57576  43.579  27.008   4.250
84509W        W57577  20.504  43.792   1.228
84510W        W57578   7.735  36.842   1.849
84511W        W57579  24.851  16.333   4.302
84512W        W57580  16.710  42.343   2.668
84513W        W57581  40.823   9.903  12.456
84514W        W57582  29.756  15.462   0.355
84515W        W57583   5.166   0.096  10.801
84516W        W57584  22.071  27.098   2.435
84517W        W57585   0.935   2.234   3.721
84518W        W57586   1.229   3.474  12.478
84519W        W57587  44.913  23.071   0.023
84520W        W57588  28.792   5.169  10.695
84521W        W57589  12.967  10.435   2.702
84522W        W57590  33.086   8.146  10.884
84523W        W57591   3.741  27.652   4.655
84524W        W57592  33.177  12.853  11.602
84525W        W57593  12.342  36.066  13.339
84526W        W57594  39.492  19.977   3.598
84527W        W57595   7.891  32.634  10.814
84528W        W57596  20.529  14.791  14.798
84529W        W57597  23.014   4.851  14.940
84530W        W57598  44.737  34.627   0.852
84531W        W57599  12.635  28.085   2.809
84532W        W57600   7.441   7.666   2.815
84533W        W57601   5.154  14.190   2.159
84534W        W57602  40.716  30.625   4.812
84535W        W57603  29.713  21.535  13.219
84536W        W57604  37.932  34.877   3.449
84537W        W57605  10.663   6.562   0.460
84538W        W57606  41.546  35.618  12.493
84539W        W57607   1.758  15.107  14.933
84540W        W57608  11.877  34.871   0.353
84541W        W57609  43.938  16.652  10.997
84542W        W57610   9.282  14.005  10.931
84543W        W57611   6.005  42.270   3.544
84544W        W57612  11.765  15.901  13.991
84545W        W57613  27.666   0.259  11.963
84546W        W57614  43.306   2.937   4.177
84547W        W57615   5.122  31.405   1.221
84548W        W57616  17.130  12.570  14.512
84549W        W57617   5.827   4.455   3.571
84550W        W57618  39.737  35.426   2.276
84551W        W57619  36.820  31.836  14.332
84552W        W57620  12.291   4.659  14.403
84553W        W57621   9.756  25.980   1.916
84554W        W57622  12.333  39.372  10.796
84555W        W57623   8.076  21.613   4.083
84556W        W57624  30.707  26.969   4.126
84557W        W57625   6.184  42.997   2.250
84558W        W57626  40.336  13.112  11.068
84559W        W57627  12.424  17.725   3.294
84560W        W57628  38.309  16.125   1.254
84561W        W57629  13.595   8.328   4.792
84562W        W57630  25.067   2.257   1.895
84563W        W57631  44.025  14.233   1.955
84564W        W57632  21.331  16.080  13.928
84565W        W57633   9.659  19.797   3.493
84566W        W57634  28.214  40.861  11.701
84567W        W57635  11.707  40.387   0.733
84568W        W57636  41.281  23.600   3.769
84569W        W57637  14.270  17.105  10.704
84570W        W57638   0.332  10.844   0.774
84571W        W57639  24.028  26.178  11.967
84572W        W57640  32.353   3.926   3.286
84573W        W57641   2.118  37.544   2.375
84574W        W57642   3.502  28.867   2.835
84575W        W57643  20.328  44.510  10.675
84576W        W57644  23.911   1.001   3.819
84577W        W57645  16.390  21.989   3.234
84578W        W57646  40.846  29.665  11.595
84579W        W57647   8.165  34.432   1.616
84580W        W57648  22.294  35.596  12.915
84581W        W57649   9.767  19.966   1.098
84582W        W57650  15.846   1.773   0.053
84583W        W57651   9.191   2.330   0.594
84584W        W57652  27.701  36.052   2.830
84585W        W57653  40.603   7.450  14.261
84586W        W57654   2.368  18.781  11.587
84587W        W57655  27.711   6.435  13.444
84588W        W57656  13.299  29.924  14.106
84589W        W57657  26.210  21.082   1.333
84590W        W57658  19.270  15.502   1.635
84591W        W57659  39.521   3.717  12.876
84592W        W57660   6.896   0.583   0.025
84593W        W57661   8.674  12.960  12.200
84594W        W57662  36.121   1.243  12.465
84595W        W57663  16.517   1.773  11.665
84596W        W57664  37.308  40.012   0.874
84597W        W57665  10.944  31.592   2.755
84598W        W57666  34.424   2.722   4.179
84599W        W57667   4.552  39.938  10.358
84600W        W57668  41.263  14.595   3.571
84601W        W57669  23.505  29.494  12.003
84602W        W57670  43.272  25.949   1.345
84603W        W57671  20.785  18.577   4.931
84604W        W57672   5.566  41.509  10.641
84605W        W57673   0.864  27.526  13.373
84606W        W57674  21.248  37.894  14.672
84607W        W57675  30.485  12.747   4.610
84608W        W57676  22.977  23.050   1.037
84609W        W57677  19.037  35.463   4.670
84610W        W57678  16.694  10.529  13.458
84611W        W57679  28.937  38.874  11.565
84612W        W57680   9.682  14.252   0.476
84613W        W57681  37.245   8.185   2.741
84614W        W57682  42.239  32.774  13.028
84615W        W57683  42.512  34.238   1.449
84616W        W57684  35.732  20.329   2.210
84617W        W57685  18.018   2.753   2.865
84618W        W57686  12.124  30.631   0.973
84619W        W57687  28.668  26.637   2.812
84620W        W57688   5.734  24.381  13.999
84621W        W57689  29.508  22.037  13.300
84622W        W57690   2.295  37.454  12.663
84623W        W57691  36.200  43.982  11.104
84624W        W57692  13.445   9.215  13.326
84625W        W57693  14.253  24.157   2.798
84626W        W57694   2.750  22.380  11.938
84627W        W57695  23.239  15.072   0.797
84628W        W57696  19.011   6.141   0.276
84629W        W57697  38.020  18.515   2.533
84630W        W57698  37.134   6.461   2.147
84631W        W57699  15.224  21.545  13.482
84632W        W57700  19.618   8.327   0.463
84633W        W57701  40.875  13.932  12.099
84634W        W57702   4.027   8.760  12.049
84635W        W57703  29.741  32.940  14.540
84636W        W57704   6.747   3.851   0.607
84637W        W57705  13.730   3.014  11.945
84638W        W57706  29.651   3.187  11.214
84639W        W57707  17.247  34.488  11.234
84640W        W57708  21.480  22.978   2.361
84641W        W57709  15.195  42.220   2.447
84642W        W57710  24.641  11.324  10.607
84643W        W57711  44.064  32.844  12.493
84644W        W57712  36.818  42.237  11.654
84645W        W57713  34.569  25.058  14.550
84646W        W57714  29.015  39.829   0.214
84647W        W57715   9.852  39.808  13.744
84648W        W57716  23.020   4.416   0.869
84649W        W57717  43.775  12.984   0.438
84650W        W57718  19.537  13.562   3.159
84651W        W57719  25.982  30.139   1.274
84652W        W57720  21.222  29.477  11.221
84653W        W57721  13.113  21.719   2.757
84654W        W57722  31.401  25.547  10.693
84655W        W57723   0.575  25.775  12.405
84656W        W57724  20.698  12.316   1.394
84657W        W57725  44.313   1.399   9.646
84658W        W57726  40.663  12.911   1.970
84659W        W57727  25.723  36.472   2.686
84660W        W57728  22.184  38.166  12.596
84661W        W57729  20.728  37.567  10.608
84662W        W57730  22.156  40.817  12.014
84663W        W57731  34.240  23.624   0.243
84664W        W57732  41.056  28.282  14.266
84665W        W57733   8.772   8.038   3.284
84666W        W57734  27.174   4.017   2.395
84667W        W57735  24.400  34.495  13.338
84668W        W57736  17.580   0.978   4.453
84669W        W57737  39.932   7.979  10.203
84670W        W57738  29.616   9.754  13.613
84671W        W57739  40.856  21.832   1.218
84672W        W57740  44.805  41.002   1.359
84673W        W57741   1.363  34.539  14.352
84674W        W57742  20.814  35.448   1.340
84675W        W57743  24.638  35.526   1.391
84676W        W57744  27.491  39.812   1.769
84677W        W57745  29.114   7.873   1.702
84678W        W57746  43.581  15.971  10.788
84679W        W57747  12.897  30.921   1.503
84680W        W57748  31.706  35.004   4.095
84681W        W57749  38.921  39.403  14.121
84682W        W57750   1.441  44.001  12.282
84683W        W57751  37.755  40.850  10.613
84684W        W57752  31.173   8.220   2.013
84685W        W57753   8.825  13.249   3.885
84686W        W57754  11.310   7.862   0.039
84687W        W57755  41.264  19.015  11.418
84688W        W57756   4.403  27.549  11.417
84689W        W57757  32.624  20.507  12.413
84690W        W57758  27.076   2.840  10.967
84691W        W57759  12.781  12.764   4.293
84692W        W57760  12.962  27.920   9.693
84693W        W57761   4.960   1.221   4.985
84694W        W57762  33.923  30.099  11.176
84695W        W57763  15.986   4.399   3.410
84696W        W57764   6.316  38.868   3.561
84697W        W57765   1.017  13.951   4.190
84698W        W57766   0.355  23.664   4.474
84699W        W57767  16.038  39.421  14.748
84700W        W57768   7.371   4.841  14.079
84701W        W57769  25.639   2.742  13.518
84702W        W57770  13.823   0.412   0.396
84703W        W57771  41.428  39.971  11.640
84704W        W57772   0.857  10.061  13.109
84705W        W57773  13.226   9.232   0.077
84706W        W57774  21.711  42.021   0.007
84707W        W57775  29.572  11.160   4.184
84708W        W57776  17.303  36.805  13.924
84709W        W57777  31.254  28.571  11.163
84710W        W57778  20.573  37.312   1.570
84711W        W57779  14.383  30.447   3.273
84712W        W57780  16.807  42.500  11.435
84713W        W57781  21.595  33.092  14.983
84714W        W57782  21.615  13.865   3.723
84715W        W57783   4.368  14.066  14.816
84716W        W57784  15.290  37.332  11.030
84717W        W57785   8.307  31.760  11.203
84718W        W57786  31.820  25.069  12.606
84719W        W57787  37.345   5.665  12.669
84720W        W57788  31.533   6.945   2.368
84721W        W57789  17.171   3.225  10.576
84722W        W57790   8.209  13.561  14.426
84723W        W57791   2.423  33.268   3.263
84724W        W57792   7.894  20.868  13.146
84725W        W57793  12.544  39.097  11.193
84726W        W57794  36.753  29.794   3.521
84727W        W57795  35.986  33.534   2.479
84728W        W57796  33.904  33.294  14.835
84729W        W57797   0.434  38.779  11.011
84730W        W57798  19.597  29.628   3.550
84731W        W57799   8.614  10.297   4.528
84732W        W57800  18.082  27.480   0.801
84733W        W57801  18.677   0.928  13.848
84734W        W57802   4.554  40.584   4.488
84735W        W57803  31.821   7.817   1.834
84736W        W57804  40.573  36.538   2.813
84737W        W57805   0.800   9.832  10.058
84738W        W57806  35.690  12.174  11.535
84739W        W57807  14.406   5.331   0.130
84740W        W57808  28.589  32.053  13.857
84741W        W57809  16.801   5.777   0.698
84742W        W57810  25.151  24.072   0.760
84743W        W57811   5.386   5.478  13.987
84744W        W57812  13.067  11.926   3.227
84745W        W57813   2.704  43.287  11.657
84746W        W57814  15.364   0.545   4.266
84747W        W57815  21.735   1.969   0.760
84748W        W57816  38.778  43.336   3.696
84749W        W57817  44.551  18.644   0.242
84750W        W57818  34.643   7.263  13.560
84751W        W57819   7.163  18.076   4.628
84752W        W57820  12.661  36.350  14.328
84753W        W57821  35.396  21.247  13.569
84754W        W57822   9.663  15.614   1.729
84755W        W57823  31.033  37.444  11.273
84756W        W57824  35.814  18.699  12.752
84757W        W57825  27.956  11.595   0.001
84758W        W57826  13.320  25.148  12.099
84759W        W57827  10.856  23.417  11.891
84760W        W57828  20.271  27.976  12.270
84761W        W57829  25.061   1.553   0.433
84762W        W57830  39.924   9.799   0.780
84763W        W57831  28.124  10.414  10.847
84764W        W57832  39.877   5.205   1.201
84765W        W57833  35.395   6.888   0.986
84766W        W57834  18.302   2.335   3.135
84767W        W57835   1.541  13.739  12.390
84768W        W57836  44.924  18.776  13.338
84769W        W57837   2.006  17.215  14.453
84770W        W57838   7.652  22.597   1.404
84771W        W57839  14.346  26.115   1.825
84772W        W57840  19.017  19.769   2.907
84773W        W57841  24.482  30.700   3.282
84774W        W57842  10.685  10.863  12.025
84775W        W57843   4.957  12.396   2.788
84776W        W57844  27.963   5.838   0.043
84777W        W57845   0.819  26.705  12.398
84778W        W57846   8.764   3.267  13.012
84779W        W57847  29.639  30.221  11.105
84780W        W57848  28.627  32.512  14.634
84781W        W57849  11.396  31.002  10.714
84782W        W57850  40.342   6.260   4.763
84783W        W57851   5.276  18.684  11.896
84784W        W57852  11.697   5.707  13.325
84785W        W57853  27.965  32.091  10.693
84786W        W57854  38.841  38.345   3.789
84787W        W57855   4.992   2.882  10.832
84788W        W57856  20.212  36.301   3.218
84789W        W57857  26.018  12.257  12.982
84790W        W57858  32.363  30.138  12.262
84791W        W57859  39.736  16.212  14.027
84792W        W57860  17.028  38.370  10.438
84793W        W57861  31.504  18.736  13.361
84794W        W57862   3.897  20.739   4.127
84795W        W57863  38.737   4.536   1.288
84796W        W57864  29.062  21.456   3.140
84797W        W57865  37.515  24.192  13.688
84798W        W57866   0.454   4.234   3.464
84799W        W57867  41.993  33.043   2.617
84800W        W57868  35.009  28.489  12.043
84801W        W57869  37.413  26.954   2.334
84802W        W57870  41.224  28.641   2.637
84803W        W57871   4.781  19.360  12.911
84804W        W57872  33.079  18.012  13.034
84805W        W57873  32.150   4.929   2.352
84806W        W57874  25.163  36.116  12.437
84807W        W57875  13.099  25.531   3.013
84808W        W57876  12.900  28.512  10.701
84809W        W57877  40.688  26.804   1.762
84810W        W57878  13.572  44.269   4.537
84811W        W57879  34.822   5.458   1.797
84812W        W57880   5.965   9.885  10.689
84813W        W57881   1.414  25.718   0.354
84814W        W57882  30.634  21.228   0.507
84815W        W57883  12.626  22.772   0.919
84816W        W57884  16.790   1.012   2.242
84817W        W57885  39.777  30.553   1.710
84818W        W57886  20.388  43.879   0.325
84819W        W57887  10.894  44.291   1.404
84820W        W57888   4.472  12.404  11.657
84821W        W57889   4.239  40.333  13.834
84822W        W57890  17.174  10.474  13.235
84823W        W57891  38.428  11.135   3.848
84824W        W57892  19.974  30.656  11.017
84825W        W57893   3.300  32.582  13.844
84826W        W57894  29.793  27.020   2.152
84827W        W57895  23.102   4.822   4.723
84828W        W57896   9.646  39.819  13.265
84829W        W57897  18.298  21.134  12.865
84830W        W57898  11.854   1.204   1.304
84831W        W57899   0.259   4.760   3.594
84832W        W57900  22.654   1.083   2.634
84833W        W57901   9.497  37.787  11.515
84834W        W57902  17.909  37.324   1.246
84835W        W57903  31.699   1.402  14.484
84836W        W57904  20.509  30.062  12.451
84837W        W57905  21.947  10.675  13.455
84838W        W57906  24.944  21.738  10.755
84839W        W57907   7.778   1.671  10.246
84840W        W57908   5.306  17.229  10.399
84841W        W57909   3.207  28.938  14.854
84842W        W57910  41.936  20.321   0.254
84843W        W57911   1.424  10.769  11.178
84844W        W57912  35.375  27.101  13.052
84845W        W57913  11.895  26.200  13.923
84846W        W57914  38.484  42.034  12.889
84847W        W57915  22.493   3.770   1.358
84848W        W57916  19.068  10.896  12.326
84849W        W57917   3.997  26.711   4.880
84850W        W57918  11.682  11.316   3.691
84851W        W57919  25.174   2.977  12.393
84852W        W57920  22.741  17.704  13.840
84853W        W57921   6.740  41.451  13.742
84854W        W57922  13.347  19.324   3.814
84855W        W57923  18.618  30.029   4.761
84856W        W57924  12.869   3.921   0.414
84857W        W57925  39.854   4.035   4.898
84858W        W57926   8.325   0.505   1.781
84859W        W57927  16.270   7.963  11.602
84860W        W57928  22.910  20.115  14.760
84861W        W57929  10.464  13.825   4.632
84862W        W57930  41.032  10.685  11.530
84863W        W57931  41.083   8.219   3.177
84864W        W57932  37.948   2.675  14.677
84865W        W57933  36.887  19.842  10.789
84866W        W57934  38.854  10.051   4.983
84867W        W57935  12.121  37.282   0.792
84868W        W57936  41.059  21.736   1.676
84869W        W57937   6.240   0.531  13.958
84870W        W57938  18.379  18.959  11.110
84871W        W57939  31.377  13.683   3.243
84872W        W57940  14.823  33.573  13.475
84873W        W57941  31.927  17.140  10.666
84874W        W57942   2.871  37.867  11.592
84875W        W57943   1.613  32.595   4.101
84876W        W57944   7.168  29.623  13.967
84877W        W57945  16.298  32.166   3.568
84878W        W57946  16.827  21.072  11.511
84879W        W57947  13.626  35.010   4.206
84880W        W57948   8.864  43.887  13.943
84881W        W57949  11.126  10.293  10.571
84882W        W57950  17.066  10.740  11.507
84883W        W57951   5.332  40.014  14.762
84884W        W57952  43.795  36.871  14.114
84885W        W57953  24.604   8.894   2.173
84886W        W57954   3.402  41.498  10.621
84887W        W57955  20.935   7.456   3.990
84888W        W57956  33.408  31.421   0.297
84889W        W57957  30.270  32.933   2.734
84890W        W57958  19.647  33.905  14.754
84891W        W57959  23.004  20.564   1.938
84892W        W57960  32.545   7.103  12.904
84893W        W57961  22.040  21.435  14.733
84894W        W57962   9.445  39.293  14.597
84895W        W57963  32.757  44.181  10.946
84896W        W57964  11.679  37.272   2.799
84897W        W57965  22.129  31.021   0.783
84898W        W57966  21.759   5.795   3.705
84899W        W57967  13.858   6.234   0.229
84900W        W57968  12.245  26.523   3.214
84901W        W57969  41.919  35.755   2.715
84902W        W57970  13.342  34.583  13.625
84903W        W57971  17.188  35.753   1.861
84904W        W57972   0.333  19.955   0.928
84905W        W57973  27.090  27.654  10.696
84906W        W57974  31.593  35.542  10.289
84907W        W57975  39.572  16.509  14.440
84908W        W57976  40.007  21.556   3.121
84909W        W57977   3.396   9.422  11.565
84910W        W57978  24.852  30.103  12.025
84911W        W57979  28.198  14.652   0.442
84912W        W57980  38.791   6.847   1.386
84913W        W57981  36.053   1.045   3.163
84914W        W57982  15.953   3.933   3.649
84915W        W57983   8.566  44.600  14.900
84916W        W57984  26.051  39.395   2.662
84917W        W57985  16.001  42.043  11.545
84918W        W57986   7.757  13.646   1.696
84919W        W57987   4.789  34.759   4.172
84920W        W57988  20.191   9.260   4.523
84921W        W57989  11.756  25.720   4.254
84922W        W57990  19.096  32.019   1.724
84923W        W57991   8.136  21.514  12.382
84924W        W57992  32.601   2.474   4.160
84925W        W57993  33.966   3.711   1.822
84926W        W57994  39.810  20.990  11.641
84927W        W57995  24.057  39.555   2.724
84928W        W57996  20.036   1.045  12.559
84929W        W57997  38.245   3.664   2.278
84930W        W57998  37.412   8.279   1.054
84931W        W57999  22.089  14.367   4.073
84932W        W58000  38.814   5.895  13.554
84933W        W58001  12.306  39.854   3.665
84934W        W58002  31.062  44.694  13.875
84935W        W58003  43.955   9.826   0.243
84936W        W58004  32.861  22.944  14.935
84937W        W58005   6.395  23.522   2.001
84938W        W58006  44.966  15.260   4.412
84939W        W58007  28.923  31.478  12.160
84940W        W58008  37.100   0.665   0.483
84941W        W58009  32.935  20.701   2.801
84942W        W58010  41.521  27.480  13.561
84943W        W58011  19.115  34.769  11.000
84944W        W58012  20.502  43.940   2.553
84945W        W58013  24.203   3.501   3.392
84946W        W58014  27.705  26.456   1.877
84947W        W58015  25.916  31.528   0.962
84948W        W58016  39.819  15.831   4.483
84949W        W58017  27.143  23.293  14.287
84950W        W58018  21.629  27.623   3.348
84951W        W58019  12.124  32.351   4.512
84952W        W58020  14.096  11.669  13.566
84953W        W58021  21.434  31.831   3.665
84954W        W58022  44.944  25.600  14.710
84955W        W58023  26.614  30.352   3.774
84956W        W58024  44.908  26.018   3.145
84957W        W58025   5.292   0.699   4.156
84958W        W58026  38.105  12.291   2.758
84959W        W58027  23.274   7.364   0.889
84960W        W58028  23.634  41.447  12.855
84961W        W58029  31.821   7.916  12.663
84962W        W58030  41.030   1.805   2.403
84963W        W58031  23.103   1.266   2.832
84964W        W58032   0.791  22.839   2.328
84965W        W58033  37.892  21.765   4.640
84966W        W58034  29.398  13.691  10.681
84967W        W58035   1.508  38.765   3.324
84968W        W58036  12.003  30.722  11.285
84969W        W58037  34.094  41.983   0.718
84970W        W58038  34.426  18.578  11.486
84971W        W58039  34.537  19.084  12.495
84972W        W58040   4.752  12.568  10.747
84973W        W58041  38.000  26.672   2.370
84974W        W58042  31.193  18.311  13.309
84975W        W58043  33.475  41.335   4.257
84976W        W58044  37.098  37.776  13.580
84977W        W58045  19.681  16.012  10.766
84978W        W58046  44.323  34.747  14.249
84979W        W58047  27.598  31.925   5.017
84980W        W58048  35.516  42.718   1.771
84981W        W58049  34.055   6.999  14.612
84982W        W58050  29.905  30.980  13.386
84983W        W58051  18.219  34.654  13.453
84984W        W58052  39.662   1.008  14.362
84985W        W58053  22.724   9.324   3.391
84986W        W58054  18.275  40.403  12.132
84987W        W58055  21.271  18.815  14.100
84988W        W58056   6.753  32.687  12.044
84989W        W58057  38.514   2.372  11.467
84990W        W58058  15.319  34.509  13.427
84991W        W58059  20.796  23.776  11.054
84992W        W58060  23.078  39.396  13.408
84993W        W58061   0.464   1.861  13.075
84994W        W58062   8.315  32.670  14.428
84995W        W58063  39.781  33.654  14.934
84996W        W58064   8.127  33.159   0.287
84997W        W58065  14.117   6.361   3.754
84998W        W58066  12.386   4.357  13.354
84999W        W58067  16.933  44.435  10.836
85000W        W58068  35.844  30.111   0.785
85001W        W58069  32.584  11.134  10.159
85002W        W58070  43.862  17.766  12.505
85003W        W58071  21.413   8.725   4.321
85004W        W58072   8.228  42.369   0.467
85005W        W58073  23.121  34.884  10.500
85006W        W58074  29.513  32.466   2.577
85007W        W58075   9.395  16.096  14.301
85008W        W58076  31.761  32.912   0.454
85009W        W58077   9.796  13.846   1.720
85010W        W58078  17.038   3.198   2.300
85011W        W58079  21.465  38.838   1.937
85012W        W58080  24.584  44.840  10.387
85013W        W58081  26.971  24.578   0.901
85014W        W58082  13.387   3.138  13.849
85015W        W58083   9.224  42.992   0.710
85016W        W58084  11.844   8.617   0.236
85017W        W58085  26.960  37.056  11.192
85018W        W58086  31.901   7.073   0.761
85019W        W58087   7.654  35.039  11.673
85020W        W58088  32.000   7.103   2.236
85021W        W58089  22.188  19.153  14.399
85022W        W58090   3.687   3.862  11.135
85023W        W58091  16.383  35.037   4.173
85024W        W58092  34.351  35.819  10.781
85025W        W58093  24.192  13.137  13.436
85026W        W58094  40.927  14.192  10.421
85027W        W58095   8.267  29.624  14.316
85028W        W58096   7.854  34.148   3.820
85029W        W58097  36.981  40.445   1.958
85030W        W58098  13.371  35.054  10.927
85031W        W58099   9.932  20.385  14.290
85032W        W58100  21.111  16.535  11.789
85033W        W58101   1.213  38.395   3.552
85034W        W58102  34.932  17.333   1.314
85035W        W58103  44.538  42.766   2.472
85036W        W58104   2.006  42.644   2.729
85037W        W58105   0.810  26.658  13.968
85038W        W58106  44.445  22.471   0.767
85039W        W58107  18.797  29.048   1.283
85040W        W58108  20.207  41.489  14.476
85041W        W58109  19.444  27.168  14.486
85042W        W58110   0.992  17.786  14.303
85043W        W58111  10.187  16.075  12.601
85044W        W58112   3.339  33.703   4.726
85045W        W58113  41.071  31.439  12.023
85046W        W58114   1.745  18.168  11.556
85047W        W58115   7.265  18.773  12.097
85048W        W58116  42.627   5.181   4.140
85049W        W58117  11.196   1.470   3.214
85050W        W58118  25.527  21.530   3.554
85051W        W58119  16.805   5.509   4.703
85052W        W58120  42.002  36.256   2.676
85053W        W58121  15.689   9.649  12.462
85054W        W58122  36.680  22.493  14.916
85055W        W58123   9.667  22.492  12.284
85056W        W58124  34.000   7.771  13.826
85057W        W58125  14.317  36.865   4.260
85058W        W58126   2.996  33.105  11.609
85059W        W58127  34.485  15.549   3.854
85060W        W58128  25.519  44.796   1.222
85061W        W58129  16.526  26.970  14.376
85062W        W58130  42.266  21.369   1.135
85063W        W58131   0.901  18.592  12.052
85064W        W58132  28.921   5.861   4.119
85065W        W58133  27.068   9.835   4.522
85066W        W58134  21.703  21.792   4.244
85067W        W58135  19.618  37.991   2.783
85068W        W58136  14.890   3.655  11.511
85069W        W58137  11.482   4.925  12.572
85070W        W58138  10.270  15.768   4.646
85071W        W58139   4.708  11.729  12.557
85072W        W58140   2.350   8.283   0.388
85073W        W58141  29.376  21.216   0.277
85074W        W58142  17.068  23.212  12.104
85075W        W58143  27.109  34.271  11.090
85076W        W58144   9.468   7.343  14.441
85077W        W58145  27.070  37.004   4.038
85078W        W58146   7.024   3.724  10.985
85079W        W58147  12.814  20.009   4.245
85080W        W58148  33.385   8.227  11.884
85081W        W58149  41.760   5.770  14.663
85082W        W58150  10.197  33.882  13.913
85083W        W58151   3.265   2.251  13.991
85084W        W58152  33.602  20.643   3.968
85085W        W58153  10.599   5.942   2.236
85086W        W58154  32.100  11.130   3.536
85087W        W58155  18.574  10.324   9.923
85088W        W58156   8.736  31.559   3.118
85089W        W58157   5.291  44.110  10.633
85090W        W58158   3.952  12.412  13.486
85091W        W58159  22.423  30.460   2.300
85092W        W58160  11.095   8.662   4.118
85093W        W58161  39.006   8.559  12.497
85094W        W58162  21.034  29.008  14.083
85095W        W58163  40.853   7.383   5.225
85096W        W58164  40.596  39.752  14.437
85097W        W58165  11.380  35.030  13.520
85098W        W58166  16.265  25.146  14.898
85099W        W58167  11.216  21.160   2.181
85100W        W58168  17.814  15.876  14.306
85101W        W58169  30.503  37.787   4.510
85102W        W58170  14.849  26.335   1.182
85103W        W58171   3.027  25.758   1.601
85104W        W58172  20.628  27.098   4.706
85105W        W58173   1.046  17.965   0.800
85106W        W58174  26.403  29.684   1.854
85107W        W58175  14.321  13.099   3.223
85108W        W58176  42.529  18.530  13.390
85109W        W58177  22.069   5.253  14.271
85110W        W58178   0.646  36.853  11.547
85111W        W58179  41.543  26.258  13.572
85112W        W58180   2.764   8.348   4.243
85113W        W58181  41.487  42.324  13.040
85114W        W58182  13.374  29.203   3.755
85115W        W58183   7.688   0.014   0.273
85116W        W58184  22.768  27.266   0.029
85117W        W58185  44.275  41.346   2.909
85118W        W58186  41.059  20.318  13.254
85119W        W58187  33.165  11.389   2.234
85120W        W58188  24.666  36.419  10.807
85121W        W58189   2.239   7.826  13.985
85122W        W58190   3.206  36.568   0.183
85123W        W58191  18.182  42.351  14.550
85124W        W58192   9.909  26.279  10.343
85125W        W58193  20.282  23.749   3.778
85126W        W58194  22.065  20.653   1.942
85127W        W58195  27.108  22.022   4.656
85128W        W58196  41.943  14.795  14.986
85129W        W58197  40.360  35.174   2.703
85130W        W58198  35.136  32.506  13.539
85131W        W58199  11.347  26.212  13.935
85132W        W58200  24.039  33.082  13.021
85133W        W58201  24.178  11.009   4.552
85134W        W58202  35.650  29.520  10.935
85135W        W58203   8.920  41.083   4.163
85136W        W58204   2.372  19.046   0.312
85137W        W58205   5.066  40.248  11.134
85138W        W58206  23.439  39.463  10.612
85139W        W58207  31.720  34.169  12.909
85140W        W58208  28.645   4.506  11.253
85141W        W58209  25.317  39.223   1.113
85142W        W58210  18.623  41.235   5.037
85143W        W58211  18.502  37.586   2.213
85144W        W58212  19.899   6.497   1.694
85145W        W58213   0.250   1.959  14.088
85146W        W58214   5.447  10.863  13.412
85147W        W58215  30.051  41.309  14.601
85148W        W58216   6.933  19.991   1.270
85149W        W58217  15.979   2.056  13.347
85150W        W58218  14.037   8.603  10.133
85151W        W58219  28.532  23.364  10.634
85152W        W58220  20.726  16.850  14.324
85153W        W58221  37.610  34.842   0.742
85154W        W58222  11.541  42.920  11.155
85155W        W58223   3.619  16.140   1.431
85156W        W58224  17.080  29.407   3.711
85157W        W58225  13.425   1.258  12.045
85158W        W58226  12.445  29.208   2.380
85159W        W58227  35.759  38.341  14.814
85160W        W58228  12.913  27.473  13.936
85161W        W58229  23.064  35.149  14.564
85162W        W58230  27.696   8.688   4.367
85163W        W58231   4.010   6.083   0.415
85164W        W58232  30.457  26.518   4.147
85165W        W58233  29.010  35.974   0.549
85166W        W58234  20.972  35.923  14.053
85167W        W58235  33.535  23.084  11.143
85168W        W58236  15.498  24.452  13.846
85169W        W58237   2.767   8.792  11.418
85170W        W58238  38.906  27.579  11.657
85171W        W58239  13.998  10.728  12.531
85172W        W58240  32.909  22.734  12.609
85173W        W58241  17.420   0.445   1.247
85174W        W58242   0.300  40.596  12.564
85175W        W58243  36.401  30.181   3.627
85176W        W58244  22.652  14.833  11.570
85177W        W58245  22.874  37.469  12.340
85178W        W58246  39.336   8.103   0.340
85179W        W58247  11.869   1.776   4.542
85180W        W58248   8.879  19.675  13.565
85181W        W58249  33.500  27.225   1.502
85182W        W58250  25.000  39.895   4.087
85183W        W58251  15.853  41.337   0.606
85184W        W58252  15.564   0.213   4.643
85185W        W58253  37.943  33.658   4.498
85186W        W58254   3.883  36.431   3.262
85187W        W58255  28.023  33.419  11.572
85188W        W58256  34.982  42.314   1.721
85189W        W58257  21.556  22.490   2.180
85190W        W58258  24.121  33.449   4.031
85191W        W58259  13.686  30.021  13.277
85192W        W58260  11.610  17.084  11.117
85193W        W58261  14.730  23.222  10.419
85194W        W58262  26.030  10.184   4.210
85195W        W58263  10.532  31.458   0.887
85196W        W58264  36.854   8.387  13.249
85197W        W58265  32.535  15.851   2.879
85198W        W58266  34.866   0.978   0.949
85199W        W58267  26.941  34.472  12.680
85200W        W58268  22.093  27.391  12.584
85201W        W58269  17.151  32.908  12.416
85202W        W58270  15.840  29.914   2.218
85203W        W58271  24.127  43.107   4.598
85204W        W58272  27.542  14.084  12.545
85205W        W58273  32.400   6.678   3.329
85206W        W58274  21.687  34.607  12.805
85207W        W58275   4.280  41.639   3.850
85208W        W58276  31.852   0.232  11.501
85209W        W58277   6.035   4.611  11.119
85210W        W58278  24.699  14.057  11.557
85211W        W58279  25.095  29.416  12.434
85212W        W58280  12.883   7.167  10.175
85213W        W58281  27.557  10.198  13.309
85214W        W58282  14.015   3.425  12.087
85215W        W58283   7.283  10.236   3.118
85216W        W58284  41.960   3.976  14.384
85217W        W58285  41.500  11.658  13.951
85218W        W58286  36.522   9.702   0.490
85219W        W58287  20.597   0.938   9.944
85220W        W58288  30.598  34.936   1.359
85221W        W58289  29.995  31.824   3.314
85222W        W58290  32.712  44.882  13.442
85223W        W58291  18.926  24.508   1.453
85224W        W58292  15.195  16.237  13.908
85225W        W58293  18.154  18.748  13.331
85226W        W58294  25.190  41.029   3.716
85227W        W58295   1.481  14.174   2.095
85228W        W58296  16.429  26.320  11.622
85229W        W58297  15.417  33.568   2.369
85230W        W58298  19.168  30.135   3.225
85231W        W58299  32.972  39.580  12.126
85232W        W58300  35.067   9.335   1.217
85233W        W58301   4.932  35.300   4.108
85234W        W58302  22.683  40.319   1.296
85235W        W58303   4.096  30.097   1.361
85236W        W58304  15.257  27.391   2.784
85237W        W58305  17.944  33.941  13.042
85238W        W58306  37.962   2.169  14.807
85239W        W58307  24.710  39.900   0.896
85240W        W58308  40.246  17.140   0.736
85241W        W58309  27.791   5.200  10.662
85242W        W58310  40.876  28.738   0.013
85243W        W58311  11.078  31.941  11.181
85244W        W58312   0.916  38.149  13.956
85245W        W58313  24.527  40.958   2.508
85246W        W58314  34.089   4.860   3.231
85247W        W58315   8.745  14.643  13.556
85248W        W58316   7.663  27.174   3.152
85249W        W58317  44.900  23.507   3.640
85250W        W58318   2.737   5.350  13.006
85251W        W58319   0.690  31.986   1.317
85252W        W58320   3.428   3.681  10.727
85253W        W58321  17.208  33.119  12.895
85254W        W58322  41.729  28.154  12.106
85255W        W58323  36.340  13.379   0.290
85256W        W58324   6.656   2.764   3.664
85257W        W58325  29.386  44.758  14.870
85258W        W58326  31.680  31.012   3.787
85259W        W58327  42.229  43.621   2.793
85260W        W58328   9.901  39.523   4.076
85261W        W58329  31.007  28.624  13.486
85262W        W58330  24.413  40.629   3.213
85263W        W58331  29.650  35.390   0.305
85264W        W58332  35.416  12.652   1.158
85265W        W58333  24.640  21.191  13.107
85266W        W58334  27.032  19.579   0.425
85267W        W58335  33.954  34.484   2.567
85268W        W58336   2.071  21.647   3.654
85269W        W58337   1.836  31.372   4.582
85270W        W58338  23.494   5.662  13.701
85271W        W58339  37.594  42.832   3.146
85272W        W58340  27.216  11.276   4.610
85273W        W58341  42.562  17.094  14.273
85274W        W58342  37.791  16.296  12.373
85275W        W58343  40.596  17.259   1.085
85276W        W58344   0.993  37.433   3.633
85277W        W58345  32.811  39.012   4.198
85278W        W58346  42.384  40.941   3.831
85279W        W58347   0.001  10.747   1.904
85280W        W58348  42.001   0.246   1.865
85281W        W58349  18.177  42.246  13.399
85282W        W58350  22.738  23.560   3.171
85283W        W58351  37.459   2.833  12.371
85284W        W58352  30.492  28.695  12.116
85285W        W58353  13.690  24.933   0.940
85286W        W58354  29.047   9.191   3.709
85287W        W58355  36.995   6.911  14.846
85288W        W58356  12.108  41.916  11.545
85289W        W58357   2.209  26.604   4.065
85290W        W58358   9.467   7.887   0.455
85291W        W58359  24.737  37.395   5.058
85292W        W58360  22.263  35.873   0.356
85293W        W58361  29.675   0.304  12.488
85294W        W58362  41.376  32.674  12.596
85295W        W58363  15.557  32.795   2.629
85296W        W58364  34.245  19.416  12.237
85297W        W58365  40.568  19.361   0.801
85298W        W58366   1.886  35.294   0.512
85299W        W58367  17.197  22.290   1.676
85300W        W58368  39.817  38.848   2.747
85301W        W58369   7.272   8.872   4.562
85302W        W58370  23.769  43.939   4.578
85303W        W58371  13.057   2.875  14.731
85304W        W58372  26.499   2.255  11.224
85305W        W58373  31.605   1.228   4.328
85306W        W58374   2.954   2.915   2.895
85307W        W58375  42.331  24.104  13.442
85308W        W58376   0.834  40.085  13.797
85309W        W58377  35.964  19.847   0.256
85310W        W58378   3.659   4.368  11.228
85311W        W58379  37.543  18.748  13.337
85312W        W58380  32.807  17.607   4.149
85313W        W58381  14.873   7.279  14.577
85314W        W58382   7.464  42.616   0.834
85315W        W58383  10.180  36.894   0.818
85316W        W58384  29.606  15.658  13.531
85317W        W58385   3.054   1.272   3.167
85318W        W58386  41.545  27.027  10.659
85319W        W58387  15.103  32.885  14.602
85320W        W58388  32.182  37.824  10.460
85321W        W58389  16.560  25.627  10.789
85322W        W58390  21.272  35.160   4.095
85323W        W58391  21.242  13.829  14.075
85324W        W58392  35.882   6.956   1.961
85325W        W58393  27.172   0.051  14.065
85326W        W58394  14.425   0.898   3.383
85327W        W58395  23.768   2.986   0.332
85328W        W58396  29.089  20.603  11.556
85329W        W58397  10.207  24.980   2.746
85330W        W58398  30.031  31.384   1.152
85331W        W58399  36.266  28.973   3.195
85332W        W58400  43.428  32.003   0.110
85333W        W58401   1.403  25.924   0.845
85334W        W58402  31.431  16.276   2.659
85335W        W58403   3.303  38.005  13.154
85336W        W58404  24.141  34.174   1.232
85337W        W58405  21.943  27.711  14.874
85338W        W58406  35.575   2.162   1.902
85339W        W58407  21.747  43.955  12.530
85340W        W58408  19.939  11.389  10.599
85341W        W58409  12.579  34.171   2.219
85342W        W58410  33.169  37.383   0.508
85343W        W58411   2.659  19.664   4.672
85344W        W58412   2.462  26.532  10.212
85345W        W58413   9.392   6.339  14.398
85346W        W58414  10.624  35.851   1.756
85347W        W58415  13.520  44.039   0.392
85348W        W58416  25.330  37.867   5.479
85349W        W58417  36.897  10.710  14.636
85350W        W58418  12.171  24.039  13.037
85351W        W58419  19.125   2.471   3.196
85352W        W58420  20.126   9.886  14.477
85353W        W58421  16.610   4.161  14.452
85354W        W58422  22.678  10.920   0.437
85355W        W58423  24.845   9.049   3.266
85356W        W58424  11.911  36.056   0.369
85357W        W58425  43.487  22.540   1.026
85358W        W58426  38.745  36.979  13.272
85359W        W58427  19.749   8.388   4.314
85360W        W58428  40.293  21.667   2.696
85361W        W58429  27.669  36.309  14.368
85362W        W58430  30.812  21.644  13.003
85363W        W58431  13.494  38.744   4.044
85364W        W58432   5.733  39.274  12.979
85365W        W58433  36.965   7.243   1.199
85366W        W58434   3.979  13.151   1.399
85367W        W58435  43.360  23.431  10.307
85368W        W58436  23.408   8.853   1.781
85369W        W58437  39.980  14.614   2.868
85370W        W58438  44.169  31.868  13.328
85371W        W58439  40.962   1.195  12.000
85372W        W58440   0.893   7.378  13.005
85373W        W58441   2.706  39.033   9.952
85374W        W58442   0.435  36.058   1.781
85375W        W58443  17.101  19.010  12.580
85376W        W58444  10.702  44.443   3.739
85377W        W58445  41.995   6.598  14.619
85378W        W58446   4.794  41.295   1.665
85379W        W58447  36.803   0.203  11.070
85380W        W58448  20.571  11.609   2.125
85381W        W58449  11.641  19.994  10.590
85382W        W58450  28.195  15.790   3.266
85383W        W58451  28.991  44.445  12.441
85384W        W58452  20.316  43.791   4.303
85385W        W58453  24.254  31.550   2.461
85386W        W58454  34.561   3.456  11.426
85387W        W58455   8.978  23.092   1.297
85388W        W58456  27.785   1.246  14.807
85389W        W58457  26.253  26.487   2.564
85390W        W58458  14.832  25.629  12.070
85391W        W58459  11.672   3.752  13.438
85392W        W58460  33.197  25.538  14.893
85393W        W58461  39.820  23.179   4.715
85394W        W58462  44.042  21.238   2.836
85395W        W58463  30.998  43.813  12.889
85396W        W58464  25.346  20.607  14.738
85397W        W58465   7.709   7.494   0.309
85398W        W58466   3.189  41.996   2.831
85399W        W58467  37.463  43.003   2.567
85400W        W58468  14.637   9.192  10.667
85401W        W58469  39.994  18.497  14.927
85402W        W58470  20.247  14.246  12.148
85403W        W58471  32.186  39.828  13.521
85404W        W58472  20.750  33.584  12.069
85405W        W58473  21.074  10.556   4.605
85406W        W58474   3.348  10.770  12.944
85407W        W58475   8.713  19.294  11.565
85408W        W58476  42.248  29.479  11.434
85409W        W58477   5.798  29.224   2.392
85410W        W58478  15.904  12.198   2.547
85411W        W58479  36.779   2.144  12.871
85412W        W58480  33.015  26.126  14.332
85413W        W58481   6.921   4.026  14.592
85414W        W58482  20.171  27.599  12.914
85415W        W58483   5.078   5.193  11.189
85416W        W58484  38.430   3.902   3.693
85417W        W58485  22.547  18.654  11.983
85418W        W58486  42.217  33.937  13.927
85419W        W58487  30.528   5.614   1.652
85420W        W58488  30.531  43.919  14.502
85421W        W58489  37.794  22.962  12.631
85422W        W58490  35.959  29.713  12.890
85423W        W58491  35.592  30.954   0.873
85424W        W58492  37.873   1.060  12.821
85425W        W58493  13.040  29.976  12.619
85426W        W58494  24.311   2.261  13.111
85427W        W58495  18.913  41.624  14.432
85428W        W58496  35.830   5.833   0.300
85429W        W58497  15.778  23.282   4.710
85430W        W58498  17.235  37.361  10.599
85431W        W58499   2.909   2.227   4.685
85432W        W58500  17.514  31.222  14.591
85433W        W58501  39.408  29.392  10.603
85434W        W58502   2.897  38.010   3.693
85435W        W58503  13.121  24.180  11.721
85436W        W58504   4.674  39.360  12.543
85437W        W58505  29.200  12.293   0.450
85438W        W58506  36.702  36.079   3.635
85439W        W58507  22.593   2.694   2.152
85440W        W58508  25.193  34.309  13.429
85441W        W58509   6.907  22.104   1.388
85442W        W58510  37.650  13.844  14.021
85443W        W58511  15.208  10.812   0.977
85444W        W58512  12.356  42.767   0.838
85445W        W58513  36.662  36.520  12.679
85446W        W58514  30.081  31.479   4.125
85447W        W58515  12.832  40.055  14.809
85448W        W58516   7.097   4.877   3.301
85449W        W58517  36.216  15.554  14.098
85450W        W58518  40.037  25.187   4.739
85451W        W58519   1.896   9.455  11.894
85452W        W58520  41.445   0.427  11.160
85453W        W58521  14.460  44.599   3.252
85454W        W58522  14.182  33.112   3.717
85455W        W58523  19.249  14.050   0.316
85456W        W58524  32.236  11.224   2.216
85457W        W58525  29.487   6.319  13.062
85458W        W58526   6.652   0.906  12.454
85459W        W58527  27.656  26.431  11.064
85460W        W58528   9.298  42.909  11.075
85461W        W58529   7.715   7.946  12.924
85462W        W58530   4.191  24.468   3.796
85463W        W58531  28.994   8.364  14.368
85464W        W58532  27.390   4.409   0.036
85465W        W58533  32.503  31.409  13.291
85466W        W58534   0.523  17.211  13.509
85467W        W58535  21.083  21.172  11.032
85468W        W58536  21.156   2.567   3.952
85469W        W58537  20.271  23.712  13.933
85470W        W58538   2.418   6.935  11.516
85471W        W58539   5.213  23.644  14.971
85472W        W58540  15.002   9.807  14.056
85473W        W58541  37.453  20.608   1.811
85474W        W58542   0.092   4.228  13.173
85475W        W58543  44.295  16.488   1.200
85476W        W58544  22.988  28.425   2.346
85477W        W58545  40.504  40.268   2.289
85478W        W58546  29.091  36.979   1.424
85479W        W58547  34.916   7.701  14.170
85480W        W58548  33.178  28.548   1.763
85481W        W58549  10.716  32.048   3.645
85482W        W58550   3.282  22.091  14.272
85483W        W58551  34.988  40.530  13.628
85484W        W58552   2.440   3.201   2.223
85485W        W58553  12.432  24.940  14.513
85486W        W58554  22.038   1.984   2.286
85487W        W58555  26.365  43.110   1.691
85488W        W58556  17.519  33.401   2.855
85489W        W58557  18.082  38.876   1.714
85490W        W58558  16.796  33.462  14.916
85491W        W58559  18.101   9.079  14.921
85492W        W58560  11.634  25.400   1.927
85493W        W58561  17.645  33.972   0.059
85494W        W58562   4.893  16.828   3.328
85495W        W58563  30.676  15.757   4.776
85496W        W58564  44.846  42.073   4.268
85497W        W58565  39.457  34.101   0.214
85498W        W58566  18.712  41.265  11.650
85499W        W58567  12.303  35.932  14.784
85500W        W58568  40.715  14.663  13.411
85501W        W58569  19.760  24.711   4.104
85502W        W58570  33.157  42.799  12.039
85503W        W58571  40.419  24.572  11.150
85504W        W58572  19.572  18.492   0.796
85505W        W58573  35.876  26.129   3.158
85506W        W58574  13.597   7.784   0.856
85507W        W58575  37.339   1.132  12.145
85508W        W58576  18.515  16.477  10.198
85509W        W58577   9.673  41.474  13.947
85510W        W58578  29.397   3.904  13.838
85511W        W58579   7.178  37.533   4.158
85512W        W58580  36.985  10.721   3.799
85513W        W58581  38.331  42.838  13.420
85514W        W58582  31.574  16.688  13.101
85515W        W58583  36.745  27.615   4.450
85516W        W58584  29.427  31.894  13.408
85517W        W58585  42.881  42.634  14.759
85518W        W58586  20.479  14.258  13.391
85519W        W58587  18.777  37.193   1.373
85520W        W58588  43.844   7.705  12.089
85521W        W58589  38.285  29.917  14.476
85522W        W58590  25.164   6.213  11.452
85523W        W58591   6.024  38.453   3.078
85524W        W58592   5.874  32.155   2.375
85525W        W58593  13.571  36.344  14.856
85526W        W58594   3.937  40.457  14.515
85527W        W58595  11.714  10.036   4.138
85528W        W58596  10.398  33.549   0.759
85529W        W58597  24.039  44.300  10.681
85530W        W58598  11.647  25.810   0.496
85531W        W58599   8.288   1.791  13.580
85532W        W58600  26.737  13.317  14.252
85533W        W58601  22.686  35.044  10.722
85534W        W58602  10.296  22.654   0.841
85535W        W58603   6.211  30.505   1.516
85536W        W58604  15.099   5.151  13.317
85537W        W58605  30.198  24.108  12.846
85538W        W58606  15.575  16.744  13.034
85539W        W58607  38.557  28.423  10.748
85540W        W58608  24.617  19.850  13.061
85541W        W58609  30.096  25.626  11.601
85542W        W58610  20.761  24.732   0.808
85543W        W58611  19.521   0.913  12.473
85544W        W58612  36.410  14.397   4.127
85545W        W58613  12.037  25.675  13.800
85546W        W58614  38.452  34.280   2.678
85547W        W58615  27.693  32.580  10.621
85548W        W58616  18.710  41.765   2.105
85549W        W58617  36.781   5.288   4.451
85550W        W58618  32.999  29.688   0.272
85551W        W58619  37.846  25.452   0.960
85552W        W58620   7.248  15.148  10.427
85553W        W58621   2.880  33.883  10.515
85554W        W58622  43.871   4.185  13.971
85555W        W58623  43.983  41.017   0.817
85556W        W58624  12.278   8.424   4.196
85557W        W58625  12.628  44.472   3.781
85558W        W58626   6.968   1.357   1.794
85559W        W58627  25.589  20.723   2.676
85560W        W58628  17.338   4.015  11.636
85561W        W58629  22.070  11.330   0.496
85562W        W58630   6.640  33.434   1.888
85563W        W58631  30.971  29.946   2.899
85564W        W58632  23.250  13.648  14.903
85565W        W58633  36.903  25.466  12.610
85566W        W58634  25.172  17.570  12.117
85567W        W58635  10.937  29.735   4.577
85568W        W58636  23.451  21.921  10.853
85569W        W58637   6.916  24.502  14.559
85570W        W58638  26.410   1.703   3.557
85571W        W58639  36.797  22.343  12.024
85572W        W58640  13.967  38.383   3.302
85573W        W58641  35.003  42.752  10.989
85574W        W58642   0.618  11.902   0.401
85575W        W58643   4.402  39.053   3.638
85576W        W58644  17.492   7.681   3.223
85577W        W58645  43.309  43.660   0.687
85578W        W58646  35.410  31.221  11.431
85579W        W58647  20.260   4.783  13.993
85580W        W58648  12.690  14.483  14.865
85581W        W58649   6.880  41.929   3.315
85582W        W58650  10.802  37.551   2.252
85583W        W58651   7.382  22.286  11.961
85584W        W58652  32.131  17.005  12.975
85585W        W58653  44.395  11.354   0.826
85586W        W58654  17.957  37.583  13.538
85587W        W58655  36.873   6.832   1.910
85588W        W58656  19.589   2.205  10.882
85589W        W58657  36.338   1.760   1.622
85590W        W58658  29.498  15.252  14.504
85591W        W58659  29.554   5.675   1.915
85592W        W58660  18.009  24.027  13.048
85593W        W58661   5.736  23.197   3.316
85594W        W58662  37.583  42.704   1.217
85595W        W58663  13.807  32.673   1.203
85596W        W58664  20.648   0.923   4.650
85597W        W58665  17.602  34.865  11.159
85598W        W58666  17.899  24.236   3.980
85599W        W58667  32.014  17.706   2.628
85600W        W58668   6.137  25.454   3.729
85601W        W58669  22.742  30.103   1.132
85602W        W58670  42.232  18.894   3.374
85603W        W58671  31.174  21.671   1.370
85604W        W58672  44.296  36.140  10.817
85605W        W58673  42.938  42.610   2.480
85606W        W58674  24.492  16.044   3.120
85607W        W58675  23.738   1.710  13.356
85608W        W58676   5.728  19.561  13.043
85609W        W58677   2.513  27.726  11.897
85610W        W58678   6.738  34.614   2.170
85611W        W58679  23.567   2.168  11.062
85612W        W58680   1.550  20.502   0.536
85613W        W58681   3.841  14.809  10.769
85614W        W58682   4.866  21.156  12.447
85615W        W58683   7.842  40.548   4.977
85616W        W58684  24.653  21.141   4.529
85617W        W58685  25.093  38.484  14.635
85618W        W58686   0.471  16.851  14.984
85619W        W58687   2.269  41.640  14.810
85620W        W58688  42.803  21.046  12.551
85621W        W58689   2.314  44.464  10.665
85622W        W58690  12.945  19.550  10.399
85623W        W58691  35.368  13.569  13.435
85624W        W58692  12.889   4.742  11.096
85625W        W58693  41.977   3.329  10.727
85626W        W58694  37.620  42.928  11.143
85627W        W58695  40.271   9.923   1.177
85628W        W58696  36.307   6.205  12.804
85629W        W58697  13.684  18.255   1.833
85630W        W58698  11.590  43.936   1.054
85631W        W58699  20.867  16.289  13.904
85632W        W58700  25.058  36.624  12.541
85633W        W58701  28.341  42.407   3.783
85634W        W58702  33.619  14.092   3.602
85635W        W58703  38.078  38.931   4.126
85636W        W58704  33.012   4.692   4.145
85637W        W58705  26.806  20.809  10.686
85638W        W58706   9.591  35.302  14.390
85639W        W58707   8.673   7.953  13.017
85640W        W58708  30.748   2.893   0.514
85641W        W58709  24.271  15.635   1.727
85642W        W58710  22.446  16.575  11.537
85643W        W58711   6.276  12.816   1.421
85644W        W58712   9.414  20.495  14.432
85645W        W58713   5.973  17.690  13.959
85646W        W58714   7.027  20.604  13.849
85647W        W58715  20.269   6.612   0.450
85648W        W58716   2.537  11.112   3.368
85649W        W58717  24.643  33.697   1.762
85650W        W58718   5.061   6.497   2.207
85651W        W58719  41.780  14.311   3.229
85652W        W58720   1.006  13.665  11.074
85653W        W58721   0.879  31.368  12.735
85654W        W58722  32.172  23.646   3.115
85655W        W58723  32.118  28.569   3.788
85656W        W58724  13.999  40.750  11.423
85657W        W58725  25.235  17.586  13.014
85658W        W58726  18.685  31.659  12.064
85659W        W58727  10.678  34.916   4.176
85660W        W58728  30.617  32.160  13.823
85661W        W58729  32.993  10.770  11.493
85662W        W58730  11.324  11.913   4.250
85663W        W58731   5.035  13.439   1.682
85664W        W58732  43.422  12.621   0.555
85665W        W58733  33.510  32.356   0.237
85666W        W58734  13.496  10.626  12.523
85667W        W58735  26.642   9.948  14.080
85668W        W58736  31.028  21.459   1.811
85669W        W58737  44.311  29.331  13.021
85670W        W58738   0.764   8.609  10.630
85671W        W58739  26.192  12.587  13.362
85672W        W58740  24.945  17.331   3.175
85673W        W58741  38.974  37.393  13.615
85674W        W58742  30.869  44.684   1.286
85675W        W58743  25.263  12.061  11.466
85676W        W58744   1.045  20.243  11.635
85677W        W58745   9.909  17.774   2.728
85678W        W58746   3.772  15.283   0.398
85679W        W58747  32.650   4.167   2.205
85680W        W58748  38.797  15.527  11.642
85681W        W58749  24.168  35.977  10.199
85682W        W58750   0.836  29.672  14.994
85683W        W58751  13.820  21.686  13.232
85684W        W58752  24.545  18.242  13.822
85685W        W58753  29.258   7.682  13.821
85686W        W58754  11.184   6.453   1.682
85687W        W58755   4.173  28.011   1.316
85688W        W58756  15.175   4.374  10.722
85689W        W58757  33.152  28.962  11.454
85690W        W58758  39.239  17.704   1.969
85691W        W58759  37.553  31.762   5.012
85692W        W58760  24.099  22.578   3.045
85693W        W58761  32.059  24.186  11.616
85694W        W58762  17.575  38.139   0.013
85695W        W58763  37.877  36.161   2.859
85696W        W58764  44.234  19.899  13.383
85697W        W58765  28.447  15.165   5.037
85698W        W58766   3.946   1.376  10.433
85699W        W58767  30.725  28.641   3.739
85700W        W58768  17.879  30.004  13.906
85701W        W58769  28.951  19.468  14.477
85702W        W58770  18.274  24.027  12.601
85703W        W58771  33.298  17.726   3.144
85704W        W58772  27.415  26.204   1.343
85705W        W58773  35.353   6.066  11.604
85706W        W58774  38.589  27.664   2.218
85707W        W58775  42.519  10.761  10.643
85708W        W58776  15.885  38.423  14.445
85709W        W58777  27.863   5.409   0.303
85710W        W58778  14.279   5.262  13.678
85711W        W58779  28.400  17.609   3.706
85712W        W58780  42.383  11.882   1.845
85713W        W58781  39.771   2.888  14.393
85714W        W58782  28.842  39.038  14.735
85715W        W58783  43.131   8.455   4.583
85716W        W58784  33.950  25.045  12.554
85717W        W58785   6.929   7.138   3.273
85718W        W58786   8.095   1.426   2.330
85719W        W58787  32.052  33.438   2.398
85720W        W58788  38.362  10.670  10.802
85721W        W58789  28.170  44.900   2.291
85722W        W58790  42.803  27.113  13.514
85723W        W58791  18.797  27.669   4.095
85724W        W58792  22.190   2.446   3.722
85725W        W58793  21.656  22.459  12.645
85726W        W58794  36.022  26.594  13.486
85727W        W58795  14.102  44.162   4.511
85728W        W58796  12.699  39.977  12.108
85729W        W58797  37.377  44.613  12.608
85730W        W58798  18.206   3.926   1.653
85731W        W58799   7.727  25.859   4.099
85732W        W58800  14.495  23.533  14.871
85733W        W58801  11.140  31.105   2.110
85734W        W58802  10.091  30.417   2.603
85735W        W58803  23.506  10.909  13.480
85736W        W58804  38.801   7.761  14.471
85737W        W58805   5.656  29.407  12.899
85738W        W58806  35.636  20.065   1.782
85739W        W58807  41.458   7.211   1.317
85740W        W58808   0.893  34.691  14.461
85741W        W58809  44.949  33.649  10.772
85742W        W58810  33.316  36.706   2.326
85743W        W58811  41.003  11.247  11.227
85744W        W58812  12.392  39.456  14.377
85745W        W58813  42.496  19.666  14.459
85746W        W58814  39.507  20.216   1.371
85747W        W58815   5.324   5.412   0.834
85748W        W58816  37.014  19.858  11.553
85749W        W58817  44.367  40.447  13.120
85750W        W58818  13.126   9.751  11.272
85751W        W58819  23.816   8.355  13.375
85752W        W58820  40.040  21.674  13.336
85753W        W58821  26.175  24.189  14.708
85754W        W58822   3.097  17.692   1.884
85755W        W58823  18.846  37.363   1.878
85756W        W58824  22.736  26.948   0.931
85757W        W58825  23.119   4.493   3.830
85758W        W58826   8.705   2.604  14.076
85759W        W58827  39.603   7.217   3.323
85760W        W58828  17.431   0.997   0.784
85761W        W58829  14.285  27.202  11.806
85762W        W58830  37.427  20.609  12.057
85763W        W58831   7.826  41.343  11.319
85764W        W58832  17.256   9.516   3.676
85765W        W58833  42.832   7.408   0.981
85766W        W58834  31.433  38.684  13.595
85767W        W58835  33.443  23.992   0.300
85768W        W58836  35.147  39.606  12.540
85769W        W58837  18.728   6.072   0.947
85770W        W58838  14.058  10.829  13.903
85771W        W58839  32.826  30.347   4.844
85772W        W58840   8.363  12.748  11.322
85773W        W58841  36.854  18.733  10.707
85774W        W58842  39.017   8.036   3.301
85775W        W58843  39.447  40.774   1.882
85776W        W58844  38.476  17.677   4.612
85777W        W58845  25.970  28.037   3.817
85778W        W58846  15.273  19.721  12.665
85779W        W58847  33.339  12.112  11.693
85780W        W58848  38.035  36.025   3.327
85781W        W58849  21.289  37.109  13.340
85782W        W58850   3.371  16.588   0.675
85783W        W58851  20.056  35.945   2.798
85784W        W58852  30.941  25.960   4.654
85785W        W58853   5.871  28.590  11.637
85786W        W58854   4.554  28.661  14.874
85787W        W58855  13.952  18.593   4.020
85788W        W58856  26.071  34.066   1.860
85789W        W58857  33.553  26.997   4.406
85790W        W58858  24.557  26.414   3.192
85791W        W58859  41.263  17.281  13.910
85792W        W58860  42.664  43.873  10.630
85793W        W58861  31.917   6.775   2.655
85794W        W58862   8.403  30.530   2.335
85795W        W58863  44.895  11.920  11.638
85796W        W58864   1.473  41.982  13.378
85797W        W58865   9.932  27.066   1.962
85798W        W58866  11.908   0.691  11.060
85799W        W58867  42.951  15.367  14.109
85800W        W58868   6.754  35.965   1.259
85801W        W58869  30.410   4.118  13.747
85802W        W58870  27.080  32.290  14.380
85803W        W58871  43.490  17.171   0.452
85804W        W58872  17.665  24.103   2.256
85805W        W58873  15.341  10.388   2.878
85806W        W58874  38.636  32.417  14.831
85807W        W58875  42.132   4.506   1.634
85808W        W58876  43.253  23.230  11.166
85809W        W58877   3.329   0.131  11.587
85810W        W58878  29.368  36.902   4.149
85811W        W58879  18.212  25.183   1.276
85812W        W58880  39.194   7.524   0.784
85813W        W58881  11.768  19.968   4.068
85814W        W58882  43.020  29.914   1.419
85815W        W58883   0.807   1.869  11.933
85816W        W58884  11.615  21.823   3.806
85817W        W58885  41.761  33.041   3.587
85818W        W58886  20.949  15.141   0.522
85819W        W58887  44.902  32.539  12.780
85820W        W58888   0.805   7.801  13.813
85821W        W58889   1.835  33.329  12.618
85822W        W58890   8.838  19.513   0.871
85823W        W58891   8.561   3.183   1.764
85824W        W58892  31.115  30.518  13.414
85825W        W58893  33.311  22.261   3.284
85826W        W58894  44.029   0.038  14.934
85827W        W58895   3.905  38.599   0.738
85828W        W58896  25.141  17.379  13.957
85829W        W58897  36.065  17.055   2.418
85830W        W58898  31.461   5.468   4.149
85831W        W58899  19.176  41.331   3.243
85832W        W58900  25.976  10.915   2.227
85833W        W58901  20.199  35.485   2.249
85834W        W58902  32.539   3.240  13.017
85835W        W58903  35.123  35.119   3.253
85836W        W58904   9.368  14.372  13.788
85837W        W58905   6.463  28.220   0.736
85838W        W58906  40.609  38.093  14.972
85839W        W58907  31.997   4.577   2.719
85840W        W58908   7.500  29.917   2.718
85841W        W58909   9.010  38.425   0.300
85842W        W58910   8.861  44.349   1.284
85843W        W58911   1.098  30.964   3.862
85844W        W58912  15.680  22.331   0.755
85845W        W58913  35.422  15.055   1.879
85846W        W58914  38.306  10.131   4.105
85847W        W58915  35.001   2.990   2.156
85848W        W58916   4.829   3.332   2.855
85849W        W58917  34.725  33.955  11.101
85850W        W58918   0.662  32.405  13.969
85851W        W58919  43.382   8.704   3.878
85852W        W58920  34.376  26.205   0.814
85853W        W58921  34.087  35.162   2.948
85854W        W58922   3.147   2.701  13.145
85855W        W58923  32.508   3.684   2.276
85856W        W58924  32.021  22.535   1.876
85857W        W58925  30.576   5.754  12.622
85858W        W58926   2.869  41.240  13.436
85859W        W58927  44.185  27.060   3.375
85860W        W58928  27.735  20.760   4.399
85861W        W58929  42.831  32.928  13.428
85862W        W58930  36.154  18.848  11.281
85863W        W58931  38.956   9.540   5.026
85864W        W58932   5.485  16.795   1.878
85865W        W58933  15.345   8.497  13.555
85866W        W58934  25.267  28.534   0.450
85867W        W58935  34.596  22.227  14.571
85868W        W58936  13.683  38.561  12.101
85869W        W58937  20.482  34.404  13.803
85870W        W58938  33.619   6.969   4.253
85871W        W58939   5.715  23.065   4.534
85872W        W58940  27.177  34.271   1.274
85873W        W58941  19.114  31.943   2.755
85874W        W58942   8.414  17.031   2.398
85875W        W58943   9.269  11.095  13.955
85876W        W58944   7.138  34.803  14.516
85877W        W58945   8.116   9.570   2.662
85878W        W58946  24.146   6.684  12.848
85879W        W58947   5.806  38.427  11.067
85880W        W58948  19.836  11.823  14.796
85881W        W58949   6.644  31.660   2.726
85882W        W58950  24.938   9.607  14.443
85883W        W58951  26.674  26.619  13.126
85884W        W58952  31.512  36.194   1.733
85885W        W58953   7.621  42.846  11.533
85886W        W58954  30.269  39.346   2.407
85887W        W58955  13.423   7.029   4.321
85888W        W58956  15.504  44.285  13.995
85889W        W58957  32.011   0.184  13.969
85890W        W58958  33.014  19.226   3.653
85891W        W58959  44.448  25.227   0.444
85892W        W58960  15.931   9.416   2.315
85893W        W58961  20.164  41.655  11.802
85894W        W58962  27.975  27.246  14.779
85895W        W58963  26.003  40.571  11.401
85896W        W58964   2.805  36.657   0.967
85897W        W58965   0.751  34.577  12.999
85898W        W58966  27.732  43.266  14.003
85899W        W58967  34.957   5.250  11.889
85900W        W58968   0.449  23.527   1.893
85901W        W58969  30.332  27.941  11.683
85902W        W58970   8.609  29.694   2.485
85903W        W58971   4.452  30.770  14.138
85904W        W58972  31.876  38.300   2.761
85905W        W58973  22.319  42.401   1.769
85906W        W58974  13.593   8.444  10.380
85907W        W58975  42.532  18.034  11.024
85908W        W58976  34.487   7.127   0.117
85909W        W58977  16.465  28.379   3.131
85910W        W58978  20.690  29.016  10.439
85911W        W58979  17.666   1.051   4.946
85912W        W58980  36.329   0.843  11.710
85913W        W58981   9.531  24.343  13.845
85914W        W58982   4.069  19.817  13.434
85915W        W58983   9.254  33.923   2.423
85916W        W58984  17.836   7.034  12.058
85917W        W58985  16.298   0.015  11.976
85918W        W58986  27.165  20.264  12.887
85919W        W58987  37.382  43.695  11.597
85920W        W58988  38.528  38.018  10.850
85921W        W58989  32.833   1.031  13.859
85922W        W58990  40.594   2.365   0.275
85923W        W58991  11.189   2.910   4.333
85924W        W58992  13.363  24.916  13.465
85925W        W58993  44.249   5.816  11.222
85926W        W58994  42.303   6.475   3.667
85927W        W58995  31.848   9.910   1.405
85928W        W58996  34.352  41.736   1.371
85929W        W58997  32.714  24.533   3.241
85930W        W58998  36.047  12.122  13.913
85931W        W58999  35.987  33.354  12.107
85932W        W59000  27.924  43.889   1.620
85933W        W59001  27.717  24.418   3.727
85934W        W59002  34.859  21.572  11.953
85935W        W59003  25.279  30.903   0.253
85936W        W59004  27.546   2.433  12.809
85937W        W59005  15.743  28.650  10.626
85938W        W59006  26.005  18.346   1.395
85939W        W59007  17.840  31.956   2.323
85940W        W59008   0.828   9.163   0.505
85941W        W59009  14.768   5.863  11.115
85942W        W59010  27.538  25.523  14.478
85943W        W59011  33.356  30.393   3.592
85944W        W59012  23.158   1.998   3.624
85945W        W59013  25.965   5.033   1.207
85946W        W59014  13.465  34.942   2.843
85947W        W59015  43.535  23.184   1.790
85948W        W59016  33.101  20.693   1.375
85949W        W59017  41.179  21.742   0.271
85950W        W59018   3.466  10.977  11.451
85951W        W59019  26.061  26.061   0.444
85952W        W59020   7.388  11.662   1.280
85953W        W59021  14.281  11.829   1.033
85954W        W59022  22.261  37.470  13.235
85955W        W59023  14.167  17.864   0.836
85956W        W59024  34.628  29.232  14.714
85957W        W59025   9.870  42.502   4.986
85958W        W59026   3.731  34.892  13.116
85959W        W59027  12.252  20.710  10.739
85960W        W59028  14.325  17.398   4.860
85961W        W59029  29.143  35.558   0.273
85962W        W59030   1.631  28.094  13.530
85963W        W59031  37.593  44.123   4.619
85964W        W59032  21.561  44.021  13.935
85965W        W59033  21.215  36.022   4.785
85966W        W59034  40.937  16.205   1.779
85967W        W59035  14.756  27.655  11.162
85968W        W59036  39.434  36.151   0.751
85969W        W59037   1.178  30.140  12.475
85970W        W59038  33.522  15.827   1.878
85971W        W59039  28.427  20.545  12.339
85972W        W59040  11.748  10.756  13.855
85973W        W59041  18.517  17.089   0.892
85974W        W59042  41.596  17.663  11.151
85975W        W59043  20.204  25.495  10.806
85976W        W59044   1.967   3.832  11.634
85977W        W59045  43.476  20.226   3.266
85978W        W59046   2.199  27.704   2.784
85979W        W59047  32.907   6.648  12.467
85980W        W59048  29.997  25.569   3.207
85981W        W59049  22.047  42.064  13.387
85982W        W59050  42.402  12.737  11.381
85983W        W59051  37.132  25.490  13.894
85984W        W59052   8.283  35.307  10.655
85985W        W59053  14.795  17.228   4.116
85986W        W59054  28.950  43.016  11.728
85987W        W59055  24.656  30.411  14.741
85988W        W59056  38.494  43.799   2.612
85989W        W59057  11.297   2.892   0.454
85990W        W59058  20.521  16.370  12.542
85991W        W59059  25.760  31.678  10.108
85992W        W59060  11.440  23.993   2.180
85993W        W59061  20.945  13.305  13.444
85994W        W59062  11.379  23.272  14.863
85995W        W59063   8.045  40.996   0.794
85996W        W59064  13.414   4.340  13.418
85997W        W59065  27.031  15.519  13.837
85998W        W59066  32.535  40.587   2.004
85999W        W59067  33.638  15.855   3.627
86000W        W59068  12.808  23.589   3.675
86001W        W59069  43.388  38.849   1.907
86002W        W59070  32.541  34.368  11.981
86003W        W59071  41.043   3.767  11.935
86004W        W59072  20.817  23.972  12.603
86005W        W59073  24.553  25.113  14.086
86006W        W59074  11.305  17.800   2.653
86007W        W59075  44.544   8.459   1.398
86008W        W59076  10.937   0.952  13.902
86009W        W59077  20.987  31.422  13.014
86010W        W59078  26.637  42.982  12.174
86011W        W59079  12.794   3.759  12.932
86012W        W59080  10.623  35.031  10.419
86013W        W59081  30.029  22.167  13.807
86014W        W59082  37.419  23.512   0.678
86015W        W59083  31.230  43.436   3.667
86016W        W59084   2.373  29.553   2.760
86017W        W59085  30.258  32.820   0.390
86018W        W59086  43.979  19.699  13.810
86019W        W59087  42.819  44.885   3.732
86020W        W59088  44.754  33.509  14.345
86021W        W59089  30.521   5.264  12.772
86022W        W59090  38.414   8.710  14.820
86023W        W59091  12.789   1.277   0.349
86024W        W59092   8.736   6.499  10.714
86025W        W59093  33.891  15.808   3.147
86026W        W59094  37.064  21.987   1.150
86027W        W59095  31.566  23.300   0.907
86028W        W59096  30.805  28.619   1.387
86029W        W59097  43.185   0.980  14.946
86030W        W59098  29.714  32.889  11.703
86031W        W59099  43.782  42.895  14.968
86032W        W59100  42.303   5.224   2.152
86033W        W59101  21.042  36.256   2.215
86034W        W59102  22.202  43.264  10.554
86035W        W59103  22.122  32.415   3.686
86036W        W59104   9.279  26.502  13.617
86037W        W59105   9.896  43.390  13.512
86038W        W59106   8.861  44.729  13.358
86039W        W59107  12.189  32.981   3.207
86040W        W59108  24.957  17.611  14.374
86041W        W59109   1.886  22.544   1.457
86042W        W59110  43.392  37.902  12.260
86043W        W59111  22.646  34.039  10.676
86044W        W59112  19.348  13.307   3.865
86045W        W59113  28.428   6.376  13.029
86046W        W59114  44.740  44.444   1.300
86047W        W59115  15.116  16.766  13.562
86048W        W59116   0.894   2.246  13.716
86049W        W59117  43.838  15.625   1.429
86050W        W59118  21.358   7.128  11.228
86051W        W59119  28.967  12.354   1.712
86052W        W59120  32.300  22.690   2.332
86053W        W59121  37.121  10.702   1.934
86054W        W59122  43.507  44.289  12.970
86055W        W59123  24.724  35.680  11.981
86056W        W59124  43.301   3.290   0.867
86057W        W59125  19.224  18.194   2.571
86058W        W59126  29.966  25.630   4.472
86059W        W59127  43.002   3.319   4.607
86060W        W59128  41.208  19.725   3.874
86061W        W59129  42.318  32.202   2.135
86062W        W59130  17.981  11.773   1.415
86063W        W59131  44.818  37.608  14.910
86064W        W59132  20.596   1.987  10.693
86065W        W59133  15.156  19.238  11.011
86066W        W59134   7.351  41.822   3.100
86067W        W59135  27.617  17.034  11.020
86068W        W59136  26.483  27.000   0.894
86069W        W59137  11.688  34.201   2.206
86070W        W59138  38.499  29.511  13.066
86071W        W59139  27.982  30.460  14.478
86072W        W59140  11.724  33.025   4.606
86073W        W59141  13.747   6.761   0.916
86074W        W59142  26.065  37.462   4.897
86075W        W59143  29.849   9.615  12.699
86076W        W59144  11.727   6.927  14.818
86077W        W59145  30.647  35.437  14.132
86078W        W59146  37.488  30.759  12.498
86079W        W59147   6.753  36.559  13.470
86080W        W59148  16.021  29.030   1.997
86081W        W59149  30.186   3.794   3.621
86082W        W59150  29.726  36.437   2.393
86083W        W59151  22.148  22.683   4.242
86084W        W59152  14.168   0.695   1.363
86085W        W59153   4.873   1.412  10.710
86086W        W59154  38.729  36.677   0.926
86087W        W59155   2.685   2.220  14.539
86088W        W59156  24.808   5.987   1.631
86089W        W59157   8.342   0.499  10.502
86090W        W59158  36.625  12.851  13.985
86091W        W59159   5.196  40.831   1.178
86092W        W59160  33.849  39.990   4.043
86093W        W59161   9.208  43.956   4.398
86094W        W59162  42.999  35.415  14.999
86095W        W59163  40.072  12.534  13.917
86096W        W59164  42.417  17.970   3.259
86097W        W59165  11.788  40.808   3.232
86098W        W59166  29.162   3.940   2.716
86099W        W59167  16.135   8.450   2.714
86100W        W59168  30.612  32.518   2.387
86101W        W59169   6.645  42.439   1.708
86102W        W59170  10.225  13.552   4.217
86103W        W59171  24.095  23.339  11.698
86104W        W59172  13.843  29.777   0.839
86105W        W59173   4.666  11.691   3.209
86106W        W59174  33.063  37.206   1.401
86107W        W59175  31.281  12.750  11.176
86108W        W59176  11.488   0.671   3.717
86109W        W59177  10.430  30.130  14.202
86110W        W59178  33.646  18.795   1.753
86111W        W59179  32.522  35.363   4.553
86112W        W59180   8.384  12.287   3.700
86113W        W59181  11.192  23.573   3.123
86114W        W59182  37.880  30.880  12.007
86115W        W59183   8.269  41.537  12.084
86116W        W59184  10.398   3.817   3.671
86117W        W59185   2.202  23.702   0.692
86118W        W59186  23.816  12.869   2.285
86119W        W59187  13.084  43.283  12.103
86120W        W59188  26.662  19.990  12.563
86121W        W59189  15.036  12.590  11.100
86122W        W59190  33.377  30.018   0.907
86123W        W59191  13.652  27.627   2.202
86124W        W59192  19.576   1.994   2.141
86125W        W59193  26.164  44.828  12.488
86126W        W59194  11.610  23.776  14.826
86127W        W59195  27.873  11.847   2.208
86128W        W59196  30.957   2.138   1.786
86129W        W59197  26.109  44.424  13.275
86130W        W59198  33.840  24.619   2.492
86131W        W59199   0.576  31.853   3.752
86132W        W59200  38.078  41.355   0.301
86133W        W59201   0.550  37.446   1.801
86134W        W59202  39.962  33.633   1.719
86135W        W59203  15.288  36.764   2.883
86136W        W59204  30.972  16.363   0.847
86137W        W59205   3.420  15.761   3.155
86138W        W59206  31.856  42.367   0.828
86139W        W59207  31.682  29.081  13.876
86140W        W59208  11.678   6.147  11.943
86141W        W59209  22.542   2.724  12.568
86142W        W59210  37.052  16.230  11.981
86143W        W59211   4.107  23.286   2.684
86144W        W59212  42.473  36.821   3.218
86145W        W59213  21.130  39.353  13.356
86146W        W59214  27.916  32.539   3.718
86147W        W59215  38.439  37.596  12.852
86148W        W59216   4.763  19.256   1.845
86149W        W59217  42.285  39.250   1.412
86150W        W59218  10.768  14.741  12.089
86151W        W59219   9.306  21.207  12.104
86152W        W59220  36.660  13.123   4.521
86153W        W59221  30.613  41.544   0.267
86154W        W59222  27.990  35.109   3.278
86155W        W59223  21.812  18.371  12.396
86156W        W59224   9.537   9.398  11.793
86157W        W59225  41.756  14.232  13.911
86158W        W59226  25.591   0.664  14.334
86159W        W59227  25.544  11.417  12.986
86160W        W59228  40.516   6.049   4.273
86161W        W59229   0.318  16.080   4.108
86162W        W59230  30.398  19.739  12.520
86163W        W59231  38.522  11.305   1.953
86164W        W59232   0.732  25.335   2.785
86165W        W59233  40.491  35.927  11.136
86166W        W59234  18.217  27.979   0.758
86167W        W59235  37.062  21.829  13.878
86168W        W59236   4.165  38.788  10.725
86169W        W59237  28.951  40.839  10.463
86170W        W59238  27.796  28.311  13.955
86171W        W59239  30.283  43.789  11.031
86172W        W59240   9.427   5.092   4.254
86173W        W59241  28.255   5.720  12.004
86174W        W59242  28.431  22.548  13.920
86175W        W59243  39.082  30.378  14.708
86176W        W59244  39.311  10.750   1.306
86177W        W59245  33.564  17.787   4.556
86178W        W59246   4.745  40.785   4.904
86179W        W59247  34.381  19.178  11.770
86180W        W59248  22.660  43.793  11.462
86181W        W59249   0.170  41.537   4.955
86182W        W59250  33.924  21.238  11.251
86183W        W59251   8.261  38.106  10.818
86184W        W59252  40.275   1.029  13.886
86185W        W59253  14.170  19.843   0.379
86186W        W59254   8.271  15.833   0.402
86187W        W59255  17.757  26.547  11.261
86188W        W59256  37.991  43.850   0.862
86189W        W59257  30.988  40.524  11.138
86190W        W59258   7.335   3.764   2.384
86191W        W59259  23.416  43.176   2.217
86192W        W59260   7.298   9.346   3.240
86193W        W59261  25.708   2.263   0.307
86194W        W59262   5.603   9.290   4.303
86195W        W59263  37.875  12.392  12.578
86196W        W59264   6.124  34.465  12.072
86197W        W59265  19.548   7.783   5.015
86198W        W59266  39.032  27.174  13.040
86199W        W59267  24.474   4.468   1.800
86200W        W59268  29.306  32.850   2.077
86201W        W59269  38.999   1.891  13.963
86202W        W59270  36.585  18.206   0.779
86203W        W59271  24.515   0.310  13.502
86204W        W59272   3.288  36.432  11.336
86205W        W59273   0.370   8.655  10.241
86206W        W59274  36.493  25.138   3.493
86207W        W59275  21.564  26.494   3.109
86208W        W59276  30.412   9.158   3.395
86209W        W59277  28.306  36.617   3.250
86210W        W59278  26.211  36.445   0.314
86211W        W59279  43.970  10.102   2.211
86212W        W59280  37.945  20.723   2.706
86213W        W59281  22.751  35.872   0.185
86214W        W59282  21.299  21.184  13.949
86215W        W59283  17.992  20.627   0.550
86216W        W59284  42.987  17.648   4.599
86217W        W59285   8.809  40.817   3.683
86218W        W59286  19.146  16.085  11.231
86219W        W59287  31.089   0.471   1.652
86220W        W59288  24.953   1.047  11.139
86221W        W59289  15.201  41.353  10.743
86222W        W59290   2.389   8.929   1.846
86223W        W59291   6.365  22.031   2.238
86224W        W59292  36.322  36.877   1.456
86225W        W59293  44.149  39.717   2.579
86226W        W59294  35.557  41.317   4.014
86227W        W59295  43.392  31.403  10.529
86228W        W59296  10.293  12.647   0.934
86229W        W59297  34.782  33.815   4.134
86230W        W59298  33.611  12.856  11.259
86231W        W59299  35.262   7.629   2.165
86232W        W59300  32.009  27.873   0.418
86233W        W59301  38.172  26.140  12.100
86234W        W59302  17.656  43.020  13.461
86235W        W59303  41.607  31.564   1.442
86236W        W59304   6.120   4.661   1.426
86237W        W59305   2.986  31.164   3.975
86238W        W59306  34.545  32.188  11.599
86239W        W59307  40.714   7.463   2.244
86240W        W59308   6.747   7.192  13.483
86241W        W59309  25.203  36.164   1.937
86242W        W59310  22.233  34.850  10.609
86243W        W59311  38.614   6.827  14.885
86244W        W59312  16.130  10.360   1.802
86245W        W59313   1.783   5.703  13.009
86246W        W59314  38.630  26.220   0.654
86247W        W59315  31.603  37.048   4.370
86248W        W59316   3.682  41.565  11.058
86249W        W59317   6.947   5.768   2.226
86250W        W59318  19.218  40.584  13.674
86251W        W59319  19.647  28.106   0.905
86252W        W59320  26.331  13.000   5.169
86253W        W59321   7.938  21.665   1.359
86254W        W59322  29.139  43.405   1.135
86255W        W59323  39.039  25.801  12.007
86256W        W59324   5.743  15.810  14.113
86257W        W59325  17.757   2.614   4.180
86258W        W59326   8.667  15.112   0.838
86259W        W59327   9.348  24.090  10.759
86260W        W59328   0.762  12.737   1.959
86261W        W59329  16.154  22.009   2.316
86262W        W59330  22.274  14.684  13.531
86263W        W59331   0.967   0.767  12.844
86264W        W59332  11.579  42.333   3.326
86265W        W59333  27.185  14.847   1.463
86266W        W59334  32.005  14.925  12.987
86267W        W59335  13.631  10.332   5.052
86268W        W59336  22.503  21.966   2.314
86269W        W59337  23.292  24.724  10.847
86270W        W59338  11.634  42.026  13.006
86271W        W59339  24.044   5.287   1.467
86272W        W59340  22.545  14.063  11.327
86273W        W59341  43.710  16.246  12.845
86274W        W59342  42.912  10.567   4.167
86275W        W59343  22.159  10.588  12.033
86276W        W59344   0.494  41.328   3.268
86277W        W59345  26.383  24.615  12.108
86278W        W59346   6.884  13.358   3.944
86279W        W59347  26.281   3.241   1.883
86280W        W59348   5.414  41.024  14.011
86281W        W59349  26.609  36.904  13.399
86282W        W59350   3.245  16.363   4.652
86283W        W59351   3.784  33.285  12.526
86284W        W59352  12.057   3.432  12.884
86285W        W59353  10.738   7.452   0.884
86286W        W59354  43.398  33.865  14.442
86287W        W59355  16.671  26.237  13.401
86288W        W59356  10.276   8.138  12.529
86289W        W59357  12.153   6.207  12.111
86290W        W59358  11.868  34.591  12.825
86291W        W59359  11.726   4.352   3.386
86292W        W59360  23.584   5.818  11.408
86293W        W59361  32.338  17.269  12.550
86294W        W59362   4.377  12.874  11.482
86295W        W59363  25.256  19.744   3.656
86296W        W59364  19.439  22.351  11.535
86297W        W59365   3.835  36.159  13.835
86298W        W59366  34.077  25.673  13.920
86299W        W59367  16.608   7.089   0.694
86300W        W59368  21.058   1.930   3.171
86301W        W59369  37.456  16.135  14.625
86302W        W59370  13.103  34.860   2.465
86303W        W59371  38.501  31.825   4.609
86304W        W59372  25.092   1.505  14.567
86305W        W59373  22.540   5.734   1.343
86306W        W59374  32.870  38.263   2.940
86307W        W59375   6.382  19.806  13.924
86308W        W59376  43.274  22.121  12.524
86309W        W59377  44.922   4.625  12.502
86310W        W59378  30.427  13.689  11.583
86311W        W59379  37.939  42.797   2.745
86312W        W59380  11.586  18.509   2.271
86313W        W59381  10.586  20.259   1.076
86314W        W59382  21.620  16.774   1.259
86315W        W59383  19.741  42.452  11.618
86316W        W59384   0.820  34.066  12.853
86317W        W59385  15.154   8.072   1.324
86318W        W59386  23.945  18.214   2.786
86319W        W59387  24.493   8.298   0.928
86320W        W59388  14.705   5.194   2.299
86321W        W59389  31.367  16.243  11.508
86322W        W59390  20.354  23.554  12.763
86323W        W59391   1.909  10.584  13.072
86324W        W59392  11.445  17.766  11.541
86325W        W59393  30.856  32.165   2.748
86326W        W59394  13.689   6.826  13.540
86327W        W59395  25.599  15.387  11.172
86328W        W59396  24.775  26.209  11.088
86329W        W59397  10.743  39.534  13.338
86330W        W59398  38.726  19.701   0.839
86331W        W59399  25.787   9.646   4.998
86332W        W59400  33.132   4.630   1.428
86333W        W59401  26.934  10.393  12.280
86334W        W59402  42.506  39.540  12.077
86335W        W59403  39.455   8.773   3.234
86336W        W59404  34.466  12.869   3.244
86337W        W59405   6.167  23.005  13.552
86338W        W59406  21.583  35.848  13.593
86339W        W59407  11.145  14.491  14.345
86340W        W59408  42.028  17.123   4.996
86341W        W59409   5.628   6.204   0.571
86342W        W59410   9.058   9.095  14.973
86343W        W59411  34.955  37.629  10.596
86344W        W59412  39.346  36.614  13.271
86345W        W59413   0.551  30.938  12.373
86346W        W59414  15.322  38.528   2.194
86347W        W59415   0.847  11.639   2.616
86348W        W59416   8.671  19.660   2.202
86349W        W59417  26.685  24.553  14.345
86350W        W59418  44.245  26.969  13.342
86351W        W59419  40.014   7.504   4.229
86352W        W59420  29.971  22.984  14.723
86353W        W59421  20.134  16.282   1.338
86354W        W59422  44.821  12.506  14.349
86355W        W59423  28.058  27.038  13.394
86356W        W59424  43.402   3.257   1.890
86357W        W59425   2.598  23.358   4.181
86358W        W59426  27.551  37.093   4.217
86359W        W59427  21.942  16.671  11.502
86360W        W59428  13.912  28.448   0.820
86361W        W59429  12.325  39.917  14.769
86362W        W59430  17.031   3.363  13.117
86363W        W59431   6.959  33.366  12.475
86364W        W59432  14.607  33.467   4.038
86365W        W59433  32.771  12.082   3.335
86366W        W59434  42.456  29.629   3.206
86367W        W59435  35.574  10.237  12.363
86368W        W59436  42.889   8.199   1.775
86369W        W59437   8.379  17.833  14.449
86370W        W59438  35.998  23.964   4.804
86371W        W59439  39.132  20.175   4.841
86372W        W59440  10.439  42.846  12.842
86373W        W59441  35.858  17.922   2.652
86374W        W59442  37.314  36.550  14.825
86375W        W59443  39.149   1.593  12.372
86376W        W59444  24.996  16.197   3.118
86377W        W59445  22.302  33.462  12.078
86378W        W59446  42.057  10.265   4.596
86379W        W59447  26.296  43.448   0.323
86380W        W59448   4.313   3.092  13.310
86381W        W59449  33.833  11.176  13.402
86382W        W59450  29.567  36.737  10.851
86383W        W59451  10.295  21.466  14.450
86384W        W59452  39.575   7.619   0.404
86385W        W59453  44.184  12.623  12.087
86386W        W59454  43.928  22.578   0.767
86387W        W59455   9.318  36.411   4.718
86388W        W59456  12.611  37.804  12.981
86389W        W59457  34.618  18.141   3.355
86390W        W59458  18.652  37.971   2.567
86391W        W59459  40.641  10.495  13.998
86392W        W59460  22.968  39.401  14.744
86393W        W59461  30.403  37.542   1.687
86394W        W59462  40.050   8.755   2.722
86395W        W59463  13.408  35.535  11.129
86396W        W59464  27.636  35.422   2.727
86397W        W59465  20.533  23.251  14.824
86398W        W59466  22.763  11.510   1.127
86399W        W59467  39.505  34.043   3.187
86400W        W59468  29.744  42.953   4.326
86401W        W59469  14.767  14.828   1.262
86402W        W59470   3.515  43.355   0.439
86403W        W59471   4.878  10.223   1.911
86404W        W59472   5.273  37.260  14.208
86405W        W59473  25.717   5.141  11.540
86406W        W59474  35.587  20.497  12.413
86407W        W59475  12.292  44.478   0.795
86408W        W59476  38.787  22.439   0.755
86409W        W59477  29.272  37.551   4.120
86410W        W59478  16.471  43.945  14.864
86411W        W59479  31.202  20.257  12.473
86412W        W59480   2.885  31.835  14.922
86413W        W59481  10.829  27.767   3.462
86414W        W59482  26.931  21.023  12.412
86415W        W59483  13.809  42.370   3.895
86416W        W59484   0.485   4.877  14.878
86417W        W59485  16.497   0.309   3.261
86418W        W59486   7.378   2.250  14.260
86419W        W59487  11.974   8.139   1.329
86420W        W59488  40.233  27.077   3.549
86421W        W59489   4.906  24.004  13.926
86422W        W59490   2.299   6.654   4.405
86423W        W59491  30.060  18.112  13.386
86424W        W59492  19.673  12.157   2.024
86425W        W59493  32.389   7.896   4.208
86426W        W59494  33.080  27.590  12.067
86427W        W59495  10.384  44.700  10.224
86428W        W59496  39.902  27.988   2.767
86429W        W59497  36.002  16.579   3.243
86430W        W59498   4.313  38.857  12.424
86431W        W59499  16.654   9.395   1.765
86432W        W59500  44.421  42.725  14.329
86433W        W59501   6.475  30.740   3.170
86434W        W59502   6.568  11.730  12.942
86435W        W59503  20.493  25.950  10.807
86436W        W59504   5.417   7.281   4.998
86437W        W59505  17.666   2.243  10.885
86438W        W59506   5.733  43.817   4.459
86439W        W59507  29.433  35.595   4.234
86440W        W59508  22.992  21.338  12.431
86441W        W59509  12.841   0.764   3.307
86442W        W59510  29.528  12.361  13.326
86443W        W59511  16.750  30.628   2.416
86444W        W59512  38.000  18.183  14.209
86445W        W59513  32.896  17.004  13.938
86446W        W59514  27.488  16.769  11.432
86447W        W59515   1.708  29.132   0.870
86448W        W59516  35.081  32.333   0.349
86449W        W59517   2.006   3.360   3.740
86450W        W59518  36.609   9.753  10.516
86451W        W59519  16.549  41.362  10.962
86452W        W59520  26.439  21.295  13.833
86453W        W59521  35.057   9.101   0.251
86454W        W59522  11.102  35.822   1.929
86455W        W59523  38.093   6.264   2.610
86456W        W59524  12.179  13.060  11.534
86457W        W59525  13.705  15.608   0.743
86458W        W59526  43.370  34.927   4.314
86459W        W59527  19.576  13.397  11.358
86460W        W59528  14.171   5.373  14.663
86461W        W59529  31.468  29.622  13.024
86462W        W59530  35.511   1.978   4.012
86463W        W59531  39.626  30.023   4.150
86464W        W59532  40.323  32.851  14.944
86465W        W59533   9.610   8.660   3.326
86466W        W59534   6.657  37.571   2.298
86467W        W59535   2.213  19.875  14.296
86468W        W59536  38.520   4.423   4.473
86469W        W59537  41.489  19.704  12.511
86470W        W59538  42.292   6.168  14.562
86471W        W59539   5.161   8.580  11.996
86472W        W59540  38.884  16.073  14.291
86473W        W59541  25.129  17.198   4.110
86474W        W59542   8.666  15.600  13.831
86475W        W59543   5.769   2.964   0.168
86476W        W59544   3.840  21.409  12.000
86477W        W59545  21.623  25.952   3.876
86478W        W59546  36.180  44.109   1.358
86479W        W59547   1.265  40.363  11.494
86480W        W59548  38.508  23.238  14.740
86481W        W59549  44.781  26.155  11.977
86482W        W59550   3.956   7.201   2.463
86483W        W59551  24.493   8.312   4.399
86484W        W59552  26.706  26.439   2.829
86485W        W59553   7.700  26.304  11.485
86486W        W59554  34.830   8.590  11.170
86487W        W59555  40.574  34.148   1.277
86488W        W59556  42.469  14.057  13.052
86489W        W59557  25.491   5.220   1.322
86490W        W59558  40.498  43.976  13.691
86491W        W59559  41.972  42.853   0.226
86492W        W59560   3.385   4.746  13.755
86493W        W59561   8.151  38.477   3.717
86494W        W59562  12.219   0.217  14.842
86495W        W59563  43.057  24.678   1.165
86496W        W59564  21.423   4.320  11.113
86497W        W59565  28.049  24.800   3.841
86498W        W59566  30.778  16.555   1.318
86499W        W59567  37.942  18.004  14.736
86500W        W59568  16.361  27.154  14.845
86501W        W59569  20.886   0.633   3.264
86502W        W59570  33.171  37.931   3.216
86503W        W59571  21.709   3.877   4.142
86504W        W59572  17.535  25.456   0.398
86505W        W59573   6.616  39.956  14.684
86506W        W59574  23.618  32.005  14.336
86507W        W59575  20.196  21.241  11.548
86508W        W59576  14.577   1.028   1.455
86509W        W59577  30.506  32.696  10.771
86510W        W59578  33.666  39.058  14.339
86511W        W59579  42.961  33.400   3.299
86512W        W59580  38.510  19.572   2.396
86513W        W59581  26.773   0.686   4.131
86514W        W59582  14.410   4.366  11.875
86515W        W59583  27.242  38.618  14.540
86516W        W59584   0.327  11.726  13.401
86517W        W59585  43.456  13.800   1.950
86518W        W59586  33.922  44.613  14.388
86519W        W59587  10.343  39.475  14.476
86520W        W59588  23.172   6.595   0.429
86521W        W59589  27.062  19.619   5.055
86522W        W59590   3.470  22.429   3.622
86523W        W59591  28.056  13.446  11.100
86524W        W59592  30.697   5.149  10.630
86525W        W59593  10.375   9.485   3.383
86526W        W59594   9.987  15.502  13.445
86527W        W59595   0.424  40.120  12.390
86528W        W59596  30.080  25.905  14.792
86529W        W59597   8.257  14.093  14.268
86530W        W59598  31.456  21.341  11.640
86531W        W59599  27.209  21.862  12.117
86532W        W59600  13.340   1.560   2.742
86533W        W59601  26.447  12.619  14.539
86534W        W59602   1.960  37.720  11.625
86535W        W59603  33.647  11.198  11.100
86536W        W59604  16.809  11.276   2.807
86537W        W59605  31.153  27.166  11.065
86538W        W59606   5.368   9.406  11.378
86539W        W59607  20.695  26.119   4.672
86540W        W59608   6.413   1.811   3.168
86541W        W59609  36.245  32.220  12.837
86542W        W59610  28.629  24.176   4.480
86543W        W59611   3.279  30.038   2.323
86544W        W59612  11.428  42.912   0.459
86545W        W59613  43.950  35.195  11.203
86546W        W59614  31.907  19.003  13.554
86547W        W59615  26.969  17.636  11.606
86548W        W59616  10.392  36.858   2.462
86549W        W59617  22.238  11.641  14.325
86550W        W59618  13.260  17.069   1.683
86551W        W59619  36.113  18.587   0.882
86552W        W59620  20.869   9.717   4.582
86553W        W59621  31.506  22.469  12.266
86554W        W59622   1.646  17.058  12.179
86555W        W59623  31.468  20.196  11.572
86556W        W59624  35.421  38.907  12.340
86557W        W59625  30.920  12.338  14.861
86558W        W59626  30.743  23.745  13.859
86559W        W59627  29.319  12.851  12.597
86560W        W59628  41.307  33.178   3.806
86561W        W59629  11.343  44.578  14.895
86562W        W59630  41.893  28.988  10.181
86563W        W59631  25.465   4.686  11.525
86564W        W59632   3.734  16.221   1.931
86565W        W59633  25.043  41.823  10.594
86566W        W59634  11.102   4.667  14.757
86567W        W59635  17.232  44.173   2.178
86568W        W59636  18.018  16.989  11.563
86569W        W59637  20.909  40.928  11.058
86570W        W59638  28.966   5.470  12.506
86571W        W59639  27.949  33.645   2.867
86572W        W59640  26.074  13.601   1.868
86573W        W59641  10.792  39.271   2.697
86574W        W59642   4.146  10.288  12.598
86575W        W59643  37.054   4.939   4.174
86576W        W59644   7.852  44.214   4.153
86577W        W59645  27.195  21.290  14.486
86578W        W59646  25.925   2.057   2.810
86579W        W59647  21.988  32.064   1.490
86580W        W59648   9.163  38.439   3.697
86581W        W59649  22.022   0.340  13.496
86582W        W59650   5.529   4.708   4.328
86583W        W59651  21.246  40.530  14.423
86584W        W59652  33.436  10.935   1.710
86585W        W59653  34.940  39.224   0.456
86586W        W59654   6.380   6.833   1.398
86587W        W59655  43.987   8.245  11.093
86588W        W59656  26.180  17.492  10.972
86589W        W59657   4.959   1.519  12.086
86590W        W59658  13.506  42.451  11.665
86591W        W59659  29.459  34.576  13.406
86592W        W59660  21.188  26.151   3.660
86593W        W59661   3.842  23.964  13.343
86594W        W59662  39.457   1.244   3.852
86595W        W59663   5.700  26.720   1.269
86596W        W59664  30.632  37.795  11.496
86597W        W59665  32.717  36.092  13.010
86598W        W59666   3.336  43.099  14.891
86599W        W59667   0.897  28.643  12.352
86600W        W59668   0.580  34.627  12.494
86601W        W59669  16.199  32.449  10.645
86602W        W59670  19.738   7.927   4.547
86603W        W59671  15.129  29.676  10.404
86604W        W59672  32.035  29.904   3.191
86605W        W59673  21.875   7.137  11.191
86606W        W59674   0.835  24.482   2.891
86607W        W59675  40.040  33.807  10.642
86608W        W59676  43.110  14.909  11.064
86609W        W59677  31.445  28.017  12.509
86610W        W59678  29.985  36.123  10.619
86611W        W59679  18.002   4.627   3.041
86612W        W59680  32.060  31.016  14.748
86613W        W59681  37.365   6.310  12.910
86614W        W59682   1.003  20.039  14.548
86615W        W59683  20.116  29.192   0.218
86616W        W59684  40.956  23.696   0.447
86617W        W59685   0.865  40.326  14.608
86618W        W59686  21.224  27.865   5.014
86619W        W59687  38.568   0.210  13.338
86620W        W59688  23.551  41.540  11.114
86621W        W59689  41.803  35.411   1.395
86622W        W59690  22.460  32.425  11.780
86623W        W59691  40.239  22.055   1.843
86624W        W59692  21.076  13.293   3.846
86625W        W59693  33.629  28.404   4.513
86626W        W59694  19.100  13.237  11.892
86627W        W59695  36.853   9.675   4.950
86628W        W59696  20.150  12.181   0.014
86629W        W59697  43.814  25.913   2.266
86630W        W59698  34.986   9.333   4.106
86631W        W59699  27.365   3.578  13.346
86632W        W59700  44.896  30.880   0.049
86633W        W59701  34.220  20.165  11.926
86634W        W59702  42.929  27.093  13.002
86635W        W59703  43.953  27.718  11.212
86636W        W59704  33.929  21.487  11.711
86637W        W59705  18.554  28.736  14.017
86638W        W59706  37.286   3.943   2.588
86639W        W59707  15.909  38.958  14.512
86640W        W59708  11.857   9.926  10.511
86641W        W59709  31.972  44.676  14.059
86642W        W59710  28.506  25.062  13.593
86643W        W59711  44.751   2.876   0.518
86644W        W59712  12.732  12.186  12.993
86645W        W59713  11.743  41.224   1.350
86646W        W59714   1.746  16.664  13.677
86647W        W59715  38.022  23.575  13.486
86648W        W59716   7.909   5.151   0.060
86649W        W59717  16.168  34.603   3.547
86650W        W59718  40.504   1.297   3.803
86651W        W59719  43.263   6.066  11.131
86652W        W59720  21.288  33.052   0.822
86653W        W59721  25.514  35.579  14.537
86654W        W59722   0.721  42.679   1.388
86655W        W59723  11.252  39.423   0.264
86656W        W59724  24.034  13.335  13.931
86657W        W59725  24.758  26.872   2.278
86658W        W59726  13.301  43.904   0.899
86659W        W59727  36.144  27.572  10.755
86660W        W59728  19.043  16.879   0.713
86661W        W59729  27.769  40.331  11.669
86662W        W59730  35.058   7.889  12.361
86663W        W59731  41.797  33.933  12.057
86664W        W59732  31.694  36.677   2.613
86665W        W59733  41.390  32.557   2.478
86666W        W59734  21.283   1.693   3.791
86667W        W59735  34.843  34.096   1.994
86668W        W59736  21.306  21.578   3.938
86669W        W59737  20.520  19.156  14.316
86670W        W59738  14.052   6.884   3.782
86671W        W59739  18.203  29.445   0.229
86672W        W59740  39.110   8.737   0.369
86673W        W59741   8.310  19.550   0.746
86674W        W59742  31.114  12.764   1.749
86675W        W59743  37.846  44.235  13.918
86676W        W59744  41.534  42.060   1.380
86677W        W59745   2.900   8.705   3.852
86678W        W59746  26.084  12.807  12.106
86679W        W59747  27.550  33.963   2.684
86680W        W59748  40.836   4.966  13.548
86681W        W59749   5.316  18.870  12.388
86682W        W59750  34.957  12.211   3.728
86683W        W59751  28.034   9.356   3.824
86684W        W59752  20.299   8.667   2.720
86685W        W59753  44.314   0.458  10.152
86686W        W59754  18.725  24.734   0.737
86687W        W59755  17.257  42.764   2.395
86688W        W59756  34.102   3.921  12.408
86689W        W59757  14.282   3.816  14.306
86690W        W59758   4.905  22.760   4.172
86691W        W59759  20.039  14.091   1.403
86692W        W59760  40.892  12.875   2.433
86693W        W59761   0.298  28.532   1.926
86694W        W59762  37.627  12.076  10.985
86695W        W59763  33.821  32.257   2.130
86696W        W59764  16.660   3.638  14.492
86697W        W59765   8.304   7.863   0.962
86698W        W59766   3.798   3.735  12.034
86699W        W59767  31.029   7.567   2.896
86700W        W59768  16.177  16.829  11.631
86701W        W59769  42.832  39.255   3.802
86702W        W59770  21.211  15.614   0.644
86703W        W59771  28.239  30.491  12.017
86704W        W59772   8.936   6.679   4.583
86705W        W59773  31.673  10.274   0.824
86706W        W59774  19.112   5.777   3.725
86707W        W59775  21.014  38.540  10.723
86708W        W59776   0.949   4.313  10.966
86709W        W59777  22.764  15.535  13.227
86710W        W59778  38.909  41.833  13.113
86711W        W59779   0.719  44.059   1.818
86712W        W59780  32.814  40.015   4.147
86713W        W59781   6.703  23.615   1.137
86714W        W59782  38.390  12.768   2.293
86715W        W59783  40.484  42.783   0.686
86716W        W59784  25.032  44.084  13.560
86717W        W59785  19.123  18.951   1.385
86718W        W59786   1.690  28.074  10.674
86719W        W59787   7.594  35.890   0.178
86720W        W59788  32.726   5.027  10.071
86721W        W59789   3.291  42.508  12.206
86722W        W59790  36.699  26.967   4.040
86723W        W59791  31.993  30.877   0.263
86724W        W59792  13.294  34.678  11.286
86725W        W59793  33.528  27.064  12.560
86726W        W59794  41.838  37.258   4.206
86727W        W59795   0.836  30.965   2.836
86728W        W59796   9.248  18.795   4.233
86729W        W59797  25.735  29.774   3.145
86730W        W59798  38.863  25.734  13.464
86731W        W59799  41.877  31.365   2.302
86732W        W59800  10.448  10.681   1.409
86733W        W59801  13.708   9.970   4.059
86734W        W59802  25.526  12.495   9.563
86735W        W59803  23.756  41.841   1.869
86736W        W59804  23.819  35.023  13.752
86737W        W59805  14.283   6.903  11.297
86738W        W59806  33.389  25.200   4.371
86739W        W59807  36.382   5.275  14.091
86740W        W59808  29.889  26.644   0.230
86741W        W59809  22.258  10.096  10.743
86742W        W59810  18.111  35.393  10.409
86743W        W59811  39.475  23.296  13.941
86744W        W59812   9.265  36.525  13.281
86745W        W59813  29.306  14.144  12.841
86746W        W59814  22.606   7.763   4.528
86747W        W59815  35.394  35.044   4.705
86748W        W59816  26.647   5.900   0.147
86749W        W59817  44.273  24.477   0.790
86750W        W59818  22.916   0.195   1.996
86751W        W59819  14.927   8.379   4.794
86752W        W59820  42.049   4.297  13.673
86753W        W59821  43.339  26.128   2.345
86754W        W59822   8.264  23.546   2.061
86755W        W59823  11.508  22.203  14.455
86756W        W59824  41.035  34.061   4.148
86757W        W59825  37.508  26.016  10.765
86758W        W59826  29.215  21.941   3.317
86759W        W59827  36.685   2.296  10.740
86760W        W59828  22.369  32.461   0.310
86761W        W59829  10.496  29.506   3.770
86762W        W59830  33.012  34.614  10.691
86763W        W59831  17.785   0.274  12.187
86764W        W59832   3.243  25.009  11.112
86765W        W59833   7.660  31.470  13.809
86766W        W59834   8.179   5.065  10.732
86767W        W59835   8.021  33.087  12.786
86768W        W59836  30.063   7.322   1.118
86769W        W59837  19.275  23.311  11.169
86770W        W59838  40.467  31.552   2.786
86771W        W59839  11.478  18.110   3.080
86772W        W59840   8.096  19.534   1.603
86773W        W59841  10.661  36.940  12.301
86774W        W59842   0.014  35.438  12.484
86775W        W59843  25.902  22.493  13.348
86776W        W59844  29.365   3.983  12.911
86777W        W59845  36.945  13.376   2.318
86778W        W59846  32.567  30.904  14.857
86779W        W59847   7.366  31.146   3.109
86780W        W59848  33.118  24.486  14.954
86781W        W59849   8.606  16.836   4.788
86782W        W59850   8.380  37.250   4.076
86783W        W59851   7.616  35.411  11.093
86784W        W59852  20.503   7.238  10.723
86785W        W59853  11.162  28.743  11.046
86786W        W59854  35.497  33.159  12.036
86787W        W59855   7.777   9.777   4.837
86788W        W59856  22.431   1.835  13.575
86789W        W59857  20.691  24.561  10.532
86790W        W59858   9.028  18.751   3.702
86791W        W59859  12.794  24.701   1.257
86792W        W59860   0.821  10.103   0.914
86793W        W59861   0.217  12.802   1.954
86794W        W59862  37.951  39.253  11.557
86795W        W59863  35.128   0.025   3.826
86796W        W59864  15.628   7.685  12.671
86797W        W59865  34.440  15.490   2.310
86798W        W59866  13.317  21.583  13.326
86799W        W59867  26.997   5.639   1.809
86800W        W59868  12.296   8.288  12.028
86801W        W59869  34.956   3.782   4.714
86802W        W59870   5.363  18.061   2.560
86803W        W59871   8.237  38.056  11.325
86804W        W59872  17.069  40.318   5.143
86805W        W59873  13.659  40.809   2.472
86806W        W59874  31.520  28.027  14.566
86807W        W59875  16.178  33.370  13.006
86808W        W59876  13.663  11.784  13.250
86809W        W59877  24.251  11.392   0.630
86810W        W59878  43.703  20.673  12.461
86811W        W59879  14.343  20.507   1.721
86812W        W59880   7.800  40.073   3.268
86813W        W59881   9.786  24.575   0.854
86814W        W59882  11.010  36.286  11.047
86815W        W59883  28.064  11.909  12.992
86816W        W59884  44.541  15.400  10.778
86817W        W59885  22.416  24.471   4.138
86818W        W59886  37.412   4.222  11.331
86819W        W59887  37.596  35.155   3.152
86820W        W59888  43.304  43.443  10.965
86821W        W59889  26.286  44.845   4.941
86822W        W59890  36.623   9.007  11.967
86823W        W59891  43.267   7.828  14.172
86824W        W59892  13.124   4.306   4.574
86825W        W59893  22.951   0.474   0.544
86826W        W59894  32.531  39.958   0.175
86827W        W59895  35.302   1.729   3.153
86828W        W59896  25.204  20.658  12.009
86829W        W59897  23.023  20.238   0.777
86830W        W59898  30.932  12.719  12.404
86831W        W59899  23.737  32.486  12.053
86832W        W59900  43.824  25.987   4.700
86833W        W59901  28.301  39.005   2.151
86834W        W59902   9.698  14.210  10.473
86835W        W59903   0.561  14.106   2.590
86836W        W59904  39.456  23.791  11.599
86837W        W59905  20.827  39.173  14.325
86838W        W59906  11.776   8.123  12.872
86839W        W59907  18.817  10.414   1.218
86840W        W59908   3.795  43.273   1.478
86841W        W59909   8.795  31.166  10.587
86842W        W59910  24.085  29.344  11.942
86843W        W59911  27.801  32.252  10.214
86844W        W59912  24.460   8.435   4.894
86845W        W59913  22.025  44.409  13.305
86846W        W59914  16.313   0.319  10.751
86847W        W59915   4.235  34.792   0.388
86848W        W59916   5.671  39.291   3.196
86849W        W59917  23.511  19.601   1.915
86850W        W59918  38.050  28.037   2.659
86851W        W59919  39.343  31.371  12.953
86852W        W59920  38.302  41.646   0.897
86853W        W59921   1.709   1.882   4.387
86854W        W59922  44.781  21.533   0.919
86855W        W59923  42.964  14.660  12.408
86856W        W59924  33.579  13.737  11.566
86857W        W59925   0.811  42.457   0.476
86858W        W59926  15.184  39.808  14.839
86859W        W59927   8.188  36.411  14.302
86860W        W59928  21.496  13.900   1.883
86861W        W59929  21.232  20.168   2.269
86862W        W59930   1.550  29.503   2.042
86863W        W59931  43.317  21.172  10.892
86864W        W59932  13.798  36.577   4.619
86865W        W59933  40.103  27.473  10.872
86866W        W59934  28.554  22.561   3.148
86867W        W59935  25.096  36.574   1.100
86868W        W59936  44.083  44.125  11.117
86869W        W59937   3.982  24.758  12.106
86870W        W59938  36.554   0.800  13.165
86871W        W59939  36.897   7.205   0.259
86872W        W59940  20.260   2.087  13.392
86873W        W59941  33.857  22.968   2.677
86874W        W59942  14.169  28.273   1.799
86875W        W59943  43.437   6.351   0.064
86876W        W59944  25.252  15.705  14.236
86877W        W59945  38.541   2.465   0.714
86878W        W59946  44.441  30.146  11.244
86879W        W59947  25.772  19.208   0.845
86880W        W59948  12.647  33.344  13.448
86881W        W59949  17.139  37.934  12.946
86882W        W59950  42.795  41.079   3.565
86883W        W59951  26.254   6.535   0.630
86884W        W59952  35.816   8.905   4.633
86885W        W59953  36.395  27.017  13.106
86886W        W59954   8.336  41.095  10.280
86887W        W59955  36.241  27.537   4.552
86888W        W59956   4.967  29.371  12.046
86889W        W59957  11.027  28.186  11.727
86890W        W59958   0.693  14.067  11.191
86891W        W59959  17.365  37.144  11.698
86892W        W59960   8.336  32.843  12.457
86893W        W59961  42.136  25.669   4.111
86894W        W59962  16.264  14.151  10.744
86895W        W59963   7.709  38.634   1.240
86896W        W59964   0.522  20.276   4.011
86897W        W59965  21.728  12.287  14.558
86898W        W59966  14.964  17.347  12.175
86899W        W59967   8.444  19.276   3.401
86900W        W59968  30.087  27.972   1.035
86901W        W59969  20.636  22.908   3.802
86902W        W59970  30.662  31.603  11.525
86903W        W59971  44.269  14.601   2.800
86904W        W59972  29.096  15.492   2.353
86905W        W59973  15.743  12.211   1.136
86906W        W59974   4.829  28.563   3.835
86907W        W59975  19.564  19.855  12.067
86908W        W59976  42.416  39.804  11.535
86909W        W59977  25.600   8.929  10.754
86910W        W59978  28.592  27.426   0.437
86911W        W59979  24.683  24.355  12.077
86912W        W59980  21.667   2.459   0.612
86913W        W59981  18.576  44.456   2.879
86914W        W59982  37.085  18.946  13.544
86915W        W59983   3.660   7.113  10.811
86916W        W59984  27.532  43.949  12.441
86917W        W59985  31.523  41.710  12.983
86918W        W59986   2.795  34.826   0.766
86919W        W59987  42.353  24.418   2.372
86920W        W59988  13.363  28.483   2.417
86921W        W59989  13.110  23.667  11.672
86922W        W59990  30.426   4.770  10.851
86923W        W59991  18.675  38.069   4.651
86924W        W59992  11.941  39.956  13.009
86925W        W59993  40.493   2.182   0.902
86926W        W59994  13.299   2.866   1.937
86927W        W59995  25.434  29.060  12.941
86928W        W59996  38.779  32.742   0.993
86929W        W59997  11.159  31.051   4.201
86930W        W59998  35.255  15.204   4.784
86931W        W59999  26.046   8.917   2.426
86932W        W60000  22.561  17.388   0.966
86933W        W60001  24.141  24.100  10.984
86934W        W60002  44.825  14.840  14.939
86935W        W60003  16.955  14.687  14.359
86936W        W60004  42.840  19.560  14.836
86937W        W60005  30.639  12.324   0.323
86938W        W60006  35.272   7.635  11.987
86939W        W60007   8.731   0.216  13.091
86940W        W60008   6.427  33.099  12.051
86941W        W60009  18.851  21.135   5.058
86942W        W60010  39.073  42.014   2.745
86943W        W60011  14.619  29.504   1.595
86944W        W60012  39.815  23.408   2.745
86945W        W60013   8.902  44.827   3.435
86946W        W60014  35.068   1.214   1.784
86947W        W60015  10.922  33.314   1.739
86948W        W60016   9.789  34.427  14.932
86949W        W60017   3.415   5.628  10.715
86950W        W60018   4.917  32.374  14.574
86951W        W60019  40.196  30.667  11.194
86952W        W60020   9.742  19.612  14.864
86953W        W60021   3.252   3.460   3.108
86954W        W60022   6.832  30.598   2.270
86955W        W60023  27.143  16.246  14.967
86956W        W60024  16.917  27.321   4.179
86957W        W60025  14.600   0.421   3.613
86958W        W60026  34.549  13.097  13.336
86959W        W60027  19.770  38.990   1.353
86960W        W60028   1.972  10.267  11.654
86961W        W60029  27.042  28.259  14.753
86962W        W60030   5.816   5.389   3.460
86963W        W60031   6.025  14.138  13.527
86964W        W60032  14.347   0.449   3.147
86965W        W60033  44.274  21.513   0.815
86966W        W60034  17.742  22.060  11.067
86967W        W60035  28.575  18.696   0.268
86968W        W60036  34.572  27.027   0.574
86969W        W60037  19.462  26.657   3.649
86970W        W60038  30.516  29.739   2.685
86971W        W60039   5.202  19.814  10.609
86972W        W60040  16.118   8.079  13.813
86973W        W60041  15.267  44.101   1.050
86974W        W60042  18.221   6.213   0.430
86975W        W60043  44.825  30.683  10.696
86976W        W60044  22.964   8.605   1.891
86977W        W60045  14.644  44.030  10.558
86978W        W60046  26.768  40.562   0.274
86979W        W60047   7.264  33.191   0.026
86980W        W60048  22.650   2.695  10.661
86981W        W60049  36.492  30.174   2.229
86982W        W60050   2.947   4.916  12.296
86983W        W60051  36.579  44.848   2.519
86984W        W60052  38.961  41.334   0.830
86985W        W60053  43.553  18.733   0.247
86986W        W60054  32.151  40.485  10.392
86987W        W60055  44.569   3.318  12.625
86988W        W60056  30.861   7.258  14.066
86989W        W60057  32.372  37.452   0.389
86990W        W60058   1.862  44.736   3.231
86991W        W60059  13.739  30.455  12.976
86992W        W60060  41.773   4.683  12.499
86993W        W60061   4.522   3.275   3.819
86994W        W60062  10.653  24.942   1.690
86995W        W60063  35.867  27.473  12.912
86996W        W60064  21.722  14.192  13.107
86997W        W60065  10.711  20.895   3.683
86998W        W60066  44.027  43.078  11.008
86999W        W60067  40.465   2.369   1.424
87000W        W60068  12.568   2.283  12.976
87001W        W60069   0.471  43.674   0.428
87002W        W60070   1.442  23.809   0.168
87003W        W60071  35.999  23.639   1.192
87004W        W60072  14.660  43.236   3.825
87005W        W60073  31.640  12.603  12.767
87006W        W60074   4.288  25.997   3.750
87007W        W60075  27.400  24.119  11.049
87008W        W60076   9.698  35.840  11.684
87009W        W60077  33.607   5.477   3.237
87010W        W60078  20.978   6.635  13.993
87011W        W60079   4.947   5.241  14.221
87012W        W60080  43.103  27.026  13.932
87013W        W60081  18.527   1.165   1.578
87014W        W60082  38.541  31.892   1.276
87015W        W60083  44.326  40.864   4.679
87016W        W60084  27.905  13.759  12.979
87017W        W60085   8.112   8.684   5.110
87018W        W60086  41.597  31.052  11.470
87019W        W60087  23.444  39.411   1.406
87020W        W60088  39.589   0.301   3.625
87021W        W60089  14.064  12.738  13.051
87022W        W60090  12.588  29.947  12.356
87023W        W60091  42.352  33.284  12.880
87024W        W60092  29.396  34.952  10.602
87025W        W60093  29.598  11.165  12.543
87026W        W60094  44.519  30.738  12.018
87027W        W60095  39.780   4.155  12.931
87028W        W60096  15.149  13.016   3.440
87029W        W60097   7.748  13.031   4.669
87030W        W60098   2.362   3.145  10.466
87031W        W60099  30.388  20.457  12.092
87032W        W60100  38.105  10.274  14.306
87033W        W60101   2.977   7.879   2.669
87034W        W60102   4.242  11.876  14.273
87035W        W60103  20.218  16.727   4.344
87036W        W60104   3.338  15.963  14.338
87037W        W60105  37.341  33.668   0.179
87038W        W60106   7.177   5.547   2.655
87039W        W60107   1.519  42.380  14.744
87040W        W60108  29.914  13.618  12.447
87041W        W60109   7.305  40.460  13.823
87042W        W60110  25.685  15.159   1.148
87043W        W60111  42.951  21.522  14.904
87044W        W60112   2.164   2.893  12.029
87045W        W60113   7.440   5.528  12.941
87046W        W60114   3.235  41.452   4.046
87047W        W60115  10.821  10.726  10.555
87048W        W60116   0.242  42.387   4.895
87049W        W60117  33.168  14.066   2.658
87050W        W60118  18.958  25.951   1.892
87051W        W60119   7.650  31.456   2.796
87052W        W60120   0.965  44.405   4.171
87053W        W60121  19.121   8.231   4.598
87054W        W60122  26.660  16.309  10.757
87055W        W60123  41.791  34.377   3.284
87056W        W60124  12.339  32.512  11.541
87057W        W60125  12.086  18.743  12.955
87058W        W60126   1.989  16.222  13.508
87059W        W60127  17.799  44.550   2.763
87060W        W60128  34.895  44.671  11.979
87061W        W60129  28.576  42.388  11.194
87062W        W60130  15.301  22.951   1.906
87063W        W60131  40.967   0.061  12.743
87064W        W60132  30.390   2.472   0.193
87065W        W60133   6.707   2.925  10.689
87066W        W60134  35.373  21.685   4.889
87067W        W60135   9.693  33.185  11.785
87068W        W60136  24.868  24.739   3.176
87069W        W60137  39.858  34.051  14.507
87070W        W60138   1.035  43.385  13.898
87071W        W60139   3.614  19.822  11.220
87072W        W60140  32.624  40.444   3.316
87073W        W60141  34.260  34.167  11.083
87074W        W60142  16.264  35.585   1.855
87075W        W60143  21.617  23.468  13.461
87076W        W60144  33.925  32.925   4.776
87077W        W60145  29.959  44.296  13.341
87078W        W60146  20.487  20.209  14.531
87079W        W60147  42.857  26.012  13.911
87080W        W60148  39.284  11.222   3.623
87081W        W60149  26.428  23.587   2.944
87082W        W60150  41.662  39.840   4.316
87083W        W60151  15.129  36.819   1.431
87084W        W60152  32.438  19.173   4.509
87085W        W60153  38.276  38.424  14.779
87086W        W60154   4.484  41.867   4.267
87087W        W60155  32.372   6.030  12.914
87088W        W60156  37.964  21.924  14.013
87089W        W60157  27.200  14.678  11.155
87090W        W60158   8.744   8.535  11.794
87091W        W60159  13.291  11.826  14.443
87092W        W60160   8.614  35.508   4.627
87093W        W60161   8.886  34.279  14.952
87094W        W60162  28.619   3.287   0.146
87095W        W60163  44.770  20.731   2.781
87096W        W60164  44.439  22.255   3.173
87097W        W60165  13.096  32.429   3.522
87098W        W60166  11.358  43.403  13.065
87099W        W60167  13.253  43.093   0.312
87100W        W60168  41.821  18.137   4.082
87101W        W60169  30.174  13.029  10.713
87102W        W60170  12.321  31.068   2.146
87103W        W60171  28.390  16.659   3.147
87104W        W60172  23.460   3.399   0.925
87105W        W60173  17.736  19.690   3.278
87106W        W60174  13.856  16.236  14.577
87107W        W60175   7.965  24.969   4.977
87108W        W60176  31.569  31.285  14.487
87109W        W60177  44.776  21.712  13.811
87110W        W60178  31.533  43.314   0.312
87111W        W60179  40.465   3.731  11.226
87112W        W60180  27.265  24.047  14.883
87113W        W60181  33.839  44.511  10.113
87114W        W60182  25.598   4.839   3.711
87115W        W60183  25.681  32.085   3.619
87116W        W60184   4.142  14.748   3.269
87117W        W60185  12.796  23.510   2.832
87118W        W60186  16.807  26.665  10.235
87119W        W60187  22.199  17.012  12.449
87120W        W60188  38.456  28.078   2.982
87121W        W60189  35.603  13.597  14.306
87122W        W60190  11.343  19.179   9.795
87123W        W60191  38.079  41.667  13.025
87124W        W60192   2.990  35.519  14.372
87125W        W60193  24.731  38.374   3.178
87126W        W60194  39.982  32.538  14.706
87127W        W60195  43.011  10.756   2.177
87128W        W60196  41.806  41.803   1.736
87129W        W60197  23.501  16.570   1.771
87130W        W60198  29.450   8.240  13.568
87131W        W60199  22.052  21.108  11.117
87132W        W60200  33.967  40.924   4.842
87133W        W60201   7.551   2.964  14.463
87134W        W60202  11.178  12.806   0.410
87135W        W60203  25.908  43.512  11.802
87136W        W60204  41.451  30.091  10.827
87137W        W60205  34.648  11.769   1.474
87138W        W60206  21.581  30.373   4.595
87139W        W60207   7.651  20.002  13.324
87140W        W60208  31.503  24.198   2.756
87141W        W60209  11.787   9.255  13.850
87142W        W60210  38.761  35.523   4.229
87143W        W60211   6.979  12.103   0.402
87144W        W60212  36.087  10.592   3.888
87145W        W60213  33.213  25.036   2.577
87146W        W60214  34.033  35.374   1.471
87147W        W60215  10.362  43.777   0.747
87148W        W60216   1.181  24.070   3.658
87149W        W60217  23.564   6.267  12.188
87150W        W60218  39.972  14.598  11.497
87151W        W60219  39.996  13.986   5.248
87152W        W60220  32.051  12.174  11.138
87153W        W60221   5.179  13.135  13.541
87154W        W60222   8.575  31.110   0.190
87155W        W60223  13.325  33.042  12.809
87156W        W60224  28.697   0.911  10.974
87157W        W60225  15.420  40.114  10.335
87158W        W60226  20.004  10.412  12.924
87159W        W60227   6.337   9.295  10.927
87160W        W60228  40.627  17.987   3.396
87161W        W60229  15.275   6.893   4.624
87162W        W60230   9.380  10.661  12.621
87163W        W60231  20.208  44.968  10.852
87164W        W60232   7.838   9.362   0.483
87165W        W60233  43.521  25.011  14.406
87166W        W60234   1.283   3.718  12.928
87167W        W60235  11.789  15.357   3.075
87168W        W60236  16.244  16.209   4.489
87169W        W60237  35.045  43.443   1.148
87170W        W60238   1.037  37.251  11.597
87171W        W60239  15.251  36.497   3.372
87172W        W60240  17.627  27.739   1.811
87173W        W60241  21.497  44.349   3.292
87174W        W60242  42.611  31.116  12.592
87175W        W60243  13.306  20.512  12.439
87176W        W60244  30.939  21.644   4.670
87177W        W60245  29.515   5.481  11.212
87178W        W60246   5.166  17.817   1.308
87179W        W60247   5.300  34.755   2.585
87180W        W60248  23.520  18.316  11.573
87181W        W60249  16.745  33.139  12.613
87182W        W60250   4.191  11.248  12.532
87183W        W60251   4.224   8.849   3.304
87184W        W60252  35.527   7.725   1.723
87185W        W60253  40.814  22.655  11.228
87186W        W60254  35.277   6.380  14.718
87187W        W60255  44.986   1.144   2.670
87188W        W60256  33.721  28.393   3.781
87189W        W60257  26.543   2.769  12.585
87190W        W60258  22.227  15.916  13.811
87191W        W60259  23.967  12.176   3.251
87192W        W60260  43.262  30.513  11.545
87193W        W60261   4.901  18.023  12.454
87194W        W60262   1.707   8.787  13.356
87195W        W60263  42.837   9.658  10.769
87196W        W60264  16.843   0.972   3.098
87197W        W60265   0.379  32.899  14.585
87198W        W60266   1.717  37.463   2.713
87199W        W60267  16.795  28.036  12.448
87200W        W60268   7.601  10.546  12.951
87201W        W60269  30.001  27.776  10.772
87202W        W60270  16.995  27.532  12.532
87203W        W60271   4.471   7.260   2.410
87204W        W60272  32.506   5.193  13.419
87205W        W60273  40.347  15.595  13.405
87206W        W60274  25.196  36.828  14.397
87207W        W60275  43.224  15.540   0.377
87208W        W60276  34.394   0.361   0.377
87209W        W60277  23.124  42.263  10.722
87210W        W60278  38.840  41.009   3.805
87211W        W60279  20.291  29.391  14.276
87212W        W60280  42.423  21.415   0.658
87213W        W60281  36.815  35.115   4.668
87214W        W60282   7.259   0.711  11.387
87215W        W60283  32.664  42.758   2.827
87216W        W60284  14.190  40.338   3.180
87217W        W60285  34.632  31.358  13.888
87218W        W60286   2.174  38.010   0.983
87219W        W60287  43.991  35.110  13.495
87220W        W60288  41.917  36.586  13.091
87221W        W60289  35.703  29.534  13.823
87222W        W60290  41.777  37.870   1.909
87223W        W60291  32.647  17.272   4.660
87224W        W60292  41.987  23.447   3.334
87225W        W60293  32.928  21.221   4.654
87226W        W60294  10.656  24.248   3.614
87227W        W60295   2.746  34.738  11.518
87228W        W60296   7.863   7.943   2.903
87229W        W60297  35.569   7.543  13.399
87230W        W60298  24.556  44.362  10.678
87231W        W60299  34.405  35.477  11.141
87232W        W60300  23.122   7.554   3.194
87233W        W60301  19.987   4.646  12.611
87234W        W60302  36.422  29.128  11.593
87235W        W60303  21.605  17.057   0.809
87236W        W60304  30.548  19.669   3.662
87237W        W60305   0.619  25.830   2.698
87238W        W60306  43.542   9.864   1.368
87239W        W60307  38.492  18.762   1.194
87240W        W60308  22.709  16.531   4.224
87241W        W60309  42.572  10.241   3.201
87242W        W60310   0.409  40.078   0.379
87243W        W60311  38.369  25.927   1.677
87244W        W60312  36.795  20.563   4.120
87245W        W60313  41.073   3.359   3.196
87246W        W60314  22.007  21.301  12.442
87247W        W60315  33.000  37.266  12.745
87248W        W60316  15.887  17.682   1.723
87249W        W60317  36.460   9.359  11.204
87250W        W60318  17.683  13.587   3.496
87251W        W60319  35.119  10.464   0.767
87252W        W60320  19.573  41.496   2.216
87253W        W60321  11.438  40.996  10.070
87254W        W60322  15.886  17.643  14.776
87255W        W60323  15.628  27.729  13.411
87256W        W60324  23.034   2.915   1.638
87257W        W60325   0.763  29.489  12.003
87258W        W60326   0.098  34.215   3.741
87259W        W60327  19.782   6.293  12.114
87260W        W60328  30.979   4.258   4.118
87261W        W60329  20.667  22.758  13.931
87262W        W60330  20.346  23.573  10.832
87263W        W60331  43.274   9.673   2.718
87264W        W60332  35.155   5.801   0.844
87265W        W60333  14.571   3.828  11.122
87266W        W60334   0.787  43.887  13.085
87267W        W60335   6.797  26.680  10.294
87268W        W60336   0.632  11.870   3.731
87269W        W60337  22.061  12.636   0.807
87270W        W60338  13.355  30.976   3.295
87271W        W60339  12.006  29.499  12.872
87272W        W60340  33.394  13.616  14.324
87273W        W60341  16.631  19.644   3.896
87274W        W60342  24.601  23.430  11.177
87275W        W60343  24.193  25.109   4.905
87276W        W60344  43.871  29.881   3.372
87277W        W60345  27.584  26.623  13.799
87278W        W60346  30.227  26.851   0.755
87279W        W60347   7.825  33.071   2.151
87280W        W60348   7.914  39.395  13.031
87281W        W60349  26.078   9.410   0.790
87282W        W60350  14.356  31.810   0.695
87283W        W60351  20.220  17.801   2.312
87284W        W60352  30.196  17.699   1.426
87285W        W60353  21.818  25.393   0.633
87286W        W60354  22.901  32.197   0.784
87287W        W60355  18.167  38.970   0.042
87288W        W60356   7.290   0.428  13.381
87289W        W60357   0.207   6.577   0.426
87290W        W60358  36.614  18.603  14.920
87291W        W60359  39.777   1.265   4.237
87292W        W60360  42.950  19.569   0.864
87293W        W60361   4.075  24.561  13.992
87294W        W60362  31.636  38.292  12.637
87295W        W60363  40.583   6.615  12.949
87296W        W60364  42.144  16.319   1.237
87297W        W60365  18.932  27.260  11.986
87298W        W60366  24.249   9.017  10.255
87299W        W60367  32.970  41.377   4.386
87300W        W60368  31.672   7.784  13.135
87301W        W60369  43.346  20.150   2.738
87302W        W60370  40.558  22.755   9.932
87303W        W60371  42.684  12.185   2.154
87304W        W60372  14.685  11.344   3.734
87305W        W60373  12.197  42.478   1.807
87306W        W60374  32.624  36.383   2.852
87307W        W60375  31.890   8.734   4.094
87308W        W60376  16.088  39.457  13.289
87309W        W60377  19.509  21.088   1.404
87310W        W60378  11.173  35.292   2.629
87311W        W60379  24.671  13.735   1.436
87312W        W60380  22.802   2.468   4.103
87313W        W60381   1.730   9.409   2.718
87314W        W60382   9.114   4.187   4.102
87315W        W60383  13.475  34.753  10.470
87316W        W60384  27.854  11.848   3.214
87317W        W60385  38.898  14.355  11.293
87318W        W60386  40.007  43.983  13.895
87319W        W60387   9.196  12.591  11.225
87320W        W60388  11.663  19.399   0.809
87321W        W60389  16.633  17.243   1.966
87322W        W60390  44.920  28.235  11.012
87323W        W60391  39.759   2.024   0.410
87324W        W60392  16.725   1.520   2.270
87325W        W60393  30.649  11.803   0.288
87326W        W60394  25.041  27.857  11.629
87327W        W60395   0.427   0.156   4.194
87328W        W60396  17.259   1.113  14.069
87329W        W60397  29.214  28.461  13.004
87330W        W60398   8.692  42.069  14.815
87331W        W60399  24.897   1.668  11.983
87332W        W60400   6.232  28.719   0.680
87333W        W60401  42.009  18.592   0.763
87334W        W60402  17.719  34.092   0.961
87335W        W60403  32.370  30.024   1.781
87336W        W60404  36.614  35.585  14.303
87337W        W60405   3.269  22.670   4.521
87338W        W60406  13.543   9.217  11.962
87339W        W60407  25.913  40.741   0.461
87340W        W60408  25.035  42.453   0.184
87341W        W60409  23.604   6.588   2.370
87342W        W60410  22.142  23.772  11.080
87343W        W60411  41.564  20.996  12.898
87344W        W60412   8.162  11.214   2.281
87345W        W60413  36.183  21.502  11.157
87346W        W60414  22.023  44.718   1.018
87347W        W60415   1.446   0.058  13.996
87348W        W60416  21.474  18.669  14.562
87349W        W60417   7.696  18.988   2.909
87350W        W60418  25.861  15.637  10.589
87351W        W60419  12.638  34.679   2.171
87352W        W60420   3.680  31.564   0.526
87353W        W60421   8.730  37.595  14.722
87354W        W60422  27.101  44.082   4.990
87355W        W60423  22.142  22.059   3.635
87356W        W60424  36.015  24.774   0.313
87357W        W60425  29.339  37.662   2.719
87358W        W60426   0.443   1.533  11.999
87359W        W60427  26.456  33.511   1.284
87360W        W60428  14.470  39.107  14.796
87361W        W60429  31.847  17.258  13.974
87362W        W60430   4.478  38.004   2.861
87363W        W60431  16.824  11.665   0.699
87364W        W60432  26.642  33.748  11.580
87365W        W60433   2.847  43.389  10.681
87366W        W60434  23.106  24.012  12.987
87367W        W60435  33.870  41.529   0.942
87368W        W60436  33.082  13.276   0.469
87369W        W60437   0.879  21.703   0.312
87370W        W60438  37.673  30.830   4.229
87371W        W60439   9.379   8.236   3.697
87372W        W60440  18.496   8.714  14.873
87373W        W60441  44.917  27.449  10.717
87374W        W60442  37.041  31.001   2.195
87375W        W60443   7.881   5.704  14.322
87376W        W60444   7.557  11.274   3.865
87377W        W60445  11.810  40.818   1.656
87378W        W60446  35.554  35.084  13.566
87379W        W60447  26.997  41.816  11.203
87380W        W60448  41.063  11.747  11.078
87381W        W60449   0.804  11.174   2.414
87382W        W60450   8.025  36.770   0.481
87383W        W60451  16.271  36.465  10.653
87384W        W60452  37.645  18.144   4.585
87385W        W60453   0.865  23.122  14.782
87386W        W60454  36.942   6.963  13.850
87387W        W60455  42.445  43.492  10.311
87388W        W60456  31.551  40.841  10.586
87389W        W60457  29.697  25.675   2.771
87390W        W60458  33.115  11.919   0.251
87391W        W60459  13.092  22.750   2.357
87392W        W60460   5.408  25.218  12.619
87393W        W60461   6.203  15.659  11.079
87394W        W60462  40.359  30.574  10.496
87395W        W60463  38.151  24.841   4.513
87396W        W60464   9.373  30.047   3.013
87397W        W60465  21.113   9.901  13.563
87398W        W60466  44.488   2.189   4.621
87399W        W60467   9.230  32.028   0.824
87400W        W60468  19.070  40.947   4.195
87401W        W60469  27.042  42.307   4.511
87402W        W60470   3.166  12.210  13.807
87403W        W60471  44.931  42.966   2.171
87404W        W60472  24.774   7.448  11.017
87405W        W60473  12.572  31.451  11.590
87406W        W60474  10.252   0.383   0.944
87407W        W60475  24.194  10.458   0.385
87408W        W60476  17.802  28.191   3.806
87409W        W60477  33.132  31.966   3.675
87410W        W60478  19.232  40.185  12.879
87411W        W60479  21.960   9.773  14.342
87412W        W60480  14.873  25.154  13.990
87413W        W60481  11.777   0.946  11.492
87414W        W60482  10.960  33.862  11.974
87415W        W60483  14.683  25.218  11.693
87416W        W60484   0.572  27.301   1.162
87417W        W60485  40.857  41.438  14.849
87418W        W60486  37.282  14.722   2.287
87419W        W60487  37.489   3.856   4.030
87420W        W60488  35.411  10.850  10.686
87421W        W60489  22.220  38.186   2.896
87422W        W60490   6.427  17.355  11.002
87423W        W60491  44.011  30.997  10.326
87424W        W60492  40.811  12.672  11.598
87425W        W60493  13.519   3.404  14.308
87426W        W60494  15.197  24.216  13.474
87427W        W60495  29.593  10.191   5.129
87428W        W60496  24.282   6.838  11.955
87429W        W60497   3.254   0.335  12.088
87430W        W60498   5.516  42.383   3.359
87431W        W60499   6.404  28.731   1.509
87432W        W60500  31.325  40.286   3.233
87433W        W60501  16.488   3.989   2.647
87434W        W60502  43.546   5.093   4.430
87435W        W60503  32.294   0.698   3.694
87436W        W60504  22.797  15.438  11.067
87437W        W60505  40.044  10.267   2.770
87438W        W60506  25.996  19.131  12.865
87439W        W60507  25.601  31.344  13.902
87440W        W60508  17.061   9.714   3.226
87441W        W60509   1.423   2.157   1.365
87442W        W60510   6.339   3.471  14.612
87443W        W60511  14.810  42.478   4.711
87444W        W60512  39.948  26.226  14.063
87445W        W60513  20.215  27.016  13.999
87446W        W60514  12.834  33.337  14.891
87447W        W60515  19.984  32.544   3.681
87448W        W60516   3.996  32.835  11.479
87449W        W60517   4.250  31.419  11.619
87450W        W60518  24.907  18.643   2.699
87451W        W60519   7.792   5.249   0.971
87452W        W60520  20.771   1.856  13.480
87453W        W60521  13.738  30.987  13.598
87454W        W60522  14.278  34.943   3.242
87455W        W60523   0.419  34.135   2.169
87456W        W60524   8.684  32.344   3.711
87457W        W60525  28.892  15.217   3.200
87458W        W60526  37.445  22.190  10.168
87459W        W60527  41.011   7.866   0.891
87460W        W60528   9.092  44.466  14.882
87461W        W60529  28.101  10.566  14.930
87462W        W60530  30.117  21.461  13.510
87463W        W60531  25.997   5.433  14.989
87464W        W60532  43.629   5.708  12.433
87465W        W60533   0.809  33.989   4.484
87466W        W60534   5.204  36.546   4.683
87467W        W60535  24.574  23.838  12.090
87468W        W60536  21.510   8.093  14.276
87469W        W60537  28.237   6.164   1.666
87470W        W60538  44.532  36.945   3.045
87471W        W60539  34.249  19.077   3.319
87472W        W60540  19.168  42.962   3.050
87473W        W60541  43.293  17.259  11.992
87474W        W60542  21.781  38.118  13.839
87475W        W60543  15.770  42.302   0.712
87476W        W60544   7.373  42.010   4.097
87477W        W60545  29.396  40.898   4.740
87478W        W60546  21.403  11.218   0.950
87479W        W60547  34.006  15.798   2.213
87480W        W60548   1.996   8.765   4.262
87481W        W60549  14.409   8.645   2.743
87482W        W60550   4.854  33.822  11.087
87483W        W60551  24.087  35.876  10.735
87484W        W60552  28.639  38.851   1.567
87485W        W60553  41.258  10.149  12.409
87486W        W60554  18.563   8.453  10.361
87487W        W60555   7.931  43.357  12.444
87488W        W60556  13.565  32.514   2.239
87489W        W60557  16.074  28.098   2.315
87490W        W60558  35.852  23.578   4.108
87491W        W60559  31.085   0.997  11.093
87492W        W60560  26.094  23.504   2.555
87493W        W60561   8.261  15.839  13.575
87494W        W60562  32.882  26.811  13.060
87495W        W60563  41.295  14.121  14.865
87496W        W60564  36.013  20.363   0.318
87497W        W60565  38.482   8.154  13.006
87498W        W60566   2.695  42.041  13.881
87499W        W60567  17.783  16.095   4.664
87500W        W60568  17.833  20.748  11.613
87501W        W60569  26.174  42.080  13.545
87502W        W60570  38.030  36.619   4.040
87503W        W60571  43.417  35.735   0.730
87504W        W60572  28.983   9.328   0.293
87505W        W60573   7.812   8.392  12.324
87506W        W60574  11.252  26.438  12.504
87507W        W60575  44.631  27.605   2.931
87508W        W60576  11.211  18.808   4.749
87509W        W60577  32.105  20.674  14.099
87510W        W60578  14.411   6.489  14.543
87511W        W60579  36.453  36.110   3.172
87512W        W60580  13.135  21.539   3.775
87513W        W60581  33.155   0.423   4.609
87514W        W60582  20.300  30.685  14.079
87515W        W60583  10.877  17.179  13.417
87516W        W60584  23.893  44.444  12.180
87517W        W60585  14.539   1.846   0.539
87518W        W60586  29.181   5.170  12.891
87519W        W60587   0.468  20.305   2.627
87520W        W60588  22.744  30.474   2.706
87521W        W60589  11.189  16.257  11.234
87522W        W60590   1.782  40.920   4.656
87523W        W60591  19.199  11.136   4.700
87524W        W60592  33.631  24.132   1.371
87525W        W60593  10.610  16.641   1.894
87526W        W60594  38.880  28.244  14.993
87527W        W60595  18.505  15.584  13.983
87528W        W60596  37.122  32.887   3.907
87529W        W60597  30.232   4.421  14.402
87530W        W60598  28.082   6.623   3.927
87531W        W60599   2.802  23.459   1.766
87532W        W60600  40.936  33.123  11.478
87533W        W60601  30.488  30.746   2.758
87534W        W60602  41.337  14.077   4.514
87535W        W60603  11.930  11.617   1.254
87536W        W60604  38.800  44.761  12.935
87537W        W60605  37.120   5.962   2.239
87538W        W60606  17.148  44.908  10.656
87539W        W60607  33.119  16.137   4.151
87540W        W60608   3.843   8.697  10.666
87541W        W60609   5.027   9.814  13.766
87542W        W60610  32.834  40.746   1.221
87543W        W60611  13.059  29.622  14.460
87544W        W60612  42.488  26.253   0.037
87545W        W60613  16.899   4.269   1.198
87546W        W60614  12.147  18.897   4.359
87547W        W60615  34.897   1.848   0.803
87548W        W60616  37.552  21.457  11.005
87549W        W60617  11.859  39.384  13.407
87550W        W60618  28.569  20.576  10.958
87551W        W60619   7.928  11.590  12.846
87552W        W60620  30.431   3.131   4.104
87553W        W60621  30.768   4.310   2.295
87554W        W60622   4.415  32.578  11.272
87555W        W60623   4.760  21.025  10.142
87556W        W60624  43.121  22.162   3.524
87557W        W60625  33.457  16.813   2.614
87558W        W60626  41.262  28.389   1.698
87559W        W60627  17.615  16.575  13.037
87560W        W60628  38.508  27.536   4.184
87561W        W60629  21.069  39.341  11.480
87562W        W60630  41.422  39.845   1.053
87563W        W60631  43.360  41.902   4.313
87564W        W60632   3.323   0.703   3.597
87565W        W60633  25.068  25.992  11.472
87566W        W60634  27.893  43.044   3.620
87567W        W60635  30.380  36.521   1.354
87568W        W60636  40.630  21.434   2.400
87569W        W60637  41.169  43.469   1.117
87570W        W60638  27.083  15.545  11.965
87571W        W60639  21.986  41.611   4.212
87572W        W60640  32.406  28.554  13.148
87573W        W60641  44.199  23.984   0.892
87574W        W60642  31.073  31.475   1.989
87575W        W60643  41.812  27.470  14.284
87576W        W60644   9.455  32.900  14.828
87577W        W60645  30.639  33.022   2.286
87578W        W60646   9.551  15.503  12.417
87579W        W60647   6.639  26.153   2.668
87580W        W60648  40.643  41.516  11.953
87581W        W60649  16.882  24.740   3.503
87582W        W60650  37.112  26.971   1.291
87583W        W60651  21.080  26.393   4.455
87584W        W60652   3.820  36.875  12.751
87585W        W60653  22.892  13.980   4.982
87586W        W60654  30.513  34.245   4.455
87587W        W60655  32.390  32.305  13.643
87588W        W60656  22.808  42.071  12.014
87589W        W60657  18.763  37.847   3.100
87590W        W60658  10.779  33.572   4.612
87591W        W60659  14.724  21.752  10.393
87592W        W60660   7.611   8.541   3.289
87593W        W60661  38.022   6.778  14.878
87594W        W60662  35.970  44.851   3.716
87595W        W60663   0.732  21.094  10.699
87596W        W60664  36.092   6.421  14.264
87597W        W60665  10.720  12.315  14.317
87598W        W60666  19.555  15.222  14.503
87599W        W60667  35.765  37.839  11.614
87600W        W60668   1.872  27.571  12.612
87601W        W60669   2.207  10.244  11.205
87602W        W60670  34.421  39.749  13.388
87603W        W60671  10.181  21.363  11.443
87604W        W60672  12.147  20.649   4.463
87605W        W60673  22.592  42.041  14.184
87606W        W60674  11.101  23.038   1.740
87607W        W60675  33.939  24.785  13.008
87608W        W60676  28.729  39.351   3.390
87609W        W60677   6.599   9.490  10.127
87610W        W60678  36.154  29.706   0.906
87611W        W60679  26.651  39.965  12.862
87612W        W60680  27.730  33.980   3.666
87613W        W60681  41.022  26.678  10.681
87614W        W60682  15.601  36.969  11.242
87615W        W60683   2.219  25.040  13.007
87616W        W60684  17.224  32.167   3.718
87617W        W60685  44.942  42.873  12.804
87618W        W60686  26.457  32.832   0.021
87619W        W60687  33.680  21.667   0.390
87620W        W60688   1.207  23.499   4.147
87621W        W60689  42.575  29.260  14.153
87622W        W60690  21.707  18.292  11.890
87623W        W60691   1.325  33.092  10.927
87624W        W60692   6.111  28.244  11.297
87625W        W60693  41.351  33.930  11.707
87626W        W60694  36.567  37.799  12.031
87627W        W60695  37.817  33.596  12.447
87628W        W60696  37.502  29.803   4.659
87629W        W60697  29.638  19.254  12.115
87630W        W60698  30.433  26.024   1.001
87631W        W60699  40.816   8.986  14.413
87632W        W60700  20.285  15.067   2.593
87633W        W60701  18.587   1.955  13.940
87634W        W60702  35.717  10.623  11.633
87635W        W60703  10.668   4.945   0.928
87636W        W60704  22.516  16.030  13.397
87637W        W60705  23.588  31.458   4.130
87638W        W60706  28.238  34.445   2.766
87639W        W60707   7.314  27.943   3.186
87640W        W60708   1.024   3.439   0.385
87641W        W60709   4.471   2.405   3.540
87642W        W60710  22.710  19.275  11.318
87643W        W60711  41.836  26.421  12.991
87644W        W60712   1.670   1.002   0.216
87645W        W60713  26.194  34.384  14.669
87646W        W60714  42.115   4.593   2.780
87647W        W60715  17.485  35.920  14.455
87648W        W60716   9.587   1.652   4.134
87649W        W60717  26.242  31.656   2.174
87650W        W60718  35.128  39.441  11.661
87651W        W60719   8.435  42.900   3.259
87652W        W60720  42.769  12.796   2.805
87653W        W60721  32.846   0.906  11.673
87654W        W60722  44.944  25.645  13.825
87655W        W60723  30.648  17.794  12.780
87656W        W60724   9.931  22.132   4.416
87657W        W60725  18.295  36.537   0.433
87658W        W60726  10.241  44.070  13.473
87659W        W60727  17.373  19.045  13.024
87660W        W60728  21.577   7.277  10.770
87661W        W60729  33.021  34.618  13.480
87662W        W60730  24.135  25.994   4.299
87663W        W60731  11.805  11.838   3.719
87664W        W60732  37.955  21.166   3.865
87665W        W60733  12.005  32.133   4.030
87666W        W60734  25.385  38.492   3.742
87667W        W60735  21.579   0.759  11.664
87668W        W60736  19.326   5.063  11.137
87669W        W60737  22.982   3.695  14.378
87670W        W60738  20.228  38.573  12.508
87671W        W60739   3.019  20.260   2.613
87672W        W60740  42.293  15.616   4.734
87673W        W60741  20.954  26.187  13.107
87674W        W60742  20.695  17.683   1.338
87675W        W60743  33.663   3.519  10.980
87676W        W60744  44.392  44.585   5.016
87677W        W60745  32.544  29.547  12.518
87678W        W60746   5.214  20.661  11.110
87679W        W60747  22.060  44.255  11.987
87680W        W60748  43.879  20.135   4.718
87681W        W60749   6.403  17.342   2.382
87682W        W60750   2.692  44.718   4.133
87683W        W60751  29.949   0.557   2.434
87684W        W60752   2.776  41.745  12.094
87685W        W60753  11.088   0.771   2.848
87686W        W60754  32.655  25.635   4.862
87687W        W60755  43.488   1.647  10.707
87688W        W60756  27.579  12.317   4.270
87689W        W60757   9.338  11.782   0.885
87690W        W60758  11.891  41.261  13.125
87691W        W60759  13.030  44.165   2.623
87692W        W60760  36.835  17.311  12.513
87693W        W60761  21.035  20.255  11.136
87694W        W60762  28.972  37.749  14.442
87695W        W60763  20.721  18.880   0.769
87696W        W60764  16.380  23.216  11.206
87697W        W60765  20.046  27.605   0.938
87698W        W60766   7.777  28.990  10.890
87699W        W60767  33.006  16.857  12.317
87700W        W60768  12.268  15.850   4.117
87701W        W60769   6.186  24.520   4.879
87702W        W60770  27.433  30.978   3.987
87703W        W60771  40.588   0.833  12.027
87704W        W60772  28.219  14.149   4.137
87705W        W60773  37.928  11.586  11.536
87706W        W60774  13.635   0.781  12.081
87707W        W60775  21.466  33.873   0.327
87708W        W60776  20.903  25.867   2.722
87709W        W60777  13.962   8.738  11.517
87710W        W60778  32.643  39.415  12.847
87711W        W60779  31.926  40.255   0.919
87712W        W60780  32.933  22.516   1.666
87713W        W60781  24.738  21.431  11.125
87714W        W60782   7.161  34.091   3.356
87715W        W60783  40.748   9.396  10.762
87716W        W60784  10.903  15.792  11.976
87717W        W60785  34.106  26.896  14.447
87718W        W60786  15.881   2.407  12.332
87719W        W60787  30.920  15.980  13.409
87720W        W60788  32.833  28.508   3.281
87721W        W60789  19.973  40.984  11.256
87722W        W60790  43.843  25.432   3.803
87723W        W60791   4.317  27.194  13.955
87724W        W60792  23.752  11.789   4.115
87725W        W60793  30.619  34.689   1.942
87726W        W60794   7.346  39.856  10.741
87727W        W60795  42.503  23.450   3.402
87728W        W60796  24.502  40.911  11.991
87729W        W60797  44.292  44.395  14.424
87730W        W60798  43.831  21.631   3.115
87731W        W60799   9.866  44.556  12.397
87732W        W60800  27.593  18.650   2.622
87733W        W60801  43.377  17.794  10.469
87734W        W60802  26.237   0.167  11.907
87735W        W60803  29.379  42.353   4.045
87736W        W60804  17.218   4.898   2.358
87737W        W60805  12.565  16.329   1.857
87738W        W60806  29.752  41.990  11.815
87739W        W60807   2.190  18.806   4.193
87740W        W60808  38.508  34.777   2.802
87741W        W60809   7.805   2.490  14.031
87742W        W60810  20.548  10.079   3.534
87743W        W60811  33.477   2.708   0.904
87744W        W60812  12.290   6.859  11.598
87745W        W60813  23.471   1.688   1.220
87746W        W60814  36.976  14.255  14.772
87747W        W60815  25.473  42.302  12.648
87748W        W60816  30.420  15.282   3.170
87749W        W60817  10.142  31.987  13.937
87750W        W60818  22.855  11.136   2.212
87751W        W60819  44.991   4.467  14.409
87752W        W60820  11.356  17.615   1.223
87753W        W60821  13.035   1.235  14.072
87754W        W60822  37.538  31.709  12.863
87755W        W60823  39.924  40.038   0.817
87756W        W60824   5.684  10.470  12.473
87757W        W60825  22.970  43.452   2.093
87758W        W60826  15.120  26.117  10.977
87759W        W60827  38.367  31.258  10.986
87760W        W60828  26.452  29.784  14.776
87761W        W60829  20.975  26.102  10.708
87762W        W60830  12.796   8.296  12.062
87763W        W60831  34.473  12.470  10.980
87764W        W60832  27.703   9.453  11.554
87765W        W60833   0.823  35.352   3.424
87766W        W60834  41.293  36.009  14.866
87767W        W60835   6.643  31.125  13.893
87768W        W60836  35.860  34.957   1.886
87769W        W60837  44.436  22.163  13.599
87770W        W60838  18.984  33.365  13.349
87771W        W60839  13.162   7.674   3.134
87772W        W60840  12.153  38.298   2.335
87773W        W60841   2.642  20.741  13.076
87774W        W60842  14.660   2.487   2.302
87775W        W60843  44.981   3.214  12.939
87776W        W60844  17.579  24.646  11.460
87777W        W60845   2.990  12.516   0.424
87778W        W60846  11.695  30.735   3.220
87779W        W60847  36.723   2.315   3.340
87780W        W60848  17.239   5.999  14.058
87781W        W60849  35.531  36.413   1.499
87782W        W60850   5.776  18.595   0.077
87783W        W60851  35.596  15.591  14.007
87784W        W60852   3.862  29.128   3.745
87785W        W60853   2.685   5.792   3.163
87786W        W60854  41.842  15.962  14.733
87787W        W60855  29.629  42.100  14.517
87788W        W60856  42.930  34.706   2.708
87789W        W60857  19.833  14.191   2.795
87790W        W60858  33.449   7.548   2.200
87791W        W60859  41.996   7.000  12.004
87792W        W60860   2.689  19.565  10.129
87793W        W60861  31.617   5.741  12.590
87794W        W60862   0.095  27.558  13.998
87795W        W60863   6.821  31.330   3.701
87796W        W60864   0.737  29.492   3.609
87797W        W60865  11.307  39.848   2.253
87798W        W60866   3.230  31.265  13.125
87799W        W60867  27.228  21.515   2.760
87800W        W60868  36.856  39.999  14.022
87801W        W60869  29.477  27.056  14.492
87802W        W60870  10.940  33.890   1.471
87803W        W60871  27.448  29.195  11.570
87804W        W60872  42.053  25.994   0.800
87805W        W60873  37.241  15.674   2.407
87806W        W60874  15.052   8.445  14.455
87807W        W60875  14.052  37.172  11.883
87808W        W60876  42.503   4.719   5.299
87809W        W60877  44.307  35.968   3.416
87810W        W60878  31.552  38.896   4.492
87811W        W60879  30.852  18.509  14.575
87812W        W60880   1.256  21.748  11.053
87813W        W60881  36.104  38.813  12.056
87814W        W60882  32.445  21.094  13.328
87815W        W60883   3.907  10.112  12.171
87816W        W60884  17.589  28.053  10.583
87817W        W60885  37.985  33.376  11.168
87818W        W60886  16.163  41.251   4.011
87819W        W60887  10.921  15.286  11.224
87820W        W60888  33.064   2.476  12.619
87821W        W60889  16.110   2.008  11.412
87822W        W60890   3.139  44.954  14.724
87823W        W60891  16.353  44.899  11.077
87824W        W60892   0.453  40.019  14.435
87825W        W60893  16.180  16.080  10.683
87826W        W60894   7.004  25.572  13.456
87827W        W60895   0.729  26.931  11.146
87828W        W60896  13.721  26.564  12.902
87829W        W60897   5.656  40.825   2.092
87830W        W60898  43.052   4.314   4.199
87831W        W60899  38.816  37.969   0.389
87832W        W60900  31.060  27.762   5.195
87833W        W60901  31.026  27.193  14.025
87834W        W60902  17.009   8.350  13.984
87835W        W60903  37.186  33.166   9.979
87836W        W60904  10.101  20.757   4.902
87837W        W60905  29.579  19.803  14.406
87838W        W60906  41.240   3.205  12.165
87839W        W60907  35.564  25.509  11.085
87840W        W60908  35.514  29.541   3.010
87841W        W60909  31.096   4.962   2.206
87842W        W60910  39.957  22.649   2.300
87843W        W60911  14.459  32.469  12.182
87844W        W60912  13.039  23.660  13.050
87845W        W60913  12.409   5.919  10.585
87846W        W60914  30.437  10.796  13.533
87847W        W60915  43.923  26.923   3.831
87848W        W60916  18.681  24.037   3.604
87849W        W60917   0.569  20.627  11.769
87850W        W60918  14.762  19.232   0.406
87851W        W60919  34.086   8.556  13.224
87852W        W60920  38.571   1.500  11.537
87853W        W60921  37.606  40.626  14.721
87854W        W60922  42.351  17.017  11.301
87855W        W60923  41.686  26.772   9.890
87856W        W60924  19.577   9.994  14.373
87857W        W60925   9.301  24.649  13.424
87858W        W60926  13.774  34.869   3.272
87859W        W60927   5.251  29.597   3.755
87860W        W60928  15.125  32.348  11.095
87861W        W60929  37.965  40.870   0.431
87862W        W60930  44.952  30.052  11.329
87863W        W60931  17.160  10.802  14.226
87864W        W60932   0.743   4.332  11.417
87865W        W60933   7.121  31.352  13.962
87866W        W60934  14.938   0.249   1.336
87867W        W60935  34.535  24.041   0.445
87868W        W60936  33.529  26.089   2.772
87869W        W60937  41.748  21.216   2.857
87870W        W60938   7.645  10.712  11.476
87871W        W60939  30.275  13.740   1.221
87872W        W60940  35.730  14.804   0.189
87873W        W60941  34.452  39.962  13.871
87874W        W60942   2.997  31.552  10.917
87875W        W60943  43.217   4.836  11.081
87876W        W60944  37.226  31.650   3.239
87877W        W60945  23.882  31.298   1.053
87878W        W60946   7.779   8.694   3.788
87879W        W60947  14.780  37.607  14.237
87880W        W60948  28.666  41.146  11.583
87881W        W60949  10.746   6.218   9.629
87882W        W60950  27.456  28.019   2.857
87883W        W60951  19.733   9.844  13.892
87884W        W60952   6.693  41.774   4.682
87885W        W60953  19.627  23.150  14.842
87886W        W60954  14.752   0.873  11.255
87887W        W60955  11.724  21.046  13.544
87888W        W60956  14.893  27.155  13.005
87889W        W60957  11.753  17.226   0.661
87890W        W60958   9.884   7.583  13.685
87891W        W60959  35.522  22.256   4.557
87892W        W60960  14.358   6.829   0.856
87893W        W60961   2.753  19.081   0.684
87894W        W60962  19.680   9.695   2.776
87895W        W60963   2.819  19.797  10.590
87896W        W60964   3.258  37.830  14.952
87897W        W60965  30.350  39.190   0.676
87898W        W60966  27.000  12.935   3.874
87899W        W60967  31.462  31.115  10.838
87900W        W60968  34.845  23.139   0.925
87901W        W60969  40.092   0.043   1.925
87902W        W60970  44.788  37.624   4.294
87903W        W60971  30.409  22.650  14.906
87904W        W60972  14.412   9.331  14.957
87905W        W60973   7.738  32.911   2.650
87906W        W60974  43.885  38.573   3.393
87907W        W60975  30.085  15.830  13.809
87908W        W60976  24.035  12.436  11.232
87909W        W60977  13.073   7.922   2.242
87910W        W60978  39.608  28.621   4.177
87911W        W60979  31.460   0.166   3.865
87912W        W60980  41.482  31.564   1.964
87913W        W60981  22.321  27.713   2.831
87914W        W60982  29.104   9.467  14.382
87915W        W60983  38.437   4.932  13.338
87916W        W60984  36.469  39.294   5.244
87917W        W60985  20.535  24.435   1.187
87918W        W60986  36.921   3.812  12.232
87919W        W60987  24.837  23.909   2.820
87920W        W60988  26.254  10.900  13.168
87921W        W60989  17.149   4.287  12.572
87922W        W60990   1.166  12.181   4.315
87923W        W60991  42.995  19.057  10.750
87924W        W60992  19.241  18.230   3.142
87925W        W60993  21.750  29.600   4.122
87926W        W60994   2.616   5.513  14.549
87927W        W60995   8.753  13.839  10.726
87928W        W60996  34.273  31.089  14.702
87929W        W60997   7.377  39.427  10.993
87930W        W60998  23.268  41.820   4.907
87931W        W60999  33.855   5.249   1.853
87932W        W61000  27.598  13.188  11.166
87933W        W61001  29.131  33.472  12.678
87934W        W61002   3.735  39.053  12.564
87935W        W61003  41.568   9.576  14.312
87936W        W61004  16.559  16.510   0.397
87937W        W61005  22.883  35.567  14.799
87938W        W61006  13.938  38.982  10.995
87939W        W61007   1.013  38.811  11.657
87940W        W61008  39.693  15.430  11.685
87941W        W61009  35.314  29.736  11.765
87942W        W61010  36.096  36.070   4.771
87943W        W61011  26.449  40.540   4.824
87944W        W61012  36.064  31.402   2.171
87945W        W61013  22.139  35.854  11.479
87946W        W61014   5.058  21.013  13.845
87947W        W61015  26.136  22.032  10.958
87948W        W61016  20.091  10.717  11.495
87949W        W61017   4.559  23.983  10.425
87950W        W61018  15.776  35.855  12.453
87951W        W61019  36.128  12.633  13.964
87952W        W61020  37.568   2.894   2.604
87953W        W61021  40.285  32.324  12.946
87954W        W61022  35.569  15.500   5.125
87955W        W61023  32.393  32.005   4.947
87956W        W61024   2.134  26.568   1.349
87957W        W61025  13.703   9.633   0.950
87958W        W61026   6.407  20.229  12.068
87959W        W61027   6.876  44.465   3.610
87960W        W61028  11.814  22.032   4.233
87961W        W61029  25.616  38.592  13.449
87962W        W61030  40.771  39.416   3.621
87963W        W61031  40.527  20.483  11.944
87964W        W61032  44.253  21.659  13.670
87965W        W61033  33.088  28.540   0.259
87966W        W61034  42.507  20.615  10.726
87967W        W61035  44.455  31.732   9.941
87968W        W61036  28.445  19.177   3.881
87969W        W61037  33.107  16.718   3.656
87970W        W61038  24.173  22.222  13.836
87971W        W61039  12.829  37.586   2.182
87972W        W61040   0.616  28.043  13.432
87973W        W61041  43.313  20.248  11.870
87974W        W61042  17.747  22.211  10.568
87975W        W61043  42.500  15.670  14.083
87976W        W61044  11.333  36.586  10.758
87977W        W61045  22.943  19.210  14.930
87978W        W61046  25.990   1.704   3.910
87979W        W61047  13.903  24.736   3.781
87980W        W61048   3.714  15.172   2.075
87981W        W61049  38.518  40.608   2.710
87982W        W61050  24.249   1.753  13.315
87983W        W61051   1.568  15.771  13.315
87984W        W61052  20.623  10.039  14.362
87985W        W61053  28.284  40.632   0.442
87986W        W61054  30.861  40.529  13.935
87987W        W61055  39.392  17.320   0.347
87988W        W61056  20.525  19.545   4.630
87989W        W61057  31.785   0.282  10.614
87990W        W61058  31.040  43.271   0.047
87991W        W61059  36.593  38.720  12.209
87992W        W61060  24.082  43.837  14.321
87993W        W61061  37.487  41.709   5.039
87994W        W61062  27.099  10.372   3.656
87995W        W61063  21.991   3.966   0.022
87996W        W61064   4.938  28.160   0.863
87997W        W61065  19.477  28.571  13.971
87998W        W61066   7.242  41.093   1.983
87999W        W61067  24.676  36.996  12.535
88000W        W61068  35.826  32.828   3.249
88001W        W61069  31.840  11.337   2.578
88002W        W61070  44.751  44.476  12.417
88003W        W61071   0.463  19.466   1.770
88004W        W61072  37.769  30.487  10.696
88005W        W61073  29.061  28.879   1.909
88006W        W61074  24.765  23.164   2.725
88007W        W61075  20.605  17.093  11.246
88008W        W61076  33.328  42.001   1.361
88009W        W61077  42.267  29.224   3.436
88010W        W61078  16.609   5.817  11.357
88011W        W61079  26.635   8.161  12.050
88012W        W61080  30.091  39.893  13.559
88013W        W61081  31.411  15.579  12.987
88014W        W61082  14.190  43.514  13.157
88015W        W61083   1.379  36.819   0.427
88016W        W61084   9.632  25.275   2.410
88017W        W61085  16.811  15.262  14.918
88018W        W61086  14.635   6.783  10.963
88019W        W61087  42.611  13.145  12.529
88020W        W61088  32.812  23.732   0.423
88021W        W61089  35.020  44.070   2.989
88022W        W61090  19.172   9.092   1.644
88023W        W61091  44.734  13.778  11.590
88024W        W61092  32.137  44.008   1.312
88025W        W61093  18.250  32.837  13.199
88026W        W61094  44.271  18.121   1.444
88027W        W61095   0.701  14.401  13.863
88028W        W61096  20.830  23.550   1.194
88029W        W61097  30.601  39.808  13.925
88030W        W61098  10.316  44.835  10.730
88031W        W61099  21.647  26.958   2.728
88032W        W61100  31.881  27.612   0.858
88033W        W61101  12.929   0.206  10.356
88034W        W61102  12.366   0.854  12.494
88035W        W61103  10.939  29.089   3.455
88036W        W61104   7.938  34.991  11.206
88037W        W61105  12.266  28.971   1.239
88038W        W61106  35.864  10.045  11.042
88039W        W61107  17.333  20.835   3.672
88040W        W61108  34.804  22.762   3.556
88041W        W61109   0.014  20.718  13.931
88042W        W61110  35.883  21.238   1.871
88043W        W61111   3.727  23.619  13.977
88044W        W61112  30.479   5.115  14.876
88045W        W61113  12.357  35.431   2.331
88046W        W61114  20.414   5.655   4.569
88047W        W61115   7.652   1.808  14.721
88048W        W61116  20.171  19.521  13.147
88049W        W61117  26.273  26.074  12.469
88050W        W61118   2.543  44.404   1.317
88051W        W61119   1.460   0.591   3.652
88052W        W61120   9.260  34.965  11.563
88053W        W61121   8.325  30.166   0.301
88054W        W61122  32.080  30.241   4.834
88055W        W61123   9.136  39.516   1.315
88056W        W61124  39.736  42.852  13.515
88057W        W61125  39.289  36.309  14.338
88058W        W61126  36.618  24.127  13.469
88059W        W61127  34.672   3.800  14.745
88060W        W61128   9.711  38.640   3.269
88061W        W61129  27.551  26.082   3.373
88062W        W61130  17.239  16.354  14.996
88063W        W61131   3.569  37.371   2.092
88064W        W61132  18.322  42.471  12.947
88065W        W61133  30.016   6.671  14.753
88066W        W61134  39.424  19.004  13.220
88067W        W61135  13.010  20.483   1.684
88068W        W61136  10.290  32.996   4.903
88069W        W61137  21.696  31.560   1.916
88070W        W61138  40.370  14.467   4.087
88071W        W61139  21.783   1.097   0.758
88072W        W61140   8.158  14.852  12.884
88073W        W61141  30.297  11.755  14.247
88074W        W61142  19.859  25.628   2.271
88075W        W61143  39.989  40.107   1.338
88076W        W61144  24.448  21.671  12.402
88077W        W61145  14.797   2.849  10.707
88078W        W61146   4.308  29.540  14.727
88079W        W61147  11.804  22.617  14.389
88080W        W61148  28.082   0.432  11.503
88081W        W61149  42.028  27.664   4.848
88082W        W61150  30.826  12.253  13.884
88083W        W61151  25.281   9.676  12.536
88084W        W61152   5.030  40.817  11.828
88085W        W61153   7.775   6.446   1.272
88086W        W61154   3.910  42.901   1.115
88087W        W61155   1.242   9.293   3.926
88088W        W61156  15.407  33.860  10.419
88089W        W61157  27.916   0.352   0.298
88090W        W61158   2.269  39.067  14.665
88091W        W61159  16.198  24.602  12.587
88092W        W61160  25.500  12.909   1.781
88093W        W61161  18.672  28.991  13.572
88094W        W61162  21.242  30.402  13.851
88095W        W61163   5.750   3.159   3.899
88096W        W61164  27.904  36.590   4.160
88097W        W61165  44.543  12.571  13.914
88098W        W61166  33.010  42.685  10.628
88099W        W61167  22.517  15.992   3.309
88100W        W61168  15.346  30.992  11.563
88101W        W61169   0.343  43.849   3.686
88102W        W61170  13.265  20.107   3.969
88103W        W61171  26.790  32.452  14.779
88104W        W61172  25.446  24.648  13.938
88105W        W61173  20.753   2.981   2.726
88106W        W61174  32.052   1.241   4.071
88107W        W61175  39.062  22.469   1.201
88108W        W61176  25.268  12.568   3.858
88109W        W61177  38.287  25.449  14.653
88110W        W61178  35.211  34.379   1.216
88111W        W61179  16.729   9.767  10.351
88112W        W61180  19.727  44.329   5.380
88113W        W61181   2.339  41.016  11.906
88114W        W61182  19.042   5.632   4.707
88115W        W61183  43.730  34.478   4.690
88116W        W61184  19.156  35.988   3.253
88117W        W61185  33.947  36.585   3.114
88118W        W61186  33.013   1.756  13.781
88119W        W61187  38.857  39.607   2.686
88120W        W61188  26.401  12.385  12.090
88121W        W61189   3.320   0.981  12.570
88122W        W61190  31.471   5.306  14.511
88123W        W61191  23.985  22.477   5.230
88124W        W61192  22.700  25.396  13.299
88125W        W61193  20.721  10.612  12.032
88126W        W61194  12.378   3.225   4.339
88127W        W61195  41.476  30.101   0.015
88128W        W61196  23.450  35.582   3.763
88129W        W61197   5.912   1.551   4.146
88130W        W61198  41.516  12.410  14.287
88131W        W61199   9.743   0.067  12.386
88132W        W61200  25.835   4.624  12.385
88133W        W61201  41.566  31.593  12.987
88134W        W61202  30.245  44.352   2.940
88135W        W61203  36.768  32.195  12.948
88136W        W61204   7.768   0.907   2.927
88137W        W61205  43.241   2.854  12.442
88138W        W61206  44.411  26.127  12.972
88139W        W61207  33.117  30.086   3.966
88140W        W61208  20.589   9.371   1.845
88141W        W61209  17.599  19.595  11.509
88142W        W61210  31.044  19.085   2.926
88143W        W61211   9.873  27.768  14.327
88144W        W61212   8.140  32.827   4.217
88145W        W61213   4.917   3.708  13.941
88146W        W61214  28.228  10.158   0.594
88147W        W61215   8.453  41.706   4.536
88148W        W61216  37.923  39.965   4.039
88149W        W61217  41.282  15.198  12.556
88150W        W61218  11.920   6.899  13.313
88151W        W61219   3.880  14.749   1.049
88152W        W61220  25.743  13.737   0.832
88153W        W61221  25.166  31.433   3.265
88154W        W61222  19.523  41.202  12.048
88155W        W61223   5.806  42.164   1.754
88156W        W61224  43.493  19.625   1.729
88157W        W61225  12.563   3.031  13.438
88158W        W61226  16.447   3.674   1.723
88159W        W61227  26.207  10.288   0.894
88160W        W61228  13.491  21.309  11.174
88161W        W61229  18.666  19.268  14.946
88162W        W61230  26.146   7.804   4.977
88163W        W61231   9.738  18.878   4.057
88164W        W61232  32.520  35.371  11.932
88165W        W61233  15.539  33.644  11.887
88166W        W61234   9.465  25.107   3.230
88167W        W61235  35.433  17.624   4.199
88168W        W61236  10.092   7.966  13.339
88169W        W61237  35.547   3.391   1.348
88170W        W61238  22.655   0.426  11.232
88171W        W61239  20.298  37.815  14.991
88172W        W61240  42.389  19.635  11.493
88173W        W61241  26.634  14.647   4.663
88174W        W61242  30.968   6.449   3.192
88175W        W61243  32.377  19.970   1.660
88176W        W61244   8.481  37.024   1.369
88177W        W61245   4.414  12.334   1.395
88178W        W61246   2.466  29.028   1.631
88179W        W61247  19.269   4.810  14.749
88180W        W61248  40.749  40.414  12.586
88181W        W61249  29.861  16.083  11.629
88182W        W61250  13.303  26.013   3.132
88183W        W61251  28.460  23.637  11.983
88184W        W61252   4.387  36.487  14.701
88185W        W61253   2.323  19.756   1.663
88186W        W61254  32.708   6.708  11.988
88187W        W61255  13.932  25.055  10.689
88188W        W61256   5.367   2.870  13.875
88189W        W61257   3.399  13.775  12.446
88190W        W61258  11.469  27.521  13.125
88191W        W61259  32.856  11.772   0.861
88192W        W61260   0.086  14.222   2.769
88193W        W61261  36.397   5.967  10.399
88194W        W61262  21.266   7.395  14.915
88195W        W61263  25.609  25.447   3.517
88196W        W61264  14.412   6.688  12.099
88197W        W61265  22.177  20.524   0.404
88198W        W61266   7.762  33.436  13.531
88199W        W61267   3.150  18.286   3.316
88200W        W61268  43.389  24.220   4.123
88201W        W61269  10.878  21.119   3.235
88202W        W61270  30.422  14.614   3.494
88203W        W61271   9.893  20.780   0.715
88204W        W61272  23.825  34.620   4.087
88205W        W61273  28.773  39.790   1.413
88206W        W61274   3.831  39.372   2.075
88207W        W61275   1.319  17.134   1.754
88208W        W61276  36.414  38.698   4.364
88209W        W61277  21.999  25.072   4.070
88210W        W61278  28.168  30.388  13.776
88211W        W61279  41.624  40.372  13.769
88212W        W61280   3.316  39.795   3.490
88213W        W61281  16.757  17.032   4.634
88214W        W61282  44.167  27.698  13.619
88215W        W61283  43.422  14.136  10.347
88216W        W61284   1.418  30.591   1.876
88217W        W61285   3.990   4.647   1.887
88218W        W61286  21.939  19.028  13.903
88219W        W61287  16.981  12.298   2.892
88220W        W61288   5.944  32.462   2.797
88221W        W61289   6.483  36.982  12.054
88222W        W61290  28.453  11.091   9.802
88223W        W61291  19.229  20.350   0.468
88224W        W61292  36.821  22.503   4.312
88225W        W61293  36.555  39.997  12.992
88226W        W61294  18.515   9.510  10.732
88227W        W61295  10.680   7.703  14.707
88228W        W61296  29.597  18.617  12.386
88229W        W61297  34.634  14.215   4.605
88230W        W61298   8.334  13.784   2.981
88231W        W61299   1.309  40.295   3.504
88232W        W61300  39.438  14.261  13.969
88233W        W61301  12.348   0.889   3.310
88234W        W61302  11.729   3.924  11.461
88235W        W61303  37.883   6.393  13.669
88236W        W61304   2.724  11.996   1.058
88237W        W61305  41.001  17.624  10.413
88238W        W61306  24.015  11.927  11.155
88239W        W61307  26.261   8.808   4.610
88240W        W61308  15.238  41.554  14.439
88241W        W61309  21.207  44.065   1.546
88242W        W61310  18.557  14.091   2.540
88243W        W61311  41.721   0.965   3.101
88244W        W61312   1.991  41.258  11.597
88245W        W61313   8.454  37.846  14.365
88246W        W61314   3.548  18.714  13.107
88247W        W61315  18.749  31.680  14.268
88248W        W61316   4.851   1.440   3.820
88249W        W61317  31.444   5.815   1.933
88250W        W61318  30.793  35.633   3.338
88251W        W61319  36.879  36.816  13.366
88252W        W61320   8.169  32.719  13.954
88253W        W61321  25.565  21.973  12.953
88254W        W61322  42.575  34.270  13.047
88255W        W61323   6.225  24.560   2.176
88256W        W61324   7.611  35.100   3.896
88257W        W61325  19.531  10.605  10.828
88258W        W61326  37.174  19.181   1.250
88259W        W61327  22.943  31.032   0.158
88260W        W61328  22.386  32.098   1.822
88261W        W61329  40.735  42.492   1.509
88262W        W61330  31.628  39.380  13.919
88263W        W61331  31.402  44.169   0.879
88264W        W61332  30.332  29.595   0.477
88265W        W61333  35.354   4.122   0.872
88266W        W61334   9.062  26.461   3.110
88267W        W61335   1.983  19.520  13.339
88268W        W61336  37.505  28.066  14.495
88269W        W61337  27.593  30.905   0.156
88270W        W61338  18.252  10.072  11.350
88271W        W61339   4.645  31.944  14.788
88272W        W61340  37.933  35.428  11.165
88273W        W61341  15.611  20.116   0.223
88274W        W61342  13.698   3.528   1.263
88275W        W61343  32.041  44.390  11.506
88276W        W61344  21.031  29.316  14.827
88277W        W61345  28.434  19.690  12.276
88278W        W61346  26.050  40.843   4.685
88279W        W61347  19.222  39.395   2.725
88280W        W61348  42.158  18.202  13.522
88281W        W61349  29.125   8.814   1.201
88282W        W61350  35.553  27.076  11.194
88283W        W61351  44.892  40.224   2.800
88284W        W61352  25.202  33.393   0.111
88285W        W61353  19.080  33.398  14.299
88286W        W61354  15.697  33.691   1.437
88287W        W61355   1.029  33.618   3.343
88288W        W61356   5.108   4.669   3.140
88289W        W61357  34.699   6.077   0.901
88290W        W61358  43.441   4.741  14.475
88291W        W61359  25.465  28.549  11.686
88292W        W61360   9.853  24.060   2.086
88293W        W61361   6.481   8.808  11.127
88294W        W61362  20.237   0.414   0.373
88295W        W61363   5.323  16.993   0.949
88296W        W61364   6.164  32.895   4.776
88297W        W61365  26.257   7.443   3.734
88298W        W61366  29.399  41.326  14.736
88299W        W61367  40.034   6.230  13.336
88300W        W61368  26.612  10.292  13.086
88301W        W61369  29.986  18.242   3.358
88302W        W61370  41.835  16.555  10.708
88303W        W61371  32.899  14.655   3.299
88304W        W61372  13.250  17.711  11.187
88305W        W61373   0.207   1.651  14.502
88306W        W61374  25.976  22.035   1.234
88307W        W61375   3.001  39.908  12.974
88308W        W61376  43.942  23.081  13.587
88309W        W61377  24.890  15.233   0.298
88310W        W61378  31.843  11.470  12.754
88311W        W61379   8.257   1.930  11.496
88312W        W61380  12.317  35.220   1.750
88313W        W61381   4.217  23.406   1.387
88314W        W61382   4.348  21.674   1.744
88315W        W61383  19.147  30.274  13.495
88316W        W61384  37.080  27.366  13.604
88317W        W61385  37.703  14.224   1.626
88318W        W61386  20.259  39.421  12.080
88319W        W61387  36.296   5.415   2.979
88320W        W61388  34.633  26.888  14.471
88321W        W61389  19.264   0.199   4.584
88322W        W61390  16.832  10.310   1.495
88323W        W61391  26.379   1.438   4.513
88324W        W61392   9.297   5.854  13.560
88325W        W61393   9.095   4.759  10.400
88326W        W61394  30.109  36.969   3.985
88327W        W61395  29.461   8.678   3.280
88328W        W61396   7.225  44.065  14.760
88329W        W61397   2.396  38.930   3.251
88330W        W61398  10.379  37.792  11.580
88331W        W61399  17.375  42.940  10.906
88332W        W61400   3.590  22.507   0.419
88333W        W61401  14.642  11.259   1.194
88334W        W61402  10.820  20.512  10.656
88335W        W61403  18.593  16.551   0.434
88336W        W61404  15.352  42.488   0.956
88337W        W61405   7.995  15.907  12.609
88338W        W61406  13.065  14.917   0.929
88339W        W61407  36.871  23.176  11.425
88340W        W61408  29.878   9.722  10.584
88341W        W61409   8.594  14.303  14.813
88342W        W61410  18.855  16.652   4.497
88343W        W61411  20.444  10.085  12.905
88344W        W61412  34.343  10.714  13.423
88345W        W61413   4.964  20.741   4.190
88346W        W61414  44.452  40.286  12.646
88347W        W61415  17.888  17.697   0.693
88348W        W61416  10.677  14.712  14.416
88349W        W61417  41.482  20.104  13.455
88350W        W61418  20.197  26.315   2.160
88351W        W61419  38.521   5.386   4.357
88352W        W61420  19.832   6.199   4.354
88353W        W61421   3.925  39.121   0.707
88354W        W61422  43.278  42.577  13.360
88355W        W61423  12.509  16.022  11.532
88356W        W61424  20.482  19.000  13.844
88357W        W61425   5.221  25.975   0.525
88358W        W61426   1.370  34.581   2.973
88359W        W61427  39.595  11.375   3.209
88360W        W61428  31.243  10.138  11.788
88361W        W61429   9.836   9.353   3.328
88362W        W61430  14.096  32.637  12.524
88363W        W61431  29.725  31.335   0.036
88364W        W61432  18.110  25.944   2.768
88365W        W61433  44.985  25.413   5.121
88366W        W61434  18.774   8.621  14.424
88367W        W61435  16.690  24.246  13.265
88368W        W61436   5.947   8.223  11.495
88369W        W61437  32.872  43.513   4.574
88370W        W61438  36.496  17.102  14.794
88371W        W61439  39.270   8.831   2.307
88372W        W61440  20.915  34.587  13.590
88373W        W61441   1.448   8.972  10.988
88374W        W61442  19.646  41.775  14.005
88375W        W61443  19.209  44.813   0.386
88376W        W61444  10.943   3.833   3.466
88377W        W61445  14.893  24.079  14.319
88378W        W61446  44.005  29.064   3.788
88379W        W61447  44.977  40.772  14.272
88380W        W61448  16.672   9.726   1.353
88381W        W61449  21.047  22.621  10.690
88382W        W61450  26.702  11.306   3.747
88383W        W61451   7.597   7.389  14.793
88384W        W61452   0.205  42.763  11.414
88385W        W61453   6.877   1.555  12.923
88386W        W61454   5.077   1.364   3.346
88387W        W61455  11.426   0.360   2.939
88388W        W61456  44.114  38.871  10.728
88389W        W61457  39.436  29.689   0.229
88390W        W61458  41.292  24.781  10.693
88391W        W61459  16.830  25.636  11.983
88392W        W61460  15.825  16.671  14.373
88393W        W61461  22.005   5.741   1.388
88394W        W61462  22.518  24.698  13.798
88395W        W61463  11.243   6.246  14.362
88396W        W61464   2.602  42.916   4.961
88397W        W61465  33.369   0.517   1.418
88398W        W61466  35.412  31.806   1.382
88399W        W61467  11.279  37.967  13.543
88400W        W61468  30.116  17.342  12.176
88401W        W61469  36.190  10.142   5.115
88402W        W61470  11.168  27.116  10.695
88403W        W61471  11.808  31.253  13.292
88404W        W61472  38.996  24.664   2.643
88405W        W61473  19.237  37.696  13.128
88406W        W61474   5.865  36.442  12.720
88407W        W61475  14.680  42.980   4.733
88408W        W61476  40.285  16.345   1.286
88409W        W61477  33.558  31.902   2.750
88410W        W61478   7.666  17.986   0.354
88411W        W61479  38.615  32.155   2.843
88412W        W61480   6.272  37.817  13.389
88413W        W61481  25.455  35.960   1.497
88414W        W61482   5.392  39.458  14.708
88415W        W61483  25.229  14.778  12.373
88416W        W61484  40.587  30.024  13.814
88417W        W61485  36.187  20.687  13.009
88418W        W61486  32.391  15.689   0.040
88419W        W61487  28.366  21.719  12.858
88420W        W61488  30.911   5.310   0.778
88421W        W61489  19.659  21.461   1.055
88422W        W61490  30.154  20.631  11.381
88423W        W61491  31.944  27.230  14.064
88424W        W61492  24.079   6.829  11.440
88425W        W61493  21.624  17.181   3.589
88426W        W61494  36.347  23.523   4.081
88427W        W61495  41.314  44.582   4.178
88428W        W61496  32.894  24.454  11.995
88429W        W61497  25.901  24.395  14.004
88430W        W61498   8.804  15.588  11.396
88431W        W61499   5.870  27.988   3.279
88432W        W61500   6.747  21.612   0.701
88433W        W61501  10.477  43.957   3.810
88434W        W61502  43.050  35.355   4.896
88435W        W61503  17.364  16.648  13.478
88436W        W61504  18.900  36.436   3.367
88437W        W61505  23.980  40.515  11.532
88438W        W61506  25.448  11.293  11.033
88439W        W61507  31.534   0.460  14.620
88440W        W61508  23.812   5.207  12.545
88441W        W61509   9.946  33.026  14.851
88442W        W61510   2.478  15.994  12.818
88443W        W61511   8.566  17.319   1.139
88444W        W61512   1.381  33.281   1.382
88445W        W61513   7.218   9.680  14.294
88446W        W61514   3.306  29.497   4.583
88447W        W61515  39.393   6.824  11.812
88448W        W61516  28.575  12.712  13.612
88449W        W61517  43.365  35.021   2.782
88450W        W61518  36.329   1.722   4.580
88451W        W61519  41.449  19.608   2.455
88452W        W61520  12.433  26.942  13.298
88453W        W61521  29.048  19.371  10.433
88454W        W61522  22.328  27.183  14.229
88455W        W61523  20.043  17.478  10.723
88456W        W61524  24.154  12.111  14.374
88457W        W61525  36.436  31.687   0.192
88458W        W61526  22.144  19.609  11.521
88459W        W61527  12.377  38.921  14.369
88460W        W61528   6.639   7.419  11.541
88461W        W61529  37.870  37.126   0.264
88462W        W61530  11.365  43.925   0.546
88463W        W61531   3.676  17.765   3.150
88464W        W61532  37.904  12.122   3.296
88465W        W61533  31.405  29.395  10.732
88466W        W61534   6.683  35.026   0.394
88467W        W61535  22.698  34.465  14.745
88468W        W61536  26.372  11.748  11.465
88469W        W61537  26.177  15.109  14.868
88470W        W61538   7.439  34.037  11.916
88471W        W61539   3.233  27.570   4.631
88472W        W61540  41.749  29.417   3.534
88473W        W61541  27.643  39.788   2.757
88474W        W61542  12.238  17.389  12.545
88475W        W61543  23.208  40.313   4.520
88476W        W61544   5.917   5.841   4.259
88477W        W61545   8.280  24.633   4.416
88478W        W61546  17.768   6.012  14.070
88479W        W61547  24.979  35.146   2.023
88480W        W61548  23.465   6.119  13.155
88481W        W61549  36.599  42.499   1.147
88482W        W61550  26.610  10.380  11.888
88483W        W61551  18.947  17.072  12.914
88484W        W61552  38.367  19.610   3.412
88485W        W61553  26.134  31.462  14.352
88486W        W61554  37.031  13.093   3.676
88487W        W61555   0.023   7.693  10.574
88488W        W61556  16.813   9.241  10.270
88489W        W61557  40.879  38.602  12.026
88490W        W61558  36.558   2.494  11.976
88491W        W61559  35.812   6.360   3.214
88492W        W61560  31.568  22.062  14.812
88493W        W61561  27.203   8.791   3.534
88494W        W61562  22.721  40.582   3.729
88495W        W61563  15.758  11.513   3.316
88496W        W61564  30.269   4.293  12.494
88497W        W61565  23.192   9.253  14.014
88498W        W61566  25.106  20.241  11.220
88499W        W61567   4.859   3.620   1.875
88500W        W61568  12.184   1.326   3.086
88501W        W61569  34.014  34.999   2.457
88502W        W61570  26.783  14.551   2.402
88503W        W61571   0.863  39.606   0.256
88504W        W61572  41.374  34.799  10.917
88505W        W61573  20.170  40.143   0.746
88506W        W61574   0.839  14.949   4.235
88507W        W61575   2.466   3.730  11.707
88508W        W61576  33.219   2.813  10.638
88509W        W61577  10.248  14.127  13.290
88510W        W61578   1.651  36.262   2.488
88511W        W61579  19.263   3.978   2.299
88512W        W61580  23.740   8.629  11.174
88513W        W61581   6.668  30.634  11.198
88514W        W61582  32.790   2.498  11.145
88515W        W61583   4.940   7.420  14.719
88516W        W61584  12.109  38.936  14.816
88517W        W61585   5.938   6.504   4.873
88518W        W61586   1.387   6.874   4.049
88519W        W61587  27.606  16.295   0.833
88520W        W61588  19.019  13.816  13.575
88521W        W61589  23.474   0.886   3.123
88522W        W61590  22.756  43.304   1.569
88523W        W61591   3.692  11.366   4.149
88524W        W61592  33.469   8.079  14.808
88525W        W61593   9.150  15.172   0.200
88526W        W61594  21.732  42.778  12.362
88527W        W61595   0.864  34.548   0.463
88528W        W61596   7.421  26.190   3.239
88529W        W61597  41.276  13.355   2.172
88530W        W61598  39.421  44.485  12.122
88531W        W61599  21.014  40.792   2.761
88532W        W61600  20.616  41.065   2.994
88533W        W61601   7.960  28.017  12.030
88534W        W61602  24.580  17.992  11.183
88535W        W61603  37.375  38.349  10.990
88536W        W61604   4.833   5.645  10.538
88537W        W61605  22.874  38.660  10.306
88538W        W61606  23.464  11.817   4.544
88539W        W61607  30.447  26.493   1.224
88540W        W61608  25.377  17.785   1.082
88541W        W61609   4.762  12.856   2.678
88542W        W61610  27.004  12.174   2.778
88543W        W61611  43.710  32.785  11.683
88544W        W61612  38.781   6.728   3.147
88545W        W61613  10.087  27.270   2.901
88546W        W61614   5.825  30.875  14.308
88547W        W61615   9.214  28.279   0.280
88548W        W61616  39.331  35.428  12.048
88549W        W61617  15.730  41.954   3.145
88550W        W61618   4.287  36.278   2.936
88551W        W61619  26.569  32.896  11.108
88552W        W61620   5.213  37.435   4.406
88553W        W61621  19.144   4.265  10.901
88554W        W61622  42.898  42.052   4.637
88555W        W61623  38.464  40.772  14.741
88556W        W61624  43.533  43.026  14.482
88557W        W61625  30.464   1.473   3.450
88558W        W61626  18.109  34.542   2.323
88559W        W61627  23.513  17.163  14.904
88560W        W61628  25.671  38.103  11.535
88561W        W61629  19.558  31.118  14.452
88562W        W61630  39.549  22.447  12.934
88563W        W61631   7.367  35.380   0.270
88564W        W61632  30.681  26.911   1.030
88565W        W61633   6.161  25.471  13.230
88566W        W61634  33.769  12.741  10.399
88567W        W61635  19.316  15.135  11.843
88568W        W61636   5.939  27.583   0.971
88569W        W61637  26.896  31.491  11.322
88570W        W61638  22.858  36.662  12.893
88571W        W61639  25.020  24.936   0.778
88572W        W61640  10.668  19.714  12.865
88573W        W61641   0.516  23.989  11.580
88574W        W61642  33.975  27.035   4.084
88575W        W61643  22.135  29.738   2.725
88576W        W61644   3.822  35.702  11.891
88577W        W61645   2.885  42.745  14.393
88578W        W61646   8.244   9.078   2.629
88579W        W61647  20.053  39.039  13.425
88580W        W61648  24.889  10.676  11.597
88581W        W61649  37.658  42.904  11.970
88582W        W61650  35.523   4.457  14.995
88583W        W61651  29.631  17.913  11.647
88584W        W61652  19.054   7.251   3.549
88585W        W61653  41.691  44.506  13.327
88586W        W61654  23.546  23.408  10.840
88587W        W61655   6.399  22.510   2.027
88588W        W61656  34.670   7.785  13.289
88589W        W61657  24.367  41.407  14.056
88590W        W61658   2.985  17.237  11.156
88591W        W61659  31.989   0.918  13.087
88592W        W61660  31.990   2.539  13.704
88593W        W61661  39.063  22.752   3.684
88594W        W61662  31.710  34.157  12.161
88595W        W61663  36.691   4.340   3.519
88596W        W61664  19.595  44.357  11.116
88597W        W61665  30.658  12.111  14.417
88598W        W61666  13.072  31.628   2.432
88599W        W61667  31.461  13.932  11.330
88600W        W61668  25.285  26.240  11.047
88601W        W61669  42.104   8.520  13.459
88602W        W61670  30.481  35.470   1.395
88603W        W61671  22.825  23.099  14.402
88604W        W61672  29.382  26.342  10.821
88605W        W61673  23.109  22.983  14.832
88606W        W61674  34.015  12.508  11.192
88607W        W61675  34.031  19.120  13.888
88608W        W61676   2.663  18.971  11.962
88609W        W61677  14.523   3.897  13.809
88610W        W61678   5.961  41.471  11.975
88611W        W61679   4.681   9.619  11.897
88612W        W61680  11.869  33.755   3.699
88613W        W61681  11.638  24.332  11.585
88614W        W61682  31.915  25.556  12.939
88615W        W61683  23.114  27.028   2.235
88616W        W61684  44.496  23.173  10.525
88617W        W61685  24.655  25.645   3.893
88618W        W61686  10.096  20.082  14.919
88619W        W61687  15.035  12.172  11.406
88620W        W61688  26.888  14.151   4.579
88621W        W61689  17.093  32.932  11.885
88622W        W61690  17.596  36.298   1.215
88623W        W61691  30.155  33.067  12.966
88624W        W61692  26.291  35.030  13.901
88625W        W61693  44.836  28.382   4.556
88626W        W61694  22.001  29.054   3.233
88627W        W61695  40.833  11.388  12.877
88628W        W61696  25.602   7.903  11.149
88629W        W61697  41.818  13.640  12.553
88630W        W61698  20.066  23.970  14.867
88631W        W61699  14.457  38.112   4.581
88632W        W61700  20.564   6.193  14.210
88633W        W61701  15.237  17.655  14.401
88634W        W61702   4.133  10.176   3.296
88635W        W61703   3.308  44.340   3.638
88636W        W61704  15.083   0.655   0.389
88637W        W61705  34.571  33.352   3.341
88638W        W61706  20.962  30.065  11.707
88639W        W61707   2.320  18.024  14.482
88640W        W61708  22.537  13.787  12.309
88641W        W61709   1.994  39.374  14.999
88642W        W61710   2.404   1.234  13.746
88643W        W61711  16.881  12.814  10.686
88644W        W61712  36.344  35.389   1.275
88645W        W61713  40.761  29.152   0.434
88646W        W61714   7.750   1.273  10.609
88647W        W61715  44.828  34.431  12.988
88648W        W61716  28.215  44.427  10.330
88649W        W61717  18.723  19.120  11.470
88650W        W61718  18.737  10.912   4.762
88651W        W61719  42.891   4.444   1.540
88652W        W61720   8.243  22.964   3.582
88653W        W61721  25.276  35.681   3.222
88654W        W61722  43.805  29.619  11.674
88655W        W61723  44.484  37.539   1.679
88656W        W61724  28.920  11.181  14.966
88657W        W61725   1.510  15.617  14.202
88658W        W61726   3.639  38.388   3.567
88659W        W61727   9.423  17.636  12.973
88660W        W61728  11.100  30.430  13.412
88661W        W61729  26.573   8.143   1.059
88662W        W61730  32.590  41.736  10.216
88663W        W61731  23.577  24.786   1.005
88664W        W61732   3.854  13.260  13.874
88665W        W61733  41.621  14.610   4.277
88666W        W61734   1.294  25.935  12.481
88667W        W61735  14.835  29.933   2.196
88668W        W61736  44.223   3.762   0.512
88669W        W61737  32.676  25.821   3.094
88670W        W61738  33.383  10.537  12.301
88671W        W61739  24.495  15.599   4.769
88672W        W61740  42.274  15.522   2.722
88673W        W61741  26.247  25.966  14.763
88674W        W61742   4.497  43.729  14.938
88675W        W61743   2.214  28.597  12.366
88676W        W61744   4.851   4.546  13.447
88677W        W61745  12.785   5.437   4.551
88678W        W61746  16.850  44.320   1.270
88679W        W61747  20.720   8.264   4.193
88680W        W61748  42.500  32.613   0.440
88681W        W61749  23.831  30.529   1.873
88682W        W61750  18.788  35.666   1.040
88683W        W61751   1.004   0.353  14.041
88684W        W61752  23.429  29.969   0.877
88685W        W61753  26.027  16.984  14.945
88686W        W61754  23.975  20.023  12.973
88687W        W61755  27.077  16.360   3.805
88688W        W61756  33.567  15.569   2.366
88689W        W61757  37.345   0.384   0.851
88690W        W61758  10.311  23.755   3.279
88691W        W61759  44.984  18.719   2.036
88692W        W61760  29.653  27.696  11.146
88693W        W61761  23.933  32.153   0.030
88694W        W61762  12.604  19.779   0.428
88695W        W61763   9.705  39.035  13.961
88696W        W61764  15.675  18.014   1.396
88697W        W61765  36.469  35.549  14.795
88698W        W61766   8.595  24.480   0.417
88699W        W61767   2.305   4.399   4.613
88700W        W61768  37.614  23.509  11.879
88701W        W61769  43.487  31.058   2.784
88702W        W61770  40.488  35.017   4.133
88703W        W61771  31.274   2.616  12.100
88704W        W61772  44.274  42.306   2.508
88705W        W61773  15.036  44.269   4.431
88706W        W61774   3.269  40.306   3.559
88707W        W61775  21.232  23.477  11.229
88708W        W61776  31.223   2.787  14.607
88709W        W61777   3.814  13.322   1.855
88710W        W61778  39.615  29.637  13.452
88711W        W61779  25.302  20.785   1.100
88712W        W61780   0.272   2.153   4.211
88713W        W61781  10.713   6.830   0.037
88714W        W61782  25.141   4.237  10.511
88715W        W61783  44.237  15.438  13.345
88716W        W61784  22.893   7.673   3.643
88717W        W61785  19.458  40.861   1.422
88718W        W61786  37.632   3.465   4.363
88719W        W61787  44.392  34.207   4.059
88720W        W61788  14.219  20.075   4.433
88721W        W61789   3.246  33.017   4.152
88722W        W61790  19.723  35.144  14.476
88723W        W61791  27.094  33.470  11.617
88724W        W61792  19.176   1.169   0.628
88725W        W61793  33.863  18.154  12.727
88726W        W61794  29.936  12.131  14.909
88727W        W61795  39.481   9.110   0.384
88728W        W61796   2.414   3.014   3.640
88729W        W61797   3.792  20.677  11.466
88730W        W61798  39.690  28.404  10.683
88731W        W61799  15.683  23.716   2.178
88732W        W61800  27.221  42.324   0.006
88733W        W61801  16.619  32.132  12.470
88734W        W61802  42.834  39.426   0.226
88735W        W61803  27.230  18.299   4.879
88736W        W61804  35.968  25.632   3.181
88737W        W61805  33.659  10.233  11.784
88738W        W61806  22.180  16.438   4.116
88739W        W61807   7.243  25.684   3.217
88740W        W61808  29.153   4.122  13.396
88741W        W61809  40.964   3.361  10.706
88742W        W61810  21.753  19.584   3.815
88743W        W61811   3.015  42.744   1.830
88744W        W61812  30.225  25.422   3.654
88745W        W61813  39.901   9.587  12.917
88746W        W61814  44.697  20.523  14.795
88747W        W61815  15.847  19.490   2.315
88748W        W61816  16.148  43.538  14.011
88749W        W61817  14.749  18.951  12.604
88750W        W61818  11.607  20.660  11.180
88751W        W61819  28.794  44.409  14.217
88752W        W61820   2.911  35.057   0.326
88753W        W61821   4.837   2.641  11.267
88754W        W61822  28.699  43.374   4.476
88755W        W61823  33.832  38.268  14.168
88756W        W61824  38.330   8.261  13.492
88757W        W61825  32.140  35.495  14.641
88758W        W61826  24.491  36.175  13.070
88759W        W61827   8.184  40.026   4.588
88760W        W61828  42.243  21.237  11.481
88761W        W61829  32.140  39.546   4.373
88762W        W61830   6.779   0.727   0.520
88763W        W61831  30.195   0.710  10.959
88764W        W61832  35.981   9.909  14.354
88765W        W61833  32.309   3.802   0.448
88766W        W61834  31.475  16.870  10.710
88767W        W61835  16.066  14.231   1.676
88768W        W61836  31.141  21.706   3.778
88769W        W61837   9.118  42.963  12.106
88770W        W61838  43.478  37.926  13.765
88771W        W61839   6.500  24.173  12.075
88772W        W61840  24.564   6.250   0.726
88773W        W61841  15.489  35.862   3.436
88774W        W61842   6.954  32.109  14.745
88775W        W61843  31.177  22.653   1.400
88776W        W61844  38.828  33.584  12.469
88777W        W61845  13.038  40.515   3.725
88778W        W61846   3.218  26.648  11.474
88779W        W61847  34.817  36.882   1.705
88780W        W61848  38.761  14.493  13.478
88781W        W61849   3.864  41.263   1.357
88782W        W61850  40.704  28.526  11.525
88783W        W61851  44.952  34.650  14.904
88784W        W61852  42.786   1.889  11.965
88785W        W61853   4.747  16.908   2.241
88786W        W61854   9.906   4.186   1.133
88787W        W61855  11.227   1.279  14.317
88788W        W61856  25.140  10.862   0.108
88789W        W61857  12.745   5.094   4.130
88790W        W61858  23.732  38.221   3.847
88791W        W61859  18.795  30.124  11.997
88792W        W61860  41.410  20.076  14.513
88793W        W61861  14.701  22.427   3.114
88794W        W61862  15.956  35.917   4.357
88795W        W61863  41.522   2.711  14.970
88796W        W61864  44.791  41.007   4.454
88797W        W61865   0.978  37.561  11.176
88798W        W61866  22.263  12.998   0.453
88799W        W61867  42.462  30.126   4.382
88800W        W61868  15.824  42.896  13.052
88801W        W61869  14.847  37.438   1.229
88802W        W61870  27.698  18.874  13.824
88803W        W61871  22.817  33.076   1.844
88804W        W61872  38.399  24.284   2.827
88805W        W61873   7.319   8.875   3.042
88806W        W61874   0.490  41.346   4.145
88807W        W61875  29.066   5.876  14.361
88808W        W61876  35.115  18.642  13.835
88809W        W61877  32.375  29.451  14.823
88810W        W61878  41.304  27.922  14.876
88811W        W61879  10.633  40.572  12.048
88812W        W61880   1.930  13.306   1.791
88813W        W61881  22.089  17.363  13.371
88814W        W61882  31.062   9.063   0.813
88815W        W61883  34.784  27.983  13.774
88816W        W61884  10.431  12.926  12.974
88817W        W61885   2.844  35.123  14.055
88818W        W61886  43.351  23.592   2.900
88819W        W61887  32.569  44.425  13.201
88820W        W61888  37.576  41.420   0.400
88821W        W61889  31.357  21.547  10.789
88822W        W61890  15.804  39.020  10.915
88823W        W61891  40.473  23.215  14.887
88824W        W61892   0.163  36.269  12.986
88825W        W61893  27.981  34.052   4.853
88826W        W61894  14.703   1.731  11.657
88827W        W61895  23.732  32.563  13.974
88828W        W61896  10.952  20.663  13.538
88829W        W61897  39.278  12.124  14.420
88830W        W61898  26.998  43.579   3.819
88831W        W61899  41.538  24.106   4.451
88832W        W61900  24.640   5.144  13.334
88833W        W61901   4.885  16.633   0.543
88834W        W61902  11.725   1.540   3.621
88835W        W61903  21.270   0.223   2.882
88836W        W61904  42.510  18.761   3.783
88837W        W61905  28.547   4.715   1.273
88838W        W61906  21.762  40.440   4.466
88839W        W61907  35.450  18.162  11.155
88840W        W61908  11.700   9.646  12.998
88841W        W61909  42.357  24.896  10.786
88842W        W61910   7.409  16.745   4.200
88843W        W61911  23.501  20.611   0.026
88844W        W61912   3.038  41.449  12.989
88845W        W61913  31.164  12.232  14.397
88846W        W61914  25.782  35.818  13.231
88847W        W61915  35.622  13.644   3.090
88848W        W61916  26.582  42.347   1.910
88849W        W61917   9.581  33.496  12.946
88850W        W61918  22.463  15.317   1.188
88851W        W61919  41.820  17.412   3.697
88852W        W61920   8.382  19.062  13.827
88853W        W61921  21.610  26.784  11.789
88854W        W61922  25.223  32.179   3.825
88855W        W61923  20.780  32.132   0.625
88856W        W61924  34.295  44.297   3.203
88857W        W61925   8.179  13.297   2.770
88858W        W61926   3.360  34.250  11.220
88859W        W61927  31.316  40.377   2.331
88860W        W61928  41.623  42.506  10.660
88861W        W61929   6.679   4.034   3.606
88862W        W61930  39.619   9.973   2.747
88863W        W61931  37.599  42.368  11.224
88864W        W61932  14.682  28.641   4.391
88865W        W61933  24.025  35.697  13.010
88866W        W61934  38.764  12.718  12.474
88867W        W61935  28.509  18.787  13.311
88868W        W61936   5.993  26.533   0.298
88869W        W61937   9.697  43.008  13.786
88870W        W61938   7.135  41.333   0.440
88871W        W61939  14.561   3.752   1.458
88872W        W61940  43.383  19.136  13.629
88873W        W61941  28.666  34.297   3.248
88874W        W61942  28.563  31.351   1.641
88875W        W61943   1.070  18.105   1.746
88876W        W61944  15.192   0.046  11.684
88877W        W61945  33.002   8.666  10.986
88878W        W61946   9.882   7.305   3.088
88879W        W61947   6.649  17.233   5.073
88880W        W61948  24.861  31.636  12.246
88881W        W61949  30.473  40.767   0.719
88882W        W61950   5.844   7.635  12.903
88883W        W61951  25.858  38.457   4.935
88884W        W61952  14.895   5.222   2.777
88885W        W61953  11.334  14.279   0.044
88886W        W61954  21.820  10.885   0.751
88887W        W61955  10.608   8.366  14.292
88888W        W61956  15.503  38.592  13.893
88889W        W61957  10.871  34.095  12.410
88890W        W61958  28.227  41.034  10.314
88891W        W61959  10.013  30.376  10.849
88892W        W61960  15.306  16.809   2.680
88893W        W61961  12.105  37.790   0.907
88894W        W61962  43.232  29.856   4.162
88895W        W61963   5.237   7.861  10.642
88896W        W61964  20.041  20.387  12.865
88897W        W61965  22.579  27.013   2.294
88898W        W61966   7.403   8.966   5.077
88899W        W61967  14.190   9.072   1.393
88900W        W61968   0.897  16.390   2.470
88901W        W61969   4.451  29.440   0.312
88902W        W61970  24.279  32.950  12.556
88903W        W61971  24.266  18.689   1.305
88904W        W61972  13.400   7.487   2.147
88905W        W61973  24.607   8.628  11.507
88906W        W61974   7.014  16.083  14.912
88907W        W61975  16.743  27.633  13.387
88908W        W61976  14.158  25.966   0.265
88909W        W61977  19.491  40.423  14.958
88910W        W61978   9.752  39.457  11.421
88911W        W61979  39.485  25.936   3.806
88912W        W61980  20.238  43.265   9.932
88913W        W61981  19.508  27.177  11.987
88914W        W61982  34.437  36.908   3.812
88915W        W61983  33.786   7.187  12.053
88916W        W61984  15.123  26.159   3.779
88917W        W61985  17.034  43.228  11.773
88918W        W61986  39.373   3.955  13.599
88919W        W61987   4.350  24.592   2.360
88920W        W61988   0.735   2.927  14.278
88921W        W61989  30.302  37.821  13.203
88922W        W61990   2.156  39.846  14.153
88923W        W61991  14.162  34.434   1.073
88924W        W61992  33.168  24.164   0.981
88925W        W61993  25.438  23.025   0.619
88926W        W61994  16.531   7.550  14.429
88927W        W61995  28.078  32.481   3.225
88928W        W61996  27.428  39.097   0.875
88929W        W61997  25.559   8.170  11.982
88930W        W61998  18.743   7.939  13.835
88931W        W61999  30.352  35.554   4.359
88932W        W62000  26.488  12.066   2.444
88933W        W62001  13.792  24.710  14.241
88934W        W62002  21.192   2.497   4.454
88935W        W62003  28.338  18.578   4.713
88936W        W62004  35.177  33.121   3.736
88937W        W62005  33.568  19.245   2.784
88938W        W62006   1.262  36.510  12.649
88939W        W62007   3.955   3.774   2.888
88940W        W62008  12.028  25.416   2.293
88941W        W62009  23.895  19.103   9.759
88942W        W62010   1.966  14.721  11.162
88943W        W62011  24.133  44.797   0.940
88944W        W62012  23.649  21.993  13.828
88945W        W62013   3.024  22.546  14.285
88946W        W62014  26.828  22.079  12.420
88947W        W62015  13.155  28.047  14.262
88948W        W62016  26.119  40.025   4.204
88949W        W62017  36.446   9.946   4.239
88950W        W62018  11.474   8.333  14.865
88951W        W62019  30.214  23.694  10.588
88952W        W62020  10.414   5.433  13.479
88953W        W62021   9.250  36.615   3.302
88954W        W62022  43.335  35.051   3.804
88955W        W62023  21.838  44.394  11.499
88956W        W62024  18.430  18.352  13.083
88957W        W62025  28.398   7.349  13.891
88958W        W62026  36.649   7.394  10.806
88959W        W62027  23.108  19.255   2.689
88960W        W62028  11.000  23.508   3.617
88961W        W62029   3.294  21.664  11.914
88962W        W62030  21.160  15.170   0.992
88963W        W62031   3.838  14.252  12.599
88964W        W62032  44.066  37.736   3.783
88965W        W62033  28.587  17.499  14.393
88966W        W62034  23.194  35.537  12.365
88967W        W62035  31.959   5.203  12.927
88968W        W62036  38.786  44.343  12.560
88969W        W62037  11.667  33.326   1.946
88970W        W62038   0.516   5.891  14.558
88971W        W62039  23.406  28.754   2.230
88972W        W62040  22.993  39.799  11.913
88973W        W62041  14.784  32.599   3.808
88974W        W62042  36.192  32.065  10.708
88975W        W62043  21.571  20.274  11.150
88976W        W62044  31.024   6.176   0.260
88977W        W62045   0.061  44.051  12.511
88978W        W62046  29.862  30.018  13.162
88979W        W62047   8.048   1.410   3.269
88980W        W62048  26.902  14.704  12.915
88981W        W62049  44.807  33.542   2.863
88982W        W62050  40.475  37.127  11.418
88983W        W62051   1.131   0.855  14.139
88984W        W62052  11.372  35.349  11.038
88985W        W62053  29.535  18.150   3.585
88986W        W62054  15.051  31.245  13.861
88987W        W62055  21.420  11.768   2.103
88988W        W62056   0.062   0.350   2.151
88989W        W62057  21.061   4.264   2.804
88990W        W62058  41.328  27.853  11.869
88991W        W62059  39.676  43.743   1.623
88992W        W62060  23.509  31.075  13.412
88993W        W62061  17.955  18.756  14.772
88994W        W62062  32.626   6.249  14.998
88995W        W62063  43.454  11.194  12.922
88996W        W62064   7.744  25.123   1.348
88997W        W62065  44.833   8.850  12.312
88998W        W62066  27.078   9.404  10.280
88999W        W62067  36.137   2.739  11.156
89000W        W62068  36.884   9.421   4.135
89001W        W62069  26.694  13.638   4.638
89002W        W62070  24.374  42.598   0.442
89003W        W62071   2.385  34.973  12.818
89004W        W62072  20.276  33.153  13.476
89005W        W62073  10.797  13.257  10.552
89006W        W62074   5.327  38.505  12.974
89007W        W62075  16.286  18.337  14.761
89008W        W62076  38.292   2.851   2.408
89009W        W62077   1.677  17.877   3.956
89010W        W62078  30.010   8.234  11.425
89011W        W62079  33.386  10.443   1.781
89012W        W62080  20.048  32.051   1.499
89013W        W62081  37.995  21.839   1.888
89014W        W62082  41.584  10.299   4.879
89015W        W62083  19.948  16.530   0.933
89016W        W62084  41.696  16.036  11.537
89017W        W62085  10.024   3.852  12.953
89018W        W62086   5.291   2.301  11.642
89019W        W62087   5.520  39.588  11.559
89020W        W62088  39.019  27.688   4.223
89021W        W62089  39.801  22.868   1.857
89022W        W62090  16.213  35.146  12.774
89023W        W62091  25.701   2.402   4.530
89024W        W62092  37.908  30.888  13.416
89025W        W62093  33.961   0.229   4.133
89026W        W62094   0.598  15.358  12.365
89027W        W62095  22.609  35.955  11.202
89028W        W62096   6.942  12.441   0.817
89029W        W62097  33.137  26.727   4.531
89030W        W62098  38.974   2.162   0.934
89031W        W62099  10.016   0.843   0.941
89032W        W62100   2.251  37.376  14.040
89033W        W62101   3.505  10.337   0.859
89034W        W62102  42.579   3.187  10.986
89035W        W62103  32.541  11.156  11.869
89036W        W62104  21.477   4.185   0.067
89037W        W62105  38.462  34.902   3.304
89038W        W62106  40.011   7.763   0.942
89039W        W62107  33.074  26.261   1.260
89040W        W62108  42.768   4.602  14.215
89041W        W62109  25.486   2.643   1.855
89042W        W62110  34.194   2.245   2.953
89043W        W62111   5.002  37.864  10.224
89044W        W62112   4.373  19.128  13.955
89045W        W62113  23.917  37.300   4.809
89046W        W62114  13.142   8.222   2.798
89047W        W62115  43.913  10.927  13.789
89048W        W62116  26.206  44.980   0.445
89049W        W62117   4.855  33.070  11.901
89050W        W62118  26.592  40.319   1.649
89051W        W62119   4.523  38.403  14.418
89052W        W62120  43.024  25.626   0.377
89053W        W62121  19.695  22.056  14.349
89054W        W62122  38.587  29.296  12.586
89055W        W62123  12.143  24.723  14.896
89056W        W62124  24.595  20.900   5.006
89057W        W62125   6.895  36.049  14.747
89058W        W62126  28.020   5.949   4.851
89059W        W62127  27.446  29.568   4.533
89060W        W62128  22.953  34.598   2.202
89061W        W62129   4.164  33.374  12.111
89062W        W62130  25.515  30.316  14.733
89063W        W62131  31.146  19.791   3.897
89064W        W62132   2.487   1.893   1.900
89065W        W62133  12.325  42.290   2.273
89066W        W62134  41.376  30.303   3.705
89067W        W62135  11.396   3.341  13.613
89068W        W62136   4.978  35.510  12.104
89069W        W62137  31.843   9.913  12.390
89070W        W62138  30.046  13.261   1.215
89071W        W62139  24.589  38.352   4.568
89072W        W62140  30.543  44.865   4.638
89073W        W62141   3.439  30.637   3.201
89074W        W62142  10.577  27.343  14.726
89075W        W62143  25.595  14.413  12.369
89076W        W62144   4.808  33.418  13.196
89077W        W62145  11.644  28.560   1.276
89078W        W62146   1.061  34.978   0.263
89079W        W62147  25.598  44.951   4.134
89080W        W62148  18.697  34.692   0.292
89081W        W62149  20.591  36.996   3.390
89082W        W62150  42.871   9.809  11.745
89083W        W62151  44.209  25.928   5.045
89084W        W62152  22.110  19.821   1.675
89085W        W62153  37.842  32.518  10.152
89086W        W62154   6.068  26.983  11.490
89087W        W62155   8.354  42.246   1.440
89088W        W62156  43.015  14.890  14.329
89089W        W62157  37.091  27.403   2.174
89090W        W62158  24.233  13.632  13.549
89091W        W62159   9.865  28.231   0.904
89092W        W62160  30.118  14.110  11.592
89093W        W62161   1.440  24.629  12.085
89094W        W62162  25.189  43.595  13.676
89095W        W62163  30.966  44.510  11.388
89096W        W62164   7.342  14.575  10.712
89097W        W62165  39.596  40.603   2.621
89098W        W62166  15.637  39.614   0.008
89099W        W62167   6.010   4.185   0.087
89100W        W62168  39.923  12.207  11.370
89101W        W62169  22.037  12.085   3.769
89102W        W62170   5.181  30.899   4.371
89103W        W62171  23.969  20.345   4.593
89104W        W62172  37.270  41.472  14.597
89105W        W62173  17.652  35.977   3.667
89106W        W62174  29.340  12.563   2.215
89107W        W62175  26.247  32.531   0.932
89108W        W62176   1.371  36.907  13.958
89109W        W62177  36.554  42.561  12.003
89110W        W62178  31.457   5.346   1.664
89111W        W62179  18.017  18.638  11.451
89112W        W62180  25.164  27.651  12.143
89113W        W62181  25.779  30.405  13.967
89114W        W62182  14.287  34.425   4.137
89115W        W62183  24.664   4.025  10.561
89116W        W62184  13.869   6.223  12.540
89117W        W62185  18.344  14.555  12.601
89118W        W62186   4.663  13.297   0.872
89119W        W62187  26.208  44.425   0.508
89120W        W62188  12.853  12.907   3.780
89121W        W62189  18.421  27.352   0.446
89122W        W62190   6.701  37.571  12.107
89123W        W62191  32.159  44.322   1.716
89124W        W62192  33.051  12.489   4.377
89125W        W62193  34.530   1.748  11.104
89126W        W62194  19.526   1.697   3.224
89127W        W62195  28.002  10.381  11.843
89128W        W62196   1.560  40.437   2.154
89129W        W62197  26.672  32.241  13.915
89130W        W62198  41.290  41.901  11.135
89131W        W62199  16.743  35.452  14.420
89132W        W62200   8.675   8.135   2.593
89133W        W62201  44.562  31.884   3.585
89134W        W62202  29.965  38.854  13.499
89135W        W62203  17.467  41.286  14.753
89136W        W62204  22.812  39.103  10.564
89137W        W62205  38.690  44.048   4.331
89138W        W62206  43.891  20.238  13.567
89139W        W62207  28.636  40.944   3.254
89140W        W62208  29.416  31.964   2.657
89141W        W62209  24.914  14.901   2.666
89142W        W62210  30.784  14.938  11.984
89143W        W62211  34.378   4.398  13.439
89144W        W62212  37.357   2.311  14.161
89145W        W62213  24.742  37.455   3.334
89146W        W62214  40.078   1.630   2.605
89147W        W62215  29.999  42.360   3.153
89148W        W62216  15.837   4.386   3.922
89149W        W62217  21.123  23.983   4.943
89150W        W62218  13.211  29.986   2.930
89151W        W62219  32.168   7.765  13.027
89152W        W62220  30.293  15.667   1.239
89153W        W62221  27.675  38.354   2.807
89154W        W62222  19.681  42.033   2.340
89155W        W62223   2.731  21.537   4.293
89156W        W62224  34.047  25.452   3.815
89157W        W62225  32.390   9.380   4.513
89158W        W62226  29.723  40.913   2.285
89159W        W62227  38.566  31.492  11.632
89160W        W62228  20.239   5.918  10.629
89161W        W62229  25.932  25.641  12.471
89162W        W62230  20.705  42.956   0.150
89163W        W62231  15.141  14.040   0.285
89164W        W62232  16.175   6.004   1.842
89165W        W62233  27.544  30.060   2.842
89166W        W62234  24.690   4.897   3.881
89167W        W62235  41.047   9.760  12.899
89168W        W62236  38.324   0.729   2.838
89169W        W62237  28.484   8.009  12.022
89170W        W62238   2.968   0.974  11.208
89171W        W62239   9.196   7.752   3.217
89172W        W62240  30.211  26.711   2.777
89173W        W62241  12.884  23.130   1.187
89174W        W62242  24.831  25.211   4.106
89175W        W62243  14.887  44.743   1.342
89176W        W62244  21.766  15.910  11.904
89177W        W62245  25.732   4.502  11.109
89178W        W62246   1.866  44.607   2.730
89179W        W62247   3.934  33.770  12.432
89180W        W62248  39.800   6.279   2.868
89181W        W62249  16.730   4.691  11.387
89182W        W62250  29.969  29.009  11.493
89183W        W62251  34.121   1.249   0.287
89184W        W62252  38.775  21.717  14.440
89185W        W62253  11.542   8.321  10.766
89186W        W62254  20.390  17.751  14.458
89187W        W62255  30.290  23.854  11.068
89188W        W62256  17.466  20.004  11.768
89189W        W62257  14.657  21.094   4.971
89190W        W62258  34.806  31.009   3.834
89191W        W62259  39.800   1.419   5.077
89192W        W62260  10.599  21.114  11.272
89193W        W62261  27.511   8.779   2.250
89194W        W62262  10.262   6.475   3.469
89195W        W62263   6.782  39.886  12.585
89196W        W62264  16.665  36.328  13.376
89197W        W62265  31.124  33.206  11.569
89198W        W62266  10.143  17.566  14.321
89199W        W62267  43.431  35.593   0.224
89200W        W62268  21.587  20.361   4.231
89201W        W62269  22.796  21.506  11.167
89202W        W62270  40.871   7.335   0.241
89203W        W62271  12.288  15.416   3.217
89204W        W62272  37.831   5.873  13.580
89205W        W62273   8.634   3.330   3.843
89206W        W62274  35.614  41.882   2.895
89207W        W62275  15.132  42.410   3.853
89208W        W62276  25.537  34.954  12.599
89209W        W62277  15.238  16.136   3.339
89210W        W62278  22.413   7.457  13.500
89211W        W62279  32.915  10.669   4.671
89212W        W62280  27.032  34.905  12.365
89213W        W62281  30.219  44.305  14.383
89214W        W62282  34.523   3.877  11.723
89215W        W62283   8.471   5.233   1.370
89216W        W62284   2.376  28.093  14.491
89217W        W62285  16.249  41.283   0.266
89218W        W62286  11.095  38.793  13.820
89219W        W62287  37.073  44.364  10.934
89220W        W62288  43.635   8.206  14.582
89221W        W62289  20.982  24.774  13.029
89222W        W62290   9.861  27.268   0.550
89223W        W62291  18.853  30.613   1.500
89224W        W62292   2.274  24.223  11.963
89225W        W62293  11.078  33.103   1.268
89226W        W62294  29.440  33.153  14.902
89227W        W62295   1.780   4.648   4.401
89228W        W62296  40.515  19.678   5.084
89229W        W62297  27.369  42.333   2.273
89230W        W62298  27.561  40.916   0.281
89231W        W62299  31.052   4.184   2.721
89232W        W62300  35.610  22.123  14.397
89233W        W62301  14.369  14.686   4.261
89234W        W62302  21.182   0.609   5.254
89235W        W62303  24.730  28.703  13.327
89236W        W62304  20.024  11.234   2.790
89237W        W62305  41.599  12.759   1.355
89238W        W62306  34.306  28.119  13.998
89239W        W62307  11.549  14.549  11.111
89240W        W62308  26.184  35.089   4.727
89241W        W62309  11.439  43.025   2.847
89242W        W62310  29.234   2.766   0.402
89243W        W62311  10.651  37.922  11.994
89244W        W62312  16.337  38.983  14.014
89245W        W62313  42.432   9.115  11.985
89246W        W62314   0.247  31.084   4.149
89247W        W62315   5.209  27.175  14.404
89248W        W62316  22.554  38.061  11.478
89249W        W62317  36.671  43.087  14.834
89250W        W62318  12.417  24.783   1.725
89251W        W62319  25.083  29.107   2.736
89252W        W62320  15.224  27.338  11.859
89253W        W62321  35.597   8.467  10.552
89254W        W62322   4.026  41.553  10.695
89255W        W62323  41.461  26.588  11.388
89256W        W62324   5.137  22.730   0.073
89257W        W62325   3.794  15.373  12.153
89258W        W62326  13.967  44.350   2.365
89259W        W62327  40.442   0.736   3.061
89260W        W62328   6.193  17.160   4.783
89261W        W62329  24.028   1.014   1.420
89262W        W62330  16.512   7.647  11.279
89263W        W62331  33.749  41.062  11.951
89264W        W62332   0.716   4.340   2.681
89265W        W62333  31.993  37.833   4.638
89266W        W62334   6.132  30.688  13.213
89267W        W62335   5.345   8.582   4.066
89268W        W62336  13.834  31.935  11.109
89269W        W62337  20.066  41.296  10.843
89270W        W62338  28.909   6.367  10.041
89271W        W62339  23.007   7.508  10.477
89272W        W62340  14.783  23.693   0.278
89273W        W62341   5.283  27.409   1.685
89274W        W62342  19.688  18.583   2.373
89275W        W62343  20.008  41.954   0.214
89276W        W62344  43.516  41.997  14.499
89277W        W62345  11.209   2.858  10.446
89278W        W62346   6.366  22.862   2.844
89279W        W62347  32.025   8.602   0.870
89280W        W62348   3.680  18.146  14.349
89281W        W62349  28.533  26.517   4.307
89282W        W62350  41.853  20.532   2.653
89283W        W62351  12.007   4.468   1.266
89284W        W62352  15.480  32.076  10.566
89285W        W62353  21.079  18.505  13.190
89286W        W62354  12.046   9.419  10.660
89287W        W62355  10.800  42.844   3.092
89288W        W62356  20.836  43.363   1.219
89289W        W62357  34.799  15.753  13.014
89290W        W62358  33.152  36.860  12.443
89291W        W62359   5.258  37.496   2.808
89292W        W62360  36.009  19.765  11.687
89293W        W62361   8.246  29.704   4.286
89294W        W62362  26.527  28.765  13.604
89295W        W62363  19.853  39.398   3.672
89296W        W62364  34.219  10.254  10.475
89297W        W62365  10.663  17.593   4.070
89298W        W62366   7.645  20.844  14.891
89299W        W62367  23.213  29.665  11.146
89300W        W62368  35.642  33.913   0.362
89301W        W62369  10.293  12.117   0.867
89302W        W62370  39.737  40.368  12.520
89303W        W62371  19.641  38.320   4.892
89304W        W62372  35.549  34.759  13.972
89305W        W62373  37.550  34.005   1.926
89306W        W62374  36.480  44.462   3.372
89307W        W62375   8.730  17.381   2.186
89308W        W62376  12.397  11.840   1.366
89309W        W62377  35.480  19.195  14.542
89310W        W62378  17.185  26.624   9.853
89311W        W62379  39.993  17.751   4.080
89312W        W62380  41.365   7.837  13.584
89313W        W62381  26.004  16.103  13.279
89314W        W62382  21.248  36.289   3.673
89315W        W62383  19.460  26.015  10.734
89316W        W62384  21.926   5.781  12.486
89317W        W62385   3.420  38.222  12.716
89318W        W62386  29.511  14.271   4.542
89319W        W62387  22.530  42.064  10.620
89320W        W62388  39.898   8.236   2.168
89321W        W62389  43.732   4.338  12.839
89322W        W62390  35.968  42.445   1.740
89323W        W62391  31.788  15.637   4.064
89324W        W62392  28.833  27.532  14.889
89325W        W62393  26.108  43.522   1.476
89326W        W62394  15.199  34.305  12.483
89327W        W62395   7.638  14.566   2.741
89328W        W62396   3.686  12.064   2.993
89329W        W62397  16.266  41.243   4.518
89330W        W62398  16.718   8.857  12.453
89331W        W62399   3.445  42.403  10.722
89332W        W62400  12.374  32.381  13.485
89333W        W62401  27.965  41.849  11.363
89334W        W62402  41.110   1.467   0.887
89335W        W62403   7.633   4.660   3.558
89336W        W62404  42.030   4.298   4.366
89337W        W62405  16.632  37.756  11.811
89338W        W62406   9.842  18.827  10.659
89339W        W62407  21.508  16.449  12.613
89340W        W62408  25.767  26.452   4.950
89341W        W62409  42.450  34.855   4.731
89342W        W62410  29.578  35.574  13.311
89343W        W62411  23.080  40.082   2.672
89344W        W62412  40.622  13.307  10.670
89345W        W62413  12.611  23.072   1.761
89346W        W62414   2.010   0.845  12.119
89347W        W62415  10.066  41.394  10.371
89348W        W62416  33.525  29.119  13.253
89349W        W62417  12.345   3.958   0.421
89350W        W62418  10.926  37.439   4.585
89351W        W62419  15.478  21.764   2.292
89352W        W62420   9.914  10.264   4.451
89353W        W62421  17.131   7.131   2.658
89354W        W62422  13.825  31.613  14.236
89355W        W62423   7.344   8.832   4.047
89356W        W62424  19.609  23.216  11.580
89357W        W62425   6.997  27.761   2.730
89358W        W62426  33.613   4.231   0.986
89359W        W62427  36.624  20.019  11.215
89360W        W62428  25.634  14.373   4.269
89361W        W62429  33.346  44.785  12.183
89362W        W62430  25.538   6.498  10.549
89363W        W62431  13.136  21.682   3.286
89364W        W62432  43.213  13.751  13.575
89365W        W62433  30.718   4.388  12.768
89366W        W62434  40.781  28.152   3.255
89367W        W62435  41.545   0.771   1.241
89368W        W62436  42.261   3.492  13.152
89369W        W62437  37.515  36.123   3.255
89370W        W62438  38.522  44.448   1.898
89371W        W62439   7.649  37.719   3.770
89372W        W62440  24.478  21.535   1.858
89373W        W62441  28.340   4.755  11.609
89374W        W62442   5.003  16.572  10.977
89375W        W62443  20.102  28.994   1.652
89376W        W62444  22.357  20.228   1.939
89377W        W62445  23.022   1.732   3.198
89378W        W62446   8.225  23.755  12.116
89379W        W62447   4.175   6.863  13.523
89380W        W62448  15.742  41.315  10.725
89381W        W62449   3.560  10.265  13.906
89382W        W62450  13.753   5.672  11.550
89383W        W62451  25.798  43.577  12.826
89384W        W62452  39.452  24.060   1.094
89385W        W62453  35.037   9.320  10.685
89386W        W62454   3.759   5.023  13.972
89387W        W62455  42.076  21.028  13.832
89388W        W62456  26.196  31.897   1.579
89389W        W62457  42.677  35.849   3.364
89390W        W62458  13.312  12.655   4.564
89391W        W62459   5.236  44.448  12.074
89392W        W62460  35.660  29.062   1.333
89393W        W62461  40.624  33.650  14.032
89394W        W62462  26.942  37.081   3.540
89395W        W62463   3.355  23.226  13.842
89396W        W62464   6.926  13.904  14.627
89397W        W62465   3.149  30.143  13.987
89398W        W62466  16.662   9.738   4.460
89399W        W62467  28.805  30.893  14.436
89400W        W62468  18.544   1.742  14.788
89401W        W62469   9.191  10.129   2.227
89402W        W62470  12.093  15.869  14.530
89403W        W62471  30.326  30.170   1.101
89404W        W62472   7.079   0.740   3.992
89405W        W62473  43.477  44.263   4.759
89406W        W62474  21.254  15.703  13.577
89407W        W62475   4.535  37.364   1.287
89408W        W62476  38.020  36.884  11.564
89409W        W62477  13.691  18.726   3.116
89410W        W62478  19.598   2.169  14.880
89411W        W62479  20.682   8.856   1.855
89412W        W62480  38.332  16.569  11.994
89413W        W62481  42.013   5.666  11.549
89414W        W62482  31.242   3.028   0.526
89415W        W62483  34.974  22.893  13.368
89416W        W62484  13.074  15.722  14.291
89417W        W62485   2.998  37.113   1.782
89418W        W62486  36.031  30.609  13.675
89419W        W62487  18.579  26.476   5.261
89420W        W62488  27.253   7.584   1.790
89421W        W62489  40.043  30.909  12.395
89422W        W62490  17.252  17.164  13.518
89423W        W62491  17.486  39.484  12.343
89424W        W62492  18.070  29.103  14.800
89425W        W62493   1.395  26.927   1.055
89426W        W62494  38.427  42.279   1.683
89427W        W62495   1.455  42.945   0.841
89428W        W62496  27.384  29.589   2.749
89429W        W62497  25.136  34.375   0.295
89430W        W62498   5.067  39.660   4.865
89431W        W62499  41.308  28.895   1.640
89432W        W62500  19.565  33.304  11.183
89433W        W62501  17.557  31.395   3.640
89434W        W62502  27.302   4.717   4.554
89435W        W62503  44.008  21.254  14.534
89436W        W62504   6.757  24.999  11.563
89437W        W62505  31.376  44.431   0.002
89438W        W62506  25.465  25.841   3.828
89439W        W62507  30.557  43.459  14.254
89440W        W62508  15.053  27.440   4.289
89441W        W62509   9.625  20.349   0.638
89442W        W62510  22.212  19.862  14.327
89443W        W62511   4.902   3.362  12.126
89444W        W62512  15.593   7.707  13.170
89445W        W62513  26.120  29.405   4.072
89446W        W62514  35.072  27.821  13.363
89447W        W62515  22.113  14.388  13.958
89448W        W62516  40.270   5.211  14.290
89449W        W62517  13.301  20.629  14.923
89450W        W62518  41.956  33.965   4.044
89451W        W62519   1.428  16.592   4.967
89452W        W62520  37.758  37.719   2.301
89453W        W62521  29.082  37.489  10.797
89454W        W62522  32.793  42.972   0.449
89455W        W62523  31.941  20.133   1.344
89456W        W62524  35.973   3.270   3.755
89457W        W62525   8.969  42.538  13.817
89458W        W62526  38.385   8.154  10.226
89459W        W62527  25.004  20.857   2.060
89460W        W62528  17.742   7.686   0.911
89461W        W62529  10.474  22.210   4.412
89462W        W62530   0.751  32.422   3.252
89463W        W62531  18.550   5.175  14.853
89464W        W62532  25.465  12.562  14.373
89465W        W62533  26.697  23.134  14.074
89466W        W62534  14.015   0.291  13.942
89467W        W62535  40.475   3.926   1.938
89468W        W62536  11.342  42.366  13.291
89469W        W62537  33.510  24.604  13.848
89470W        W62538   6.108  27.219  14.543
89471W        W62539   3.622  28.828   4.106
89472W        W62540  24.727  20.088  13.580
89473W        W62541  42.374  26.294   0.558
89474W        W62542  23.024  32.314   2.728
89475W        W62543  10.852  24.996   4.300
89476W        W62544   7.140  41.523   4.130
89477W        W62545  28.593  17.658   4.589
89478W        W62546  27.084   0.960  11.602
89479W        W62547  37.904   8.518   4.588
89480W        W62548  38.382  36.500  14.296
89481W        W62549  24.189  10.377  11.352
89482W        W62550  26.111  38.342  11.696
89483W        W62551   8.381  42.480  13.435
89484W        W62552   1.728  18.569  13.489
89485W        W62553  16.762  15.810  11.988
89486W        W62554  31.486  25.756   3.727
89487W        W62555  36.334  19.451   2.319
89488W        W62556  37.993   4.169   0.278
89489W        W62557   9.568  10.367  14.293
89490W        W62558  11.286   4.240   2.639
89491W        W62559  21.798  24.638   4.897
89492W        W62560  17.176  44.315  13.935
89493W        W62561  15.096   5.257   0.722
89494W        W62562  36.255  10.812  10.943
89495W        W62563  32.684   6.816   4.744
89496W        W62564  22.245  35.328   2.304
89497W        W62565  35.442   7.373  11.519
89498W        W62566  38.432  41.384   2.216
89499W        W62567  20.573  20.578  12.790
89500W        W62568   7.424  21.750  10.685
89501W        W62569  43.547  19.060  11.582
89502W        W62570   8.598  41.119  13.324
89503W        W62571  38.810  35.640   2.683
89504W        W62572   0.426  36.478  11.259
89505W        W62573  41.546  24.919  14.002
89506W        W62574   3.671  25.747  12.358
89507W        W62575   8.800  21.065  12.158
89508W        W62576  21.968  22.972  13.374
89509W        W62577  12.238   5.276  10.674
89510W        W62578  19.721  11.317  13.543
89511W        W62579  33.668  27.933  13.072
89512W        W62580   1.836  19.155   4.431
89513W        W62581  40.336   8.011   2.289
89514W        W62582  12.775   0.519   4.586
89515W        W62583   9.705  27.645   2.666
89516W        W62584  32.820  42.552   0.743
89517W        W62585  44.840  38.618  13.064
89518W        W62586  15.780  37.851  12.224
89519W        W62587  34.423   1.371   1.277
89520W        W62588  37.321  35.065  12.487
89521W        W62589   7.221  44.774  11.565
89522W        W62590  12.756  36.361   4.490
89523W        W62591  19.640  10.784   2.445
89524W        W62592  42.554  30.741  11.106
89525W        W62593  27.460  40.872   2.756
89526W        W62594  31.932  31.356   2.347
89527W        W62595  32.148  12.649  14.476
89528W        W62596  13.885  41.527  14.006
89529W        W62597   8.282   2.475   3.663
89530W        W62598  40.113  42.530  13.677
89531W        W62599  21.736  32.245  12.482
89532W        W62600  29.981   5.452   0.932
89533W        W62601  21.755  20.924  10.426
89534W        W62602   0.527   7.726  10.663
89535W        W62603   3.661  29.086   3.279
89536W        W62604  42.058   0.429  10.108
89537W        W62605   6.360  37.410   0.784
89538W        W62606  33.846  32.689  12.517
89539W        W62607  11.335  27.103   3.662
89540W        W62608  14.483  10.514  13.898
89541W        W62609  17.096  34.905  12.657
89542W        W62610   8.281  24.512   3.906
89543W        W62611  32.667  11.067  13.856
89544W        W62612  14.805  30.671   4.197
89545W        W62613   4.792  16.522   9.947
89546W        W62614  19.623  33.925   0.845
89547W        W62615  28.579  27.245  13.468
89548W        W62616   8.722   7.881   1.953
89549W        W62617  15.830  44.367  10.595
89550W        W62618   3.515   9.577   0.326
89551W        W62619  27.407  24.591   4.198
89552W        W62620  28.982   1.450   3.393
89553W        W62621  29.107  35.209  12.793
89554W        W62622  14.033  18.258  12.740
89555W        W62623  23.684  41.817  11.520
89556W        W62624  24.374  38.917  13.029
89557W        W62625  28.173  34.157  14.683
89558W        W62626  44.270  41.798  11.336
89559W        W62627  20.242  20.204   2.604
89560W        W62628  12.762  21.050  10.752
89561W        W62629  40.938   1.244  10.205
89562W        W62630  11.162  15.345   0.314
89563W        W62631  41.893  36.636   1.433
89564W        W62632  18.353  19.037  12.367
89565W        W62633  24.649  44.440  13.436
89566W        W62634  26.671   9.908   1.330
89567W        W62635  25.195  43.448  14.186
89568W        W62636   5.304   6.758   4.378
89569W        W62637  22.953   0.107  13.921
89570W        W62638  12.219  26.687   1.822
89571W        W62639   0.305   0.673  14.144
89572W        W62640  28.764  17.749   0.820
89573W        W62641  25.653   5.618   2.695
89574W        W62642  33.037  23.760  10.595
89575W        W62643  39.439  25.993   4.327
89576W        W62644   0.876  24.596   1.681
89577W        W62645  27.206  38.797   4.613
89578W        W62646  30.630  29.036  14.742
89579W        W62647  35.429  29.092   0.888
89580W        W62648  31.936  19.069   4.564
89581W        W62649   8.839  40.332   1.518
89582W        W62650  43.460  21.803   2.204
89583W        W62651  28.970  30.881  11.606
89584W        W62652  11.801  30.976   2.190
89585W        W62653  13.037   3.437   3.748
89586W        W62654  27.463  23.116   3.428
89587W        W62655  33.192  31.256  11.026
89588W        W62656  34.513  30.223   3.657
89589W        W62657  19.374   8.311  13.703
89590W        W62658  43.920  29.212  14.751
89591W        W62659  32.090  21.235   3.663
89592W        W62660  25.266  35.134   4.887
89593W        W62661  43.393  42.540  11.351
89594W        W62662  36.240   1.383  11.097
89595W        W62663  15.044  18.445  13.783
89596W        W62664  20.987   9.473   0.065
89597W        W62665  35.671  30.501   3.242
89598W        W62666  32.597  18.718   0.015
89599W        W62667  14.260  39.524   3.818
89600W        W62668   4.666  44.790  11.625
89601W        W62669  27.038  39.934  10.807
89602W        W62670  29.830  38.098   1.543
89603W        W62671  35.603   2.804  14.921
89604W        W62672  22.885  39.446  13.902
89605W        W62673  24.245   5.408  11.603
89606W        W62674   5.017  12.386   1.855
89607W        W62675  34.476  36.626   3.383
89608W        W62676   1.901  27.387  14.254
89609W        W62677   2.469  19.150   4.465
89610W        W62678  42.485  31.748   3.995
89611W        W62679  26.289   4.228  11.519
89612W        W62680   3.130  40.869   4.851
89613W        W62681  17.956  18.033  13.132
89614W        W62682  12.210   5.417  13.966
89615W        W62683  38.854  36.322  14.021
89616W        W62684  41.047   0.341  14.411
89617W        W62685   7.424  22.510   1.879
89618W        W62686  25.712  37.385   3.052
89619W        W62687  24.050  15.692   4.474
89620W        W62688   9.301  30.665  13.537
89621W        W62689  29.443  19.615   0.309
89622W        W62690  41.569  29.880  13.653
89623W        W62691  10.086  36.649  14.455
89624W        W62692  12.728   6.313   0.809
89625W        W62693  43.878  36.997   1.426
89626W        W62694   9.747  19.019  12.497
89627W        W62695   6.371  30.661  10.769
89628W        W62696  39.533  18.251  14.898
89629W        W62697   2.530  17.802  11.754
89630W        W62698  31.522  24.091  12.306
89631W        W62699  17.098  21.783   1.677
89632W        W62700  19.045  11.620   4.578
89633W        W62701  21.059  44.415  11.978
89634W        W62702  30.174  11.263   2.464
89635W        W62703  28.916  31.899  13.337
89636W        W62704   1.255  13.597   1.528
89637W        W62705   2.252  21.108  12.968
89638W        W62706   3.963  36.564   2.637
89639W        W62707   3.820  33.382   0.538
89640W        W62708   0.303   3.161   4.638
89641W        W62709  20.811  21.709  11.125
89642W        W62710  27.854   3.406   4.058
89643W        W62711  26.152  38.097  14.552
89644W        W62712  37.601  10.773  12.879
89645W        W62713  39.426   5.314   3.327
89646W        W62714  23.075   7.633   0.492
89647W        W62715   7.152  26.421   2.217
89648W        W62716   3.813  39.862   3.652
89649W        W62717  11.903  17.876   3.379
89650W        W62718  29.547  23.950   4.088
89651W        W62719  34.246  41.026  12.098
89652W        W62720   9.688   8.071  13.640
89653W        W62721  24.649   3.131  12.976
89654W        W62722   7.209  14.781  12.212
89655W        W62723  40.726  15.348   2.162
89656W        W62724  16.235   8.690   0.697
89657W        W62725  17.812  28.421   4.627
89658W        W62726  32.280  12.217   3.222
89659W        W62727  20.368  18.124  12.866
89660W        W62728  20.542   8.730   0.804
89661W        W62729  38.137   7.378   0.385
89662W        W62730   9.676  36.321  10.953
89663W        W62731   6.902   1.126  10.523
89664W        W62732  12.166  30.347   3.616
89665W        W62733  34.199  23.064  13.841
89666W        W62734   5.104  24.631   2.983
89667W        W62735  43.520   6.193   1.407
89668W        W62736   3.519  12.360  12.409
89669W        W62737  23.957  39.544   1.408
89670W        W62738  12.575  14.367   3.438
89671W        W62739   9.346  35.558  10.529
89672W        W62740  16.712   4.980   4.698
89673W        W62741  38.264  19.674  12.685
89674W        W62742  39.621  26.608  13.895
89675W        W62743   9.895  17.046  11.127
89676W        W62744  37.850  44.062  13.412
89677W        W62745  35.870  37.442   3.605
89678W        W62746  16.637  11.928  14.746
89679W        W62747   2.229  30.610   0.918
89680W        W62748   1.631  16.504   2.905
89681W        W62749  10.434  32.996   0.485
89682W        W62750  44.583  18.950   4.972
89683W        W62751  41.634  18.310  10.705
89684W        W62752   5.232  23.155  14.801
89685W        W62753  23.394  24.007  11.691
89686W        W62754  42.796  42.793  11.470
89687W        W62755   7.368  23.002   3.345
89688W        W62756   1.228   6.605   3.142
89689W        W62757  36.831  31.443  13.394
89690W        W62758  30.631  41.331  12.624
89691W        W62759   4.242  25.626   0.881
89692W        W62760  16.124  28.616   2.310
89693W        W62761  43.747   0.402  13.389
89694W        W62762  21.713   3.941  13.033
89695W        W62763  30.049   5.740   1.810
89696W        W62764  22.689   4.094  14.534
89697W        W62765  23.155  23.251   2.542
89698W        W62766  39.392  39.851  14.928
89699W        W62767  36.467   5.286  11.588
89700W        W62768  20.738  43.109  13.002
89701W        W62769  29.108  41.221   3.210
89702W        W62770  11.877  34.892  13.409
89703W        W62771  32.536  28.607  11.401
89704W        W62772  20.704  28.487  12.586
89705W        W62773  30.201  44.432   4.367
89706W        W62774  28.452  25.258   0.394
89707W        W62775  32.104  10.322   1.177
89708W        W62776   0.443  13.127   3.553
89709W        W62777   1.994   0.307  14.960
89710W        W62778  33.510  33.672  11.481
89711W        W62779   7.729  21.747  14.786
89712W        W62780  11.922   8.658   1.151
89713W        W62781  42.942  28.668   3.597
89714W        W62782  27.515  12.770   4.026
89715W        W62783  34.916  29.005  14.356
89716W        W62784  44.886  10.113   0.526
89717W        W62785   3.320  18.792   2.343
89718W        W62786   5.267  20.761   2.609
89719W        W62787  39.062  24.362  14.762
89720W        W62788  42.949  33.971   1.276
89721W        W62789  21.115  34.108  13.564
89722W        W62790  36.915  11.138  12.402
89723W        W62791  10.361  39.862  13.852
89724W        W62792  25.158  34.117   1.921
89725W        W62793  35.670  34.301  13.798
89726W        W62794  27.743  40.906  12.523
89727W        W62795  26.922  36.537   4.274
89728W        W62796  44.768  40.756  11.538
89729W        W62797  24.724  33.877  12.461
89730W        W62798  27.577  44.488  11.560
89731W        W62799  22.263  38.874  11.082
89732W        W62800  36.870   4.449   1.130
89733W        W62801   4.492  12.220  12.564
89734W        W62802  26.914  26.469   0.302
89735W        W62803   0.018  44.354   4.113
89736W        W62804   8.663  41.055   3.225
89737W        W62805  43.178  15.074   0.597
89738W        W62806   0.390   9.003  12.947
89739W        W62807  23.297  43.364   1.736
89740W        W62808  41.042   8.732   1.968
89741W        W62809  17.320  42.485   3.341
89742W        W62810  19.979   3.345  13.833
89743W        W62811  15.288  24.031  11.210
89744W        W62812   1.975   7.773  11.620
89745W        W62813  38.785  15.393   3.695
89746W        W62814  17.026  13.744  14.923
89747W        W62815  16.459   2.159  11.063
89748W        W62816   3.253  21.181  14.469
89749W        W62817   6.485  32.340   1.636
89750W        W62818  14.704   9.366  11.139
89751W        W62819   6.616  31.118  12.575
89752W        W62820   6.202  11.271   2.291
89753W        W62821  22.425  21.156  14.523
89754W        W62822   9.259  41.515   0.260
89755W        W62823  44.838  20.071   0.795
89756W        W62824  43.427   6.444   4.297
89757W        W62825  41.088  44.713   1.833
89758W        W62826  10.900  36.400  14.746
89759W        W62827  11.083   8.287   4.500
89760W        W62828   6.254  19.251  13.702
89761W        W62829  22.499  14.124  13.586
89762W        W62830  10.196   3.635  13.372
89763W        W62831  30.125  17.395   3.821
89764W        W62832  29.316  44.271  14.894
89765W        W62833  39.374  19.226  10.707
89766W        W62834  43.864   9.937  12.179
89767W        W62835  40.874   1.475  14.872
89768W        W62836  14.483  23.198  13.421
89769W        W62837  17.227  42.418  13.251
89770W        W62838  14.055  31.205   2.682
89771W        W62839   0.832   5.706   4.433
89772W        W62840   1.016  15.068  12.088
89773W        W62841  14.176  19.583  12.852
89774W        W62842  27.597   1.798   1.397
89775W        W62843  37.465  36.445  11.418
89776W        W62844   9.661  30.057  14.810
89777W        W62845  29.159   6.300   4.658
89778W        W62846   6.722  11.386  14.300
89779W        W62847  13.712  32.062  14.445
89780W        W62848  17.716   1.352  12.466
89781W        W62849  20.741  18.065   1.705
89782W        W62850   5.115  35.062   3.336
89783W        W62851  35.150  20.160  14.945
89784W        W62852  18.150  25.986   4.519
89785W        W62853   8.790  29.034   2.832
89786W        W62854  21.313  33.226   4.486
89787W        W62855  27.891  19.990  11.210
89788W        W62856  33.680   4.331   4.741
89789W        W62857  40.416   8.844   3.710
89790W        W62858  33.960  22.114  13.731
89791W        W62859  44.907  16.859  12.438
89792W        W62860   4.687  17.593   0.964
89793W        W62861  35.087  16.709   3.988
89794W        W62862  29.556  11.411   3.163
89795W        W62863  30.474  30.677   1.828
89796W        W62864  12.833   7.142   3.311
89797W        W62865   1.938  16.727  13.035
89798W        W62866  26.106  33.408  14.091
89799W        W62867  23.633   0.490   3.390
89800W        W62868  39.037  19.141   4.302
89801W        W62869  35.151  18.589  11.173
89802W        W62870   9.171  16.069  10.504
89803W        W62871   5.006   7.177   3.646
89804W        W62872  40.438  41.802   4.073
89805W        W62873   4.335  12.094  12.063
89806W        W62874  13.886  21.987   3.096
89807W        W62875   4.733  11.187  11.861
89808W        W62876  36.955  29.599  10.504
89809W        W62877   3.313  33.068  12.564
89810W        W62878  41.437  22.995  11.908
89811W        W62879  17.335  12.948  12.524
89812W        W62880  26.144  22.506  10.703
89813W        W62881  19.067   4.408   0.849
89814W        W62882  33.656  13.094  14.314
89815W        W62883  11.704  24.532   3.421
89816W        W62884  34.182  27.923  14.458
89817W        W62885   5.700  17.525   0.766
89818W        W62886  41.894  27.162  12.431
89819W        W62887   6.058   7.155   3.547
89820W        W62888  30.741  14.891   3.217
89821W        W62889   2.291  26.564   2.697
89822W        W62890  43.637  39.325  14.927
89823W        W62891  17.012  27.194   0.266
89824W        W62892  34.872  12.883  14.529
89825W        W62893  10.263   9.676   2.454
89826W        W62894  27.775  40.574  12.958
89827W        W62895  22.332  39.132   4.338
89828W        W62896  26.867  24.245  13.959
89829W        W62897   8.701  17.784  12.443
89830W        W62898  38.556  19.065  11.021
89831W        W62899  29.086  38.634   1.683
89832W        W62900  32.140  14.917   2.204
89833W        W62901  19.168  13.659  11.529
89834W        W62902   8.216   4.782   4.809
89835W        W62903  44.725  22.446   4.231
89836W        W62904   9.257  33.430  12.090
89837W        W62905  23.417  24.453  14.008
89838W        W62906  35.872  20.813   2.176
89839W        W62907  23.388   8.688  12.039
89840W        W62908  17.379  33.703   4.528
89841W        W62909   5.372  37.889   4.634
89842W        W62910  42.916  43.105  13.837
89843W        W62911  41.344  27.717  13.125
89844W        W62912  13.249  11.608   1.305
89845W        W62913  30.697  36.520  13.644
89846W        W62914  44.122  29.604  12.596
89847W        W62915  13.581  13.175   2.813
89848W        W62916  31.485  26.070   4.686
89849W        W62917  12.670   2.451   4.656
89850W        W62918  41.033  16.258   2.748
89851W        W62919  36.298  25.613   2.307
89852W        W62920  18.015   3.280   2.221
89853W        W62921   0.128  28.426   4.117
89854W        W62922  39.237  40.300  12.840
89855W        W62923  30.578  21.277  13.289
89856W        W62924  37.886   6.777  10.837
89857W        W62925  30.919  16.266   3.445
89858W        W62926  36.105  22.284  14.353
89859W        W62927  14.025   9.819  14.190
89860W        W62928  31.195  17.302   4.663
89861W        W62929  20.768  29.924   4.590
89862W        W62930  35.540  15.796   4.189
89863W        W62931   9.516  36.333  11.859
89864W        W62932  10.170  13.343   3.704
89865W        W62933  27.197  24.099   3.375
89866W        W62934   5.739  16.681  13.888
89867W        W62935  21.621  38.093   0.442
89868W        W62936  20.783  32.839   1.702
89869W        W62937  44.254  13.779   0.333
89870W        W62938  25.116  25.200   3.188
89871W        W62939  17.160  41.454   4.013
89872W        W62940  26.523  10.244   1.725
89873W        W62941  36.960  23.213  10.881
89874W        W62942  17.745   7.632   2.006
89875W        W62943  37.031  31.550  10.607
89876W        W62944  40.239  18.262  11.134
89877W        W62945  14.702  44.251  11.386
89878W        W62946  13.045   7.859  12.162
89879W        W62947  14.720  13.355   0.216
89880W        W62948  12.173  31.159  11.074
89881W        W62949   3.009  40.453  12.934
89882W        W62950  20.620  34.213   0.686
89883W        W62951  33.641  12.566  13.477
89884W        W62952   0.966  34.404  14.002
89885W        W62953  10.723  35.209  12.575
89886W        W62954  26.797  29.649   4.912
89887W        W62955  17.518  15.791  12.544
89888W        W62956  21.683  41.638  11.604
89889W        W62957  12.883  23.502   1.892
89890W        W62958   1.708  38.913   1.638
89891W        W62959  19.891  21.704  14.673
89892W        W62960  32.890   5.297  14.653
89893W        W62961   7.253  16.823  11.405
89894W        W62962  40.511  31.653  13.994
89895W        W62963  39.872  21.485  13.792
89896W        W62964  19.368  18.878  13.160
89897W        W62965  24.754  39.031   1.379
89898W        W62966  17.324  26.981   4.047
89899W        W62967   4.233   2.027   0.271
89900W        W62968   1.152   5.989  14.878
89901W        W62969  42.903  35.999   1.583
89902W        W62970   1.887  18.113   2.670
89903W        W62971  31.490  34.392  13.439
89904W        W62972   4.709  40.991   0.282
89905W        W62973  26.021  24.475   1.632
89906W        W62974  16.527   6.937  10.579
89907W        W62975  31.611  16.333   4.146
89908W        W62976  23.002  18.828   4.224
89909W        W62977  21.811  27.539  13.489
89910W        W62978  19.817  35.429  11.671
89911W        W62979  36.424  22.044  14.905
89912W        W62980  26.756  20.851   4.928
89913W        W62981  18.994  19.082  13.474
89914W        W62982  37.512  20.815   3.838
89915W        W62983  12.628  40.015   0.978
89916W        W62984  39.322  44.249   3.236
89917W        W62985  14.374  38.092   3.371
89918W        W62986   2.368  12.707  13.638
89919W        W62987  13.143  28.112   2.695
89920W        W62988  27.951  11.086  14.905
89921W        W62989   0.745  28.021   3.264
89922W        W62990   8.203  22.985  14.451
89923W        W62991  12.646   3.924  13.382
89924W        W62992  24.135  25.232  11.136
89925W        W62993   0.114  41.553   2.085
89926W        W62994  15.186   9.693   4.590
89927W        W62995   1.416  14.757   0.049
89928W        W62996  19.672  34.914  13.011
89929W        W62997   8.644  14.563   3.574
89930W        W62998  34.923  11.233  11.980
89931W        W62999  40.856  15.772   4.502
89932W        W63000   0.775  44.505  10.557
89933W        W63001  12.756  10.913   2.744
89934W        W63002  21.680  38.305  13.316
89935W        W63003  25.667  42.728  11.958
89936W        W63004  38.199  37.128  12.979
89937W        W63005  21.471  21.074   2.943
89938W        W63006  26.151  40.471  10.048
89939W        W63007  22.747  30.930   2.894
89940W        W63008  42.906  22.572  11.672
89941W        W63009   3.082  31.129  11.215
89942W        W63010   7.945  30.490  11.471
89943W        W63011  14.249  33.132  10.725
89944W        W63012  17.302  16.835   4.637
89945W        W63013  39.727  10.533  14.801
89946W        W63014  33.449  17.823   2.657
89947W        W63015  25.842  22.145  10.140
89948W        W63016  12.331  18.079   4.610
89949W        W63017  43.997   2.050   1.692
89950W        W63018   0.795  13.816   1.402
89951W        W63019  17.049   0.233  13.955
89952W        W63020  28.906  37.967   1.321
89953W        W63021  35.894  40.311  11.202
89954W        W63022  43.648  23.322  11.537
89955W        W63023   9.572   1.465  11.381
89956W        W63024  27.668  40.429   4.050
89957W        W63025   7.447  17.604  11.731
89958W        W63026   0.342  20.400  12.641
89959W        W63027   1.480  14.083   0.707
89960W        W63028   2.001   8.848   0.968
89961W        W63029  40.021  34.044  11.461
89962W        W63030  13.847  27.084  13.774
89963W        W63031  23.150  31.124  11.964
89964W        W63032  25.919   8.309   2.877
89965W        W63033  25.751   4.212  11.535
89966W        W63034  17.641   0.988   0.250
89967W        W63035  28.231  17.404  13.492
89968W        W63036  10.876  43.074  13.827
89969W        W63037   3.763  16.025  13.497
89970W        W63038  14.175  30.648  12.439
89971W        W63039  13.025  32.887   3.734
89972W        W63040  14.799   2.926  13.969
89973W        W63041   3.704  42.438   3.400
89974W        W63042  17.588  11.260   2.470
89975W        W63043  22.011  41.907  10.520
89976W        W63044  30.988   8.542   0.802
89977W        W63045   2.920  26.365  13.121
89978W        W63046   0.937  11.412  13.680
89979W        W63047  22.203  19.271  11.132
89980W        W63048  12.677  12.590  12.143
89981W        W63049   0.202  26.610   4.153
89982W        W63050  38.085  13.603   4.639
89983W        W63051  11.599  35.615  14.358
89984W        W63052  25.840  10.965   3.737
89985W        W63053   5.879  13.290   3.889
89986W        W63054  39.123  27.371   4.614
89987W        W63055  17.233  32.017  13.663
89988W        W63056  23.622  17.198  12.225
89989W        W63057  23.979  26.121   0.815
89990W        W63058   0.069  30.149  13.997
89991W        W63059  12.826  36.188  13.416
89992W        W63060  43.792  29.119   2.419
89993W        W63061  17.558  40.833   2.493
89994W        W63062  23.378  38.553  10.289
89995W        W63063  42.196  44.201   1.719
89996W        W63064  13.114   3.876   4.284
89997W        W63065   2.330  16.220  14.774
89998W        W63066  10.256  13.372  13.953
89999W        W63067   0.186  30.637  13.828
90000W        W63068  44.988  10.002  10.736
90001W        W63069  11.152   2.945  11.452
90002W        W63070  14.508  13.666  13.040
90003W        W63071  16.996  41.343   2.261
90004W        W63072  33.061  30.930   3.453
90005W        W63073  26.763  33.652   3.143
90006W        W63074  13.599  19.304  11.886
90007W        W63075  33.902  13.609  14.475
90008W        W63076   9.214  26.557  12.541
90009W        W63077  34.413   6.271  10.699
90010W        W63078  29.549  36.389   1.874
90011W        W63079  25.481  22.285   3.799
90012W        W63080  41.596  12.477  12.969
90013W        W63081   6.965  40.337  11.895
90014W        W63082  43.741  17.319   1.856
90015W        W63083  37.387  15.648  13.892
90016W        W63084  24.247   9.815  12.491
90017W        W63085  13.083  12.844   3.315
90018W        W63086  17.498   1.511  13.463
90019W        W63087   5.375  19.342   4.028
90020W        W63088  13.175   4.206  11.325
90021W        W63089  42.376   1.988   4.214
90022W        W63090   9.104  18.895   0.433
90023W        W63091  23.589  28.430   4.117
90024W        W63092  44.066  36.527  10.563
90025W        W63093  17.673  16.291  13.803
90026W        W63094  40.359   2.839  12.558
90027W        W63095  10.024  14.200  12.166
90028W        W63096  10.100  30.348   1.695
90029W        W63097   9.988  17.327  10.711
90030W        W63098  26.718  43.553  13.954
90031W        W63099   2.342  22.236   1.664
90032W        W63100  18.786   9.591   3.757
90033W        W63101  33.192  37.798   0.212
90034W        W63102  42.299  25.858   1.373
90035W        W63103  41.821   6.628   3.542
90036W        W63104  18.715  16.305  11.424
90037W        W63105  15.704   8.676  14.394
90038W        W63106  14.019   3.328  14.100
90039W        W63107   0.791   1.722   3.171
90040W        W63108  20.007  14.343  14.095
90041W        W63109   2.863  23.694  13.033
90042W        W63110   5.416  28.561  12.444
90043W        W63111  28.060  38.557   2.249
90044W        W63112   6.688  17.070  11.567
90045W        W63113  38.059  26.092   4.771
90046W        W63114  24.684  43.341  12.057
90047W        W63115   3.858  23.525  10.716
90048W        W63116  32.937  27.233   3.169
90049W        W63117  43.264  41.267   3.663
90050W        W63118  31.237  15.110   0.571
90051W        W63119  42.364  26.434  12.500
90052W        W63120  11.365   7.139  14.489
90053W        W63121  17.482   9.050   3.630
90054W        W63122  30.628  36.416  14.150
90055W        W63123  15.194  28.065   3.647
90056W        W63124   4.707  43.605   4.831
90057W        W63125  22.200  17.286  12.865
90058W        W63126  16.776  19.275   1.911
90059W        W63127  30.567  25.637   1.439
90060W        W63128  21.000  40.870  13.415
90061W        W63129  43.473   9.883   2.202
90062W        W63130   0.944  40.086   0.474
90063W        W63131   5.876  41.805  14.301
90064W        W63132  42.086  14.744  12.169
90065W        W63133   0.330  26.517   1.602
90066W        W63134  31.066   4.608  11.973
90067W        W63135  40.020  10.750  13.456
90068W        W63136   7.875  19.235   2.231
90069W        W63137  22.965   6.733   4.706
90070W        W63138  32.583   2.264   0.018
90071W        W63139  15.013  39.394  12.359
90072W        W63140  38.042  34.914   3.933
90073W        W63141   2.297   8.423   1.828
90074W        W63142   9.364  13.826   3.175
90075W        W63143  20.921   9.344  12.385
90076W        W63144  35.937  17.729   3.182
90077W        W63145  24.166  23.666   0.238
90078W        W63146   3.203  42.418  11.181
90079W        W63147  43.886  11.376   2.775
90080W        W63148  44.709  18.040  11.674
90081W        W63149  18.579  20.787  10.983
90082W        W63150   6.632  29.081   0.681
90083W        W63151  33.420  18.325   2.617
90084W        W63152  10.808   2.890   3.698
90085W        W63153   9.018  43.487  13.591
90086W        W63154  25.280  24.142   3.707
90087W        W63155  35.865   6.124  11.622
90088W        W63156  38.588   0.212  14.972
90089W        W63157  36.600  23.712  13.769
90090W        W63158   3.230  15.996  10.522
90091W        W63159  24.706  22.277   0.978
90092W        W63160  41.745  11.859  10.476
90093W        W63161   9.384  36.464  13.820
90094W        W63162  25.446   6.363  11.031
90095W        W63163  34.147  38.776   4.550
90096W        W63164  11.670  17.977  13.022
90097W        W63165  17.157  25.247   2.165
90098W        W63166  16.170   1.573   1.725
90099W        W63167  41.433   5.701  12.878
90100W        W63168  14.647  16.807   3.180
90101W        W63169   6.630  28.492   4.127
90102W        W63170  11.657  37.926   1.142
90103W        W63171  34.050  44.757   1.406
90104W        W63172  28.066  31.538   0.001
90105W        W63173  23.427  14.425   4.177
90106W        W63174  41.220  23.182   3.070
90107W        W63175   8.805  43.817  13.288
90108W        W63176  22.492  44.794   1.328
90109W        W63177  13.655  11.267   1.343
90110W        W63178  23.256  18.703   4.970
90111W        W63179  21.101   5.608  13.866
90112W        W63180  26.556  13.277   3.835
90113W        W63181  14.521  15.344  12.528
90114W        W63182  35.365   4.262  11.676
90115W        W63183  31.145  43.386   0.648
90116W        W63184  21.307   6.913   1.436
90117W        W63185   4.739  10.856   4.505
90118W        W63186   4.984  27.143   4.340
90119W        W63187   7.748  26.895  12.219
90120W        W63188  15.259  21.968  11.048
90121W        W63189  22.210  43.751  10.719
90122W        W63190  18.593  43.529  13.426
90123W        W63191  32.771  25.985  13.889
90124W        W63192  32.795   9.602   1.383
90125W        W63193  24.219  36.855   4.717
90126W        W63194   0.578  30.725   0.699
90127W        W63195  32.478  31.446   4.247
90128W        W63196  16.707  15.799   2.076
90129W        W63197  24.536   7.815   1.305
90130W        W63198   4.516   3.268   2.423
90131W        W63199  26.964  14.623   3.307
90132W        W63200   2.386  19.366  12.601
90133W        W63201  16.981  37.832  10.645
90134W        W63202  12.844  20.280   0.475
90135W        W63203   4.698  43.985  13.554
90136W        W63204  23.254   5.430  11.507
90137W        W63205  20.537  29.750  13.299
90138W        W63206  30.112   5.871  12.859
90139W        W63207   3.225  12.945   2.366
90140W        W63208   3.491  38.974  13.911
90141W        W63209  12.395  12.282  13.378
90142W        W63210  22.499  17.305   4.557
90143W        W63211  41.907  28.393   0.359
90144W        W63212  30.993  12.639   4.533
90145W        W63213  32.943  27.244   2.237
90146W        W63214  42.954  24.712   3.659
90147W        W63215  32.583  20.792   0.402
90148W        W63216   5.774  37.532  11.216
90149W        W63217  43.023   8.321  13.387
90150W        W63218  33.965  40.000  13.474
90151W        W63219  35.713  35.410  11.136
90152W        W63220  41.065  39.486   4.547
90153W        W63221   0.421   7.940  11.507
90154W        W63222  43.918   5.351  12.657
90155W        W63223   0.419  25.468   3.579
90156W        W63224  31.222  18.208   4.472
90157W        W63225  33.320  44.471   3.969
90158W        W63226  12.963  18.709  10.164
90159W        W63227  26.126  42.311   4.807
90160W        W63228  14.173   4.912   1.024
90161W        W63229   1.721  41.824   2.302
90162W        W63230  15.838   6.367   1.315
90163W        W63231  15.244   0.970   0.771
90164W        W63232   0.479  19.099   0.334
90165W        W63233   1.660  12.420  13.398
90166W        W63234   4.270  24.701   3.332
90167W        W63235  23.919   2.995   2.790
90168W        W63236  16.111  26.216  10.723
90169W        W63237  10.098   0.080   1.890
90170W        W63238  30.647  19.953  14.789
90171W        W63239   9.729  40.684  13.801
90172W        W63240  34.804  38.969  11.505
90173W        W63241  11.888  12.203  13.371
90174W        W63242  18.208   8.731   0.331
90175W        W63243  42.424  21.541   3.320
90176W        W63244  44.205  18.752  10.124
90177W        W63245  34.561   5.280   0.417
90178W        W63246  18.058  31.073   4.031
90179W        W63247  29.837  18.402   2.247
90180W        W63248  14.319  41.275   0.414
90181W        W63249  18.185  38.306  11.686
90182W        W63250  34.981  11.790   0.551
90183W        W63251  30.012  27.753   1.919
90184W        W63252  21.246  35.297  12.176
90185W        W63253  12.252  22.580  14.114
90186W        W63254  28.400  37.605   3.841
90187W        W63255  41.936  11.613   1.786
90188W        W63256   8.359  42.300  14.452
90189W        W63257   6.690  25.645   1.761
90190W        W63258   3.211  41.557   3.117
90191W        W63259   9.310   7.623   3.715
90192W        W63260  14.812  24.548  13.468
90193W        W63261  22.171  25.313  13.349
90194W        W63262  12.390  10.257   0.205
90195W        W63263  17.171  31.161  11.160
90196W        W63264  12.476  18.639  13.909
90197W        W63265  16.787  42.778   4.180
90198W        W63266   4.571  19.931  13.441
90199W        W63267  12.302  14.252  10.751
90200W        W63268  30.478  42.267  13.834
90201W        W63269  13.288   7.862  10.774
90202W        W63270   2.519   5.153  14.904
90203W        W63271  14.047   3.845  11.211
90204W        W63272  38.912  21.155  12.910
90205W        W63273  42.085  21.589   2.935
90206W        W63274  12.287  16.363   1.409
90207W        W63275  31.570  14.608  14.247
90208W        W63276  11.283  19.208  14.864
90209W        W63277   9.560  42.777   4.211
90210W        W63278  19.581   7.230  11.132
90211W        W63279  19.619  38.265   1.066
90212W        W63280  36.954  28.181   1.823
90213W        W63281  18.285   6.939  11.045
90214W        W63282  39.716   2.740   4.211
90215W        W63283  27.003  38.560  12.940
90216W        W63284   7.616  26.795   4.014
90217W        W63285  14.774  28.630   0.472
90218W        W63286   3.210  43.271  11.622
90219W        W63287   6.405  33.903   1.788
90220W        W63288  26.700   0.033  13.408
90221W        W63289  28.442  25.058   1.814
90222W        W63290   1.881  16.870   4.841
90223W        W63291  30.030  42.575   4.793
90224W        W63292  21.064  35.881   3.405
90225W        W63293   2.717   4.289  14.942
90226W        W63294  43.402  17.541   2.389
90227W        W63295  31.886  37.967  10.851
90228W        W63296  29.587  14.360   1.224
90229W        W63297  43.424  27.926  10.620
90230W        W63298  27.163  39.810  14.981
90231W        W63299  11.309  43.663  11.344
90232W        W63300  34.141  20.929   3.149
90233W        W63301   7.106  21.699   1.091
90234W        W63302  18.631  43.260   1.152
90235W        W63303   1.164  32.336  14.641
90236W        W63304  22.603  36.292  14.367
90237W        W63305  11.069   3.453  11.058
90238W        W63306  44.806  15.768  10.501
90239W        W63307  19.188   1.307  13.716
90240W        W63308   8.792  26.958   0.378
90241W        W63309  21.978   9.479   0.885
90242W        W63310   6.435  20.817  11.212
90243W        W63311  36.436   6.248  13.302
90244W        W63312   3.755  35.088  14.548
90245W        W63313  21.735   6.800  10.450
90246W        W63314   7.327  22.033  12.924
90247W        W63315  17.902  20.639   4.875
90248W        W63316  27.994  36.055   0.461
90249W        W63317  32.957   9.898  11.602
90250W        W63318  17.708   9.851  10.536
90251W        W63319   0.895   3.920  13.208
90252W        W63320  13.863   9.722  12.876
90253W        W63321  10.578  28.591  13.410
90254W        W63322  23.218  29.188   3.596
90255W        W63323  25.275  40.354  14.337
90256W        W63324  16.382  36.963  10.695
90257W        W63325  32.150   1.443  13.036
90258W        W63326  29.401  36.472   1.381
90259W        W63327   3.719  17.126  12.521
90260W        W63328  13.919  36.329   2.815
90261W        W63329  42.739  31.780  13.373
90262W        W63330  10.161  42.252   1.777
90263W        W63331  38.530  28.894  11.525
90264W        W63332  35.418  29.134  11.726
90265W        W63333  42.021  10.902  12.151
90266W        W63334   0.556  14.370   5.216
90267W        W63335  40.391  44.399   1.752
90268W        W63336  33.191  38.210  12.442
90269W        W63337  26.457  33.817   2.496
90270W        W63338  41.263  30.887  14.593
90271W        W63339   0.438  21.481   3.231
90272W        W63340  19.892   1.691  13.163
90273W        W63341  11.166  13.598  13.910
90274W        W63342   1.663  43.068   0.375
90275W        W63343  26.504  39.805   3.839
90276W        W63344  44.553   0.899   2.894
90277W        W63345  25.868  32.547   3.779
90278W        W63346  32.129  31.651   2.753
90279W        W63347  40.210   6.989  13.080
90280W        W63348  21.759  24.899   0.467
90281W        W63349  25.883   3.075   2.725
90282W        W63350   7.138  22.132   2.830
90283W        W63351  25.140  29.381  11.512
90284W        W63352  15.656  44.457   0.954
90285W        W63353  25.211  22.473  12.906
90286W        W63354  24.520  41.748   4.735
90287W        W63355  38.973  24.267   1.308
90288W        W63356  22.966  18.680  10.174
90289W        W63357  20.776   9.154  11.077
90290W        W63358  11.002  35.088  12.058
90291W        W63359  11.702   0.015  14.911
90292W        W63360  13.571   3.081   2.700
90293W        W63361   4.734  40.265   4.899
90294W        W63362  16.156  38.897   1.860
90295W        W63363  33.647   9.111   4.903
90296W        W63364   2.872  24.123   2.932
90297W        W63365  38.566   5.767   0.929
90298W        W63366  11.152  41.837  13.961
90299W        W63367  30.033  20.167   0.988
90300W        W63368  22.506   0.023  10.953
90301W        W63369  34.970   0.259   2.152
90302W        W63370  12.910  13.786   2.668
90303W        W63371  29.189  26.643   2.830
90304W        W63372  33.614  15.100   3.282
90305W        W63373  27.201  22.802  11.127
90306W        W63374  33.454   9.649   0.193
90307W        W63375  24.236  23.748   1.511
90308W        W63376  39.753  13.126   0.284
90309W        W63377  29.696  15.182   0.825
90310W        W63378  28.805  14.954   0.613
90311W        W63379  29.447  12.804   0.369
90312W        W63380  22.397  38.922  13.174
90313W        W63381  36.932  24.937  12.642
90314W        W63382  36.555  11.740   2.622
90315W        W63383  20.053  44.524  14.711
90316W        W63384  26.099  21.600  13.576
90317W        W63385  42.310  10.997   3.630
90318W        W63386   9.024   8.556  14.926
90319W        W63387  33.390  41.528   1.158
90320W        W63388   1.857  27.203   3.614
90321W        W63389  33.540  30.582  14.338
90322W        W63390   5.942  21.577  12.119
90323W        W63391  42.755  20.169  14.418
90324W        W63392   4.787   6.856   2.458
90325W        W63393  20.504  10.808  13.360
90326W        W63394   5.484   8.402   3.516
90327W        W63395   5.696  41.815  14.791
90328W        W63396  19.304  20.580   3.276
90329W        W63397  10.834   1.620  12.922
90330W        W63398   4.901  11.889   0.970
90331W        W63399  29.178  36.484   3.180
90332W        W63400  14.550  23.909   4.682
90333W        W63401   8.449  35.169  11.115
90334W        W63402  21.159   8.434  11.797
90335W        W63403  10.062  40.986  11.140
90336W        W63404   4.868  31.800  10.950
90337W        W63405  19.954  32.153  12.025
90338W        W63406  20.646  18.301  12.453
90339W        W63407  33.868  19.234   0.912
90340W        W63408  29.427   5.857   2.914
90341W        W63409  36.498  10.837   3.640
90342W        W63410  30.096  15.115  11.602
90343W        W63411  37.023   5.478   0.739
90344W        W63412  13.487  41.833   2.028
90345W        W63413   3.336  11.734   0.484
90346W        W63414  12.467  15.256  12.751
90347W        W63415  24.703  12.345  14.912
90348W        W63416  39.467  18.384  13.900
90349W        W63417   5.863  28.122  14.018
90350W        W63418  27.991  30.159   4.837
90351W        W63419  41.231   6.678   2.221
90352W        W63420  35.731  21.247  11.862
90353W        W63421  25.230  16.874  13.988
90354W        W63422  11.431  16.730   1.408
90355W        W63423  25.156  19.772  10.968
90356W        W63424  20.699   6.819  14.451
90357W        W63425  42.175   6.761  13.986
90358W        W63426  32.142   0.864  13.576
90359W        W63427  13.370  44.649  10.442
90360W        W63428  27.466  40.026   3.173
90361W        W63429  20.822   8.614   2.328
90362W        W63430  26.185  31.395   3.339
90363W        W63431   3.690  15.595  14.444
90364W        W63432  38.471   3.703  12.551
90365W        W63433  39.185  15.748   3.759
90366W        W63434  25.681  16.567  13.981
90367W        W63435  39.338  10.160  14.879
90368W        W63436   5.513  44.647   1.889
90369W        W63437  28.925  37.322   0.409
90370W        W63438   2.861  33.233  12.299
90371W        W63439  39.068  19.300   0.692
90372W        W63440   2.332   4.247   2.721
90373W        W63441  34.391   9.379  11.054
90374W        W63442  22.112  17.235  14.912
90375W        W63443   6.409  29.206   4.152
90376W        W63444  14.543  32.986   0.244
90377W        W63445  11.724  33.904   3.198
90378W        W63446   3.984  25.671   1.317
90379W        W63447  25.105  30.173   3.750
90380W        W63448  44.389   7.815   4.670
90381W        W63449   8.888  14.342  10.763
90382W        W63450  36.774  16.655  12.068
90383W        W63451  34.428  22.747  14.261
90384W        W63452  33.493  40.831  10.508
90385W        W63453  28.997  38.419   4.354
90386W        W63454  10.108   4.768  10.578
90387W        W63455  26.720  21.424  14.271
90388W        W63456  31.185   4.392   5.108
90389W        W63457  37.566  37.246   0.675
90390W        W63458  22.182  16.541   9.832
90391W        W63459  39.208   3.376  14.306
90392W        W63460  28.609  43.265   0.980
90393W        W63461  22.981  44.820  12.128
90394W        W63462   9.419  20.581   5.032
90395W        W63463  10.788  39.863  14.750
90396W        W63464  26.277  32.398  14.785
90397W        W63465  20.264  10.371  12.068
90398W        W63466  29.453   6.749   2.602
90399W        W63467  23.173  22.789   4.728
90400W        W63468  41.429  21.626   4.102
90401W        W63469  20.207  27.460   0.448
90402W        W63470  15.135  43.742   4.401
90403W        W63471  38.663  37.036   1.862
90404W        W63472  18.387  32.307  14.822
90405W        W63473   9.949  17.624   4.661
90406W        W63474  20.495  33.198   4.961
90407W        W63475  13.119   8.817  13.603
90408W        W63476  27.435  25.700   0.432
90409W        W63477  12.219  17.646   3.756
90410W        W63478   6.654  22.037  14.605
90411W        W63479  34.575  18.635   0.656
90412W        W63480   5.796   9.465  10.450
90413W        W63481  31.176  11.210   0.991
90414W        W63482  37.073  36.501   2.330
90415W        W63483  13.111  15.520  12.030
90416W        W63484   6.267  19.953  14.958
90417W        W63485  35.946  33.196   2.874
90418W        W63486  24.440  38.398  12.878
90419W        W63487  21.298   5.009   2.331
90420W        W63488  29.214  17.699   1.627
90421W        W63489  30.839   2.225   5.051
90422W        W63490   6.896  26.582  11.680
90423W        W63491  29.033  40.307  11.201
90424W        W63492   8.927  25.560  12.522
90425W        W63493  39.407   5.752  12.849
90426W        W63494  39.619  11.881   1.767
90427W        W63495  29.422  39.908  14.815
90428W        W63496  11.874  17.148   2.865
90429W        W63497  31.242  29.518   1.425
90430W        W63498  24.472  44.211  14.308
90431W        W63499  13.457  35.801  12.900
90432W        W63500   5.483   7.715  11.061
90433W        W63501  18.843   9.490   1.402
90434W        W63502  10.745   7.400  11.353
90435W        W63503  30.950   8.391  12.002
90436W        W63504   9.395  28.977  14.080
90437W        W63505  39.372  26.784  12.948
90438W        W63506  31.202  22.793  10.827
90439W        W63507  43.239  13.802   0.333
90440W        W63508  44.914  38.613  11.712
90441W        W63509  34.844  25.305  12.127
90442W        W63510  42.971  30.007   3.730
90443W        W63511   1.876  30.661  10.778
90444W        W63512   6.652  11.294   3.207
90445W        W63513  34.541  13.664   2.155
90446W        W63514  27.602   6.349  12.558
90447W        W63515  38.590   6.184  10.972
90448W        W63516  44.533  10.626  12.844
90449W        W63517  30.915   5.752   0.531
90450W        W63518  43.286  23.917  12.396
90451W        W63519   0.739  29.181  14.860
90452W        W63520  14.360  43.269  11.063
90453W        W63521  41.232  28.265   2.988
90454W        W63522  11.976   8.253   3.648
90455W        W63523  28.115   9.586   2.600
90456W        W63524  41.000  42.544  11.174
90457W        W63525  16.931  17.561   0.721
90458W        W63526  38.251  11.792  11.923
90459W        W63527   3.668   9.724  11.915
90460W        W63528  10.595  39.400   2.222
90461W        W63529  16.373  20.997  14.905
90462W        W63530   6.309  14.245  12.149
90463W        W63531  27.113  11.874  12.025
90464W        W63532   5.176  16.819   1.453
90465W        W63533  20.975  32.539   2.879
90466W        W63534  25.110  18.260  11.473
90467W        W63535  27.833   4.366   1.740
90468W        W63536  26.797  27.931   0.441
90469W        W63537  22.739  29.995  10.697
90470W        W63538  32.606   9.672   2.295
90471W        W63539  33.135   6.028   4.653
90472W        W63540  36.474  28.435   4.045
90473W        W63541  39.284  22.629   0.747
90474W        W63542   1.954  15.848  10.677
90475W        W63543  24.582   7.764  11.938
90476W        W63544   5.361   3.704  13.545
90477W        W63545  34.744  30.439  11.049
90478W        W63546  10.110   6.663  12.394
90479W        W63547  38.301  36.849  11.128
90480W        W63548  44.512  44.010  12.423
90481W        W63549   5.408  28.659  10.743
90482W        W63550  19.720   1.763   4.652
90483W        W63551  25.115  37.876  11.890
90484W        W63552   5.734  16.110  13.281
90485W        W63553  38.505  18.681  13.674
90486W        W63554  43.324  22.149   0.170
90487W        W63555  22.197  19.388   0.767
90488W        W63556  11.866  21.758  13.708
90489W        W63557  16.300  38.439  13.516
90490W        W63558  44.686  15.123   1.932
90491W        W63559  14.871  43.879  13.782
90492W        W63560  42.871  36.857   0.300
90493W        W63561  29.897  35.100  10.747
90494W        W63562  30.318  16.630  13.676
90495W        W63563  44.835  15.458   2.744
90496W        W63564   4.490  39.124  10.952
90497W        W63565  42.959  13.876  13.058
90498W        W63566  14.827  22.114  13.928
90499W        W63567  42.554  35.068  13.327
90500W        W63568  27.189   6.513  13.451
90501W        W63569  10.861  22.898  11.175
90502W        W63570  27.724  21.392   2.852
90503W        W63571  25.471   6.080  12.795
90504W        W63572  22.516   0.237  13.657
90505W        W63573  11.775  25.968   4.713
90506W        W63574   0.677   7.082   1.187
90507W        W63575  40.513  25.588   2.408
90508W        W63576  32.088  10.803   1.394
90509W        W63577  29.019  24.656  12.453
90510W        W63578  30.086  21.680  13.973
90511W        W63579  35.876  40.865  12.569
90512W        W63580  27.626  11.285   0.375
90513W        W63581  30.987  23.312   4.640
90514W        W63582  17.097  32.505   3.197
90515W        W63583  44.944  42.822  10.585
90516W        W63584   1.794   7.952  13.759
90517W        W63585  11.581  37.890  13.083
90518W        W63586   4.837  25.530   1.668
90519W        W63587  35.445  17.341   4.632
90520W        W63588   9.198  25.030   2.205
90521W        W63589  33.400  42.812  13.411
90522W        W63590   8.730  14.300  14.304
90523W        W63591  40.099  11.082   1.844
90524W        W63592  13.757  15.586   3.105
90525W        W63593  21.255  36.889  11.181
90526W        W63594  31.609  36.874  11.597
90527W        W63595  19.705   9.345   4.307
90528W        W63596   4.294  33.431   1.257
90529W        W63597  12.172  39.887   0.754
90530W        W63598  23.618  19.712  14.512
90531W        W63599  37.833  25.964   1.749
90532W        W63600   6.528   8.820   0.426
90533W        W63601  10.241  26.594   1.593
90534W        W63602  32.962   1.024   0.419
90535W        W63603  19.870  40.286   2.163
90536W        W63604  24.545   0.772   1.336
90537W        W63605   6.737   8.911  14.930
90538W        W63606  43.533  30.049  11.603
90539W        W63607  16.368  22.422  13.433
90540W        W63608  44.083  36.882  13.671
90541W        W63609  29.168  25.664   0.509
90542W        W63610  17.104  10.224  10.340
90543W        W63611  17.650  21.804  12.864
90544W        W63612  25.205  43.838  14.533
90545W        W63613  32.694   5.455   0.355
90546W        W63614   2.483   1.004  11.993
90547W        W63615  28.651  14.709   4.855
90548W        W63616   1.548  29.127   3.670
90549W        W63617  31.120  41.902  11.736
90550W        W63618  43.264  44.896  13.960
90551W        W63619   6.453  19.319   1.013
90552W        W63620  39.026   9.232   2.098
90553W        W63621  42.339  10.642   1.312
90554W        W63622   4.956  38.236  14.705
90555W        W63623  10.179  26.273   1.969
90556W        W63624  25.513  38.305   4.586
90557W        W63625  43.994  31.867  12.827
90558W        W63626   4.438  13.248  14.564
90559W        W63627  21.575  36.800  13.635
90560W        W63628  44.254  17.998   3.662
90561W        W63629  25.807  10.143   2.440
90562W        W63630  41.481   2.658   4.303
90563W        W63631  41.653  20.684   1.315
90564W        W63632  15.944   9.551  10.606
90565W        W63633  32.495  13.697   1.986
90566W        W63634  42.302  30.345  11.648
90567W        W63635  10.234  31.630   0.046
90568W        W63636  26.388  25.133  14.579
90569W        W63637  25.705  39.794  13.359
90570W        W63638  23.501  22.471  11.622
90571W        W63639  35.192  14.720  13.788
90572W        W63640   4.873  32.681   3.643
90573W        W63641  37.550  30.386  12.853
90574W        W63642  18.631  10.673   2.306
90575W        W63643   0.989   6.496  12.016
90576W        W63644  13.625  11.112  14.944
90577W        W63645  20.753  41.544   0.746
90578W        W63646  21.769   1.332  14.910
90579W        W63647   3.819  44.423  14.129
90580W        W63648  31.523  15.851  10.559
90581W        W63649  14.113  18.891   0.844
90582W        W63650   4.269  34.535  10.844
90583W        W63651  12.688  34.788  12.514
90584W        W63652  28.503  16.715  12.464
90585W        W63653  35.468  32.985  14.564
90586W        W63654   0.365  21.100  14.317
90587W        W63655   0.896  25.147   3.639
90588W        W63656   2.919  41.570   0.253
90589W        W63657   7.838  38.417   0.796
90590W        W63658  26.178  17.404  13.945
90591W        W63659  17.049  26.511   2.337
90592W        W63660   1.955  16.778  11.835
90593W        W63661  21.203  28.263   4.638
90594W        W63662  35.394  14.228  13.952
90595W        W63663  10.897  33.875  12.868
90596W        W63664  40.536   3.253   0.358
90597W        W63665  27.687  40.070   2.296
90598W        W63666  41.099  12.656   5.216
90599W        W63667  43.845   1.956  13.099
90600W        W63668  34.625  40.404   1.338
90601W        W63669   9.180   1.734  13.045
90602W        W63670  37.917  39.769  11.606
90603W        W63671  44.378  18.672  14.717
90604W        W63672   0.558  43.176   2.772
90605W        W63673  32.005  15.138   2.646
90606W        W63674  21.649  22.557  12.122
90607W        W63675  22.251  31.476   3.800
90608W        W63676  25.301  36.895   4.543
90609W        W63677  20.005  40.319   0.099
90610W        W63678  35.548   6.682   4.238
90611W        W63679  44.507  32.636   4.151
90612W        W63680  14.367  41.932  10.484
90613W        W63681  37.548  21.126   2.502
90614W        W63682  43.847  14.663  14.893
90615W        W63683  33.379  39.289  11.956
90616W        W63684  32.337  44.578   4.275
90617W        W63685  28.952  26.375  11.079
90618W        W63686  42.503   4.767  12.854
90619W        W63687  15.755   0.404  14.328
90620W        W63688  27.485  30.625  11.563
90621W        W63689  11.867  23.631  10.765
90622W        W63690  33.905  10.159   2.806
90623W        W63691  21.591  34.178   2.137
90624W        W63692   9.662  37.948   1.187
90625W        W63693   5.269   3.878   1.657
90626W        W63694  39.918  42.290  14.639
90627W        W63695  28.510   0.493  10.688
90628W        W63696  32.616   1.739   0.109
90629W        W63697  44.255  24.115   1.978
90630W        W63698  25.992   1.109  12.852
90631W        W63699  14.040  26.113   2.278
90632W        W63700   1.734   3.297   3.292
90633W        W63701  35.891   9.211   4.212
90634W        W63702  43.189  10.676  11.146
90635W        W63703   9.905  26.475   4.194
90636W        W63704  43.341  42.594  11.870
90637W        W63705  13.599  42.660  14.990
90638W        W63706  20.124  22.163   4.412
90639W        W63707  28.553   6.799   2.735
90640W        W63708  30.619   7.939   4.788
90641W        W63709  32.983  28.622  10.631
90642W        W63710  38.393  33.936  12.932
90643W        W63711  23.819  23.573  12.518
90644W        W63712  34.384  25.903  11.663
90645W        W63713  10.387  11.531  12.826
90646W        W63714  43.455  31.691   1.457
90647W        W63715  15.774  25.114   0.471
90648W        W63716  39.394  25.715  10.584
90649W        W63717   2.484   3.428   1.312
90650W        W63718  37.163  43.313  14.423
90651W        W63719  44.953   7.423   2.368
90652W        W63720   8.826  23.600   0.517
90653W        W63721  28.394  12.288  13.878
90654W        W63722  21.527  34.156  14.907
90655W        W63723  14.028   1.226   2.300
90656W        W63724   0.928  14.117  14.803
90657W        W63725  42.327  25.257  14.911
90658W        W63726   2.553   3.486   3.762
90659W        W63727  42.222   2.431  13.795
90660W        W63728  31.344   3.139  10.970
90661W        W63729  12.668  21.696   3.591
90662W        W63730  23.043  18.722   3.699
90663W        W63731  35.739   8.639   2.383
90664W        W63732  25.038  44.925  10.635
90665W        W63733  29.239   4.381   4.637
90666W        W63734  34.569  25.732   2.671
90667W        W63735  15.565  39.383   4.153
90668W        W63736   0.729  26.231   1.350
90669W        W63737  17.270   2.724  12.120
90670W        W63738   0.439  17.242  11.187
90671W        W63739  19.373  31.367  14.903
90672W        W63740  34.555  36.512   0.420
90673W        W63741  38.918  36.823  14.102
90674W        W63742   2.432  31.219  14.457
90675W        W63743   7.170  17.160  11.795
90676W        W63744  31.115  37.161  14.390
90677W        W63745   1.718  10.098  13.108
90678W        W63746  17.031  44.065   0.768
90679W        W63747   2.774  15.602  12.511
90680W        W63748   5.484  37.973   0.867
90681W        W63749  12.806  13.654  12.346
90682W        W63750  35.936   9.331   0.514
90683W        W63751  11.203  33.418   0.279
90684W        W63752  10.054   9.125  11.220
90685W        W63753  13.805  22.725   3.710
90686W        W63754  20.204  19.639   5.029
90687W        W63755  33.131  28.140  10.879
90688W        W63756  31.674  32.344   4.281
90689W        W63757  23.306  30.083   2.262
90690W        W63758  32.172  27.487   1.303
90691W        W63759  34.441  11.842   2.380
90692W        W63760  22.745   8.394  13.277
90693W        W63761  43.793  32.593   2.767
90694W        W63762  14.213  34.519  12.925
90695W        W63763  26.705  27.481   3.148
90696W        W63764   1.980  18.430   0.812
90697W        W63765  33.021  41.219   1.345
90698W        W63766   7.489   8.396  14.120
90699W        W63767  29.181   6.208  14.939
90700W        W63768  31.492  42.772  12.656
90701W        W63769  42.198  19.629  14.038
90702W        W63770  12.940  35.942   1.890
90703W        W63771   6.854  35.741   1.949
90704W        W63772  39.055   8.854   2.829
90705W        W63773  22.733  29.968   4.566
90706W        W63774  43.312  42.261   1.479
90707W        W63775   4.958  29.426   0.405
90708W        W63776  28.871  12.706  14.522
90709W        W63777   0.293  37.498  12.817
90710W        W63778  32.249  39.037  12.809
90711W        W63779  30.333  20.608   0.978
90712W        W63780  35.404  25.193   0.830
90713W        W63781  30.806   1.771   4.771
90714W        W63782   6.786   6.305   2.236
90715W        W63783  24.059  23.557  10.768
90716W        W63784   4.600   1.367  11.719
90717W        W63785  28.406   5.312  13.366
90718W        W63786   2.352  34.370   0.587
90719W        W63787  10.867  33.629  13.323
90720W        W63788  10.644  33.873   3.334
90721W        W63789   1.368   3.180  14.904
90722W        W63790  39.000  22.064  11.538
90723W        W63791   2.293  34.798  11.845
90724W        W63792  39.220  34.382  13.204
90725W        W63793  40.392  11.605   2.848
90726W        W63794  32.082  12.162   0.745
90727W        W63795  13.611  10.596  14.051
90728W        W63796  35.722  26.453  12.913
90729W        W63797   7.747  44.731  11.677
90730W        W63798  42.705  40.538   3.880
90731W        W63799   5.891   4.879  10.679
90732W        W63800  34.399   3.916  10.743
90733W        W63801   3.866  28.802   0.325
90734W        W63802   2.906   2.905   3.422
90735W        W63803   6.485   6.661  11.819
90736W        W63804  35.435   0.286  12.358
90737W        W63805  25.018  44.277   0.831
90738W        W63806  31.939   5.165   1.771
90739W        W63807  31.827  34.958  11.850
90740W        W63808   5.773  28.573   0.899
90741W        W63809  32.921  38.491   4.370
90742W        W63810  40.293  39.643   3.662
90743W        W63811  25.197  37.202   4.938
90744W        W63812   9.155  28.620  13.414
90745W        W63813   1.800  25.864  14.524
90746W        W63814  38.295   2.477   3.255
90747W        W63815   8.862  42.842   0.393
90748W        W63816  14.786  17.868   1.300
90749W        W63817   2.703  26.141  12.288
90750W        W63818   7.826  11.867   4.081
90751W        W63819  33.601  30.132  14.774
90752W        W63820  11.726  31.845   2.277
90753W        W63821  13.125  12.460  11.853
90754W        W63822  15.333  28.095   4.736
90755W        W63823  24.986  38.088   3.740
90756W        W63824  25.941  18.659   3.168
90757W        W63825  10.270  28.219  12.849
90758W        W63826   9.455  10.593   2.312
90759W        W63827   4.023  29.649   4.452
90760W        W63828  41.889  32.557   1.227
90761W        W63829  29.416  14.892  13.167
90762W        W63830  12.262  27.619   4.451
90763W        W63831   8.277  15.759   1.022
90764W        W63832  18.138  15.297  12.327
90765W        W63833   7.025  20.512   2.852
90766W        W63834  22.284  14.855   1.354
90767W        W63835  38.532  40.464   4.504
90768W        W63836  11.149  17.881   0.386
90769W        W63837  14.639  21.142  14.389
90770W        W63838  36.109  19.493  14.398
90771W        W63839  35.049  40.586  11.422
90772W        W63840   6.308  29.474   2.745
90773W        W63841  20.507  32.662   3.770
90774W        W63842  42.578  13.623   2.423
90775W        W63843  14.258  11.575   2.505
90776W        W63844  14.694   2.263  10.736
90777W        W63845  26.663  35.426   3.613
90778W        W63846  33.402  13.638   1.052
90779W        W63847  36.404  28.870  11.148
90780W        W63848   7.185  12.934   3.926
90781W        W63849  43.889  30.718   0.100
90782W        W63850  22.017  33.221  12.883
90783W        W63851   7.672  39.621  12.089
90784W        W63852  32.971  12.794   2.952
90785W        W63853   3.984  15.118   2.866
90786W        W63854  43.858  28.171   0.035
90787W        W63855  20.979   7.018   4.530
90788W        W63856  40.023   6.795   5.159
90789W        W63857   2.402  29.892   4.175
90790W        W63858  36.539  35.906   5.026
90791W        W63859  14.156  26.716   1.001
90792W        W63860  15.210  11.037   0.491
90793W        W63861  25.337  13.461  12.435
90794W        W63862  27.522  22.075  14.529
90795W        W63863  32.130   7.976   3.666
90796W        W63864  29.068   5.267   0.659
90797W        W63865  23.329  13.168  10.613
90798W        W63866   2.128  15.111  12.853
90799W        W63867  12.601  14.750  12.052
90800W        W63868  32.155  18.678  11.982
90801W        W63869  29.941  17.668   0.036
90802W        W63870  26.155   8.502   0.976
90803W        W63871  19.214   7.707  13.911
90804W        W63872  11.893  30.569   0.485
90805W        W63873  28.955   0.181  11.362
90806W        W63874  36.439  22.625  11.742
90807W        W63875  15.483  40.506   3.690
90808W        W63876  17.243  35.617  11.798
90809W        W63877  27.985  43.314   3.162
90810W        W63878  29.551  37.443   4.551
90811W        W63879   2.610  30.929   4.302
90812W        W63880   8.409   6.709   2.239
90813W        W63881   4.432   8.194  13.738
90814W        W63882  27.009  44.489  13.932
90815W        W63883  12.580  15.430  10.733
90816W        W63884  13.409  18.078   5.027
90817W        W63885  10.692  33.949   2.466
90818W        W63886   2.356  10.663   4.799
90819W        W63887   5.364  32.306   0.346
90820W        W63888  40.542   2.146  14.411
90821W        W63889  21.613  32.861   2.711
90822W        W63890  13.799  32.370   4.748
90823W        W63891   5.657  43.882   2.262
90824W        W63892  26.924  17.455  12.508
90825W        W63893  13.668   9.528   0.028
90826W        W63894  43.878  12.348   1.458
90827W        W63895   0.435  26.284  12.374
90828W        W63896   6.667  19.735   3.249
90829W        W63897  24.425  18.365  12.989
90830W        W63898  28.615  41.782  13.511
90831W        W63899  13.574  41.452   0.812
90832W        W63900  21.908  30.126  14.753
90833W        W63901   6.699  42.388   2.768
90834W        W63902  10.159  11.198  10.769
90835W        W63903  44.939  33.168  13.981
90836W        W63904  43.256   7.139  13.512
90837W        W63905  31.206  30.465   4.153
90838W        W63906  28.032  17.630  13.930
90839W        W63907   8.694  29.543  13.543
90840W        W63908  16.423  39.479  12.095
90841W        W63909   0.215  36.494   4.129
90842W        W63910   9.298   8.826  14.582
90843W        W63911   1.857  24.175   1.912
90844W        W63912  19.509  10.890   1.386
90845W        W63913   6.280   6.587  14.669
90846W        W63914  10.161   6.151  12.189
90847W        W63915  29.540  15.114  12.440
90848W        W63916  20.022  37.922  11.535
90849W        W63917  20.030   4.331  13.551
90850W        W63918   4.977   9.417  13.414
90851W        W63919  21.068  32.040   1.440
90852W        W63920  37.149  25.135  13.506
90853W        W63921  30.015  30.528   4.574
90854W        W63922  35.269  20.630  12.844
90855W        W63923   3.148  17.757   3.295
90856W        W63924   8.801  38.582   2.760
90857W        W63925   1.925  34.301   1.414
90858W        W63926  24.406  12.098  13.917
90859W        W63927  19.169   7.455  13.308
90860W        W63928  11.918  31.175   3.042
90861W        W63929  16.692   3.524   3.216
90862W        W63930  30.407  18.075   3.656
90863W        W63931  33.994  26.162  10.794
90864W        W63932  20.277  20.442   3.213
90865W        W63933  33.403  37.953   2.239
90866W        W63934  33.110  36.567   4.855
90867W        W63935  26.950  36.060  14.840
90868W        W63936  12.527  32.165   4.136
90869W        W63937  33.365  29.663  14.871
90870W        W63938  44.960  44.296  12.007
90871W        W63939  32.140   9.927   1.827
90872W        W63940  40.768  23.124   3.312
90873W        W63941  29.022   0.033   0.460
90874W        W63942  12.018  28.506   2.883
90875W        W63943  23.477   2.210  10.553
90876W        W63944   7.932  36.187  14.785
90877W        W63945  27.064  37.583   1.349
90878W        W63946  13.739  41.891   4.146
90879W        W63947  35.834   5.950  14.395
90880W        W63948  21.660   0.714  13.604
90881W        W63949   4.208  19.120  11.512
90882W        W63950  12.731  10.249  12.823
90883W        W63951  44.361   6.369  11.511
90884W        W63952  19.406   9.598  11.042
90885W        W63953  12.781  37.613   5.239
90886W        W63954  37.693   5.769   4.628
90887W        W63955  20.557  18.542  11.088
90888W        W63956   4.180  44.026  13.516
90889W        W63957  43.387  40.325   1.366
90890W        W63958  20.983  44.420   3.283
90891W        W63959   7.886  31.373  12.660
90892W        W63960   8.056  31.803   2.838
90893W        W63961  26.898  41.510  13.961
90894W        W63962  39.063  14.013  10.492
90895W        W63963  35.629  30.425  13.955
90896W        W63964  20.159  12.636  10.528
90897W        W63965  20.627  18.352   0.744
90898W        W63966  29.528  26.417  12.794
90899W        W63967  20.234  39.086  10.292
90900W        W63968   0.055  21.267   2.575
90901W        W63969   9.431   9.816  14.453
90902W        W63970   6.988  29.235   1.833
90903W        W63971  30.716  20.062  12.048
90904W        W63972  15.285  29.495  11.428
90905W        W63973  39.250   6.286  12.610
90906W        W63974  26.802  25.595  10.674
90907W        W63975  24.263  40.392  14.343
90908W        W63976  16.488  14.333   2.452
90909W        W63977  25.671  34.664  14.726
90910W        W63978  39.084  26.396   0.871
90911W        W63979  39.847   5.858  10.683
90912W        W63980  31.648  15.048  10.893
90913W        W63981  12.241  28.548   4.018
90914W        W63982  38.431  21.321  11.700
90915W        W63983   1.199  34.038  11.054
90916W        W63984  40.017  33.583   2.228
90917W        W63985  15.382  20.842   2.169
90918W        W63986  36.464  37.541   3.259
90919W        W63987  44.687   2.236  12.460
90920W        W63988   8.306  43.192   4.808
90921W        W63989   9.561   7.660  12.730
90922W        W63990   5.576  11.582  13.866
90923W        W63991  41.393  15.169  13.962
90924W        W63992  12.829  42.819   1.018
90925W        W63993   3.957   0.974   1.386
90926W        W63994  40.104  17.263   1.720
90927W        W63995  37.452  41.473  14.106
90928W        W63996   9.777  44.794   1.096
90929W        W63997  30.311  20.606  10.875
90930W        W63998  10.010   3.710   2.857
90931W        W63999  22.112  40.126  11.338
90932W        W64000  26.716  32.498   1.712
90933W        W64001  28.607  21.080   1.148
90934W        W64002  42.281  36.122  10.294
90935W        W64003  27.138  33.107   3.627
90936W        W64004  35.222  40.627   0.013
90937W        W64005  36.928  23.466   1.086
90938W        W64006  26.171  39.035  12.996
90939W        W64007   1.851  20.829  13.746
90940W        W64008  26.616  24.748  12.560
90941W        W64009  42.995  32.084  12.523
90942W        W64010  44.763  31.503   2.264
90943W        W64011   5.331  28.153  10.736
90944W        W64012  23.733  19.668  12.060
90945W        W64013  20.504  33.716  14.384
90946W        W64014  11.464  15.621  12.605
90947W        W64015   9.788  23.216   0.997
90948W        W64016   2.491  11.166  11.505
90949W        W64017  24.617  18.675   1.709
90950W        W64018  19.171  20.177  12.063
90951W        W64019  43.331  24.721  11.143
90952W        W64020  37.403   2.960  10.986
90953W        W64021   4.486  27.695  10.937
90954W        W64022   6.795  12.231  11.134
90955W        W64023  22.460  44.537   3.236
90956W        W64024  22.255  12.248   1.371
90957W        W64025  34.125  40.065  12.064
90958W        W64026  10.336   1.495  13.026
90959W        W64027  35.520  24.230   4.542
90960W        W64028  12.246  42.540   1.298
90961W        W64029  10.165  40.769  11.989
90962W        W64030  31.703  26.309  10.855
90963W        W64031  34.815  35.538   4.941
90964W        W64032   0.621  39.003   1.011
90965W        W64033  10.708  25.546   1.923
90966W        W64034  17.174  35.443   4.048
90967W        W64035  21.523  31.490  13.837
90968W        W64036  14.264   7.152   3.257
90969W        W64037   0.159  17.246  10.545
90970W        W64038  30.532  12.261  10.327
90971W        W64039   7.467  40.975  11.280
90972W        W64040  20.120  43.717   2.296
90973W        W64041  44.892  40.133   2.295
90974W        W64042  37.379  35.976   2.765
90975W        W64043  37.321  32.959   4.483
90976W        W64044  24.814   8.721   0.729
90977W        W64045  12.147  35.916  11.658
90978W        W64046  31.445   2.367  10.454
90979W        W64047   2.828  31.125  10.709
90980W        W64048   9.744  23.166  14.582
90981W        W64049  34.419  32.324  13.983
90982W        W64050  32.630  10.271  12.456
90983W        W64051  27.718  20.244   3.804
90984W        W64052   1.934  14.693   4.758
90985W        W64053  10.316   7.589  12.488
90986W        W64054  20.058  23.033   3.281
90987W        W64055   6.767   4.504  14.707
90988W        W64056   9.564  40.290  11.026
90989W        W64057  18.106  28.090   3.344
90990W        W64058   2.077  38.047  14.502
90991W        W64059  14.191  14.338  13.299
90992W        W64060  22.016  11.100  12.021
90993W        W64061   2.530   4.709  10.830
90994W        W64062  37.087   0.966   2.281
90995W        W64063  22.264  12.583  11.111
90996W        W64064  28.172  33.727  13.886
90997W        W64065   7.134  14.682   2.870
90998W        W64066  21.325  16.257   2.773
90999W        W64067  33.096   5.574   2.219
91000W        W64068  19.264  32.059  12.606
91001W        W64069  41.980   2.326  12.784
91002W        W64070  40.844  15.730  13.528
91003W        W64071  13.737  29.111   4.137
91004W        W64072  28.646  21.084   1.653
91005W        W64073  39.060  41.436   2.237
91006W        W64074  10.262   8.685   2.300
91007W        W64075  30.673  20.969   2.345
91008W        W64076  36.103  18.666  14.951
91009W        W64077   0.322  36.102   2.307
91010W        W64078  14.660  10.831   4.021
91011W        W64079   8.755  20.925   4.515
91012W        W64080  38.112   1.692  12.110
91013W        W64081   8.462   9.410   1.372
91014W        W64082  32.443  40.945   2.778
91015W        W64083  38.479   7.921   4.532
91016W        W64084  29.447   9.742  14.627
91017W        W64085   3.682  38.292   4.526
91018W        W64086  32.927   4.281  10.665
91019W        W64087  34.580  33.002  12.825
91020W        W64088  30.133  17.992   2.369
91021W        W64089  30.157  19.983  12.147
91022W        W64090  38.374  28.171  14.850
91023W        W64091   1.928  44.296  14.767
91024W        W64092  39.047   9.745   0.027
91025W        W64093  10.280  18.973   1.356
91026W        W64094   3.288  10.290  12.041
91027W        W64095   4.955  40.766  11.100
91028W        W64096  17.102  24.474  11.516
91029W        W64097   8.798  32.865  11.544
91030W        W64098  41.392  16.430  13.510
91031W        W64099  13.347  44.650   2.689
91032W        W64100  27.486  29.709  11.589
91033W        W64101  32.933   5.328   2.661
91034W        W64102  44.294  42.964   1.473
91035W        W64103  37.003  36.118   1.971
91036W        W64104  29.181  23.295  12.561
91037W        W64105  10.839  40.062  12.962
91038W        W64106   7.465  35.327   0.910
91039W        W64107   4.214  19.904  12.495
91040W        W64108  42.937   1.895   4.256
91041W        W64109  16.322  10.893  13.508
91042W        W64110  44.322   1.754  13.780
91043W        W64111  13.259  17.939   0.637
91044W        W64112  44.774  22.720   1.977
91045W        W64113  13.381  21.547   4.228
91046W        W64114  40.546   8.872  13.024
91047W        W64115  44.434  32.294   0.734
91048W        W64116  22.114  41.904  14.403
91049W        W64117  44.994   6.335  12.135
91050W        W64118   6.892   4.263   2.575
91051W        W64119  25.378  19.740   0.804
91052W        W64120  14.650   4.150  14.526
91053W        W64121   0.423  39.681  13.338
91054W        W64122  27.709  43.512  14.953
91055W        W64123   6.943  30.078   1.716
91056W        W64124  43.575  15.633   4.074
91057W        W64125  10.476  10.229   0.166
91058W        W64126  38.138  22.505  12.648
91059W        W64127  27.160  15.514   4.074
91060W        W64128  36.650  28.416  11.434
91061W        W64129  40.640   7.216   0.695
91062W        W64130   7.330   2.649  11.545
91063W        W64131   3.490  29.601   3.250
91064W        W64132  36.172  17.127  13.439
91065W        W64133   6.897  40.381   2.341
91066W        W64134  11.374  11.783  11.975
91067W        W64135  25.197  31.068  14.421
91068W        W64136  35.486  29.824   4.527
91069W        W64137  17.797  26.107  14.501
91070W        W64138  35.607  16.798  13.888
91071W        W64139  27.084  28.447  13.807
91072W        W64140  36.813  18.614  12.920
91073W        W64141  23.302  32.564  13.043
91074W        W64142   4.187  34.269   0.401
91075W        W64143  21.874  24.568  11.393
91076W        W64144  11.335  21.263  10.799
91077W        W64145   3.630  22.142   1.795
91078W        W64146  40.340  37.755   3.200
91079W        W64147  39.268  40.141  14.491
91080W        W64148  35.450   4.909  10.590
91081W        W64149  42.501  24.376   0.040
91082W        W64150   1.506  11.379  12.023
91083W        W64151  33.097  31.499   0.936
91084W        W64152  14.771  15.540   4.471
91085W        W64153  30.551  18.744  12.351
91086W        W64154  26.475  16.540  14.397
91087W        W64155  13.079   2.368  12.999
91088W        W64156  10.620  19.938  14.819
91089W        W64157  15.668   2.993   0.906
91090W        W64158  22.356  36.610  12.983
91091W        W64159  36.935   7.231   2.804
91092W        W64160  26.222  43.288  12.805
91093W        W64161   7.385   0.456   1.819
91094W        W64162  36.849  22.002  12.586
91095W        W64163   4.404  13.414   1.301
91096W        W64164  29.863  20.809  13.724
91097W        W64165  32.232  40.795   3.217
91098W        W64166  43.283  17.076  11.528
91099W        W64167  18.280   1.955  14.391
91100W        W64168  30.376  21.092  11.296
91101W        W64169  35.143   9.705  13.777
91102W        W64170  37.647   6.454  14.443
91103W        W64171  23.565  26.447   1.693
91104W        W64172  41.020  25.068   3.692
91105W        W64173  18.628  41.977   0.816
91106W        W64174   3.783   2.133   3.242
91107W        W64175  24.502  40.049   0.369
91108W        W64176  31.356  13.550  13.094
91109W        W64177  17.597  42.704  13.960
91110W        W64178  12.372  23.069  14.858
91111W        W64179  12.244  37.821   3.758
91112W        W64180  23.421  18.058  10.190
91113W        W64181  17.257  32.124  12.008
91114W        W64182  11.074  18.216  10.721
91115W        W64183  40.203  42.107  13.398
91116W        W64184  15.046  39.493  10.930
91117W        W64185   4.311  24.108   2.172
91118W        W64186   5.699  40.849  14.419
91119W        W64187   3.460  33.452  13.771
91120W        W64188   7.666   6.368  11.041
91121W        W64189  19.681  12.272  14.588
91122W        W64190  43.858  25.120   3.353
91123W        W64191  11.441  11.653  13.831
91124W        W64192   7.706   3.645   0.670
91125W        W64193  38.107  37.009  13.846
91126W        W64194   5.368  27.487   3.538
91127W        W64195  18.960  40.823  11.032
91128W        W64196  36.904  26.116  11.935
91129W        W64197  42.787  22.570  13.856
91130W        W64198   4.637  23.228  13.821
91131W        W64199  26.317  19.320  13.194
91132W        W64200  10.659  10.180  14.311
91133W        W64201   4.720  18.263  11.272
91134W        W64202   9.667  17.555  14.040
91135W        W64203   1.305  26.275  10.671
91136W        W64204   8.776   1.237   3.688
91137W        W64205  16.801  40.441   2.822
91138W        W64206  27.541  19.051  10.883
91139W        W64207  43.501  33.603   0.050
91140W        W64208  20.710  44.937   1.181
91141W        W64209  42.002  40.402  14.961
91142W        W64210   9.600  36.084   3.811
91143W        W64211  19.031  24.573   4.533
91144W        W64212  25.685  12.201  12.575
91145W        W64213  31.460  37.315   3.531
91146W        W64214   7.292   6.908   0.524
91147W        W64215   2.115  37.836  13.519
91148W        W64216  30.888  26.401  14.396
91149W        W64217  29.942  40.056  11.225
91150W        W64218  25.255  17.744   2.351
91151W        W64219   4.375  32.640   3.783
91152W        W64220  24.162  30.991  11.675
91153W        W64221  10.104  41.435  11.392
91154W        W64222   7.160   6.003  13.635
91155W        W64223  32.307  10.232  11.579
91156W        W64224  44.410  23.611   3.798
91157W        W64225  18.790  36.613   1.940
91158W        W64226  25.447  31.423  13.424
91159W        W64227  12.738  13.861   1.778
91160W        W64228   3.500  15.262   0.853
91161W        W64229  33.965  36.427   0.821
91162W        W64230  40.767  43.199  13.849
91163W        W64231  15.657  28.385   2.449
91164W        W64232  32.039  23.610   0.002
91165W        W64233  27.814  40.616   4.512
91166W        W64234  24.748  43.092  14.279
91167W        W64235  12.753  39.349   4.102
91168W        W64236   5.781  42.092   0.318
91169W        W64237  11.948  41.049   2.717
91170W        W64238  28.525  32.519   0.139
91171W        W64239  25.056  21.854   4.710
91172W        W64240  22.767   5.898   3.659
91173W        W64241   4.937  34.130   1.249
91174W        W64242   1.374  38.759  12.070
91175W        W64243  38.904  14.749   4.800
91176W        W64244  32.468   8.432  11.629
91177W        W64245  34.274  42.094  14.806
91178W        W64246  40.434  14.140  13.556
91179W        W64247   2.759  34.425  14.779
91180W        W64248   3.696  21.220  13.864
91181W        W64249  37.836  36.009   4.952
91182W        W64250  40.908  15.391  10.964
91183W        W64251  25.750   5.117  13.306
91184W        W64252   9.666  36.823  11.001
91185W        W64253  22.211  11.947   2.983
91186W        W64254  13.772  23.014  12.951
91187W        W64255  35.950  15.976  10.542
91188W        W64256  18.218  19.427   1.827
91189W        W64257   1.202  27.483  11.126
91190W        W64258  25.524  11.693  14.826
91191W        W64259  17.874  20.154   4.122
91192W        W64260  21.707  43.872   3.147
91193W        W64261   3.928  24.500  11.591
91194W        W64262  18.251  25.182  12.561
91195W        W64263  27.015   9.451  13.935
91196W        W64264  22.895   8.797  11.988
91197W        W64265  13.473  16.442  10.660
91198W        W64266   3.340  26.605  12.882
91199W        W64267  25.552  26.213   1.278
91200W        W64268   1.709   0.308   1.307
91201W        W64269  12.818  11.645  11.822
91202W        W64270  33.268  31.077   2.224
91203W        W64271  26.427  39.111  14.768
91204W        W64272   9.499  33.660   2.799
91205W        W64273   1.263  37.769  11.988
91206W        W64274  44.993  33.400   2.394
91207W        W64275  16.765  40.888   1.672
91208W        W64276   1.943   9.611  14.348
91209W        W64277   3.751  15.628  13.147
91210W        W64278  29.174   1.935   4.566
91211W        W64279  34.953  37.889  13.406
91212W        W64280   2.395  39.634  12.363
91213W        W64281  33.384  32.076   3.221
91214W        W64282  15.275  15.271   0.354
91215W        W64283  16.631  36.956  14.435
91216W        W64284   3.038  16.766   1.787
91217W        W64285  21.421  26.463   4.032
91218W        W64286   5.920  25.729  14.315
91219W        W64287   8.175  11.221   4.607
91220W        W64288   9.259  40.542  13.935
91221W        W64289   9.393   1.804  12.149
91222W        W64290   2.686  12.281   0.054
91223W        W64291   5.312  43.290   3.110
91224W        W64292  28.100  18.309   4.264
91225W        W64293  29.913   7.799  10.632
91226W        W64294  33.948  27.297   4.514
91227W        W64295  44.072  28.471   0.779
91228W        W64296  26.178  26.414  12.982
91229W        W64297  40.882   9.697   3.378
91230W        W64298  40.011   7.723   3.754
91231W        W64299  12.569  41.818  14.093
91232W        W64300   8.388  44.317   4.188
91233W        W64301  36.104   6.817  12.456
91234W        W64302  29.378  43.062   1.449
91235W        W64303  27.251  12.187   3.610
91236W        W64304  27.448  42.065  12.926
91237W        W64305  40.746  35.979  14.777
91238W        W64306  16.330   1.438   0.290
91239W        W64307  16.126  33.166  12.206
91240W        W64308   3.326  13.916   3.229
91241W        W64309  12.946  19.596  10.915
91242W        W64310   4.561  43.170  12.058
91243W        W64311  37.394   3.169   1.246
91244W        W64312  27.971  21.531  11.529
91245W        W64313  27.645   9.147  11.964
91246W        W64314  35.521  32.449   3.011
91247W        W64315  16.688   0.131   0.709
91248W        W64316  12.874  12.113  13.497
91249W        W64317  34.694  12.741   2.283
91250W        W64318   0.546  41.306   1.942
91251W        W64319  36.583   1.388  13.272
91252W        W64320  30.155  37.822   2.405
91253W        W64321  34.555  24.084   1.000
91254W        W64322  12.229   7.426  10.449
91255W        W64323   1.483   9.717  12.443
91256W        W64324  36.781   1.777  14.629
91257W        W64325   1.336  34.285  14.834
91258W        W64326  21.217  39.879  13.421
91259W        W64327  28.457  36.891  14.609
91260W        W64328   3.321  12.903   3.346
91261W        W64329   6.180   5.460   1.620
91262W        W64330  39.976   2.240   1.431
91263W        W64331  23.020  22.242  11.630
91264W        W64332   7.771  40.126   0.780
91265W        W64333   5.674  44.288   0.262
91266W        W64334   2.872  35.554   3.745
91267W        W64335  21.777  14.769   1.263
91268W        W64336  18.314  29.561  14.351
91269W        W64337  21.812  29.444  13.993
91270W        W64338  25.627  13.072   3.185
91271W        W64339  22.512  37.367   1.711
91272W        W64340  39.882   2.997   2.715
91273W        W64341  13.414  14.646   1.206
91274W        W64342  36.006   9.404   2.250
91275W        W64343  35.298  25.807   1.005
91276W        W64344   7.946  31.431   3.655
91277W        W64345   6.327  21.046   3.168
91278W        W64346  23.715  19.288   3.248
91279W        W64347   9.847   2.756   2.218
91280W        W64348  23.650  30.421   4.592
91281W        W64349   7.307  25.116   0.395
91282W        W64350   2.394  29.510  14.822
91283W        W64351  10.659  19.669   4.849
91284W        W64352  26.931  30.342   4.193
91285W        W64353  14.193  44.255  12.636
91286W        W64354  29.082   3.965  12.477
91287W        W64355  24.457  19.286  13.929
91288W        W64356  28.941  35.440   3.177
91289W        W64357   4.973  24.573   4.531
91290W        W64358   0.968  37.365  14.426
91291W        W64359  15.529   5.609  10.327
91292W        W64360  33.768  20.665  13.041
91293W        W64361  13.945  27.051   1.371
91294W        W64362  14.316  39.038  13.920
91295W        W64363  42.979  13.586  14.924
91296W        W64364  33.723   6.699   2.150
91297W        W64365  25.967   7.443   4.169
91298W        W64366  10.514  21.079   4.990
91299W        W64367  34.890  23.493  12.428
91300W        W64368  32.663   8.400  12.501
91301W        W64369  20.451  35.387  12.307
91302W        W64370   0.879  32.069  14.317
91303W        W64371  39.455   3.907   4.567
91304W        W64372   9.244  29.343   4.388
91305W        W64373  29.858   2.735  13.283
91306W        W64374  16.255  44.924   1.332
91307W        W64375  28.369  18.798   4.238
91308W        W64376  44.920   2.792   1.011
91309W        W64377  13.342  20.938   1.795
91310W        W64378  38.375  43.181  12.235
91311W        W64379  15.088  41.734   0.306
91312W        W64380  41.239  13.737  13.469
91313W        W64381   2.442  32.329   1.365
91314W        W64382   6.717  27.348  14.921
91315W        W64383  20.612   4.337   4.537
91316W        W64384  31.092  23.113   3.165
91317W        W64385  42.445   9.234  13.033
91318W        W64386   8.781  30.090  14.239
91319W        W64387  10.204  32.062   4.624
91320W        W64388  24.656   9.099   0.394
91321W        W64389  33.846  39.557  12.123
91322W        W64390  40.292   5.643  11.569
91323W        W64391  27.198  22.588   2.119
91324W        W64392  27.513  42.570   4.493
91325W        W64393  36.475   1.193   2.291
91326W        W64394   1.756   3.404   1.893
91327W        W64395   7.362  36.723   4.694
91328W        W64396  40.110  24.957  10.679
91329W        W64397  44.340   6.941  10.690
91330W        W64398  26.500  14.974  10.681
91331W        W64399  10.332  26.996   0.439
91332W        W64400  29.542  17.836  13.358
91333W        W64401  39.579  35.079  11.245
91334W        W64402  14.468   2.470  12.084
91335W        W64403   5.887   6.305   3.423
91336W        W64404   5.545  23.797   2.649
91337W        W64405  23.160  28.146   0.064
91338W        W64406  30.163  15.120   1.790
91339W        W64407  44.332  30.879  13.870
91340W        W64408   7.767  10.851   3.632
91341W        W64409  12.485   1.025  14.997
91342W        W64410   7.919  14.852   4.050
91343W        W64411  44.144  42.695  13.894
91344W        W64412  23.604  13.796  10.705
91345W        W64413  39.833  10.703   3.671
91346W        W64414  13.318  38.877  12.340
91347W        W64415  30.748  10.386   4.198
91348W        W64416  42.771   1.964  10.668
91349W        W64417   1.439  13.195  12.259
91350W        W64418  44.484  10.576   5.003
91351W        W64419  31.242  19.153   0.268
91352W        W64420  12.575   9.631   4.543
91353W        W64421   7.868  22.479  12.043
91354W        W64422  34.764  24.143  12.969
91355W        W64423  16.096  27.249  11.622
91356W        W64424  27.044  18.585   2.854
91357W        W64425  40.574   3.813  12.704
91358W        W64426  40.111  25.431   2.688
91359W        W64427   7.081  38.771  13.124
91360W        W64428  25.093  34.489  12.114
91361W        W64429  24.124  36.289  13.427
91362W        W64430  11.751  13.093   1.277
91363W        W64431  14.849   3.223  12.427
91364W        W64432  21.668  29.256  10.427
91365W        W64433  18.699  15.649   0.092
91366W        W64434  21.291   0.940  14.411
91367W        W64435  17.602  25.995  12.463
91368W        W64436  32.835  13.768  11.343
91369W        W64437  21.083  14.049   2.268
91370W        W64438  12.170  29.468   4.155
91371W        W64439   0.450  43.892   1.390
91372W        W64440  23.985   4.311  11.924
91373W        W64441  34.779   1.612   2.664
91374W        W64442   8.194   6.400  14.086
91375W        W64443  43.460   9.347   2.207
91376W        W64444  41.303   0.393   0.952
91377W        W64445  24.965  11.707  14.455
91378W        W64446  17.580  23.668  11.586
91379W        W64447   3.536  20.564  12.650
91380W        W64448  28.714  33.040   0.416
91381W        W64449  27.262   8.818   4.622
91382W        W64450  19.472  17.316  12.071
91383W        W64451  26.549  22.954  14.529
91384W        W64452  18.795  20.831   1.942
91385W        W64453  27.731   9.173   1.917
91386W        W64454  13.226  19.148  10.234
91387W        W64455  27.209   0.777  13.505
91388W        W64456  24.664  27.746   0.018
91389W        W64457   9.016  39.056   1.685
91390W        W64458  16.313  40.337  13.805
91391W        W64459   1.870  23.931   2.373
91392W        W64460  22.126   8.418  12.684
91393W        W64461  40.788  22.196   3.672
91394W        W64462  34.343  38.007   1.795
91395W        W64463   2.063  25.584  12.600
91396W        W64464   6.903   5.362   4.564
91397W        W64465  18.825  43.270   1.678
91398W        W64466  40.787  41.280   2.701
91399W        W64467  43.762  28.988   3.324
91400W        W64468  23.051  26.073  10.722
91401W        W64469   4.100  21.869  11.903
91402W        W64470  36.753  34.048  13.515
91403W        W64471   4.311   1.229   3.101
91404W        W64472   6.352  24.576  12.889
91405W        W64473  34.138  41.098   0.842
91406W        W64474   4.831   6.612  14.507
91407W        W64475  14.057   0.950   2.786
91408W        W64476   4.988  38.182   2.836
91409W        W64477   7.981  13.486   1.223
91410W        W64478  34.223  40.473  14.393
91411W        W64479   0.984  26.210   2.696
91412W        W64480  34.356  41.634   0.041
91413W        W64481  38.825  26.798  11.906
91414W        W64482  24.544  22.072  10.808
91415W        W64483  42.488  18.869   4.287
91416W        W64484   6.350  13.529  11.147
91417W        W64485  44.258  29.048   4.250
91418W        W64486  26.150  12.766   4.763
91419W        W64487  31.618  37.290  11.003
91420W        W64488  19.561  36.039  12.557
91421W        W64489   3.812  33.810  11.564
91422W        W64490  19.274  44.834   2.293
91423W        W64491  22.691  40.318  13.007
91424W        W64492  32.502  30.833  12.025
91425W        W64493  12.868  40.579  14.856
91426W        W64494  17.680  40.506  13.817
91427W        W64495   7.662  12.529  11.896
91428W        W64496  16.837   1.892  11.271
91429W        W64497  21.118  18.752   3.632
91430W        W64498  25.683  39.019   2.440
91431W        W64499  37.166  35.980  13.294
91432W        W64500  32.824   9.973   0.051
91433W        W64501  24.303  35.495   0.243
91434W        W64502   4.440  34.703  11.798
91435W        W64503  21.898  36.900  12.078
91436W        W64504  44.225  12.314   3.558
91437W        W64505  15.364   9.842   1.808
91438W        W64506   0.260  21.688  11.987
91439W        W64507  44.595  43.964   0.302
91440W        W64508  22.808  20.187   2.252
91441W        W64509  23.570  43.388   4.534
91442W        W64510  14.876  11.793  11.711
91443W        W64511  30.954  26.195   0.958
91444W        W64512   4.359   5.917  13.269
91445W        W64513  30.452  33.694   4.539
91446W        W64514  20.648   7.929   0.346
91447W        W64515  10.336  17.291   0.245
91448W        W64516  16.114  10.339   4.114
91449W        W64517   3.852  37.979  14.024
91450W        W64518  35.444  27.447  13.450
91451W        W64519  13.092  19.047  11.120
91452W        W64520  18.048  22.448   0.414
91453W        W64521  22.704  13.136   3.903
91454W        W64522   2.066  25.486  13.822
91455W        W64523   4.821  19.043  14.286
91456W        W64524  44.202   4.466   1.978
91457W        W64525   5.181  24.681   0.797
91458W        W64526  14.292  21.443  12.618
91459W        W64527   8.793  36.479   4.601
91460W        W64528  26.744  30.937   0.690
91461W        W64529  16.122  31.213   4.640
91462W        W64530  34.606  30.349   2.035
91463W        W64531  31.016  11.442   0.293
91464W        W64532  33.630  12.402   3.229
91465W        W64533   6.449  42.927   0.365
91466W        W64534  39.579   9.934   1.883
91467W        W64535   9.617  21.086  12.516
91468W        W64536  11.653  32.409   1.757
91469W        W64537  39.427  28.194   2.843
91470W        W64538  30.116  44.269   0.302
91471W        W64539   6.773  21.072  13.941
91472W        W64540  12.332  13.425  12.460
91473W        W64541   8.139   0.308  10.937
91474W        W64542  40.987  43.373  11.580
91475W        W64543  10.177  11.442   4.538
91476W        W64544   5.876  34.347  14.849
91477W        W64545  12.758  22.584  14.383
91478W        W64546  42.788  12.324   2.627
91479W        W64547   6.732  19.311   0.354
91480W        W64548   2.982   4.603   0.350
91481W        W64549  29.926   7.378  11.298
91482W        W64550   6.324   2.485   2.272
91483W        W64551  22.627  23.295   1.781
91484W        W64552   2.007  39.302  12.427
91485W        W64553  25.653  38.203   0.912
91486W        W64554  10.353   5.806  11.858
91487W        W64555  35.905  26.032   1.729
91488W        W64556  12.160  39.480   1.319
91489W        W64557  39.908  38.350  12.469
91490W        W64558  21.269   4.137   4.147
91491W        W64559  32.427  38.779   1.835
91492W        W64560   8.244  33.492   1.532
91493W        W64561  39.378   6.519   2.175
91494W        W64562  42.974   0.025  11.589
91495W        W64563  31.394  31.703   5.054
91496W        W64564  42.238  33.869  13.197
91497W        W64565  19.046  22.593  10.733
91498W        W64566  15.965  20.720   2.762
91499W        W64567  34.492   7.272  14.593
91500W        W64568   4.161  19.138   3.938
91501W        W64569  40.994  42.496   3.725
91502W        W64570  26.655  12.733   4.577
91503W        W64571  26.108  19.028  10.619
91504W        W64572   3.933  39.932  13.918
91505W        W64573  13.576  17.754   2.637
91506W        W64574  15.439  42.865  10.699
91507W        W64575  42.777  15.772   4.914
91508W        W64576  27.923  40.407   3.598
91509W        W64577  34.760  23.230   2.418
91510W        W64578  26.578  22.583   0.831
91511W        W64579  39.776  30.984  14.202
91512W        W64580  21.620  18.260   2.200
91513W        W64581  25.870  41.869   4.626
91514W        W64582  39.853  16.882   1.468
91515W        W64583  29.800  21.110   5.030
91516W        W64584  44.485   0.269   0.742
91517W        W64585   5.875   8.151  12.885
91518W        W64586   0.027  23.256  11.142
91519W        W64587   4.314  14.660  11.008
91520W        W64588  30.023   4.456  13.907
91521W        W64589  44.039  29.514   2.204
91522W        W64590  41.370  24.960   2.289
91523W        W64591  15.474  23.982   4.149
91524W        W64592  14.734  28.183   2.706
91525W        W64593   8.807  18.812   3.049
91526W        W64594  34.556   0.861   4.203
91527W        W64595   4.199   3.313   2.812
91528W        W64596  31.933  11.136  14.397
91529W        W64597  21.438   4.023  11.563
91530W        W64598  23.902  17.363   1.386
91531W        W64599   5.670  34.988  13.589
91532W        W64600  34.966   8.319  14.535
91533W        W64601  22.230  41.580   3.371
91534W        W64602   4.795  11.708  13.396
91535W        W64603  30.362   1.021  14.511
91536W        W64604  23.766  16.576  11.002
91537W        W64605   9.229  23.940   0.492
91538W        W64606  25.731  24.649   3.507
91539W        W64607  18.998  26.463  12.426
91540W        W64608  26.941  36.496   2.216
91541W        W64609   5.773   3.418  13.435
91542W        W64610  19.525   9.813   4.153
91543W        W64611  21.833   1.437   5.455
91544W        W64612  31.107  30.556   1.178
91545W        W64613   2.370  29.306   2.303
91546W        W64614  28.175  28.656   4.851
91547W        W64615  41.023  40.093  13.563
91548W        W64616  30.037   9.422   2.661
91549W        W64617   9.733  33.363   3.170
91550W        W64618  39.824   1.272  13.939
91551W        W64619  42.711  23.649   2.974
91552W        W64620  30.996  36.134  14.402
91553W        W64621  21.746   0.982  12.637
91554W        W64622  20.360  43.538   1.849
91555W        W64623  37.002   3.152   4.563
91556W        W64624  15.179  29.454  14.968
91557W        W64625   4.505   4.266   3.664
91558W        W64626  32.143  35.046   0.006
91559W        W64627  16.855  44.288   2.557
91560W        W64628  31.929  36.825   2.160
91561W        W64629  36.472  41.805   0.392
91562W        W64630  39.973  31.477   3.722
91563W        W64631  44.940  15.180  11.159
91564W        W64632  31.001  29.068   1.266
91565W        W64633  20.017  30.603  13.625
91566W        W64634  44.272  20.773   2.632
91567W        W64635  44.044  32.869   4.114
91568W        W64636  44.842  43.097   0.299
91569W        W64637  32.380  22.458  11.517
91570W        W64638   8.635  38.256   3.770
91571W        W64639  44.746   6.458   0.213
91572W        W64640  31.983  33.377  14.853
91573W        W64641  43.429  14.869   3.580
91574W        W64642  21.048  10.764   4.135
91575W        W64643   3.376  27.504  12.681
91576W        W64644   5.206  14.561   4.488
91577W        W64645  34.850  15.205  10.708
91578W        W64646  31.032  37.161   5.001
91579W        W64647  43.770  23.103   0.898
91580W        W64648   4.980  40.243   0.043
91581W        W64649   9.874  19.384   4.661
91582W        W64650  22.074  32.759  13.073
91583W        W64651  19.070  36.925   3.272
91584W        W64652   9.233  38.593  14.860
91585W        W64653  27.869  25.581   4.949
91586W        W64654  39.901  25.600  11.700
91587W        W64655  11.817   9.701  11.492
91588W        W64656   3.315  23.464  12.977
91589W        W64657  27.450  40.224   3.644
91590W        W64658   8.749  43.478   4.785
91591W        W64659  25.671  11.987   9.668
91592W        W64660  17.610  21.686   0.673
91593W        W64661   0.074  20.667  11.861
91594W        W64662   2.786  16.359  14.529
91595W        W64663   2.487  13.312  13.842
91596W        W64664  21.601  21.930   0.299
91597W        W64665  13.911  14.327   2.173
91598W        W64666  22.697   0.854   0.823
91599W        W64667  24.755  26.534  11.503
91600W        W64668   3.790  25.981   4.333
91601W        W64669  43.107  36.392   1.869
91602W        W64670  26.985   3.761  11.156
91603W        W64671  43.695  21.097   4.344
91604W        W64672  32.112  32.311   1.314
91605W        W64673  22.665  30.504  10.730
91606W        W64674  28.573  42.991   3.139
91607W        W64675  28.576   9.638   2.356
91608W        W64676  35.498   3.214  10.784
91609W        W64677  33.100  10.430   0.169
91610W        W64678  39.119  20.214   3.329
91611W        W64679   8.368  37.491   1.185
91612W        W64680  13.056  16.777  12.608
91613W        W64681  14.065  11.931   3.869
91614W        W64682  15.527  16.256   4.282
91615W        W64683  21.407  29.270  14.433
91616W        W64684  44.052   0.762   2.909
91617W        W64685  21.114  17.670   4.649
91618W        W64686  11.774  17.660   2.453
91619W        W64687   6.834  20.594  12.512
91620W        W64688  39.259   4.403  14.556
91621W        W64689   0.288  37.851   1.567
91622W        W64690  22.712  22.285   1.941
91623W        W64691   8.255  20.031  12.674
91624W        W64692  25.616   0.539   0.725
91625W        W64693  42.093   3.532   2.538
91626W        W64694  19.756   8.371   3.317
91627W        W64695  36.366  42.926  14.448
91628W        W64696   3.762  21.601  12.961
91629W        W64697  31.234  16.769   1.283
91630W        W64698  18.458  39.408  10.369
91631W        W64699   6.842  18.163  13.915
91632W        W64700  23.690  18.799  13.746
91633W        W64701   3.852  32.091  13.729
91634W        W64702   0.350  20.702   4.836
91635W        W64703  11.756  19.622   2.646
91636W        W64704  21.103  37.372   1.394
91637W        W64705   1.842  31.592   1.033
91638W        W64706   0.496  11.614   4.442
91639W        W64707  40.306  42.261   4.272
91640W        W64708  44.217  41.926   3.260
91641W        W64709  14.353  36.566   2.435
91642W        W64710  38.833  36.645  12.015
91643W        W64711  25.788  41.884  13.827
91644W        W64712  32.360  12.900  11.185
91645W        W64713  38.800   9.138  11.101
91646W        W64714  36.088  27.774  12.458
91647W        W64715  37.804   1.360  13.914
91648W        W64716  40.424   3.361   4.542
91649W        W64717  30.948  27.005   2.718
91650W        W64718  43.506  14.272   1.724
91651W        W64719  40.600  11.123   1.711
91652W        W64720  35.982   1.206   0.354
91653W        W64721  37.259   4.261   1.774
91654W        W64722  36.921   2.992   1.110
91655W        W64723   4.988  35.417   0.895
91656W        W64724  28.689  23.316   1.332
91657W        W64725   0.722  40.099   4.958
91658W        W64726  18.164  44.697   2.445
91659W        W64727  31.236  21.289  14.049
91660W        W64728  37.051   0.412   0.032
91661W        W64729  27.077  37.191   2.778
91662W        W64730  35.397  30.968  11.880
91663W        W64731   1.750   2.391   4.068
91664W        W64732  16.647  42.829  11.048
91665W        W64733  22.532   6.891   0.741
91666W        W64734  28.307  10.844  10.631
91667W        W64735  41.412  43.840   4.413
91668W        W64736  12.770  39.840   2.742
91669W        W64737  14.945  44.781  13.514
91670W        W64738   4.308  23.389  12.044
91671W        W64739  15.849  37.981  11.195
91672W        W64740  36.880  12.194   3.736
91673W        W64741   1.258   4.657   3.197
91674W        W64742  24.468  25.541  12.248
91675W        W64743  37.603  31.629  12.330
91676W        W64744  44.256  17.301   1.924
91677W        W64745   7.357   6.371   3.887
91678W        W64746   6.800   1.214   2.925
91679W        W64747  13.418  22.995  13.320
91680W        W64748  39.499   8.667  12.366
91681W        W64749  43.878   8.738   3.208
91682W        W64750  23.896  13.074   3.184
91683W        W64751  22.990  28.609  14.805
91684W        W64752  35.458   9.214   3.918
91685W        W64753  33.046  23.156  11.320
91686W        W64754  10.465  29.017   1.541
91687W        W64755  12.195  34.964   2.170
91688W        W64756  34.480  16.800   1.023
91689W        W64757  13.193   1.309   4.075
91690W        W64758  11.170  37.703  12.193
91691W        W64759  38.459  21.069   3.741
91692W        W64760  38.502  38.984   2.243
91693W        W64761  14.834  22.904   1.168
91694W        W64762  13.065  26.692   1.713
91695W        W64763  34.151  23.084  12.797
91696W        W64764  35.495  27.486   2.137
91697W        W64765  37.120  17.133  12.896
91698W        W64766  40.033  43.741   2.287
91699W        W64767  42.241  22.281  12.504
91700W        W64768   8.630  21.324  12.576
91701W        W64769   3.858  40.938  12.113
91702W        W64770   1.253   9.878  13.882
91703W        W64771  17.352  29.788   0.911
91704W        W64772  36.844  14.254  14.236
91705W        W64773  35.000  36.330   0.218
91706W        W64774  13.009  17.702   0.244
91707W        W64775   1.746   6.669   3.214
91708W        W64776   9.725  42.305  11.984
91709W        W64777  10.690  40.660   4.269
91710W        W64778  28.027  24.003   2.422
91711W        W64779  41.247  38.991   4.500
91712W        W64780   6.833  38.338  11.579
91713W        W64781  44.046  18.544   1.245
91714W        W64782  32.897   6.634   1.306
91715W        W64783  10.623  11.283  13.833
91716W        W64784  36.511  19.251   3.958
91717W        W64785  32.000  19.088   0.616
91718W        W64786  28.342  15.739  12.127
91719W        W64787  21.760  17.880  12.643
91720W        W64788  16.327  38.116  14.329
91721W        W64789  22.577  37.076  13.052
91722W        W64790  11.709  17.697   3.853
91723W        W64791  11.763  23.534   5.081
91724W        W64792  18.214   4.206  12.262
91725W        W64793  41.519  29.698   0.387
91726W        W64794  29.729  44.444  12.025
91727W        W64795  41.340  34.884  13.146
91728W        W64796   3.948  38.259  12.799
91729W        W64797  25.619  40.591   4.547
91730W        W64798   2.380  30.578  14.767
91731W        W64799  10.123  18.073   2.343
91732W        W64800   0.248  19.319  14.901
91733W        W64801  38.481  14.456   3.605
91734W        W64802  33.540  34.769   3.262
91735W        W64803  32.769  11.338  10.904
91736W        W64804  23.548  20.161  11.743
91737W        W64805  11.129  35.043   4.512
91738W        W64806  36.901  26.596  14.533
91739W        W64807  28.845  36.932   4.068
91740W        W64808  19.060  39.863   1.372
91741W        W64809   9.748  33.668  11.899
91742W        W64810   6.783   3.580   4.533
91743W        W64811  36.258   0.400  12.954
91744W        W64812   3.043  42.104   4.220
91745W        W64813  27.941  28.050  13.500
91746W        W64814   5.449  14.762   3.735
91747W        W64815  25.479  29.305  14.526
91748W        W64816  15.200   9.163   3.872
91749W        W64817  22.445  26.574   4.082
91750W        W64818  41.852  18.776   2.151
91751W        W64819  23.070   2.015  11.165
91752W        W64820  34.750  19.613   4.502
91753W        W64821   0.883  41.658   3.268
91754W        W64822  38.403  39.889  10.984
91755W        W64823  35.798  41.164  13.803
91756W        W64824   6.960  25.061  13.376
91757W        W64825  25.708  10.428   1.655
91758W        W64826   3.065   6.054   1.502
91759W        W64827   4.620  21.036  10.643
91760W        W64828  13.073   4.327   3.723
91761W        W64829  19.663  14.395   0.531
91762W        W64830  28.457  27.674   0.884
91763W        W64831   9.842  11.905  11.072
91764W        W64832  15.814   8.336   3.681
91765W        W64833  20.660  22.401   2.352
91766W        W64834   5.158   6.368  12.461
91767W        W64835   0.411  37.653  11.849
91768W        W64836  20.251   3.492  11.238
91769W        W64837   5.833  43.874   3.589
91770W        W64838   0.574  30.635  11.161
91771W        W64839  44.279  30.583  11.597
91772W        W64840  38.951  18.759  13.423
91773W        W64841  30.990  34.608  11.115
91774W        W64842  18.514  44.533  13.398
91775W        W64843  39.930  30.116   4.565
91776W        W64844   0.170  14.734  11.662
91777W        W64845  27.751  42.424   3.230
91778W        W64846  24.567  37.077  14.899
91779W        W64847  13.424  21.693  14.215
91780W        W64848   5.389   4.883  12.369
91781W        W64849  33.021  39.757   2.303
91782W        W64850  26.922  40.623  14.553
91783W        W64851  37.279  10.425  13.082
91784W        W64852   2.387  32.591  10.398
91785W        W64853  12.257  26.950   2.269
91786W        W64854  25.183  25.702   3.333
91787W        W64855   0.110  29.471  12.663
91788W        W64856   9.411  37.555  12.516
91789W        W64857  25.138  39.883   1.737
91790W        W64858  13.109  17.038   0.821
91791W        W64859  38.345  11.152  13.936
91792W        W64860  42.060  18.009  12.015
91793W        W64861  20.750  40.786  13.898
91794W        W64862  41.930  32.020  12.570
91795W        W64863  12.967  36.509   2.680
91796W        W64864  25.240  33.347   4.891
91797W        W64865  40.277   8.672  10.637
91798W        W64866   6.796  11.733   4.090
91799W        W64867   0.974   1.107   2.586
91800W        W64868  13.438  22.696   4.214
91801W        W64869  12.122  41.277  13.580
91802W        W64870  16.088  39.023   0.486
91803W        W64871  25.853  11.776  10.114
91804W        W64872  10.299  19.401   9.911
91805W        W64873  39.117  22.112   3.248
91806W        W64874  37.830   2.872   2.144
91807W        W64875  13.087  11.326   2.754
91808W        W64876  25.440  30.606  14.325
91809W        W64877  27.576  11.575  11.967
91810W        W64878  41.015  28.117  11.462
91811W        W64879  29.543  39.551   4.476
91812W        W64880  34.348  10.159  14.778
91813W        W64881  44.417  40.888   1.989
91814W        W64882  26.356   0.872  12.405
91815W        W64883  21.725  12.202   3.332
91816W        W64884  14.231  42.418   3.390
91817W        W64885  31.876  27.908   4.681
91818W        W64886  23.443  24.965  13.940
91819W        W64887   3.995   6.696  11.024
91820W        W64888  24.198  20.998  12.842
91821W        W64889  23.277  33.960   3.759
91822W        W64890  17.134  43.811   3.816
91823W        W64891  35.014  30.425  13.365
91824W        W64892  34.140  30.209  12.008
91825W        W64893  25.242  19.329   1.730
91826W        W64894  38.074  12.443  14.966
91827W        W64895  30.726  35.847   2.340
91828W        W64896  25.005  40.407   5.004
91829W        W64897  36.069  24.867   3.651
91830W        W64898  15.208  12.610   3.114
91831W        W64899  44.514  36.565  10.262
91832W        W64900   9.967  41.876  10.183
91833W        W64901  31.545  29.234  13.398
91834W        W64902   4.187   6.585  14.024
91835W        W64903   4.210   5.700   3.746
91836W        W64904  42.826  37.248   2.715
91837W        W64905  18.768  20.268   0.215
91838W        W64906  28.511  32.008  10.652
91839W        W64907  42.568   1.045  14.466
91840W        W64908  40.989   8.598  12.920
91841W        W64909  28.851  40.879  12.008
91842W        W64910  25.130  22.143  13.286
91843W        W64911  19.769  12.883   0.224
91844W        W64912  20.953  26.207  14.455
91845W        W64913  19.952  33.855   1.814
91846W        W64914  35.485  12.591   4.571
91847W        W64915  42.546  34.562   3.761
91848W        W64916   5.973   8.636  11.143
91849W        W64917  27.434  27.709   3.708
91850W        W64918  22.927   5.953   2.294
91851W        W64919  27.419  41.836   2.782
91852W        W64920  36.474  30.901   3.171
91853W        W64921  24.907   5.486  10.980
91854W        W64922  24.985  16.695   3.359
91855W        W64923  18.584  18.215   1.495
91856W        W64924  22.060  14.314   2.583
91857W        W64925  37.266  33.625  10.677
91858W        W64926   6.737   3.276  12.072
91859W        W64927  34.158   7.056   2.660
91860W        W64928  19.051  28.487  11.978
91861W        W64929  31.626   0.381   1.723
91862W        W64930  40.156  20.125   2.136
91863W        W64931  23.544   1.202  13.381
91864W        W64932  26.809  16.107   2.950
91865W        W64933  23.950  37.842  10.737
91866W        W64934  35.089  12.161  13.910
91867W        W64935  31.951   4.673   1.916
91868W        W64936  40.057  22.084   3.225
91869W        W64937  40.471   7.853   9.515
91870W        W64938  15.222  15.463  11.334
91871W        W64939  18.928   0.843   3.106
91872W        W64940  44.545  21.229   2.677
91873W        W64941  44.283  15.844   3.356
91874W        W64942   5.563  41.764   1.524
91875W        W64943  25.926  32.652  12.245
91876W        W64944  10.751  18.012   1.715
91877W        W64945  38.875  19.675  11.150
91878W        W64946  43.560  27.240  14.002
91879W        W64947  28.012  30.467   1.699
91880W        W64948  28.934  43.004   0.194
91881W        W64949  20.567  28.376   1.169
91882W        W64950  26.057  12.496  10.323
91883W        W64951  31.435   4.195  13.476
91884W        W64952   6.652  28.699  13.683
91885W        W64953  23.568  29.003   4.150
91886W        W64954  22.845  13.342  10.832
91887W        W64955   3.324  24.415   1.342
91888W        W64956  16.874   2.866   0.001
91889W        W64957  39.727  13.271   2.145
91890W        W64958  12.752  38.977   0.760
91891W        W64959  44.506  35.537  12.434
91892W        W64960  29.254   3.462   3.878
91893W        W64961  27.535   9.681  10.740
91894W        W64962  26.360  39.554   4.242
91895W        W64963  30.104  29.417   2.798
91896W        W64964  42.173  11.643   3.987
91897W        W64965   5.021  10.555   4.833
91898W        W64966  44.919  38.781  11.216
91899W        W64967  11.312  15.313  12.203
91900W        W64968  32.196  18.077  11.600
91901W        W64969  21.298  32.134  10.784
91902W        W64970   7.954  34.093  11.933
91903W        W64971  11.979   3.384  14.285
91904W        W64972   4.423   3.918   1.893
91905W        W64973  21.240   2.236  14.815
91906W        W64974  20.559  25.769  12.102
91907W        W64975   4.242  27.444  12.476
91908W        W64976  31.392  18.346   0.434
91909W        W64977  43.378  34.134  10.338
91910W        W64978   7.399  14.992   2.100
91911W        W64979  30.148   4.036   3.161
91912W        W64980   7.861   9.954  13.996
91913W        W64981  26.994  19.799  12.007
91914W        W64982  34.440  31.153  13.456
91915W        W64983  32.022  28.867  12.069
91916W        W64984  36.510  21.113  14.518
91917W        W64985   3.771  23.443  11.624
91918W        W64986  37.887  25.047  13.796
91919W        W64987   0.303  10.367   0.273
91920W        W64988   0.011  39.631  12.949
91921W        W64989  22.458  12.969   0.947
91922W        W64990  17.271  41.194   0.255
91923W        W64991  31.925  22.255  11.408
91924W        W64992  21.184  42.979   1.383
91925W        W64993  37.402  44.777   3.163
91926W        W64994   8.411  14.486   1.310
91927W        W64995  12.380  30.197   0.953
91928W        W64996  43.837  16.914   0.892
91929W        W64997   4.816  27.573   3.857
91930W        W64998  34.398  27.046  14.015
91931W        W64999  41.280  21.518   1.257
91932W        W65000  21.601  29.106   4.155
91933W        W65001  10.136  31.495  14.090
91934W        W65002  32.110  39.608   3.350
91935W        W65003   6.361   8.355  12.920
91936W        W65004  38.472  14.638   2.301
91937W        W65005  36.529   3.584  11.149
91938W        W65006  17.155  17.136  13.011
91939W        W65007   8.496   8.008   1.422
91940W        W65008  27.129  43.066   3.762
91941W        W65009  24.562  31.423   1.258
91942W        W65010  36.387  21.816  12.382
91943W        W65011  44.901  21.053  14.570
91944W        W65012  34.523  31.326   1.050
91945W        W65013  27.968  27.909  14.431
91946W        W65014  12.178  18.550  11.208
91947W        W65015   1.803   5.207  11.292
91948W        W65016   4.329  23.505  10.491
91949W        W65017  26.545  20.103   4.642
91950W        W65018  10.321   6.648  14.305
91951W        W65019  11.576  13.667  14.841
91952W        W65020  25.556  11.384   3.515
91953W        W65021  18.474  38.980   1.383
91954W        W65022  32.936  31.132  14.564
91955W        W65023  17.057   8.206  10.930
91956W        W65024   7.671  39.257   3.682
91957W        W65025  44.978  26.731  11.529
91958W        W65026  37.293  26.962  10.438
91959W        W65027   2.098   1.094   2.990
91960W        W65028  31.911  31.586  13.073
91961W        W65029  23.479  38.966  11.655
91962W        W65030  34.882  41.568  11.341
91963W        W65031  32.202  22.974   5.006
91964W        W65032  31.970  26.069   0.922
91965W        W65033  28.168  38.288   2.729
91966W        W65034   4.676  43.905  11.710
91967W        W65035  11.138  38.851  10.344
91968W        W65036  44.256  33.536   2.839
91969W        W65037  29.408  16.730   3.207
91970W        W65038  22.624  35.017   4.630
91971W        W65039   7.439  23.225   0.929
91972W        W65040  20.198  25.238   3.577
91973W        W65041  20.225  12.674   3.606
91974W        W65042   7.652  21.670   2.283
91975W        W65043  44.930  15.054   2.421
91976W        W65044  31.121  24.692   4.425
91977W        W65045   5.097  17.451  14.993
91978W        W65046  10.383  39.079   0.846
91979W        W65047  31.285  17.314  14.954
91980W        W65048   0.646  23.961   2.784
91981W        W65049  11.695  36.847  11.558
91982W        W65050  14.449   5.751  14.279
91983W        W65051  26.014  43.785   0.037
91984W        W65052  14.611  26.020   4.423
91985W        W65053   0.941   8.001   2.088
91986W        W65054   7.152  23.664  14.756
91987W        W65055  16.182  26.583  14.039
91988W        W65056  36.621   8.812  13.049
91989W        W65057  19.778  41.494   0.280
91990W        W65058  24.597  15.223   4.421
91991W        W65059  43.926  30.491  12.106
91992W        W65060  17.839  14.677  11.484
91993W        W65061  25.119  29.512  13.883
91994W        W65062  11.253  36.573   3.550
91995W        W65063  35.222  31.303  10.954
91996W        W65064  40.494  20.631  10.505
91997W        W65065  17.895  12.530  13.520
91998W        W65066  27.874  17.999  11.166
91999W        W65067  38.176  26.077   0.418
92000W        W65068   6.247  22.348   2.682
92001W        W65069  28.885  10.270   2.820
92002W        W65070   0.428   6.316   2.354
92003W        W65071  25.525  34.257  10.781
92004W        W65072  43.037   3.236   5.125
92005W        W65073   0.253  19.557   4.153
92006W        W65074   4.206  33.512   1.758
92007W        W65075  41.048  10.849  13.999
92008W        W65076  10.632  19.560   4.318
92009W        W65077  20.942   8.717  12.687
92010W        W65078   0.837  20.306   2.247
92011W        W65079  44.855  17.805   3.204
92012W        W65080  27.358  18.505  11.941
92013W        W65081   6.822   9.779   4.616
92014W        W65082  42.053  38.058  13.668
92015W        W65083  42.341  12.639  11.873
92016W        W65084   4.804  22.122   3.603
92017W        W65085   4.448   5.655  12.802
92018W        W65086  34.402   9.342  11.954
92019W        W65087   8.217  29.147  10.660
92020W        W65088  24.404  43.019  14.674
92021W        W65089  25.209  32.635   1.708
92022W        W65090  20.924   4.017  11.504
92023W        W65091  36.326   8.251  13.996
92024W        W65092   2.000  16.273   0.961
92025W        W65093  30.595  27.287   1.381
92026W        W65094   0.843  28.312   4.735
92027W        W65095  35.290  10.355  14.911
92028W        W65096  14.621  27.148   2.150
92029W        W65097   2.763  43.824   3.826
92030W        W65098  29.352  28.022   2.816
92031W        W65099  42.141   5.552   1.087
92032W        W65100  11.792  29.883  11.119
92033W        W65101   1.176   6.971  13.307
92034W        W65102  19.077  20.317  14.453
92035W        W65103  30.003  18.833   2.027
92036W        W65104   4.291   4.489  10.728
92037W        W65105  21.023  12.783   4.673
92038W        W65106   2.490   4.728  14.107
92039W        W65107   8.262   3.383  14.251
92040W        W65108  11.200   2.396   4.460
92041W        W65109  22.194   2.025  13.990
92042W        W65110  22.051  33.156  14.274
92043W        W65111   5.250  30.680   1.873
92044W        W65112  33.366  23.442  10.350
92045W        W65113  33.964   3.460  12.018
92046W        W65114  14.700  11.381   2.711
92047W        W65115  14.632   2.740  12.483
92048W        W65116  11.135  26.447   5.023
92049W        W65117  19.534  13.086  13.310
92050W        W65118   8.679  37.416   2.276
92051W        W65119  30.078   5.296   4.062
92052W        W65120  40.888  14.932  12.052
92053W        W65121  33.189   2.813   0.120
92054W        W65122  20.353   9.764   4.514
92055W        W65123   7.677  13.727   2.208
92056W        W65124  35.868   8.298   4.139
92057W        W65125   6.619  34.390   2.595
92058W        W65126  43.837   7.241   3.067
92059W        W65127   4.772   9.124   4.583
92060W        W65128  29.662  42.788  12.614
92061W        W65129  41.703  19.549  13.901
92062W        W65130  10.151  29.424  14.384
92063W        W65131  43.741  14.777  12.857
92064W        W65132  37.870   3.438   5.102
92065W        W65133  41.399  31.305  14.316
92066W        W65134  19.332   9.268  14.346
92067W        W65135  20.155  14.209   0.474
92068W        W65136  44.871   9.897  13.970
92069W        W65137  18.491  30.143   2.676
92070W        W65138  21.524   8.765  11.519
92071W        W65139  42.702  23.092   0.790
92072W        W65140   2.798  17.569  12.376
92073W        W65141  39.723  19.471   0.040
92074W        W65142  13.616  30.184   0.237
92075W        W65143   1.323  11.598  12.475
92076W        W65144  43.054  21.535  11.598
92077W        W65145  10.164  20.461  11.556
92078W        W65146  10.346  25.769  10.984
92079W        W65147  23.083  23.740   4.301
92080W        W65148   7.497   6.193   4.907
92081W        W65149  44.993  18.404  12.042
92082W        W65150   7.950   8.356  13.873
92083W        W65151  32.501   6.780  13.772
92084W        W65152  31.114  30.402  12.561
92085W        W65153  13.962  37.943   0.307
92086W        W65154   1.303  16.165   2.142
92087W        W65155  18.216   6.903   3.204
92088W        W65156   9.636  43.492   1.887
92089W        W65157   7.948  44.284   2.369
92090W        W65158  28.178   5.278   3.722
92091W        W65159  31.367  36.177   2.680
92092W        W65160   9.399  26.347  12.078
92093W        W65161  24.911   7.348  12.554
92094W        W65162  29.000  26.416   4.563
92095W        W65163   8.376   2.887  12.303
92096W        W65164  24.879  37.919  11.034
92097W        W65165  44.310   8.355  12.414
92098W        W65166   1.120  18.546   3.634
92099W        W65167   2.494   0.371   2.363
92100W        W65168   9.390  34.171   2.874
92101W        W65169  21.773  38.899  14.519
92102W        W65170  28.678  18.073  10.740
92103W        W65171  21.635   1.528   1.676
92104W        W65172  21.638  15.380   0.919
92105W        W65173  41.867  40.914   0.949
92106W        W65174   1.764  32.435   2.803
92107W        W65175   0.218  42.390  10.734
92108W        W65176   0.239  35.097  14.842
92109W        W65177  26.396   2.228   1.850
92110W        W65178  40.471   0.874   4.567
92111W        W65179   4.284   9.589   1.897
92112W        W65180  29.838  21.923   4.705
92113W        W65181   5.218   0.716   2.569
92114W        W65182  24.726  29.703  10.780
92115W        W65183  34.417  39.009   0.528
92116W        W65184  18.626  21.029  14.235
92117W        W65185   9.366  35.687   4.100
92118W        W65186   9.962  27.005  13.414
92119W        W65187  34.689   4.271  11.004
92120W        W65188  27.272  12.186  10.306
92121W        W65189  26.535  23.041  12.704
92122W        W65190  43.790  22.413   0.253
92123W        W65191  31.794  34.130  11.334
92124W        W65192  24.374  32.982   1.862
92125W        W65193  24.135   2.209   0.514
92126W        W65194  27.970  19.753  12.041
92127W        W65195  22.729  18.231  13.462
92128W        W65196  31.448  43.779   0.562
92129W        W65197  42.413  30.671   2.438
92130W        W65198  41.454  28.509   2.197
92131W        W65199  21.313   9.203   1.340
92132W        W65200  34.053  30.874  10.557
92133W        W65201  11.848  38.891  14.359
92134W        W65202  37.663  32.612  11.684
92135W        W65203  15.222  29.717   0.895
92136W        W65204  11.145  15.360  11.717
92137W        W65205  43.255  31.855   0.929
92138W        W65206  25.023  14.736   1.880
92139W        W65207   2.877  44.835  12.926
92140W        W65208  28.509  13.152  13.309
92141W        W65209  28.127  42.200  10.995
92142W        W65210  14.077  43.441  10.672
92143W        W65211   2.325  11.265   2.005
92144W        W65212  22.266  15.558  13.431
92145W        W65213  10.355  32.078   3.266
92146W        W65214  26.543  12.186  14.811
92147W        W65215  21.572  11.292   1.960
92148W        W65216   4.975  19.779   0.997
92149W        W65217  34.609   8.293  10.765
92150W        W65218  40.093  40.440  14.784
92151W        W65219  43.023   7.571  11.769
92152W        W65220   1.442  36.971   0.930
92153W        W65221  33.333  19.506  14.824
92154W        W65222   8.089  30.243   0.787
92155W        W65223  14.802  44.023   2.311
92156W        W65224  29.119  35.982  10.507
92157W        W65225   0.285   0.768  12.278
92158W        W65226  18.682  31.153  11.012
92159W        W65227  22.644   6.235   1.222
92160W        W65228   8.416  33.256   0.719
92161W        W65229  34.027   8.817   0.274
92162W        W65230  12.648  15.277  12.022
92163W        W65231  28.835  24.964  11.133
92164W        W65232  30.078  22.276  10.723
92165W        W65233  18.019  21.050   3.188
92166W        W65234  18.769  21.033   2.733
92167W        W65235  33.942   3.956  10.981
92168W        W65236  40.839  17.635   4.808
92169W        W65237  27.226   5.860  11.919
92170W        W65238  40.082  10.933  12.230
92171W        W65239   0.004  25.873   1.751
92172W        W65240  19.117   3.060  14.349
92173W        W65241   3.752  19.120  14.619
92174W        W65242  41.025  14.613  14.295
92175W        W65243  26.744  35.535  13.295
92176W        W65244  31.310  41.896  10.737
92177W        W65245   0.349  27.695  13.166
92178W        W65246  22.606  38.605  11.331
92179W        W65247  42.865  33.676   1.726
92180W        W65248  27.211   4.728   3.710
92181W        W65249  34.190  33.160   0.755
92182W        W65250  27.663  33.539  12.542
92183W        W65251  28.078  25.747   0.729
92184W        W65252  28.128  29.259   4.015
92185W        W65253  18.149   7.855  12.985
92186W        W65254  13.186  35.960  14.627
92187W        W65255   2.982  20.590  12.650
92188W        W65256  39.392  37.898  11.912
92189W        W65257  15.211  38.904  13.610
92190W        W65258  41.513   5.852  11.490
92191W        W65259  25.273   0.860   2.832
92192W        W65260  40.549  12.743   4.037
92193W        W65261  15.675   3.911   2.228
92194W        W65262  28.683   7.416  14.424
92195W        W65263  14.307   2.524   1.506
92196W        W65264  44.984  23.190  10.620
92197W        W65265   7.408  19.266   2.518
92198W        W65266  29.406  23.151  14.742
92199W        W65267  25.599  34.022   3.744
92200W        W65268  24.118   3.884   2.200
92201W        W65269  43.877   5.242   3.075
92202W        W65270  23.670   1.663  12.509
92203W        W65271  39.234  19.523   3.530
92204W        W65272   6.967   8.755  11.356
92205W        W65273  41.032  38.975  14.408
92206W        W65274  18.077  26.014  12.811
92207W        W65275   4.249  10.667   2.688
92208W        W65276  32.581  40.519  11.662
92209W        W65277  44.226  13.818  14.413
92210W        W65278  30.192  43.335  11.635
92211W        W65279  37.677  27.938   5.093
92212W        W65280  36.213   0.090  10.298
92213W        W65281  19.721  20.597  12.521
92214W        W65282  26.163  33.327  12.599
92215W        W65283  34.043  43.441   4.227
92216W        W65284  42.868  25.161   1.174
92217W        W65285  37.905  43.862  12.543
92218W        W65286  19.781  44.796   5.032
92219W        W65287  15.258  30.461   4.089
92220W        W65288   6.911  20.019  11.885
92221W        W65289  36.354   4.363   0.943
92222W        W65290  37.500  27.436   5.109
92223W        W65291  11.996  38.358  12.574
92224W        W65292   4.910  23.958   1.907
92225W        W65293  38.563  31.096   3.165
92226W        W65294  13.056  39.805  11.159
92227W        W65295  15.735   9.635  11.590
92228W        W65296  20.627  29.014   4.925
92229W        W65297  23.284  19.048  13.594
92230W        W65298   9.357  14.114   1.773
92231W        W65299  34.092  31.898   1.851
92232W        W65300  18.700  17.764  13.335
92233W        W65301  10.276  44.045   1.917
92234W        W65302  10.243   3.958  14.304
92235W        W65303  18.170  20.611   2.438
92236W        W65304   9.366  18.827   3.297
92237W        W65305  40.442  15.936   4.169
92238W        W65306  37.359  35.813  13.788
92239W        W65307   1.350  31.168  12.909
92240W        W65308  39.528  24.606   0.360
92241W        W65309  31.161   5.242  11.445
92242W        W65310  17.751  32.263  11.983
92243W        W65311  40.060  17.242   4.039
92244W        W65312  27.542  31.850  11.013
92245W        W65313  26.852   8.745  14.910
92246W        W65314   8.865   5.360  13.518
92247W        W65315   2.408  21.468  14.952
92248W        W65316  34.392  40.514  12.050
92249W        W65317  22.254  41.096  13.913
92250W        W65318   6.051  35.844   0.498
92251W        W65319  34.496  27.716  14.826
92252W        W65320  17.021  16.263  10.063
92253W        W65321  26.432  44.796  12.966
92254W        W65322   0.133   7.679  13.595
92255W        W65323   9.221  25.705   0.846
92256W        W65324   0.030  27.030  12.012
92257W        W65325  21.745   0.203   3.063
92258W        W65326  27.483  37.534  10.741
92259W        W65327  36.092  40.473   0.432
92260W        W65328  26.059   3.375  14.663
92261W        W65329  39.384  35.935   1.680
92262W        W65330  39.957   5.512   9.946
92263W        W65331  26.955  31.010   2.337
92264W        W65332  33.815  26.345   3.650
92265W        W65333  39.781  44.462   0.006
92266W        W65334  12.304  32.850  12.613
92267W        W65335  40.844  12.563   2.834
92268W        W65336  30.101  22.774   2.603
92269W        W65337   9.555  19.320   4.247
92270W        W65338  20.147  37.551   0.843
92271W        W65339  31.411  44.705   4.153
92272W        W65340  12.238  31.928  14.885
92273W        W65341  43.313  19.015   2.452
92274W        W65342  43.573  28.173  14.589
92275W        W65343   5.645  26.981  14.560
92276W        W65344  15.134  43.964  12.210
92277W        W65345  27.667  36.562   2.740
92278W        W65346  40.438   9.337   1.809
92279W        W65347  17.681  38.405  14.576
92280W        W65348  13.864  20.015  12.848
92281W        W65349  24.589   2.352   4.616
92282W        W65350  26.312  32.966  13.501
92283W        W65351  42.152  14.903   0.455
92284W        W65352  23.037  34.148  14.280
92285W        W65353   5.799   9.825  14.873
92286W        W65354   1.384  39.790   3.304
92287W        W65355   3.402  27.473   3.534
92288W        W65356  11.521   1.913   0.843
92289W        W65357   8.123  28.645  10.551
92290W        W65358  38.919  39.651   4.078
92291W        W65359   1.348   8.318   4.572
92292W        W65360   5.180  19.764   4.813
92293W        W65361  44.007  35.371   4.998
92294W        W65362  42.074  36.993   2.278
92295W        W65363  24.013   4.043   4.552
92296W        W65364  39.806  30.477   0.793
92297W        W65365  44.576  28.673   0.714
92298W        W65366  34.661  23.750   1.631
92299W        W65367  16.860  10.057  13.593
92300W        W65368  22.308  39.934   1.305
92301W        W65369  44.384   4.909   4.166
92302W        W65370  20.596  30.938   3.244
92303W        W65371   4.261  20.672  10.766
92304W        W65372  41.369  35.318  12.872
92305W        W65373  29.975  17.630  13.504
92306W        W65374  16.247  23.237   0.353
92307W        W65375  37.870   1.949  11.440
92308W        W65376   3.825  18.141  14.925
92309W        W65377   4.244   2.299  11.629
92310W        W65378  11.175   5.750   2.345
92311W        W65379   7.746  10.225  11.248
92312W        W65380  24.680  17.172   1.223
92313W        W65381   6.950  23.751   2.852
92314W        W65382  30.576  25.943  11.603
92315W        W65383  13.874  31.122  14.069
92316W        W65384  27.461  10.698  13.398
92317W        W65385  32.495  22.214  11.940
92318W        W65386  15.147  35.938  10.846
92319W        W65387  37.468  19.245  14.879
92320W        W65388  14.891  41.877  14.023
92321W        W65389  15.563  30.593  10.631
92322W        W65390  30.779  44.656  12.920
92323W        W65391   4.472   9.132   3.675
92324W        W65392  33.775   5.733  12.025
92325W        W65393  20.509  27.167   3.224
92326W        W65394  43.861  31.998  14.343
92327W        W65395   4.751  41.551   1.210
92328W        W65396   5.413  31.203  14.384
92329W        W65397  32.369  29.377   2.411
92330W        W65398  10.726  27.203   2.302
92331W        W65399   8.283  38.543  12.586
92332W        W65400  23.530  41.329   3.143
92333W        W65401  40.961   0.748   1.232
92334W        W65402  10.205  19.266   0.921
92335W        W65403  39.360  29.435   0.727
92336W        W65404  40.782  41.040  12.079
92337W        W65405  40.753   7.396  11.511
92338W        W65406  34.734   4.669   2.848
92339W        W65407  17.133  14.562   4.145
92340W        W65408  12.743  10.703  13.034
92341W        W65409  25.033  42.964  12.899
92342W        W65410  43.739  15.560  11.054
92343W        W65411   0.307   2.931   2.860
92344W        W65412   2.870  26.119  13.635
92345W        W65413   1.583  33.416  13.047
92346W        W65414  28.102  29.296  13.023
92347W        W65415  36.809  21.046  14.935
92348W        W65416  13.758  10.822   1.804
92349W        W65417  17.693   8.546  12.286
92350W        W65418  28.534  12.081   1.609
92351W        W65419  16.750  27.639  12.086
92352W        W65420  32.647   9.150  10.802
92353W        W65421  10.123  39.613  11.095
92354W        W65422  13.024  14.000   0.906
92355W        W65423  31.240  41.032  11.907
92356W        W65424  11.751  30.465   2.262
92357W        W65425  27.653   8.097   1.360
92358W        W65426  31.514  33.921  11.714
92359W        W65427  30.305   4.798   4.569
92360W        W65428  23.212  43.625   0.226
92361W        W65429   0.907  10.518   3.947
92362W        W65430   8.640   2.773   1.177
92363W        W65431   0.907  23.904   0.373
92364W        W65432   8.399  43.350   2.325
92365W        W65433   5.405  36.134   2.476
92366W        W65434  42.860   3.700   3.898
92367W        W65435  13.946  10.155  13.231
92368W        W65436  21.555  19.261  11.903
92369W        W65437  31.610  21.998   2.674
92370W        W65438  28.685  25.726  10.808
92371W        W65439  23.133  35.123   4.618
92372W        W65440   1.316  28.196  13.117
92373W        W65441  11.342  19.522  13.071
92374W        W65442  27.628   0.566  10.752
92375W        W65443   3.692  31.422   2.711
92376W        W65444   2.816  29.345  12.970
92377W        W65445  34.023  16.973  12.121
92378W        W65446   1.788   3.203   4.708
92379W        W65447   6.515  33.209  10.803
92380W        W65448  40.027  12.063   2.793
92381W        W65449  11.381  22.367   0.010
92382W        W65450  14.425   7.701  10.666
92383W        W65451  32.303  10.276   4.019
92384W        W65452  27.749  30.142  10.729
92385W        W65453  39.888   6.755   2.179
92386W        W65454   9.824  26.126   4.632
92387W        W65455   0.863  31.806  13.412
92388W        W65456  14.883  28.123   5.055
92389W        W65457  41.029  28.597  10.602
92390W        W65458   0.866  31.160   1.969
92391W        W65459  29.530  31.595  10.734
92392W        W65460  35.417   0.857  12.058
92393W        W65461  34.902  10.218   1.223
92394W        W65462  13.107  35.246  11.898
92395W        W65463   4.718  23.751  11.268
92396W        W65464   1.302   4.648   4.098
92397W        W65465  34.122  44.427  14.857
92398W        W65466  10.051  12.934  11.012
92399W        W65467   0.674  34.429  10.719
92400W        W65468  33.429  24.825   0.284
92401W        W65469  37.557  35.505  11.602
92402W        W65470  44.714  22.678  10.493
92403W        W65471  31.430  28.083   4.919
92404W        W65472  20.643  22.499  13.486
92405W        W65473   6.284   8.882  13.835
92406W        W65474  31.213   4.904   0.889
92407W        W65475  22.581  24.623  11.994
92408W        W65476   4.386  14.558   0.506
92409W        W65477   8.239  12.286  11.089
92410W        W65478  12.324   4.869   0.350
92411W        W65479  35.500  41.881  10.653
92412W        W65480  10.688  23.539   2.929
92413W        W65481   5.931  41.013  13.977
92414W        W65482   5.936  32.035   3.092
92415W        W65483   7.456  38.720  13.509
92416W        W65484  11.886   4.483  11.043
92417W        W65485  33.035  41.911   4.574
92418W        W65486  12.328  12.943  12.803
92419W        W65487   6.715  29.512   2.406
92420W        W65488  27.549  36.314   3.670
92421W        W65489  25.720  22.325  14.542
92422W        W65490  30.409   3.895   0.547
92423W        W65491  12.469  28.629   3.092
92424W        W65492  21.023  19.728  10.737
92425W        W65493  44.928   1.381   2.217
92426W        W65494  35.192  16.172   4.083
92427W        W65495   1.425   2.997   1.814
92428W        W65496  16.807  21.144  10.491
92429W        W65497  22.348  22.208   4.082
92430W        W65498  39.409  35.108  13.202
92431W        W65499   5.194  32.373  11.669
92432W        W65500   5.398  11.899  14.282
92433W        W65501  24.273  28.968   4.632
92434W        W65502   0.243   5.267   1.673
92435W        W65503   4.629  23.097  12.917
92436W        W65504  32.372  40.440   2.858
92437W        W65505  11.105  27.156  13.017
92438W        W65506  11.651  20.909   2.351
92439W        W65507  30.076  21.223   1.830
92440W        W65508   5.194  35.170   0.306
92441W        W65509  36.813  20.241   3.244
92442W        W65510  41.795   0.152   9.769
92443W        W65511  18.518  30.069   0.244
92444W        W65512   8.255  33.220   3.834
92445W        W65513  19.305   7.743   2.792
92446W        W65514   0.387   7.338  14.386
92447W        W65515  26.812  22.598   3.820
92448W        W65516  28.097  17.207   4.380
92449W        W65517   2.545  42.029   1.180
92450W        W65518  22.681  39.124  14.401
92451W        W65519  14.220  42.909  11.987
92452W        W65520  14.512  18.127  12.360
92453W        W65521  26.169  13.677   4.557
92454W        W65522  35.972  14.356  14.338
92455W        W65523   4.206   3.516   4.162
92456W        W65524  30.223  38.531  12.815
92457W        W65525   2.913  38.373  12.755
92458W        W65526  28.070  23.304  11.983
92459W        W65527  41.817  18.257  12.461
92460W        W65528  13.756  24.604  10.541
92461W        W65529  23.270   3.743  12.978
92462W        W65530  42.494  36.584  14.788
92463W        W65531  13.580  16.508   4.011
92464W        W65532  31.640  41.869   4.138
92465W        W65533  41.992  18.813   1.230
92466W        W65534  40.014   3.381  13.892
92467W        W65535  13.144  34.344  11.647
92468W        W65536  43.938  35.880   1.720
92469W        W65537  15.069  39.993  11.867
92470W        W65538  35.350  14.850   1.419
92471W        W65539  24.453  17.924   3.661
92472W        W65540  42.364  36.952  12.482
92473W        W65541  16.677  20.124  12.989
92474W        W65542  22.483  26.739  11.519
92475W        W65543  36.821  26.167  11.430
92476W        W65544   1.456  39.906   0.408
92477W        W65545  12.325  34.568   0.389
92478W        W65546  10.885  12.182   2.395
92479W        W65547  32.109  33.458  11.804
92480W        W65548  29.054  44.023   3.835
92481W        W65549   3.391  21.951   2.823
92482W        W65550  24.940  28.664  12.050
92483W        W65551  33.536   6.182  12.037
92484W        W65552   3.319  39.903  12.537
92485W        W65553   6.656   9.462   5.003
92486W        W65554   3.476  16.611   3.768
92487W        W65555  21.493  18.760  12.514
92488W        W65556   6.542  40.353  10.192
92489W        W65557   7.833  32.914  14.336
92490W        W65558  16.679   4.796  11.914
92491W        W65559  12.055   8.959  12.316
92492W        W65560  17.565  15.734   1.393
92493W        W65561  28.034  32.357  14.305
92494W        W65562   2.741   6.944   4.554
92495W        W65563  28.557   8.918   4.257
92496W        W65564  36.316  14.577   1.157
92497W        W65565  44.455  11.158   1.854
92498W        W65566   6.495  19.834  10.988
92499W        W65567  16.643  18.531  13.858
92500W        W65568  26.999  24.987   3.705
92501W        W65569  37.899  17.736  12.615
92502W        W65570  42.230  38.259   3.128
92503W        W65571   8.746  41.625   5.140
92504W        W65572  17.545  29.460  13.115
92505W        W65573   6.338  44.874  14.236
92506W        W65574  42.735   3.664  11.620
92507W        W65575   5.886   4.703  12.450
92508W        W65576  22.586  32.004   4.357
92509W        W65577  28.180  25.203   5.096
92510W        W65578  20.950   8.018  13.979
92511W        W65579  29.574  30.472   0.294
92512W        W65580  29.891  36.002  13.961
92513W        W65581  10.661  11.249   3.805
92514W        W65582  39.111  38.387  10.600
92515W        W65583   0.550  33.504   4.375
92516W        W65584  17.150   0.937   4.953
92517W        W65585  27.719  11.235  11.618
92518W        W65586  38.640  32.175  11.166
92519W        W65587  18.553   5.383   3.161
92520W        W65588  13.235  37.147   0.229
92521W        W65589   4.051  10.762   1.427
92522W        W65590   1.791   4.381  12.364
92523W        W65591  22.210   2.109  11.003
92524W        W65592  11.845   6.453   4.590
92525W        W65593  23.076  11.842   2.670
92526W        W65594  31.138  44.192   0.410
92527W        W65595  14.290  30.472   4.164
92528W        W65596   3.612  31.398  11.576
92529W        W65597  15.663  29.358  11.095
92530W        W65598  32.805   1.899   5.071
92531W        W65599   1.820  34.997  12.056
92532W        W65600   7.423   3.415  12.803
92533W        W65601  35.777  28.199  12.412
92534W        W65602  33.366   7.270   5.113
92535W        W65603  10.859  18.387   1.044
92536W        W65604  21.980   3.382   2.091
92537W        W65605   1.337   8.703  13.881
92538W        W65606  10.086  26.256   3.763
92539W        W65607  17.293  31.856   4.161
92540W        W65608  15.662  30.900   1.796
92541W        W65609  37.397  24.044  10.711
92542W        W65610   0.857  19.688  10.669
92543W        W65611  10.612  25.077  12.451
92544W        W65612  18.607  44.037  13.507
92545W        W65613  34.868  36.399  14.731
92546W        W65614  13.067   7.895  13.829
92547W        W65615  27.474  31.688  12.532
92548W        W65616   3.403   6.698   4.884
92549W        W65617  41.843  36.444   4.658
92550W        W65618  21.806  28.182  12.394
92551W        W65619  25.053  34.181   1.238
92552W        W65620   9.269   5.185  12.949
92553W        W65621  27.977  21.148   4.169
92554W        W65622  25.292  36.862  11.656
92555W        W65623   0.315   8.557  13.661
92556W        W65624  15.179  24.027   2.745
92557W        W65625   1.227  38.842   1.829
92558W        W65626  22.146  30.906  12.396
92559W        W65627  18.084  31.461   4.366
92560W        W65628  26.177  32.459   4.186
92561W        W65629  12.126  10.242  12.036
92562W        W65630  36.891  36.942  11.943
92563W        W65631   7.274  23.155  10.717
92564W        W65632  31.992  28.511  14.991
92565W        W65633   1.262  17.412  14.097
92566W        W65634  36.991  32.165   2.012
92567W        W65635   2.164  35.979  11.920
92568W        W65636   9.358  18.970  13.061
92569W        W65637  44.455  12.166  12.851
92570W        W65638  38.085  16.364   0.507
92571W        W65639  39.104   9.528  12.313
92572W        W65640  42.827  26.913  11.924
92573W        W65641  31.453  36.130  13.076
92574W        W65642  43.018  12.070  13.897
92575W        W65643  27.398  23.199   0.560
92576W        W65644  22.047  22.202  11.991
92577W        W65645   6.351   5.233  10.176
92578W        W65646  11.243  25.941  10.634
92579W        W65647   8.425  41.937   0.290
92580W        W65648  20.257  43.541  14.009
92581W        W65649  33.799  25.550  12.541
92582W        W65650  10.930  33.575  11.495
92583W        W65651  13.751  27.021   3.355
92584W        W65652   0.859   4.347   0.386
92585W        W65653  41.971   4.963   1.796
92586W        W65654  31.333  12.132  11.550
92587W        W65655  35.703  13.411   0.997
92588W        W65656   7.353  14.541   1.816
92589W        W65657  34.459   0.580  12.109
92590W        W65658  26.221  36.990   4.679
92591W        W65659   8.893  17.697   1.300
92592W        W65660  16.035   7.473   2.782
92593W        W65661  39.922  26.171  11.740
92594W        W65662  40.301  29.544  13.925
92595W        W65663  21.133  14.054   4.475
92596W        W65664   5.946  37.950   2.901
92597W        W65665   8.745  18.790  12.586
92598W        W65666  21.724  35.860   0.396
92599W        W65667   9.299  28.255   1.677
92600W        W65668  44.203  12.176   3.071
92601W        W65669  26.102  40.481  14.460
92602W        W65670  44.749  13.938   4.898
92603W        W65671  25.307   3.124   1.981
92604W        W65672  31.360  20.208   1.752
92605W        W65673   7.113   9.349   4.645
92606W        W65674  18.485  29.596  10.728
92607W        W65675  36.118   0.370   0.145
92608W        W65676  18.354  16.601  10.676
92609W        W65677   0.364  29.378  13.934
92610W        W65678   0.292  42.331  11.657
92611W        W65679  43.059  25.023   4.113
92612W        W65680  33.745  43.293   0.663
92613W        W65681   7.274  15.642   1.334
92614W        W65682  13.646  20.038   0.669
92615W        W65683  39.278  19.180   1.517
92616W        W65684  43.822  29.615   1.762
92617W        W65685  31.988  13.061   3.119
92618W        W65686  10.936  21.674  10.965
92619W        W65687  30.204  25.727   2.765
92620W        W65688  32.044  12.743   4.634
92621W        W65689  33.146  10.909  13.897
92622W        W65690  20.700   8.027   4.646
92623W        W65691  38.382  13.381   0.673
92624W        W65692  32.438  39.106  12.313
92625W        W65693  43.238  17.536  13.330
92626W        W65694  11.280   9.795   0.289
92627W        W65695  12.139   8.816   1.948
92628W        W65696  17.844  26.365   2.626
92629W        W65697  22.532  33.847   0.543
92630W        W65698  38.414  41.477  14.074
92631W        W65699  21.189  13.797   4.005
92632W        W65700  42.849  41.974  12.829
92633W        W65701   8.866  41.532   1.611
92634W        W65702  15.229  28.277   1.799
92635W        W65703  18.841   9.285  13.490
92636W        W65704  38.591  31.430  12.574
92637W        W65705  28.714  14.189  14.171
92638W        W65706  28.769  42.264  14.807
92639W        W65707  13.634  31.495   4.166
92640W        W65708  29.017  29.195   2.343
92641W        W65709  32.091  30.707   2.274
92642W        W65710  28.582  41.393   2.943
92643W        W65711  38.867  10.142  14.663
92644W        W65712  16.771  34.394  11.540
92645W        W65713  19.587  31.559   0.334
92646W        W65714  31.666  22.360   1.078
92647W        W65715  29.204  11.276  14.514
92648W        W65716  30.636  31.342  12.210
92649W        W65717  41.015  39.810   2.315
92650W        W65718   5.699  31.008  12.873
92651W        W65719  36.909   8.883   4.701
92652W        W65720  20.757  44.071   4.185
92653W        W65721  33.089  19.552  11.603
92654W        W65722  42.487  32.014  12.409
92655W        W65723  14.337   8.195   4.105
92656W        W65724  11.441  24.933  10.686
92657W        W65725  31.046  18.071   2.711
92658W        W65726  14.627   8.613  14.189
92659W        W65727  16.798  26.061   2.232
92660W        W65728  36.550  10.935  11.742
92661W        W65729  37.251  40.015   4.578
92662W        W65730  23.475   4.308  10.982
92663W        W65731   9.663  23.188   1.959
92664W        W65732  20.113   5.193   3.564
92665W        W65733  28.089  35.601  11.599
92666W        W65734   7.714   1.234  13.446
92667W        W65735  12.096  39.921  14.316
92668W        W65736   8.336  39.409  12.576
92669W        W65737   3.828  10.742   2.232
92670W        W65738  12.137  16.951   4.960
92671W        W65739  28.634   3.279  13.106
92672W        W65740  19.115  12.292  11.998
92673W        W65741   6.764  31.517   3.224
92674W        W65742  44.904  14.655   1.623
92675W        W65743  10.835  22.975  13.813
92676W        W65744  22.092  21.702  12.828
92677W        W65745   6.607  42.059  11.727
92678W        W65746  24.761   7.132  12.995
92679W        W65747   8.174  43.103  12.036
92680W        W65748   7.055  29.034   2.717
92681W        W65749   3.277   5.915   0.544
92682W        W65750  32.569  24.173   2.217
92683W        W65751   6.640  32.536   4.141
92684W        W65752  33.469  17.328   2.586
92685W        W65753  21.196  10.540   1.492
92686W        W65754  27.140  23.122   1.143
92687W        W65755  21.767  42.901  11.860
92688W        W65756   4.692  26.486  10.609
92689W        W65757  16.059   4.818   4.058
92690W        W65758  12.553   6.947   2.879
92691W        W65759  25.961   8.567   4.266
92692W        W65760  26.608  38.958  11.216
92693W        W65761  15.329  39.580   0.857
92694W        W65762  32.184  34.771  10.652
92695W        W65763  20.807  30.707   1.391
92696W        W65764  37.006  34.524   1.857
92697W        W65765  25.124  42.569   0.711
92698W        W65766   7.237  14.809   3.871
92699W        W65767  19.976  36.261  11.638
92700W        W65768  38.793  22.316  11.047
92701W        W65769  23.484   7.760  10.499
92702W        W65770   9.751  16.764  14.358
92703W        W65771  12.075   0.561   0.640
92704W        W65772  35.936  27.747   0.705
92705W        W65773  25.916  25.252   1.948
92706W        W65774  34.422  19.502   1.496
92707W        W65775  43.476   0.905   1.434
92708W        W65776  34.151  37.018   4.233
92709W        W65777  28.644  16.572   3.657
92710W        W65778   4.357  36.221   4.767
92711W        W65779  15.651   9.195  12.829
92712W        W65780  12.781  28.511   4.086
92713W        W65781  24.822   3.772   2.839
92714W        W65782  32.501  34.357   3.672
92715W        W65783   7.561   8.232   3.720
92716W        W65784   1.360  20.995   0.507
92717W        W65785  21.345  26.967  11.370
92718W        W65786  41.382  27.195  13.127
92719W        W65787  31.590  21.010  13.374
92720W        W65788  33.887  11.972   4.097
92721W        W65789  43.619  14.162  11.245
92722W        W65790  32.450  30.464   4.003
92723W        W65791  43.394  40.388   4.607
92724W        W65792   5.224   3.620   1.232
92725W        W65793  13.247  37.936  13.393
92726W        W65794   5.732  25.680   1.172
92727W        W65795  20.968  39.914   4.131
92728W        W65796   8.349   8.079  11.213
92729W        W65797  43.242  29.393  14.836
92730W        W65798  15.671   2.997   3.368
92731W        W65799  32.014   8.633   4.589
92732W        W65800   2.885   6.868   2.575
92733W        W65801  14.231   3.743   3.755
92734W        W65802  43.849  38.781   1.618
92735W        W65803  42.965  16.824   1.409
92736W        W65804  26.037  39.524   5.100
92737W        W65805  44.480  29.542   3.125
92738W        W65806  14.728  31.339   2.374
92739W        W65807  14.836  22.022   0.675
92740W        W65808   8.694  13.159   4.893
92741W        W65809   9.283   6.546  12.022
92742W        W65810  25.341   8.157  13.420
92743W        W65811   0.825  17.140   3.711
92744W        W65812  21.615  37.823   0.884
92745W        W65813  43.505  42.511  14.720
92746W        W65814   4.098   3.742   0.972
92747W        W65815  41.019   4.705  13.948
92748W        W65816  44.858  38.104   2.374
92749W        W65817  11.352   7.671   4.272
92750W        W65818  28.618  31.497   2.125
92751W        W65819  44.999  19.301   0.363
92752W        W65820  14.919  17.597  13.963
92753W        W65821  32.886  23.168  13.935
92754W        W65822  39.813  21.299  13.040
92755W        W65823  28.273   3.839   1.160
92756W        W65824  25.018   4.844   3.024
92757W        W65825   9.190  43.970  12.051
92758W        W65826  27.144   8.000  12.028
92759W        W65827  24.675  28.503  14.335
92760W        W65828  34.174  18.212  10.908
92761W        W65829  32.438   9.805  14.290
92762W        W65830  38.615  21.991   3.211
92763W        W65831  31.238  37.901   3.222
92764W        W65832  35.957  15.774   3.906
92765W        W65833  29.899  39.300   0.382
92766W        W65834  35.952  42.023   4.220
92767W        W65835   3.174  13.289  12.955
92768W        W65836   6.812  14.908  11.410
92769W        W65837  37.428   0.820   3.252
92770W        W65838  43.436  34.661   0.513
92771W        W65839  12.612  17.506  14.917
92772W        W65840  14.436   7.424   2.392
92773W        W65841  23.097  16.783   1.539
92774W        W65842  17.395  28.960  13.413
92775W        W65843   7.733  12.456  13.969
92776W        W65844  35.377  35.243  14.019
92777W        W65845  26.056  14.203  12.531
92778W        W65846  43.933  41.508   0.994
92779W        W65847   2.652   7.837   0.461
92780W        W65848  38.154  26.844   5.143
92781W        W65849   0.754   8.292  10.226
92782W        W65850  40.033  33.047  12.440
92783W        W65851  42.318   0.415  10.895
92784W        W65852   6.039   6.362   5.364
92785W        W65853  13.208  27.861  13.775
92786W        W65854  28.295  13.210   4.130
92787W        W65855  26.798  11.159  10.706
92788W        W65856  43.541  24.721   0.239
92789W        W65857   3.789   3.742   1.424
92790W        W65858   9.561   4.891  14.542
92791W        W65859  22.784  44.231   3.585
92792W        W65860  27.502  30.012   0.826
92793W        W65861  15.053   2.519  13.319
92794W        W65862  27.132  34.927  13.860
92795W        W65863  20.479   7.279   1.301
92796W        W65864  15.571  29.902   1.756
92797W        W65865  39.380  31.608   1.401
92798W        W65866  44.418   7.118  12.097
92799W        W65867  31.469   7.221  12.122
92800W        W65868  20.545  33.339   2.672
92801W        W65869  12.486   3.186   3.432
92802W        W65870   3.437  12.551  13.514
92803W        W65871  27.663  26.454  14.966
92804W        W65872  34.994  19.778   4.065
92805W        W65873  28.254  30.407   0.038
92806W        W65874  37.902  15.209   1.172
92807W        W65875   0.009  38.480  12.204
92808W        W65876  32.955  35.270   2.505
92809W        W65877  20.715   7.301   3.100
92810W        W65878   9.759  40.990  12.883
92811W        W65879  25.613  24.092   3.295
92812W        W65880  22.308  33.819  11.611
92813W        W65881   4.175  33.998  13.488
92814W        W65882  40.543  37.535  12.070
92815W        W65883  37.777   0.789   2.854
92816W        W65884   4.631  40.241   2.785
92817W        W65885  18.670  37.092   2.303
92818W        W65886  28.259  16.189   2.895
92819W        W65887  41.715  20.759   0.488
92820W        W65888  37.877  10.892  10.704
92821W        W65889   1.824  27.762  13.899
92822W        W65890  39.957  25.109   1.741
92823W        W65891  39.553  13.314  14.816
92824W        W65892  27.745  36.988  11.616
92825W        W65893  22.030   1.022   3.368
92826W        W65894   1.400  11.308   1.816
92827W        W65895  12.757  24.023   2.676
92828W        W65896  44.767  26.774  10.274
92829W        W65897   4.493  21.183  11.142
92830W        W65898  12.665  12.355   1.752
92831W        W65899   6.248  42.275  13.826
92832W        W65900  31.058   0.443  14.391
92833W        W65901  36.647  29.932  13.029
92834W        W65902  20.475  35.805  11.082
92835W        W65903  36.555   6.298   0.714
92836W        W65904  43.965  19.224  14.432
92837W        W65905  24.914   1.494   4.851
92838W        W65906  29.230  37.981  12.052
92839W        W65907   3.500  19.076   4.512
92840W        W65908  40.796  25.463  11.171
92841W        W65909   9.831  35.441   4.179
92842W        W65910  10.007  31.767   3.090
92843W        W65911   0.620   0.671   4.234
92844W        W65912  38.625  42.436  13.907
92845W        W65913  27.448  39.024  12.452
92846W        W65914  34.923  13.734   1.836
92847W        W65915  10.763   2.230  13.512
92848W        W65916   8.263  24.729  13.377
92849W        W65917  40.937  12.388  12.042
92850W        W65918  12.581  13.137   4.604
92851W        W65919  17.806  11.383   1.145
92852W        W65920  27.649   8.622   1.345
92853W        W65921  41.820  37.035   1.814
92854W        W65922  13.425  18.003  14.306
92855W        W65923  12.555  16.615   2.285
92856W        W65924  32.009  34.602   3.604
92857W        W65925  18.654  23.902  10.060
92858W        W65926  39.509  28.195   0.181
92859W        W65927  44.274  38.574   3.768
92860W        W65928   2.465  21.475  11.170
92861W        W65929   3.245  37.308  12.724
92862W        W65930  10.427  24.713  12.014
92863W        W65931  29.213  19.941   0.650
92864W        W65932  22.214  13.346  10.763
92865W        W65933  17.550  29.493  13.831
92866W        W65934  12.597  25.520   2.252
92867W        W65935  40.402  26.102   2.595
92868W        W65936  33.684  38.010   0.197
92869W        W65937   3.411  30.513   0.293
92870W        W65938   6.822   9.177   1.350
92871W        W65939  28.561  24.296  14.929
92872W        W65940  30.530  42.435   0.598
92873W        W65941  42.328  27.704  12.049
92874W        W65942  28.052  11.765  10.744
92875W        W65943   7.001   4.130  13.690
92876W        W65944  14.248  29.905  14.025
92877W        W65945  30.156  33.338   0.403
92878W        W65946  22.583   6.179  14.732
92879W        W65947   4.788  18.177   0.821
92880W        W65948   6.999  39.359  11.342
92881W        W65949  12.036  43.764   0.072
92882W        W65950  11.939   6.355   1.622
92883W        W65951  14.112  15.164   1.227
92884W        W65952  10.595   6.764   3.200
92885W        W65953   6.466   5.072   2.820
92886W        W65954  15.028   0.323  11.242
92887W        W65955  31.454   3.972  11.254
92888W        W65956  20.350  23.033   4.225
92889W        W65957  13.663   4.823  14.801
92890W        W65958  29.995  23.124   3.918
92891W        W65959  11.830   6.143   0.176
92892W        W65960  14.223  41.990   2.769
92893W        W65961  28.058  38.332  14.767
92894W        W65962  27.243  15.932   2.282
92895W        W65963  25.795  10.235   0.593
92896W        W65964  35.975  20.767  10.504
92897W        W65965  29.168  14.707   4.823
92898W        W65966   4.827  26.957   1.278
92899W        W65967  30.725  37.799  13.839
92900W        W65968   4.430  29.020  13.502
92901W        W65969  10.493   4.648   9.691
92902W        W65970  11.370  39.294  10.609
92903W        W65971  31.116  35.590  12.249
92904W        W65972  10.278  36.051   4.683
92905W        W65973   0.001   1.038   3.711
92906W        W65974  44.256   0.898   4.675
92907W        W65975  42.495  14.473   5.279
92908W        W65976  43.368  12.443   1.610
92909W        W65977  32.350   6.395   3.773
92910W        W65978  19.629   4.493   3.683
92911W        W65979  32.831   7.582  14.796
92912W        W65980  10.740  15.754  14.526
92913W        W65981  24.986  43.321  11.613
92914W        W65982  14.223   0.041   3.535
92915W        W65983  36.882   0.208   2.753
92916W        W65984  34.536  43.966  10.739
92917W        W65985  29.145  36.653   0.646
92918W        W65986  23.241  29.587   1.231
92919W        W65987  14.536  23.550  13.042
92920W        W65988   9.531  33.059  10.797
92921W        W65989  14.592  13.701   4.251
92922W        W65990  10.074  16.525   2.804
92923W        W65991  18.586  12.770  13.073
92924W        W65992  22.166  37.066  10.739
92925W        W65993  28.448  18.114   1.031
92926W        W65994   5.286  41.986  11.101
92927W        W65995  36.602  32.416  11.984
92928W        W65996  31.097  44.189  13.830
92929W        W65997  19.164   9.619   2.806
92930W        W65998  42.950  28.144  13.360
92931W        W65999   5.219  15.493  11.023
92932W        W66000   7.789  19.646  14.206
92933W        W66001   6.876  17.716   3.621
92934W        W66002  16.746  33.759   0.364
92935W        W66003  24.971  24.583  11.126
92936W        W66004  35.308  18.794  12.893
92937W        W66005  41.249  31.608   2.921
92938W        W66006  44.012  10.745  12.874
92939W        W66007  12.639   9.130   4.568
92940W        W66008  11.785   0.697   1.235
92941W        W66009  29.542  23.557  12.241
92942W        W66010   9.848  31.075   2.730
92943W        W66011  36.019  40.342  13.521
92944W        W66012   8.765  29.622  14.569
92945W        W66013  12.922  11.036   1.845
92946W        W66014  37.563   4.244   3.641
92947W        W66015  42.807  35.345   0.927
92948W        W66016   1.275  29.262   1.198
92949W        W66017  32.344  15.662   4.166
92950W        W66018  10.700  35.431   4.196
92951W        W66019  37.616   4.306   2.735
92952W        W66020  32.724  36.271  13.491
92953W        W66021   1.975  42.038   0.464
92954W        W66022  38.049  21.948  12.098
92955W        W66023  33.606  36.089  12.000
92956W        W66024  33.021  18.042  14.976
92957W        W66025  42.556   2.677  14.801
92958W        W66026  34.416  40.226  12.491
92959W        W66027  29.378  26.130  13.498
92960W        W66028  11.413  44.370   1.296
92961W        W66029  29.056  27.426   2.022
92962W        W66030  33.546  19.439   3.700
92963W        W66031  38.560  16.942  12.233
92964W        W66032  30.318  12.924   0.914
92965W        W66033  28.143  15.396  12.492
92966W        W66034  40.840  24.758  10.415
92967W        W66035  27.379   1.989   4.155
92968W        W66036   3.813  32.077  10.168
92969W        W66037  35.200   8.086   2.894
92970W        W66038  32.368   6.450   2.845
92971W        W66039  26.150  24.145   0.790
92972W        W66040  30.150  27.039   3.161
92973W        W66041  30.672   4.520   2.749
92974W        W66042  39.784  35.677  11.200
92975W        W66043   6.411   4.700   0.523
92976W        W66044   2.133   5.471  14.739
92977W        W66045  26.697  12.175   1.359
92978W        W66046  14.760   4.895   4.296
92979W        W66047  21.323  33.379   0.318
92980W        W66048  42.984  39.882   4.489
92981W        W66049  16.989  32.890  11.359
92982W        W66050  36.343  27.192   1.732
92983W        W66051   7.489  18.235  13.914
92984W        W66052  14.164  43.470  11.469
92985W        W66053  39.847  40.562  13.020
92986W        W66054  23.951   4.491   4.818
92987W        W66055  12.363  18.940  12.500
92988W        W66056  33.744  28.918   1.748
92989W        W66057  24.528  37.307   0.896
92990W        W66058   7.370   2.143  11.638
92991W        W66059  39.938   7.402   2.886
92992W        W66060   1.998  23.553   3.691
92993W        W66061  31.958  30.536  10.950
92994W        W66062  30.731  40.810  14.865
92995W        W66063  19.214  44.913   3.336
92996W        W66064   6.210  10.753  12.943
92997W        W66065  15.179   4.398   2.757
92998W        W66066   0.357  27.696   0.291
92999W        W66067  16.574  12.683   4.518
93000W        W66068  29.658  11.335  11.227
93001W        W66069   6.853   8.706  14.461
93002W        W66070  31.002  15.066   1.419
93003W        W66071   6.912   2.170   0.573
93004W        W66072  19.858  21.703  11.603
93005W        W66073  25.729  26.716  12.871
93006W        W66074  43.373  25.749  13.749
93007W        W66075  17.788  23.714  14.925
93008W        W66076  22.060   0.519  10.162
93009W        W66077  23.078  41.398  10.410
93010W        W66078  43.285  37.797  10.499
93011W        W66079  20.507  39.023  11.826
93012W        W66080  11.292  14.587  10.632
93013W        W66081   4.481   1.857  11.628
93014W        W66082  30.550  19.906  12.968
93015W        W66083  40.066  41.579  13.089
93016W        W66084   0.228  35.499   4.489
93017W        W66085  29.506  17.010  12.899
93018W        W66086  28.642  23.780   2.343
93019W        W66087  37.929  22.080  13.509
93020W        W66088  42.870  24.808   4.588
93021W        W66089   9.733  43.395  12.979
93022W        W66090  10.575  16.564  12.849
93023W        W66091  32.101  10.222  12.705
93024W        W66092   0.478  41.703   2.912
93025W        W66093  28.940  36.872  14.335
93026W        W66094  43.990  37.122  12.346
93027W        W66095   8.426  40.700  11.570
93028W        W66096  43.826  15.508  11.559
93029W        W66097  19.550  30.618   4.839
93030W        W66098  22.808  15.687  11.901
93031W        W66099   8.311  35.467  12.395
93032W        W66100  19.540   9.172  12.094
93033W        W66101  41.368   6.901  11.320
93034W        W66102  16.861  28.920   3.728
93035W        W66103  23.417  15.876  10.531
93036W        W66104  31.469  24.072   4.647
93037W        W66105  43.435  18.145   3.384
93038W        W66106  34.836   2.276  12.882
93039W        W66107  33.546  25.631   4.613
93040W        W66108  17.772  32.410  12.908
93041W        W66109   4.740  26.153  11.504
93042W        W66110  38.518  32.445   0.373
93043W        W66111   4.920  31.893   2.447
93044W        W66112   4.762  12.573  10.205
93045W        W66113   3.002  33.136  14.492
93046W        W66114  19.030  21.167   2.280
93047W        W66115  16.110  12.199   3.020
93048W        W66116  10.450  35.287  13.941
93049W        W66117  29.235   0.229  14.967
93050W        W66118  21.927  18.692  14.312
93051W        W66119   3.426  30.969   3.758
93052W        W66120   6.742  18.355  14.453
93053W        W66121  14.124  13.715  14.215
93054W        W66122  12.829  20.167  14.182
93055W        W66123  14.197  22.676   0.975
93056W        W66124   5.859  21.785  10.720
93057W        W66125  35.460  30.567   3.715
93058W        W66126  28.310  21.970  11.674
93059W        W66127   1.332  29.038  13.515
93060W        W66128   5.143  22.335   4.513
93061W        W66129  38.282  43.334   2.693
93062W        W66130  26.127  17.206   4.333
93063W        W66131  11.565  24.876  13.513
93064W        W66132  27.471   7.722  13.758
93065W        W66133  26.603  40.739   4.001
93066W        W66134   6.292   7.894   0.424
93067W        W66135  31.045  27.241   0.843
93068W        W66136  37.427  19.277   1.747
93069W        W66137  10.593  42.002   2.899
93070W        W66138  41.763  20.061   0.686
93071W        W66139   3.695  16.603   4.565
93072W        W66140   7.235  22.274   0.340
93073W        W66141  17.591  30.042   1.366
93074W        W66142  17.529  19.457   2.830
93075W        W66143  12.553   3.719  10.963
93076W        W66144   8.479   6.270   2.868
93077W        W66145  30.096  34.620   4.891
93078W        W66146  11.718  16.777  13.831
93079W        W66147  37.933  42.985   0.267
93080W        W66148  13.047   0.707   2.839
93081W        W66149   5.379  16.778  10.680
93082W        W66150  26.392  35.349  14.471
93083W        W66151   2.755   3.380   3.190
93084W        W66152  44.899  12.994   3.168
93085W        W66153  10.230  28.007   4.705
93086W        W66154   5.753  32.588   3.701
93087W        W66155  38.068   5.670  14.570
93088W        W66156  40.449  32.847   3.333
93089W        W66157  35.846  21.602  11.528
93090W        W66158  21.998  31.514  14.993
93091W        W66159  44.049  21.131   3.854
93092W        W66160  41.014  17.044   0.258
93093W        W66161   3.942  17.738  11.846
93094W        W66162  43.484  15.858  13.894
93095W        W66163  41.337   2.940   1.919
93096W        W66164  11.605  18.500  12.994
93097W        W66165  19.663  26.954  14.903
93098W        W66166  41.630  37.679   0.263
93099W        W66167   0.097  37.780  14.499
93100W        W66168   1.860  24.196  12.651
93101W        W66169  22.531  26.485  12.102
93102W        W66170  14.420  35.858   0.322
93103W        W66171  12.295  42.785  11.344
93104W        W66172  29.282  36.555  12.361
93105W        W66173  10.654  27.108   0.841
93106W        W66174   8.777  35.835  13.926
93107W        W66175   8.211  21.307  10.721
93108W        W66176  11.552  19.574   1.318
93109W        W66177  23.146   5.959   4.057
93110W        W66178  15.999  10.673   3.534
93111W        W66179   3.718  33.777   2.373
93112W        W66180  18.881  21.778  14.353
93113W        W66181  16.451  15.978  10.247
93114W        W66182  41.989  27.156   4.160
93115W        W66183  27.986  27.223   4.076
93116W        W66184  25.111  12.390   0.273
93117W        W66185  33.837  17.548   4.164
93118W        W66186   7.420  24.204  12.215
93119W        W66187   9.965  23.964   2.904
93120W        W66188   3.854  27.952  13.053
93121W        W66189  30.119  12.837   2.617
93122W        W66190  32.460  21.748   2.412
93123W        W66191   1.797   9.165   3.188
93124W        W66192  23.754  17.788   4.529
93125W        W66193  20.842  27.565  13.448
93126W        W66194  39.076  30.056  14.023
93127W        W66195  24.217  26.502  10.662
93128W        W66196  34.593  21.354   2.250
93129W        W66197  33.493  37.455   2.677
93130W        W66198  16.049   7.734  13.411
93131W        W66199  28.952   8.757  13.057
93132W        W66200  10.622  38.453   1.326
93133W        W66201  16.384  10.359   3.667
93134W        W66202   0.234  24.029  13.004
93135W        W66203   4.007   4.799   4.413
93136W        W66204   9.808   1.474  10.429
93137W        W66205  32.744  28.986  12.411
93138W        W66206  10.697  40.914   3.149
93139W        W66207  43.135   8.200   1.313
93140W        W66208  11.222  10.591  10.978
93141W        W66209  32.468  37.800   4.867
93142W        W66210  39.260  10.578   4.207
93143W        W66211  21.207  33.210   9.961
93144W        W66212  21.493  25.485  12.520
93145W        W66213   4.648  25.838  12.454
93146W        W66214  22.585  16.274   0.172
93147W        W66215  10.293  27.034  10.570
93148W        W66216  40.562  23.671   2.386
93149W        W66217   8.411  39.486  13.910
93150W        W66218   6.453  19.347  14.159
93151W        W66219  44.340  41.959  13.415
93152W        W66220   1.369  22.253   3.608
93153W        W66221  38.879   5.980   3.697
93154W        W66222  28.599  16.996  13.893
93155W        W66223  22.094  15.398   4.016
93156W        W66224   5.202  37.853   0.420
93157W        W66225  42.424  37.810  14.563
93158W        W66226  17.142  11.744  12.910
93159W        W66227  21.372  42.412  13.993
93160W        W66228   0.910  31.451  11.645
93161W        W66229   9.597  17.027  13.918
93162W        W66230   8.793   6.653  14.559
93163W        W66231  34.039  16.604  10.822
93164W        W66232  28.706  19.554   2.130
93165W        W66233   8.567   4.812   3.255
93166W        W66234   1.670  41.965  12.029
93167W        W66235   2.073  12.573   2.356
93168W        W66236  16.354  40.518   0.754
93169W        W66237   0.992  11.141  12.310
93170W        W66238   0.391  36.439  13.756
93171W        W66239  35.981   2.991  10.725
93172W        W66240  38.871   2.883  14.097
93173W        W66241  38.049   0.981   2.466
93174W        W66242   4.134  29.887  13.879
93175W        W66243  43.332   6.638  13.336
93176W        W66244  15.057   1.940   0.429
93177W        W66245   6.320  17.269   3.203
93178W        W66246   6.259   0.511  11.853
93179W        W66247   2.156  17.271   4.622
93180W        W66248   4.702   8.685  13.881
93181W        W66249   0.289  18.227  13.041
93182W        W66250   5.816   3.511   1.937
93183W        W66251  35.048  16.806   2.243
93184W        W66252  41.500   7.688  12.037
93185W        W66253  18.482  18.699  10.683
93186W        W66254  26.319  24.618   1.221
93187W        W66255  35.456  24.749  12.073
93188W        W66256  13.267  31.717  13.428
93189W        W66257  38.987  34.427  12.738
93190W        W66258   6.960  24.335   3.951
93191W        W66259   2.328  15.083   3.726
93192W        W66260  37.944  16.014  12.770
93193W        W66261  17.246  18.326  11.490
93194W        W66262  26.771   7.134  11.203
93195W        W66263   0.210  21.093  10.714
93196W        W66264   1.944   4.749  12.030
93197W        W66265  34.554  20.026  11.006
93198W        W66266   2.446  31.372   3.891
93199W        W66267  16.202  27.677  10.444
93200W        W66268  17.259  21.301  13.828
93201W        W66269  31.427   6.776   2.851
93202W        W66270  35.104  19.601   0.670
93203W        W66271  23.215   8.209   4.902
93204W        W66272   3.470  28.326   2.912
93205W        W66273  37.422  30.142  13.516
93206W        W66274  40.342   2.777  14.308
93207W        W66275  15.769  44.348  11.557
93208W        W66276  22.735  33.210  13.391
93209W        W66277  42.035  34.398   3.746
93210W        W66278  32.071  29.090  10.760
93211W        W66279  17.830   1.830   3.943
93212W        W66280   9.872   8.889   2.929
93213W        W66281  43.593  12.780  14.019
93214W        W66282  31.452  34.204   4.527
93215W        W66283  12.792  17.369   1.822
93216W        W66284   8.716  25.217   2.323
93217W        W66285   2.104  40.905  14.288
93218W        W66286  19.274   6.847   4.122
93219W        W66287  33.600  18.165  14.569
93220W        W66288  16.826  26.547   2.813
93221W        W66289  42.293  44.158  14.367
93222W        W66290   1.216   1.408  10.831
93223W        W66291  16.265  13.543   3.788
93224W        W66292  29.158  19.256  12.326
93225W        W66293  23.568  34.361   1.346
93226W        W66294  26.602  11.852   4.555
93227W        W66295  25.108  42.697   1.789
93228W        W66296  32.006  32.044  11.582
93229W        W66297   1.200  33.186   4.559
93230W        W66298  14.543  27.370   4.344
93231W        W66299  37.685  24.604  14.047
93232W        W66300  44.062   9.668  11.183
93233W        W66301  12.814   7.867  14.285
93234W        W66302  35.004  30.240   4.172
93235W        W66303   5.787  33.440  14.363
93236W        W66304  23.866  10.664  12.048
93237W        W66305  42.940  23.799  11.061
93238W        W66306  41.893  20.699  12.083
93239W        W66307   6.694   9.900  13.307
93240W        W66308   3.688  33.559  12.003
93241W        W66309   6.766  20.379  13.340
93242W        W66310  18.103  20.953   0.968
93243W        W66311  22.742   1.669   3.684
93244W        W66312  33.768  33.144   2.132
93245W        W66313   6.319  25.429  12.755
93246W        W66314   0.751  38.165   0.720
93247W        W66315  30.946  25.148  13.901
93248W        W66316  37.466  44.253   3.135
93249W        W66317  24.245   6.409  11.152
93250W        W66318  25.974  28.251   0.844
93251W        W66319   2.465   9.757   3.395
93252W        W66320  20.054  19.150  11.914
93253W        W66321  36.982   5.703   3.302
93254W        W66322  18.378  35.876   1.397
93255W        W66323  11.705  32.007   1.227
93256W        W66324  26.063  35.011  12.878
93257W        W66325   6.619  39.567   3.527
93258W        W66326  13.967  29.953   2.430
93259W        W66327  33.010  29.743  13.370
93260W        W66328   4.176   8.806  10.273
93261W        W66329  39.977  15.351  12.109
93262W        W66330  13.046  12.258   4.698
93263W        W66331  44.759  10.620  14.597
93264W        W66332  16.318   2.051   1.673
93265W        W66333  43.971   0.426  11.923
93266W        W66334  39.393  34.244  14.283
93267W        W66335  32.659  39.084   0.420
93268W        W66336  23.100  13.339  12.799
93269W        W66337  21.590   2.679   4.723
93270W        W66338  25.306   2.979  11.053
93271W        W66339  16.828  38.337   1.492
93272W        W66340  39.617   6.221  12.965
93273W        W66341   7.571  17.650  12.442
93274W        W66342  31.887  16.312   2.422
93275W        W66343  35.411  28.609   0.669
93276W        W66344  26.419   1.016  10.762
93277W        W66345  40.243  19.841  13.874
93278W        W66346   3.017  12.440  12.421
93279W        W66347  11.740  19.513  14.988
93280W        W66348  21.791  18.605   2.724
93281W        W66349  11.742  22.156  10.646
93282W        W66350   9.782  29.996   1.904
93283W        W66351  24.056   1.607   2.674
93284W        W66352  41.705  15.637  11.840
93285W        W66353  28.636   8.825   2.841
93286W        W66354  19.011  15.103   3.788
93287W        W66355   8.132   7.470  12.468
93288W        W66356  34.360  15.771   0.962
93289W        W66357  18.867  16.580  10.590
93290W        W66358  25.156  11.852   0.331
93291W        W66359   2.731  25.201  10.840
93292W        W66360  22.913  13.855   4.464
93293W        W66361  11.787  10.828   0.885
93294W        W66362  42.254  23.588   2.609
93295W        W66363  26.978  11.320   0.211
93296W        W66364  15.284  42.013   0.717
93297W        W66365  34.535  42.989   2.712
93298W        W66366  26.684  22.263   2.876
93299W        W66367  42.594  19.593  10.845
93300W        W66368  30.002  40.439  14.071
93301W        W66369   1.178  19.013  13.923
93302W        W66370  23.093  42.325   2.379
93303W        W66371   4.711  26.141  10.997
93304W        W66372  13.640  34.353   0.383
93305W        W66373  14.385  29.012   3.061
93306W        W66374  15.671  26.353  13.952
93307W        W66375  42.006  28.288  11.645
93308W        W66376  22.627   8.116   1.327
93309W        W66377   2.037  31.454  14.023
93310W        W66378   2.170  41.938  10.734
93311W        W66379  40.335  10.985   2.298
93312W        W66380  21.049  26.761   1.233
93313W        W66381   7.798  17.665   2.194
93314W        W66382   0.906  37.202   2.398
93315W        W66383  14.095   0.885  12.297
93316W        W66384  10.418  43.333  14.442
93317W        W66385  29.851   4.609   4.447
93318W        W66386  39.598  24.202  13.900
93319W        W66387  20.868   3.361  14.964
93320W        W66388  14.733  18.823   2.266
93321W        W66389  40.730  11.699  12.443
93322W        W66390  19.232  28.081  12.251
93323W        W66391  36.822  42.778   0.213
93324W        W66392  11.607  14.283   0.859
93325W        W66393  31.415  38.363   4.698
93326W        W66394  40.831  19.153  14.755
93327W        W66395  43.394  37.051   0.178
93328W        W66396  11.467  33.172  12.371
93329W        W66397  22.661   0.882   4.384
93330W        W66398  12.637   1.380   3.330
93331W        W66399  11.377  19.983  12.654
93332W        W66400  43.453  27.114   2.539
93333W        W66401  23.954  34.547  13.567
93334W        W66402  20.293  31.663   1.221
93335W        W66403  22.561   6.885   4.394
93336W        W66404   0.876  23.415  11.161
93337W        W66405  24.952  26.409   2.360
93338W        W66406  36.416  41.486  14.953
93339W        W66407   3.727  21.033   4.517
93340W        W66408  26.448  24.428  12.958
93341W        W66409  28.259   0.486   3.801
93342W        W66410  15.566  23.635  12.926
93343W        W66411  40.396  28.389  11.924
93344W        W66412  14.313  26.922   0.504
93345W        W66413   6.632  38.961  13.332
93346W        W66414   5.959  44.911   1.845
93347W        W66415  10.254  27.304  11.046
93348W        W66416  31.964   9.418  13.857
93349W        W66417  34.496  22.663   0.268
93350W        W66418  16.627  18.590   1.334
93351W        W66419   4.116  41.447  13.870
93352W        W66420  20.128  38.064   1.008
93353W        W66421   1.739   3.932  12.951
93354W        W66422  15.179   1.650   2.486
93355W        W66423  22.052  34.539   3.944
93356W        W66424  23.712  37.148   0.513
93357W        W66425  23.982  28.079   0.444
93358W        W66426  17.952   4.341   2.448
93359W        W66427  22.107  16.802  12.979
93360W        W66428  28.593   6.290  13.907
93361W        W66429  30.856  35.096  13.761
93362W        W66430   5.651  41.333   0.739
93363W        W66431  38.602   8.605   0.327
93364W        W66432  27.576  17.177  12.138
93365W        W66433  34.922  42.757  13.988
93366W        W66434  33.627  38.821   4.524
93367W        W66435  23.388  17.480   1.252
93368W        W66436   2.370  33.442   4.554
93369W        W66437   6.695  34.896   0.907
93370W        W66438  37.051   0.646  12.826
93371W        W66439  21.112   1.013   4.947
93372W        W66440  30.217   7.307   0.384
93373W        W66441  34.348  30.690   4.568
93374W        W66442  31.982   4.457  10.718
93375W        W66443  24.170  17.567   4.752
93376W        W66444  36.945  35.987   2.466
93377W        W66445  26.479  22.514  12.577
93378W        W66446  39.776  41.213  11.910
93379W        W66447   7.375  17.795   3.327
93380W        W66448  35.351  43.302  14.769
93381W        W66449  26.243  37.132   1.239
93382W        W66450  24.119  20.208   5.410
93383W        W66451   2.762   2.979  10.725
93384W        W66452  44.009  32.463  14.473
93385W        W66453  28.011  10.928   4.588
93386W        W66454  31.457  28.753  13.222
93387W        W66455  15.354  42.769  11.578
93388W        W66456   7.294  16.835   2.251
93389W        W66457  41.826   2.407   3.544
93390W        W66458  43.545  16.211  14.312
93391W        W66459  21.224  21.540   2.200
93392W        W66460  15.111  40.069  11.357
93393W        W66461  12.731  20.772   1.331
93394W        W66462  21.114  30.018  12.199
93395W        W66463  14.843   8.865  11.030
93396W        W66464  32.899  29.374  14.296
93397W        W66465  28.596  28.344   4.714
93398W        W66466  43.511  39.403   2.263
93399W        W66467  42.978  43.331   0.463
93400W        W66468  43.735  18.753  11.145
93401W        W66469   4.597  21.995   3.146
93402W        W66470  19.739  15.347   1.466
93403W        W66471  14.726  31.180  12.638
93404W        W66472  38.304  11.364   0.676
93405W        W66473  25.511  41.080   1.409
93406W        W66474  31.376  19.114  12.641
93407W        W66475  24.026   0.823   3.347
93408W        W66476  24.529  40.515  13.871
93409W        W66477  44.833  40.347   0.987
93410W        W66478   6.669  26.944   3.552
93411W        W66479  12.736  28.976   0.520
93412W        W66480   5.957  10.582   3.186
93413W        W66481  17.946  44.031   0.850
93414W        W66482  14.113  42.749  11.102
93415W        W66483   3.972  19.734   4.134
93416W        W66484  12.448   7.891  12.971
93417W        W66485   2.367  38.132  14.943
93418W        W66486  34.085  19.611  14.107
93419W        W66487  37.847  39.951  10.239
93420W        W66488  22.203  34.719  12.871
93421W        W66489  34.855  19.322  13.386
93422W        W66490  35.629  31.830   0.474
93423W        W66491  32.043  34.116   3.804
93424W        W66492  34.456   7.642   4.308
93425W        W66493   1.515  27.982   1.646
93426W        W66494  41.995  22.637   1.306
93427W        W66495  34.096  35.030  10.623
93428W        W66496  44.472  41.373   3.897
93429W        W66497  37.492   5.190   0.670
93430W        W66498  36.500   6.390   2.718
93431W        W66499  22.567  30.969   0.514
93432W        W66500  44.876  15.960   2.619
93433W        W66501  32.004  19.640   1.492
93434W        W66502  42.774  36.660  13.448
93435W        W66503  17.688  40.310  14.437
93436W        W66504  10.086  28.022   3.804
93437W        W66505  31.369   8.724   1.899
93438W        W66506  36.460   4.513  13.383
93439W        W66507   9.830  23.021  11.163
93440W        W66508  35.399  36.403  13.096
93441W        W66509  35.902  34.425   4.316
93442W        W66510  26.045   7.213   0.445
93443W        W66511  20.923  43.569  12.867
93444W        W66512  33.008  35.561   4.763
93445W        W66513  18.234   8.784   2.171
93446W        W66514  15.406  11.339   2.956
93447W        W66515  25.071   0.962  10.653
93448W        W66516   3.232   3.195  10.611
93449W        W66517  12.693  20.141  11.798
93450W        W66518   2.482  36.853   4.207
93451W        W66519  13.337   7.454   5.125
93452W        W66520  25.091  33.546  11.820
93453W        W66521  36.615  20.638   4.602
93454W        W66522   3.223  18.774   4.163
93455W        W66523  31.964  38.099  13.933
93456W        W66524  34.500   9.620   3.207
93457W        W66525   7.726  26.013   0.178
93458W        W66526  11.617  18.762  10.444
93459W        W66527  42.531  40.275  12.603
93460W        W66528  15.175  12.322   0.769
93461W        W66529  18.723  12.022   2.212
93462W        W66530  16.316  37.614   3.161
93463W        W66531   8.618  40.430   1.057
93464W        W66532  12.004   7.053  11.193
93465W        W66533  16.060  10.053   0.294
93466W        W66534  13.647  15.286  14.753
93467W        W66535  36.965  36.475   4.096
93468W        W66536  13.101  16.117   4.533
93469W        W66537  12.401   5.852   3.715
93470W        W66538  42.258  33.961   0.408
93471W        W66539  19.842  32.306   5.113
93472W        W66540  22.153  26.525   3.549
93473W        W66541  28.015  11.945  10.243
93474W        W66542   6.986  40.997  13.881
93475W        W66543  25.227   1.977  13.326
93476W        W66544  40.508  33.493  13.536
93477W        W66545  15.803   5.390  13.978
93478W        W66546   5.159  38.809   0.346
93479W        W66547  42.089  40.578   2.841
93480W        W66548  24.566  20.954   1.248
93481W        W66549  36.860  17.827  12.578
93482W        W66550  13.875  20.872   3.685
93483W        W66551  17.995  19.578   3.795
93484W        W66552  21.891  27.935   3.051
93485W        W66553  24.190   3.911   3.092
93486W        W66554  11.604  15.363   1.736
93487W        W66555  20.548  12.678  12.722
93488W        W66556   8.781  39.928   1.189
93489W        W66557  17.607  34.560  13.731
93490W        W66558   4.912  40.970  12.295
93491W        W66559  27.929  41.932   2.744
93492W        W66560   8.644  31.205   2.342
93493W        W66561  23.638  17.747   5.056
93494W        W66562  14.637   7.706   0.663
93495W        W66563  36.796  30.575   2.356
93496W        W66564   2.768  32.219  11.241
93497W        W66565  41.390  29.417  12.788
93498W        W66566   3.159  29.183   3.208
93499W        W66567  27.266  18.743  11.214
93500W        W66568  19.664   3.932   1.206
93501W        W66569  22.452   0.791   9.838
93502W        W66570   7.302  18.795   4.116
93503W        W66571  43.033   2.416  10.773
93504W        W66572  20.993   1.067   5.441
93505W        W66573  31.595  37.622  13.506
93506W        W66574  39.879  35.283  12.957
93507W        W66575  17.620  22.020   2.380
93508W        W66576  38.908  37.321   2.778
93509W        W66577  26.019  11.497  14.787
93510W        W66578   2.065  39.806   2.098
93511W        W66579  30.626   4.822  13.053
93512W        W66580  19.435  32.116  11.677
93513W        W66581  22.735   2.071   1.844
93514W        W66582  18.741   9.633  14.461
93515W        W66583  17.381  26.579  10.914
93516W        W66584  41.565   6.223   3.311
93517W        W66585  28.235  25.545  13.808
93518W        W66586  39.993  13.642   4.241
93519W        W66587   1.095  26.386   2.208
93520W        W66588  42.266  20.742   3.621
93521W        W66589  27.192  44.461  12.034
93522W        W66590  39.077  26.198   1.361
93523W        W66591  40.497  13.447   1.654
93524W        W66592  26.650   2.424  13.878
93525W        W66593  34.028   3.902   0.999
93526W        W66594  24.748  12.168  10.731
93527W        W66595  44.598   5.695   0.753
93528W        W66596  37.328  39.507   4.651
93529W        W66597  13.807   5.829   4.597
93530W        W66598  10.631  41.081  11.967
93531W        W66599  42.018  19.739  14.745
93532W        W66600  10.772  39.572  12.815
93533W        W66601  11.696   1.713   1.332
93534W        W66602   7.155  22.172  12.448
93535W        W66603  36.283  44.353   1.814
93536W        W66604  39.204  10.936  10.668
93537W        W66605   3.802   2.680  12.421
93538W        W66606  29.100  24.619   1.571
93539W        W66607  23.637  20.029   3.838
93540W        W66608  10.374  44.758   0.468
93541W        W66609  32.479  13.126   1.142
93542W        W66610   6.790  39.209  11.802
93543W        W66611  21.086   6.972  13.587
93544W        W66612  32.580  15.063   3.258
93545W        W66613  43.299  24.634  12.952
93546W        W66614  28.465  41.838  11.180
93547W        W66615  14.769  35.639   4.168
93548W        W66616  43.811  19.266  11.175
93549W        W66617  13.403  27.025  12.012
93550W        W66618  37.020  42.325  12.864
93551W        W66619  10.756  42.349  12.161
93552W        W66620   9.899  36.909  12.832
93553W        W66621  43.711  44.918   2.314
93554W        W66622  37.309  34.164  11.895
93555W        W66623   1.895  19.201   3.745
93556W        W66624  17.065  36.558  10.325
93557W        W66625  22.656   0.369   3.177
93558W        W66626  27.213  14.693  14.426
93559W        W66627  37.329  27.697  10.063
93560W        W66628  32.596  21.394  13.765
93561W        W66629  41.277  21.653   2.636
93562W        W66630  15.689   7.212   4.732
93563W        W66631  14.858  13.596   1.867
93564W        W66632   4.854   4.147  12.534
93565W        W66633  35.852  19.047  14.234
93566W        W66634  25.593  22.025  13.516
93567W        W66635  28.673  20.221   4.742
93568W        W66636  18.715  27.680  14.824
93569W        W66637  40.236   6.694   3.832
93570W        W66638  26.890   6.184  14.425
93571W        W66639  17.733  28.079   0.040
93572W        W66640  36.222  17.953   0.251
93573W        W66641  43.561  32.855  13.747
93574W        W66642   8.613  32.794  12.031
93575W        W66643   0.737  36.269   2.927
93576W        W66644   7.354  15.199   4.554
93577W        W66645  19.650  31.544   0.853
93578W        W66646  16.248  36.079   1.924
93579W        W66647   8.764  33.175   2.179
93580W        W66648  42.780   7.678  14.007
93581W        W66649  42.533  35.420   0.233
93582W        W66650  38.890  39.904   0.837
93583W        W66651  41.318  27.341  14.030
93584W        W66652   8.666  43.686  11.273
93585W        W66653  27.233  22.328   1.675
93586W        W66654  14.248  33.648   1.761
93587W        W66655  23.978  34.735  14.412
93588W        W66656  33.184   7.544  14.051
93589W        W66657  43.694  17.263   3.676
93590W        W66658  15.689  13.387  13.458
93591W        W66659  42.323   8.493  14.267
93592W        W66660  10.303  25.079  13.852
93593W        W66661  17.335   6.852  10.929
93594W        W66662  44.286  26.138   3.287
93595W        W66663  11.238   9.374   3.370
93596W        W66664   8.320  41.361  10.718
93597W        W66665  19.849  42.827   5.252
93598W        W66666  18.652   4.693   3.762
93599W        W66667  37.996  28.590   0.482
93600W        W66668  38.741  12.411  13.577
93601W        W66669  12.254  42.062   2.772
93602W        W66670  22.817   4.246   1.338
93603W        W66671  35.170  34.551   3.714
93604W        W66672   7.179  12.609   3.433
93605W        W66673  13.095   2.679  13.873
93606W        W66674  36.661  37.872  14.395
93607W        W66675  15.822  38.630   3.668
93608W        W66676  10.647  30.349  13.716
93609W        W66677  41.247  11.050  12.882
93610W        W66678  16.573  30.487   4.376
93611W        W66679  10.878  23.115   2.665
93612W        W66680  38.787  31.095   0.864
93613W        W66681  41.429  37.992  11.590
93614W        W66682  41.373   5.592  14.964
93615W        W66683  27.067  21.790  14.485
93616W        W66684  29.647  15.290   3.615
93617W        W66685   9.119  44.764   3.905
93618W        W66686  20.796  13.476  12.376
93619W        W66687  32.092  41.801   2.485
93620W        W66688  16.841   2.021   2.345
93621W        W66689  21.132  38.363   0.446
93622W        W66690  17.530  13.113   4.190
93623W        W66691  27.929  29.233   1.410
93624W        W66692  27.701  40.844  13.386
93625W        W66693  11.290  39.823  14.895
93626W        W66694  42.060  25.981   4.799
93627W        W66695  32.008   0.448  14.405
93628W        W66696   8.630  25.491   3.256
93629W        W66697  27.781  13.190   4.195
93630W        W66698  42.295   2.301   3.791
93631W        W66699   7.245  32.577  13.104
93632W        W66700  29.494  11.947  13.021
93633W        W66701  36.412  14.915   0.755
93634W        W66702  10.158  44.129   5.060
93635W        W66703  16.363   8.197   1.381
93636W        W66704  42.406  38.410   4.563
93637W        W66705  34.678  13.018  12.850
93638W        W66706  36.805  18.864   4.173
93639W        W66707  39.760  27.905  10.855
93640W        W66708   1.163  22.057  12.584
93641W        W66709  35.663  33.957   2.170
93642W        W66710  28.210  27.080  13.885
93643W        W66711  11.750   4.186   2.873
93644W        W66712   9.150   1.068   3.013
93645W        W66713  17.786  34.561   1.908
93646W        W66714  27.914  41.462   4.530
93647W        W66715  43.706  14.155  14.838
93648W        W66716  17.209  21.724   2.845
93649W        W66717  37.635   1.408  12.469
93650W        W66718  22.112  42.405   0.187
93651W        W66719  29.904  40.251   4.127
93652W        W66720  25.052   8.388   2.745
93653W        W66721  29.197  22.752  10.654
93654W        W66722  15.193  42.274  13.038
93655W        W66723  28.459  19.723   2.584
93656W        W66724  25.968  34.299   1.362
93657W        W66725  22.743   2.032   2.797
93658W        W66726  23.660  11.292   3.746
93659W        W66727   2.959  13.126   1.391
93660W        W66728  12.135  38.036   1.365
93661W        W66729  40.375  30.031  13.325
93662W        W66730  11.991   6.387   2.224
93663W        W66731  14.766  12.378  10.190
93664W        W66732  10.136   5.782   3.136
93665W        W66733   4.504  18.686   0.911
93666W        W66734  34.860   9.294  14.283
93667W        W66735  17.018  26.673   0.305
93668W        W66736  29.516   2.981  14.982
93669W        W66737   7.784   0.401   3.035
93670W        W66738  12.891  17.690  13.912
93671W        W66739   0.580  13.869  14.426
93672W        W66740  44.465  43.955   1.203
93673W        W66741  41.077  29.619   1.228
93674W        W66742  17.327  40.892  12.861
93675W        W66743  40.097  28.637  14.363
93676W        W66744  38.381  23.655   0.291
93677W        W66745  25.441  16.387  12.036
93678W        W66746  30.665  12.233   4.605
93679W        W66747  22.494  37.401   1.181
93680W        W66748   3.198  19.603   3.711
93681W        W66749  32.507   0.248  14.719
93682W        W66750  17.790  25.732   1.757
93683W        W66751  19.312  40.745  10.674
93684W        W66752  25.509  33.155   4.065
93685W        W66753  38.298  29.238  11.160
93686W        W66754   7.091  25.680   4.100
93687W        W66755  15.068  43.315  14.818
93688W        W66756  36.475   1.187  12.821
93689W        W66757  39.289  14.222   3.315
93690W        W66758   3.402  21.547  13.566
93691W        W66759  20.549  10.387  13.958
93692W        W66760  43.332   8.468   1.744
93693W        W66761  33.418  25.731   2.364
93694W        W66762   8.661   0.866  12.850
93695W        W66763   6.768  12.842   1.130
93696W        W66764  19.140  42.021   3.270
93697W        W66765  44.765  42.003  13.726
93698W        W66766   9.753   6.307   4.634
93699W        W66767   8.837  27.615   4.657
93700W        W66768  21.124  25.928   2.248
93701W        W66769  39.355  27.755  11.436
93702W        W66770   0.965  33.330  12.524
93703W        W66771  39.473  14.587  11.718
93704W        W66772   3.695  35.456  13.072
93705W        W66773  39.082  30.948  14.709
93706W        W66774  31.422   3.792   0.856
93707W        W66775  12.500  29.499   2.802
93708W        W66776  32.021  39.735   0.955
93709W        W66777  30.572  28.914  13.349
93710W        W66778  15.740  32.367  11.734
93711W        W66779  24.320  28.563  13.598
93712W        W66780  26.667   9.230  10.747
93713W        W66781  26.899   1.883  10.833
93714W        W66782  26.710  38.405  10.679
93715W        W66783  31.563  16.855  14.114
93716W        W66784  33.624  38.948   1.518
93717W        W66785  41.463  39.186   1.147
93718W        W66786  16.488  31.782   2.582
93719W        W66787  43.920  20.031  10.762
93720W        W66788  10.297   5.299   2.446
93721W        W66789   9.607  28.175   3.916
93722W        W66790   4.110   3.551  14.010
93723W        W66791  18.561  27.868   1.659
93724W        W66792  12.457   3.417  10.558
93725W        W66793  13.475  27.416   1.343
93726W        W66794  31.076  29.870  10.742
93727W        W66795   2.178  39.396  13.024
93728W        W66796  44.869  37.316   4.726
93729W        W66797  42.064   6.293   3.235
93730W        W66798  14.402  30.532  11.973
93731W        W66799  28.454   6.345   1.188
93732W        W66800  40.879  34.673   2.031
93733W        W66801  21.279  20.208   3.335
93734W        W66802  35.983  44.873  11.226
93735W        W66803  13.662  36.907  12.594
93736W        W66804  11.678  28.100   2.633
93737W        W66805  42.316  18.499  12.889
93738W        W66806  37.966  19.175   0.757
93739W        W66807  27.553  35.949   3.304
93740W        W66808  10.313  14.621   1.975
93741W        W66809   4.928   8.272   0.032
93742W        W66810   8.833   4.258  12.570
93743W        W66811  21.588  10.466   4.531
93744W        W66812  36.308   6.320   3.179
93745W        W66813  20.765   9.413  13.801
93746W        W66814   0.085  17.663   4.672
93747W        W66815   9.316   1.288  12.160
93748W        W66816  33.105  17.050   4.442
93749W        W66817   8.194   9.274   0.916
93750W        W66818  23.062   5.670   1.509
93751W        W66819  20.655  41.468   2.639
93752W        W66820  37.183   7.981   3.283
93753W        W66821  16.601  13.820  13.917
93754W        W66822  25.176  16.288   4.685
93755W        W66823   7.645  36.985   0.891
93756W        W66824   0.358  32.048  12.665
93757W        W66825  20.418  11.212   2.413
93758W        W66826  30.608  21.619   4.268
93759W        W66827   3.636   7.204   4.567
93760W        W66828   1.008  18.806  11.605
93761W        W66829  41.306  17.332   3.759
93762W        W66830  34.159  29.234   4.340
93763W        W66831  32.037  25.017   3.735
93764W        W66832  25.497  41.835  10.313
93765W        W66833   2.417  43.744  11.690
93766W        W66834   9.714  38.346  13.375
93767W        W66835  23.715  41.789   3.797
93768W        W66836  19.844  23.023   4.209
93769W        W66837  20.546   8.092  14.418
93770W        W66838  19.833   0.462   3.939
93771W        W66839  32.145  42.306   1.748
93772W        W66840  30.782   2.753   4.149
93773W        W66841  14.262  23.883  10.380
93774W        W66842  18.221   7.512   1.353
93775W        W66843   7.225  30.978   0.657
93776W        W66844  36.909  14.891   1.427
93777W        W66845  16.062  13.183  10.649
93778W        W66846  35.971   6.171  10.698
93779W        W66847  23.259   3.014   3.640
93780W        W66848  22.254   0.852   1.480
93781W        W66849   3.531   4.123   3.781
93782W        W66850   4.883   9.266  14.760
93783W        W66851  25.024  30.121   2.816
93784W        W66852   1.420  24.835  13.047
93785W        W66853   1.529  39.362  14.755
93786W        W66854  35.731   1.410  11.165
93787W        W66855  18.693  39.140   4.129
93788W        W66856  16.294  31.917  10.669
93789W        W66857   1.204  24.477  11.648
93790W        W66858  11.555  31.375   2.436
93791W        W66859   0.091  40.012  10.752
93792W        W66860  15.681  38.937   2.385
93793W        W66861  30.315  10.413  12.146
93794W        W66862   8.992  42.068   9.745
93795W        W66863  27.485  18.060   0.354
93796W        W66864   7.444  34.029   1.138
93797W        W66865  19.986  21.518   0.198
93798W        W66866  22.081  10.779   4.151
93799W        W66867  11.393   9.845   1.183
93800W        W66868   4.195  25.973  11.123
93801W        W66869  24.744   2.334  14.012
93802W        W66870  10.640  26.932  13.912
93803W        W66871  22.045   2.686  14.780
93804W        W66872   6.642  17.843  12.909
93805W        W66873  33.376  13.611   2.799
93806W        W66874  26.006  19.585  14.469
93807W        W66875  42.283  24.768  12.918
93808W        W66876  18.823  20.275   1.277
93809W        W66877  39.925  26.687   3.724
93810W        W66878  23.234  10.370  14.277
93811W        W66879  42.256  39.467   0.904
93812W        W66880  35.228  29.117   1.590
93813W        W66881  31.902  23.313  11.913
93814W        W66882  31.174  17.855   2.225
93815W        W66883  29.551  33.091  10.828
93816W        W66884  38.317   1.762  12.601
93817W        W66885  39.361  14.146  11.230
93818W        W66886  32.366  19.832  12.010
93819W        W66887  34.539   2.472  14.722
93820W        W66888  27.537  23.673   4.200
93821W        W66889  39.457   7.175  10.227
93822W        W66890  43.768  30.408   0.486
93823W        W66891   1.925  17.735   4.824
93824W        W66892  18.769  34.058   3.839
93825W        W66893  34.976   8.811  14.382
93826W        W66894   0.496  38.456   2.878
93827W        W66895  32.882  36.561   3.275
93828W        W66896  31.875  21.671   3.266
93829W        W66897   4.913  36.018  13.489
93830W        W66898  27.160  15.771   0.416
93831W        W66899  25.127   4.018   4.454
93832W        W66900  15.057  31.097  10.784
93833W        W66901  10.636  12.710   0.143
93834W        W66902  40.780  11.609  11.522
93835W        W66903  35.920  33.953  11.726
93836W        W66904  10.610  13.671  11.095
93837W        W66905  23.182   9.901   1.408
93838W        W66906  18.531  37.393   9.984
93839W        W66907   9.400   1.628   1.087
93840W        W66908  33.416  22.705   4.148
93841W        W66909  22.071  12.195   4.574
93842W        W66910   9.065  16.553   2.892
93843W        W66911  36.025  25.692   0.414
93844W        W66912   1.725  23.635   4.143
93845W        W66913   7.638  14.618   0.018
93846W        W66914  24.170  36.923   0.829
93847W        W66915   1.514  25.949  11.457
93848W        W66916  40.928   5.576  12.771
93849W        W66917   7.422  33.442   0.964
93850W        W66918  32.870   2.782   1.705
93851W        W66919  33.906  25.669  10.884
93852W        W66920  14.253  34.961   0.311
93853W        W66921  25.826   8.141  11.536
93854W        W66922  30.478  17.238  10.661
93855W        W66923  25.659  12.775   4.612
93856W        W66924  24.295  40.768  10.649
93857W        W66925  16.277  16.231   1.247
93858W        W66926   4.961  28.927  10.969
93859W        W66927   0.490  32.802   2.820
93860W        W66928  31.754  31.326  11.667
93861W        W66929  16.005  22.175   4.330
93862W        W66930   5.252   7.665   4.288
93863W        W66931  31.573  44.801  10.578
93864W        W66932  34.365   3.368  14.795
93865W        W66933   8.282  20.235   0.007
93866W        W66934  12.595  25.878   1.884
93867W        W66935  40.476  32.536  11.076
93868W        W66936  23.564  32.107  13.441
93869W        W66937  25.157   2.487  11.067
93870W        W66938  18.900  40.780   3.730
93871W        W66939   0.885  28.181   3.778
93872W        W66940  23.633  22.761   3.233
93873W        W66941   9.388  37.091   3.190
93874W        W66942  39.448  41.297   1.911
93875W        W66943   9.984   4.989  12.383
93876W        W66944   3.875  39.866   4.720
93877W        W66945  26.099  10.033   9.715
93878W        W66946  10.407  31.412   4.129
93879W        W66947  43.428  29.155  14.051
93880W        W66948  42.564  31.754  10.104
93881W        W66949  44.687  35.603   3.235
93882W        W66950  12.578   1.521   3.848
93883W        W66951  21.642  37.114   2.244
93884W        W66952  24.980  25.446  14.565
93885W        W66953   6.733  37.681   1.018
93886W        W66954  32.323  26.117   2.294
93887W        W66955  21.179   6.307   3.238
93888W        W66956  13.268   7.373  13.855
93889W        W66957  32.955  41.393  10.364
93890W        W66958   4.671  18.111   3.169
93891W        W66959  22.749  21.113   1.955
93892W        W66960  31.525  30.796  12.615
93893W        W66961   1.371  33.658   1.033
93894W        W66962  31.892  17.228   0.902
93895W        W66963  20.054  21.129   1.407
93896W        W66964   0.989  39.176  13.872
93897W        W66965  24.630  11.105   1.417
93898W        W66966   6.566  35.076   1.411
93899W        W66967  19.269   1.159  12.104
93900W        W66968  25.445   0.612  12.463
93901W        W66969   0.876  24.393  10.876
93902W        W66970  21.702  37.885  10.783
93903W        W66971   7.794  29.200   2.237
93904W        W66972   3.920  18.656  14.823
93905W        W66973   4.790  15.391   3.924
93906W        W66974  11.378  22.547  13.624
93907W        W66975  44.016   0.280   2.107
93908W        W66976  18.680  14.312   4.175
93909W        W66977  16.203  31.157  13.685
93910W        W66978  30.212  37.970  13.720
93911W        W66979  31.531  10.728   3.162
93912W        W66980  38.574   4.395   3.718
93913W        W66981  31.831  40.473   3.210
93914W        W66982  24.270  22.157  14.330
93915W        W66983  35.432  43.538   3.732
93916W        W66984  17.083  20.184   2.378
93917W        W66985  39.392   1.652  10.655
93918W        W66986  34.333  23.680  11.688
93919W        W66987  44.618   8.474   3.414
93920W        W66988  21.857   6.835   1.418
93921W        W66989   5.416  21.696  12.972
93922W        W66990  13.308  35.622  11.608
93923W        W66991   4.745  23.104   1.921
93924W        W66992  31.203   7.350   4.603
93925W        W66993  41.736  11.588   0.429
93926W        W66994  16.095  42.140   1.745
93927W        W66995   0.246   0.715   2.455
93928W        W66996   6.271  38.204  11.062
93929W        W66997  29.629   9.807   3.833
93930W        W66998  34.539  22.717  14.764
93931W        W66999   9.801  44.825   4.505
93932W        W67000  22.771  43.689  13.840
93933W        W67001   8.814   1.269   1.698
93934W        W67002  13.984  40.831  13.418
93935W        W67003  17.165  38.700  12.478
93936W        W67004  38.933  28.002   4.629
93937W        W67005  17.082  31.746   2.974
93938W        W67006  20.310  13.980  13.792
93939W        W67007  22.158  34.226  12.875
93940W        W67008   1.293  18.403  13.188
93941W        W67009  16.050   9.701   3.209
93942W        W67010   6.463  18.545   2.716
93943W        W67011  19.566  11.465  11.178
93944W        W67012  17.495  37.273   4.098
93945W        W67013  21.055   2.655   0.169
93946W        W67014  13.840   4.299  14.994
93947W        W67015  12.669  11.693  13.267
93948W        W67016  23.698  34.862   0.790
93949W        W67017  12.935  19.706  11.441
93950W        W67018  29.862   7.908   0.925
93951W        W67019  37.296  28.015   3.204
93952W        W67020  33.310  39.880   1.893
93953W        W67021  32.536  18.289   2.086
93954W        W67022  37.652   3.915   0.739
93955W        W67023  21.799  12.237  13.009
93956W        W67024   8.323  42.596   2.828
93957W        W67025   6.900  20.199   1.751
93958W        W67026  15.748  17.695   0.292
93959W        W67027   9.675  23.122  10.692
93960W        W67028  13.310  28.881  13.859
93961W        W67029  28.104  26.748  14.845
93962W        W67030  23.549   8.589  14.981
93963W        W67031  29.466  16.368   4.891
93964W        W67032  10.970  22.607   2.488
93965W        W67033  40.866  26.011   1.093
93966W        W67034  29.331  11.151   2.780
93967W        W67035  34.191  43.017  14.822
93968W        W67036  30.662  21.529   1.334
93969W        W67037  23.538  28.423  12.077
93970W        W67038  31.266  42.513   3.456
93971W        W67039   0.876  30.330   2.639
93972W        W67040   4.814   0.698  14.987
93973W        W67041   2.653  31.542   2.671
93974W        W67042  28.421  20.664   1.425
93975W        W67043  19.516  36.647   1.934
93976W        W67044  39.482  14.828   4.517
93977W        W67045  31.395  25.550   4.184
93978W        W67046   0.217  28.382  13.381
93979W        W67047  40.614  12.563   5.018
93980W        W67048  27.100  25.990   0.757
93981W        W67049   9.672  14.118   4.971
93982W        W67050  30.872  31.139   2.767
93983W        W67051  44.600  29.471  12.621
93984W        W67052  10.870  17.201   0.182
93985W        W67053  36.671   8.855   3.344
93986W        W67054  36.457  42.340  10.826
93987W        W67055  21.301  20.863  10.114
93988W        W67056  29.634  33.411   4.613
93989W        W67057  14.448   2.150   1.965
93990W        W67058  15.053  15.719  14.463
93991W        W67059  26.587  24.613  13.426
93992W        W67060  20.485  14.485  13.869
93993W        W67061  28.686  11.390  12.660
93994W        W67062  44.481   9.460   4.145
93995W        W67063  44.434   0.905  13.525
93996W        W67064   2.766   7.791  12.740
93997W        W67065   9.338  32.394  14.758
93998W        W67066  12.395  25.529   5.002
93999W        W67067  12.102  38.188   0.530
94000W        W67068  40.223   7.423  14.647
94001W        W67069   8.693  21.200  14.458
94002W        W67070   0.706  19.799   4.178
94003W        W67071   1.499  16.314   0.855
94004W        W67072  31.555   4.428  13.025
94005W        W67073  39.061  33.341  10.789
94006W        W67074  41.327   7.944   3.578
94007W        W67075  42.005  42.653   1.283
94008W        W67076  31.380  12.956  12.446
94009W        W67077  31.297   7.728   1.911
94010W        W67078  29.552  24.596   0.192
94011W        W67079   5.925  15.589  12.096
94012W        W67080  39.916  15.906   1.796
94013W        W67081  18.489  17.819   3.672
94014W        W67082  31.165  39.605  14.015
94015W        W67083  18.646   4.226  13.818
94016W        W67084  26.085  28.002  12.498
94017W        W67085  31.810  31.517   3.642
94018W        W67086  43.861  36.479  11.541
94019W        W67087  18.750   9.299  12.479
94020W        W67088  37.912  12.781   2.564
94021W        W67089  10.246   9.737  12.613
94022W        W67090  40.518   3.447   0.837
94023W        W67091  14.760  42.739   3.705
94024W        W67092  36.415   3.855   4.467
94025W        W67093   6.804  21.974   0.352
94026W        W67094  41.484  36.905  13.034
94027W        W67095  11.756  34.561   4.897
94028W        W67096  11.253  11.430  11.590
94029W        W67097  33.039  13.996   1.259
94030W        W67098  27.372  18.163   0.851
94031W        W67099  17.850  35.328  11.222
94032W        W67100  41.284  36.575   4.080
94033W        W67101  12.216  44.073   0.435
94034W        W67102  22.071   9.152   1.754
94035W        W67103  22.010  22.781  12.422
94036W        W67104  38.872  35.561   1.680
94037W        W67105  22.989  35.542   4.873
94038W        W67106  40.757  36.283  13.478
94039W        W67107  25.085  31.697   3.700
94040W        W67108   2.819   2.023   3.657
94041W        W67109  41.417  43.957  11.638
94042W        W67110  20.766  30.193  13.199
94043W        W67111  17.761   8.973   0.436
94044W        W67112  39.885  23.919   1.775
94045W        W67113  17.139  41.280   3.515
94046W        W67114  22.430  42.896   3.643
94047W        W67115  12.103  19.975   3.634
94048W        W67116  14.232  20.583  12.316
94049W        W67117  19.226  31.951   4.368
94050W        W67118  10.391   4.435  13.571
94051W        W67119  38.092  38.427  13.784
94052W        W67120  32.087  21.786  14.998
94053W        W67121  28.173  14.124  14.310
94054W        W67122  11.823  23.127   3.184
94055W        W67123  44.931  25.582  12.843
94056W        W67124  13.695  16.815   1.893
94057W        W67125  30.560  43.373   0.263
94058W        W67126  10.654  38.821   3.327
94059W        W67127  27.711  16.522  11.052
94060W        W67128   7.906  41.178   4.090
94061W        W67129   8.881  13.720   4.658
94062W        W67130  37.466   9.161  12.217
94063W        W67131  32.466  44.978  10.940
94064W        W67132   6.232  26.921   4.532
94065W        W67133   3.920  30.591   1.322
94066W        W67134  12.306  25.703   0.799
94067W        W67135  10.811  23.199   4.766
94068W        W67136   3.873  43.946  13.928
94069W        W67137  25.660  25.714   4.459
94070W        W67138  26.965  27.395   4.604
94071W        W67139  34.769  35.864  11.102
94072W        W67140   6.380  25.944  10.739
94073W        W67141  40.860  36.063  13.965
94074W        W67142   2.971  38.683  11.910
94075W        W67143   6.636  10.092   4.992
94076W        W67144   2.313  34.421  11.485
94077W        W67145  14.516  42.787  14.415
94078W        W67146  18.621  28.547  11.672
94079W        W67147  33.586  41.999  11.640
94080W        W67148  24.743  13.282   2.794
94081W        W67149  17.002  29.163   3.248
94082W        W67150  25.415   9.445  10.768
94083W        W67151   1.385  11.668  14.670
94084W        W67152  17.535  28.500   0.256
94085W        W67153  11.829  32.158   2.699
94086W        W67154  36.042  22.771   0.760
94087W        W67155  42.088   8.174   1.301
94088W        W67156  11.704   7.211   1.650
94089W        W67157  31.088  37.628  14.178
94090W        W67158  26.810   5.129   4.128
94091W        W67159  27.515  38.045   1.934
94092W        W67160  29.179  42.421  13.882
94093W        W67161  13.969  16.261  10.643
94094W        W67162  27.965  38.405   1.241
94095W        W67163   5.634  39.328   1.757
94096W        W67164  19.251  35.372   2.383
94097W        W67165  39.118  35.633  13.361
94098W        W67166  11.748  39.804   1.684
94099W        W67167  28.154  10.862  13.003
94100W        W67168   1.678  10.548  10.403
94101W        W67169  42.419  31.007  14.871
94102W        W67170  33.601   9.815   1.752
94103W        W67171   7.200  27.500  12.045
94104W        W67172  16.773  10.840  11.072
94105W        W67173  12.655  38.857   0.220
94106W        W67174  12.131  43.913   1.436
94107W        W67175  42.403  28.521   0.014
94108W        W67176  33.769  38.088  10.881
94109W        W67177  42.327  27.673  14.979
94110W        W67178  17.034  41.486  13.251
94111W        W67179  10.786  35.902   2.725
94112W        W67180   0.461  43.878  13.505
94113W        W67181  20.717  11.616  14.301
94114W        W67182  37.382  19.350  12.420
94115W        W67183  18.864  14.590  14.458
94116W        W67184  22.669  26.840  14.504
94117W        W67185  42.033  13.073  13.366
94118W        W67186  36.376  35.520  12.148
94119W        W67187   6.169   1.277   1.332
94120W        W67188  27.739  38.918   1.272
94121W        W67189   6.458   7.960   2.816
94122W        W67190  10.625  12.745  14.607
94123W        W67191  16.239  19.267  14.150
94124W        W67192  12.302  28.278  13.814
94125W        W67193  37.065  13.019  12.482
94126W        W67194  19.283   1.676   0.408
94127W        W67195  43.308  16.078  12.449
94128W        W67196  26.060  25.915  12.920
94129W        W67197  35.727   7.330   0.806
94130W        W67198   3.132  22.530  10.656
94131W        W67199  18.562  11.070  14.532
94132W        W67200   0.058  11.635  12.570
94133W        W67201  29.563   4.873  14.719
94134W        W67202  43.544  11.560   0.071
94135W        W67203  24.676  22.912  11.151
94136W        W67204  31.230  32.468   4.538
94137W        W67205  20.675  42.554   4.351
94138W        W67206  44.867  18.661   0.702
94139W        W67207  29.073  27.238   0.422
94140W        W67208   6.734   6.665   4.064
94141W        W67209   3.396  15.234  10.805
94142W        W67210  34.478  28.439   2.245
94143W        W67211   2.880  32.025   1.374
94144W        W67212  31.129  18.749  12.038
94145W        W67213  12.243  33.100  13.658
94146W        W67214  20.739   9.600   3.677
94147W        W67215  31.979  32.398   2.242
94148W        W67216  24.454  41.885   2.579
94149W        W67217  16.075  40.868  14.938
94150W        W67218   7.411   2.978  11.979
94151W        W67219   2.738  33.511   0.278
94152W        W67220  37.443   8.664  12.152
94153W        W67221  37.352  16.257  10.887
94154W        W67222  30.840  18.350  11.168
94155W        W67223   6.277  11.826   2.847
94156W        W67224  16.874  13.377  14.045
94157W        W67225  44.909  43.542   2.756
94158W        W67226  16.300  28.293  14.611
94159W        W67227  27.665  35.471  14.459
94160W        W67228  15.879   2.773   1.670
94161W        W67229   5.655  42.874  10.721
94162W        W67230  37.821  31.140   3.686
94163W        W67231   2.722  37.505  12.359
94164W        W67232  33.952  43.584  13.436
94165W        W67233   9.768  21.655   4.290
94166W        W67234  18.081  21.577  12.693
94167W        W67235  38.105  35.049  10.234
94168W        W67236  15.431  12.574  10.222
94169W        W67237  23.604  35.016  10.634
94170W        W67238  11.648  36.497  14.442
94171W        W67239  10.886   1.047   2.444
94172W        W67240  43.550  30.224  13.895
94173W        W67241  22.185  13.897   1.326
94174W        W67242  39.780   3.746   1.611
94175W        W67243  21.648   9.125  14.343
94176W        W67244  18.201  12.554  14.739
94177W        W67245  43.754  21.109  13.026
94178W        W67246  42.511  11.904   2.574
94179W        W67247  28.402  32.140   0.934
94180W        W67248  34.530  38.310   4.118
94181W        W67249  15.466  18.783   0.970
94182W        W67250   8.452  29.158   5.092
94183W        W67251  10.718   7.034   2.771
94184W        W67252  33.893  27.765  14.054
94185W        W67253  42.564  37.067   4.486
94186W        W67254  13.271  25.263   4.482
94187W        W67255   2.876  36.572  12.379
94188W        W67256  13.725   5.256   1.431
94189W        W67257  34.691  33.480  11.630
94190W        W67258  23.488  14.130  13.336
94191W        W67259  13.792  41.226   0.404
94192W        W67260   3.540  29.618  12.130
94193W        W67261   6.044  14.747  14.333
94194W        W67262  13.292  18.480  11.872
94195W        W67263  42.393  28.117   3.143
94196W        W67264  14.655  33.426  14.474
94197W        W67265  37.517  43.424  13.165
94198W        W67266  26.314   8.747  14.894
94199W        W67267  42.946  40.066   3.199
94200W        W67268  36.557  44.488  14.250
94201W        W67269  40.723   3.619  14.937
94202W        W67270  13.645  22.477  13.849
94203W        W67271  37.379  25.225  11.105
94204W        W67272  29.361  22.555   4.365
94205W        W67273  31.125   5.226   4.495
94206W        W67274  30.454   0.808   4.132
94207W        W67275  40.959   9.260   3.639
94208W        W67276  20.661  36.034  13.559
94209W        W67277  18.937  31.160   3.190
94210W        W67278  34.643  38.453   1.694
94211W        W67279  43.908   3.396   5.025
94212W        W67280  34.869  24.165   1.897
94213W        W67281   7.415  22.675  12.328
94214W        W67282  11.058   5.996  11.628
94215W        W67283   5.365  21.418  13.675
94216W        W67284  34.104   7.451  14.247
94217W        W67285  22.753   3.198   2.208
94218W        W67286   4.315   0.189  12.546
94219W        W67287  44.228   4.424  12.888
94220W        W67288  33.399   3.066  13.832
94221W        W67289   7.381   3.974  14.358
94222W        W67290  42.779  42.081   2.359
94223W        W67291   6.921  21.517   1.561
94224W        W67292  24.359   0.575  11.235
94225W        W67293  37.521  25.587   0.546
94226W        W67294   7.837   8.148  13.392
94227W        W67295  10.610  26.189  13.484
94228W        W67296  33.021  15.543  11.478
94229W        W67297  14.757  32.971  14.233
94230W        W67298   8.209   2.326   0.328
94231W        W67299  15.651  41.973   1.947
94232W        W67300  24.676  27.901  11.180
94233W        W67301  38.005   0.307   1.254
94234W        W67302  25.892  16.691  12.662
94235W        W67303  36.660   8.698   0.318
94236W        W67304  15.534  12.352  11.425
94237W        W67305  10.352   1.762   0.410
94238W        W67306  18.578   2.289  13.470
94239W        W67307  32.191  13.259   4.703
94240W        W67308  35.562   5.692  12.997
94241W        W67309  34.117  23.179  11.933
94242W        W67310  23.939  34.607   1.654
94243W        W67311  27.781   5.162   3.205
94244W        W67312  33.641  20.799   1.438
94245W        W67313  39.919  28.154  14.262
94246W        W67314  19.025  21.485   2.762
94247W        W67315  11.409  15.683   3.554
94248W        W67316   4.576  28.033   3.678
94249W        W67317   7.883   1.194   3.727
94250W        W67318   8.180  36.565  11.034
94251W        W67319  39.760  29.005   2.995
94252W        W67320  38.317  28.497  13.899
94253W        W67321  10.690  12.738  10.671
94254W        W67322  37.128  17.039   3.283
94255W        W67323  37.810  29.420  11.094
94256W        W67324   1.010  14.088   3.258
94257W        W67325  36.808   5.898  13.521
94258W        W67326  34.617  32.484  13.514
94259W        W67327  14.443   3.753   0.336
94260W        W67328  28.505  18.938  13.795
94261W        W67329  12.605  23.263   4.194
94262W        W67330   3.732  30.906  10.504
94263W        W67331  15.775   4.192   4.907
94264W        W67332   2.372  26.406   1.789
94265W        W67333   9.807   9.906  12.935
94266W        W67334  15.818  27.965   0.888
94267W        W67335  36.522  38.577  12.719
94268W        W67336  44.963  31.726   3.238
94269W        W67337  30.787  18.706   3.218
94270W        W67338   6.500  15.210  13.888
94271W        W67339   3.300  20.793   4.075
94272W        W67340  42.392   4.698   1.200
94273W        W67341  20.877   3.120  10.056
94274W        W67342  34.374  38.270   4.635
94275W        W67343  24.499   8.764  11.979
94276W        W67344   6.864   2.479   4.475
94277W        W67345  21.098  40.581   4.164
94278W        W67346  35.373  40.517  13.982
94279W        W67347  33.054  17.022  12.916
94280W        W67348  25.127   7.252  10.694
94281W        W67349  13.998  25.506   3.928
94282W        W67350  28.233  13.849   3.705
94283W        W67351   0.271   5.526   2.887
94284W        W67352  38.163  36.221  13.536
94285W        W67353   4.601  12.287  11.165
94286W        W67354  38.832  36.561   3.244
94287W        W67355   7.289   6.448   0.965
94288W        W67356  14.734  26.930  12.550
94289W        W67357  24.667  44.431   3.875
94290W        W67358  11.901  35.158  14.263
94291W        W67359  42.995  18.568  14.322
94292W        W67360  14.074  41.799   4.523
94293W        W67361   4.366  20.107   4.102
94294W        W67362  44.126  14.552   4.153
94295W        W67363   9.271  36.000  14.018
94296W        W67364   4.243  19.700   2.665
94297W        W67365  23.770   8.878   0.921
94298W        W67366  12.586   8.372  10.597
94299W        W67367  21.758  17.163   3.109
94300W        W67368  16.051  26.986  12.103
94301W        W67369   4.516  40.976  11.967
94302W        W67370  27.924  23.785  11.869
94303W        W67371  20.094  25.529   5.275
94304W        W67372  37.587  35.796  11.015
94305W        W67373  32.921   0.404  13.485
94306W        W67374  18.614  11.795   3.148
94307W        W67375  30.933   8.426   3.299
94308W        W67376  21.903   5.050   1.786
94309W        W67377   1.523   9.309  11.574
94310W        W67378  31.642   9.937   4.737
94311W        W67379  40.223  28.856   2.818
94312W        W67380   2.206  23.916   1.637
94313W        W67381  17.296  11.643  11.473
94314W        W67382  38.206  20.356   0.241
94315W        W67383   6.883  38.854  11.451
94316W        W67384  33.072  42.258  10.263
94317W        W67385   0.612  37.416  10.434
94318W        W67386  30.552  29.218   0.226
94319W        W67387  18.307  37.793   3.322
94320W        W67388   1.555  16.673   1.665
94321W        W67389  29.008   4.635   3.392
94322W        W67390   4.152  38.755   4.154
94323W        W67391  29.454  40.531   2.550
94324W        W67392   6.312  20.732  12.023
94325W        W67393   5.131  25.209  13.059
94326W        W67394  20.330  21.997   2.354
94327W        W67395  16.294   6.956   3.648
94328W        W67396   7.236  16.703  13.261
94329W        W67397  40.117  36.443  14.562
94330W        W67398   9.993  11.732  12.563
94331W        W67399   5.817  36.320  14.137
94332W        W67400  39.516  38.090   2.626
94333W        W67401  33.324  18.686  14.360
94334W        W67402  41.550  26.497  11.887
94335W        W67403  16.685  32.717  10.732
94336W        W67404   7.372  41.243  14.994
94337W        W67405   5.769   6.370  10.700
94338W        W67406  30.792  19.470  12.854
94339W        W67407  11.946  41.982   0.329
94340W        W67408   1.722  19.802   2.663
94341W        W67409  16.124  15.021  12.146
94342W        W67410  29.870  21.288  12.808
94343W        W67411   7.377  23.522  12.899
94344W        W67412  20.008  31.533   2.758
94345W        W67413  33.990  33.248  11.925
94346W        W67414  39.376  28.711   2.784
94347W        W67415  43.800  40.603  13.456
94348W        W67416  19.970  34.390   3.070
94349W        W67417  13.382   2.786   1.437
94350W        W67418  14.658  39.281  11.585
94351W        W67419  40.867  42.046   3.221
94352W        W67420   7.057  26.554   3.129
94353W        W67421  42.436  20.134  12.376
94354W        W67422  37.362  10.913   1.421
94355W        W67423   9.003  32.443  12.095
94356W        W67424  12.745  19.251   5.011
94357W        W67425  30.367   2.451  11.171
94358W        W67426  38.945  27.280   1.497
94359W        W67427  12.288  22.519   3.603
94360W        W67428  35.862  41.179  12.981
94361W        W67429  21.746  28.109   3.527
94362W        W67430  30.115   8.836   0.598
94363W        W67431  22.805  28.394  12.862
94364W        W67432  38.494  17.915   3.223
94365W        W67433  35.031  35.218   1.421
94366W        W67434   6.456  23.727  11.116
94367W        W67435  36.472  28.388  13.464
94368W        W67436  36.962  31.180   4.757
94369W        W67437  41.751  43.828   0.756
94370W        W67438  28.004  13.652  13.911
94371W        W67439   0.699  38.544   3.677
94372W        W67440  26.645  31.388  14.511
94373W        W67441  16.372   8.269   0.004
94374W        W67442  17.690  21.245  11.488
94375W        W67443  40.819  34.442  10.686
94376W        W67444  38.235  29.562   1.429
94377W        W67445  31.138   6.816  10.544
94378W        W67446  39.859  26.878   1.371
94379W        W67447  18.133  17.318  14.568
94380W        W67448   5.708  21.590   3.848
94381W        W67449  42.765  39.845  14.926
94382W        W67450  19.068  12.720  14.368
94383W        W67451   3.776   1.438   0.174
94384W        W67452   4.493  14.265   2.660
94385W        W67453  15.201  42.589  14.359
94386W        W67454  26.639   9.165  12.000
94387W        W67455   3.325  21.324  13.070
94388W        W67456  10.967  10.209  11.677
94389W        W67457  42.612  24.148  10.381
94390W        W67458  20.695  36.214  12.074
94391W        W67459  25.582  21.198   0.335
94392W        W67460  42.405  36.674  12.003
94393W        W67461  13.060  39.836   0.228
94394W        W67462  23.720  23.216  13.384
94395W        W67463   7.792   6.431   4.143
94396W        W67464  39.399  12.632   1.346
94397W        W67465   7.345  25.058  14.014
94398W        W67466  14.105  35.563  11.251
94399W        W67467  24.779  19.088   0.785
94400W        W67468   0.076  43.762  13.883
94401W        W67469  40.970  11.880  12.975
94402W        W67470  21.078  11.121  10.434
94403W        W67471   8.047  28.725   2.142
94404W        W67472  23.547  19.743   4.288
94405W        W67473  38.426  20.307  11.662
94406W        W67474   0.566  42.745  11.842
94407W        W67475  34.337  29.696   4.539
94408W        W67476  29.336   7.219   2.834
94409W        W67477  14.248  14.330  11.546
94410W        W67478   3.179  12.182   0.800
94411W        W67479  19.376   7.195   2.680
94412W        W67480  38.023  33.158  14.869
94413W        W67481  25.115  29.456  10.509
94414W        W67482  38.190   8.003  13.918
94415W        W67483  37.036   4.943  10.800
94416W        W67484  44.735  25.475  11.144
94417W        W67485  40.060  22.213  12.355
94418W        W67486  43.301  22.826   4.820
94419W        W67487  43.226   4.646   0.836
94420W        W67488  11.919  21.014   4.108
94421W        W67489   0.024  35.808   1.952
94422W        W67490   7.742  25.763  10.842
94423W        W67491  22.235  35.367  12.437
94424W        W67492  42.188  27.318   3.648
94425W        W67493  21.365   9.632  10.541
94426W        W67494  20.273  25.761  11.641
94427W        W67495  27.765  11.412   3.757
94428W        W67496  31.935  35.630   3.852
94429W        W67497   6.378  18.516  14.823
94430W        W67498   4.876  32.041  12.816
94431W        W67499  18.246   3.255  13.805
94432W        W67500  21.147   9.287   4.598
94433W        W67501  36.978  15.009   3.780
94434W        W67502  39.395  38.806  11.528
94435W        W67503   3.011  33.464   0.714
94436W        W67504  37.440  12.638  12.449
94437W        W67505  41.079  28.511   0.953
94438W        W67506   9.407  19.668  14.437
94439W        W67507  23.272  11.649  10.494
94440W        W67508  44.095  16.580   3.931
94441W        W67509   9.068  28.146  12.529
94442W        W67510   2.170  28.608  13.470
94443W        W67511  38.600  42.969   4.563
94444W        W67512  44.221  40.156  14.880
94445W        W67513  11.442  14.363   3.680
94446W        W67514   3.192  40.399  12.356
94447W        W67515  27.967   9.511   0.666
94448W        W67516  21.032   6.225  14.479
94449W        W67517  22.005   1.490  11.555
94450W        W67518  17.233  29.482   2.268
94451W        W67519  22.950  37.081   1.163
94452W        W67520  34.573  42.036   3.864
94453W        W67521  10.370  30.385  12.025
94454W        W67522  12.325  25.092  10.765
94455W        W67523  43.066  40.788   4.596
94456W        W67524  41.638   3.614  13.962
94457W        W67525  20.554  25.615   0.376
94458W        W67526   6.029  19.183  11.964
94459W        W67527  33.857  15.675   0.345
94460W        W67528  12.205  33.331   4.605
94461W        W67529  38.345  22.010   3.646
94462W        W67530  38.340   3.206   1.419
94463W        W67531   9.011   3.983  11.470
94464W        W67532   8.180  23.096  10.434
94465W        W67533  34.139  21.765  12.483
94466W        W67534  32.676  14.311   3.650
94467W        W67535  17.699  19.059  14.423
94468W        W67536  31.899  14.498   1.298
94469W        W67537  37.374   5.771   5.041
94470W        W67538   9.112  22.578  10.668
94471W        W67539  32.013   0.831  11.271
94472W        W67540  22.144  27.984   1.455
94473W        W67541   4.110  18.176  12.088
94474W        W67542  28.239  15.145  14.807
94475W        W67543  21.225  35.632  12.572
94476W        W67544  33.957  20.217  14.314
94477W        W67545  34.415  22.447   2.565
94478W        W67546  41.506   7.447   3.730
94479W        W67547  10.721  19.383   0.874
94480W        W67548  18.190   2.776  13.995
94481W        W67549  36.538  23.955   1.839
94482W        W67550  29.810  11.639  10.643
94483W        W67551  43.721  22.305  11.152
94484W        W67552  37.480  40.534   2.865
94485W        W67553  22.482   4.925  12.497
94486W        W67554  20.820   9.396  11.517
94487W        W67555  12.620  16.318  10.372
94488W        W67556  15.792  34.050   1.797
94489W        W67557  37.936   2.919  12.609
94490W        W67558   4.002  40.604  12.585
94491W        W67559  12.631  35.038   3.878
94492W        W67560   0.869  27.160   4.786
94493W        W67561   2.323  26.667  11.668
94494W        W67562  41.968   8.869   2.365
94495W        W67563  28.962  26.901  14.574
94496W        W67564  21.770   9.198  11.697
94497W        W67565  27.772  39.909   1.330
94498W        W67566  19.572  34.585  10.703
94499W        W67567  35.891   0.992   0.889
94500W        W67568  39.061  24.984   0.692
94501W        W67569  22.037  10.024   0.938
94502W        W67570  41.180  37.854   2.640
94503W        W67571  35.132  18.143   3.356
94504W        W67572  13.371  23.973  12.127
94505W        W67573  21.249  38.326  12.598
94506W        W67574  13.439  44.434  12.186
94507W        W67575  17.560  44.703   1.820
94508W        W67576  43.430  32.447  13.422
94509W        W67577  36.914  22.946   1.204
94510W        W67578   3.216   9.267   0.623
94511W        W67579  37.840  32.976   2.338
94512W        W67580  37.428  25.906  13.832
94513W        W67581   6.529  15.240  11.113
94514W        W67582  19.443  17.321   1.266
94515W        W67583  27.073  27.077  11.327
94516W        W67584   5.870  37.496   9.918
94517W        W67585  31.144  22.292  12.600
94518W        W67586  34.391  33.467  12.648
94519W        W67587   2.512  15.441  12.924
94520W        W67588  10.754  42.785   1.621
94521W        W67589  37.049  16.624  10.679
94522W        W67590  34.142  37.011   0.883
94523W        W67591   5.797  28.478   3.395
94524W        W67592  28.075   0.748   1.984
94525W        W67593  28.016   7.692   1.340
94526W        W67594  22.574  41.051  14.322
94527W        W67595  17.283   6.242   4.826
94528W        W67596  11.806   7.645   1.876
94529W        W67597  28.117  23.744  13.516
94530W        W67598   7.796   3.037  10.674
94531W        W67599  24.607   9.649  11.556
94532W        W67600   9.442  43.829  10.589
94533W        W67601   6.749  15.757  11.108
94534W        W67602  24.279  14.538  11.493
94535W        W67603  34.549  27.643  13.435
94536W        W67604  19.511  39.722  13.869
94537W        W67605  24.266   5.487  13.427
94538W        W67606  19.537  34.058  12.849
94539W        W67607  10.842  12.134   0.884
94540W        W67608  25.735  21.527  11.124
94541W        W67609  25.859  26.753  14.248
94542W        W67610  10.426  25.327  10.049
94543W        W67611  41.505   1.506  14.367
94544W        W67612  22.522  18.574   4.199
94545W        W67613  38.700  36.701   0.001
94546W        W67614  27.191  22.952   3.838
94547W        W67615   8.202  44.992  13.090
94548W        W67616  34.379  29.035   1.184
94549W        W67617  31.045  41.180   0.950
94550W        W67618  23.702  17.296  11.722
94551W        W67619  41.376  32.841  11.549
94552W        W67620  39.913  22.499  13.495
94553W        W67621  14.482  19.267   3.422
94554W        W67622  31.380  24.059   3.248
94555W        W67623  24.720  14.710   3.700
94556W        W67624  12.501  32.128  13.076
94557W        W67625   7.598  21.784  11.548
94558W        W67626  42.804  35.065   3.616
94559W        W67627  17.537  19.297  12.577
94560W        W67628  16.612  16.696   4.095
94561W        W67629  44.965  31.646   1.799
94562W        W67630  18.497  18.066   0.492
94563W        W67631  37.432  36.660  14.338
94564W        W67632  20.789  12.171   3.364
94565W        W67633  38.109   6.753   4.414
94566W        W67634   4.392  33.472   2.222
94567W        W67635  44.967  11.565   2.273
94568W        W67636   9.070  20.006   2.301
94569W        W67637  43.765  44.709  12.461
94570W        W67638  22.689  35.910   4.083
94571W        W67639   8.104  16.240   2.963
94572W        W67640  12.095  12.361   2.879
94573W        W67641  33.457   2.008   1.408
94574W        W67642  12.696  16.796  13.858
94575W        W67643   9.936  11.824  12.036
94576W        W67644  27.495  41.727  10.527
94577W        W67645  41.063  34.178   3.175
94578W        W67646  22.634   5.173  10.712
94579W        W67647  26.513  37.504   2.698
94580W        W67648  14.363  29.734   0.788
94581W        W67649  10.333  20.013  14.400
94582W        W67650  14.509  42.769   0.312
94583W        W67651  13.568  29.150  12.561
94584W        W67652  10.790   3.804  11.323
94585W        W67653   1.264  44.311  13.506
94586W        W67654  37.714  11.380   4.537
94587W        W67655  37.040  41.438   4.194
94588W        W67656  32.601  14.364  14.749
94589W        W67657  17.811  27.162   4.011
94590W        W67658  41.044  43.874   2.082
94591W        W67659   6.937  26.202   4.510
94592W        W67660  12.777  14.793  14.391
94593W        W67661   4.988  28.124  13.507
94594W        W67662   8.504   2.815  11.401
94595W        W67663  39.258  42.724  13.320
94596W        W67664  19.582  44.288   1.338
94597W        W67665  38.758  18.730   4.476
94598W        W67666  23.119  44.064  13.838
94599W        W67667  43.774  33.053   0.479
94600W        W67668  18.749  28.980   2.700
94601W        W67669  44.290  42.173   4.811
94602W        W67670  19.202   9.196   0.260
94603W        W67671   3.303   1.603  11.759
94604W        W67672  16.580  34.546   0.845
94605W        W67673   8.805  30.334  11.521
94606W        W67674  27.040  13.912  12.628
94607W        W67675  12.114  44.784  10.396
94608W        W67676  32.446  11.799  13.355
94609W        W67677  35.819  20.522  14.464
94610W        W67678  21.244  29.657  12.572
94611W        W67679  25.912   6.307  12.903
94612W        W67680  38.492  16.354  11.564
94613W        W67681  33.537   5.217  12.108
94614W        W67682   0.683   9.726  13.992
94615W        W67683   7.153  43.353   4.211
94616W        W67684  16.173  21.241   3.658
94617W        W67685  18.629  44.297  12.959
94618W        W67686  25.539   2.719  14.400
94619W        W67687  26.147   5.525   1.344
94620W        W67688  14.139  31.143  11.140
94621W        W67689  40.515  29.559   2.363
94622W        W67690  20.081   2.593  11.564
94623W        W67691  21.471  33.321   1.742
94624W        W67692  12.388  22.101   0.762
94625W        W67693   3.939  25.034   4.680
94626W        W67694  32.456   7.733   1.446
94627W        W67695  28.829  42.100  11.616
94628W        W67696  26.156  42.925  14.467
94629W        W67697  37.934  24.527  12.501
94630W        W67698  27.931   7.288   5.020
94631W        W67699  44.733  35.131  10.772
94632W        W67700  17.541   9.422   4.416
94633W        W67701  43.939  18.035  12.073
94634W        W67702  14.159  14.296   4.547
94635W        W67703  23.595  16.339  12.775
94636W        W67704  21.344  15.278  12.412
94637W        W67705  10.239  38.742  13.049
94638W        W67706  16.205  11.093   2.293
94639W        W67707  22.396   6.988  11.179
94640W        W67708  10.617  27.677  13.407
94641W        W67709   1.752  19.151  13.922
94642W        W67710  39.777  34.687   4.710
94643W        W67711  36.486  21.645  13.285
94644W        W67712  39.953  41.854  14.895
94645W        W67713  10.775  40.091  11.975
94646W        W67714  35.578   0.802   3.221
94647W        W67715  44.331  37.082  10.928
94648W        W67716  12.080  38.437  10.792
94649W        W67717  38.008  37.056  12.514
94650W        W67718  29.711   8.312  10.673
94651W        W67719  23.078  16.229   1.913
94652W        W67720  35.807   1.762   2.176
94653W        W67721  15.580  18.069   4.082
94654W        W67722   7.373  11.685   4.805
94655W        W67723  30.345  43.269  10.973
94656W        W67724  29.224  14.885  13.652
94657W        W67725  44.346   3.303  14.896
94658W        W67726   4.327  27.333  14.453
94659W        W67727   1.552   7.423  14.686
94660W        W67728  20.248   1.736  14.273
94661W        W67729   8.602  25.317  14.190
94662W        W67730  33.090  15.342   2.359
94663W        W67731  21.384   0.087  14.863
94664W        W67732  29.930   0.789  12.383
94665W        W67733  39.363  38.838   4.160
94666W        W67734  23.688  32.494   4.729
94667W        W67735  32.573  39.810  10.498
94668W        W67736  11.420  14.247   2.038
94669W        W67737  21.073  19.043  12.440
94670W        W67738  30.033  14.264  14.455
94671W        W67739  38.443   3.898   4.544
94672W        W67740  21.991   4.537   1.706
94673W        W67741  31.389  34.479   1.422
94674W        W67742   4.328  38.089  13.132
94675W        W67743  17.644  36.818   3.164
94676W        W67744  37.469   9.633  11.439
94677W        W67745  30.146  23.741   1.721
94678W        W67746  18.592  33.683   2.471
94679W        W67747  31.353  22.737   4.160
94680W        W67748  14.821  31.114   1.416
94681W        W67749  11.776  15.519  12.083
94682W        W67750  44.971   0.028  13.741
94683W        W67751  20.289   5.733   0.132
94684W        W67752  21.252  39.519  11.962
94685W        W67753  34.149   7.830  11.069
94686W        W67754  33.580  29.142  13.758
94687W        W67755  40.990  27.313  11.233
94688W        W67756  27.672  18.503   3.100
94689W        W67757   2.756   9.494   2.352
94690W        W67758   9.353   8.131  12.705
94691W        W67759  29.451   0.867  10.730
94692W        W67760   3.639  42.580  12.594
94693W        W67761  24.782  20.227   2.721
94694W        W67762  15.818  33.816   0.263
94695W        W67763  39.539  20.683   4.893
94696W        W67764   6.188  25.469  11.921
94697W        W67765  21.445   6.216   3.767
94698W        W67766  35.280   8.436   3.286
94699W        W67767  26.508  39.304   1.747
94700W        W67768  33.325   0.873  13.948
94701W        W67769  19.863   3.138  11.092
94702W        W67770  36.278  42.696   0.306
94703W        W67771  22.810  22.511   0.506
94704W        W67772  40.110  30.444  12.588
94705W        W67773  20.830   4.344  12.338
94706W        W67774  15.270  43.474  12.414
94707W        W67775  27.268  17.710  13.335
94708W        W67776   0.245  19.985   2.283
94709W        W67777  11.612  39.582   4.543
94710W        W67778   6.935   9.139   0.345
94711W        W67779  32.042  24.125   2.334
94712W        W67780  25.704   5.824  12.067
94713W        W67781  39.089   0.258   0.189
94714W        W67782  38.290  28.223  13.429
94715W        W67783  35.636   6.228   4.553
94716W        W67784  16.235  29.054   5.393
94717W        W67785  11.894   0.182   4.379
94718W        W67786  26.521   2.964   3.763
94719W        W67787  25.530  39.073  11.212
94720W        W67788  22.292  18.083  10.258
94721W        W67789  43.279   1.513  12.533
94722W        W67790   8.285  24.671  14.242
94723W        W67791  41.280   9.272  13.368
94724W        W67792  30.678  11.298  13.966
94725W        W67793  32.837  30.428  13.070
94726W        W67794  12.760  38.348  13.832
94727W        W67795   7.156  38.389   3.560
94728W        W67796  44.833  38.291   0.456
94729W        W67797   2.242  18.701  11.091
94730W        W67798  28.534  22.281  12.028
94731W        W67799  39.509   8.786  13.785
94732W        W67800  38.919  41.299   0.179
94733W        W67801  27.622   1.433   2.294
94734W        W67802  10.260  36.360   2.239
94735W        W67803  13.874  20.242   1.731
94736W        W67804  35.942  14.341  10.795
94737W        W67805  32.958  29.506  13.809
94738W        W67806   6.831  10.225   3.327
94739W        W67807  29.447  34.904  12.525
94740W        W67808   2.257  26.155   3.302
94741W        W67809  23.884  25.052  10.143
94742W        W67810   7.125  39.073  14.784
94743W        W67811   3.901  34.668   2.733
94744W        W67812  29.705  20.623  11.616
94745W        W67813  40.335  31.474  14.870
94746W        W67814  18.484  29.018   3.133
94747W        W67815  34.032  43.428  12.109
94748W        W67816  14.995   4.855  11.067
94749W        W67817   2.362   1.408  14.221
94750W        W67818  25.680  36.636  11.889
94751W        W67819  16.272  34.297   1.766
94752W        W67820  38.311  32.053   2.154
94753W        W67821   8.653  20.508   3.722
94754W        W67822   6.769  40.523  13.911
94755W        W67823  31.223  15.199  11.221
94756W        W67824  35.058  32.165   3.653
94757W        W67825  23.606  39.264   4.499
94758W        W67826   4.238   4.741  12.003
94759W        W67827  43.552  27.262   1.728
94760W        W67828  37.018  34.026  12.536
94761W        W67829  10.255  11.827   3.687
94762W        W67830  19.677  39.236  13.758
94763W        W67831  13.711  34.093   2.658
94764W        W67832  21.284  24.454   4.750
94765W        W67833  40.655   4.614  12.205
94766W        W67834  11.095  24.690  13.512
94767W        W67835   9.189  30.071   0.028
94768W        W67836   2.386  37.106   4.653
94769W        W67837  28.345   4.063   3.058
94770W        W67838  33.259  24.144  13.932
94771W        W67839  26.134  25.061   0.978
94772W        W67840  43.641  14.092  12.855
94773W        W67841  41.006  15.554   1.228
94774W        W67842  38.704  36.173  14.953
94775W        W67843  19.570  19.496  13.842
94776W        W67844  18.769  17.231  13.909
94777W        W67845   4.722  14.693  11.505
94778W        W67846  42.019   6.390  10.761
94779W        W67847   5.354  43.665  12.389
94780W        W67848  14.325  10.097   3.650
94781W        W67849  20.242  42.931  12.992
94782W        W67850  37.750  20.971   4.305
94783W        W67851  37.545  32.183  13.406
94784W        W67852  36.033   1.949  13.924
94785W        W67853  44.281  14.763   0.251
94786W        W67854   2.988   7.213  13.988
94787W        W67855  33.215  29.139   3.959
94788W        W67856  14.312  40.033   4.576
94789W        W67857   8.880  37.588   1.844
94790W        W67858  34.073  15.104   3.825
94791W        W67859  27.501  20.693   3.945
94792W        W67860   1.289   5.332   4.005
94793W        W67861  19.719   9.479   3.809
94794W        W67862  18.275  11.098  12.017
94795W        W67863   4.185  15.610  10.417
94796W        W67864   5.715  25.975   0.737
94797W        W67865   1.583  36.922   4.004
94798W        W67866   6.920  42.425  10.530
94799W        W67867   2.336  25.096  14.041
94800W        W67868  30.175  42.487   1.791
94801W        W67869  23.788  10.532   4.342
94802W        W67870   7.370  30.626   2.290
94803W        W67871  13.463  15.219   3.304
94804W        W67872   0.270  36.482   1.531
94805W        W67873  13.338  14.154  11.901
94806W        W67874  38.351  18.742   0.695
94807W        W67875  14.130  43.983  10.561
94808W        W67876  18.608  31.821   3.678
94809W        W67877  33.258  41.879  12.968
94810W        W67878  21.167   2.469  13.005
94811W        W67879   5.646  19.153  14.210
94812W        W67880   9.124  29.990   3.984
94813W        W67881  41.710  42.963   5.245
94814W        W67882  28.599  16.668  14.725
94815W        W67883  19.828  21.370  11.988
94816W        W67884   2.664  43.394   0.677
94817W        W67885   2.830  17.251   1.864
94818W        W67886  16.632  18.067   1.321
94819W        W67887  23.980  26.900  12.473
94820W        W67888  15.920   7.805   0.777
94821W        W67889  16.581  29.114  14.896
94822W        W67890  12.581  30.003  13.383
94823W        W67891  42.422   7.722  12.164
94824W        W67892  30.498  10.265  13.395
94825W        W67893  19.671  11.328   3.158
94826W        W67894  11.673  22.965   4.564
94827W        W67895   8.928  44.953  14.794
94828W        W67896  39.626  40.854   3.289
94829W        W67897  39.006   6.754  12.559
94830W        W67898   9.916  26.788   2.897
94831W        W67899  31.704  18.463   3.423
94832W        W67900   1.407  19.351  10.566
94833W        W67901  10.240  25.792   1.768
94834W        W67902  11.540   2.582  11.583
94835W        W67903  23.220  24.636   1.348
94836W        W67904  39.137  14.199  11.718
94837W        W67905  22.768  10.567   0.810
94838W        W67906  37.594  26.442   4.162
94839W        W67907  13.827   7.821  13.354
94840W        W67908   4.389   5.917   2.032
94841W        W67909  43.846   0.586   4.411
94842W        W67910   7.373   3.757   4.009
94843W        W67911  22.604  19.262   0.358
94844W        W67912   4.998  44.423   0.295
94845W        W67913  32.354  22.799  14.859
94846W        W67914  11.442  34.519  13.561
94847W        W67915  26.902  20.138   4.249
94848W        W67916  15.838  24.992  12.608
94849W        W67917  39.810  41.358   0.599
94850W        W67918   3.230  32.584  11.838
94851W        W67919  28.096   3.300   3.201
94852W        W67920  12.778  22.995   2.813
94853W        W67921  10.799  14.320   4.567
94854W        W67922  17.512  33.735  12.087
94855W        W67923  12.482   8.180   3.751
94856W        W67924  17.790  29.575   0.744
94857W        W67925  42.284  29.132  13.430
94858W        W67926  22.125  13.970  11.673
94859W        W67927  23.104  41.188   0.291
94860W        W67928  20.415   8.918   4.202
94861W        W67929  14.153   7.119   2.725
94862W        W67930  37.122  29.549  11.494
94863W        W67931  36.004  35.766   2.674
94864W        W67932  12.105  18.528   0.714
94865W        W67933  13.705   7.390   2.582
94866W        W67934  13.926  24.915   0.462
94867W        W67935  30.980  31.475   4.801
94868W        W67936  17.418  33.580  13.449
94869W        W67937  23.558  22.731  13.564
94870W        W67938   2.824  43.244   4.268
94871W        W67939  29.728  40.447   0.478
94872W        W67940  37.706  33.878  12.042
94873W        W67941  13.132  40.810  11.010
94874W        W67942  31.556  43.916  12.838
94875W        W67943  35.082   9.423  13.316
94876W        W67944   0.939  41.377  10.699
94877W        W67945  28.693  16.003   0.491
94878W        W67946  12.184  27.127   0.977
94879W        W67947  24.553  16.845   0.688
94880W        W67948   3.025  40.469   1.319
94881W        W67949  25.852  21.355   1.782
94882W        W67950  12.738  15.071  13.733
94883W        W67951  14.106  32.949   1.559
94884W        W67952   4.701  28.998   3.377
94885W        W67953  13.286  25.019  14.996
94886W        W67954  41.783  39.322   2.829
94887W        W67955   3.615  16.200  10.818
94888W        W67956  15.794  26.218   3.215
94889W        W67957  38.115  27.019   3.510
94890W        W67958  20.672  22.985  10.705
94891W        W67959  36.886   9.251  13.049
94892W        W67960  31.169  28.193  13.777
94893W        W67961   6.429  18.769   0.979
94894W        W67962  26.083  32.717   4.661
94895W        W67963   7.331  39.564  14.662
94896W        W67964  44.605  40.569   3.558
94897W        W67965  28.095  20.359  14.528
94898W        W67966  10.442  28.854   9.983
94899W        W67967  23.065  19.257  12.577
94900W        W67968  33.019  36.496   0.074
94901W        W67969  12.343  39.427   3.349
94902W        W67970   9.251  41.777  10.433
94903W        W67971   1.545  32.800   1.185
94904W        W67972  17.694  11.844  10.259
94905W        W67973   2.864   9.708  14.700
94906W        W67974   8.431  37.936   1.910
94907W        W67975  19.096  25.516   2.147
94908W        W67976  23.195  33.068   0.602
94909W        W67977   0.900   6.575   0.231
94910W        W67978  21.970  36.070  11.012
94911W        W67979  44.116  23.277  14.034
94912W        W67980  19.701   7.317   1.869
94913W        W67981  18.631  13.717   4.443
94914W        W67982   3.465  41.794   4.410
94915W        W67983  25.012  37.899   3.231
94916W        W67984  12.900  32.502  13.820
94917W        W67985   8.954   1.799   1.275
94918W        W67986  19.999  36.892  13.911
94919W        W67987  24.271  24.136   3.662
94920W        W67988  23.022   4.998  10.043
94921W        W67989   2.040  25.657   1.393
94922W        W67990   8.425  25.923  14.514
94923W        W67991  10.735   6.634  13.918
94924W        W67992  26.681  20.045   3.790
94925W        W67993  23.703   8.112   2.243
94926W        W67994  43.314  31.700  13.736
94927W        W67995  34.376  21.713  10.520
94928W        W67996  12.463  26.487   4.070
94929W        W67997  12.556   7.157   0.000
94930W        W67998  10.338  13.663   3.358
94931W        W67999  10.675  10.758  11.529
94932W        W68000  32.467  13.584  13.355
94933W        W68001  10.110  23.501   3.700
94934W        W68002   7.080  26.681  12.675
94935W        W68003  22.677   1.411   4.175
94936W        W68004   1.210   5.426  12.512
94937W        W68005  15.068  44.790  10.690
94938W        W68006  10.137  10.259   1.176
94939W        W68007  10.004   8.269  14.935
94940W        W68008  24.200   1.468  10.932
94941W        W68009  22.619   9.718  13.102
94942W        W68010  22.230  40.595  11.145
94943W        W68011  35.806  43.105   1.357
94944W        W68012  32.518  30.661   3.497
94945W        W68013  16.022   6.645   3.966
94946W        W68014  23.935  23.430   2.793
94947W        W68015  41.808   2.840  13.370
94948W        W68016   5.185  16.140   1.815
94949W        W68017  27.518  38.910   1.738
94950W        W68018  23.743  23.266  11.309
94951W        W68019  20.964  22.505   3.275
94952W        W68020  20.237  40.442  13.545
94953W        W68021  30.113  39.938  14.074
94954W        W68022  19.871  25.326  14.260
94955W        W68023  36.335  33.420  10.639
94956W        W68024  44.937  32.971   4.384
94957W        W68025  26.949  38.948  12.499
94958W        W68026  38.024  17.048  13.391
94959W        W68027   0.612  42.500  13.491
94960W        W68028   0.258  21.837   1.801
94961W        W68029  35.324  12.545  12.475
94962W        W68030  11.680  14.869   3.199
94963W        W68031  11.827   0.857   2.325
94964W        W68032  15.088   7.804   4.356
94965W        W68033  16.552  10.713   1.683
94966W        W68034  14.091  13.200   2.757
94967W        W68035  16.291  28.669  11.809
94968W        W68036   6.202   4.712  13.639
94969W        W68037  30.037   6.295   4.714
94970W        W68038  20.014  19.303  14.258
94971W        W68039  20.316  14.776  13.462
94972W        W68040  40.563  26.480   0.909
94973W        W68041  44.593  30.439   0.829
94974W        W68042   2.554  12.661   3.250
94975W        W68043   0.361  13.846   3.236
94976W        W68044   4.948   8.086   0.955
94977W        W68045   2.287  41.028   4.493
94978W        W68046  35.530  22.289   4.046
94979W        W68047  37.130  31.772   0.456
94980W        W68048  17.985  40.916  11.019
94981W        W68049  30.535  31.953   3.594
94982W        W68050  22.788   0.255   0.097
94983W        W68051  42.537  28.807   1.505
94984W        W68052  12.825  40.968  12.268
94985W        W68053  32.518  11.938   3.772
94986W        W68054  26.402  19.620   2.667
94987W        W68055  24.662  12.220  13.458
94988W        W68056   5.371  18.799  14.506
94989W        W68057  32.968   2.835   1.186
94990W        W68058  32.859  33.423   0.888
94991W        W68059  32.462   5.786  13.378
94992W        W68060  30.163  34.052   3.172
94993W        W68061  38.339  15.168   3.605
94994W        W68062  26.171   6.859  13.411
94995W        W68063  44.276   4.742   0.435
94996W        W68064  22.280  42.781  10.414
94997W        W68065  31.457  43.957   2.097
94998W        W68066   2.497  43.420  13.606
94999W        W68067  24.653  20.251   4.103
95000W        W68068  10.566   3.327   5.163
95001W        W68069   0.018  30.759   3.194
95002W        W68070  29.020  29.991  14.734
95003W        W68071  10.418   7.779   4.974
95004W        W68072  40.602   5.911  14.744
95005W        W68073  38.932   4.528  11.605
95006W        W68074  22.778  35.940   4.628
95007W        W68075  43.674  27.526  12.148
95008W        W68076   4.730  24.149   1.243
95009W        W68077  38.815  18.877  12.949
95010W        W68078  40.365  35.904   0.652
95011W        W68079   6.640  39.805   5.429
95012W        W68080  32.496  32.612  12.674
95013W        W68081   8.316  19.747   3.592
95014W        W68082  10.146  22.812   2.309
95015W        W68083   9.443  31.717   3.821
95016W        W68084  19.705  44.023   9.866
95017W        W68085  38.070   3.958  13.980
95018W        W68086  23.732  26.012  12.678
95019W        W68087  11.674  11.917   1.853
95020W        W68088  12.862  13.579   4.543
95021W        W68089  42.518  38.802   3.235
95022W        W68090  18.365   4.139   0.823
95023W        W68091   1.411  44.539   4.412
95024W        W68092  32.584  29.616   1.395
95025W        W68093  21.776  25.210   2.272
95026W        W68094  12.240  37.483  13.802
95027W        W68095  42.458  16.155  10.243
95028W        W68096   2.746  32.276   3.111
95029W        W68097  44.507  44.641  14.872
95030W        W68098   7.183  36.307  11.129
95031W        W68099  39.833  24.287  13.405
95032W        W68100  25.628   8.275   0.833
95033W        W68101  20.228  11.247  13.390
95034W        W68102   5.518  43.614   0.268
95035W        W68103  19.043  13.659   3.680
95036W        W68104  13.108  11.618   0.455
95037W        W68105   6.176  38.498  11.475
95038W        W68106  21.625   9.276   2.625
95039W        W68107  25.052  27.597  14.070
95040W        W68108  37.418  26.621  14.575
95041W        W68109  21.569  43.338   1.973
95042W        W68110   8.329  32.112   4.924
95043W        W68111  18.262  21.806   4.748
95044W        W68112  13.879  36.455  12.478
95045W        W68113  16.562  10.722   0.593
95046W        W68114  13.242  44.590   1.802
95047W        W68115  22.686  37.587  12.945
95048W        W68116  36.930  12.670   4.534
95049W        W68117  22.407  12.757   2.725
95050W        W68118  11.092  26.566   3.563
95051W        W68119  29.431  29.398   1.758
95052W        W68120   1.646  29.945   2.299
95053W        W68121  27.504  41.944  11.138
95054W        W68122  42.842   4.723   3.852
95055W        W68123   1.756  34.593  14.928
95056W        W68124  23.573   0.756  14.304
95057W        W68125   1.207  27.657   2.174
95058W        W68126  32.535   7.271   4.530
95059W        W68127  13.576  38.089   3.157
95060W        W68128   6.814  23.810   0.326
95061W        W68129  34.506   3.397  10.621
95062W        W68130  42.957  25.796   4.567
95063W        W68131  21.482  22.056   3.247
95064W        W68132  14.127   2.700  12.504
95065W        W68133  36.935  33.982  13.037
95066W        W68134   7.756  41.481   0.306
95067W        W68135   5.394  40.434   3.174
95068W        W68136  26.098  43.809  14.520
95069W        W68137  41.294  40.996  11.969
95070W        W68138  21.408  43.768   0.263
95071W        W68139  44.415   1.196  13.098
95072W        W68140   5.928  33.892  14.565
95073W        W68141   7.426  10.316  12.135
95074W        W68142  38.531   5.936  14.639
95075W        W68143   0.330  34.707   1.982
95076W        W68144  22.141  15.428  13.931
95077W        W68145  24.175  27.036  14.762
95078W        W68146  31.940  21.775   2.292
95079W        W68147  36.888  23.651  11.113
95080W        W68148   5.941   5.041   4.300
95081W        W68149   0.971  35.213  11.595
95082W        W68150  44.057   1.760   2.979
95083W        W68151  36.565  24.138  14.452
95084W        W68152  14.219  20.426  10.656
95085W        W68153   7.804  27.741  11.514
95086W        W68154  19.317   5.241  14.051
95087W        W68155  33.499  27.431   4.713
95088W        W68156   4.791   3.843   1.422
95089W        W68157  19.517  41.948  13.508
95090W        W68158  39.033  34.909   0.322
95091W        W68159  29.677   9.769  11.045
95092W        W68160  32.757  20.246  11.995
95093W        W68161  21.523  33.510   0.775
95094W        W68162  25.974  39.803  14.433
95095W        W68163  10.839  38.225   1.738
95096W        W68164   1.019  30.533   4.129
95097W        W68165  41.416  37.159   1.036
95098W        W68166   0.958  22.686  13.336
95099W        W68167  25.967   0.070   1.349
95100W        W68168  29.136  25.909  11.042
95101W        W68169   0.404  41.190   2.784
95102W        W68170   4.740  17.743  13.875
95103W        W68171  30.979   2.156  12.072
95104W        W68172  39.912  44.355  10.865
95105W        W68173  22.593  36.266   2.716
95106W        W68174  37.467  34.303   1.421
95107W        W68175  16.778  13.628  12.603
95108W        W68176  25.117   8.393   0.985
95109W        W68177  44.802  24.701   3.840
95110W        W68178  25.654  21.092  13.482
95111W        W68179  17.568  22.472   1.976
95112W        W68180  34.237  17.303   2.428
95113W        W68181  32.040  36.580   0.908
95114W        W68182  12.856  23.986  12.126
95115W        W68183   1.923  13.850   0.864
95116W        W68184   0.080  17.211  13.199
95117W        W68185   0.747   9.266   1.434
95118W        W68186  37.423   1.339   3.134
95119W        W68187  33.878  26.745  11.603
95120W        W68188  12.227   3.933   2.799
95121W        W68189   3.026  16.591   3.506
95122W        W68190  10.377  19.841   3.142
95123W        W68191  34.200   4.305   3.249
95124W        W68192  32.546  22.163   0.850
95125W        W68193  19.681  22.422  12.992
95126W        W68194  34.494  11.293   3.078
95127W        W68195  24.471   5.931   1.128
95128W        W68196  44.244  36.967  11.407
95129W        W68197  31.139  25.410  14.302
95130W        W68198  33.958  17.074  10.275
95131W        W68199   8.514  41.876  11.479
95132W        W68200  44.397  15.979   1.218
95133W        W68201  43.021  11.914  12.129
95134W        W68202   0.557   3.075  12.146
95135W        W68203   6.723  30.479   2.785
95136W        W68204  26.779  32.859   2.951
95137W        W68205  34.870  26.103  13.872
95138W        W68206  24.010   6.199  11.950
95139W        W68207   9.239  26.954   3.245
95140W        W68208  17.640  10.693  11.513
95141W        W68209  13.797  10.842   2.757
95142W        W68210  16.608  21.029   3.912
95143W        W68211  28.061  31.426  14.478
95144W        W68212  37.556  37.917   2.734
95145W        W68213  20.609  18.563  11.992
95146W        W68214  25.435  18.566   4.328
95147W        W68215  16.273  26.222   1.311
95148W        W68216  25.507  28.674   0.896
95149W        W68217   2.288  23.365   2.867
95150W        W68218  14.766  38.042   0.085
95151W        W68219  26.052   2.993  13.343
95152W        W68220  14.068  22.234  11.693
95153W        W68221  39.431  37.539   1.767
95154W        W68222  13.292   2.805   4.913
95155W        W68223  29.063  30.986  13.100
95156W        W68224  11.459  13.003   3.131
95157W        W68225  39.392  20.713   0.302
95158W        W68226  41.358  35.307  14.437
95159W        W68227  12.238  41.448   1.459
95160W        W68228   8.089  40.004  14.888
95161W        W68229   6.903  23.341  13.101
95162W        W68230  42.248  23.493  14.000
95163W        W68231   0.307   4.155  11.609
95164W        W68232  28.244  14.693  14.453
95165W        W68233  27.078   4.367  13.803
95166W        W68234   2.112  35.550   1.831
95167W        W68235  19.540  16.168  13.520
95168W        W68236   1.618  12.691   1.753
95169W        W68237  27.793  31.467   3.295
95170W        W68238   2.810  18.102  12.348
95171W        W68239  21.182   8.225   3.014
95172W        W68240   2.927  27.525  12.445
95173W        W68241  44.900  30.492   1.286
95174W        W68242  41.086  41.966   3.702
95175W        W68243   0.314  44.139   2.635
95176W        W68244  44.003  13.873   0.777
95177W        W68245  23.711  28.496   0.335
95178W        W68246  15.222   1.779   1.327
95179W        W68247  13.197  30.547   1.067
95180W        W68248  28.950  37.650   3.723
95181W        W68249   5.332  12.168   0.853
95182W        W68250  23.459  43.039   3.626
95183W        W68251  39.482  33.104   3.743
95184W        W68252   5.465  21.021   0.281
95185W        W68253   8.201  10.594   2.760
95186W        W68254  37.820  37.047  11.130
95187W        W68255  19.647  40.877  11.655
95188W        W68256  10.775  18.019   4.333
95189W        W68257  17.679  10.775   2.629
95190W        W68258  25.940   3.778  13.778
95191W        W68259  40.983  40.041   0.427
95192W        W68260   3.024   4.108   2.280
95193W        W68261  17.972  31.460   2.151
95194W        W68262  11.117  34.617  11.573
95195W        W68263  23.020   7.635  13.552
95196W        W68264  41.041  31.850   2.003
95197W        W68265  41.744  35.584   3.188
95198W        W68266  32.025   2.208   3.032
95199W        W68267  32.806   6.026  13.756
95200W        W68268  27.897  13.685   0.231
95201W        W68269   6.175  39.880  11.459
95202W        W68270   7.871  10.764   2.156
95203W        W68271  43.387  25.234  11.183
95204W        W68272  42.692  39.321   1.779
95205W        W68273  22.510  24.921  13.356
95206W        W68274  34.314  18.657   0.213
95207W        W68275  23.805  20.656  11.121
95208W        W68276   9.258  40.547   0.250
95209W        W68277  29.108   7.828  14.322
95210W        W68278   8.210  17.560  13.850
95211W        W68279  20.532   0.092   0.714
95212W        W68280   4.396  25.286  13.391
95213W        W68281  42.480  41.945   0.409
95214W        W68282  29.186  28.492  11.870
95215W        W68283  21.433  39.689   4.248
95216W        W68284  28.700  13.330  12.069
95217W        W68285   8.333  35.512  14.116
95218W        W68286  27.852  39.597  12.618
95219W        W68287  29.617  40.516  11.526
95220W        W68288  19.165  36.878   2.253
95221W        W68289  27.189  28.429  12.891
95222W        W68290  16.421  14.595  13.370
95223W        W68291  39.998  36.152   0.978
95224W        W68292  41.805  16.127  12.591
95225W        W68293  35.636  32.843   0.406
95226W        W68294  13.299  27.859   5.063
95227W        W68295   3.877  40.812   2.436
95228W        W68296  32.692  31.101   3.752
95229W        W68297  23.572   6.203   4.260
95230W        W68298   0.914   9.859  14.868
95231W        W68299  30.425  36.905   0.951
95232W        W68300  24.527  31.541   3.748
95233W        W68301  31.911   6.887  11.185
95234W        W68302  15.227  41.972   2.949
95235W        W68303  33.513  30.925   0.427
95236W        W68304  31.045  24.171  13.812
95237W        W68305  13.840  24.107  10.649
95238W        W68306  20.679   5.841   1.467
95239W        W68307   7.982  30.029  13.550
95240W        W68308  33.651  43.436   1.983
95241W        W68309  10.895  32.374  13.364
95242W        W68310  29.909  21.862   3.119
95243W        W68311   7.929  28.198  14.829
95244W        W68312   3.233  26.529  14.539
95245W        W68313  27.691  10.662  12.144
95246W        W68314  41.050  34.116  14.979
95247W        W68315  27.642  16.807   3.690
95248W        W68316  17.076   5.459   1.507
95249W        W68317  41.933  22.256  12.077
95250W        W68318  22.661  22.061   0.887
95251W        W68319  28.547  19.316  14.748
95252W        W68320  39.294  12.206   3.186
95253W        W68321   4.501  44.996  12.076
95254W        W68322  42.808  43.327  12.797
95255W        W68323   1.912  12.165  12.037
95256W        W68324   8.619  23.298  12.669
95257W        W68325   9.251  24.484  14.366
95258W        W68326  28.428  28.117  10.568
95259W        W68327   8.400  44.560   1.371
95260W        W68328   0.270  42.718   3.862
95261W        W68329  27.066   6.269   3.399
95262W        W68330  10.974  40.131   2.868
95263W        W68331  31.468  21.783  13.905
95264W        W68332  18.805  22.364   2.935
95265W        W68333  34.286  36.360  14.493
95266W        W68334  43.210  22.667   1.932
95267W        W68335  36.101  16.663   1.288
95268W        W68336  26.728   1.371   1.824
95269W        W68337  25.213  27.172  11.173
95270W        W68338  10.427   7.368   3.195
95271W        W68339  33.501  29.046   4.765
95272W        W68340  30.403  18.040  11.162
95273W        W68341  32.543  21.457  11.449
95274W        W68342  28.714  27.433   2.955
95275W        W68343   6.696  44.809   2.698
95276W        W68344  40.540  44.415   2.738
95277W        W68345  17.150   6.875  10.019
95278W        W68346   0.405  44.876  10.634
95279W        W68347   5.658  15.099   0.076
95280W        W68348  21.280  11.784  10.816
95281W        W68349  11.166  40.426   0.257
95282W        W68350   8.365   0.431  13.384
95283W        W68351  40.526   5.382  11.167
95284W        W68352   8.926  12.137   0.868
95285W        W68353  29.805   7.006  12.996
95286W        W68354  30.550  27.217   3.678
95287W        W68355  16.385   7.955  12.536
95288W        W68356  17.059   4.055   0.730
95289W        W68357  31.052  14.623   0.437
95290W        W68358  14.321  12.605   0.427
95291W        W68359   4.836  44.827   1.000
95292W        W68360  13.138  37.260   1.635
95293W        W68361  39.947  26.178   3.881
95294W        W68362  27.719  27.521   2.744
95295W        W68363  13.280   5.441  11.445
95296W        W68364   6.231  39.288  12.360
95297W        W68365  18.882  24.758   3.202
95298W        W68366  19.928  21.070  12.576
95299W        W68367  10.861  44.655   0.052
95300W        W68368  40.167   4.824   3.334
95301W        W68369  30.016   8.731  11.152
95302W        W68370   1.972  23.849  11.788
95303W        W68371  31.126  20.157   3.527
95304W        W68372   6.482  35.938   3.525
95305W        W68373  31.587  34.416  13.957
95306W        W68374   7.875  41.298  12.307
95307W        W68375   6.141  12.345   4.228
95308W        W68376  13.117  44.917   0.096
95309W        W68377  24.983  27.055  14.438
95310W        W68378  21.069  19.086   0.370
95311W        W68379  27.697  26.684   3.714
95312W        W68380  18.283  41.522  10.729
95313W        W68381  31.573   4.182  14.946
95314W        W68382  33.094  42.557   0.299
95315W        W68383  27.078  24.473  12.558
95316W        W68384  39.866  16.261  10.301
95317W        W68385  29.226  25.086   4.530
95318W        W68386  34.554  23.313   1.934
95319W        W68387  42.743  19.248   1.899
95320W        W68388  26.213  11.126  14.456
95321W        W68389  21.504  40.858  13.304
95322W        W68390  38.378   8.396   3.698
95323W        W68391  36.953  17.297   1.900
95324W        W68392  23.232   8.710  11.059
95325W        W68393  35.521  20.478   4.709
95326W        W68394  44.745  39.501  11.560
95327W        W68395  20.600   2.689  11.518
95328W        W68396  22.124   4.888   2.899
95329W        W68397  32.595  40.972  11.377
95330W        W68398  19.160   4.248   1.816
95331W        W68399  24.751  14.192   1.180
95332W        W68400   1.524  33.183   0.849
95333W        W68401   7.320  11.383  11.077
95334W        W68402  32.988  42.800   1.503
95335W        W68403  40.607   2.784   3.826
95336W        W68404   3.364  18.547   2.832
95337W        W68405  38.003  15.955   0.854
95338W        W68406   2.721   9.560  14.209
95339W        W68407   9.137   9.136   0.515
95340W        W68408   5.816   6.857   4.505
95341W        W68409   7.404  10.838  11.958
95342W        W68410  33.823  21.609   1.152
95343W        W68411  33.460  17.492  10.001
95344W        W68412  25.665   0.231   3.511
95345W        W68413  42.205   0.261  13.392
95346W        W68414  22.229  22.510  13.378
95347W        W68415  10.421   5.754   2.694
95348W        W68416  39.873  35.654  14.316
95349W        W68417   4.355  31.219   3.715
95350W        W68418  12.710  26.995  13.953
95351W        W68419   8.875  33.777  11.955
95352W        W68420  17.868   1.835  11.178
95353W        W68421  25.516  21.740   4.498
95354W        W68422  39.573  31.997   3.613
95355W        W68423  10.811  17.556   1.980
95356W        W68424   3.488  11.164   3.723
95357W        W68425  38.425  41.810  13.360
95358W        W68426  19.948   9.209   1.170
95359W        W68427  16.894  40.511   0.874
95360W        W68428   4.178   8.582   2.016
95361W        W68429  10.764  17.194   0.702
95362W        W68430  24.621  38.316  14.479
95363W        W68431   4.255  16.391   0.273
95364W        W68432  31.560  37.869  14.920
95365W        W68433  25.168   9.241   3.641
95366W        W68434  24.729  21.000  14.458
95367W        W68435   8.495  26.909  14.314
95368W        W68436  44.467  16.602   4.749
95369W        W68437   2.427  15.504  14.487
95370W        W68438  32.037  23.197  14.701
95371W        W68439  33.105  18.230  13.516
95372W        W68440  35.613   5.342   2.326
95373W        W68441  12.877  17.151  14.478
95374W        W68442  21.584   9.382  13.872
95375W        W68443  10.166  38.098   0.992
95376W        W68444  21.266  16.836  10.607
95377W        W68445  30.837  44.421  10.896
95378W        W68446  19.156   5.261   3.896
95379W        W68447  24.509  24.751  13.169
95380W        W68448  44.454   7.362  12.567
95381W        W68449  39.329  26.965  12.110
95382W        W68450  24.770  27.364   2.188
95383W        W68451  28.218  33.675  12.996
95384W        W68452  17.201  17.366   3.740
95385W        W68453  25.640  31.979   0.744
95386W        W68454  28.021  42.391  12.899
95387W        W68455  22.560  32.720   3.631
95388W        W68456   1.127  25.713   2.834
95389W        W68457  35.326  24.563  14.469
95390W        W68458  32.080   0.735  12.581
95391W        W68459  34.875  26.965  12.837
95392W        W68460  42.461  12.279  13.049
95393W        W68461  24.092  10.936   0.881
95394W        W68462  37.855  27.609  14.493
95395W        W68463  39.188  39.384  11.814
95396W        W68464   6.935   7.630  11.156
95397W        W68465  12.661  34.544   3.637
95398W        W68466  17.644   6.796  14.312
95399W        W68467   0.254  24.458   3.785
95400W        W68468   9.866  44.390   2.805
95401W        W68469  12.056  26.680  13.046
95402W        W68470  16.807  36.619  14.035
95403W        W68471  34.599  28.993  11.612
95404W        W68472  39.946  13.317   1.670
95405W        W68473  35.819  43.173  11.017
95406W        W68474  41.952  18.901   4.452
95407W        W68475  12.665   4.422  11.433
95408W        W68476  41.462   3.680   4.085
95409W        W68477  18.947  10.360   4.321
95410W        W68478  35.883   6.125  13.890
95411W        W68479   6.341  15.488  13.457
95412W        W68480  12.744  21.437   2.535
95413W        W68481   7.019  12.653  13.453
95414W        W68482   8.778  32.047  11.824
95415W        W68483  10.099   7.800   3.110
95416W        W68484  40.869  30.162   4.625
95417W        W68485   4.598  20.169  13.950
95418W        W68486  12.236  36.057  14.240
95419W        W68487  12.876  28.011   4.225
95420W        W68488  24.704  25.169  12.513
95421W        W68489   4.427  35.570  12.232
95422W        W68490  12.411  44.374  10.709
95423W        W68491  36.363  24.695   3.246
95424W        W68492  42.421  36.025  13.451
95425W        W68493  25.977  21.660  11.598
95426W        W68494  33.265  26.956  14.911
95427W        W68495  37.069  32.745   0.306
95428W        W68496  29.408  30.993  13.494
95429W        W68497   4.459  24.190  14.579
95430W        W68498  40.391  12.311  10.517
95431W        W68499   7.400   1.187   4.661
95432W        W68500  23.018  27.284  12.895
95433W        W68501  38.780  30.104   3.738
95434W        W68502  24.104  20.501   0.852
95435W        W68503  26.302  20.738  14.592
95436W        W68504   0.353  25.713   3.120
95437W        W68505   5.692   8.615  13.028
95438W        W68506  18.036  32.143  11.577
95439W        W68507   9.707   5.395  10.729
95440W        W68508  38.501  16.370  13.368
95441W        W68509  12.646  41.892   4.792
95442W        W68510  11.245  43.535  12.039
95443W        W68511  43.354   8.702  12.573
95444W        W68512  43.000  41.857   2.785
95445W        W68513  32.769  20.810  11.944
95446W        W68514  26.530   8.674  12.002
95447W        W68515   7.626  19.516   1.826
95448W        W68516   7.776  11.878  11.004
95449W        W68517  33.197   9.382   4.124
95450W        W68518  11.369  26.641   0.236
95451W        W68519  26.293   3.260  10.453
95452W        W68520  18.063  30.336   2.888
95453W        W68521  24.112  30.133   0.154
95454W        W68522  19.669  31.956  14.994
95455W        W68523   2.684  19.629  11.055
95456W        W68524   5.890  35.130  14.057
95457W        W68525  27.297   9.789  11.585
95458W        W68526   2.761  12.720   1.091
95459W        W68527  40.527  25.258  10.423
95460W        W68528  34.548  19.073   2.861
95461W        W68529  19.308  26.620   0.750
95462W        W68530   0.353  28.889  14.059
95463W        W68531  39.864   6.330   9.891
95464W        W68532   6.524  29.019   5.082
95465W        W68533  41.710   0.725   2.639
95466W        W68534  44.470  36.782  14.572
95467W        W68535  41.503   8.691   2.179
95468W        W68536  12.018  10.938  13.411
95469W        W68537   2.800  24.601   0.651
95470W        W68538  24.149  23.229  13.951
95471W        W68539  35.486  35.986   0.827
95472W        W68540  13.336   5.784  10.939
95473W        W68541  30.982  25.072  11.501
95474W        W68542  17.298  41.457  13.706
95475W        W68543  41.815  32.498  12.411
95476W        W68544  30.464  22.226  14.375
95477W        W68545   0.830  12.240   1.776
95478W        W68546  42.414  23.122  14.844
95479W        W68547   9.662  23.002   4.897
95480W        W68548   5.667  33.242  12.403
95481W        W68549  19.228  35.997   4.682
95482W        W68550   2.892  33.942   4.852
95483W        W68551  19.482  43.890  10.747
95484W        W68552   1.809  29.881  10.774
95485W        W68553  23.402   6.681   3.151
95486W        W68554  37.473   6.188  11.590
95487W        W68555  39.953  25.812  12.170
95488W        W68556  23.907  28.527   1.875
95489W        W68557  16.270  30.440  10.704
95490W        W68558  40.994  11.807   0.944
95491W        W68559  18.647  25.159   4.165
95492W        W68560  21.404  16.780  10.000
95493W        W68561   7.448   1.466   3.762
95494W        W68562  27.435  13.458   0.330
95495W        W68563   1.215   1.705   2.380
95496W        W68564  20.123  18.290  10.318
95497W        W68565  21.507   9.977  13.923
95498W        W68566  26.759  22.587   3.283
95499W        W68567  27.652  44.333   1.670
95500W        W68568  40.975   1.225   1.792
95501W        W68569  22.518  10.186   1.168
95502W        W68570  25.300  37.523   9.585
95503W        W68571  22.252  44.882  13.386
95504W        W68572  20.230  30.555  11.468
95505W        W68573  29.454  12.156   4.280
95506W        W68574   7.336  41.999  14.483
95507W        W68575  13.643  30.528   3.646
95508W        W68576   6.852   0.439  12.584
95509W        W68577  35.810  37.793   2.640
95510W        W68578  24.746  15.228  12.961
95511W        W68579  43.783  33.407  14.306
95512W        W68580  18.214  20.512   3.905
95513W        W68581  24.055  42.841   1.859
95514W        W68582  16.635  25.238   1.012
95515W        W68583  28.582  38.958  14.282
95516W        W68584   1.049  28.232   1.669
95517W        W68585  29.319  19.277   2.371
95518W        W68586  11.321  32.679  12.467
95519W        W68587   8.647   3.694   1.892
95520W        W68588  21.975   9.199   3.525
95521W        W68589  33.635  35.388  14.272
95522W        W68590  11.866  30.169   0.836
95523W        W68591  29.495  40.829  11.141
95524W        W68592  21.714  17.704  14.809
95525W        W68593   0.890  43.492  10.758
95526W        W68594  18.556  25.592   1.246
95527W        W68595  25.114   3.756  10.724
95528W        W68596   9.368  20.412   2.388
95529W        W68597  31.025  42.955   3.573
95530W        W68598  27.691   3.974  13.345
95531W        W68599   2.166  30.098   4.590
95532W        W68600  20.112   2.102  11.448
95533W        W68601   4.404  17.840  11.185
95534W        W68602   3.195   2.867  11.941
95535W        W68603  15.672  18.194   0.505
95536W        W68604  37.288   3.389  14.913
95537W        W68605  42.873  19.555   2.309
95538W        W68606   8.192  18.863  14.288
95539W        W68607  20.803  18.645   0.320
95540W        W68608  31.490   8.421  11.925
95541W        W68609  42.944  18.733   4.055
95542W        W68610  20.332  25.662   0.854
95543W        W68611  23.594  29.979   2.698
95544W        W68612  28.012  25.502   2.332
95545W        W68613  22.095   3.787  10.858
95546W        W68614  24.235  18.697   4.470
95547W        W68615   0.987  40.338  10.695
95548W        W68616  20.759  44.833  13.643
95549W        W68617   1.450  41.334  10.711
95550W        W68618  22.137   0.712  12.427
95551W        W68619  27.596  37.263   4.785
95552W        W68620  13.481  39.549  11.034
95553W        W68621  18.142  16.765  14.639
95554W        W68622  17.320  26.964   0.634
95555W        W68623  16.600   6.734  13.642
95556W        W68624  35.639  15.401  13.435
95557W        W68625  18.485  24.220   3.147
95558W        W68626  20.301   3.735   4.578
95559W        W68627  39.818  18.029   2.747
95560W        W68628  18.653  34.027  11.126
95561W        W68629  42.459  20.471  12.949
95562W        W68630  14.831  31.311  14.989
95563W        W68631  26.436   9.339  12.426
95564W        W68632   6.392  13.248  12.047
95565W        W68633  15.910  38.877  11.411
95566W        W68634  26.715  43.481  11.509
95567W        W68635  26.620  34.095   2.925
95568W        W68636  31.621   4.833   2.393
95569W        W68637   8.621  10.266   3.728
95570W        W68638   2.915  15.242   0.882
95571W        W68639  32.512  16.843   0.258
95572W        W68640  33.451  41.696  12.072
95573W        W68641  10.716   5.926  12.825
95574W        W68642  12.433  40.401  14.575
95575W        W68643  26.847   8.240  14.248
95576W        W68644  19.513  34.081   3.072
95577W        W68645  34.288  43.417  11.193
95578W        W68646  40.558   6.559   5.142
95579W        W68647  25.602  43.310  10.789
95580W        W68648  15.617   4.081  11.216
95581W        W68649  12.985   6.985   1.369
95582W        W68650  41.515  20.737  12.445
95583W        W68651  25.173  12.578  14.791
95584W        W68652  29.388  43.313  11.120
95585W        W68653  33.888   0.989  11.054
95586W        W68654  20.625  19.134   1.636
95587W        W68655   0.245   6.326   0.936
95588W        W68656  19.305   4.924   3.202
95589W        W68657   8.205  42.494  14.931
95590W        W68658  29.061  32.415   2.318
95591W        W68659  16.315  13.359  13.043
95592W        W68660  22.644   9.272  10.601
95593W        W68661  13.712   4.274  11.235
95594W        W68662  23.295  43.852  12.037
95595W        W68663  11.026  17.766   5.312
95596W        W68664  16.132  18.884  13.310
95597W        W68665   8.415  13.279  12.542
95598W        W68666  12.708  38.729   1.291
95599W        W68667  37.811  39.387   0.681
95600W        W68668  41.229   2.776  12.533
95601W        W68669  44.650  35.532  11.947
95602W        W68670  36.313  40.065   3.331
95603W        W68671  25.763  28.866  11.947
95604W        W68672   1.990  22.012   0.632
95605W        W68673  11.152   4.320   1.400
95606W        W68674  17.121  44.388   1.718
95607W        W68675  40.578  34.947  11.218
95608W        W68676   2.998  11.525  11.014
95609W        W68677  10.630  29.250  14.614
95610W        W68678  14.952  26.154  12.213
95611W        W68679  10.304  33.608  11.252
95612W        W68680  17.841  29.133   0.449
95613W        W68681  34.412   1.791   3.738
95614W        W68682   6.175  36.826  12.475
95615W        W68683  41.429  20.159   4.120
95616W        W68684  13.319  39.561  11.545
95617W        W68685   3.854  43.444   5.000
95618W        W68686  37.299  18.852   4.092
95619W        W68687  31.651   4.853   3.813
95620W        W68688  35.093  34.576  11.510
95621W        W68689  42.014  25.306  12.056
95622W        W68690  37.668   5.690  14.926
95623W        W68691  38.825   3.142  13.357
95624W        W68692  43.329   5.304  14.069
95625W        W68693  36.099  26.542   4.121
95626W        W68694  42.776  15.075   1.017
95627W        W68695   9.829  27.004   4.794
95628W        W68696   7.335  25.866  11.157
95629W        W68697  17.590   1.213   1.801
95630W        W68698  39.799  13.681  12.435
95631W        W68699  25.016  17.338  12.581
95632W        W68700  28.659   1.402  14.624
95633W        W68701   0.956  20.926   0.940
95634W        W68702  28.577  27.375   4.923
95635W        W68703   5.370  18.749   0.349
95636W        W68704   3.279  29.494  14.950
95637W        W68705   1.919   0.599   2.858
95638W        W68706  11.293  13.153   3.596
95639W        W68707  36.323   5.393  13.081
95640W        W68708  23.641  29.745  12.443
95641W        W68709  19.308  38.482  11.643
95642W        W68710  36.200  23.275  10.632
95643W        W68711  34.616  22.526  13.318
95644W        W68712  42.967  39.082   3.311
95645W        W68713  33.898  40.588  12.119
95646W        W68714   9.476  43.119   1.534
95647W        W68715  21.993   9.736  13.827
95648W        W68716  41.014   7.315   1.032
95649W        W68717  12.897   5.720  11.233
95650W        W68718  23.882   1.954  14.724
95651W        W68719  42.403  19.822  13.600
95652W        W68720   1.815  19.653   1.659
95653W        W68721   5.794  40.008   0.430
95654W        W68722  40.541  34.068   3.185
95655W        W68723  31.588  39.402  10.638
95656W        W68724   1.244  30.260   0.491
95657W        W68725  10.358  39.042   2.509
95658W        W68726  28.949  20.461  12.338
95659W        W68727  40.261  38.984   1.865
95660W        W68728  36.599  23.946  10.087
95661W        W68729  23.529   9.936   3.812
95662W        W68730  10.146  33.889  11.654
95663W        W68731  30.424  15.272   4.647
95664W        W68732  23.633  17.211  10.542
95665W        W68733   9.279  21.425  12.975
95666W        W68734  30.660  35.172   2.835
95667W        W68735   6.613   0.788   4.237
95668W        W68736  29.586  30.841   4.625
95669W        W68737   7.819  38.445   4.133
95670W        W68738  21.617  39.820   3.773
95671W        W68739  17.781  14.335   4.101
95672W        W68740  43.959   0.876  13.318
95673W        W68741  35.205  34.566   2.687
95674W        W68742  39.386  39.213  14.363
95675W        W68743  33.377  11.808   0.926
95676W        W68744  30.350   2.506   2.953
95677W        W68745  22.351  16.731   3.738
95678W        W68746  40.552   8.805   2.635
95679W        W68747  14.731   7.606   4.655
95680W        W68748  41.508  20.459  13.835
95681W        W68749   5.373  19.284  13.484
95682W        W68750  14.889  29.160   3.890
95683W        W68751  12.881  31.866   9.867
95684W        W68752  19.958   2.506  13.442
95685W        W68753  30.476  36.474   3.437
95686W        W68754   4.636  30.584   0.805
95687W        W68755  21.246   6.636  12.079
95688W        W68756  22.080   4.872  13.436
95689W        W68757   6.253  11.433   4.616
95690W        W68758  25.626  41.933  13.328
95691W        W68759  37.023   2.957  12.588
95692W        W68760  18.584  25.201  14.016
95693W        W68761   9.951   4.152   3.775
95694W        W68762  12.726  30.787   2.450
95695W        W68763  14.590  18.679  13.023
95696W        W68764  28.427  19.218   2.422
95697W        W68765  14.676  31.876   2.244
95698W        W68766  24.971   9.223  14.983
95699W        W68767   0.016  41.928   2.882
95700W        W68768  25.739  38.829  12.716
95701W        W68769  16.642  30.876   0.543
95702W        W68770  24.617  28.665  12.520
95703W        W68771  40.281  21.201   1.834
95704W        W68772  33.588   5.975  13.868
95705W        W68773  20.228  17.343  12.455
95706W        W68774  31.276  18.230  12.042
95707W        W68775  41.052  12.597  14.417
95708W        W68776  11.617  35.989  12.711
95709W        W68777  23.837  42.834   2.798
95710W        W68778  34.787  41.239   3.638
95711W        W68779  36.106  30.148   2.816
95712W        W68780  14.367  20.039  12.993
95713W        W68781  11.485  24.515   1.441
95714W        W68782  39.890  36.081   0.480
95715W        W68783  39.559  34.176  10.736
95716W        W68784  13.222  41.824   2.457
95717W        W68785   0.797  36.551  12.898
95718W        W68786  40.992  17.798  12.461
95719W        W68787  25.188  23.064   4.215
95720W        W68788   5.946  18.175   1.392
95721W        W68789   9.641  41.518   5.026
95722W        W68790  40.456  31.238  12.522
95723W        W68791  33.408  39.899   1.373
95724W        W68792  33.346  12.686   2.021
95725W        W68793  13.563  12.743  12.947
95726W        W68794  36.482  11.737  13.336
95727W        W68795  19.280  17.668   4.127
95728W        W68796   8.682  28.078   3.715
95729W        W68797   5.334  37.371   1.847
95730W        W68798  15.703   6.914   4.285
95731W        W68799  29.061  33.995   3.046
95732W        W68800   6.676  15.171   3.766
95733W        W68801   9.133  33.828  12.934
95734W        W68802   1.373  30.957   3.195
95735W        W68803  31.945   6.561  13.283
95736W        W68804   1.351  25.747  10.581
95737W        W68805  31.339  17.309  13.993
95738W        W68806  31.723   4.843  14.459
95739W        W68807  33.026  11.750  10.809
95740W        W68808  33.344   0.324   0.539
95741W        W68809  18.801  40.599   0.820
95742W        W68810  18.146  28.915  11.063
95743W        W68811  30.063  20.443   4.488
95744W        W68812   7.876  37.074  13.115
95745W        W68813   7.462  17.780   4.293
95746W        W68814  13.359  29.613  12.474
95747W        W68815   1.513  32.509  14.327
95748W        W68816  30.334  34.407   3.995
95749W        W68817  43.181  34.915  12.499
95750W        W68818  26.703  44.985   0.270
95751W        W68819   1.348  28.239   2.635
95752W        W68820  25.439  21.776  12.472
95753W        W68821   9.808  14.336   4.507
95754W        W68822  34.426  22.805   4.174
95755W        W68823  24.473   1.920   2.674
95756W        W68824  28.378  32.485  13.609
95757W        W68825  33.205  12.295  13.482
95758W        W68826  38.857  29.214   0.797
95759W        W68827  40.346   9.558   4.863
95760W        W68828  19.296   1.618  11.138
95761W        W68829  37.856  12.311   3.772
95762W        W68830  15.133  39.733   2.864
95763W        W68831  13.623  30.923   2.838
95764W        W68832  37.043  20.794  10.606
95765W        W68833   6.135  23.620  11.501
95766W        W68834   0.944  32.485   0.737
95767W        W68835  41.030  22.283   1.466
95768W        W68836  36.845  25.886  10.972
95769W        W68837  44.711  28.594   2.778
95770W        W68838  26.661  41.244   4.064
95771W        W68839  33.441  26.599   2.704
95772W        W68840   9.262  18.883  12.332
95773W        W68841   7.340  28.919  11.141
95774W        W68842  36.941  44.192  13.442
95775W        W68843  15.284   3.598  14.365
95776W        W68844  22.155   3.037  12.672
95777W        W68845  13.388  42.965  12.882
95778W        W68846  15.395  19.658  12.160
95779W        W68847  38.158  34.826  12.851
95780W        W68848  35.851   8.784  11.579
95781W        W68849  19.243  27.114   0.504
95782W        W68850  16.506  40.878   2.859
95783W        W68851  29.069  18.973  14.575
95784W        W68852   2.923  26.760   3.718
95785W        W68853   9.973  19.527   3.206
95786W        W68854   8.149  39.452  12.098
95787W        W68855  28.717  26.717  12.490
95788W        W68856  16.536  41.760   2.699
95789W        W68857  20.720  29.526  11.104
95790W        W68858  20.606  36.613   4.527
95791W        W68859  25.683  23.228   2.912
95792W        W68860  44.404  25.061  12.857
95793W        W68861   0.768  10.001   2.811
95794W        W68862  14.705  25.057  13.512
95795W        W68863   9.730  14.713  14.746
95796W        W68864  10.616  11.365  13.324
95797W        W68865  30.598  38.263  14.012
95798W        W68866  14.549   4.677   4.748
95799W        W68867  20.249  33.350   1.019
95800W        W68868  25.556  41.076   2.371
95801W        W68869   4.530   2.284  13.892
95802W        W68870  13.749  18.656  14.493
95803W        W68871  10.573  29.614   0.374
95804W        W68872  25.030   1.357   3.127
95805W        W68873   4.261  21.795  12.964
95806W        W68874  12.266  23.065  13.901
95807W        W68875  31.875   4.643  11.589
95808W        W68876  26.555  25.070   1.390
95809W        W68877  42.083  35.111   0.441
95810W        W68878  12.329  33.332  11.921
95811W        W68879  11.975  34.123   4.052
95812W        W68880   8.506   5.060  12.476
95813W        W68881  35.119   6.134  12.055
95814W        W68882   1.231  37.639   2.651
95815W        W68883  32.163  11.322  13.213
95816W        W68884  35.835  31.377   1.667
95817W        W68885  43.835  16.172  11.184
95818W        W68886   5.321  44.432  12.902
95819W        W68887  16.418   0.417   1.443
95820W        W68888  17.357   0.899   3.074
95821W        W68889  30.580  18.317   2.704
95822W        W68890   3.872  25.409  13.375
95823W        W68891   1.481  29.969  11.953
95824W        W68892  15.309  16.273   2.765
95825W        W68893   5.924   2.205   3.630
95826W        W68894  21.330  21.053   4.677
95827W        W68895  35.310  26.028   0.050
95828W        W68896  38.319  31.097   1.792
95829W        W68897  29.423  11.594  10.186
95830W        W68898  36.544  44.597  13.690
95831W        W68899   8.603   4.733  10.656
95832W        W68900  16.623  40.062   0.898
95833W        W68901   8.813  24.130   0.741
95834W        W68902   5.819  22.824  11.143
95835W        W68903  14.131   7.668   3.284
95836W        W68904  37.158  11.227   2.122
95837W        W68905  41.841  40.860   4.073
95838W        W68906   0.868   4.330   3.160
95839W        W68907  40.452  23.641  11.097
95840W        W68908  28.114  14.922  12.656
95841W        W68909  20.599  10.251   3.063
95842W        W68910  26.419  31.651   0.899
95843W        W68911   8.004  10.776   1.165
95844W        W68912  43.154  17.744   2.825
95845W        W68913  16.998  33.498  14.346
95846W        W68914   2.106   0.790  12.632
95847W        W68915   7.937   8.981  11.001
95848W        W68916  23.575   8.426   4.111
95849W        W68917  30.919  21.501   3.347
95850W        W68918  41.997  43.408   3.763
95851W        W68919  30.976  19.962  11.565
95852W        W68920  35.326  43.226  11.703
95853W        W68921  41.529  26.554  10.874
95854W        W68922  43.368  33.566   3.016
95855W        W68923  10.552  23.771   3.797
95856W        W68924  43.951   3.343  10.554
95857W        W68925  36.428   7.231   4.090
95858W        W68926  24.095  13.570  12.044
95859W        W68927   6.258  26.441  14.872
95860W        W68928  36.356  32.965  12.037
95861W        W68929   7.254  33.952  14.289
95862W        W68930  29.089  16.221  13.871
95863W        W68931   1.875   5.801  13.885
95864W        W68932   2.789  15.873   0.459
95865W        W68933  37.288  24.532   2.194
95866W        W68934   0.520  35.387   1.150
95867W        W68935  33.894  41.228  11.286
95868W        W68936  13.542  33.646   2.448
95869W        W68937  20.815  19.540  12.010
95870W        W68938   4.517   4.782   4.397
95871W        W68939  25.065  29.572  12.928
95872W        W68940  26.570   8.104  13.817
95873W        W68941  33.732   2.386   2.751
95874W        W68942   5.831  26.728   4.838
95875W        W68943  27.022  19.738  12.858
95876W        W68944  15.703  25.583   2.095
95877W        W68945  33.556  35.458  10.618
95878W        W68946  35.036  40.868   3.402
95879W        W68947   0.499  17.234   1.327
95880W        W68948  25.394   4.436   4.621
95881W        W68949  39.921  17.274  12.014
95882W        W68950  32.927  21.752   2.148
95883W        W68951  11.198  18.697   0.820
95884W        W68952   3.763  29.496  13.880
95885W        W68953  35.083  20.602   0.252
95886W        W68954   5.297  31.096   0.686
95887W        W68955  41.007  20.992   0.557
95888W        W68956  14.840   1.425   1.269
95889W        W68957  25.490  35.022   2.669
95890W        W68958  28.717   2.170   4.752
95891W        W68959  29.161   3.851   0.162
95892W        W68960   2.826  25.577  12.032
95893W        W68961   2.581   5.694   0.034
95894W        W68962  27.978  20.747  14.049
95895W        W68963  31.885   9.389   3.623
95896W        W68964  21.733  29.440  11.137
95897W        W68965  16.519  18.010  10.569
95898W        W68966   6.166  24.565  10.903
95899W        W68967  15.810  18.275  12.079
95900W        W68968  22.921  14.353  11.631
95901W        W68969  11.778  15.772  14.946
95902W        W68970   7.607  28.111   4.989
95903W        W68971  25.172  11.293   5.187
95904W        W68972   1.693  13.272  14.379
95905W        W68973  42.575   9.335   3.157
95906W        W68974  31.940  12.593   1.944
95907W        W68975  21.291  14.341  14.002
95908W        W68976  39.020  23.722   2.204
95909W        W68977  23.442   9.435  11.566
95910W        W68978  33.476  10.423   2.648
95911W        W68979  30.593   6.684   3.520
95912W        W68980  15.220  18.597  14.242
95913W        W68981  28.973  39.527  13.900
95914W        W68982  20.165   7.347  13.326
95915W        W68983  24.036  34.805   4.525
95916W        W68984   4.349  10.833  14.350
95917W        W68985   5.434  23.226  11.626
95918W        W68986  23.773  13.821  11.672
95919W        W68987  42.958   0.235  12.297
95920W        W68988  40.317  36.897   0.307
95921W        W68989   8.455  11.725  13.078
95922W        W68990  30.513  25.047  10.640
95923W        W68991  32.979  15.511   1.200
95924W        W68992  26.091  19.881   1.568
95925W        W68993  14.231  31.320  14.364
95926W        W68994  23.886  19.608  10.472
95927W        W68995   2.958   3.880  10.778
95928W        W68996  15.196  16.375  11.612
95929W        W68997  38.061   9.396   1.869
95930W        W68998   8.716  26.197   2.713
95931W        W68999   9.238   9.228   4.649
95932W        W69000  20.358   1.884   3.589
95933W        W69001  17.307  19.088   1.858
95934W        W69002  26.697  43.776  11.980
95935W        W69003  33.901  29.384   4.779
95936W        W69004  23.923  36.462   2.795
95937W        W69005   9.875   4.268   4.286
95938W        W69006  44.053  16.737  14.875
95939W        W69007  28.381  35.326   2.297
95940W        W69008  26.578  37.379   4.727
95941W        W69009   3.248   3.408   0.759
95942W        W69010  20.650   9.529  14.295
95943W        W69011  39.947  30.450  14.305
95944W        W69012  17.586  21.880  13.384
95945W        W69013  44.951  35.399   2.841
95946W        W69014  27.881  23.607   0.691
95947W        W69015  24.486  19.721   0.675
95948W        W69016  17.050   3.911  10.963
95949W        W69017  11.325   0.668  11.561
95950W        W69018  10.091   3.395   0.343
95951W        W69019  29.030  36.134  12.887
95952W        W69020  20.193  24.275   1.954
95953W        W69021  38.699  39.735   3.554
95954W        W69022  26.644   6.484   0.958
95955W        W69023  23.049   6.450  13.012
95956W        W69024  11.879  11.646  14.292
95957W        W69025  14.231  27.162  13.431
95958W        W69026  11.993  32.996  12.243
95959W        W69027  11.151  24.414   2.190
95960W        W69028  34.164  33.898  14.485
95961W        W69029  29.430   5.622   4.245
95962W        W69030  13.128  16.697  11.606
95963W        W69031  44.447  35.254  14.265
95964W        W69032  24.164  41.875   3.015
95965W        W69033  25.147  12.061  14.842
95966W        W69034  44.044  11.382  13.550
95967W        W69035   3.237   0.185   1.211
95968W        W69036  37.963  38.517   1.441
95969W        W69037  36.367  35.733  13.872
95970W        W69038  20.811  38.355  13.992
95971W        W69039  23.873  38.981   4.132
95972W        W69040  36.410  15.358  14.887
95973W        W69041  39.945  13.234   4.580
95974W        W69042  37.826  35.033  13.615
95975W        W69043  25.628  32.627  14.462
95976W        W69044  12.581  13.495   3.666
95977W        W69045   9.521  26.119   0.797
95978W        W69046   7.403  15.756   0.021
95979W        W69047  20.976   2.350  13.480
95980W        W69048  13.290  40.480  13.232
95981W        W69049  39.848  34.543  14.326
95982W        W69050  29.562  10.639  12.642
95983W        W69051  28.484  29.674  11.620
95984W        W69052   5.937  14.537  10.999
95985W        W69053  13.974   6.222   2.690
95986W        W69054   3.147   9.288  13.104
95987W        W69055  20.783  23.660  14.060
95988W        W69056   4.607  13.660  13.789
95989W        W69057   1.837  13.625   0.023
95990W        W69058  25.482   9.890  12.990
95991W        W69059  13.263  29.803   0.369
95992W        W69060  23.009  39.445  10.887
95993W        W69061  39.312   7.731   1.231
95994W        W69062  20.469  22.209   3.246
95995W        W69063  30.966  26.636   3.086
95996W        W69064  12.130  44.042   2.766
95997W        W69065  16.272  30.883   2.282
95998W        W69066  41.380  31.476   2.451
95999W        W69067  10.192   1.220   3.720
96000W        W69068  15.648  12.911   0.395
96001W        W69069  24.979  20.534  14.387
96002W        W69070  24.227   4.735  12.069
96003W        W69071   9.812  43.294   0.098
96004W        W69072   2.018  11.652  11.269
96005W        W69073  28.397  38.504  13.262
96006W        W69074   5.490  27.150   4.196
96007W        W69075  36.526  24.397  11.089
96008W        W69076  33.888  34.105  13.621
96009W        W69077  13.281  37.076  11.677
96010W        W69078  38.994  32.320  12.152
96011W        W69079   6.928  41.321   4.584
96012W        W69080  13.622  33.041   4.570
96013W        W69081  25.068  39.923  12.671
96014W        W69082  43.234  20.215  11.151
96015W        W69083  30.237  16.794  11.208
96016W        W69084   0.880  25.988   4.195
96017W        W69085  26.918  24.080   0.255
96018W        W69086  39.056  27.624   0.369
96019W        W69087  39.465  18.276  10.422
96020W        W69088   8.344   8.888  11.624
96021W        W69089  30.262  38.074   1.867
96022W        W69090   5.002  29.542  13.980
96023W        W69091  25.074   1.449  12.426
96024W        W69092  30.180  38.512  13.839
96025W        W69093  26.426  14.633  14.791
96026W        W69094  13.302  34.428   2.754
96027W        W69095  38.575  10.831   1.779
96028W        W69096   7.735  27.989   4.124
96029W        W69097   8.795  27.550   3.750
96030W        W69098  40.059   5.243  12.410
96031W        W69099   8.987  42.271   2.321
96032W        W69100  19.637  36.114   0.247
96033W        W69101  36.470   4.100  11.180
96034W        W69102  37.968  33.379  12.022
96035W        W69103  20.399   9.200   0.922
96036W        W69104  28.902  33.009  12.536
96037W        W69105  22.218  33.374  13.856
96038W        W69106   7.441  29.127  14.708
96039W        W69107   7.979  34.473   0.337
96040W        W69108  26.403  11.399  14.049
96041W        W69109  44.665   0.246   3.637
96042W        W69110  34.105   8.865   3.103
96043W        W69111  11.331  13.917  11.598
96044W        W69112  23.927   5.361   3.761
96045W        W69113  13.241  34.589   0.173
96046W        W69114  23.953  13.670  12.546
96047W        W69115  10.415  24.003  14.266
96048W        W69116  17.407  39.823  11.589
96049W        W69117  36.813  32.927   4.350
96050W        W69118   8.258  18.093   3.690
96051W        W69119  17.147  27.056  10.214
96052W        W69120  33.378   2.819   1.815
96053W        W69121  41.926  27.644  13.273
96054W        W69122  35.878  33.618  10.706
96055W        W69123   6.288  44.580  14.672
96056W        W69124  27.660  30.190  12.917
96057W        W69125  38.767  21.083   0.907
96058W        W69126   1.292  25.072  12.578
96059W        W69127  32.008  20.888  13.043
96060W        W69128  27.596  20.162  14.487
96061W        W69129  20.236  24.495   4.129
96062W        W69130  38.504  24.296   3.850
96063W        W69131  10.297  14.330   4.699
96064W        W69132   3.138   3.798   3.983
96065W        W69133  15.151   6.980  11.602
96066W        W69134  25.099  40.510  13.359
96067W        W69135  34.309  11.246  13.554
96068W        W69136   3.383   0.957  14.503
96069W        W69137  36.483  14.785  11.878
96070W        W69138   8.241   2.459  12.595
96071W        W69139  18.151  34.454  11.683
96072W        W69140   9.359   6.311   3.125
96073W        W69141   3.905  21.515   4.326
96074W        W69142  23.273  19.487  11.093
96075W        W69143  42.030  11.094   3.183
96076W        W69144  10.673   2.817  11.633
96077W        W69145  37.008  21.087   0.770
96078W        W69146  22.433  38.917  13.999
96079W        W69147   5.402   8.193  14.819
96080W        W69148  36.782   4.498   2.155
96081W        W69149   7.036  42.901  10.712
96082W        W69150  39.029   4.920  14.953
96083W        W69151  27.547   7.621  12.022
96084W        W69152  13.572  42.789   3.702
96085W        W69153  28.554  36.172   2.624
96086W        W69154  13.621   7.425  14.881
96087W        W69155   6.726  34.310   1.735
96088W        W69156   3.033   4.874   2.051
96089W        W69157  38.379  30.866  12.622
96090W        W69158  17.677  35.707  11.533
96091W        W69159  37.786  29.590  14.757
96092W        W69160  25.044  34.861   2.441
96093W        W69161  22.086  44.746   3.607
96094W        W69162  12.746  18.173   2.315
96095W        W69163  40.057  20.133   4.460
96096W        W69164  14.458  33.592  12.518
96097W        W69165  11.875  14.081   3.625
96098W        W69166   9.377  32.970   4.485
96099W        W69167  15.257  16.242  14.630
96100W        W69168  17.057  35.617   5.048
96101W        W69169   9.137  41.051  11.224
96102W        W69170  40.015   7.328   5.245
96103W        W69171   4.696  12.337   0.060
96104W        W69172  23.646  19.812   3.283
96105W        W69173  33.893  19.175  11.963
96106W        W69174  13.604  22.173  14.400
96107W        W69175  34.433  18.035  13.362
96108W        W69176  43.721   7.813  11.198
96109W        W69177  22.487  26.491   0.357
96110W        W69178  13.874  30.425   3.186
96111W        W69179  29.047  35.952   3.136
96112W        W69180   8.641   9.437  14.866
96113W        W69181   0.361   6.300  13.512
96114W        W69182  12.735  39.288   2.707
96115W        W69183  36.598  19.243  12.969
96116W        W69184  19.738  26.213  11.123
96117W        W69185  27.705  14.161   3.275
96118W        W69186  39.616  41.035   1.454
96119W        W69187  21.146  19.317   4.672
96120W        W69188  28.059  43.751  10.461
96121W        W69189   8.340  27.050  13.816
96122W        W69190  43.274  32.594   2.592
96123W        W69191  40.874  43.079   4.277
96124W        W69192  30.637  37.039  13.537
96125W        W69193   7.732  33.486   3.033
96126W        W69194  13.703  44.202  14.944
96127W        W69195  38.793  29.928  13.523
96128W        W69196  29.435  14.779   4.390
96129W        W69197  39.844  13.078  11.534
96130W        W69198  38.302   6.630   3.905
96131W        W69199   7.931  33.554  12.584
96132W        W69200  33.883  38.021   0.981
96133W        W69201  31.502  25.273  13.963
96134W        W69202  26.262  16.087   0.816
96135W        W69203  38.690  27.116   2.736
96136W        W69204  43.298  28.281   1.766
96137W        W69205   1.211  10.295  11.136
96138W        W69206  42.313  42.777   3.137
96139W        W69207  19.119   3.402  13.773
96140W        W69208  19.638  40.358  11.689
96141W        W69209  30.580  23.126  14.935
96142W        W69210  26.079  23.002   2.679
96143W        W69211  39.517  27.676   1.121
96144W        W69212  27.687  20.976   1.298
96145W        W69213  26.130  27.460   2.273
96146W        W69214  35.385  40.491  12.402
96147W        W69215  18.949  26.073  10.762
96148W        W69216  11.812  10.528   3.258
96149W        W69217  26.797  28.585   2.393
96150W        W69218  34.649  18.828  12.057
96151W        W69219  24.210  18.636  10.886
96152W        W69220  13.350  38.267   4.185
96153W        W69221  23.665   7.392   4.177
96154W        W69222  13.840   3.417  10.981
96155W        W69223  13.620   2.281   2.244
96156W        W69224  35.383   4.630   0.867
96157W        W69225  39.527  15.709   0.023
96158W        W69226  20.515  24.512  12.545
96159W        W69227   4.411  42.671   3.881
96160W        W69228  27.887  43.794   1.126
96161W        W69229  15.184   7.441  13.346
96162W        W69230  20.820   7.569  12.941
96163W        W69231  41.479  10.459   2.881
96164W        W69232   2.728  21.036   3.229
96165W        W69233  32.349  24.720   2.338
96166W        W69234  21.275  23.384   1.369
96167W        W69235  16.153   9.152  10.911
96168W        W69236  21.391   1.227   4.020
96169W        W69237  15.879  20.516  11.490
96170W        W69238  14.307   4.207   4.651
96171W        W69239  17.786  36.362  13.020
96172W        W69240  39.614  16.168  10.753
96173W        W69241  18.126  24.781  13.424
96174W        W69242  13.351  41.519   4.234
96175W        W69243  17.689  34.287  12.692
96176W        W69244  37.348  12.780   1.324
96177W        W69245  44.045  42.984   3.226
96178W        W69246  39.373   1.540  13.920
96179W        W69247  38.746  13.894  11.526
96180W        W69248  33.490  15.005   0.441
96181W        W69249  37.807  16.797   2.737
96182W        W69250  10.397  25.707  14.692
96183W        W69251   6.833  15.758   2.708
96184W        W69252  26.018  12.818   2.699
96185W        W69253   2.273  13.158  11.958
96186W        W69254  30.544  24.532   4.261
96187W        W69255   7.432   4.262   0.307
96188W        W69256  15.510  13.286  11.811
96189W        W69257  21.363  43.469   2.949
96190W        W69258  14.576  42.511  14.859
96191W        W69259  27.891  34.605  10.768
96192W        W69260  14.071  35.440   0.405
96193W        W69261  19.599  34.836  14.886
96194W        W69262   6.757  13.059  13.581
96195W        W69263  23.245  38.968   0.478
96196W        W69264  31.707  14.178   4.600
96197W        W69265   0.239  14.629  13.942
96198W        W69266  15.263  38.799   2.650
96199W        W69267   6.930  36.257  11.590
96200W        W69268   6.800  41.395   0.833
96201W        W69269  44.418   4.813   3.301
96202W        W69270  25.087  13.207   3.185
96203W        W69271  27.669  41.513  12.092
96204W        W69272  12.180  21.089  14.278
96205W        W69273  24.578  10.837  14.268
96206W        W69274  21.980  38.518   1.336
96207W        W69275  35.453  14.514   3.201
96208W        W69276  19.747  11.726   2.826
96209W        W69277  38.384  43.750   1.651
96210W        W69278  29.829  15.255   2.201
96211W        W69279  17.546  19.139  10.547
96212W        W69280  13.109   7.464  11.590
96213W        W69281  15.013  24.930  13.100
96214W        W69282  16.637  35.552   0.909
96215W        W69283  20.133  31.613  11.123
96216W        W69284  41.498   4.691  14.844
96217W        W69285   3.454  43.072   1.821
96218W        W69286   2.063  13.852  11.151
96219W        W69287   5.889  31.689  12.113
96220W        W69288  18.311  44.349   0.637
96221W        W69289  29.701  40.534   1.285
96222W        W69290   8.487  39.045   0.811
96223W        W69291  39.848  29.032   3.680
96224W        W69292   7.790  41.260  13.286
96225W        W69293  33.944   3.699  11.441
96226W        W69294   2.720  22.175   1.023
96227W        W69295   6.230  21.286  10.307
96228W        W69296  13.744  15.807  11.523
96229W        W69297   3.189  14.835   2.856
96230W        W69298  19.271  14.621   1.190
96231W        W69299  44.420   0.810   1.438
96232W        W69300  19.265  35.728   2.826
96233W        W69301  38.447  18.946   1.723
96234W        W69302  15.656  21.366   4.638
96235W        W69303  35.540  22.471   0.483
96236W        W69304  43.966  44.854   1.221
96237W        W69305  31.563  28.072  12.011
96238W        W69306   6.721  10.853  12.936
96239W        W69307  18.278   7.730  13.938
96240W        W69308   5.299   0.230  12.480
96241W        W69309  19.050  44.439   1.289
96242W        W69310  43.252  19.113   3.325
96243W        W69311  42.940  30.716   3.308
96244W        W69312   2.202   2.043  14.833
96245W        W69313  15.254  30.225   0.840
96246W        W69314  44.017  18.801  13.245
96247W        W69315  23.961  21.567   4.097
96248W        W69316  14.353   2.439  11.231
96249W        W69317  30.514  25.635   2.358
96250W        W69318  19.624   8.001  12.757
96251W        W69319   6.137  43.750   3.191
96252W        W69320  28.993  42.987  11.234
96253W        W69321  17.801   5.323  14.411
96254W        W69322  23.682   2.694   4.536
96255W        W69323  30.088  31.838  10.765
96256W        W69324  23.525  13.846   3.341
96257W        W69325   5.668  27.111  12.684
96258W        W69326  39.972   7.216   1.850
96259W        W69327  27.557  40.475   0.008
96260W        W69328  19.203  35.965  11.707
96261W        W69329  43.947  13.584  14.024
96262W        W69330   6.839  22.219   2.374
96263W        W69331   2.713  12.094   0.548
96264W        W69332  25.546  26.124  10.615
96265W        W69333  19.081  24.999  13.974
96266W        W69334   2.211  41.219   0.789
96267W        W69335  37.838  26.264  14.489
96268W        W69336  32.156  14.200   3.741
96269W        W69337  29.933  10.840   2.161
96270W        W69338   6.327  26.550   3.580
96271W        W69339  24.287  34.851   5.001
96272W        W69340  31.099  30.468   4.660
96273W        W69341   7.639  14.595  11.906
96274W        W69342   1.832  28.105   2.836
96275W        W69343  21.726  42.363   3.367
96276W        W69344  17.415  34.527   1.054
96277W        W69345  11.899  30.154  13.943
96278W        W69346  17.048  20.148  11.258
96279W        W69347  40.932  31.847   0.952
96280W        W69348  40.318  12.798  13.534
96281W        W69349  23.877  14.167   1.659
96282W        W69350   9.874  13.253   0.271
96283W        W69351  44.008  19.015  10.746
96284W        W69352  22.697  26.233   2.695
96285W        W69353  13.945  41.534   3.375
96286W        W69354   2.992  16.862  12.058
96287W        W69355  38.903  28.875   2.878
96288W        W69356  18.857  33.681   4.168
96289W        W69357  35.384  23.388   4.123
96290W        W69358   0.100  44.307   3.595
96291W        W69359  15.322  36.773   3.798
96292W        W69360   4.324  33.558   4.655
96293W        W69361  29.208  36.249   0.949
96294W        W69362  22.995  16.203  12.161
96295W        W69363  40.012  29.177  13.024
96296W        W69364   4.212  39.453   1.689
96297W        W69365  39.477  44.087  10.530
96298W        W69366  33.506  15.362   4.628
96299W        W69367   4.262  27.144   1.791
96300W        W69368  28.854  27.710  11.559
96301W        W69369   9.344   1.929   0.269
96302W        W69370   3.000  13.539   0.453
96303W        W69371  23.689  43.488  13.851
96304W        W69372  42.438  26.601  11.554
96305W        W69373  25.105  12.223   3.092
96306W        W69374  22.637  35.948   1.180
96307W        W69375  10.341  12.068  14.073
96308W        W69376  36.797  35.464  10.761
96309W        W69377  44.939   3.166   2.098
96310W        W69378  16.717  44.014  10.575
96311W        W69379  24.491   6.165   4.110
96312W        W69380   7.391  32.985  12.835
96313W        W69381  12.814   8.347   2.394
96314W        W69382  10.355  11.053  11.212
96315W        W69383  39.526  11.531   3.988
96316W        W69384  15.614  19.441  11.150
96317W        W69385  29.773  33.745  12.054
96318W        W69386  40.355   6.683   1.974
96319W        W69387  13.750  18.955   1.283
96320W        W69388  13.202  26.716  10.756
96321W        W69389  13.478  23.267  12.409
96322W        W69390  18.289   6.190  14.044
96323W        W69391  41.480  40.889  11.503
96324W        W69392  29.391  18.618   3.727
96325W        W69393  15.389  13.293  14.263
96326W        W69394  35.887  15.930   0.281
96327W        W69395  22.573  17.585   1.818
96328W        W69396  16.185  27.617   3.573
96329W        W69397  18.374  20.061   4.114
96330W        W69398   2.928   9.704  12.795
96331W        W69399  30.956  37.269   1.266
96332W        W69400  27.093  22.526   2.640
96333W        W69401  22.004  29.442  13.406
96334W        W69402  37.621  25.509  12.968
96335W        W69403   7.760  22.334  13.454
96336W        W69404  34.004   0.624   3.814
96337W        W69405  21.832  13.516  13.784
96338W        W69406   9.659  42.505  12.875
96339W        W69407  30.891  35.129  10.810
96340W        W69408   2.849  31.313  14.880
96341W        W69409   6.940  26.580  14.435
96342W        W69410  24.094  38.285   0.853
96343W        W69411  30.420  44.527  12.562
96344W        W69412  33.999  11.698  11.616
96345W        W69413   3.567  28.826  13.957
96346W        W69414  32.189  15.661  13.448
96347W        W69415  36.414  16.648   4.496
96348W        W69416  37.941  10.006   4.557
96349W        W69417  15.608   3.023  11.048
96350W        W69418  10.814  34.620  14.838
96351W        W69419   5.220  32.252  10.327
96352W        W69420  31.779  14.494  14.850
96353W        W69421  28.036  38.918   1.716
96354W        W69422  14.187  32.884  14.448
96355W        W69423  30.839  17.004  12.526
96356W        W69424  36.905  24.100  10.889
96357W        W69425  13.411  14.792   3.943
96358W        W69426  35.915  24.139   0.961
96359W        W69427  25.557   7.128  13.977
96360W        W69428  33.984  17.489  12.067
96361W        W69429  20.726   3.396   3.566
96362W        W69430  44.868  28.061  14.005
96363W        W69431  33.115  35.919  12.343
96364W        W69432  23.970  17.420   3.234
96365W        W69433  10.207   2.975  10.615
96366W        W69434  40.346  38.486   0.800
96367W        W69435  25.293  21.995   2.929
96368W        W69436  38.003   3.313   0.489
96369W        W69437  18.495  25.449  14.458
96370W        W69438  24.106  17.338  10.365
96371W        W69439   3.661   5.463  11.646
96372W        W69440  41.747  27.404  11.434
96373W        W69441  33.416  18.694  13.422
96374W        W69442   5.448  31.590   0.808
96375W        W69443  44.439   4.539  10.719
96376W        W69444  31.523   6.785   3.806
96377W        W69445  27.209  41.396   3.065
96378W        W69446  11.781   4.995  11.079
96379W        W69447   6.744  33.824   0.943
96380W        W69448  42.158   9.294   4.583
96381W        W69449  26.396   2.895  12.024
96382W        W69450  19.235  38.552   1.834
96383W        W69451  21.500  29.440   3.690
96384W        W69452   6.698  19.006  13.536
96385W        W69453   8.227   9.623   4.610
96386W        W69454  16.117  38.795   1.344
96387W        W69455   4.389  30.175  12.146
96388W        W69456   4.830  23.180  14.313
96389W        W69457  32.115  32.197   4.039
96390W        W69458  37.021  40.492  14.011
96391W        W69459  26.496  11.399  11.963
96392W        W69460  31.704  44.037  14.402
96393W        W69461  31.963  14.756   3.889
96394W        W69462  17.580  35.627   4.948
96395W        W69463  41.206  42.917   4.637
96396W        W69464   6.262  21.527   0.859
96397W        W69465  15.659   1.529   2.358
96398W        W69466  35.189  32.503  14.878
96399W        W69467   0.556  18.135   0.801
96400W        W69468  10.580  18.476   1.485
96401W        W69469  31.850  10.853  13.302
96402W        W69470  21.575   7.844   4.145
96403W        W69471  30.979  26.462  10.434
96404W        W69472   6.970   7.956   4.558
96405W        W69473  34.577   5.805  10.882
96406W        W69474  41.011  25.827  14.883
96407W        W69475   5.963  11.736   0.320
96408W        W69476  43.354  14.399   1.190
96409W        W69477   4.916  38.743  14.722
96410W        W69478  12.893  21.068  12.509
96411W        W69479  21.263  10.051   4.598
96412W        W69480  21.596  42.019   4.669
96413W        W69481  40.249  25.694  10.553
96414W        W69482  29.327  41.808   0.503
96415W        W69483  15.242  17.529   2.186
96416W        W69484   1.561   8.754   0.226
96417W        W69485  25.025  30.472  11.460
96418W        W69486   8.586  39.156  14.938
96419W        W69487  12.769  10.780  13.977
96420W        W69488  42.858  22.125  14.261
96421W        W69489  15.763  26.587  10.586
96422W        W69490   7.336  25.667  11.640
96423W        W69491  23.178  44.915   2.375
96424W        W69492  27.261  20.791  12.859
96425W        W69493   6.083  44.532   4.148
96426W        W69494  17.038  20.417  12.128
96427W        W69495  43.341  39.416   0.389
96428W        W69496  19.915   6.149   3.765
96429W        W69497  32.175  40.508  10.899
96430W        W69498  25.162  26.047  12.802
96431W        W69499   3.807   4.800   3.369
96432W        W69500   8.083  13.757   2.533
96433W        W69501  24.824   8.231  13.504
96434W        W69502  28.262  41.403   4.930
96435W        W69503  40.590  26.126   4.722
96436W        W69504   1.667  40.884   3.774
96437W        W69505   2.236  43.922   4.169
96438W        W69506  19.159  41.549  13.972
96439W        W69507   5.719  40.768   4.535
96440W        W69508  22.039  24.291   3.265
96441W        W69509  34.622  31.020  12.981
96442W        W69510   1.407  26.396  12.656
96443W        W69511  35.557  27.944  14.988
96444W        W69512  22.615  23.915  11.218
96445W        W69513  16.170  15.148   1.395
96446W        W69514  17.384  14.828  12.566
96447W        W69515  19.683  25.928   1.401
96448W        W69516  15.545  25.666  10.521
96449W        W69517   6.313   9.783   4.704
96450W        W69518  19.166  30.432   4.440
96451W        W69519  22.542  20.594  12.605
96452W        W69520  27.591  14.089  10.730
96453W        W69521  30.591  21.554   3.766
96454W        W69522  23.890  31.855   0.888
96455W        W69523  19.467  19.009  13.660
96456W        W69524   9.635  39.881   4.658
96457W        W69525  44.178  30.484  10.319
96458W        W69526  14.017  29.197  14.384
96459W        W69527  29.712   2.422   4.693
96460W        W69528  18.968  22.610   4.216
96461W        W69529  17.745  32.953  13.008
96462W        W69530  31.393   3.424   4.162
96463W        W69531  42.848  38.966  14.426
96464W        W69532  33.576  32.743   1.198
96465W        W69533   9.739  44.373   1.908
96466W        W69534  10.886  42.564   0.747
96467W        W69535   5.763   5.819  14.129
96468W        W69536   6.162  15.695   4.609
96469W        W69537  40.844   0.532  13.065
96470W        W69538  28.037  13.914  14.788
96471W        W69539   4.715  16.605   1.434
96472W        W69540  28.303  42.747  12.641
96473W        W69541   9.823  31.189   0.832
96474W        W69542  39.787  11.733   0.192
96475W        W69543  18.790  15.794  11.431
96476W        W69544   1.031  14.120   2.345
96477W        W69545   9.087  10.194  14.419
96478W        W69546  23.274  11.330  11.858
96479W        W69547   9.282  29.141   1.421
96480W        W69548  10.914  37.518   3.650
96481W        W69549  44.996  28.691  13.750
96482W        W69550  14.394  21.203  14.839
96483W        W69551  16.569  39.314  13.108
96484W        W69552  17.118   9.303   0.971
96485W        W69553  24.717  20.100  14.472
96486W        W69554  28.610   9.920   3.338
96487W        W69555  23.478  21.260   4.178
96488W        W69556  36.078  33.033   2.386
96489W        W69557  27.037   8.725   0.513
96490W        W69558  14.892  27.184  10.573
96491W        W69559  11.713  25.915  10.840
96492W        W69560   2.475  16.289  11.851
96493W        W69561   5.407  26.176  12.104
96494W        W69562  19.529  11.289   2.646
96495W        W69563  37.050  24.130  14.294
96496W        W69564  10.266  18.535  13.333
96497W        W69565  13.680  16.118   1.148
96498W        W69566  24.159  42.560   4.633
96499W        W69567  26.208  29.182  13.510
96500W        W69568  39.073  34.955   3.531
96501W        W69569  11.731  26.203   4.058
96502W        W69570  21.500   7.266   1.109
96503W        W69571   2.696  13.583  13.011
96504W        W69572  40.034  23.047   0.384
96505W        W69573  30.404  40.985   4.161
96506W        W69574  36.082  12.878   3.924
96507W        W69575  29.438  19.298  14.431
96508W        W69576  43.756   9.413  12.109
96509W        W69577   8.989  14.636  14.010
96510W        W69578  20.700  18.603   2.842
96511W        W69579  42.847  15.617   1.697
96512W        W69580   6.688  27.561  13.983
96513W        W69581  14.093  44.542  14.951
96514W        W69582  14.325  24.701   2.801
96515W        W69583  41.307  22.111  10.691
96516W        W69584  22.545  21.059  11.327
96517W        W69585  24.902  33.066   2.995
96518W        W69586  15.557  25.243  12.263
96519W        W69587  36.945  31.063  12.055
96520W        W69588  37.459  23.324   3.530
96521W        W69589  42.546  26.722   2.772
96522W        W69590  19.153  44.763   4.897
96523W        W69591  22.801  41.558   3.563
96524W        W69592  41.480  28.110   0.306
96525W        W69593  37.349  31.571   0.933
96526W        W69594  25.075   6.851   2.724
96527W        W69595  19.876   9.907  12.916
96528W        W69596  15.197  10.893  11.696
96529W        W69597  38.533  18.470   2.381
96530W        W69598  28.419  37.432  12.031
96531W        W69599  29.957  33.259  14.922
96532W        W69600  24.606   7.613  12.897
96533W        W69601  37.957  27.905  11.069
96534W        W69602  41.734  27.480   0.431
96535W        W69603  19.215   0.946  10.573
96536W        W69604   1.520  30.742  12.026
96537W        W69605  39.573  11.930  10.137
96538W        W69606  37.391  26.722   2.795
96539W        W69607   3.417  17.307   4.089
96540W        W69608  17.186  39.743  10.678
96541W        W69609  19.220  42.950   1.559
96542W        W69610   5.716   5.692   1.770
96543W        W69611  28.452  12.564   1.773
96544W        W69612  34.796  20.784  14.248
96545W        W69613  24.204  44.917   2.930
96546W        W69614  16.920  28.299  12.900
96547W        W69615  11.077  23.126   3.931
96548W        W69616  12.731  29.243  11.955
96549W        W69617  41.836  12.603  13.399
96550W        W69618  28.197  42.875   0.734
96551W        W69619  33.347  17.957   0.495
96552W        W69620  44.467  15.660   0.256
96553W        W69621  16.997  28.982   1.817
96554W        W69622  36.966  43.309  12.881
96555W        W69623  39.199  19.159   2.822
96556W        W69624  41.619   5.713   2.234
96557W        W69625   5.369  18.575  10.590
96558W        W69626  37.042  17.592  12.130
96559W        W69627  38.016  15.695   1.309
96560W        W69628  36.361  35.118  14.503
96561W        W69629   3.361  25.037  11.965
96562W        W69630  20.316  29.114  14.747
96563W        W69631  37.167  42.999  14.842
96564W        W69632  28.468  19.092   1.929
96565W        W69633  20.698  39.093   1.413
96566W        W69634   3.354  36.429  13.838
96567W        W69635   4.229  23.993   2.670
96568W        W69636  30.717   4.070   3.698
96569W        W69637  27.664  35.303   3.970
96570W        W69638  38.304  40.601   3.182
96571W        W69639   0.993  42.088   1.996
96572W        W69640  24.687  39.508   2.386
96573W        W69641   2.413  22.375  12.866
96574W        W69642  22.563  26.828  13.900
96575W        W69643  22.201  38.082  10.717
96576W        W69644  11.385   0.280   4.805
96577W        W69645  13.748  23.032  12.035
96578W        W69646  34.369  18.188   1.393
96579W        W69647  18.146   2.435   1.617
96580W        W69648  33.495  21.197  11.579
96581W        W69649  31.406  29.612  11.984
96582W        W69650   3.407  39.092   1.835
96583W        W69651  13.030  41.949  10.451
96584W        W69652  28.187   9.329  13.113
96585W        W69653  23.090  30.440  10.443
96586W        W69654  23.057  29.162   4.109
96587W        W69655  27.750  36.304  11.176
96588W        W69656  39.205  20.596  14.832
96589W        W69657  42.682  27.047   3.657
96590W        W69658  30.931  38.579   0.809
96591W        W69659  41.457   8.645  13.694
96592W        W69660  38.069  36.222   0.419
96593W        W69661  31.590   3.390   2.804
96594W        W69662  23.041  32.887   3.370
96595W        W69663  24.663   6.314  13.588
96596W        W69664   7.469  17.239   4.318
96597W        W69665  25.492  18.218   2.267
96598W        W69666   5.082  33.102   4.808
96599W        W69667  34.073  43.702   2.200
96600W        W69668   6.245  31.825   4.997
96601W        W69669  13.002  32.896   4.584
96602W        W69670  29.183  14.182  10.668
96603W        W69671   1.656  11.696   1.509
96604W        W69672   9.906  39.587  10.592
96605W        W69673  20.288  32.527   2.364
96606W        W69674  35.647  15.187  12.070
96607W        W69675  30.075  37.687   0.036
96608W        W69676   6.252  31.496  12.579
96609W        W69677  15.788  16.732   1.753
96610W        W69678  18.901  25.032   3.654
96611W        W69679  30.962  32.477  10.839
96612W        W69680  31.813  34.487  14.869
96613W        W69681  10.554  38.699  14.922
96614W        W69682  34.667  44.093   4.149
96615W        W69683  25.899  38.485   3.620
96616W        W69684   1.193   4.423  13.934
96617W        W69685   2.253  36.891   2.671
96618W        W69686  23.407   0.984   3.643
96619W        W69687  44.746  20.629  11.480
96620W        W69688  26.149  36.660  13.508
96621W        W69689  19.097   2.791  11.216
96622W        W69690   1.704  26.600   0.286
96623W        W69691  38.544  29.718  11.092
96624W        W69692  30.885  38.779  10.653
96625W        W69693  26.441  30.533   0.779
96626W        W69694  30.186  36.337   0.254
96627W        W69695  22.263   6.428  13.436
96628W        W69696   7.491  10.777   1.168
96629W        W69697  40.744  16.667   1.966
96630W        W69698  42.889   8.915  13.010
96631W        W69699  31.627  18.790   0.315
96632W        W69700  25.322  35.185  13.853
96633W        W69701  11.387   9.847   3.592
96634W        W69702   4.223  38.238   3.313
96635W        W69703  40.720  15.169  12.597
96636W        W69704  32.079  36.592  11.147
96637W        W69705  39.945  44.687   4.035
96638W        W69706  24.484  33.415  12.501
96639W        W69707  12.468  23.109  12.527
96640W        W69708  23.193  38.864   4.465
96641W        W69709  17.092  11.193  11.275
96642W        W69710  28.065   1.243   2.125
96643W        W69711  11.823   8.178   3.165
96644W        W69712  17.846  13.112  12.475
96645W        W69713  27.755  14.134  13.922
96646W        W69714  17.604  16.649  14.754
96647W        W69715  32.586  41.407  10.958
96648W        W69716  40.708  20.118  11.578
96649W        W69717   8.739  38.065  14.999
96650W        W69718   2.052  29.244   1.892
96651W        W69719  35.923  35.640  11.969
96652W        W69720  11.846  39.640  13.898
96653W        W69721  27.410  24.704   1.247
96654W        W69722  43.484  41.396   0.762
96655W        W69723  23.734  37.555   3.367
96656W        W69724  39.429  16.998  14.356
96657W        W69725  40.574  36.840   0.758
96658W        W69726   6.296  21.508   2.202
96659W        W69727  23.278  23.716  10.512
96660W        W69728  13.369  32.769  13.938
96661W        W69729   4.288   8.535  12.918
96662W        W69730   3.694  41.775  13.126
96663W        W69731  37.084  43.235  11.430
96664W        W69732   9.355  41.019   0.465
96665W        W69733  21.549  32.551  10.614
96666W        W69734  32.472  27.509  11.855
96667W        W69735  27.354  15.862  12.261
96668W        W69736   2.310  31.803   3.622
96669W        W69737  11.985  41.377  12.253
96670W        W69738  12.717  33.640   4.540
96671W        W69739  35.925  12.828   2.667
96672W        W69740  14.246   7.795  12.968
96673W        W69741  31.162  29.080  14.714
96674W        W69742   2.513  33.147   0.957
96675W        W69743   8.801  36.377  10.296
96676W        W69744   7.659  40.719   2.024
96677W        W69745  34.872  29.601  12.928
96678W        W69746  22.154  10.920   2.221
96679W        W69747  22.327  16.552   0.527
96680W        W69748   2.971  35.955   4.568
96681W        W69749  14.678  21.557   4.770
96682W        W69750   4.945  20.607   9.889
96683W        W69751   9.240   9.625   2.135
96684W        W69752  23.179  35.751   3.348
96685W        W69753  42.821  26.650  10.372
96686W        W69754  44.693  26.885   1.044
96687W        W69755   2.916  44.958  13.771
96688W        W69756   5.855  38.515   0.378
96689W        W69757  35.047  13.585  11.122
96690W        W69758   5.423  13.340   3.581
96691W        W69759  33.023  20.366   2.392
96692W        W69760  35.505  11.678   1.190
96693W        W69761  32.127  27.673  10.515
96694W        W69762  26.672  32.636  14.269
96695W        W69763  36.056  10.216   3.162
96696W        W69764  20.744  26.657   3.229
96697W        W69765  40.912  33.165  13.587
96698W        W69766  34.887  32.504  13.061
96699W        W69767  10.861  40.552   3.784
96700W        W69768  29.788  41.973   0.885
96701W        W69769  20.273  25.284   2.102
96702W        W69770  11.766  27.513   4.303
96703W        W69771   4.189  16.526  11.553
96704W        W69772  17.481  21.612   0.170
96705W        W69773   7.252  30.579   4.379
96706W        W69774  27.473  42.473  12.029
96707W        W69775  29.038  41.472   2.192
96708W        W69776  38.329  43.897   0.468
96709W        W69777  20.316  12.392  13.088
96710W        W69778   8.265  10.966   0.245
96711W        W69779   6.835  27.416  12.901
96712W        W69780  30.170  30.060  14.196
96713W        W69781  30.699  44.557  12.144
96714W        W69782  14.045   5.793   2.408
96715W        W69783  10.686  26.511  11.040
96716W        W69784  12.417   6.177   1.700
96717W        W69785   0.304   2.349   3.724
96718W        W69786  36.492  23.306  11.089
96719W        W69787   8.948  28.532   0.998
96720W        W69788  33.417  28.495  11.430
96721W        W69789  12.817   7.914   4.940
96722W        W69790  13.303  40.327   2.171
96723W        W69791   2.769  33.724  12.360
96724W        W69792  38.739  11.647   0.497
96725W        W69793  18.175  39.961   3.891
96726W        W69794  42.013  37.887  14.941
96727W        W69795  19.108   5.180   4.409
96728W        W69796  10.081  28.442  13.331
96729W        W69797   2.211   7.761  11.171
96730W        W69798   4.409  35.906  13.541
96731W        W69799   8.246  22.541   0.407
96732W        W69800   5.564   1.973  12.848
96733W        W69801  17.363  22.687   1.365
96734W        W69802  32.533   4.539  14.449
96735W        W69803   8.809  32.516  12.593
96736W        W69804  17.231  34.357  10.748
96737W        W69805  30.086  24.741  10.655
96738W        W69806  25.748  15.726  14.409
96739W        W69807  41.044  37.042   2.194
96740W        W69808  43.867  28.117  12.441
96741W        W69809  17.157   8.395   3.571
96742W        W69810  24.705  16.650  13.961
96743W        W69811  44.523   6.757   1.804
96744W        W69812   6.198   8.413   0.386
96745W        W69813  25.528  11.546   4.925
96746W        W69814  30.460  34.272  13.354
96747W        W69815  16.621   7.521   4.836
96748W        W69816   5.923  12.369   3.742
96749W        W69817  32.352   6.446  11.620
96750W        W69818  11.744  25.308  14.061
96751W        W69819  33.482   0.847   0.436
96752W        W69820  25.771  16.767  12.186
96753W        W69821   0.823  40.291   1.020
96754W        W69822  34.500   8.829  14.553
96755W        W69823   5.244  19.021  13.961
96756W        W69824  27.616   9.092   3.681
96757W        W69825   1.316   7.890   2.811
96758W        W69826   3.084   8.586  11.089
96759W        W69827  18.711  33.226   4.928
96760W        W69828  18.163   9.783   0.834
96761W        W69829  25.346  34.822  10.180
96762W        W69830  18.232  28.232   0.260
96763W        W69831  13.580  41.437   3.780
96764W        W69832  33.446  15.704   4.096
96765W        W69833  23.473  37.839  13.787
96766W        W69834   5.679   7.715  11.531
96767W        W69835   4.844  38.399   1.173
96768W        W69836  29.210  15.333  13.363
96769W        W69837  40.096   3.499   3.202
96770W        W69838  41.293   6.739  11.795
96771W        W69839   9.813  12.122   1.205
96772W        W69840  43.575   1.392   1.294
96773W        W69841  22.489  16.167  14.665
96774W        W69842   1.274  13.121   3.211
96775W        W69843  18.697  12.265  13.012
96776W        W69844  15.671  12.851  14.117
96777W        W69845  30.281  37.048   2.915
96778W        W69846  19.973  14.470   1.758
96779W        W69847  29.257  23.609  14.949
96780W        W69848   7.241  10.654  12.476
96781W        W69849   5.953  18.711  14.623
96782W        W69850  35.156  28.123  14.214
96783W        W69851   6.952  16.032   1.437
96784W        W69852  40.723   7.451   9.813
96785W        W69853  39.888   8.284   0.805
96786W        W69854   6.292  17.201  12.895
96787W        W69855  23.009  12.114   4.128
96788W        W69856   1.223  27.190  13.591
96789W        W69857  14.595  16.210  12.346
96790W        W69858  23.421   8.309   1.849
96791W        W69859  33.435  24.223   1.862
96792W        W69860  28.209  24.917  12.987
96793W        W69861  10.452  38.978   1.954
96794W        W69862  26.706  23.460  14.509
96795W        W69863   6.219   3.682  13.399
96796W        W69864  39.916   4.895   3.782
96797W        W69865  34.135  37.633  13.431
96798W        W69866  19.556  24.694   2.388
96799W        W69867   4.819   6.536   1.505
96800W        W69868   9.537   8.740   4.062
96801W        W69869  33.520   8.349   2.627
96802W        W69870  11.276   4.303   3.135
96803W        W69871  15.539   7.703   0.420
96804W        W69872   5.729   2.206   1.181
96805W        W69873  23.132  32.405  13.489
96806W        W69874  33.617  29.568  12.438
96807W        W69875  21.780  30.645  10.706
96808W        W69876  28.174   2.810   3.369
96809W        W69877   9.879  38.895   1.189
96810W        W69878  30.413  31.750  11.972
96811W        W69879   8.869  13.708  14.081
96812W        W69880  35.046  31.671  10.642
96813W        W69881   3.927  17.038  13.483
96814W        W69882  15.552  17.016   4.821
96815W        W69883   6.373  17.888  13.647
96816W        W69884   1.795  17.510   0.418
96817W        W69885  30.855  11.114  13.479
96818W        W69886  12.128  18.687   3.896
96819W        W69887  43.948   1.906   4.008
96820W        W69888  22.005  29.530   1.383
96821W        W69889   4.321  36.707  10.444
96822W        W69890  37.862  11.703   0.382
96823W        W69891  18.204  10.048   2.765
96824W        W69892  42.757   6.248   3.659
96825W        W69893   0.555  22.096   0.218
96826W        W69894  32.006  15.059  11.683
96827W        W69895  27.043  41.620   1.782
96828W        W69896  30.505  10.137   1.393
96829W        W69897  44.238  13.735   1.215
96830W        W69898  15.068  27.638   0.038
96831W        W69899  29.346   0.976   2.391
96832W        W69900   8.698  40.000  10.407
96833W        W69901  23.738  40.463  14.388
96834W        W69902  11.736  22.984  11.995
96835W        W69903  37.360  33.092  11.508
96836W        W69904  17.720   2.862  12.333
96837W        W69905  38.965  22.649   0.291
96838W        W69906  43.245  33.405   1.960
96839W        W69907  26.513  32.479   2.739
96840W        W69908  36.042   8.170   3.665
96841W        W69909  37.410  23.444  14.276
96842W        W69910  29.870  23.730   2.739
96843W        W69911  21.104   4.794   2.783
96844W        W69912  41.243   7.330  11.567
96845W        W69913  26.958  42.105   2.810
96846W        W69914  24.731   7.830  14.863
96847W        W69915  12.634  43.885   2.803
96848W        W69916  28.127  15.612  13.519
96849W        W69917  42.987   2.719  12.993
96850W        W69918   4.223  14.686   2.756
96851W        W69919  31.984  25.538   2.191
96852W        W69920  39.417  20.658  10.911
96853W        W69921  30.708  19.008  13.170
96854W        W69922   4.897  33.992  11.954
96855W        W69923  33.949  19.215  10.996
96856W        W69924  44.517  40.259  14.463
96857W        W69925  10.360  41.962  14.385
96858W        W69926  36.422  42.996   2.325
96859W        W69927  13.546  39.113  14.905
96860W        W69928  33.591   6.354  13.521
96861W        W69929  21.937   2.371  13.464
96862W        W69930  10.867  32.620   1.388
96863W        W69931  12.815   2.816  13.040
96864W        W69932   9.140   7.153   3.675
96865W        W69933  22.724  40.858  13.853
96866W        W69934  34.561  43.589   1.522
96867W        W69935  11.703  23.617   3.106
96868W        W69936   4.992  11.564   2.410
96869W        W69937  24.926  16.643  14.414
96870W        W69938  12.639  15.126   1.130
96871W        W69939   3.015  37.132   0.909
96872W        W69940  12.099  13.977  14.468
96873W        W69941  40.477  20.540   1.247
96874W        W69942  10.963  11.380   1.934
96875W        W69943  11.426  39.911   1.275
96876W        W69944  21.089   6.440   0.929
96877W        W69945  19.064  32.961  14.013
96878W        W69946   8.946  17.524  12.063
96879W        W69947  33.622  15.247  14.986
96880W        W69948  30.652   4.893  12.113
96881W        W69949  21.751  12.771  14.751
96882W        W69950   0.429  29.231  14.451
96883W        W69951  13.993   6.933  13.937
96884W        W69952  41.011  26.572  13.319
96885W        W69953   6.441   2.313   2.750
96886W        W69954  22.610  38.346  14.878
96887W        W69955  16.375  17.530   0.392
96888W        W69956  26.121  23.136   4.552
96889W        W69957  27.975  13.696   3.268
96890W        W69958   1.849   6.449  14.062
96891W        W69959  25.560  37.616  11.774
96892W        W69960  29.283  15.237   0.341
96893W        W69961  27.473  23.149  13.048
96894W        W69962   3.153  13.800  12.894
96895W        W69963   3.157  22.974   0.411
96896W        W69964  33.418  39.784  11.920
96897W        W69965  40.308   6.292  12.510
96898W        W69966   1.537  21.835   1.781
96899W        W69967  11.797  32.116  12.656
96900W        W69968  29.929  24.421   0.802
96901W        W69969   1.822   5.196  10.769
96902W        W69970  14.654   1.773  13.437
96903W        W69971  43.217  14.825  12.861
96904W        W69972  43.116   6.454   1.231
96905W        W69973  10.300  42.447  13.427
96906W        W69974  24.764  35.319   0.351
96907W        W69975   2.025   9.725   1.429
96908W        W69976  44.383   3.972   1.849
96909W        W69977  20.707   0.401   2.407
96910W        W69978   3.799  42.841   4.155
96911W        W69979   7.940  17.201   4.520
96912W        W69980  28.136   5.200  12.125
96913W        W69981  29.726  17.670   2.267
96914W        W69982   4.119  42.061   0.809
96915W        W69983   9.868   8.639  11.670
96916W        W69984  39.387  42.951  11.464
96917W        W69985  15.675   7.366   3.370
96918W        W69986  19.715  30.189   2.412
96919W        W69987   6.134  23.550   3.325
96920W        W69988  17.991  14.962   0.119
96921W        W69989  33.523  24.483  12.914
96922W        W69990   1.539  42.074   1.420
96923W        W69991  43.852  35.397  13.093
96924W        W69992  10.128  43.850  11.850
96925W        W69993   5.044  24.655   3.510
96926W        W69994  11.455   2.774   2.328
96927W        W69995   2.162  20.146  11.186
96928W        W69996  19.673  20.524   0.229
96929W        W69997  20.151   6.049  14.748
96930W        W69998  27.995  25.382  14.247
96931W        W69999  31.479  28.406  14.200
96932W        W70000   5.953  25.750  13.819
96933W        W70001  29.843  14.621  13.081
96934W        W70002  35.311   5.950  14.396
96935W        W70003  13.589  31.540  12.327
96936W        W70004  41.841  13.798   1.974
96937W        W70005  36.576  36.113  14.167
96938W        W70006  38.945  34.099  14.920
96939W        W70007  43.435  27.415   3.998
96940W        W70008  39.016   7.310   1.302
96941W        W70009  40.497  28.285   3.709
96942W        W70010  33.946  15.685  10.883
96943W        W70011  29.514   6.025   0.341
96944W        W70012  28.177  27.433  14.319
96945W        W70013  22.112  26.709  13.417
96946W        W70014  22.769  13.796   2.158
96947W        W70015  42.752  17.338   2.721
96948W        W70016  31.103  23.189   4.146
96949W        W70017  13.325   4.288   0.004
96950W        W70018   5.888  33.523   0.459
96951W        W70019  24.702   4.406   2.698
96952W        W70020   4.833  44.133  14.911
96953W        W70021  12.057  35.448   3.802
96954W        W70022  35.402  37.540   2.893
96955W        W70023   0.865  22.181  13.365
96956W        W70024  12.105  14.901  12.871
96957W        W70025   8.998  43.358   1.497
96958W        W70026   9.421  36.746   4.312
96959W        W70027  33.245  11.219   4.885
96960W        W70028  31.107  24.133   5.026
96961W        W70029   6.367  42.797  13.457
96962W        W70030  17.028  42.068   3.238
96963W        W70031  25.934  38.809  11.861
96964W        W70032  31.158   3.139  10.480
96965W        W70033  36.532  30.406  10.606
96966W        W70034   0.273  24.943   3.609
96967W        W70035  14.217  18.212  13.777
96968W        W70036   0.615  43.123   5.163
96969W        W70037  13.844  25.099   3.415
96970W        W70038  41.251  26.683   1.702
96971W        W70039  24.694  34.379  12.487
96972W        W70040  12.405  11.204   3.227
96973W        W70041   2.784  32.092   4.113
96974W        W70042  12.821  30.422  13.505
96975W        W70043  29.570  41.243  13.346
96976W        W70044  19.202  38.786  11.053
96977W        W70045  15.277   3.043  14.162
96978W        W70046  30.721  30.840  12.194
96979W        W70047  22.759   9.253  12.944
96980W        W70048  39.052  37.499  14.576
96981W        W70049   4.129  22.163   3.121
96982W        W70050   1.189  17.236   0.816
96983W        W70051  37.406  35.362   2.135
96984W        W70052  13.578   2.527   2.699
96985W        W70053   4.271   6.778  12.032
96986W        W70054   4.963  27.504   1.272
96987W        W70055  14.953  29.018   2.134
96988W        W70056   2.642  36.543   0.225
96989W        W70057   7.174  10.165  10.534
96990W        W70058   8.786  42.770  10.952
96991W        W70059   4.340   0.713   4.370
96992W        W70060  13.937  36.313  10.786
96993W        W70061  12.337  30.606  10.930
96994W        W70062  18.102   5.024  12.592
96995W        W70063  17.880  25.567  12.455
96996W        W70064  30.409  10.989  12.150
96997W        W70065  17.727  38.071   4.579
96998W        W70066  25.112  35.362  14.299
96999W        W70067   1.280  44.344   1.386
97000W        W70068  19.353  12.931   4.205
97001W        W70069   5.334  18.342  12.337
97002W        W70070  42.108  20.508  13.902
97003W        W70071  12.245  10.846  13.890
97004W        W70072  23.586   8.960  14.608
97005W        W70073  43.232  29.573   2.608
97006W        W70074  19.605  28.332  13.520
97007W        W70075  29.036  14.857   1.125
97008W        W70076  17.262   5.097   0.571
97009W        W70077  42.532  41.425   0.465
97010W        W70078  37.905  26.887  11.080
97011W        W70079  32.021  22.930  10.989
97012W        W70080  43.546   9.249  14.297
97013W        W70081  33.562  38.309  12.933
97014W        W70082  22.264  36.230   4.107
97015W        W70083  23.562  25.151  13.468
97016W        W70084  41.976  41.875   2.773
97017W        W70085  25.680   4.219   1.537
97018W        W70086  21.299  25.172  12.891
97019W        W70087  23.532  32.014  11.205
97020W        W70088   6.881  22.791   3.255
97021W        W70089  24.914   7.805   3.607
97022W        W70090  32.094  33.438  13.881
97023W        W70091  39.239  28.072   0.937
97024W        W70092  33.532  39.839  14.734
97025W        W70093   5.853  17.110  11.112
97026W        W70094   3.219   6.900   3.870
97027W        W70095  32.039   8.120   2.201
97028W        W70096  43.820   8.112  12.397
97029W        W70097  11.924  24.169   4.314
97030W        W70098   3.385  12.255  11.906
97031W        W70099  33.108  44.201  14.849
97032W        W70100  31.838  33.037   1.509
97033W        W70101  38.306  23.014   4.362
97034W        W70102  29.752   2.697   0.365
97035W        W70103   8.696  24.451   1.813
97036W        W70104  43.987   6.856   3.750
97037W        W70105   4.278   0.041   0.371
97038W        W70106  20.389  42.488   2.612
97039W        W70107  23.147  28.893  13.500
97040W        W70108   2.658  21.917   3.349
97041W        W70109  44.337   5.366   3.263
97042W        W70110  15.922  31.958  10.316
97043W        W70111   1.151  41.218  11.122
97044W        W70112  26.681   7.421  10.780
97045W        W70113  42.094  44.701   5.143
97046W        W70114  15.111   8.616   0.463
97047W        W70115   5.787  29.732   3.617
97048W        W70116  21.158   7.103  12.260
97049W        W70117  35.888  10.373  13.449
97050W        W70118  35.444  13.280   3.407
97051W        W70119  12.870   1.892  13.099
97052W        W70120  24.959  30.438   0.268
97053W        W70121  30.680  28.792  10.300
97054W        W70122  27.189  10.862   2.095
97055W        W70123  31.006  25.692   2.488
97056W        W70124  30.501  26.254   4.704
97057W        W70125  39.930  23.670  12.764
97058W        W70126   8.380  31.133  14.332
97059W        W70127   4.327  14.374  12.826
97060W        W70128  26.785  25.707  13.475
97061W        W70129  42.071  11.399  12.019
97062W        W70130  33.410  22.232  14.479
97063W        W70131  15.979   9.333   5.004
97064W        W70132  28.212  43.747  14.752
97065W        W70133  16.520  23.900  14.974
97066W        W70134   6.806  12.062  13.998
97067W        W70135  21.103  14.666   0.669
97068W        W70136  34.536  38.329   2.207
97069W        W70137  11.241   8.709   0.791
97070W        W70138  16.832  36.535  12.206
97071W        W70139  19.340  43.988  10.255
97072W        W70140  25.197  18.662   4.781
97073W        W70141  18.664  35.176   1.208
97074W        W70142   8.922  16.293  14.486
97075W        W70143  11.798  11.385  11.594
97076W        W70144  19.149  24.499  13.849
97077W        W70145  22.148  32.472  14.834
97078W        W70146  33.004   4.355  14.474
97079W        W70147   4.391  12.825  14.244
97080W        W70148  38.914  12.210  12.565
97081W        W70149  17.826  36.821   2.679
97082W        W70150   5.898  19.682  12.547
97083W        W70151  26.022  26.975  12.483
97084W        W70152   4.273  20.063  14.795
97085W        W70153  30.633  17.246   4.679
97086W        W70154   4.306  44.026  10.522
97087W        W70155  23.820  42.539  14.327
97088W        W70156  34.917  35.110  10.100
97089W        W70157  30.090  41.845  14.538
97090W        W70158  16.157  34.906  10.863
97091W        W70159  14.799   2.669   1.332
97092W        W70160  28.255  38.356  13.842
97093W        W70161  30.783  38.525  14.438
97094W        W70162  17.084  40.379  13.108
97095W        W70163  19.552  12.773  14.714
97096W        W70164  26.631  29.540   3.204
97097W        W70165  25.549  37.088  12.107
97098W        W70166  18.633  32.056  12.943
97099W        W70167  31.493  27.052  10.497
97100W        W70168  26.536  23.229   2.596
97101W        W70169  41.398   2.256   2.723
97102W        W70170  43.782  17.725  11.204
97103W        W70171  13.910  19.579  13.689
97104W        W70172  42.843   6.850   2.394
97105W        W70173  44.696  12.088   4.260
97106W        W70174  27.725  21.595   4.279
97107W        W70175  12.110  29.920   1.299
97108W        W70176  37.933  24.319   4.601
97109W        W70177   7.416  14.041   1.675
97110W        W70178  33.970  13.070  12.033
97111W        W70179  13.153  42.901  14.834
97112W        W70180  29.089  21.840  10.776
97113W        W70181  24.590   0.746  10.808
97114W        W70182  37.782   6.043   0.406
97115W        W70183  27.913  20.539  13.581
97116W        W70184   1.193  10.987  13.974
97117W        W70185  19.146  24.078   2.218
97118W        W70186  15.558  39.492  13.977
97119W        W70187  21.304   5.816   2.179
97120W        W70188  35.225  39.028   3.767
97121W        W70189   9.127  14.247   2.212
97122W        W70190   5.439  15.599   0.078
97123W        W70191  14.220  43.997  14.908
97124W        W70192  18.449  10.223   4.289
97125W        W70193  18.189  14.375   2.288
97126W        W70194  36.541  44.921   0.520
97127W        W70195  26.776  29.404  11.963
97128W        W70196  37.554  10.868  14.933
97129W        W70197  38.633   9.876   1.971
97130W        W70198  11.254  28.692   1.731
97131W        W70199  27.749   5.708  14.031
97132W        W70200  22.923  29.981  14.882
97133W        W70201  12.208   6.383   3.607
97134W        W70202  24.729  32.420  14.001
97135W        W70203  33.113  34.440  12.993
97136W        W70204  16.584  33.641   2.631
97137W        W70205  23.035  26.684   4.711
97138W        W70206  18.962   2.294  12.422
97139W        W70207  37.690  24.576   1.853
97140W        W70208  36.371  34.532  11.011
97141W        W70209   4.806  12.844  11.198
97142W        W70210  43.787  12.122  13.482
97143W        W70211  43.461  33.296  10.836
97144W        W70212  41.399  43.396   3.116
97145W        W70213  29.633  42.819   0.945
97146W        W70214  40.073  11.515   3.328
97147W        W70215  37.087   6.964   3.274
97148W        W70216  15.319   1.725   3.751
97149W        W70217  36.881   2.769   3.131
97150W        W70218  42.235  34.879  10.767
97151W        W70219  32.349  27.665   3.311
97152W        W70220  32.619  27.665   2.224
97153W        W70221  30.158  17.943  12.544
97154W        W70222  20.436  19.266  14.803
97155W        W70223   7.740  20.610  12.159
97156W        W70224  30.599   5.198   3.238
97157W        W70225  44.075   6.793   1.524
97158W        W70226   6.935   1.761  13.383
97159W        W70227  38.404  22.754   0.555
97160W        W70228   4.897  14.001   4.188
97161W        W70229   8.618  19.564   1.690
97162W        W70230  13.743  33.973   3.191
97163W        W70231  33.519  36.606  13.886
97164W        W70232  30.422  38.751   1.859
97165W        W70233  13.375  17.105  14.451
97166W        W70234  26.179  10.643   1.784
97167W        W70235   1.515  33.549  10.707
97168W        W70236   3.890  11.640   1.308
97169W        W70237   1.354   1.919  12.495
97170W        W70238  25.795  30.026   2.339
97171W        W70239  38.820   2.966  10.726
97172W        W70240  35.478  42.460   0.003
97173W        W70241  25.051  31.217   1.239
97174W        W70242  29.940  12.190   1.557
97175W        W70243  11.569  19.092  14.432
97176W        W70244  19.984   3.295  10.302
97177W        W70245   4.730  14.759   2.730
97178W        W70246   0.295  13.024  11.246
97179W        W70247   9.199  42.439  12.028
97180W        W70248  43.984  37.768   2.839
97181W        W70249  17.032  26.961   2.094
97182W        W70250   3.124   8.104  13.520
97183W        W70251  11.375  44.610   0.828
97184W        W70252  12.118  10.486  14.795
97185W        W70253  26.412  44.690   0.907
97186W        W70254  16.381  39.892   0.420
97187W        W70255  39.907  24.047   2.862
97188W        W70256   7.554  44.914   1.677
97189W        W70257  12.251   8.797  11.886
97190W        W70258  19.707  30.183  13.491
97191W        W70259  36.879  27.235   1.723
97192W        W70260  34.465  39.295  12.460
97193W        W70261  33.506  43.049  10.898
97194W        W70262  32.379  43.447  14.697
97195W        W70263   4.385  34.626   1.308
97196W        W70264   1.480  14.305  12.439
97197W        W70265   0.467  25.572   2.290
97198W        W70266  21.257  13.244   4.787
97199W        W70267  40.219   1.389   1.336
97200W        W70268  25.293   8.681  14.740
97201W        W70269   5.056  32.042   2.907
97202W        W70270  30.593  36.434  13.128
97203W        W70271  22.620  18.222   0.994
97204W        W70272  39.980  21.020   3.125
97205W        W70273  15.527  27.911  11.972
97206W        W70274  37.963  25.182  10.628
97207W        W70275   6.832   8.290   1.758
97208W        W70276   9.165  10.358   2.691
97209W        W70277   8.236  30.035  11.464
97210W        W70278   4.652   7.841  14.946
97211W        W70279   4.662  41.338  13.784
97212W        W70280   9.852  27.223  14.287
97213W        W70281   7.840  38.597  14.945
97214W        W70282  36.036  39.831   2.638
97215W        W70283  27.214  32.731   0.714
97216W        W70284  26.308  24.070   1.832
97217W        W70285  13.853   8.690   1.879
97218W        W70286  19.734  44.926   3.225
97219W        W70287  35.539  37.096  12.337
97220W        W70288   9.090  20.087  14.364
97221W        W70289  19.711  27.858   1.367
97222W        W70290  39.517  33.092  10.682
97223W        W70291  39.076   5.998  10.268
97224W        W70292   0.246  34.963   2.800
97225W        W70293  30.904  11.436   4.291
97226W        W70294  35.547  10.246   3.227
97227W        W70295  15.144  34.416   3.202
97228W        W70296  20.782  40.265   4.449
97229W        W70297   4.082  17.446  11.125
97230W        W70298   7.673  24.536   2.737
97231W        W70299  24.164  15.528  11.973
97232W        W70300  39.322  20.699  14.338
97233W        W70301  10.441  25.381  13.375
97234W        W70302  15.260  28.141  13.185
97235W        W70303  13.157  35.093   0.092
97236W        W70304  25.909  15.080  14.426
97237W        W70305  27.519  11.889   3.927
97238W        W70306   5.108  31.084  14.780
97239W        W70307  21.978   6.871  12.542
97240W        W70308  27.492  25.421  14.996
97241W        W70309   5.349  39.947   1.291
97242W        W70310  38.286  37.535  14.946
97243W        W70311   4.414  27.512   0.427
97244W        W70312  24.494  39.933  14.422
97245W        W70313  14.767   6.449  14.956
97246W        W70314  13.665  15.145   2.138
97247W        W70315  10.310  29.985  10.675
97248W        W70316  13.944  27.849   4.843
97249W        W70317  34.994  44.435   0.975
97250W        W70318  15.181  19.086  14.430
97251W        W70319   1.220  44.260  11.401
97252W        W70320   4.340  23.072  13.377
97253W        W70321  39.434   2.397   0.740
97254W        W70322  33.356  32.103   2.315
97255W        W70323  11.350   0.290  14.481
97256W        W70324  26.510  36.214   2.297
97257W        W70325  40.939  23.112  11.687
97258W        W70326   9.886  35.132   3.676
97259W        W70327  34.277   8.527   4.717
97260W        W70328  38.945  30.004   2.420
97261W        W70329  18.668  37.072   4.571
97262W        W70330  21.922  34.547   2.330
97263W        W70331   9.665   0.923  12.027
97264W        W70332  27.102  44.722  13.467
97265W        W70333  19.500   7.754  14.890
97266W        W70334  11.250   5.494  13.954
97267W        W70335  30.897  22.782   3.853
97268W        W70336  33.588  41.477  11.643
97269W        W70337   4.205  26.139  12.030
97270W        W70338  34.887  32.159  13.870
97271W        W70339   0.553  43.886  10.723
97272W        W70340  14.523  23.973   3.789
97273W        W70341   8.646  33.094   0.228
97274W        W70342  38.912  19.026  14.838
97275W        W70343  36.761  37.415   4.600
97276W        W70344  40.464  19.071   2.226
97277W        W70345   4.854  25.778   0.212
97278W        W70346  12.862  31.201   3.266
97279W        W70347  16.287   3.464  14.965
97280W        W70348  11.634  38.427  12.974
97281W        W70349  31.175  26.449   2.668
97282W        W70350  26.583  44.584  14.656
97283W        W70351   3.177   7.852   1.328
97284W        W70352   7.362  21.684   3.719
97285W        W70353  16.051  23.532  11.486
97286W        W70354  39.194   1.817  10.210
97287W        W70355   5.434   4.675   0.386
97288W        W70356  43.269  35.628  12.888
97289W        W70357   9.952  38.865   1.711
97290W        W70358  10.841  29.721  14.899
97291W        W70359  24.068  43.264   0.005
97292W        W70360  11.179  33.528  14.315
97293W        W70361  10.307  11.609  11.100
97294W        W70362  14.100  24.459  12.977
97295W        W70363  32.846  17.301  12.555
97296W        W70364   4.139  22.142   1.760
97297W        W70365  23.568  10.821   2.637
97298W        W70366  11.978  12.775  11.156
97299W        W70367  19.407  16.001   1.565
97300W        W70368  35.521  21.713  14.866
97301W        W70369  34.784  32.310   2.345
97302W        W70370  26.653   7.186  10.320
97303W        W70371  12.562  43.768  13.948
97304W        W70372  10.005  23.989  13.450
97305W        W70373  19.188  41.540  10.590
97306W        W70374  15.758  44.796   4.361
97307W        W70375  24.667  35.164  11.958
97308W        W70376  15.692  27.099  12.460
97309W        W70377  16.757  39.462  10.610
97310W        W70378  29.957   9.785  14.458
97311W        W70379   5.463   0.441  12.954
97312W        W70380  36.464  29.504  12.805
97313W        W70381  25.523  22.687  14.146
97314W        W70382   3.190  32.040  11.038
97315W        W70383  14.530  11.052  13.888
97316W        W70384  41.378  13.070   4.678
97317W        W70385  19.116  36.950   1.728
97318W        W70386  24.259  30.041  10.759
97319W        W70387  14.514  42.075   4.618
97320W        W70388  31.332  30.422   3.429
97321W        W70389  32.383  29.045   1.699
97322W        W70390  37.352  16.048   4.926
97323W        W70391  27.165  23.507   3.245
97324W        W70392  42.666  37.321   3.194
97325W        W70393  18.594  17.228   1.897
97326W        W70394   4.187  26.550  10.435
97327W        W70395  31.395  20.678  14.873
97328W        W70396  16.101  18.088  13.068
97329W        W70397   5.939  43.457   2.245
97330W        W70398  20.970   6.194   0.084
97331W        W70399  23.588   9.323  12.804
97332W        W70400  20.445   0.147  12.660
97333W        W70401  23.505  29.048   3.148
97334W        W70402  34.892  32.652  13.989
97335W        W70403  37.899  26.980  13.738
97336W        W70404   9.766   5.793   1.819
97337W        W70405  19.098   1.176   4.014
97338W        W70406  42.122  42.053  11.374
97339W        W70407  24.648  21.826   0.746
97340W        W70408   6.729  40.358  11.130
97341W        W70409  29.687   2.431   2.144
97342W        W70410  28.393  44.473  11.108
97343W        W70411  29.229  30.751   2.304
97344W        W70412  37.499  28.123  10.971
97345W        W70413  44.939  13.718   1.881
97346W        W70414  35.063  32.170  11.049
97347W        W70415  15.130  16.718  14.465
97348W        W70416  30.920  30.310   5.123
97349W        W70417   2.488  44.809   3.647
97350W        W70418  31.899  10.166   2.687
97351W        W70419  32.312   1.681   3.763
97352W        W70420   1.426  30.667  13.089
97353W        W70421  21.766  41.129  11.565
97354W        W70422  44.172   6.990  13.513
97355W        W70423  37.501  10.625   3.913
97356W        W70424  30.188  19.563  12.948
97357W        W70425  37.927  24.212  14.292
97358W        W70426   9.384  10.608  11.125
97359W        W70427  13.128  23.993   3.753
97360W        W70428  37.952  31.573   2.706
97361W        W70429  14.179  26.361  12.103
97362W        W70430  40.101  19.244   1.808
97363W        W70431  25.235  26.553  12.822
97364W        W70432  17.141  27.030  12.556
97365W        W70433  41.306   1.029   3.437
97366W        W70434   3.340  26.214  10.722
97367W        W70435  14.063  10.609  10.816
97368W        W70436  30.695  39.517  12.118
97369W        W70437   0.806  26.467  10.399
97370W        W70438  43.670  27.699   3.649
97371W        W70439  27.962  15.087   0.266
97372W        W70440  27.922   5.508  11.062
97373W        W70441   0.362  35.048  11.378
97374W        W70442  43.437  36.014   2.820
97375W        W70443  34.446  19.037  13.556
97376W        W70444  15.767  39.978  13.024
97377W        W70445   4.372   9.795   0.280
97378W        W70446   0.006  19.975   1.740
97379W        W70447  35.075  34.196   3.041
97380W        W70448  37.633   9.226  11.697
97381W        W70449  44.219  32.372  12.635
97382W        W70450  41.742  38.072   3.248
97383W        W70451  16.184   8.279   3.202
97384W        W70452  12.851  26.152  13.585
97385W        W70453   1.777  42.189   2.845
97386W        W70454  36.608  28.863  10.683
97387W        W70455  19.685  17.193  13.937
97388W        W70456  23.230  15.132   2.675
97389W        W70457   6.340  27.997  14.882
97390W        W70458   6.836  27.147  11.951
97391W        W70459  12.797  10.693  10.458
97392W        W70460   4.699  31.748   5.004
97393W        W70461  36.853  12.543  13.633
97394W        W70462  25.560  13.629  11.904
97395W        W70463   9.887  39.902  12.327
97396W        W70464  37.548   2.908   1.712
97397W        W70465  21.610   1.184   3.055
97398W        W70466  14.188  22.600   4.071
97399W        W70467   6.312  21.015   0.922
97400W        W70468  27.295  35.325  12.058
97401W        W70469  20.239  16.795  11.525
97402W        W70470   2.698  33.536   1.686
97403W        W70471  44.054  39.675  14.952
97404W        W70472  11.399  10.826   1.224
97405W        W70473  34.810  35.610   4.376
97406W        W70474  11.623  37.205  11.179
97407W        W70475  38.038  16.971  14.778
97408W        W70476  13.540   1.350   1.138
97409W        W70477  25.571  42.897  11.072
97410W        W70478  16.659  14.722  14.817
97411W        W70479  19.253  22.613   2.847
97412W        W70480  34.094  22.571   2.928
97413W        W70481  29.126  23.602   4.021
97414W        W70482  22.805  19.051  11.779
97415W        W70483   4.511  34.952  10.651
97416W        W70484  41.359  17.653   4.254
97417W        W70485  16.702  40.324   2.327
97418W        W70486  16.241  19.271  13.622
97419W        W70487  15.276   9.835   0.947
97420W        W70488   2.697  29.061   4.164
97421W        W70489  31.764  36.459   1.351
97422W        W70490  15.883   9.681   3.944
97423W        W70491  26.018  43.342  14.772
97424W        W70492   8.569  39.726  11.954
97425W        W70493  39.285  16.198   3.424
97426W        W70494  16.115  11.893   1.826
97427W        W70495  24.003  31.974   1.777
97428W        W70496  17.757  13.982   4.461
97429W        W70497  14.454  28.894  10.644
97430W        W70498  11.344  23.116   2.951
97431W        W70499   5.325  43.716  13.487
97432W        W70500  13.935  18.700  11.221
97433W        W70501  33.071  31.175   1.756
97434W        W70502  16.217  11.166   1.311
97435W        W70503  23.237   4.587   1.364
97436W        W70504  17.761  44.265  11.202
97437W        W70505  42.029  43.727  14.435
97438W        W70506   5.676  24.613  10.677
97439W        W70507  12.637   1.078   1.633
97440W        W70508   7.748  38.250   2.874
97441W        W70509  27.721  16.777   0.704
97442W        W70510  29.539   7.333   4.174
97443W        W70511  11.312   1.887   0.372
97444W        W70512   0.419  19.588   0.558
97445W        W70513   9.270  17.012  14.368
97446W        W70514  42.362   0.810  12.310
97447W        W70515   3.174  14.621  11.461
97448W        W70516  23.058   2.733   0.667
97449W        W70517  22.756  12.639   4.062
97450W        W70518   2.502  26.008   2.845
97451W        W70519   2.203   4.854  13.034
97452W        W70520  43.497  44.798   3.160
97453W        W70521  12.237   6.168  14.402
97454W        W70522  41.034   7.201  14.374
97455W        W70523  24.682   9.862   3.063
97456W        W70524  19.853  18.187  12.880
97457W        W70525  28.452  29.299   3.604
97458W        W70526  33.356  37.624   4.050
97459W        W70527  41.416  26.135  13.100
97460W        W70528  44.383   3.432   2.872
97461W        W70529  21.551  41.524   4.511
97462W        W70530  19.650  11.700   2.312
97463W        W70531  42.876  17.599  14.746
97464W        W70532  15.205  12.596   0.315
97465W        W70533  16.963   2.003  13.920
97466W        W70534  28.903  13.023  11.126
97467W        W70535  34.355  37.180  11.039
97468W        W70536   4.294   7.400  11.468
97469W        W70537  43.777  22.141  14.820
97470W        W70538  37.546  24.196  12.662
97471W        W70539  13.829  15.475  13.942
97472W        W70540  42.411  19.397   3.312
97473W        W70541   7.984  13.300   2.259
97474W        W70542  33.129  14.243  14.834
97475W        W70543  39.756   5.468  11.536
97476W        W70544   7.005   3.468  11.422
97477W        W70545  33.538   2.760   2.333
97478W        W70546  23.701  15.299  12.090
97479W        W70547  29.984  25.556  12.088
97480W        W70548  43.425  25.236  13.842
97481W        W70549   6.168  33.642   1.344
97482W        W70550  27.662  40.102   4.693
97483W        W70551  37.913  28.995   2.192
97484W        W70552   8.779  12.833  10.466
97485W        W70553   3.360   2.213  13.101
97486W        W70554  42.980  23.892  13.936
97487W        W70555  27.561   7.443  14.324
97488W        W70556  29.661  38.369   3.360
97489W        W70557   5.883  30.240   3.631
97490W        W70558   0.590   0.328   3.726
97491W        W70559   8.326  35.876  14.972
97492W        W70560   5.299  38.586   0.984
97493W        W70561  29.305  16.758  12.455
97494W        W70562  11.443  18.759   1.820
97495W        W70563  44.418  10.185   3.138
97496W        W70564  35.395  29.968  11.316
97497W        W70565  41.422  14.638  14.927
97498W        W70566  28.932   3.720  11.176
97499W        W70567  36.032   8.216   0.832
97500W        W70568  36.659  24.785   1.819
97501W        W70569  31.352  11.798   3.233
97502W        W70570  44.356  28.941  10.206
97503W        W70571  41.952   2.223   4.518
97504W        W70572  20.467  40.848  11.389
97505W        W70573  40.844  36.575  14.727
97506W        W70574   7.147  13.245   2.679
97507W        W70575  38.046  43.822   3.728
97508W        W70576  43.549  35.056   2.249
97509W        W70577  17.021  44.582  12.962
97510W        W70578  39.675  20.159   4.867
97511W        W70579   3.077   5.631  13.307
97512W        W70580  22.741  11.705  14.267
97513W        W70581   2.448  38.904   4.690
97514W        W70582  24.868  24.991   3.639
97515W        W70583  44.948  28.583  12.357
97516W        W70584  19.200  40.374  11.034
97517W        W70585  40.268  21.993  10.903
97518W        W70586  43.860  22.985   1.416
97519W        W70587   1.381   2.949  12.532
97520W        W70588  38.867  30.686   4.859
97521W        W70589  40.337  20.593  14.849
97522W        W70590  31.660  29.906   2.305
97523W        W70591  38.974   4.894  12.527
97524W        W70592  12.787  34.689   1.193
97525W        W70593  16.184   3.780   2.166
97526W        W70594  42.230  42.924  13.387
97527W        W70595   1.251  15.233  14.915
97528W        W70596  25.697  29.976  13.389
97529W        W70597  11.547  23.760  10.366
97530W        W70598  11.175  36.548   4.573
97531W        W70599  19.817  28.556  14.386
97532W        W70600  34.742  24.738   0.263
97533W        W70601  43.843  21.053  13.535
97534W        W70602  30.962  30.945  10.824
97535W        W70603  22.281  27.247   1.964
97536W        W70604  30.035  39.640  14.521
97537W        W70605  19.498  14.063   3.184
97538W        W70606  38.507   4.733  13.820
97539W        W70607  28.927  39.307   3.898
97540W        W70608  43.130  11.500  13.858
97541W        W70609  44.515  41.892   0.263
97542W        W70610  33.486  41.001  11.497
97543W        W70611  41.354  32.651   3.749
97544W        W70612  25.254  14.226   0.186
97545W        W70613  23.536  30.024  14.115
97546W        W70614  38.308  18.299   2.911
97547W        W70615  29.928  13.303   2.484
97548W        W70616  11.730  30.075  11.885
97549W        W70617   9.823  21.713  13.059
97550W        W70618  18.102   8.828  12.100
97551W        W70619  25.397   2.442   2.789
97552W        W70620   1.696  27.054   3.122
97553W        W70621  38.609  10.381  14.280
97554W        W70622   4.894  24.320  14.323
97555W        W70623  37.431  29.886   0.790
97556W        W70624  39.834  26.075  13.570
97557W        W70625  43.162  32.933  14.798
97558W        W70626   7.492  34.828   1.156
97559W        W70627  32.342  13.906  12.962
97560W        W70628   8.752  37.083   1.828
97561W        W70629   0.306   6.856   4.296
97562W        W70630  29.468  42.261  11.021
97563W        W70631   5.721  28.029  11.965
97564W        W70632   4.907  38.819   3.689
97565W        W70633  10.132  35.331  14.367
97566W        W70634  12.748  19.802  14.533
97567W        W70635  13.889  10.280   0.279
97568W        W70636  40.617  44.324   4.833
97569W        W70637  40.275   9.209   2.845
97570W        W70638   5.350   6.442   2.639
97571W        W70639  38.423  40.053  14.046
97572W        W70640  29.250   4.352   3.820
97573W        W70641  11.833  20.286  14.016
97574W        W70642  24.152  20.488  12.793
97575W        W70643  11.452  27.614   0.402
97576W        W70644  19.179  32.925  14.510
97577W        W70645  15.660  10.410  13.109
97578W        W70646  16.787  36.113  10.559
97579W        W70647   6.273   9.148  14.746
97580W        W70648  22.570  43.561   0.380
97581W        W70649  30.536  25.365  11.642
97582W        W70650  10.120  36.571  11.069
97583W        W70651  13.956  17.811   1.848
97584W        W70652  40.415  17.199  14.903
97585W        W70653   4.512   5.728  11.813
97586W        W70654  14.205  41.583  13.568
97587W        W70655  20.779  15.846   4.894
97588W        W70656   5.385  30.008  13.570
97589W        W70657  30.172   5.853   3.912
97590W        W70658   8.267  18.643  10.569
97591W        W70659  28.539  26.850   2.325
97592W        W70660  36.824  36.071   0.983
97593W        W70661  41.296  42.254  12.545
97594W        W70662  32.419  43.946   2.379
97595W        W70663  18.368   9.580   1.697
97596W        W70664  35.606  35.577  14.328
97597W        W70665  26.466  17.199  12.385
97598W        W70666  28.777  25.322  12.559
97599W        W70667  44.538  44.214  13.998
97600W        W70668  39.367  20.339  13.965
97601W        W70669  38.848  44.263   2.294
97602W        W70670  38.247  21.183   4.290
97603W        W70671  35.174   9.896  12.437
97604W        W70672   1.757  42.715   3.182
97605W        W70673  32.367  17.083   3.162
97606W        W70674  38.510  25.939   2.181
97607W        W70675  23.249  35.286   1.421
97608W        W70676   4.773   0.185  14.862
97609W        W70677  20.063  24.765   4.544
97610W        W70678   5.515  41.390   3.282
97611W        W70679   0.849  31.380  13.779
97612W        W70680   7.331  28.355  11.992
97613W        W70681   4.448  31.367   3.178
97614W        W70682   1.101  25.189   4.532
97615W        W70683  17.888  17.255   3.222
97616W        W70684  43.801  31.516   4.503
97617W        W70685  31.461  38.507   0.438
97618W        W70686  33.998  18.650  12.821
97619W        W70687  31.557   1.442   0.378
97620W        W70688  17.222  37.733  14.316
97621W        W70689  24.045  37.010  12.113
97622W        W70690  20.513  44.276   5.092
97623W        W70691  39.619  38.322   1.350
97624W        W70692  27.181  19.297   0.005
97625W        W70693  15.113  13.646  11.121
97626W        W70694  42.338  36.079  14.825
97627W        W70695  22.050  19.589   2.173
97628W        W70696  40.980  36.496   0.640
97629W        W70697  36.604  35.490   1.716
97630W        W70698   9.727  37.491  12.938
97631W        W70699  16.550  34.471   2.177
97632W        W70700  32.619  40.538  12.159
97633W        W70701  32.547   3.374   1.775
97634W        W70702  35.921  36.567   2.313
97635W        W70703  20.204  40.941   4.743
97636W        W70704  16.299  31.491   1.452
97637W        W70705  44.218  24.809   4.536
97638W        W70706  26.218  36.366   3.654
97639W        W70707   7.565   3.884  13.872
97640W        W70708  37.498   6.689   0.890
97641W        W70709  21.736   6.507   0.172
97642W        W70710   5.454  41.336  11.975
97643W        W70711  26.970  41.830   1.249
97644W        W70712  28.618  31.152  12.446
97645W        W70713   9.242  41.240   1.837
97646W        W70714  42.824  37.789   3.369
97647W        W70715  24.883  33.773  14.389
97648W        W70716  28.068  35.136  13.265
97649W        W70717  36.059  19.088   1.646
97650W        W70718  33.394  24.193   2.806
97651W        W70719   3.292  21.592  10.938
97652W        W70720   2.915  15.155  10.607
97653W        W70721   7.131  13.883  11.416
97654W        W70722  42.041  41.268  14.462
97655W        W70723  21.722  13.489   2.741
97656W        W70724   6.353   9.118  13.381
97657W        W70725  38.872  18.947  10.637
97658W        W70726  16.701  35.075  12.969
97659W        W70727  19.516  10.250   4.985
97660W        W70728  42.049  27.269  14.743
97661W        W70729  35.372   3.095   3.213
97662W        W70730  23.363   7.303   4.584
97663W        W70731  23.065  35.111   4.114
97664W        W70732  28.205   3.892  13.420
97665W        W70733  31.230  17.676   1.315
97666W        W70734  17.479  18.156   4.231
97667W        W70735  35.692  43.492  12.866
97668W        W70736  22.529   2.972  13.032
97669W        W70737  26.036  19.063   2.840
97670W        W70738   6.195  15.062  14.894
97671W        W70739   0.363  43.985   0.867
97672W        W70740  31.020  14.898  14.995
97673W        W70741  11.691   5.335  14.526
97674W        W70742   3.369  28.662   0.312
97675W        W70743  23.642  30.395  13.758
97676W        W70744  37.813  14.047   4.662
97677W        W70745  43.748  17.798   2.119
97678W        W70746  30.406   7.607   1.793
97679W        W70747  31.491  20.491   3.625
97680W        W70748  16.435   5.409   0.592
97681W        W70749   2.497  40.059   2.311
97682W        W70750   6.609  15.533   4.164
97683W        W70751   3.752  42.483  11.927
97684W        W70752  10.724  28.575   1.627
97685W        W70753  44.506  10.649   1.932
97686W        W70754  16.506  13.799   1.329
97687W        W70755  28.318   3.409  12.703
97688W        W70756  38.880  40.501  12.472
97689W        W70757   9.265  38.015  14.868
97690W        W70758  36.618  16.850  13.467
97691W        W70759  43.482  30.399   2.202
97692W        W70760   9.629   2.761   2.703
97693W        W70761  38.064  10.687   1.885
97694W        W70762  19.643  17.746   1.481
97695W        W70763  34.452  24.032  10.528
97696W        W70764  39.139  25.710  13.949
97697W        W70765  23.753  41.618   1.398
97698W        W70766  24.073  29.467   4.670
97699W        W70767   2.265  14.087   3.160
97700W        W70768  20.542  22.845  13.036
97701W        W70769  13.653  11.130  12.444
97702W        W70770  13.856  33.565   4.609
97703W        W70771  33.887  15.578  12.363
97704W        W70772   1.262  17.819   4.270
97705W        W70773  36.552  36.033   1.696
97706W        W70774  31.367   5.602   2.946
97707W        W70775  43.022   9.751  14.842
97708W        W70776  28.735  34.482   1.857
97709W        W70777  18.813  12.310   1.768
97710W        W70778  41.541   2.912   0.913
97711W        W70779   6.934  33.561   3.874
97712W        W70780  23.373   3.533  10.039
97713W        W70781  26.258  23.089  11.430
97714W        W70782  21.542   5.214  11.136
97715W        W70783  35.370  29.031  12.561
97716W        W70784   1.002  15.802  10.362
97717W        W70785  10.182  18.187  10.247
97718W        W70786   2.965  30.174  12.260
97719W        W70787   4.895  20.300   2.343
97720W        W70788  11.872  36.373  14.957
97721W        W70789  32.474  35.311  13.276
97722W        W70790   1.933  12.935   1.392
97723W        W70791  21.069  15.490   3.186
97724W        W70792  37.322  14.266  13.337
97725W        W70793  30.928  15.863   1.030
97726W        W70794  31.589  32.426  13.170
97727W        W70795  21.248  37.883   0.176
97728W        W70796  22.746  15.762   3.725
97729W        W70797  43.458   3.744  14.233
97730W        W70798  12.804  27.245   3.720
97731W        W70799   7.739  12.068   2.765
97732W        W70800  16.056   9.143   3.972
97733W        W70801   0.837  33.182   2.935
97734W        W70802  25.971  16.758  14.470
97735W        W70803  19.501  25.755  11.173
97736W        W70804  14.248   6.525  11.631
97737W        W70805  24.348  13.078   1.271
97738W        W70806  28.314  16.862  13.488
97739W        W70807  36.445  37.223   4.263
97740W        W70808   5.911  21.149   2.153
97741W        W70809  43.943   4.753  14.849
97742W        W70810  33.942  10.971   0.871
97743W        W70811  34.424  41.279   0.420
97744W        W70812   8.360  22.025  14.081
97745W        W70813  34.428   0.357   4.377
97746W        W70814  33.310  10.047  14.872
97747W        W70815  14.657   9.955   3.260
97748W        W70816  29.010  22.795   0.849
97749W        W70817   7.430   4.384  13.871
97750W        W70818  30.927  31.667  11.957
97751W        W70819  29.065  31.859  10.771
97752W        W70820  27.169  33.953  11.484
97753W        W70821  12.829  38.783   2.708
97754W        W70822  11.844   8.235  11.172
97755W        W70823   8.959  15.848  14.163
97756W        W70824  27.464  39.994  14.238
97757W        W70825   2.132   9.361  14.771
97758W        W70826  38.043   4.092  10.667
97759W        W70827   7.442  14.155  11.057
97760W        W70828   7.611  29.694   2.260
97761W        W70829  15.205  10.234  13.341
97762W        W70830  11.911  10.260   4.552
97763W        W70831  41.705  29.835  12.053
97764W        W70832   5.343  34.959  11.197
97765W        W70833  41.506   4.686  12.954
97766W        W70834   4.456   0.018  13.045
97767W        W70835   1.239  43.372  14.595
97768W        W70836  31.897  35.488   4.340
97769W        W70837  29.918  35.731   3.086
97770W        W70838  34.611  39.988   0.239
97771W        W70839  32.319  44.808   3.784
97772W        W70840  37.586  30.348   4.467
97773W        W70841  13.163   9.963   2.656
97774W        W70842   6.960  13.288  13.992
97775W        W70843  13.608  29.374   4.575
97776W        W70844   9.198  27.999  14.358
97777W        W70845  20.284   0.280   2.898
97778W        W70846  26.184   3.837   3.678
97779W        W70847  23.157  21.653   2.563
97780W        W70848   6.948  17.462   0.143
97781W        W70849   7.121  42.858  11.374
97782W        W70850  31.134  26.255  12.323
97783W        W70851  15.301  44.913  12.175
97784W        W70852  17.159  35.797   3.674
97785W        W70853  38.090  25.648  12.040
97786W        W70854   6.277  18.205   4.886
97787W        W70855  30.906  42.771   2.363
97788W        W70856  43.918  13.799   2.248
97789W        W70857  23.751   5.329  11.591
97790W        W70858  15.122  31.221  12.980
97791W        W70859  13.649  44.288   0.828
97792W        W70860  19.727  10.418  11.273
97793W        W70861  28.825  44.658  13.604
97794W        W70862  26.449   8.164  12.934
97795W        W70863  11.026  25.238  10.776
97796W        W70864  33.501   7.339   0.354
97797W        W70865  15.575  36.588   1.227
97798W        W70866  32.372   1.865  14.234
97799W        W70867  30.430  18.733  14.763
97800W        W70868  16.372  13.043   0.273
97801W        W70869  37.057   7.289  14.497
97802W        W70870  44.783   9.191   0.263
97803W        W70871   9.418  27.895   4.297
97804W        W70872  30.939  10.121   0.276
97805W        W70873  14.270  10.191  11.124
97806W        W70874  11.098   6.705   4.099
97807W        W70875  19.017  15.336  11.489
97808W        W70876  15.101   0.852   2.852
97809W        W70877  43.781   1.089   4.653
97810W        W70878  26.741  41.900  14.854
97811W        W70879  38.330  24.096   4.861
97812W        W70880  21.576   9.206   4.302
97813W        W70881  40.957  27.035  14.888
97814W        W70882   0.919  29.928   3.436
97815W        W70883   4.352  31.246  13.049
97816W        W70884  19.550  25.829   2.706
97817W        W70885  37.349  27.995  10.504
97818W        W70886  25.518   8.302   2.523
97819W        W70887  40.832  24.938  14.872
97820W        W70888  29.150  33.048  14.472
97821W        W70889  15.614  37.841  13.351
97822W        W70890  26.557   7.315   0.467
97823W        W70891  42.952  11.529   4.503
97824W        W70892   8.640  34.669  11.961
97825W        W70893  13.317   5.763  11.879
97826W        W70894  17.848  25.217   0.899
97827W        W70895  18.716   3.895   4.415
97828W        W70896  15.035   5.669   2.242
97829W        W70897  32.906   9.916  14.520
97830W        W70898  12.236  28.917  13.557
97831W        W70899  32.471  11.789   4.645
97832W        W70900  36.721  29.645  13.851
97833W        W70901  23.508  40.920   2.817
97834W        W70902  42.491  39.888  10.516
97835W        W70903  13.735   1.944   3.713
97836W        W70904  19.494  31.486  13.787
97837W        W70905  33.881  27.792   3.129
97838W        W70906   4.369   3.277   4.661
97839W        W70907  14.146  25.074  12.380
97840W        W70908  17.364   9.404   2.850
97841W        W70909  23.997   5.285  13.042
97842W        W70910  18.404  23.722   1.855
97843W        W70911  43.522  32.829  11.115
97844W        W70912   8.866  16.781   2.381
97845W        W70913   4.041  20.467   4.539
97846W        W70914  25.582  30.929   3.603
97847W        W70915  26.293   5.238   4.092
97848W        W70916  37.672   8.740  13.679
97849W        W70917  10.543  36.406  10.739
97850W        W70918  12.287  34.698   2.856
97851W        W70919  11.567  10.347   3.729
97852W        W70920   0.983   4.206   3.681
97853W        W70921  17.233  38.843   0.792
97854W        W70922  25.668  19.991   2.029
97855W        W70923  13.782   2.298  13.913
97856W        W70924  22.143  13.438  11.573
97857W        W70925  27.185  30.517   4.671
97858W        W70926  20.262  29.950  12.909
97859W        W70927  21.212  37.400   9.794
97860W        W70928  38.855  43.060  13.465
97861W        W70929  19.593  24.549  10.674
97862W        W70930  27.665  23.526   3.186
97863W        W70931  22.291  28.705  14.319
97864W        W70932  26.690  41.860   4.100
97865W        W70933   8.309  15.092  14.222
97866W        W70934  14.813   7.174  11.268
97867W        W70935  30.550  39.686   0.816
97868W        W70936  15.791  36.467  12.394
97869W        W70937  12.809  15.713  11.115
97870W        W70938  34.058   7.264  11.618
97871W        W70939  40.296  36.258   3.255
97872W        W70940  13.633  19.155  11.153
97873W        W70941  21.751  34.959   4.017
97874W        W70942  15.757   4.354   4.431
97875W        W70943  33.450  42.298  13.300
97876W        W70944  25.002  16.235  13.418
97877W        W70945  43.184  11.362  13.356
97878W        W70946   7.418   1.873  11.191
97879W        W70947   6.081   6.313  11.720
97880W        W70948  26.901   4.972  12.893
97881W        W70949  19.253   9.565  11.886
97882W        W70950   5.078  10.164  10.741
97883W        W70951   5.144   2.489   0.329
97884W        W70952  22.124  18.082   0.283
97885W        W70953  44.916   9.330  13.415
97886W        W70954  23.466  18.992  11.132
97887W        W70955  36.788  24.558   2.312
97888W        W70956  30.941  33.585  13.864
97889W        W70957  38.912  44.375   5.215
97890W        W70958  26.047   6.367   1.075
97891W        W70959   9.716  38.287   2.901
97892W        W70960  29.328  28.269   4.137
97893W        W70961  26.367  28.914  14.755
97894W        W70962  43.732  32.267  12.579
97895W        W70963  44.403  19.467  13.648
97896W        W70964  12.870  28.154  12.033
97897W        W70965  23.583  13.714  12.134
97898W        W70966  14.379   2.992   1.274
97899W        W70967   7.696  17.152  14.155
97900W        W70968  40.856  21.467   2.936
97901W        W70969   7.213  37.716  12.048
97902W        W70970  32.135  16.510   0.389
97903W        W70971  10.588   5.172   1.940
97904W        W70972   4.253  36.709  13.424
97905W        W70973  41.360  29.370  12.238
97906W        W70974  23.597   1.020  12.047
97907W        W70975  20.110   1.375   1.977
97908W        W70976   6.292  43.202   3.960
97909W        W70977  40.173   1.487   5.426
97910W        W70978  13.894  38.354  12.941
97911W        W70979   4.421  14.307   3.570
97912W        W70980  31.098   3.648   1.744
97913W        W70981   3.973  41.043   3.344
97914W        W70982  19.752  32.232   4.093
97915W        W70983   9.052  26.092  12.434
97916W        W70984  44.366   5.887   3.211
97917W        W70985   4.978   1.799  11.607
97918W        W70986  33.942  22.681   4.864
97919W        W70987   9.150   3.841  12.406
97920W        W70988   5.160  23.744   3.548
97921W        W70989  17.802   3.238   2.829
97922W        W70990   1.265  15.305  13.228
97923W        W70991  42.461  23.808  12.106
97924W        W70992  23.151  22.203  14.468
97925W        W70993  30.570  38.828   3.615
97926W        W70994  19.379  40.344   2.305
97927W        W70995  25.186  15.898  13.762
97928W        W70996  12.554  29.720   0.827
97929W        W70997  40.945  42.978   0.542
97930W        W70998   4.788  14.845   0.670
97931W        W70999  31.125  39.890  13.289
97932W        W71000  42.695  37.006  13.881
97933W        W71001  23.567  39.937   0.275
97934W        W71002  16.583  42.272  11.051
97935W        W71003   0.701  12.589   1.407
97936W        W71004  38.917  43.772   3.412
97937W        W71005  15.318   2.068  12.837
97938W        W71006  36.030  28.260   2.944
97939W        W71007  31.659   4.859  10.806
97940W        W71008  16.823  15.242  13.961
97941W        W71009  43.442   7.366  13.947
97942W        W71010   1.531  44.129  12.765
97943W        W71011  33.654  42.903  11.921
97944W        W71012  44.518   0.662   5.055
97945W        W71013   4.454  41.766   0.516
97946W        W71014   5.255  43.330  14.291
97947W        W71015  32.291  38.182  14.339
97948W        W71016   0.967  15.209   2.881
97949W        W71017  19.314  36.931   0.305
97950W        W71018  30.686  25.461  12.529
97951W        W71019   6.205  23.166  12.128
97952W        W71020  24.557  30.380   4.827
97953W        W71021  19.519  10.318  13.924
97954W        W71022   6.121   7.218   4.698
97955W        W71023  42.848  27.710  14.423
97956W        W71024  16.058  28.220  11.096
97957W        W71025  20.918  24.710   3.424
97958W        W71026  13.634  38.481   2.326
97959W        W71027   2.570  26.554   2.254
97960W        W71028  28.984  38.103   0.826
97961W        W71029  40.407  29.183   0.897
97962W        W71030   4.963   0.780  12.957
97963W        W71031  12.924  40.357  14.392
97964W        W71032  39.678  18.656  10.715
97965W        W71033  37.528  11.378   0.056
97966W        W71034  12.644  40.595   2.723
97967W        W71035  31.620  30.446   4.442
97968W        W71036  30.487   9.879   4.392
97969W        W71037   9.547   3.853   0.976
97970W        W71038  28.121  16.190   2.402
97971W        W71039  42.525  17.499  11.099
97972W        W71040  12.369   8.659   0.183
97973W        W71041   5.356  38.355   0.540
97974W        W71042  37.375  27.747  13.762
97975W        W71043  18.234  26.745  13.963
97976W        W71044  31.446  11.630  12.449
97977W        W71045  16.552  35.125  11.156
97978W        W71046   7.840  16.007   4.075
97979W        W71047  15.798  32.850  11.555
97980W        W71048  18.813   2.458  12.915
97981W        W71049  37.182  37.174   1.616
97982W        W71050   6.437  37.296   3.730
97983W        W71051  35.812   5.565   2.824
97984W        W71052  42.826  36.730   2.786
97985W        W71053  31.054   1.331   1.142
97986W        W71054  34.571  33.241   0.340
97987W        W71055  34.978  23.194  12.842
97988W        W71056  19.112  35.287   0.277
97989W        W71057  17.546  35.015   0.811
97990W        W71058  31.564  16.812  12.073
97991W        W71059  32.539  31.386   2.614
97992W        W71060   4.870  28.423   2.355
97993W        W71061  34.182  10.618  12.493
97994W        W71062  22.754  22.047  13.721
97995W        W71063   1.041  25.720  11.521
97996W        W71064  20.263  41.017  13.033
97997W        W71065  43.225  39.278  12.456
97998W        W71066   1.961  38.428   2.855
97999W        W71067  29.559  42.733   2.440
98000W        W71068  35.454  15.720   0.534
98001W        W71069  36.321   8.691   0.696
98002W        W71070   1.446   4.423   3.626
98003W        W71071   8.859  19.946  12.848
98004W        W71072  21.643  16.311  11.159
98005W        W71073  10.843  38.278   2.633
98006W        W71074  25.848  11.734  12.297
98007W        W71075  21.022   0.557  10.994
98008W        W71076   6.598  16.195  11.752
98009W        W71077  38.323  19.592  13.189
98010W        W71078  29.719  41.394   1.110
98011W        W71079  11.743  16.917   3.311
98012W        W71080  26.727  26.877  13.707
98013W        W71081  42.120  43.212  14.276
98014W        W71082   2.337  40.991  13.382
98015W        W71083   0.974  14.233  12.498
98016W        W71084  30.870  16.664   3.144
98017W        W71085  35.739   4.703  11.574
98018W        W71086  39.047  28.968  10.615
98019W        W71087  35.356  20.774  14.355
98020W        W71088  44.091  22.081  12.868
98021W        W71089  11.562   3.496   3.752
98022W        W71090  37.285  42.951   3.554
98023W        W71091  42.978   6.128   3.213
98024W        W71092  13.504  27.289  12.461
98025W        W71093  17.253  21.091   4.111
98026W        W71094  24.588  26.982   4.046
98027W        W71095  31.527  13.094  12.939
98028W        W71096  43.284  42.037   2.232
98029W        W71097  34.673  37.120  14.843
98030W        W71098  22.934  15.263  11.605
98031W        W71099   8.652   9.350  11.540
98032W        W71100  29.753  27.432  14.222
98033W        W71101  37.347   3.462   4.813
98034W        W71102   4.296  33.461   3.237
98035W        W71103   9.559  33.577   1.832
98036W        W71104  40.409  20.783   3.515
98037W        W71105  16.668  33.979   0.820
98038W        W71106  33.213  20.519   0.808
98039W        W71107   9.913   3.908  10.778
98040W        W71108  12.233  41.420  10.704
98041W        W71109  19.023   4.721   5.046
98042W        W71110   3.210  40.965   2.009
98043W        W71111  34.557   9.290   3.616
98044W        W71112  34.110  18.154  13.744
98045W        W71113   7.441  22.092   4.548
98046W        W71114   2.229  13.102   2.348
98047W        W71115  43.038  29.069  13.006
98048W        W71116  44.921  26.271  14.095
98049W        W71117  10.460  10.219  11.625
98050W        W71118  43.858  22.686  10.801
98051W        W71119  41.340  26.973  12.112
98052W        W71120  11.087  27.765  14.003
98053W        W71121  12.085  20.559  14.388
98054W        W71122  41.228  43.836   2.893
98055W        W71123  20.839  21.198   2.198
98056W        W71124  19.889  43.308  13.055
98057W        W71125  35.553  38.761  11.865
98058W        W71126  36.355  21.734   2.373
98059W        W71127  31.875  36.955   1.221
98060W        W71128   1.725   4.733  11.067
98061W        W71129  36.560  39.068   3.448
98062W        W71130  27.127  38.052  13.124
98063W        W71131  16.232  24.402   1.737
98064W        W71132  43.783  26.633  12.050
98065W        W71133  37.871  15.525  12.929
98066W        W71134  16.012  23.808  11.915
98067W        W71135  18.787   4.902  11.547
98068W        W71136  27.578  31.041   3.033
98069W        W71137  33.345  32.820  12.443
98070W        W71138   2.319  10.699  10.989
98071W        W71139  31.386  11.176  11.636
98072W        W71140  29.491  22.965   4.096
98073W        W71141  30.509  39.821  14.430
98074W        W71142   5.282  14.658   2.469
98075W        W71143   9.761  31.542  14.781
98076W        W71144  16.657  26.128  12.033
98077W        W71145  21.989  16.366  11.964
98078W        W71146  31.612  14.706   2.140
98079W        W71147  36.094  27.108  10.996
98080W        W71148  17.508  41.989  11.691
98081W        W71149  10.698  27.779  11.616
98082W        W71150  25.021  20.669   2.824
98083W        W71151  34.544  29.965   4.096
98084W        W71152   0.180  22.509  10.719
98085W        W71153   2.161  34.993   1.875
98086W        W71154  31.044  36.639   4.278
98087W        W71155  14.020  19.139   4.371
98088W        W71156  20.684  32.119  14.691
98089W        W71157  44.466   8.648  11.996
98090W        W71158  23.009  18.624   0.867
98091W        W71159  41.711  31.389   3.152
98092W        W71160  12.850  23.691   0.432
98093W        W71161  29.091  23.424   0.411
98094W        W71162  17.033   1.832  10.816
98095W        W71163   4.843   6.759  10.703
98096W        W71164  36.136  21.795  13.650
98097W        W71165  24.750  10.895   3.307
98098W        W71166  35.983  34.479  13.398
98099W        W71167   0.998  24.401   4.065
98100W        W71168  36.915   5.135   4.926
98101W        W71169  44.485  20.965  11.170
98102W        W71170  39.450  24.632  13.509
98103W        W71171   5.263  44.495  14.060
98104W        W71172  43.359  23.432   0.775
98105W        W71173   8.688   3.627   0.534
98106W        W71174  34.890  30.328  11.557
98107W        W71175   9.235  13.959   0.506
98108W        W71176  10.092  26.606   3.365
98109W        W71177  10.559   3.899   1.354
98110W        W71178  14.912  20.313   1.014
98111W        W71179   0.801   2.743  13.791
98112W        W71180  35.117  34.969  13.290
98113W        W71181  35.290   3.919  11.240
98114W        W71182  18.833  39.947  11.612
98115W        W71183  10.314  25.764  12.022
98116W        W71184  31.130  24.755   1.169
98117W        W71185  15.293  24.702   0.950
98118W        W71186  16.784  35.050  14.945
98119W        W71187  29.090  42.018   3.545
98120W        W71188   2.694   7.789   2.249
98121W        W71189   7.780  38.037   1.129
98122W        W71190   4.266  22.872  13.861
98123W        W71191  31.240  43.395  10.587
98124W        W71192  13.056  33.644  13.547
98125W        W71193  12.869  14.228  14.019
98126W        W71194  20.647  11.132  12.975
98127W        W71195  21.727  21.116  12.830
98128W        W71196  40.886  12.285   4.666
98129W        W71197   7.278   8.459   1.539
98130W        W71198  16.129  33.477   2.865
98131W        W71199  33.590  20.012  14.630
98132W        W71200  19.984   5.347   0.272
98133W        W71201  39.985  24.224   2.186
98134W        W71202  22.294  31.026  11.471
98135W        W71203  19.273  18.158  13.318
98136W        W71204  38.594   8.257   4.138
98137W        W71205  24.710  39.344   4.934
98138W        W71206  36.843  44.464  14.738
98139W        W71207  16.320  40.282   4.136
98140W        W71208   8.849   8.757   1.975
98141W        W71209  15.152  30.675  13.004
98142W        W71210   7.810  42.591   2.838
98143W        W71211   8.238  12.265   2.774
98144W        W71212  30.901   1.770   3.361
98145W        W71213  29.779  24.492  13.790
98146W        W71214  11.505  24.677   2.505
98147W        W71215  24.102  12.625  10.760
98148W        W71216  35.591  22.591  12.834
98149W        W71217  32.497   2.032   2.823
98150W        W71218  30.676  31.534   2.306
98151W        W71219  26.937   5.165  11.210
98152W        W71220  18.179  33.516  11.187
98153W        W71221  10.174  39.361   1.757
98154W        W71222  36.536  29.625  11.259
98155W        W71223   9.362  16.214  11.272
98156W        W71224  22.458  18.594  10.271
98157W        W71225   1.496  37.803   4.873
98158W        W71226   0.457   4.635   3.121
98159W        W71227  30.911  13.882   3.384
98160W        W71228  14.446  11.326  13.418
98161W        W71229  16.830  27.570   4.629
98162W        W71230  36.343  17.549  11.230
98163W        W71231   0.166  20.965  11.425
98164W        W71232  35.943  34.562   1.071
98165W        W71233   6.450  27.695   0.863
98166W        W71234  17.565  35.806   3.183
98167W        W71235  10.696   7.465   4.143
98168W        W71236   1.501  17.724  10.673
98169W        W71237   2.725  39.641   4.081
98170W        W71238  38.179  35.341   3.417
98171W        W71239   9.298  14.099   3.997
98172W        W71240   4.209  20.947   4.645
98173W        W71241  43.245  17.234  14.977
98174W        W71242  40.928   8.609  14.758
98175W        W71243   2.872  20.232  14.796
98176W        W71244  37.261  41.982   3.515
98177W        W71245  13.579  23.192  14.287
98178W        W71246   3.708   0.784  11.611
98179W        W71247  18.715  13.075   0.249
98180W        W71248  11.240  19.602   2.689
98181W        W71249  24.186  14.167   2.638
98182W        W71250  37.412  40.816  11.656
98183W        W71251  38.522  36.689  12.906
98184W        W71252   8.746  38.752   5.144
98185W        W71253  43.224   4.794  13.999
98186W        W71254   2.011  21.076   2.485
98187W        W71255  44.747  26.712  11.064
98188W        W71256  38.335  30.187  11.864
98189W        W71257  38.416   6.964   3.502
98190W        W71258  12.784  36.632  11.484
98191W        W71259  13.332   5.106  13.920
98192W        W71260  38.368  16.680   3.675
98193W        W71261  11.297  37.668   1.418
98194W        W71262  30.643  29.477  14.454
98195W        W71263   5.753  40.245  14.973
98196W        W71264   2.877  33.969  14.034
98197W        W71265  44.926  43.439  11.743
98198W        W71266  36.942   2.997  11.607
98199W        W71267   6.116  22.116  13.354
98200W        W71268  30.863   6.357  10.737
98201W        W71269  30.349  25.001   1.756
98202W        W71270  21.635   4.244   2.272
98203W        W71271   6.845  29.877  14.359
98204W        W71272  37.619   4.838   5.038
98205W        W71273  39.412   2.341   0.200
98206W        W71274   2.776  33.076   1.416
98207W        W71275   4.473  16.442   3.878
98208W        W71276  33.299  12.420   0.322
98209W        W71277  15.871   0.272  13.456
98210W        W71278  26.111  17.657   2.920
98211W        W71279  39.580  22.615   1.193
98212W        W71280   7.464  41.924  11.695
98213W        W71281  10.746  43.754   3.127
98214W        W71282  31.596  31.074  14.975
98215W        W71283   4.623  35.971   2.200
98216W        W71284  24.915  40.807   4.129
98217W        W71285  35.507  36.668  12.644
98218W        W71286  19.160  35.747   1.420
98219W        W71287  29.556  15.761  14.444
98220W        W71288  33.905  14.633  13.069
98221W        W71289  24.116  10.626  10.524
98222W        W71290  36.176   7.008  12.917
98223W        W71291  22.589  14.147  14.112
98224W        W71292  17.093  25.212   0.358
98225W        W71293  44.508  23.389  11.123
98226W        W71294  10.225  22.074   3.988
98227W        W71295  26.174  42.413  11.476
98228W        W71296   3.283  11.068  13.654
98229W        W71297  13.832   2.830  13.958
98230W        W71298   8.955  12.044   3.160
98231W        W71299  32.474   9.119  12.893
98232W        W71300  28.436  42.360  14.409
98233W        W71301   7.840  36.909  12.191
98234W        W71302   2.632  24.581  11.200
98235W        W71303  23.723  39.109  10.929
98236W        W71304  25.210  32.232   0.159
98237W        W71305  32.719  16.362  14.263
98238W        W71306   9.458  40.695  12.481
98239W        W71307  25.915  44.256   0.917
98240W        W71308  26.429  42.186   0.150
98241W        W71309  33.469   9.904   2.732
98242W        W71310  26.496  27.574   4.488
98243W        W71311  44.642  32.983  11.725
98244W        W71312  30.101  43.882   4.354
98245W        W71313   3.247   2.000   0.707
98246W        W71314   0.988  25.181   1.711
98247W        W71315  43.054  13.764  12.135
98248W        W71316  43.838  26.620  10.473
98249W        W71317   9.408  36.588   1.410
98250W        W71318   8.712  32.674   3.298
98251W        W71319  44.222  28.098   2.140
98252W        W71320  31.607   2.998  14.280
98253W        W71321  19.128  19.302  13.015
98254W        W71322  26.966  34.151  13.238
98255W        W71323  37.970   4.606  10.589
98256W        W71324  43.580  23.037  13.958
98257W        W71325   1.444   6.635  12.985
98258W        W71326  34.034  14.734  10.595
98259W        W71327  21.073   4.424  12.784
98260W        W71328  18.652   2.053   4.812
98261W        W71329   7.483   9.243   3.727
98262W        W71330  28.347  10.950   3.252
98263W        W71331   6.206   3.427   5.251
98264W        W71332   3.712   2.876  11.121
98265W        W71333  38.819  22.905   5.021
98266W        W71334  24.202  30.462   1.079
98267W        W71335  10.843  23.256  14.902
98268W        W71336  35.020  27.170  10.945
98269W        W71337  35.510  44.843  13.182
98270W        W71338   5.627  14.134  12.648
98271W        W71339   6.863  43.583   4.714
98272W        W71340   4.197  22.435   4.378
98273W        W71341   7.742  12.622  14.676
98274W        W71342   6.786   7.501   2.912
98275W        W71343  16.088   9.815  13.961
98276W        W71344  28.125   7.159   0.766
98277W        W71345  14.938   7.401   5.107
98278W        W71346  21.133  12.265   2.906
98279W        W71347  18.777  20.475  11.931
98280W        W71348  37.408  31.881  13.802
98281W        W71349  29.088  23.146  13.046
98282W        W71350  33.126  18.605   1.798
98283W        W71351  11.272  16.549  13.592
98284W        W71352   4.085   7.373  12.569
98285W        W71353  10.569  21.196  12.564
98286W        W71354  36.547  27.843  14.338
98287W        W71355   0.747  12.406   0.888
98288W        W71356  21.630   2.850  12.806
98289W        W71357  11.038   3.178   5.068
98290W        W71358  18.976  26.474   3.558
98291W        W71359  12.294  39.044   0.529
98292W        W71360  19.811  27.591  11.965
98293W        W71361  21.986  10.104   2.714
98294W        W71362  24.808  40.798  10.664
98295W        W71363  32.087  21.807   2.795
98296W        W71364  33.453   7.187  12.979
98297W        W71365  22.584  42.831   4.129
98298W        W71366   2.518   8.795   0.309
98299W        W71367  20.499  32.009   0.212
98300W        W71368   6.236  18.396  13.809
98301W        W71369   7.322   3.227   3.376
98302W        W71370  20.539  13.794  10.540
98303W        W71371  30.139  40.947   2.841
98304W        W71372   6.208  17.604   2.821
98305W        W71373  39.782   7.733   1.411
98306W        W71374  19.579  18.790   1.223
98307W        W71375  43.251  16.632   4.164
98308W        W71376  41.081  44.078   4.108
98309W        W71377   9.319  23.800  11.174
98310W        W71378  35.176  42.529   0.409
98311W        W71379   5.250   2.983  11.252
98312W        W71380  31.373  35.942  14.038
98313W        W71381  42.747  24.235  11.920
98314W        W71382  11.761  35.610   5.099
98315W        W71383   3.447   2.383  11.143
98316W        W71384  10.062  29.490   0.849
98317W        W71385  39.885  26.912   2.267
98318W        W71386  39.842  37.207   1.767
98319W        W71387  15.532  10.863   2.798
98320W        W71388   9.728  21.194  11.292
98321W        W71389   8.326  12.776   2.824
98322W        W71390  35.416   2.831   2.455
98323W        W71391  21.050  32.175  13.415
98324W        W71392  40.887  34.953  10.798
98325W        W71393   4.392  16.057  11.670
98326W        W71394  39.842  10.216  12.009
98327W        W71395   8.625  35.110   3.651
98328W        W71396  32.403  17.278  13.872
98329W        W71397   3.535  18.336  13.518
98330W        W71398  34.048  27.647  11.649
98331W        W71399   2.482  24.587  13.016
98332W        W71400  32.065   3.390  10.753
98333W        W71401  25.134   3.281  12.856
98334W        W71402  16.101  36.893   4.478
98335W        W71403  44.506  10.191   3.633
98336W        W71404  27.243  21.668  12.986
98337W        W71405  19.531   3.965   3.618
98338W        W71406  42.915  40.835  10.628
98339W        W71407  27.670  36.662   2.232
98340W        W71408   7.295  14.342   4.694
98341W        W71409  36.860  36.091  11.486
98342W        W71410  15.226   9.214  11.099
98343W        W71411  26.206  17.549   0.789
98344W        W71412  14.300  23.654  12.576
98345W        W71413   0.603   6.148   3.745
98346W        W71414  19.129  22.740  13.978
98347W        W71415  26.422  38.356  13.402
98348W        W71416  14.624   2.001   5.018
98349W        W71417  17.164  22.634   5.081
98350W        W71418   5.808  24.779  11.678
98351W        W71419  10.471  18.586   0.773
98352W        W71420  32.676   7.413   1.889
98353W        W71421  25.764  22.052  14.981
98354W        W71422  34.015  29.112   2.617
98355W        W71423  18.024   8.912   3.521
98356W        W71424  30.426  26.510  12.809
98357W        W71425  25.980  21.117   4.135
98358W        W71426  17.869   4.817  11.294
98359W        W71427   2.198   3.708   4.085
98360W        W71428  31.984  41.110   0.345
98361W        W71429   2.770  25.886   2.397
98362W        W71430  18.624  37.872   4.118
98363W        W71431  12.665  16.369   0.297
98364W        W71432  22.209  14.578  14.442
98365W        W71433   9.106  30.492  14.418
98366W        W71434  28.896  40.363  10.704
98367W        W71435  23.225  40.203   2.167
98368W        W71436  26.547  31.027   1.191
98369W        W71437  24.042  36.190   2.365
98370W        W71438  34.081  37.337   3.688
98371W        W71439  20.546   4.205   3.700
98372W        W71440  23.475  29.492   3.939
98373W        W71441   2.953  38.920   2.468
98374W        W71442  32.380  37.280  13.891
98375W        W71443   5.330  21.782   2.798
98376W        W71444   4.674   9.387   4.098
98377W        W71445  44.201   5.681  14.802
98378W        W71446  14.816  20.993   3.636
98379W        W71447  11.632   2.246   1.229
98380W        W71448  41.256  25.625  14.469
98381W        W71449   6.947  33.157   3.546
98382W        W71450  27.160  33.415  12.518
98383W        W71451  36.305  18.315  12.124
98384W        W71452  30.551  32.175  10.746
98385W        W71453  12.285  42.255   0.866
98386W        W71454  39.082  40.558   2.705
98387W        W71455  40.899  16.239  13.496
98388W        W71456  30.379  18.210   4.190
98389W        W71457   5.837   3.784  11.689
98390W        W71458  11.826  28.962   3.794
98391W        W71459  42.997   9.715  11.255
98392W        W71460  38.045   8.609  11.578
98393W        W71461  20.303  32.481   1.320
98394W        W71462  37.403  15.192  14.819
98395W        W71463   1.539  27.614   0.196
98396W        W71464  44.563  28.966  11.697
98397W        W71465   4.034  20.136   2.932
98398W        W71466  26.937  36.591  14.849
98399W        W71467   3.413  27.168  10.457
98400W        W71468   8.699   0.332   1.013
98401W        W71469  36.165  31.537  13.858
98402W        W71470  23.999  13.665   3.135
98403W        W71471   3.934  16.784   0.289
98404W        W71472  36.077  28.260   0.713
98405W        W71473   9.357   4.144   4.987
98406W        W71474   6.336  10.185   9.922
98407W        W71475  13.387  21.145  12.592
98408W        W71476   6.224   5.445  13.975
98409W        W71477   8.633  38.792   0.314
98410W        W71478   7.257   6.198   2.411
98411W        W71479  38.345  17.300  11.420
98412W        W71480  31.375  30.465  13.871
98413W        W71481  27.153  25.435  12.279
98414W        W71482  16.426  32.945   1.436
98415W        W71483  29.635  35.442  10.394
98416W        W71484  21.443  41.011   2.528
98417W        W71485  10.817  28.169   2.330
98418W        W71486  26.774  24.201   1.220
98419W        W71487  20.523  12.565  14.918
98420W        W71488  34.589  30.664  14.819
98421W        W71489  22.555  20.081   4.601
98422W        W71490  36.104   9.410  13.407
98423W        W71491  44.490  36.545  13.613
98424W        W71492  33.934  27.842  13.530
98425W        W71493  40.865   5.833   3.289
98426W        W71494  14.543   6.909  12.556
98427W        W71495  24.743  39.242  12.120
98428W        W71496  35.285   2.348  11.989
98429W        W71497  19.189  23.166  14.309
98430W        W71498  39.917  35.462   0.309
98431W        W71499  18.365  23.763  11.080
98432W        W71500  19.766   4.177  12.537
98433W        W71501   7.519  22.591   4.147
98434W        W71502  24.685  43.922  12.943
98435W        W71503  25.626  11.855  11.796
98436W        W71504   5.956  33.424  13.454
98437W        W71505  17.046  23.176   2.762
98438W        W71506  10.659  19.341   2.088
98439W        W71507   8.360  26.840  11.093
98440W        W71508   3.913  31.473  13.724
98441W        W71509  10.755  41.829  10.867
98442W        W71510  31.764  21.946  13.486
98443W        W71511  33.871   8.969  11.582
98444W        W71512  24.971  14.058  14.561
98445W        W71513  27.198  31.063  11.530
98446W        W71514  28.454  12.337   3.143
98447W        W71515  40.834  44.988   0.719
98448W        W71516  43.023  14.070   3.749
98449W        W71517   5.395  21.565  10.924
98450W        W71518  15.729  14.723   0.744
98451W        W71519  17.977  22.538  14.449
98452W        W71520   4.620   8.153  12.820
98453W        W71521  21.893  32.710  12.603
98454W        W71522   4.701  31.709   0.344
98455W        W71523  21.674  22.242  11.337
98456W        W71524  44.320   4.553   3.764
98457W        W71525  27.144   1.263   3.391
98458W        W71526  26.981   1.667   4.233
98459W        W71527  41.385  25.539   2.307
98460W        W71528  11.776  26.695   2.152
98461W        W71529  37.357  25.744   1.808
98462W        W71530   7.009  42.004  10.815
98463W        W71531  34.516  15.597  10.666
98464W        W71532   8.590   7.818  14.891
98465W        W71533  15.024  15.025  14.961
98466W        W71534   3.334   1.141  11.521
98467W        W71535   6.686  15.811   4.605
98468W        W71536  44.526  18.691   2.230
98469W        W71537  35.752  16.803  12.017
98470W        W71538  19.666   1.185   0.820
98471W        W71539  28.947  22.489   4.659
98472W        W71540  44.377   1.840  14.741
98473W        W71541  34.624  29.269   4.618
98474W        W71542   2.468   1.765  10.845
98475W        W71543  28.162  35.089  13.798
98476W        W71544  24.018  37.081  13.014
98477W        W71545  26.980  15.139  13.476
98478W        W71546  25.650  39.362   4.730
98479W        W71547   4.475  36.420   1.369
98480W        W71548  36.411  21.247  10.308
98481W        W71549   5.336  30.346  14.039
98482W        W71550  10.836  10.097   0.532
98483W        W71551  43.426  13.005   2.378
98484W        W71552  12.786  13.133   2.449
98485W        W71553  31.588  24.428  12.681
98486W        W71554  21.704   1.949   3.600
98487W        W71555   9.891   6.726   2.275
98488W        W71556  38.357  14.296  14.381
98489W        W71557  19.851  37.468  10.793
98490W        W71558  10.169  42.279  10.868
98491W        W71559  42.753   0.828   3.995
98492W        W71560  19.503  42.182   1.406
98493W        W71561  21.982  21.442  11.516
98494W        W71562  40.807  23.558   4.696
98495W        W71563  22.118  26.421  12.590
98496W        W71564  20.490  33.884   4.136
98497W        W71565  15.085   8.350  12.067
98498W        W71566   4.712  33.090   1.305
98499W        W71567  22.137  36.541   3.666
98500W        W71568  19.239  22.471  12.720
98501W        W71569  14.362  33.970  12.165
98502W        W71570   7.139  44.910   1.954
98503W        W71571   1.860   5.231   4.782
98504W        W71572   2.837  44.525   3.279
98505W        W71573  23.532  44.481  11.819
98506W        W71574  19.334  21.149   3.669
98507W        W71575  42.645   7.425  12.622
98508W        W71576  17.096  33.344   1.837
98509W        W71577  26.873  10.650  10.619
98510W        W71578   9.670  14.658   5.019
98511W        W71579  23.396  19.759   5.116
98512W        W71580  36.600  34.754   5.041
98513W        W71581   8.360   4.329   3.336
98514W        W71582  38.156  19.143   1.224
98515W        W71583   8.050  40.323  11.544
98516W        W71584   4.413  34.846   1.781
98517W        W71585  18.227  30.684   0.863
98518W        W71586  14.325  12.794   0.918
98519W        W71587   9.552  34.748   0.276
98520W        W71588   6.387  42.864   4.350
98521W        W71589  21.229  10.591  11.990
98522W        W71590  42.809  43.827   0.730
98523W        W71591  29.967  29.224  12.634
98524W        W71592   2.767  16.191   0.042
98525W        W71593  11.634   2.806  10.763
98526W        W71594  21.111  32.027   2.914
98527W        W71595  28.059  20.764   1.768
98528W        W71596  34.917  12.694   4.513
98529W        W71597   5.371  38.238  12.516
98530W        W71598   0.277  23.142  12.838
98531W        W71599  14.227   0.674   4.907
98532W        W71600  11.202  21.159  12.154
98533W        W71601   5.721  33.011  14.661
98534W        W71602  31.942  12.155  10.635
98535W        W71603  22.449   2.994   2.565
98536W        W71604  29.426   8.740  13.411
98537W        W71605  31.124  30.930   3.220
98538W        W71606  22.557  32.497  13.968
98539W        W71607  17.050  44.490   3.046
98540W        W71608  38.947   3.745   4.557
98541W        W71609   9.564   6.607   1.492
98542W        W71610  35.438  31.086   3.184
98543W        W71611   1.421  15.232  12.363
98544W        W71612  32.016  40.042  13.081
98545W        W71613   9.123  11.443   1.939
98546W        W71614  11.260  28.649  11.555
98547W        W71615  31.391  34.652   4.824
98548W        W71616   6.317   2.973  13.791
98549W        W71617  25.921  13.228   4.657
98550W        W71618  40.346   7.278   0.275
98551W        W71619   6.817  32.423  12.489
98552W        W71620  37.727  32.876  10.510
98553W        W71621  30.804  33.329  11.183
98554W        W71622  34.836  18.215   4.707
98555W        W71623  23.837  11.915   0.420
98556W        W71624  37.052  33.693  10.215
98557W        W71625  37.966  22.060  12.959
98558W        W71626  32.984   8.050  13.970
98559W        W71627   4.781  13.832   2.621
98560W        W71628  44.354  22.289  10.352
98561W        W71629   8.167  10.824  11.511
98562W        W71630  32.986   1.458   1.684
98563W        W71631  15.723  17.008   2.916
98564W        W71632  22.606   0.355   4.466
98565W        W71633   9.339  42.077   3.765
98566W        W71634  31.480  26.538  10.385
98567W        W71635  37.005  38.785  12.635
98568W        W71636  26.048  19.294  11.051
98569W        W71637  13.402  11.204   1.796
98570W        W71638  39.086  26.354  11.917
98571W        W71639  21.704  25.211  13.552
98572W        W71640   1.865   0.978   2.531
98573W        W71641  43.685  25.185   1.517
98574W        W71642  20.023   0.399   3.350
98575W        W71643  18.528  11.646  10.742
98576W        W71644  14.733  27.717   0.467
98577W        W71645   0.461  32.025  11.443
98578W        W71646  23.588  42.725   0.595
98579W        W71647  17.070  20.114   0.496
98580W        W71648  33.424  22.285   2.411
98581W        W71649  31.383   2.449   1.736
98582W        W71650  21.270   8.360   2.125
98583W        W71651  22.227  30.097  10.692
98584W        W71652  29.627   3.516  14.924
98585W        W71653  13.753  28.712  11.255
98586W        W71654   6.206  15.985  13.455
98587W        W71655  28.466   5.183  12.517
98588W        W71656  14.084   7.026  11.752
98589W        W71657  32.735  33.606   9.673
98590W        W71658  14.533  21.711   2.639
98591W        W71659  16.841  42.048  12.583
98592W        W71660  43.963  30.947  11.854
98593W        W71661  12.729  22.484   2.882
98594W        W71662   3.305  10.569   2.083
98595W        W71663  29.060  39.361  11.571
98596W        W71664  20.756  23.030   0.247
98597W        W71665  13.636  33.434  12.901
98598W        W71666   7.826  44.978  14.097
98599W        W71667  12.592  39.158  14.791
98600W        W71668  20.495  44.486   1.894
98601W        W71669  36.402  14.235  10.528
98602W        W71670  26.155  39.958   0.890
98603W        W71671  40.980   8.338   3.699
98604W        W71672  35.387  27.550   4.123
98605W        W71673  29.371  24.041  11.142
98606W        W71674   6.234  21.846  14.820
98607W        W71675  44.993  26.231  11.110
98608W        W71676   0.974  28.623   3.539
98609W        W71677  32.142  23.569  13.770
98610W        W71678  21.907  19.284   2.579
98611W        W71679  31.397   0.893  14.348
98612W        W71680  19.124  24.990   1.356
98613W        W71681  21.155  16.409   1.239
98614W        W71682  43.296  27.700  13.959
98615W        W71683  36.148   6.275   2.351
98616W        W71684   6.308  34.600   0.730
98617W        W71685  15.868  44.326   2.894
98618W        W71686  18.609   8.702  11.357
98619W        W71687  30.092  13.770   3.409
98620W        W71688   1.030  40.639   3.256
98621W        W71689   3.274   4.750   1.027
98622W        W71690  15.976  24.982   2.703
98623W        W71691  10.535  34.476   2.817
98624W        W71692  33.346  38.404   4.679
98625W        W71693  30.027  43.999   0.749
98626W        W71694  31.156  40.114  11.911
98627W        W71695   0.238   1.178  14.314
98628W        W71696  13.274  15.983   2.234
98629W        W71697  41.036  10.550   1.971
98630W        W71698  37.446  22.603  14.063
98631W        W71699   4.163   1.939   3.649
98632W        W71700   9.210  17.225   1.725
98633W        W71701   5.276  33.482  14.431
98634W        W71702  31.791  23.774  14.099
98635W        W71703   1.309  10.127   4.651
98636W        W71704  11.003  14.147  10.678
98637W        W71705  17.684  25.532  14.866
98638W        W71706  15.654  37.339   4.112
98639W        W71707  29.698  17.230   3.582
98640W        W71708  38.558  43.812   3.766
98641W        W71709  38.747  39.650   0.422
98642W        W71710   5.720  36.044   1.289
98643W        W71711  14.245  25.627   5.235
98644W        W71712  26.199  13.811   3.612
98645W        W71713  20.797  44.460  11.522
98646W        W71714  19.149  32.398  14.445
98647W        W71715   2.224  41.767  13.847
98648W        W71716  18.742   4.266   4.079
98649W        W71717  42.074  27.087   0.632
98650W        W71718   4.694  25.709   4.660
98651W        W71719   0.176   2.380   0.235
98652W        W71720  43.227  41.153   2.239
98653W        W71721   8.289  40.914   1.259
98654W        W71722  40.569   1.629  10.212
98655W        W71723  26.169  15.761   4.131
98656W        W71724  28.477  19.525  12.768
98657W        W71725  36.693  41.907  12.592
98658W        W71726  44.874  22.616   3.332
98659W        W71727  19.328   3.174   1.928
98660W        W71728   1.350  25.214  10.748
98661W        W71729  40.385  42.272   1.168
98662W        W71730  30.929  38.500   2.782
98663W        W71731   4.475  44.249   5.025
98664W        W71732   4.762   1.368  13.382
98665W        W71733   9.115  23.688   2.378
98666W        W71734   5.936   1.271   3.704
98667W        W71735   5.828  10.631   0.870
98668W        W71736   0.464  32.566   0.518
98669W        W71737  21.517  42.144  13.461
98670W        W71738  33.895  30.615   0.251
98671W        W71739  20.218  34.602   2.082
98672W        W71740  26.424  26.629  12.573
98673W        W71741  19.055  40.426   4.125
98674W        W71742  26.270   9.689   4.088
98675W        W71743   7.400   9.902   1.317
98676W        W71744  31.002  10.696  14.428
98677W        W71745  14.281  28.525  11.360
98678W        W71746  11.025   9.139   4.334
98679W        W71747  44.879  25.135  12.100
98680W        W71748  19.890  27.100   1.882
98681W        W71749  44.054  28.967  11.852
98682W        W71750  28.178   9.273   1.642
98683W        W71751  25.755  18.522  12.434
98684W        W71752  41.494  22.066   4.346
98685W        W71753   6.299  12.385   4.715
98686W        W71754  35.865  24.004  11.052
98687W        W71755  12.843   6.642   3.215
98688W        W71756  29.804  17.602  11.244
98689W        W71757  39.319  16.520   2.278
98690W        W71758   5.102  27.302  11.897
98691W        W71759  35.919  37.624  14.162
98692W        W71760  14.470   7.669   1.163
98693W        W71761  24.522  43.009   0.184
98694W        W71762  35.475  44.858  12.641
98695W        W71763  15.639  24.988   3.835
98696W        W71764  37.729  11.063   2.382
98697W        W71765  10.327  13.359  10.788
98698W        W71766  32.039  31.495  14.533
98699W        W71767  25.551  42.963   1.923
98700W        W71768  43.488  28.464  12.383
98701W        W71769  24.002   6.245   3.667
98702W        W71770  23.164  40.620   4.034
98703W        W71771   1.884  15.803   3.207
98704W        W71772   1.938  43.041  14.488
98705W        W71773  30.970  36.969   1.701
98706W        W71774  39.068  13.772   4.527
98707W        W71775  14.610  22.671  13.047
98708W        W71776  25.673  33.004   3.598
98709W        W71777  23.582   7.274  10.682
98710W        W71778  14.780  29.032   3.387
98711W        W71779   2.653   6.576  13.388
98712W        W71780  21.234  27.231  12.345
98713W        W71781  42.880  42.863   0.250
98714W        W71782   4.124  37.812   1.317
98715W        W71783   4.172  19.992   0.807
98716W        W71784  21.658   1.437  12.859
98717W        W71785  35.015  23.705  12.884
98718W        W71786  36.971  44.037   4.184
98719W        W71787  29.190  30.907  11.139
98720W        W71788  19.716  29.425   0.452
98721W        W71789  25.470   5.368   4.599
98722W        W71790  18.154  13.820   2.721
98723W        W71791  33.844  43.422  14.774
98724W        W71792  39.048  18.564  12.358
98725W        W71793  27.646  38.506  10.730
98726W        W71794  44.719   0.274   1.318
98727W        W71795  31.874  42.059  12.859
98728W        W71796  32.461   9.704   0.976
98729W        W71797   0.440  36.543  10.753
98730W        W71798   3.801  11.217   0.446
98731W        W71799  16.463  15.558   3.005
98732W        W71800  25.204   1.370   3.644
98733W        W71801  16.431  22.328  11.360
98734W        W71802  30.659  16.583  14.516
98735W        W71803  44.492  11.663  10.783
98736W        W71804  34.509  44.205   0.863
98737W        W71805  39.349   5.811  11.537
98738W        W71806  25.029  43.738   0.001
98739W        W71807  23.265   6.685  12.022
98740W        W71808  36.617   1.776   0.118
98741W        W71809  31.657  28.366   3.878
98742W        W71810  40.457  22.267  11.541
98743W        W71811  43.860  43.600  11.148
98744W        W71812  17.345  21.618   1.237
98745W        W71813   6.987  28.853  12.085
98746W        W71814   8.701   0.279   2.077
98747W        W71815   9.713  34.025  14.074
98748W        W71816  20.927   8.242  10.434
98749W        W71817  26.460  41.423  12.442
98750W        W71818  19.561  34.327   3.829
98751W        W71819  35.394  18.805  11.983
98752W        W71820  24.632  18.628  14.414
98753W        W71821  17.863  12.632  11.534
98754W        W71822  16.614   2.941   3.334
98755W        W71823  42.404  24.049   4.073
98756W        W71824  19.138   7.220  10.709
98757W        W71825  26.416  44.044   3.936
98758W        W71826  24.897  42.832  14.793
98759W        W71827  18.938  20.674   4.652
98760W        W71828  18.498   6.239   4.081
98761W        W71829  21.253  25.973  14.972
98762W        W71830  29.214  14.021   3.770
98763W        W71831   6.198  26.671  12.365
98764W        W71832  27.108   7.412  10.468
98765W        W71833  20.586  35.220   0.922
98766W        W71834  27.648  10.734  11.083
98767W        W71835  13.223  27.659  14.706
98768W        W71836  18.008  13.202   3.314
98769W        W71837   7.734  38.398  14.465
98770W        W71838  34.438  27.980  12.565
98771W        W71839  39.382  17.512  11.038
98772W        W71840  13.409  37.392  14.795
98773W        W71841  30.355  39.149   3.966
98774W        W71842  43.177  40.752   3.735
98775W        W71843  11.315  35.401   2.127
98776W        W71844  34.708  41.709  14.341
98777W        W71845  27.108  26.112   4.294
98778W        W71846  43.966  12.625   0.778
98779W        W71847   3.516  31.059   0.429
98780W        W71848  18.356  18.694   2.374
98781W        W71849  38.465  31.570  14.370
98782W        W71850  10.148  35.936   1.961
98783W        W71851  24.179  30.667   5.099
98784W        W71852  40.245  29.987  12.826
98785W        W71853   1.491   2.928  13.828
98786W        W71854  37.409  29.179  12.063
98787W        W71855   2.483  20.518  10.695
98788W        W71856   7.958  13.542  11.155
98789W        W71857  24.484  23.657  11.625
98790W        W71858  43.375  20.239  14.813
98791W        W71859  31.518   5.733   1.340
98792W        W71860  30.751  20.579   3.233
98793W        W71861  37.246  35.054  11.572
98794W        W71862   8.082  22.704  11.613
98795W        W71863  40.220  19.614   4.321
98796W        W71864  37.110  21.998   1.679
98797W        W71865  35.408  41.359   1.806
98798W        W71866  20.282  24.224   2.698
98799W        W71867  21.123  32.939   2.228
98800W        W71868  31.202  12.791  14.837
98801W        W71869   1.071  30.742  11.109
98802W        W71870  41.758   1.420   1.371
98803W        W71871  39.166   5.027  10.164
98804W        W71872  13.301   8.320  12.095
98805W        W71873  23.715   4.797   2.287
98806W        W71874  13.072   8.544   4.940
98807W        W71875  30.429  18.673   4.503
98808W        W71876  26.079  21.139  10.373
98809W        W71877  38.356  37.563  11.008
98810W        W71878  11.800  40.749  12.435
98811W        W71879  31.914  42.303  13.771
98812W        W71880  38.408  37.117   0.216
98813W        W71881  36.102  12.559   2.269
98814W        W71882  25.762  10.042  10.137
98815W        W71883   9.954  44.938  12.923
98816W        W71884  42.231  20.581   4.151
98817W        W71885  41.835   9.821  13.957
98818W        W71886  29.051  35.800  11.972
98819W        W71887  14.437  17.851   1.665
98820W        W71888  39.152  29.420  14.701
98821W        W71889   8.980   9.860  10.783
98822W        W71890  17.284  37.047  13.469
98823W        W71891  35.889  39.526  14.995
98824W        W71892  33.061  17.755  12.588
98825W        W71893  41.608   0.291   3.662
98826W        W71894  29.172  16.613  13.567
98827W        W71895  43.463  38.870   2.432
98828W        W71896  33.025   1.824   4.609
98829W        W71897  14.216  28.055   2.676
98830W        W71898  19.143  13.766   0.751
98831W        W71899  26.965  13.008  10.101
98832W        W71900  25.538  31.451   1.947
98833W        W71901  23.511  19.785  13.039
98834W        W71902   7.347  30.130   2.102
98835W        W71903  36.413  43.839  13.581
98836W        W71904  38.329  43.522  12.648
98837W        W71905  15.470  22.653   4.977
98838W        W71906  16.747   6.142   1.046
98839W        W71907   2.987  36.325  14.766
98840W        W71908  11.794   6.710  11.525
98841W        W71909  34.085  43.930   4.809
98842W        W71910  41.000  39.505  12.865
98843W        W71911   8.409  25.836  13.564
98844W        W71912  34.822  41.186  14.415
98845W        W71913  29.602  19.165  10.644
98846W        W71914  11.023   2.827  14.841
98847W        W71915  15.011  43.193  10.728
98848W        W71916   9.518  19.157   0.624
98849W        W71917   0.013  37.822   0.345
98850W        W71918  34.169  27.548   1.190
98851W        W71919  28.018  16.631   1.608
98852W        W71920  19.730  14.379   4.112
98853W        W71921  11.796  29.004   1.479
98854W        W71922   3.815  24.129  13.861
98855W        W71923   1.475  38.379   0.078
98856W        W71924  22.490  21.510  11.578
98857W        W71925   3.093   3.446   0.223
98858W        W71926  39.330  43.532   0.453
98859W        W71927  30.438  42.638   3.044
98860W        W71928  26.934  32.519  12.861
98861W        W71929  17.809  31.430  11.964
98862W        W71930   5.343   8.764  14.188
98863W        W71931   3.789  42.318   4.441
98864W        W71932  35.947  16.140   2.613
98865W        W71933  24.500  44.639   3.257
98866W        W71934  24.934  18.515  14.019
98867W        W71935   7.502  41.423   2.795
98868W        W71936  26.952  29.671  12.374
98869W        W71937  18.231  29.889   3.647
98870W        W71938  26.095  25.650   4.739
98871W        W71939  27.262  12.630   2.979
98872W        W71940  23.845   8.143  10.474
98873W        W71941   0.183  25.227  11.145
98874W        W71942  39.607  12.260  13.811
98875W        W71943  28.174  44.928   0.405
98876W        W71944  35.343  29.851   1.648
98877W        W71945  39.109  20.645   4.568
98878W        W71946  41.676  25.418   4.141
98879W        W71947  44.251  21.243   0.027
98880W        W71948  25.194   7.373   3.759
98881W        W71949  22.095  15.124   0.868
98882W        W71950  40.129  37.419   1.359
98883W        W71951  41.305   4.761   4.154
98884W        W71952   1.297   9.802  12.941
98885W        W71953  27.848  29.029  13.397
98886W        W71954   5.468  11.947   0.359
98887W        W71955   9.829   6.261  14.034
98888W        W71956  27.635   2.284   3.814
98889W        W71957  28.652  34.913   4.473
98890W        W71958  25.692  20.520  12.939
98891W        W71959  40.954   2.228  12.010
98892W        W71960  32.628   7.865   3.744
98893W        W71961   6.283  33.643  14.308
98894W        W71962  19.765  33.843  13.840
98895W        W71963  32.644  28.107   3.601
98896W        W71964   6.463  33.157   1.486
98897W        W71965   5.287  40.585  11.440
98898W        W71966   7.959  17.277   3.613
98899W        W71967  43.278  26.559  10.583
98900W        W71968  15.560  22.051  13.471
98901W        W71969   2.310  33.982  12.632
98902W        W71970  36.440  25.554  10.985
98903W        W71971  29.437  30.519   1.855
98904W        W71972  19.832  28.512  10.776
98905W        W71973  37.131  28.108  14.047
98906W        W71974  28.788  40.952   1.240
98907W        W71975   7.163  29.451   0.021
98908W        W71976   0.705  34.798  13.478
98909W        W71977  30.782  35.286  14.643
98910W        W71978  44.013  24.828  13.083
98911W        W71979   8.892  12.303   3.609
98912W        W71980  15.765  16.331   1.376
98913W        W71981   8.725  41.520   0.243
98914W        W71982  39.047  38.734  13.654
98915W        W71983  20.261  30.217  13.362
98916W        W71984  10.224  44.573   1.930
98917W        W71985  27.131  41.182   5.051
98918W        W71986  16.059  18.429  10.553
98919W        W71987   9.186  17.277   4.283
98920W        W71988  20.320  21.547  14.275
98921W        W71989  30.339  40.577   2.062
98922W        W71990  33.849  40.777   2.812
98923W        W71991  35.022   6.358  14.242
98924W        W71992  28.622  19.662  11.799
98925W        W71993   3.513  40.242   1.434
98926W        W71994   8.711  15.274  10.993
98927W        W71995  28.480  16.208  12.542
98928W        W71996  22.111  40.017  12.355
98929W        W71997  32.047  10.842   1.911
98930W        W71998   0.218  11.608  14.473
98931W        W71999  22.940  41.970   0.750
98932W        W72000   9.762  33.518  13.918
98933W        W72001   0.858  17.653  13.815
98934W        W72002  23.640   8.134  13.821
98935W        W72003  38.545  35.523  11.533
98936W        W72004  20.037  30.038  11.521
98937W        W72005  21.232   8.672  10.313
98938W        W72006  14.958  24.443  13.959
98939W        W72007  16.827   5.247  12.410
98940W        W72008  32.085  36.055   0.338
98941W        W72009  11.203   7.672   3.780
98942W        W72010  21.166   5.280  14.259
98943W        W72011  22.007  24.688  10.920
98944W        W72012  23.146  19.987   0.299
98945W        W72013  34.412   4.374  11.576
98946W        W72014  36.617  28.941   4.160
98947W        W72015  38.091  24.763  12.079
98948W        W72016  42.399   9.917  11.520
98949W        W72017  10.722  33.595  10.633
98950W        W72018  38.580  10.104   1.229
98951W        W72019  20.747   2.319   4.170
98952W        W72020  35.447  19.278  13.993
98953W        W72021   7.740  31.922   3.722
98954W        W72022  28.608  10.758  11.073
98955W        W72023   3.986  25.729  10.479
98956W        W72024  29.634   2.241  12.449
98957W        W72025  40.109  12.293  14.383
98958W        W72026  41.793  39.499  10.756
98959W        W72027   7.650  32.161   1.951
98960W        W72028  11.654  42.048  14.883
98961W        W72029  18.195   8.792   4.849
98962W        W72030  41.970   8.844   0.384
98963W        W72031  10.397  29.009   3.534
98964W        W72032  18.943  10.858   0.941
98965W        W72033  18.812   1.844   4.364
98966W        W72034  11.326  39.114  12.741
98967W        W72035   3.814  21.208   3.280
98968W        W72036  29.348  18.200   1.504
98969W        W72037  14.282   5.926   1.857
98970W        W72038   3.807  35.624  10.483
98971W        W72039  32.643  11.180  14.851
98972W        W72040   1.387  37.242  12.015
98973W        W72041   9.266  18.100  11.623
98974W        W72042  15.573  23.637  13.895
98975W        W72043  18.952  35.572  11.973
98976W        W72044  38.517  35.038   0.500
98977W        W72045  34.939  25.118  11.673
98978W        W72046  12.667  43.277  11.622
98979W        W72047  36.448   7.618  13.414
98980W        W72048  19.775  39.991  14.755
98981W        W72049  14.565  17.684   4.055
98982W        W72050  23.298  36.256   3.243
98983W        W72051  44.463  16.161  10.613
98984W        W72052  24.288  24.353  12.449
98985W        W72053   3.094   5.187   0.757
98986W        W72054  33.008  36.867  10.879
98987W        W72055  20.063  43.762  13.398
98988W        W72056   1.491  25.173  12.114
98989W        W72057   2.963  42.821  11.772
98990W        W72058  26.034  13.338   0.349
98991W        W72059  39.505  30.140  11.291
98992W        W72060  21.001  26.948   2.353
98993W        W72061  35.338  34.924   1.862
98994W        W72062   0.208  10.682  14.326
98995W        W72063  35.413  23.994   2.757
98996W        W72064  22.511  25.955  14.460
98997W        W72065   2.824  37.533   0.635
98998W        W72066  33.874  34.326   4.949
98999W        W72067  24.036  33.922   4.664
99000W        W72068  30.054  22.199   3.881
99001W        W72069  11.214   7.110   2.594
99002W        W72070  27.955  20.029  13.501
99003W        W72071  40.730  31.421   0.733
99004W        W72072  20.076  26.068  13.391
99005W        W72073  16.461  24.098  10.725
99006W        W72074  29.683  31.447  13.397
99007W        W72075  28.967  40.106  12.757
99008W        W72076  39.220  37.135  13.218
99009W        W72077  20.045  32.984  14.496
99010W        W72078  12.558   1.869   1.125
99011W        W72079   3.578  35.247  13.548
99012W        W72080  27.636  30.525   3.734
99013W        W72081  26.316   9.599   4.970
99014W        W72082  43.317  36.044  14.979
99015W        W72083   4.496  33.948   1.942
99016W        W72084  11.926  27.999  13.502
99017W        W72085   7.252  22.599  11.021
99018W        W72086   9.082  27.182  14.998
99019W        W72087  35.063  13.792   1.339
99020W        W72088  38.894  12.610  12.989
99021W        W72089  40.521  34.667   1.264
99022W        W72090  10.928  20.294   4.131
99023W        W72091  34.378  15.199   4.252
99024W        W72092  34.803  19.007   0.921
99025W        W72093  17.205  40.046  13.936
99026W        W72094   6.303  16.808  14.820
99027W        W72095  41.558   5.136   3.335
99028W        W72096  38.442  21.539   3.427
99029W        W72097   0.706   5.890   2.207
99030W        W72098   9.126   1.910   4.177
99031W        W72099  16.611  43.230  13.949
99032W        W72100  11.719  16.115   2.809
99033W        W72101  37.603   0.715   5.228
99034W        W72102  19.528  31.493  11.013
99035W        W72103  19.646  13.364   0.380
99036W        W72104  12.168   3.861  10.673
99037W        W72105  20.551  44.373  11.971
99038W        W72106  26.390  23.548  14.129
99039W        W72107  37.550   4.763   4.221
99040W        W72108  10.354  25.247  12.009
99041W        W72109  26.451  17.692  12.531
99042W        W72110  18.255   5.734  13.297
99043W        W72111   1.277   9.785   2.733
99044W        W72112  36.425  35.650   3.488
99045W        W72113  33.708  20.275  12.004
99046W        W72114  11.495  17.679   0.740
99047W        W72115  12.841  32.553  10.440
99048W        W72116  26.925  12.286   4.634
99049W        W72117  25.934   2.396   4.084
99050W        W72118  40.001   2.293   1.972
99051W        W72119  34.351  39.277  11.233
99052W        W72120  11.126  19.031  12.546
99053W        W72121   0.023   5.413  11.064
99054W        W72122  31.431   5.407   0.751
99055W        W72123  32.991  26.866  11.417
99056W        W72124  25.813  13.268  14.206
99057W        W72125  31.844  10.646  14.283
99058W        W72126  18.512   5.365   2.152
99059W        W72127  30.616  23.150  13.115
99060W        W72128  44.586  36.153  14.010
99061W        W72129  21.684  27.641  10.847
99062W        W72130  34.275  24.331   4.681
99063W        W72131   7.492  31.838   4.185
99064W        W72132  43.686   0.866   3.343
99065W        W72133  22.499  16.437  13.042
99066W        W72134   7.151   7.961  12.082
99067W        W72135  16.608  23.213   3.655
99068W        W72136  26.214  44.371  12.762
99069W        W72137  20.552  19.145   0.287
99070W        W72138   2.521  40.036   0.572
99071W        W72139   8.902  36.332  13.894
99072W        W72140  35.132  25.173  10.637
99073W        W72141  11.078  13.713   1.455
99074W        W72142  15.366  31.365  11.141
99075W        W72143  26.228  40.818  11.763
99076W        W72144   2.713  30.526  13.175
99077W        W72145  18.255   5.495  12.377
99078W        W72146  13.681  37.000   0.442
99079W        W72147  16.633  25.489   4.690
99080W        W72148  40.388  17.790  13.900
99081W        W72149  26.516  31.240  14.021
99082W        W72150   8.378  25.649   0.527
99083W        W72151  16.077   5.302  10.521
99084W        W72152  27.820  14.377  11.965
99085W        W72153  20.782  18.655   1.241
99086W        W72154  20.627   7.720  14.863
99087W        W72155   7.423  39.479  12.936
99088W        W72156  25.966  44.014  13.027
99089W        W72157  41.933  24.930   0.842
99090W        W72158  39.078  18.100   4.370
99091W        W72159  35.104   3.964  12.507
99092W        W72160  42.243  28.401  14.025
99093W        W72161  22.053  28.988  11.753
99094W        W72162  27.333  10.885  10.703
99095W        W72163   8.255  31.773  12.559
99096W        W72164  26.955  12.193   2.249
99097W        W72165  23.222  19.214  11.517
99098W        W72166  39.060  32.235  12.796
99099W        W72167  38.482  30.685  11.035
99100W        W72168  25.299  41.027  10.665
99101W        W72169  24.093   7.004  13.257
99102W        W72170  36.807  17.910  13.419
99103W        W72171  26.090  44.302   4.258
99104W        W72172  10.685  33.381   3.254
99105W        W72173  38.250  36.511   2.692
99106W        W72174  41.971  44.280   2.497
99107W        W72175  24.227  43.636  12.023
99108W        W72176  19.195  22.195   0.023
99109W        W72177  25.930  17.090   0.841
99110W        W72178   8.652  14.665   0.522
99111W        W72179  38.081  42.999   3.231
99112W        W72180  25.711  44.697  13.497
99113W        W72181   5.188  36.115  12.074
99114W        W72182   1.257  24.113  12.032
99115W        W72183  35.046   0.730  14.273
99116W        W72184  32.648  17.291   3.650
99117W        W72185  21.548  33.963  12.086
99118W        W72186   7.587  19.377  12.693
99119W        W72187  11.579  10.384  10.323
99120W        W72188   2.464   3.191  12.910
99121W        W72189  10.065   2.987  14.554
99122W        W72190   3.692  44.783  13.296
99123W        W72191  31.276  42.482  11.977
99124W        W72192   8.774  40.313  12.918
99125W        W72193   3.180  14.758  12.341
99126W        W72194  41.961  21.243   0.316
99127W        W72195  37.280   8.488   3.136
99128W        W72196  29.390   6.165   4.183
99129W        W72197   2.407  40.543  12.100
99130W        W72198  27.935  13.170   0.332
99131W        W72199   0.074  12.800  14.677
99132W        W72200  39.548  32.572   2.929
99133W        W72201  33.255   7.278  13.561
99134W        W72202   0.254  20.329  10.883
99135W        W72203  39.720  23.629   3.613
99136W        W72204  36.175  18.618   1.928
99137W        W72205  26.816  11.717  14.159
99138W        W72206  12.511   4.311   1.317
99139W        W72207  20.104  27.568   3.641
99140W        W72208  40.025  11.245  12.638
99141W        W72209  34.881  34.485  10.923
99142W        W72210  33.849  33.474   3.645
99143W        W72211  35.845   4.256   0.960
99144W        W72212   6.244   9.767  11.095
99145W        W72213  17.512  30.404  12.436
99146W        W72214  19.986  25.987  10.726
99147W        W72215  35.342  15.593   1.890
99148W        W72216  33.011  16.065   2.843
99149W        W72217  36.256  30.629   2.308
99150W        W72218  20.438   9.756   3.146
99151W        W72219  10.755  16.185   2.663
99152W        W72220  42.482  37.993   3.802
99153W        W72221  21.236  38.843   0.229
99154W        W72222  23.777  39.762  10.202
99155W        W72223   9.698   6.295   0.529
99156W        W72224  37.143  44.263   1.510
99157W        W72225  35.735  27.280  14.419
99158W        W72226   2.654  27.536  14.962
99159W        W72227  31.458  43.438   1.932
99160W        W72228  37.585  27.457   4.170
99161W        W72229  19.316  32.856  11.103
99162W        W72230  20.006  25.773  11.189
99163W        W72231   2.790  29.452   1.521
99164W        W72232  41.129   4.995   0.465
99165W        W72233  32.643  16.081  11.053
99166W        W72234  13.606   0.911   1.984
99167W        W72235  32.894  13.568  12.879
99168W        W72236  19.030  11.407  12.375
99169W        W72237  26.919  12.997   2.803
99170W        W72238  29.460  40.007   4.231
99171W        W72239  11.775  19.196  11.176
99172W        W72240  23.971  22.020  10.773
99173W        W72241  24.198  37.038  14.472
99174W        W72242  44.801  33.158  10.865
99175W        W72243  14.352   3.931  12.874
99176W        W72244  34.920  18.548  14.381
99177W        W72245  30.564  23.664  13.235
99178W        W72246   4.530  16.602  11.185
99179W        W72247  33.335  23.008  10.654
99180W        W72248  33.628  14.092  14.394
99181W        W72249  22.619  43.854  12.440
99182W        W72250  12.660  24.369  13.869
99183W        W72251  32.451   3.727  10.859
99184W        W72252  32.288   4.515   0.451
99185W        W72253  11.764  18.142   2.613
99186W        W72254  16.178   7.366   4.607
99187W        W72255  30.565  32.016   2.149
99188W        W72256  21.287  22.944  12.011
99189W        W72257   3.705  32.388   4.531
99190W        W72258  38.619  14.215  14.828
99191W        W72259  40.024  27.765  14.578
99192W        W72260  19.037  30.547  11.187
99193W        W72261  18.114  36.800  10.453
99194W        W72262   4.026  22.679  14.316
99195W        W72263   0.064  18.996  11.617
99196W        W72264  39.039  25.265   4.587
99197W        W72265  25.532  10.080  11.543
99198W        W72266  39.022  25.095   2.931
99199W        W72267  12.094  14.367   0.239
99200W        W72268  14.140  33.093   4.595
99201W        W72269  15.081   4.874   1.547
99202W        W72270  44.244   9.247   3.741
99203W        W72271  17.658  24.227  10.683
99204W        W72272  22.480  11.318  10.757
99205W        W72273   4.534  41.891   5.012
99206W        W72274  26.225  32.487  13.789
99207W        W72275  19.164  12.440   4.225
99208W        W72276  30.615  39.931  13.405
99209W        W72277  32.918  13.591   3.728
99210W        W72278   8.102   3.701   1.450
99211W        W72279  21.272  30.453   4.182
99212W        W72280  18.263  29.976  13.535
99213W        W72281   7.809  16.694   1.345
99214W        W72282  22.947  31.238  12.961
99215W        W72283  30.365  12.159   1.220
99216W        W72284  15.754   7.304   0.912
99217W        W72285  16.241  39.832   4.430
99218W        W72286  28.606  44.069  13.874
99219W        W72287  32.614   4.830  12.325
99220W        W72288  42.982   2.787   3.814
99221W        W72289  35.556  25.982   2.110
99222W        W72290   4.320  44.190  11.020
99223W        W72291  34.091  17.152  13.085
99224W        W72292   0.429  28.012   4.599
99225W        W72293   0.450  39.921  12.865
99226W        W72294  31.533  27.579   5.006
99227W        W72295   7.459  42.806  10.992
99228W        W72296   7.269  27.613   4.065
99229W        W72297  44.266  23.513   2.849
99230W        W72298   2.486  30.657   1.759
99231W        W72299  25.105  14.287   3.253
99232W        W72300  34.978   1.772  12.936
99233W        W72301  21.064  22.705   2.160
99234W        W72302  35.629  20.272  11.951
99235W        W72303  40.503  25.643   1.222
99236W        W72304  14.147  31.000  11.962
99237W        W72305  10.423  13.375   2.380
99238W        W72306   0.018   8.760   0.458
99239W        W72307   5.020   4.858   4.302
99240W        W72308  13.238  18.564  14.416
99241W        W72309   3.338  14.979  14.010
99242W        W72310  35.316  40.142  14.819
99243W        W72311   9.688  24.955  12.511
99244W        W72312  31.796  18.553   2.297
99245W        W72313  39.829  34.129   4.033
99246W        W72314  15.929  16.041   0.403
99247W        W72315  41.074  25.080   0.940
99248W        W72316  26.560   6.234  14.008
99249W        W72317   0.179  31.843  12.200
99250W        W72318   4.417   9.486  10.738
99251W        W72319  34.047  15.546   3.571
99252W        W72320   2.234   5.186   2.756
99253W        W72321   2.783   9.855  13.778
99254W        W72322  31.123  31.297  14.938
99255W        W72323   6.662  32.222   3.708
99256W        W72324  16.305  14.011  12.032
99257W        W72325  43.390  38.447   3.581
99258W        W72326  25.724  12.934  14.600
99259W        W72327  21.465  43.397  11.858
99260W        W72328   6.375   9.849  12.884
99261W        W72329  25.084  15.707   2.908
99262W        W72330  21.586  25.705   0.284
99263W        W72331  34.584  23.082  12.489
99264W        W72332  12.283  37.038   2.836
99265W        W72333   3.341  16.053  11.891
99266W        W72334  30.983  32.805  14.893
99267W        W72335  40.827  29.148  13.419
99268W        W72336  41.905  19.022  12.070
99269W        W72337  20.261  30.213  13.903
99270W        W72338  13.231  15.285   3.768
99271W        W72339  18.723  16.757  14.959
99272W        W72340  16.573   3.834   1.241
99273W        W72341  10.365  26.296  10.057
99274W        W72342  10.732  34.646  10.767
99275W        W72343  16.328  22.941   3.290
99276W        W72344  23.341  21.058   3.707
99277W        W72345  24.706  33.394  10.527
99278W        W72346  21.421  17.705  12.280
99279W        W72347  36.846  24.168   3.740
99280W        W72348  12.433  14.468  12.514
99281W        W72349  43.470  10.700  12.006
99282W        W72350   9.159  38.688  11.616
99283W        W72351  26.250  38.645   3.129
99284W        W72352  36.469   5.378   0.810
99285W        W72353  44.836  14.136   2.323
99286W        W72354  32.127  11.724  10.852
99287W        W72355  10.505   8.875  11.108
99288W        W72356   7.723  43.991  13.816
99289W        W72357  33.917  29.918   4.808
99290W        W72358  12.668  22.497  14.981
99291W        W72359  40.020  42.015   1.405
99292W        W72360   1.952  12.365  11.103
99293W        W72361   4.142  18.102   3.164
99294W        W72362  42.550  40.873   1.340
99295W        W72363   1.785  43.219   3.303
99296W        W72364  32.527  23.497  14.095
99297W        W72365  37.323  32.477   1.024
99298W        W72366  44.235  43.520  10.783
99299W        W72367  38.599   6.880   4.283
99300W        W72368  12.155  34.710  14.113
99301W        W72369  28.029  13.287   1.631
99302W        W72370  43.392  10.166  14.834
99303W        W72371  31.389  33.532   1.931
99304W        W72372  31.929  23.773  10.601
99305W        W72373  32.676  33.431   0.312
99306W        W72374  32.514  33.964   0.371
99307W        W72375  32.155   5.893   3.740
99308W        W72376  23.993  41.152   2.239
99309W        W72377  41.079  24.713  14.024
99310W        W72378  10.733  26.534  12.394
99311W        W72379  41.318  34.868  12.607
99312W        W72380  27.562  27.874  14.106
99313W        W72381  28.203  41.566   0.359
99314W        W72382  41.894  31.112   3.701
99315W        W72383  32.013  28.912   0.335
99316W        W72384  31.105  41.205  13.069
99317W        W72385  41.043   2.078   4.500
99318W        W72386  27.375  16.747  13.518
99319W        W72387  35.399   3.310   2.278
99320W        W72388  22.620  35.764   5.174
99321W        W72389  38.117  31.355   3.305
99322W        W72390  36.264   9.315   2.697
99323W        W72391  33.458   0.456  13.377
99324W        W72392   1.875  22.240   1.896
99325W        W72393  32.973  10.603   3.267
99326W        W72394  33.818  30.313  11.626
99327W        W72395  14.377  41.633   0.042
99328W        W72396  15.494   1.754  14.095
99329W        W72397  35.854  39.965  10.798
99330W        W72398  12.662  37.992   3.111
99331W        W72399  34.820  38.069   3.688
99332W        W72400  37.324  38.319  13.959
99333W        W72401  25.212  12.142  13.482
99334W        W72402  18.064  27.350  13.061
99335W        W72403  18.542   9.615  11.245
99336W        W72404  23.922   2.550  11.658
99337W        W72405  34.414  27.615  13.953
99338W        W72406  26.203   8.976  14.433
99339W        W72407  18.291  26.464  12.044
99340W        W72408   9.677  17.672   5.094
99341W        W72409   3.666  32.500  12.070
99342W        W72410  29.141   4.704  12.062
99343W        W72411  14.750  11.829   0.305
99344W        W72412   2.247  36.703   1.406
99345W        W72413  34.269  16.326  12.125
99346W        W72414  44.754  36.170   3.256
99347W        W72415  34.704   9.747  12.182
99348W        W72416   0.521   1.854  13.605
99349W        W72417  44.341  41.353  11.642
99350W        W72418  23.762  44.746   2.662
99351W        W72419  32.483  10.174  14.732
99352W        W72420  10.561   3.900   3.101
99353W        W72421  28.332  41.402  10.698
99354W        W72422  39.813  21.467   2.631
99355W        W72423  23.991  44.536   2.209
99356W        W72424   2.574  19.138   1.954
99357W        W72425  19.766   2.838  12.847
99358W        W72426  17.513  11.043  13.871
99359W        W72427  40.387  38.621   3.729
99360W        W72428   2.632  43.545  12.113
99361W        W72429  33.508  13.861  12.096
99362W        W72430  20.658  39.055   0.885
99363W        W72431  16.784  23.635  12.011
99364W        W72432  10.133   1.571   3.150
99365W        W72433  14.994  16.223   1.895
99366W        W72434  20.300  21.070  14.019
99367W        W72435  31.476  42.513  13.581
99368W        W72436  29.095   1.902   3.672
99369W        W72437  36.412   3.610   4.012
99370W        W72438   2.878  25.545   1.045
99371W        W72439   4.301  27.044  10.381
99372W        W72440  18.788  10.359   5.366
99373W        W72441  14.069  25.557  10.742
99374W        W72442  39.493  26.012  11.929
99375W        W72443  12.282   9.756  11.744
99376W        W72444  27.692  14.297  14.911
99377W        W72445  42.839  17.309   1.537
99378W        W72446  35.600   2.710   2.932
99379W        W72447  34.242  28.444  14.505
99380W        W72448  26.031  23.166   2.153
99381W        W72449  39.808  41.668  11.220
99382W        W72450   5.044  13.945  11.993
99383W        W72451  15.136  37.004  13.463
99384W        W72452   0.853  35.556   0.084
99385W        W72453  39.458  30.619  11.644
99386W        W72454  20.850  41.211  12.421
99387W        W72455  10.288  37.401  14.147
99388W        W72456  19.112  27.254  14.097
99389W        W72457   7.699   1.075   0.296
99390W        W72458  40.225  35.496   4.228
99391W        W72459  32.966  27.316  12.991
99392W        W72460   9.923  30.494   4.074
99393W        W72461  27.914   2.811  10.411
99394W        W72462   9.915  30.390  12.283
99395W        W72463   7.368  26.099  10.689
99396W        W72464  33.413  38.483   4.175
99397W        W72465  17.126  35.314   0.929
99398W        W72466  12.157  43.279  14.982
99399W        W72467  38.838  13.095   2.251
99400W        W72468  14.581  25.349  12.507
99401W        W72469  36.055  32.483   1.293
99402W        W72470  23.191   9.059  13.515
99403W        W72471  39.544  27.600  14.569
99404W        W72472  21.044  10.670  12.473
99405W        W72473  41.313  31.828  14.360
99406W        W72474  17.147  15.212  14.364
99407W        W72475  37.848  32.810  11.188
99408W        W72476  28.628  21.123  10.498
99409W        W72477  44.332  20.228  14.363
99410W        W72478  20.688  36.278  11.154
99411W        W72479  35.162  39.590   1.390
99412W        W72480  39.404   8.167  10.215
99413W        W72481  16.038  38.556  13.966
99414W        W72482  24.721  22.024  14.081
99415W        W72483  28.538   0.387  11.188
99416W        W72484   8.695   2.765   3.743
99417W        W72485  15.268  35.268   4.847
99418W        W72486   7.424  31.018   2.609
99419W        W72487  17.257   5.286   1.989
99420W        W72488   1.050   4.936  13.928
99421W        W72489  37.585  28.980  11.621
99422W        W72490   1.276  12.318   2.016
99423W        W72491  23.501  27.207  12.531
99424W        W72492  18.263  10.194  12.025
99425W        W72493  38.873  42.983   5.030
99426W        W72494  14.405  32.940  11.604
99427W        W72495  17.990  14.739   4.552
99428W        W72496  43.109  33.915  14.905
99429W        W72497  39.405  10.891   0.633
99430W        W72498  38.574   3.298  14.181
99431W        W72499  28.516  34.416   4.505
99432W        W72500  33.144  13.780  13.864
99433W        W72501  43.102  14.419  11.286
99434W        W72502  40.261   2.650   2.541
99435W        W72503  18.396  25.026   3.748
99436W        W72504  17.760  34.840   1.253
99437W        W72505  11.354  16.622   3.151
99438W        W72506  44.406  37.056   4.522
99439W        W72507   1.061  37.802   4.128
99440W        W72508  26.559   9.605   3.644
99441W        W72509   2.178  10.183   3.562
99442W        W72510  10.407  38.591   2.755
99443W        W72511   2.383  38.925  11.246
99444W        W72512  27.475   6.352   2.224
99445W        W72513  27.079  34.098   2.124
99446W        W72514  20.605  42.740  13.808
99447W        W72515  44.031  38.870  11.603
99448W        W72516   9.161  37.842   2.268
99449W        W72517  38.362  39.334   0.522
99450W        W72518  40.484  25.192   1.497
99451W        W72519   2.546  31.526  13.997
99452W        W72520  33.646  34.607  10.003
99453W        W72521  42.255  34.411   1.949
99454W        W72522  42.440   6.427   4.176
99455W        W72523  14.994  34.336  14.993
99456W        W72524   0.926   6.740   0.871
99457W        W72525   3.497  33.926   1.683
99458W        W72526  11.879  29.586  13.929
99459W        W72527  12.166   9.417  13.007
99460W        W72528  43.312  41.242   4.534
99461W        W72529  19.629  17.769  13.879
99462W        W72530  21.757  13.238   4.803
99463W        W72531  38.433   8.967   5.151
99464W        W72532  44.279  37.284   1.279
99465W        W72533  15.315  29.242  12.840
99466W        W72534  36.750  17.639   1.461
99467W        W72535  41.751  12.084  11.595
99468W        W72536  19.908  24.530   3.245
99469W        W72537  37.971   9.613  13.512
99470W        W72538  34.059   1.611   4.154
99471W        W72539  14.965  13.597   2.794
99472W        W72540  38.348   3.460  14.612
99473W        W72541  22.354  33.461   3.017
99474W        W72542  42.958  26.445  14.900
99475W        W72543  40.528  21.710   4.582
99476W        W72544  32.033  42.366   4.711
99477W        W72545   2.516  16.108   2.888
99478W        W72546  17.748  19.176  11.774
99479W        W72547  16.847  23.831  12.476
99480W        W72548  30.190  23.423   0.869
99481W        W72549  16.580   3.133  12.517
99482W        W72550  42.896  32.062  14.929
99483W        W72551  26.526  41.715  13.343
99484W        W72552  40.192   1.613   4.800
99485W        W72553  14.719  34.869   0.480
99486W        W72554  20.206   9.414   0.372
99487W        W72555  34.060  36.504  14.044
99488W        W72556   6.961   1.331   3.788
99489W        W72557  32.002  16.733  14.364
99490W        W72558  22.774  13.155   1.339
99491W        W72559   0.264   0.924  10.591
99492W        W72560  40.280  43.976   0.429
99493W        W72561  40.343   1.270   2.351
99494W        W72562  12.152  43.147   4.702
99495W        W72563  24.827   9.146  12.848
99496W        W72564  17.383  40.638   0.726
99497W        W72565  34.206  15.071  12.710
99498W        W72566   2.474  31.525  10.791
99499W        W72567   0.981  14.266  14.300
99500W        W72568  23.800  37.547  12.290
99501W        W72569  24.548  28.949  11.206
99502W        W72570  14.902  36.879   3.519
99503W        W72571  40.961   6.802  14.703
99504W        W72572  10.277  18.656  10.460
99505W        W72573   4.433   6.499  10.842
99506W        W72574  39.449  16.400   4.931
99507W        W72575  25.175  30.612   2.881
99508W        W72576  17.688  42.317   2.419
99509W        W72577   4.767  23.422  14.781
99510W        W72578   4.235  43.805   4.967
99511W        W72579  32.723  31.019  11.156
99512W        W72580  44.863   5.735  12.328
99513W        W72581   5.284  44.289   0.920
99514W        W72582  16.332  38.915   4.305
99515W        W72583   4.494   3.465  11.352
99516W        W72584  37.875  37.478   2.800
99517W        W72585  14.612  41.924  13.584
99518W        W72586  12.255  34.547   3.943
99519W        W72587  23.837  15.985  13.095
99520W        W72588  31.448  42.012   1.857
99521W        W72589  28.487  28.566   2.382
99522W        W72590   0.493  36.870  14.033
99523W        W72591  18.014  12.272  10.381
99524W        W72592  33.073  38.765  11.095
99525W        W72593  22.022  41.970  12.522
99526W        W72594  13.385   3.885   0.366
99527W        W72595  35.652   9.789  11.662
99528W        W72596   9.443  32.966   1.142
99529W        W72597   6.717  27.663   1.354
99530W        W72598  23.637  11.659  12.070
99531W        W72599   2.482   6.623   4.900
99532W        W72600  18.296  13.692  11.416
99533W        W72601  33.451  21.620  13.166
99534W        W72602  22.537   8.915   1.853
99535W        W72603  22.723  28.112  12.436
99536W        W72604  31.091   4.006  12.645
99537W        W72605  30.448  13.345   0.576
99538W        W72606  15.117  31.951  11.469
99539W        W72607  16.965   5.766   3.070
99540W        W72608  19.144  44.346   2.227
99541W        W72609  40.225  43.399  12.011
99542W        W72610  31.063  11.843  12.912
99543W        W72611   7.464  15.701  14.511
99544W        W72612  40.248   7.156  12.339
99545W        W72613   8.943  14.563   4.011
99546W        W72614  39.048  39.656  12.239
99547W        W72615  12.963  42.864   2.840
99548W        W72616   2.287   6.203  12.591
99549W        W72617  29.427  24.962   4.064
99550W        W72618  12.774  42.884  12.037
99551W        W72619  37.630   2.300   4.583
99552W        W72620  37.441   1.021   1.798
99553W        W72621  36.107  24.440   3.917
99554W        W72622   0.926  13.101  14.970
99555W        W72623  33.106   8.617   2.803
99556W        W72624   7.300  40.373   0.739
99557W        W72625  40.922  11.796   0.022
99558W        W72626   6.209  19.511   2.578
99559W        W72627  14.635   2.841   3.168
99560W        W72628  38.864  22.959   0.724
99561W        W72629  31.201  22.166   1.248
99562W        W72630  14.231  34.808  13.973
99563W        W72631  39.525  33.485   4.605
99564W        W72632   6.431  36.643   0.707
99565W        W72633  36.034  39.011  14.961
99566W        W72634  19.665  11.779   0.776
99567W        W72635  29.795  32.292   3.420
99568W        W72636  37.968   4.855  13.115
99569W        W72637  24.039  28.664  13.190
99570W        W72638  34.542  37.028  12.100
99571W        W72639  41.875  31.193   4.475
99572W        W72640  42.345  22.591  12.921
99573W        W72641   4.814   8.814   5.012
99574W        W72642  17.365  14.889  10.310
99575W        W72643  11.630  28.476  13.519
99576W        W72644   6.436  42.314  10.849
99577W        W72645   0.873   5.024   3.204
99578W        W72646  36.956  17.165   1.387
99579W        W72647  15.181   6.225   1.166
99580W        W72648   3.004   7.389  14.509
99581W        W72649  36.599  41.426  12.449
99582W        W72650  44.877  34.472   0.385
99583W        W72651  19.296   4.941  11.622
99584W        W72652   0.736  37.384   4.078
99585W        W72653  30.834  40.932   4.453
99586W        W72654  29.086  19.860  10.576
99587W        W72655  13.813  44.106  12.022
99588W        W72656  20.062  13.588  13.558
99589W        W72657  15.843  18.980  11.068
99590W        W72658   2.468  12.931   4.552
99591W        W72659  36.070  42.721  12.941
99592W        W72660  21.571  22.007  13.994
99593W        W72661  35.572  28.910  13.994
99594W        W72662  35.477  16.958  12.459
99595W        W72663   0.717  10.336  11.367
99596W        W72664  30.325  18.531   3.109
99597W        W72665  38.273   3.262   0.069
99598W        W72666   2.517  13.381   0.381
99599W        W72667   1.130  36.741  11.508
99600W        W72668  44.453  29.682   4.010
99601W        W72669   2.979  21.756   1.252
99602W        W72670   1.694   8.950  12.795
99603W        W72671  24.939   3.330  10.970
99604W        W72672  25.225  42.492   1.262
99605W        W72673  25.349  36.315  11.581
99606W        W72674  42.058  32.951  13.788
99607W        W72675  16.034   7.907   4.567
99608W        W72676   4.704   8.667   1.872
99609W        W72677  42.956  17.810  11.218
99610W        W72678  41.862  19.192  12.571
99611W        W72679  44.450  37.528   2.827
99612W        W72680  30.003  38.927   4.279
99613W        W72681  14.948  27.700   4.754
99614W        W72682  36.411   4.646   1.375
99615W        W72683   6.823  27.475  12.385
99616W        W72684  42.793  30.158  14.429
99617W        W72685  34.640  37.986  14.730
99618W        W72686   1.203   0.591   4.488
99619W        W72687   4.824  22.853   1.027
99620W        W72688   8.298  30.885  14.825
99621W        W72689  39.147  30.212  11.660
99622W        W72690  21.119  35.608  10.728
99623W        W72691  37.275  12.815  12.012
99624W        W72692  33.085  18.213  14.470
99625W        W72693  28.614  26.606  13.840
99626W        W72694   2.746   8.644  13.782
99627W        W72695  28.618  44.537   3.330
99628W        W72696  26.961  18.861  10.826
99629W        W72697   5.446  17.107   4.021
99630W        W72698  22.731  28.395   3.137
99631W        W72699  24.959  31.153   5.061
99632W        W72700  28.235  20.128   2.297
99633W        W72701   6.839  21.738   3.331
99634W        W72702  21.108  36.346   1.352
99635W        W72703  35.781  13.007   3.124
99636W        W72704   5.336  41.419  13.417
99637W        W72705  24.980  23.571   4.348
99638W        W72706  10.665  15.793   1.738
99639W        W72707  38.119  32.833   3.199
99640W        W72708  22.680  38.613   0.717
99641W        W72709   7.934  35.439  11.485
99642W        W72710  38.551  10.916  11.914
99643W        W72711  41.009  27.546  13.553
99644W        W72712  11.703  23.810   2.617
99645W        W72713  37.041  44.424  11.424
99646W        W72714  15.065  35.935  13.757
99647W        W72715   1.980  30.915  13.282
99648W        W72716  25.773  15.446  14.835
99649W        W72717  18.239   4.253   3.996
99650W        W72718  12.819  36.356   0.386
99651W        W72719  26.928   3.209  13.414
99652W        W72720  24.745  28.005  14.332
99653W        W72721  10.857  25.955  13.946
99654W        W72722  28.180  40.129   0.549
99655W        W72723  36.932  11.770  13.013
99656W        W72724  31.598  10.099  14.853
99657W        W72725   1.803  37.455   1.969
99658W        W72726  22.698  31.538   3.547
99659W        W72727  44.375  31.170   1.380
99660W        W72728  29.618  41.098  12.536
99661W        W72729   9.719  22.005   3.906
99662W        W72730  13.549  36.184   4.042
99663W        W72731  21.450  35.553   4.652
99664W        W72732  14.583  16.335   2.203
99665W        W72733  22.928  33.661  13.521
99666W        W72734  37.192   9.251  12.640
99667W        W72735  13.563  24.507  13.818
99668W        W72736  39.802  16.498   0.632
99669W        W72737  44.807  28.662  14.708
99670W        W72738  18.059   9.262   0.816
99671W        W72739  34.144  43.389   1.790
99672W        W72740  19.231  18.138   0.633
99673W        W72741  16.012  16.695  13.868
99674W        W72742  15.594  39.076   3.743
99675W        W72743  28.552   3.505   0.869
99676W        W72744  28.470   7.426   1.692
99677W        W72745  38.816  23.902   4.000
99678W        W72746   3.689  14.710  11.633
99679W        W72747  43.985  24.535   0.391
99680W        W72748  10.591  36.567  14.383
99681W        W72749  18.548  27.002   1.395
99682W        W72750  20.756  40.207   3.321
99683W        W72751   7.210  13.654   1.918
99684W        W72752  24.807   6.253   4.625
99685W        W72753  30.783  31.980   4.256
99686W        W72754  42.826  27.641  13.447
99687W        W72755  33.056  27.252  10.658
99688W        W72756  29.648  32.179   9.903
99689W        W72757  26.904   9.667  13.486
99690W        W72758   0.066  28.103  14.478
99691W        W72759  11.442   1.312  12.396
99692W        W72760   6.409  35.854   2.719
99693W        W72761   3.893  14.362  13.610
99694W        W72762   5.373  26.943   4.662
99695W        W72763  43.506  29.700  13.987
99696W        W72764   5.299  41.542   0.043
99697W        W72765   7.334  32.996   3.898
99698W        W72766   4.423  25.009  12.058
99699W        W72767  22.941   9.737  11.679
99700W        W72768  12.994  21.213   1.466
99701W        W72769   1.171  28.904  14.777
99702W        W72770  29.485  44.941   1.455
99703W        W72771  12.908  44.326  11.578
99704W        W72772  43.492   1.848  11.427
99705W        W72773  21.981  38.381   2.292
99706W        W72774  19.244  35.015  13.875
99707W        W72775  12.621  16.743   5.000
99708W        W72776   9.782  39.021  13.063
99709W        W72777  13.848  20.211   0.203
99710W        W72778  38.474   7.773  11.852
99711W        W72779   9.147   8.878   9.617
99712W        W72780   1.858  34.676  11.566
99713W        W72781  36.853  26.706   4.534
99714W        W72782  15.035  39.322   4.183
99715W        W72783  36.305  42.242  11.686
99716W        W72784  41.802  10.298  10.965
99717W        W72785  30.539  23.127  12.603
99718W        W72786  15.377  38.418  12.915
99719W        W72787  12.184  15.994   1.930
99720W        W72788  17.584  37.389  10.969
99721W        W72789  38.412  16.526   0.930
99722W        W72790  25.277  21.118   2.820
99723W        W72791  16.114  41.539  12.170
99724W        W72792  42.203  28.118  14.736
99725W        W72793   7.697  30.371   3.721
99726W        W72794  34.053   4.303  13.016
99727W        W72795  12.861   3.298  10.887
99728W        W72796  29.046  36.661  12.843
99729W        W72797   4.838  13.554  14.306
99730W        W72798   3.038  39.413   1.680
99731W        W72799   8.878  16.257   4.696
99732W        W72800  16.339  42.164   0.018
99733W        W72801  30.698  18.229   4.599
99734W        W72802  42.478  31.695  13.846
99735W        W72803  31.859  23.647   3.939
99736W        W72804  29.699  12.580  14.962
99737W        W72805  13.764  33.602   1.573
99738W        W72806  37.676  18.708   1.832
99739W        W72807  19.627   9.157   2.841
99740W        W72808  38.537  15.170  11.961
99741W        W72809  14.466  40.302   3.634
99742W        W72810  30.096   8.136  13.414
99743W        W72811  13.431  41.870  14.716
99744W        W72812  22.663   9.894  13.598
99745W        W72813  33.327  13.712  11.135
99746W        W72814   4.533  25.162  13.881
99747W        W72815   8.754   8.652  13.517
99748W        W72816  19.958   9.222  11.154
99749W        W72817  17.199   9.862   4.537
99750W        W72818  41.573  31.101   0.446
99751W        W72819   3.016  21.050   3.688
99752W        W72820  21.303  28.329  14.444
99753W        W72821   8.392  13.692   4.454
99754W        W72822  29.063  23.967   0.348
99755W        W72823   0.199  35.504  13.718
99756W        W72824  10.329   5.866   3.607
99757W        W72825   2.928   2.412  11.911
99758W        W72826  11.800  38.924   1.267
99759W        W72827   6.340   8.292   4.560
99760W        W72828  15.209  37.270   3.770
99761W        W72829  34.363  38.845   4.053
99762W        W72830  38.135  17.695  14.366
99763W        W72831  17.698  31.070   2.363
99764W        W72832  31.882   4.117  11.523
99765W        W72833  34.069  44.200   2.302
99766W        W72834  31.895  18.520  11.534
99767W        W72835  14.770  39.932   1.340
99768W        W72836  18.385  23.193   1.369
99769W        W72837  43.646   3.963   1.411
99770W        W72838  26.541  40.817  11.334
99771W        W72839  17.211  37.338   2.335
99772W        W72840   4.258  24.103  11.680
99773W        W72841  24.948  10.563   4.640
99774W        W72842  33.790   0.371  12.982
99775W        W72843  15.594  30.890   0.469
99776W        W72844   6.519  10.954  13.408
99777W        W72845   2.194  44.286   0.955
99778W        W72846  32.378  40.162  12.401
99779W        W72847  15.006  13.807  13.945
99780W        W72848  38.968   5.603   4.213
99781W        W72849  44.023  16.202  13.309
99782W        W72850  36.848   3.904   4.173
99783W        W72851  44.476   1.277  12.200
99784W        W72852  25.679  23.025  10.631
99785W        W72853  30.498  44.905   3.731
99786W        W72854  37.579  27.931  11.453
99787W        W72855  21.702  26.986  13.631
99788W        W72856  16.333   5.252  14.549
99789W        W72857   9.960  35.539  11.338
99790W        W72858   4.923  41.145   2.579
99791W        W72859  23.322  14.183  12.852
99792W        W72860   2.304  44.370   3.892
99793W        W72861  29.011  17.263   4.751
99794W        W72862  11.417   6.136   0.716
99795W        W72863  35.556  32.982   2.344
99796W        W72864   3.853  25.720  11.841
99797W        W72865  38.171   4.983   1.360
99798W        W72866  13.400  15.628  13.364
99799W        W72867  15.794   3.959  13.388
99800W        W72868  24.778  42.372  10.630
99801W        W72869  29.410  27.795   5.013
99802W        W72870  18.436   3.380  11.973
99803W        W72871  10.285  32.650  14.732
99804W        W72872  18.538  42.362  11.092
99805W        W72873  43.760  40.975  11.285
99806W        W72874  19.854  28.091   3.212
99807W        W72875  33.382  22.298   1.514
99808W        W72876  20.753  10.434   1.217
99809W        W72877   4.361   7.403  13.498
99810W        W72878  36.916  18.050   1.153
99811W        W72879  39.522  32.097   1.241
99812W        W72880  28.653  27.190  10.842
99813W        W72881  14.117   8.802   2.329
99814W        W72882  14.893  11.136   2.242
99815W        W72883  16.201  27.587   0.944
99816W        W72884   6.315  37.285  13.397
99817W        W72885  44.868  11.566   0.860
99818W        W72886  33.873  25.513  14.371
99819W        W72887  19.002  11.642  14.931
99820W        W72888  12.664  28.768  14.431
99821W        W72889  18.994  10.831  11.647
99822W        W72890  33.126  32.660  12.008
99823W        W72891  41.573  41.140   1.327
99824W        W72892  18.367  38.681  12.772
99825W        W72893  35.036   9.130   3.639
99826W        W72894  25.526  18.057  12.441
99827W        W72895  42.866  38.477   2.702
99828W        W72896  37.818   3.202   2.936
99829W        W72897  36.858  19.195   2.471
99830W        W72898  22.441  26.870  14.984
99831W        W72899  14.811   8.924   1.772
99832W        W72900  15.972  28.622   3.273
99833W        W72901  12.962  22.127   1.928
99834W        W72902  39.771  25.076  12.366
99835W        W72903  22.975   7.064   3.007
99836W        W72904   6.743   9.399  14.774
99837W        W72905  24.346  15.677  10.227
99838W        W72906  12.192  11.461   4.645
99839W        W72907   6.113  30.110  11.602
99840W        W72908   0.795   6.723   4.170
99841W        W72909  18.707  13.403  11.594
99842W        W72910  39.050   4.709  11.091
99843W        W72911  31.840  41.677  11.929
99844W        W72912  40.999  43.073   3.264
99845W        W72913   4.722  41.029   1.176
99846W        W72914  36.700  13.215   0.994
99847W        W72915  11.641  30.216  12.387
99848W        W72916   7.705   6.837  12.524
99849W        W72917   2.314  23.078   3.770
99850W        W72918  14.602   5.013   0.758
99851W        W72919  22.592  11.167   2.679
99852W        W72920  38.121  17.846   0.218
99853W        W72921  30.894   2.645   1.850
99854W        W72922  20.604   6.809  13.519
99855W        W72923   3.826  37.869  13.088
99856W        W72924  24.683  16.784   2.058
99857W        W72925  24.404  28.942  12.945
99858W        W72926  35.206  16.959  13.597
99859W        W72927  43.272  35.180  12.034
99860W        W72928  36.830  27.642   2.558
99861W        W72929  20.232  38.948   1.536
99862W        W72930   8.911   9.833  12.319
99863W        W72931  11.112  12.685   3.343
99864W        W72932  41.055  24.741   0.331
99865W        W72933   4.423  44.328  11.498
99866W        W72934  23.222   4.755  13.856
99867W        W72935  35.942   4.617  12.466
99868W        W72936  39.836  40.699  14.423
99869W        W72937  39.511  20.197  12.648
99870W        W72938  34.902  40.833   3.944
99871W        W72939  21.269  42.365   1.672
99872W        W72940  29.840  39.336   3.147
99873W        W72941  39.362  26.012   4.878
99874W        W72942  43.952  14.387  13.131
99875W        W72943  33.007  25.527  13.969
99876W        W72944  35.182   6.644   0.543
99877W        W72945   7.667  43.787  11.558
99878W        W72946  10.115   1.179   1.418
99879W        W72947  10.424  15.280  13.981
99880W        W72948  16.042  21.542  10.770
99881W        W72949  14.052  24.230   3.802
99882W        W72950  37.151  20.137  11.983
99883W        W72951  22.166  35.870  10.566
99884W        W72952  33.919  23.947  11.722
99885W        W72953   0.799  37.973   2.817
99886W        W72954  29.114  15.040  14.875
99887W        W72955  24.709  22.593  12.892
99888W        W72956  24.171   8.908   3.791
99889W        W72957  23.422  33.867   4.377
99890W        W72958  42.018  30.891   2.127
99891W        W72959  20.584  17.825  11.546
99892W        W72960  35.353  26.078  13.656
99893W        W72961  40.016  13.415  12.925
99894W        W72962  29.576   5.773  14.249
99895W        W72963  34.446  36.885   1.305
99896W        W72964  33.687  25.795  12.970
99897W        W72965   7.814  17.192   1.446
99898W        W72966  10.467  41.461   4.184
99899W        W72967  28.468   0.501   2.232
99900W        W72968  13.616  10.641  10.481
99901W        W72969  26.226  31.023   0.761
99902W        W72970  11.131  22.940  10.724
99903W        W72971  22.135  43.945   9.782
99904W        W72972  31.977  15.538  10.845
99905W        W72973  40.531  32.929   4.999
99906W        W72974  23.082   4.025   4.068
99907W        W72975  40.402   3.075   2.830
99908W        W72976   0.428  18.559  10.917
99909W        W72977  19.460  21.881   1.815
99910W        W72978   9.115   4.897   2.444
99911W        W72979  37.912  22.018   0.005
99912W        W72980  24.476  18.777  13.952
99913W        W72981  20.093  33.926  11.102
99914W        W72982  19.737  36.398   1.536
99915W        W72983   8.869  41.806  11.103
99916W        W72984  13.667  34.621  10.953
99917W        W72985   8.385  34.017  13.220
99918W        W72986  32.070  36.782  14.292
99919W        W72987  23.591  23.788   2.636
99920W        W72988  25.995   2.755   3.117
99921W        W72989  38.440  44.480   4.466
99922W        W72990  43.397   4.925  11.882
99923W        W72991  12.530   7.861   2.214
99924W        W72992  18.179  38.167   2.396
99925W        W72993  24.205   5.217  14.495
99926W        W72994   8.709   5.247   0.874
99927W        W72995  19.878  43.036  10.288
99928W        W72996  38.056  39.101  10.852
99929W        W72997  15.981  28.137   1.387
99930W        W72998  39.390  28.914   1.906
99931W        W72999  38.125   9.655  12.479
99932W        W73000  10.908  17.933  12.113
99933W        W73001  12.595  38.359   4.155
99934W        W73002  37.661  21.285  11.473
99935W        W73003   8.954  21.163   2.086
99936W        W73004   7.725  28.701  14.917
99937W        W73005  28.625  21.174   2.559
99938W        W73006  17.559   3.448   2.421
99939W        W73007  32.203   5.363   0.261
99940W        W73008   6.953   8.815  10.845
99941W        W73009   7.639   2.920   1.689
99942W        W73010   0.797  12.109   2.822
99943W        W73011  11.252   2.386   2.581
99944W        W73012  12.868  15.800  10.374
99945W        W73013   6.087  11.654  13.055
99946W        W73014  11.170  34.701   0.295
99947W        W73015   8.283  35.483  12.907
99948W        W73016  12.336  11.716  14.042
99949W        W73017  19.714   3.963   0.261
99950W        W73018  29.765  39.400  10.408
99951W        W73019  13.575  36.699   4.054
99952W        W73020  35.069  43.338   0.236
99953W        W73021  17.516  15.242   3.680
99954W        W73022  34.042   6.473  14.379
99955W        W73023  32.360  42.401  11.900
99956W        W73024  32.065  15.661  11.699
99957W        W73025  40.291  35.342  14.294
99958W        W73026  19.531   6.492  12.520
99959W        W73027   5.175  14.726   1.430
99960W        W73028  43.398  31.056  11.390
99961W        W73029  17.301  13.250  13.766
99962W        W73030   9.207  10.921   1.888
99963W        W73031  29.840  35.902   2.454
99964W        W73032  31.808  34.625   4.454
99965W        W73033  19.039  14.756  12.056
99966W        W73034  15.727   5.603  10.818
99967W        W73035   2.379  15.620   3.113
99968W        W73036  42.510  11.246  11.749
99969W        W73037  30.223  38.828   2.347
99970W        W73038  28.914  10.123   3.741
99971W        W73039  27.035   7.490  11.442
99972W        W73040  13.190  37.660   0.263
99973W        W73041  27.804  15.211  11.006
99974W        W73042  37.596  34.179   3.296
99975W        W73043  16.695  39.388  11.140
99976W        W73044  23.746  11.634   3.356
99977W        W73045  43.316   6.709   2.602
99978W        W73046   0.373  30.400   2.604
99979W        W73047  35.509  42.223   1.664
99980W        W73048  22.722  41.919  11.187
99981W        W73049  18.177  28.514  11.373
99982W        W73050  40.400  39.028  14.860
99983W        W73051  27.915   3.767   3.072
99984W        W73052  37.819  25.731  14.464
99985W        W73053  18.928  31.603  12.947
99986W        W73054  44.569  37.039   2.554
99987W        W73055  39.909  11.367  10.853
99988W        W73056  17.096   7.560   4.006
99989W        W73057  11.658  17.690  14.412
99990W        W73058  15.860  14.274  13.893
99991W        W73059  13.283  23.032   0.435
99992W        W73060   7.768  15.716   1.201
99993W        W73061  31.090  43.001   1.914
99994W        W73062   2.710   4.830   4.622
99995W        W73063  31.601  19.634   4.524
99996W        W73064  14.031  31.839  12.934
99997W        W73065  10.570  20.942  12.117
99998W        W73066  15.807  38.415   2.375
99999W        W73067  33.025  18.066   4.387
    0W        W73068  39.939   5.262   3.193
    1W        W73069  25.874  36.613  12.864
    2W        W73070  14.298  21.546  14.456
    3W        W73071   4.674  29.950   4.249
    4W        W73072  34.611  24.628  13.912
    5W        W73073   8.143   8.605  14.802
    6W        W73074  14.012  32.429   5.217
    7W        W73075   6.350  14.757   1.783
    8W        W73076  18.384  30.038   1.673
    9W        W73077  22.504  16.862  13.922
   10W        W73078  22.670  23.125  10.364
   11W        W73079  21.162  14.154   0.750
   12W        W73080  44.939  14.178  13.490
   13W        W73081  41.268  12.154  10.757
   14W        W73082   8.831  35.701   0.092
   15W        W73083  29.710  13.373   3.417
   16W        W73084  12.949  24.497   0.812
   17W        W73085  18.733  10.713  11.193
   18W        W73086  33.913  32.151   0.939
   19W        W73087   8.445  10.767   1.412
   20W        W73088  17.075  40.095   4.551
   21W        W73089  32.841  11.476  14.102
   22W        W73090  22.234   3.909   0.901
   23W        W73091  21.693  39.959   2.273
   24W        W73092  21.597   5.001   2.771
   25W        W73093  38.626  30.361   0.421
   26W        W73094  35.377  32.958  13.428
   27W        W73095  11.343  35.468  11.958
   28W        W73096  43.400  25.146   1.969
   29W        W73097  42.213  40.381   4.581
   30W        W73098  43.712   7.675   3.943
   31W        W73099  19.800  31.451  12.373
   32W        W73100   1.038  18.223   2.780
   33W        W73101  37.013  43.294   2.666
   34W        W73102  43.361  35.908  14.353
   35W        W73103  42.476  11.510  14.563
   36W        W73104   2.445   0.396   0.933
   37W        W73105   8.609  40.095  13.373
   38W        W73106  32.174  34.149   0.024
   39W        W73107  34.443   4.153   0.861
   40W        W73108  36.557  19.670   3.184
   41W        W73109  39.390  39.563  13.983
   42W        W73110  26.994  40.051   0.421
   43W        W73111   3.872  17.298   1.057
   44W        W73112  39.542  36.082   4.325
   45W        W73113  41.035  32.983  14.513
   46W        W73114  44.342  31.132  11.109
   47W        W73115  20.743  43.815   4.638
   48W        W73116   2.064  37.985   3.108
   49W        W73117  10.775  38.025  14.322
   50W        W73118  11.072  16.350   9.720
   51W        W73119  31.761   6.098   1.586
   52W        W73120  43.972  36.490   2.163
   53W        W73121  19.515   9.134  14.821
   54W        W73122   7.787  31.908   2.390
   55W        W73123  37.870  22.831   1.767
   56W        W73124   8.812  12.746   2.601
   57W        W73125  28.053  34.890  12.353
   58W        W73126  37.922  14.638  10.969
   59W        W73127  15.445  24.812   2.803
   60W        W73128   0.270  13.340   3.123
   61W        W73129  35.685  29.627   3.525
   62W        W73130  26.512  19.039   3.783
   63W        W73131  41.292  39.091  13.056
   64W        W73132  31.444  41.247   0.340
   65W        W73133  29.136   3.352   0.025
   66W        W73134  36.841  35.025   1.856
   67W        W73135  37.254  33.087  10.529
   68W        W73136  18.358  33.591  10.659
   69W        W73137  33.336  26.744   1.351
   70W        W73138   5.381   3.456  14.005
   71W        W73139  28.355   6.451  14.330
   72W        W73140  31.177  15.098  10.705
   73W        W73141   1.673   3.026  12.113
   74W        W73142   0.203   1.766  11.600
   75W        W73143  16.304  23.393  12.028
   76W        W73144  31.198  37.307  10.265
   77W        W73145  22.822   2.213  14.828
   78W        W73146  10.759  12.306  12.356
   79W        W73147  15.906  22.170  14.865
   80W        W73148  29.567  28.266  12.114
   81W        W73149   1.779  42.395   4.350
   82W        W73150  11.687  19.601  10.894
   83W        W73151  16.111  38.698  11.857
   84W        W73152  22.539   3.491   0.816
   85W        W73153   6.180  42.194   2.759
   86W        W73154   7.986   8.870  12.525
   87W        W73155  41.841   6.791   1.664
   88W        W73156  40.878   2.458   3.145
   89W        W73157  27.628  42.377   0.542
   90W        W73158  34.078   0.887  11.918
   91W        W73159  18.715   8.925   1.327
   92W        W73160  22.222  33.056  12.431
   93W        W73161  44.996   4.512   2.108
   94W        W73162  21.032  31.958   2.425
   95W        W73163  31.921   9.757  11.527
   96W        W73164   6.536   6.697  10.933
   97W        W73165  13.367  21.809  11.217
   98W        W73166   3.453  42.741  13.909
   99W        W73167  17.837  41.167  13.921
  100W        W73168  36.871  32.721  14.406
  101W        W73169  34.111  14.946   0.857
  102W        W73170  30.442   2.498   1.626
  103W        W73171  25.912  23.510  14.005
  104W        W73172  43.837  32.438  11.252
  105W        W73173  35.412   5.235  11.397
  106W        W73174   1.928   6.543  12.755
  107W        W73175  32.027  37.287  14.315
  108W        W73176  34.568   2.761   2.307
  109W        W73177  32.510   6.972   3.782
  110W        W73178  29.088  30.692  13.967
  111W        W73179  30.999  22.223  13.940
  112W        W73180  33.164  15.664  10.279
  113W        W73181  31.310  31.894   9.985
  114W        W73182  10.387   0.760  11.123
  115W        W73183   6.610  30.566   5.042
  116W        W73184  23.732  34.183   1.907
  117W        W73185  14.732  27.009  14.782
  118W        W73186  11.897  21.160  11.642
  119W        W73187  42.558  31.996   2.572
  120W        W73188   4.486  23.874   0.600
  121W        W73189  42.923   7.096  13.086
  122W        W73190  29.312  16.242  14.346
  123W        W73191  15.179   0.512  14.361
  124W        W73192  22.935  14.280   4.188
  125W        W73193  33.832   9.414  13.033
  126W        W73194  15.009   8.877  13.269
  127W        W73195  41.294  22.462  13.799
  128W        W73196  41.496  16.509   2.266
  129W        W73197  33.133  23.194   3.622
  130W        W73198  42.300   3.051   2.658
  131W        W73199  15.203  22.068  12.522
  132W        W73200  29.531   2.914   2.285
  133W        W73201  25.568  26.565   4.204
  134W        W73202  19.267  19.791  12.926
  135W        W73203   3.764  28.667  14.416
  136W        W73204  23.283  10.319  11.572
  137W        W73205   5.982   9.312  13.701
  138W        W73206  26.507  18.654  11.721
  139W        W73207   7.664  23.608  12.451
  140W        W73208   8.127  10.148   4.651
  141W        W73209   0.790   7.970  12.197
  142W        W73210  11.820  43.530  11.402
  143W        W73211  24.637   6.596   3.798
  144W        W73212  31.094   8.112   0.527
  145W        W73213   9.916  38.311   0.465
  146W        W73214  36.806  29.119  12.590
  147W        W73215  42.943  24.515   1.670
  148W        W73216   7.275   9.216  11.338
  149W        W73217  43.964  14.514   3.218
  150W        W73218  38.799  28.220  12.028
  151W        W73219  26.677  19.073  10.433
  152W        W73220  31.944   5.681  14.916
  153W        W73221  24.605  41.870  11.996
  154W        W73222  14.063  23.459  13.978
  155W        W73223  27.615  33.556   4.791
  156W        W73224  24.455  17.624  14.317
  157W        W73225  32.085   4.235   0.081
  158W        W73226   6.223  44.945  10.651
  159W        W73227   7.962  28.543   1.255
  160W        W73228  20.531  14.318   0.019
  161W        W73229  40.803  40.219   4.358
  162W        W73230  43.813   1.960  11.032
  163W        W73231   9.675   3.221  12.044
  164W        W73232   7.006  20.792  14.323
  165W        W73233  14.614  23.326   1.743
  166W        W73234   5.413  43.428   2.235
  167W        W73235   0.830  20.621   1.849
  168W        W73236  33.397  19.624  14.317
  169W        W73237  38.530  34.082  12.451
  170W        W73238  22.273  15.272   1.699
  171W        W73239  36.260  30.357  10.148
  172W        W73240  22.043  36.322   3.199
  173W        W73241  38.906   7.109   0.832
  174W        W73242  20.883  43.098  13.503
  175W        W73243  18.117  28.645   1.710
  176W        W73244  16.371   1.907   2.176
  177W        W73245  20.451  43.928   3.812
  178W        W73246   4.417  26.481   2.804
  179W        W73247  42.458  22.703  11.450
  180W        W73248  36.528  16.379  11.631
  181W        W73249  31.104  14.296   1.921
  182W        W73250   5.694   6.786   3.542
  183W        W73251  38.607   5.247  12.409
  184W        W73252  40.890  27.880  14.535
  185W        W73253  17.820  19.098   1.997
  186W        W73254  10.435  22.648  13.820
  187W        W73255  23.980  38.807   5.037
  188W        W73256  26.884  10.918  14.853
  189W        W73257  33.331  13.734   2.034
  190W        W73258  29.418  41.560  11.498
  191W        W73259   5.236  34.593  13.030
  192W        W73260   9.302  28.956  12.148
  193W        W73261  39.424   1.691   3.581
  194W        W73262   3.407  43.069  12.446
  195W        W73263   1.879  11.566   2.486
  196W        W73264  11.805  12.096   1.359
  197W        W73265   8.162  30.211   4.232
  198W        W73266   6.765  40.799  14.359
  199W        W73267  40.822  23.014  14.428
  200W        W73268  28.034  43.874   2.113
  201W        W73269  43.345  32.954  13.316
  202W        W73270  21.496  31.887  11.178
  203W        W73271  25.991   0.278   4.225
  204W        W73272  26.425  25.566  12.464
  205W        W73273  36.383  22.478   0.411
  206W        W73274  35.513  20.094   3.757
  207W        W73275  19.345  44.239  14.528
  208W        W73276  36.352  36.607   2.632
  209W        W73277  21.832  33.326   0.407
  210W        W73278   7.465   9.817   3.394
  211W        W73279   8.373  33.142  11.709
  212W        W73280  26.205  40.092  14.070
  213W        W73281  32.956  32.471  12.455
  214W        W73282  18.952  27.445   2.219
  215W        W73283  22.547  39.562  10.699
  216W        W73284  26.014  31.053  13.852
  217W        W73285  33.912  19.853   0.651
  218W        W73286  13.748  18.651   4.515
  219W        W73287  11.281   5.675   1.254
  220W        W73288   4.184  44.232   4.124
  221W        W73289  31.663  39.434   4.520
  222W        W73290  15.178  42.920  11.131
  223W        W73291   0.376  10.233   3.970
  224W        W73292  27.305  11.217   2.618
  225W        W73293  11.325  20.774  10.622
  226W        W73294  33.481  28.714   4.130
  227W        W73295  26.001  43.937  12.530
  228W        W73296  12.271  30.901   0.028
  229W        W73297   6.431   9.951  11.545
  230W        W73298   9.315  11.910  10.700
  231W        W73299  23.482  25.617  12.861
  232W        W73300  18.666  29.152   4.657
  233W        W73301  17.277  11.276   4.653
  234W        W73302  26.966  16.352  14.443
  235W        W73303  11.416  41.935   0.340
  236W        W73304  15.615   6.201  12.469
  237W        W73305  17.744  31.954  13.798
  238W        W73306  36.114  38.370   0.655
  239W        W73307  17.145   9.876  13.999
  240W        W73308  15.642  32.218  14.722
  241W        W73309  25.683  41.811   0.554
  242W        W73310  33.511  42.406  12.806
  243W        W73311  40.465  29.541  13.010
  244W        W73312  13.876   1.012  14.627
  245W        W73313  37.566  32.485  12.175
  246W        W73314  20.531   1.347   1.054
  247W        W73315  22.971   0.413  12.460
  248W        W73316  31.170  27.998  12.936
  249W        W73317  20.598   2.180   2.295
  250W        W73318  25.282  39.909  10.673
  251W        W73319  26.823  21.131   2.836
  252W        W73320  23.141  26.582   1.973
  253W        W73321  20.268  11.359  14.384
  254W        W73322   1.837  16.248   0.470
  255W        W73323  20.128  39.813   4.563
  256W        W73324   6.216  41.355  13.726
  257W        W73325  27.158   2.830   4.081
  258W        W73326  32.886   9.526   0.351
  259W        W73327   1.576  38.915  14.459
  260W        W73328  44.596  36.624   1.743
  261W        W73329   4.668  18.032   5.032
  262W        W73330  16.189  24.171   2.954
  263W        W73331  11.238  39.333  11.562
  264W        W73332  20.213   1.911  12.379
  265W        W73333  15.153  25.779  12.995
  266W        W73334  25.555  44.414   3.159
  267W        W73335  30.450  23.356   0.394
  268W        W73336  16.874  39.283   2.347
  269W        W73337  32.449  21.200   0.687
  270W        W73338  39.469  26.439  13.338
  271W        W73339  35.822  17.688   0.076
  272W        W73340  30.104  14.776   1.353
  273W        W73341  38.541  20.027   4.076
  274W        W73342  42.545  35.866  14.401
  275W        W73343  15.681  31.788  12.549
  276W        W73344  16.040  42.825  13.502
  277W        W73345  39.030   5.784   2.424
  278W        W73346   0.300  24.999  12.656
  279W        W73347  42.416  31.393   1.737
  280W        W73348  44.404  23.281   3.349
  281W        W73349  23.754   4.468   1.192
  282W        W73350   1.345  19.089   1.392
  283W        W73351  16.241  38.963  14.938
  284W        W73352   1.465   4.496   4.847
  285W        W73353   7.616   9.362   1.898
  286W        W73354   4.260  35.402   3.281
  287W        W73355  42.875  10.728   2.718
  288W        W73356   2.756  31.698   3.233
  289W        W73357  10.268  35.386   2.547
  290W        W73358  37.355  25.056   4.291
  291W        W73359  24.964  21.654  13.318
  292W        W73360  23.654  25.635   4.919
  293W        W73361  42.925  38.679  13.772
  294W        W73362  33.749  41.958  12.938
  295W        W73363   4.582  14.883  10.140
  296W        W73364  29.650  31.218   0.707
  297W        W73365   6.443  44.012   4.269
  298W        W73366   5.907  37.100   0.389
  299W        W73367   9.963  41.544   4.191
  300W        W73368  21.748  14.712   2.408
  301W        W73369  20.849  23.554  11.558
  302W        W73370  12.364  26.966  11.105
  303W        W73371  15.725  11.435  11.156
  304W        W73372  33.334  13.651   1.547
  305W        W73373  25.714   4.864  11.964
  306W        W73374   5.117  37.808   1.186
  307W        W73375   7.744  38.803   2.816
  308W        W73376  24.544  44.414  12.940
  309W        W73377   1.383  21.702   3.606
  310W        W73378  19.004  35.140   3.699
  311W        W73379  22.511  25.986  12.029
  312W        W73380  38.558  40.321  11.998
  313W        W73381  27.640   7.936  13.304
  314W        W73382   0.486  41.013   0.700
  315W        W73383  43.390  17.725  14.806
  316W        W73384   7.170  41.852  11.281
  317W        W73385  18.324  12.245   1.940
  318W        W73386  26.221  10.482   2.344
  319W        W73387  16.040  40.847   0.455
  320W        W73388  26.996  11.129   0.730
  321W        W73389  20.105  15.044  14.965
  322W        W73390  33.893   7.976   3.635
  323W        W73391  37.718  21.530   2.232
  324W        W73392  33.520   5.919  12.478
  325W        W73393   4.673  24.236  12.446
  326W        W73394  22.502  44.946  14.778
  327W        W73395  20.230   9.862  12.094
  328W        W73396   3.946   7.702  11.207
  329W        W73397  12.332  29.230   0.778
  330W        W73398  43.065  25.188  11.997
  331W        W73399  23.703  27.706  13.471
  332W        W73400  26.911  38.441   4.847
  333W        W73401   4.730  14.825   0.155
  334W        W73402  38.292   2.445  13.794
  335W        W73403  36.643  32.390   4.280
  336W        W73404  39.002  35.465   4.776
  337W        W73405  31.975  39.335  12.489
  338W        W73406  12.616   2.036   1.607
  339W        W73407   5.756   6.918   2.198
  340W        W73408  17.872  31.089   0.852
  341W        W73409  34.110  38.967   0.061
  342W        W73410  34.892  14.834   4.653
  343W        W73411  39.521   7.422   2.012
  344W        W73412  35.932   0.485  11.200
  345W        W73413  30.535  24.324  11.451
  346W        W73414   6.928   7.774   1.981
  347W        W73415  12.133  17.300   2.436
  348W        W73416  16.842  41.375   1.506
  349W        W73417   4.502  44.465  13.446
  350W        W73418  18.268  29.012  13.242
  351W        W73419   0.968  15.775   2.031
  352W        W73420  21.125  17.089   0.578
  353W        W73421  13.451   8.155  13.504
  354W        W73422  22.598  35.345  14.433
  355W        W73423  26.604  29.361  10.380
  356W        W73424  39.796  25.660   0.819
  357W        W73425  44.676   8.958   3.623
  358W        W73426  13.301   0.112   1.786
  359W        W73427  28.275  30.090  10.748
  360W        W73428  34.893   6.955   0.838
  361W        W73429  25.575  42.507   1.675
  362W        W73430  12.417  11.110  11.050
  363W        W73431  41.316  29.974  14.496
  364W        W73432  15.002  41.472  11.209
  365W        W73433  14.386  10.083   2.836
  366W        W73434   4.843   5.864  13.037
  367W        W73435  42.297   8.268  10.405
  368W        W73436  18.029  11.673  14.539
  369W        W73437  37.905  40.877  11.569
  370W        W73438  22.508  30.178  13.407
  371W        W73439  44.600  34.391   2.563
  372W        W73440   3.017   8.884   1.189
  373W        W73441  13.714  31.458  13.272
  374W        W73442  43.467  40.384  14.354
  375W        W73443  15.392   8.313  12.524
  376W        W73444  15.449   4.409   0.048
  377W        W73445  43.810   1.693  12.669
  378W        W73446  32.441  27.644   1.720
  379W        W73447  34.064  43.842  13.866
  380W        W73448   3.105  21.572   2.692
  381W        W73449  14.131  10.340   3.238
  382W        W73450  32.196  20.046   2.195
  383W        W73451  29.398  38.076   4.503
  384W        W73452  26.587   6.819  11.579
  385W        W73453  26.656  13.253   3.192
  386W        W73454  26.181  40.328   3.322
  387W        W73455  32.985  42.282  13.891
  388W        W73456  42.272   7.763  13.108
  389W        W73457  44.396   6.765   0.465
  390W        W73458  14.862  12.611  11.588
  391W        W73459  12.485  19.693  11.738
  392W        W73460  42.727  11.640   2.180
  393W        W73461  27.276  21.524   4.526
  394W        W73462  22.006  35.173  12.846
  395W        W73463   2.308  41.581   1.666
  396W        W73464  37.957   1.475   2.291
  397W        W73465  23.262  19.762  12.511
  398W        W73466   7.292   6.486  13.772
  399W        W73467  44.524  16.533  11.586
  400W        W73468   6.981  24.011  11.983
  401W        W73469   0.498  18.241  12.132
  402W        W73470   5.505  19.245   0.302
  403W        W73471  19.710  22.159  14.862
  404W        W73472  33.371  21.255   0.278
  405W        W73473  27.905  11.661   4.174
  406W        W73474  11.309  10.610  14.750
  407W        W73475  15.550  15.269   3.207
  408W        W73476  44.671  39.799   2.617
  409W        W73477  19.338  39.928  14.379
  410W        W73478  37.768  16.213   4.652
  411W        W73479  14.338  42.344   1.841
  412W        W73480  10.989  12.624  11.101
  413W        W73481  20.516   8.565   4.562
  414W        W73482  35.993   4.393   2.241
  415W        W73483  35.817  10.732  13.089
  416W        W73484  38.851  13.148   3.863
  417W        W73485  34.262  43.339   0.687
  418W        W73486  39.409  37.832   3.085
  419W        W73487  12.392  13.635   4.342
  420W        W73488  38.005  20.769   0.489
  421W        W73489  41.258  44.229   0.749
  422W        W73490  30.897  22.822   4.461
  423W        W73491  25.903  35.168   1.918
  424W        W73492  37.631  15.760  14.328
  425W        W73493   9.326  22.080  13.999
  426W        W73494   1.380  20.846  14.553
  427W        W73495  28.977  16.479   4.071
  428W        W73496  10.790   5.223   3.743
  429W        W73497  32.449  35.920   0.969
  430W        W73498   1.177  41.710   1.411
  431W        W73499  30.215  37.509  11.573
  432W        W73500  13.457  24.496   0.727
  433W        W73501  25.831   0.028   4.668
  434W        W73502  11.324   1.356   1.319
  435W        W73503  26.938  28.099   2.886
  436W        W73504  35.638  36.074  11.096
  437W        W73505   2.261   3.887   3.593
  438W        W73506  26.272   9.647  14.976
  439W        W73507   7.630  28.566  13.175
  440W        W73508   9.093  40.308  13.388
  441W        W73509   7.855   7.319   1.757
  442W        W73510  22.750  33.404   2.253
  443W        W73511  34.843  41.499   0.168
  444W        W73512  23.129   2.692  11.952
  445W        W73513   6.159   2.627   0.338
  446W        W73514  40.057  38.601  10.715
  447W        W73515  41.926   5.810   3.410
  448W        W73516  36.848  22.848  11.970
  449W        W73517  31.719   7.137   1.402
  450W        W73518  27.655  22.652  12.268
  451W        W73519  14.786  35.494  11.910
  452W        W73520  29.133  41.516  13.329
  453W        W73521  35.557   2.437  13.569
  454W        W73522  10.851   2.398   2.898
  455W        W73523  22.698  42.747  11.585
  456W        W73524   3.429   7.182   2.434
  457W        W73525  42.289  23.405   2.140
  458W        W73526  25.382   1.797  12.121
  459W        W73527  13.810  36.342  11.622
  460W        W73528  17.016   5.320  13.421
  461W        W73529  13.329   9.283   2.355
  462W        W73530  40.454  31.032  10.802
  463W        W73531  32.495  22.172   4.382
  464W        W73532  16.137   2.395   3.768
  465W        W73533  36.601   9.370   4.589
  466W        W73534  17.117   0.497  11.037
  467W        W73535  34.403   1.357   2.893
  468W        W73536  12.380  34.751   4.410
  469W        W73537  28.993  24.024  14.788
  470W        W73538  13.582  39.107   1.655
  471W        W73539  12.159   0.279   3.937
  472W        W73540  39.001  25.894   0.776
  473W        W73541  30.459  30.684  11.413
  474W        W73542  28.492   4.679  12.537
  475W        W73543  13.877   0.765   4.055
  476W        W73544  42.496  29.193   2.923
  477W        W73545  40.480  27.143   1.374
  478W        W73546  31.802  33.437  14.332
  479W        W73547   8.304  21.023  12.044
  480W        W73548  20.722  31.056  10.847
  481W        W73549   8.794  41.311  10.164
  482W        W73550  39.614  22.902   0.033
  483W        W73551  15.229   6.326  14.782
  484W        W73552  15.274  38.360   2.912
  485W        W73553  21.464  22.578   3.178
  486W        W73554  15.267  11.159  10.758
  487W        W73555  36.591  40.307   0.314
  488W        W73556  18.131  13.558  12.399
  489W        W73557   0.659   5.342  13.362
  490W        W73558   7.159  30.024   1.240
  491W        W73559  36.805  15.702  12.883
  492W        W73560  35.327  15.574  12.093
  493W        W73561  34.158  42.431  14.409
  494W        W73562  20.683  22.407   3.687
  495W        W73563  44.955  27.997  13.148
  496W        W73564  33.386  40.606  10.038
  497W        W73565  19.657  12.142  12.084
  498W        W73566  30.230  37.126   4.631
  499W        W73567  26.173  44.338   4.801
  500W        W73568   6.157  40.648   3.309
  501W        W73569   9.439  22.228  14.920
  502W        W73570  21.211   3.715   1.926
  503W        W73571  18.423  14.718   2.683
  504W        W73572  39.215  24.063  11.178
  505W        W73573  17.811  11.117   4.640
  506W        W73574  31.792  10.654  13.769
  507W        W73575  37.470  16.551  13.379
  508W        W73576  40.934  17.739   2.345
  509W        W73577  21.537   2.924   0.420
  510W        W73578  11.979  42.530  11.690
  511W        W73579  12.754  40.827  12.751
  512W        W73580  39.287  37.901  12.886
  513W        W73581  16.056   6.498  11.837
  514W        W73582  32.036  28.413   0.483
  515W        W73583   3.446   6.278   4.555
  516W        W73584  32.100  26.465   2.717
  517W        W73585  29.943  22.539  14.143
  518W        W73586  39.485  37.380  10.403
  519W        W73587  44.951  19.784   1.262
  520W        W73588  44.748  22.642   0.293
  521W        W73589   9.668  43.912  12.860
  522W        W73590  18.599  37.957  14.321
  523W        W73591  10.822  35.935  11.404
  524W        W73592  42.879  22.021  10.700
  525W        W73593  23.798   6.245   4.733
  526W        W73594   6.437  33.544  11.195
  527W        W73595   2.407  42.451  10.628
  528W        W73596   7.641  41.796  14.124
  529W        W73597  12.745  42.303  14.233
  530W        W73598  19.974  31.415   3.675
  531W        W73599  26.483  20.424   1.780
  532W        W73600  25.589  32.890  11.227
  533W        W73601  40.041  14.748  12.335
  534W        W73602  11.897   1.818   2.395
  535W        W73603  23.760   4.223  11.436
  536W        W73604   8.397  41.359   4.900
  537W        W73605   0.490  39.425  14.796
  538W        W73606   3.749  38.590  14.279
  539W        W73607  24.157  18.265  10.524
  540W        W73608   5.823  16.183  13.772
  541W        W73609  32.960  10.855  12.056
  542W        W73610   5.893  26.286  13.707
  543W        W73611  40.304   6.156  11.502
  544W        W73612  22.786  15.260  12.386
  545W        W73613   0.960  29.949  13.017
  546W        W73614  43.374  34.847   4.852
  547W        W73615  21.304  27.750  13.603
  548W        W73616  39.244   5.970   1.616
  549W        W73617  33.126  26.306  10.742
  550W        W73618  43.175  40.830   0.258
  551W        W73619  26.476  38.379   3.526
  552W        W73620   6.835  14.198   4.450
  553W        W73621  27.055  18.249  14.562
  554W        W73622  39.860  30.387  12.139
  555W        W73623  19.719  18.163   1.807
  556W        W73624  30.053  38.627  11.430
  557W        W73625  16.132   8.766   0.202
  558W        W73626  33.259   1.944   3.476
  559W        W73627   4.022  38.517  14.810
  560W        W73628  32.923  22.845   1.262
  561W        W73629  38.249   4.768   3.545
  562W        W73630  27.369  10.389  10.522
  563W        W73631  35.413  44.443   9.693
  564W        W73632  16.218   4.821   3.552
  565W        W73633  40.480  38.443   2.874
  566W        W73634  15.869  22.091  13.948
  567W        W73635   1.222  10.585  10.685
  568W        W73636  42.714  13.120  14.985
  569W        W73637  43.375  10.336   4.088
  570W        W73638   8.903  10.767   3.692
  571W        W73639  18.732  38.555   1.924
  572W        W73640   4.346   6.986  10.637
  573W        W73641  38.770  24.560  14.356
  574W        W73642  28.646  24.266   3.624
  575W        W73643  22.091  27.647   1.050
  576W        W73644  11.326   6.727   2.166
  577W        W73645  27.056  23.646  10.538
  578W        W73646  39.844  21.557   4.426
  579W        W73647  40.985  38.792  11.556
  580W        W73648  19.543  40.505   1.821
  581W        W73649  36.931  11.628   2.951
  582W        W73650   2.043  13.161  11.512
  583W        W73651  40.911   6.622  12.105
  584W        W73652   7.941   5.641  13.137
  585W        W73653  12.003  18.720   5.144
  586W        W73654   8.448   5.862   2.513
  587W        W73655  38.024  40.497   1.862
  588W        W73656  19.749  15.584   3.318
  589W        W73657  22.025  10.216  14.039
  590W        W73658  13.897  14.914  10.772
  591W        W73659  43.836  24.679   4.240
  592W        W73660  14.106  21.079  14.426
  593W        W73661   7.546  26.538  12.531
  594W        W73662  30.360  33.435   3.371
  595W        W73663  42.602  23.814  13.130
  596W        W73664  23.674  36.928  10.746
  597W        W73665  16.419  25.118   4.069
  598W        W73666  19.295  38.479   3.674
  599W        W73667  23.551  13.219  14.844
  600W        W73668   9.234  38.523  11.134
  601W        W73669   0.970  34.062   3.609
  602W        W73670   1.029  12.361  11.189
  603W        W73671  10.617   3.687  14.044
  604W        W73672   7.228  27.109   3.885
  605W        W73673  44.788   2.134  14.919
  606W        W73674  30.123  32.511   4.863
  607W        W73675  12.803  11.855   4.524
  608W        W73676  21.738  27.182  11.117
  609W        W73677  18.813   9.659  12.114
  610W        W73678  28.695  40.765  13.440
  611W        W73679  35.107  38.594  11.658
  612W        W73680   5.485  41.733   2.293
  613W        W73681   6.362  12.654  11.442
  614W        W73682   6.439  13.745  12.140
  615W        W73683  38.990  13.172  12.645
  616W        W73684  22.226  34.711   4.436
  617W        W73685   7.913  13.874   4.285
  618W        W73686   8.181  34.030  10.612
  619W        W73687  37.572  31.025   2.204
  620W        W73688  32.384   3.622  14.494
  621W        W73689  42.838   9.927   1.836
  622W        W73690  27.512   3.194   0.798
  623W        W73691  39.892  26.932  12.953
  624W        W73692  44.389  26.085  14.572
  625W        W73693  28.770  30.521   2.407
  626W        W73694  22.968  29.041   3.147
  627W        W73695  19.108  38.024   3.823
  628W        W73696  32.911   3.804   3.107
  629W        W73697   0.543  40.612  10.797
  630W        W73698  37.525   0.486  12.790
  631W        W73699  41.707   4.711   1.404
  632W        W73700  40.841  15.897   9.734
  633W        W73701  21.296  40.399  13.497
  634W        W73702   1.264  42.192  12.350
  635W        W73703  38.136   5.500   3.053
  636W        W73704  39.563  23.566  10.764
  637W        W73705  34.285  12.889  13.886
  638W        W73706  13.577  10.213  13.617
  639W        W73707  27.284   5.206   0.969
  640W        W73708  15.103  15.173   3.448
  641W        W73709  33.932   9.702  11.141
  642W        W73710  11.520   1.468  10.723
  643W        W73711   8.292   5.026  12.945
  644W        W73712   6.658  20.115  10.551
  645W        W73713   5.316   3.242   4.693
  646W        W73714  30.644  29.728  10.545
  647W        W73715  36.530  15.848  14.785
  648W        W73716  34.120  34.835   4.332
  649W        W73717  23.789  24.354  11.749
  650W        W73718  35.647   6.374  13.502
  651W        W73719  12.133  15.362  13.129
  652W        W73720   2.985  39.373   1.175
  653W        W73721  43.553  32.124   2.731
  654W        W73722  22.708  38.806   3.040
  655W        W73723  30.909  25.554  14.745
  656W        W73724  24.619  41.607  14.465
  657W        W73725  31.474  13.772  12.615
  658W        W73726  29.648  36.588   3.384
  659W        W73727  34.036  22.715   3.829
  660W        W73728   1.174  33.090  12.934
  661W        W73729  42.998  33.027   3.693
  662W        W73730  28.616  42.853   4.299
  663W        W73731  23.643  22.165   3.643
  664W        W73732  12.818   6.165  12.608
  665W        W73733  20.965  41.407  11.904
  666W        W73734  27.656  13.256   3.379
  667W        W73735  35.904   0.846  14.823
  668W        W73736  18.066  23.417   0.994
  669W        W73737  40.569  21.635   1.841
  670W        W73738  26.746  20.980   0.965
  671W        W73739  14.621  16.135   0.717
  672W        W73740   9.716  13.374   4.494
  673W        W73741   0.549  38.949  12.457
  674W        W73742  42.836   8.628  12.579
  675W        W73743   6.946   4.136   0.097
  676W        W73744  41.463  24.057   3.951
  677W        W73745  44.364  22.526  14.472
  678W        W73746  44.784  13.405  10.708
  679W        W73747  11.081   9.613  14.829
  680W        W73748  10.863   0.537  12.118
  681W        W73749  28.457  43.520   2.251
  682W        W73750   8.641  14.091   3.330
  683W        W73751  31.358   9.231  14.508
  684W        W73752  17.623  12.684   3.857
  685W        W73753  21.172  26.316  13.570
  686W        W73754  17.097   1.123  13.564
  687W        W73755   2.455  26.636  11.125
  688W        W73756  40.978  17.691   2.856
  689W        W73757  33.435   0.779   2.013
  690W        W73758  40.548  20.612  11.434
  691W        W73759  23.784  25.572  10.553
  692W        W73760  36.487   0.886   4.395
  693W        W73761   7.431  15.677   3.903
  694W        W73762  22.605  22.450   4.511
  695W        W73763   4.874  27.947  10.481
  696W        W73764   5.282  31.207  12.176
  697W        W73765  42.041  18.615   0.249
  698W        W73766  44.085  12.823  14.959
  699W        W73767  29.045   0.920   0.852
  700W        W73768  31.913  19.512  13.401
  701W        W73769   9.983  32.593   2.810
  702W        W73770  10.337  12.317   3.265
  703W        W73771  25.207   9.674   2.189
  704W        W73772  26.538  27.783   2.339
  705W        W73773  34.937  20.232  12.666
  706W        W73774   5.664  38.000   2.208
  707W        W73775  23.222  32.415  10.747
  708W        W73776  10.491   8.193  14.765
  709W        W73777  31.918  11.775  14.971
  710W        W73778  41.961  44.278  11.997
  711W        W73779  20.155  44.221   2.183
  712W        W73780   5.352   9.740  12.279
  713W        W73781  38.002   8.993  14.029
  714W        W73782   4.279  24.413   1.300
  715W        W73783  35.241  22.170   0.780
  716W        W73784   8.910   2.699  11.053
  717W        W73785  20.126  33.865   4.909
  718W        W73786  11.780  23.979   4.778
  719W        W73787  20.031  34.400   3.596
  720W        W73788   3.666  34.414   1.897
  721W        W73789  31.323  24.655  13.894
  722W        W73790  42.347  16.078   3.639
  723W        W73791   0.213   6.941  11.620
  724W        W73792  19.600   0.562  14.045
  725W        W73793   0.336  41.888  11.405
  726W        W73794  12.070   3.867  14.993
  727W        W73795  13.953  20.873   5.029
  728W        W73796  31.931  11.240  10.797
  729W        W73797  38.809   8.247  11.091
  730W        W73798  12.428  36.565   4.114
  731W        W73799  15.917  10.429  10.293
  732W        W73800  17.656  37.565   2.186
  733W        W73801  19.665  34.323  11.138
  734W        W73802  44.540  10.658   3.380
  735W        W73803   2.297  41.723   3.187
  736W        W73804   3.792  15.867  14.023
  737W        W73805  10.767  14.363   0.325
  738W        W73806   0.219  23.920  12.094
  739W        W73807   9.716  36.457   3.496
  740W        W73808  19.737  20.747   4.583
  741W        W73809  39.749  37.144  11.158
  742W        W73810   0.348  23.206   2.307
  743W        W73811  27.684   1.394   0.850
  744W        W73812  25.072  24.105  11.254
  745W        W73813  22.201  24.231   1.906
  746W        W73814  43.212   3.543   0.016
  747W        W73815  15.330  24.796  12.409
  748W        W73816   2.686  18.305  11.859
  749W        W73817  35.302  16.669   0.341
  750W        W73818  17.627   3.182   1.084
  751W        W73819   1.907  19.103  10.740
  752W        W73820  33.550  25.969  14.383
  753W        W73821  18.049   4.149  13.022
  754W        W73822  26.530   0.515  10.779
  755W        W73823  13.703  43.467   1.713
  756W        W73824   8.456  10.486   0.271
  757W        W73825  41.290   8.639  10.652
  758W        W73826  43.428  29.891  14.803
  759W        W73827  11.720   0.478  10.598
  760W        W73828   3.418  38.714   0.479
  761W        W73829   9.659  29.778  14.357
  762W        W73830  15.483  11.664   3.814
  763W        W73831  23.425  10.767   4.607
  764W        W73832  20.367  20.062   3.575
  765W        W73833  30.548   4.343   3.242
  766W        W73834  35.167  11.847   0.080
  767W        W73835   3.153  26.608   1.408
  768W        W73836  32.971   9.105  11.245
  769W        W73837  32.631  18.280   3.595
  770W        W73838  27.706  44.208   3.746
  771W        W73839  16.569  15.723  14.881
  772W        W73840  40.492  43.152  11.638
  773W        W73841  18.237  41.694  13.359
  774W        W73842  10.767  12.731  11.582
  775W        W73843  28.576  31.366   3.645
  776W        W73844  26.301  18.230   4.382
  777W        W73845  18.472  17.393   4.075
  778W        W73846  33.717  37.117  14.710
  779W        W73847  41.393   0.874   4.830
  780W        W73848  36.445  18.545  10.974
  781W        W73849  31.806   0.921  12.195
  782W        W73850  37.442  36.151  14.494
  783W        W73851  35.959  10.572   1.242
  784W        W73852  13.868  25.882   0.883
  785W        W73853  26.985  30.092   1.015
  786W        W73854   3.448  42.866  13.004
  787W        W73855  14.716  21.423   3.876
  788W        W73856  31.205  16.067  12.944
  789W        W73857   1.521  20.770  13.335
  790W        W73858  22.250  31.598   3.279
  791W        W73859  38.860   4.903   2.742
  792W        W73860  36.891   5.989  14.454
  793W        W73861  43.488  44.522   0.846
  794W        W73862  28.934  19.236   3.139
  795W        W73863  32.010  19.220  14.656
  796W        W73864  13.172  11.088   4.521
  797W        W73865  39.123  33.128  12.494
  798W        W73866  14.306   5.956  12.387
  799W        W73867   1.485  16.871   3.938
  800W        W73868  34.714  42.909   4.144
  801W        W73869  31.658  36.745  12.349
  802W        W73870  24.582  16.091  10.469
  803W        W73871  20.317  24.633  14.593
  804W        W73872  26.482  25.484   3.471
  805W        W73873   4.775  20.663   3.302
  806W        W73874  14.080  15.707  11.937
  807W        W73875   3.780  20.480   3.665
  808W        W73876  44.938  25.513   3.380
  809W        W73877  29.508  34.903   0.244
  810W        W73878  22.965  40.481  10.663
  811W        W73879   2.773  25.120  14.943
  812W        W73880  37.968   1.168   1.487
  813W        W73881  20.316  26.742   1.864
  814W        W73882  33.915  35.673  13.906
  815W        W73883   7.600  30.615  11.065
  816W        W73884  29.417  44.959   2.743
  817W        W73885   0.809   0.332  12.159
  818W        W73886  30.684   2.426  13.404
  819W        W73887  30.640  33.280  12.582
  820W        W73888  41.462  43.197  14.821
  821W        W73889  24.981   3.011  15.000
  822W        W73890  39.593  40.327  14.872
  823W        W73891  44.714  36.870  11.235
  824W        W73892   6.145  40.099  11.921
  825W        W73893  20.807  37.353  13.069
  826W        W73894   6.236  10.560  13.580
  827W        W73895  13.627  25.141   4.140
  828W        W73896  44.450   6.689   2.331
  829W        W73897  38.283  34.444  11.109
  830W        W73898  26.933  24.310  11.186
  831W        W73899  28.906  19.124  13.499
  832W        W73900  19.578  41.066   4.288
  833W        W73901  29.698  26.224  14.957
  834W        W73902   0.452  14.284  13.431
  835W        W73903  18.734  21.765   3.112
  836W        W73904   4.441  35.878   3.242
  837W        W73905  12.282  22.620  13.606
  838W        W73906  39.025  12.365  14.021
  839W        W73907  13.359  11.843   0.864
  840W        W73908  19.020  42.240  11.874
  841W        W73909  33.715  18.062  10.662
  842W        W73910  18.549  13.289  11.135
  843W        W73911   9.311  43.979  13.660
  844W        W73912  32.009  31.437   1.026
  845W        W73913  21.481  40.612   0.884
  846W        W73914  35.947  42.110   2.200
  847W        W73915  20.314   0.786  12.941
  848W        W73916  29.106   8.909   2.643
  849W        W73917  34.394  31.432  12.490
  850W        W73918  27.533  40.783  10.941
  851W        W73919  24.072  17.244  10.869
  852W        W73920  33.182  18.615  11.108
  853W        W73921   9.115  32.937  12.030
  854W        W73922   4.371   7.732   4.002
  855W        W73923   6.735  21.924  10.536
  856W        W73924  14.404  16.358  13.354
  857W        W73925   9.114  40.756  10.302
  858W        W73926  13.164  43.895   1.401
  859W        W73927   8.416  34.093   1.977
  860W        W73928  36.021  24.976  14.789
  861W        W73929  10.082  29.457  11.586
  862W        W73930   9.773  20.152  12.655
  863W        W73931  22.268  14.781  11.994
  864W        W73932  26.027  36.992   2.231
  865W        W73933  41.224  40.006   4.592
  866W        W73934   9.910  31.395   4.331
  867W        W73935  15.757   8.068   2.151
  868W        W73936  23.237  23.112  12.037
  869W        W73937  20.489   8.702  13.178
  870W        W73938   6.223  41.681   2.651
  871W        W73939   4.313  39.029  11.925
  872W        W73940  24.125  23.666   2.367
  873W        W73941   6.747  41.330  14.832
  874W        W73942   7.758  24.924  12.467
  875W        W73943  38.554  27.359  14.537
  876W        W73944  33.107  36.070   4.733
  877W        W73945  40.905  20.478   0.466
  878W        W73946  26.869   1.697   3.348
  879W        W73947  34.985  14.692  14.690
  880W        W73948   4.027  15.184   0.822
  881W        W73949   7.778  33.177   4.098
  882W        W73950  36.541   4.351  11.656
  883W        W73951  15.299   1.605   4.580
  884W        W73952  12.715  25.597   3.793
  885W        W73953  26.086   0.408   3.730
  886W        W73954  35.821  12.431  14.326
  887W        W73955  15.378  34.557  12.043
  888W        W73956   4.821  34.411  11.647
  889W        W73957  26.696  41.190   0.296
  890W        W73958   4.312  42.141  12.149
  891W        W73959   3.122  10.276  12.522
  892W        W73960  29.000   6.444  10.567
  893W        W73961  44.788  30.444   0.336
  894W        W73962  44.362   3.501  11.534
  895W        W73963  10.617  27.984   2.846
  896W        W73964  18.248  20.109   0.590
  897W        W73965   5.420   4.437  14.910
  898W        W73966  41.567   2.441  10.814
  899W        W73967  17.599  15.702  11.561
  900W        W73968   1.962  19.710   0.265
  901W        W73969  25.023  38.572   2.799
  902W        W73970  10.334   5.385  12.153
  903W        W73971  39.506  39.514   1.935
  904W        W73972  19.086  28.957   4.407
  905W        W73973  31.455  22.231   4.175
  906W        W73974  36.839   6.315   1.720
  907W        W73975   5.198   2.919  12.168
  908W        W73976  15.327   8.936  11.811
  909W        W73977  40.540  31.402   4.143
  910W        W73978  17.250  10.461   2.772
  911W        W73979   2.750  16.542  12.512
  912W        W73980  21.724  42.946   4.342
  913W        W73981  27.343  10.476  13.849
  914W        W73982   0.920   5.164  14.931
  915W        W73983   4.112  13.251  11.702
  916W        W73984   1.913  22.958  14.893
  917W        W73985   8.260   9.175   3.139
  918W        W73986  28.880  27.191  12.457
  919W        W73987   9.924  32.958   0.373
  920W        W73988  20.740  44.072  12.902
  921W        W73989  41.422  28.604   0.224
  922W        W73990  28.862   0.549  13.115
  923W        W73991   8.718  20.371  14.136
  924W        W73992  26.936  27.580  14.726
  925W        W73993  18.940  13.031  10.906
  926W        W73994  43.470  17.430  12.434
  927W        W73995  34.241  36.633  11.925
  928W        W73996  41.415  22.100   1.768
  929W        W73997  29.249  24.441   2.429
  930W        W73998  38.273   4.322  14.859
  931W        W73999  18.334  17.722  10.747
  932W        W74000   0.654  25.272  12.365
  933W        W74001  24.637  38.846  11.149
  934W        W74002  37.313  41.850  10.583
  935W        W74003   0.953  18.742   2.793
  936W        W74004  14.700  17.520  11.555
  937W        W74005   1.886  21.034   1.374
  938W        W74006  10.347  30.834   2.735
  939W        W74007   3.240  25.264   5.230
  940W        W74008  37.002  11.662  13.895
  941W        W74009  29.084  39.508  14.778
  942W        W74010  30.415  39.989  10.998
  943W        W74011  38.338  37.935  11.665
  944W        W74012  36.065  27.260  12.468
  945W        W74013  34.352  18.252  12.902
  946W        W74014   0.950  27.231  10.764
  947W        W74015  25.314   6.131  11.943
  948W        W74016  18.601   0.427   2.375
  949W        W74017  26.178  33.563  10.772
  950W        W74018  37.956  21.641   1.415
  951W        W74019   6.276  18.148  11.415
  952W        W74020  41.344  44.684  10.563
  953W        W74021   6.177  10.236   0.473
  954W        W74022  20.675  28.941  12.338
  955W        W74023  44.681  36.410   2.765
  956W        W74024  28.650  11.104   1.259
  957W        W74025   7.859  31.487   4.444
  958W        W74026   3.868  43.343   3.979
  959W        W74027  35.115  24.777  14.026
  960W        W74028  11.189  25.903   3.159
  961W        W74029  43.015  21.009   0.007
  962W        W74030  16.615  32.909  13.601
  963W        W74031  42.235   3.627  11.677
  964W        W74032   3.498   7.294  12.614
  965W        W74033  42.098  16.078   4.882
  966W        W74034  10.076   2.466   0.250
  967W        W74035  28.137   4.429   2.741
  968W        W74036  42.529  13.249   2.841
  969W        W74037  39.280  10.874  14.003
  970W        W74038  18.818  23.307   1.093
  971W        W74039  23.116  40.475   3.033
  972W        W74040  29.131  38.867  10.140
  973W        W74041  20.362  32.365  11.710
  974W        W74042  18.008  26.968   3.563
  975W        W74043  44.052  16.721  13.918
  976W        W74044  43.161  42.019  14.026
  977W        W74045  30.538  31.122  11.722
  978W        W74046   7.861  31.947   1.044
  979W        W74047  30.060  25.757  14.297
  980W        W74048  10.814  15.261  13.355
  981W        W74049  36.985  33.167  13.451
  982W        W74050   6.220  25.938  11.711
  983W        W74051   4.502   9.915  13.833
  984W        W74052  27.574  20.675   2.450
  985W        W74053  43.426   3.854  11.052
  986W        W74054   7.135  31.898   4.559
  987W        W74055  10.400  33.872  12.530
  988W        W74056  10.674   8.227   4.824
  989W        W74057  30.334  11.624   4.182
  990W        W74058   8.475   9.560  13.010
  991W        W74059  22.722  19.136   1.718
  992W        W74060  12.988  27.152   1.324
  993W        W74061  37.817  28.149   1.246
  994W        W74062  34.385  31.216   2.761
  995W        W74063   6.237  18.628   0.328
  996W        W74064   1.293   2.469  13.458
  997W        W74065  31.928  17.711   0.754
  998W        W74066  38.841  18.866   4.971
  999W        W74067  23.255  11.376   0.902
 1000W        W74068  30.105  18.107   2.875
 1001W        W74069  13.772  13.846   2.350
 1002W        W74070  26.514  18.325  13.019
 1003W        W74071  38.375  32.832  13.451
 1004W        W74072  32.628  24.588   0.785
 1005W        W74073  29.361  30.533   3.261
 1006W        W74074  43.036  22.990  13.971
 1007W        W74075   7.516  26.484   0.295
 1008W        W74076  36.113  40.217  12.069
 1009W        W74077  28.563  17.517  13.879
 1010W        W74078  36.203  42.499  13.841
 1011W        W74079   1.930  22.503   4.630
 1012W        W74080   2.351   7.911   1.870
 1013W        W74081  40.819  35.038  11.679
 1014W        W74082  34.529  12.074  14.478
 1015W        W74083  35.544  32.301   1.238
 1016W        W74084  33.971   4.978   2.320
 1017W        W74085  34.733  25.465   1.789
 1018W        W74086  36.692  31.955  10.609
 1019W        W74087  41.512  24.003   2.481
 1020W        W74088  24.257  21.312   4.852
 1021W        W74089  36.088   6.720   4.504
 1022W        W74090  31.539  12.696  13.275
 1023W        W74091   1.647  31.397  11.177
 1024W        W74092   6.152  14.055  11.161
 1025W        W74093   6.197  31.027   4.339
 1026W        W74094  33.990   2.079   3.622
 1027W        W74095  43.762  33.478   2.692
 1028W        W74096   3.436  39.900  13.914
 1029W        W74097  23.533  14.157  14.802
 1030W        W74098  38.283  32.042  14.768
 1031W        W74099   4.321  20.346   3.327
 1032W        W74100   5.762   8.943  10.443
 1033W        W74101   3.113   5.653  14.465
 1034W        W74102  41.491   1.875   0.921
 1035W        W74103  16.629  40.038   1.913
 1036W        W74104   0.046   7.348   1.825
 1037W        W74105  14.630  23.180   0.214
 1038W        W74106  38.627  29.867  10.554
 1039W        W74107  43.704  33.558   3.782
 1040W        W74108  11.280  17.806   1.755
 1041W        W74109  18.752   3.206  11.566
 1042W        W74110  37.338  30.947   2.991
 1043W        W74111  19.060  13.590   1.436
 1044W        W74112   7.212  25.076   1.436
 1045W        W74113   7.266  28.258   0.902
 1046W        W74114  16.584  40.463  10.789
 1047W        W74115   4.278  11.962  11.474
 1048W        W74116  38.941   0.892  10.528
 1049W        W74117  29.596  34.508  10.344
 1050W        W74118  12.269  34.551  13.607
 1051W        W74119   9.964  22.199  14.840
 1052W        W74120  41.864  17.718   2.249
 1053W        W74121   6.792  35.604  13.400
 1054W        W74122   0.957   1.310  13.981
 1055W        W74123  44.638   4.675  13.995
 1056W        W74124  12.599  19.039   0.898
 1057W        W74125  20.552  19.059  11.112
 1058W        W74126  35.174  31.408  12.163
 1059W        W74127  30.385  40.739  13.937
 1060W        W74128  17.564  10.193  14.571
 1061W        W74129  16.278   9.358  14.506
 1062W        W74130  17.277  11.122  10.777
 1063W        W74131  16.235  44.473  11.929
 1064W        W74132   5.994   8.628   4.783
 1065W        W74133  31.645   3.942  11.978
 1066W        W74134   8.893  44.842  12.421
 1067W        W74135  11.093  34.614   3.172
 1068W        W74136  34.332  23.181   0.938
 1069W        W74137  30.883   9.666  14.475
 1070W        W74138   0.858  44.875   4.361
 1071W        W74139  28.635  22.507   3.687
 1072W        W74140  15.208  31.941  14.792
 1073W        W74141   1.812  37.370  12.521
 1074W        W74142  10.116  38.963   5.114
 1075W        W74143  21.220  23.719  10.247
 1076W        W74144   1.702  12.897  11.906
 1077W        W74145  35.972   8.017  14.821
 1078W        W74146  38.939  22.743   2.122
 1079W        W74147  28.640   5.753  13.888
 1080W        W74148   2.021  20.650   0.767
 1081W        W74149  15.148  29.420  10.872
 1082W        W74150  33.946  38.746  14.056
 1083W        W74151  20.707  10.156  10.820
 1084W        W74152  26.068  26.519   4.091
 1085W        W74153  35.460  22.120  13.523
 1086W        W74154   8.342   7.168   1.524
 1087W        W74155   0.305  43.264   1.901
 1088W        W74156  40.399  10.340   1.534
 1089W        W74157   1.212  25.559   4.195
 1090W        W74158   1.987   1.759   1.838
 1091W        W74159  43.992   4.924   2.697
 1092W        W74160  41.275  21.253  11.586
 1093W        W74161  17.710  12.664  14.947
 1094W        W74162   9.419   2.000   1.574
 1095W        W74163  34.264  24.217  13.954
 1096W        W74164  42.095  26.386   2.745
 1097W        W74165   9.697  30.215  11.839
 1098W        W74166  36.461  11.696   2.128
 1099W        W74167  36.660  41.481  13.934
 1100W        W74168  30.486  19.842   0.310
 1101W        W74169   8.222  20.219   2.326
 1102W        W74170  28.166  37.122  12.424
 1103W        W74171  39.752  14.214   2.223
 1104W        W74172  43.246  13.579  14.464
 1105W        W74173  29.872  15.153  13.075
 1106W        W74174  31.654  17.213  14.491
 1107W        W74175  33.551  30.938  13.532
 1108W        W74176  37.802  34.107  13.348
 1109W        W74177   2.345  14.576  11.982
 1110W        W74178  21.402  16.081   1.621
 1111W        W74179   9.869   9.793   4.660
 1112W        W74180  18.236  29.668   4.167
 1113W        W74181  14.119  17.198  13.953
 1114W        W74182  39.850  21.759   3.575
 1115W        W74183  14.193  31.471  13.861
 1116W        W74184   2.286  24.958   3.749
 1117W        W74185  10.319  10.026  10.233
 1118W        W74186  18.037  31.663   3.381
 1119W        W74187  35.013  32.426   3.167
 1120W        W74188  33.397  11.820   1.913
 1121W        W74189   5.463  25.094   0.792
 1122W        W74190   3.940  36.187  14.697
 1123W        W74191  32.576  27.188   1.496
 1124W        W74192   5.351   3.314  10.837
 1125W        W74193  37.466   6.168   0.811
 1126W        W74194  20.818  33.391   0.397
 1127W        W74195  15.366  28.911   1.234
 1128W        W74196  24.057   9.876   0.925
 1129W        W74197  39.830  10.779   2.233
 1130W        W74198  12.185  42.300   3.695
 1131W        W74199  31.161  31.945   4.643
 1132W        W74200   2.625   9.291  13.093
 1133W        W74201  26.439  40.313  11.405
 1134W        W74202  42.761  41.709  13.815
 1135W        W74203   1.944  12.133   0.759
 1136W        W74204  24.704  19.693  12.494
 1137W        W74205  42.458   6.730  12.083
 1138W        W74206   8.218  20.047  14.006
 1139W        W74207  22.216  19.785   1.155
 1140W        W74208  26.712   6.345   0.430
 1141W        W74209  14.511  27.689   2.435
 1142W        W74210  36.335  14.192   4.594
 1143W        W74211   3.366  25.790   0.749
 1144W        W74212  31.556   1.708  13.643
 1145W        W74213   8.205  33.364   4.313
 1146W        W74214  11.132  17.711  14.447
 1147W        W74215  43.035  27.590  10.774
 1148W        W74216  27.690  16.965   2.385
 1149W        W74217  30.836  32.394   3.239
 1150W        W74218  10.129  13.905  10.402
 1151W        W74219   7.256  39.421   1.190
 1152W        W74220  30.312  20.977  12.926
 1153W        W74221  10.139   9.778   0.964
 1154W        W74222  35.004  15.783  11.559
 1155W        W74223   3.789   8.830   1.762
 1156W        W74224  44.748  37.366  14.415
 1157W        W74225  36.735  40.910   1.874
 1158W        W74226  18.645  22.996  11.699
 1159W        W74227   5.490  23.589  10.770
 1160W        W74228  32.550  39.487   3.051
 1161W        W74229  41.873  37.922  13.208
 1162W        W74230  21.704   8.029  12.931
 1163W        W74231  27.620  35.337  13.031
 1164W        W74232   6.613  11.614  14.891
 1165W        W74233  43.450  15.206  14.229
 1166W        W74234  25.420  31.954   2.712
 1167W        W74235  40.485  42.827   4.539
 1168W        W74236  15.562   7.383   1.985
 1169W        W74237  40.072  33.130  11.501
 1170W        W74238  26.954  14.569  12.017
 1171W        W74239  39.017   0.737   2.630
 1172W        W74240   5.841  32.315   4.137
 1173W        W74241  12.264  32.116  14.403
 1174W        W74242  18.457  34.962  11.474
 1175W        W74243   3.144   1.785   2.133
 1176W        W74244  12.194  29.930   4.429
 1177W        W74245  24.238   1.044   9.953
 1178W        W74246  22.021   3.813  11.723
 1179W        W74247   7.551  36.013  10.747
 1180W        W74248  37.525  32.196  11.009
 1181W        W74249   8.439  12.314  12.240
 1182W        W74250  14.784  36.168  10.566
 1183W        W74251  44.480  33.404   0.760
 1184W        W74252  41.750  12.240  14.758
 1185W        W74253   8.578  31.082   3.997
 1186W        W74254  20.577  20.672  14.804
 1187W        W74255   7.854  15.298  14.399
 1188W        W74256  44.972  35.831  13.160
 1189W        W74257  17.597  29.399  12.161
 1190W        W74258  22.473  30.551   3.176
 1191W        W74259  19.317   8.755  14.473
 1192W        W74260  34.080  24.149   3.309
 1193W        W74261  37.838   0.899  14.526
 1194W        W74262  39.075  20.510   1.299
 1195W        W74263   4.956  39.472  13.457
 1196W        W74264  26.054  23.672   1.011
 1197W        W74265  29.130   2.756   4.250
 1198W        W74266  41.847  22.816  12.887
 1199W        W74267   1.874   5.741   0.448
 1200W        W74268  44.925  42.604   1.767
 1201W        W74269  10.941  44.571  13.753
 1202W        W74270  17.349   9.265  13.908
 1203W        W74271  41.793  12.067  13.430
 1204W        W74272  41.368  23.354   4.761
 1205W        W74273  11.826  22.848   3.640
 1206W        W74274  30.391  11.852   0.787
 1207W        W74275  42.290  39.324  11.620
 1208W        W74276  35.459  28.239  11.991
 1209W        W74277   5.983  44.019   4.060
 1210W        W74278  33.391  36.193   2.419
 1211W        W74279  38.697  19.193   2.727
 1212W        W74280  36.418  19.625  13.926
 1213W        W74281   9.732  42.091  14.023
 1214W        W74282  36.082  32.990  12.640
 1215W        W74283  33.961  32.480   0.446
 1216W        W74284  39.429  22.777  13.898
 1217W        W74285  29.969   5.439  14.031
 1218W        W74286  29.771   4.322  12.702
 1219W        W74287  11.201  11.243   4.649
 1220W        W74288   0.259  40.548  11.680
 1221W        W74289   9.402  29.658  13.494
 1222W        W74290   9.711  40.324   1.105
 1223W        W74291  27.714   8.623   3.318
 1224W        W74292  31.606   3.445   3.341
 1225W        W74293  15.275  39.244  12.759
 1226W        W74294   9.081  30.988   0.105
 1227W        W74295  26.749   0.539  12.518
 1228W        W74296  15.125  18.175   3.275
 1229W        W74297  25.223  24.495   1.448
 1230W        W74298  25.969   7.715   1.327
 1231W        W74299   9.530  32.373  12.018
 1232W        W74300  31.229  38.433   3.415
 1233W        W74301  14.293  15.287  10.638
 1234W        W74302  34.044  20.996  11.693
 1235W        W74303  44.293  23.235  12.632
 1236W        W74304   8.433  17.310   0.632
 1237W        W74305  11.891  28.073  14.884
 1238W        W74306  27.675  29.676   3.184
 1239W        W74307   0.342  30.331   4.606
 1240W        W74308  40.621  23.815  12.047
 1241W        W74309  16.341  38.673  14.430
 1242W        W74310  38.137  16.401   2.731
 1243W        W74311  19.772  16.971  14.894
 1244W        W74312  30.753  21.976   3.503
 1245W        W74313  20.544  31.266   3.660
 1246W        W74314  33.131  12.256  12.424
 1247W        W74315  31.611  15.364   1.367
 1248W        W74316   9.403  27.317  12.110
 1249W        W74317  31.995  13.987   1.244
 1250W        W74318   4.784  10.593   0.414
 1251W        W74319  41.503  37.947  14.829
 1252W        W74320  42.329   0.719  11.795
 1253W        W74321  40.702  29.620  14.888
 1254W        W74322   9.197  36.019   5.017
 1255W        W74323  43.469  20.673   1.173
 1256W        W74324  24.640  43.237  11.235
 1257W        W74325  23.247  40.997  11.479
 1258W        W74326  42.089  32.998  10.808
 1259W        W74327  36.024  34.278   3.836
 1260W        W74328  29.375  22.118   4.678
 1261W        W74329  43.736  23.583   2.113
 1262W        W74330  31.463  41.257   3.427
 1263W        W74331  12.039   6.736   1.258
 1264W        W74332   6.955  34.249  11.585
 1265W        W74333  44.811  37.044  10.739
 1266W        W74334   7.649  30.989   4.393
 1267W        W74335   0.976  12.581  14.928
 1268W        W74336  19.337   1.218   0.149
 1269W        W74337  10.689  43.528  10.955
 1270W        W74338  31.055  38.485   4.334
 1271W        W74339  20.137   0.507  11.184
 1272W        W74340  24.125  32.759  13.420
 1273W        W74341  23.023  41.809   2.392
 1274W        W74342   3.233  18.899   0.462
 1275W        W74343   8.862  43.930   1.796
 1276W        W74344  29.044  38.608   0.762
 1277W        W74345  11.720  37.884   1.649
 1278W        W74346   2.984  17.660  11.483
 1279W        W74347  29.618  11.861  13.528
 1280W        W74348  31.995   0.232  14.886
 1281W        W74349  14.012  34.563   1.935
 1282W        W74350  34.105  30.305  13.307
 1283W        W74351   5.275  11.112  14.781
 1284W        W74352  17.083  38.487  13.966
 1285W        W74353  27.394  27.118   2.813
 1286W        W74354   4.263  28.119  10.762
 1287W        W74355  21.063  25.617   0.309
 1288W        W74356  40.359  39.825  13.346
 1289W        W74357  44.049  38.508  14.521
 1290W        W74358  17.673  43.993  14.385
 1291W        W74359  23.354  22.194   4.074
 1292W        W74360   5.497  36.595   1.014
 1293W        W74361   0.408  18.609   0.623
 1294W        W74362   1.498  34.461  11.173
 1295W        W74363  27.482  27.613   1.811
 1296W        W74364  18.781  31.897  12.496
 1297W        W74365  38.398   1.906  11.238
 1298W        W74366  17.171  12.727   0.697
 1299W        W74367  10.705  30.927   3.966
 1300W        W74368   3.816  34.618  13.854
 1301W        W74369  14.028  40.087  10.782
 1302W        W74370  10.722  15.028  11.628
 1303W        W74371  34.151  14.774  11.082
 1304W        W74372  23.157  34.969  13.621
 1305W        W74373  36.221  36.591   4.836
 1306W        W74374   5.359  42.950   3.525
 1307W        W74375  38.396  33.930  11.510
 1308W        W74376   8.362  22.436   2.909
 1309W        W74377  41.384  21.742   3.607
 1310W        W74378  29.509  25.513  10.851
 1311W        W74379  16.305  32.053  13.322
 1312W        W74380  23.550  21.579   1.724
 1313W        W74381   2.779  17.423  13.971
 1314W        W74382  25.663  33.463  13.807
 1315W        W74383  27.144   2.751   1.907
 1316W        W74384  23.719  13.658  13.430
 1317W        W74385   1.450  37.515   0.698
 1318W        W74386   2.525  34.439  11.026
 1319W        W74387  23.270  44.352   3.626
 1320W        W74388  30.013   6.384   1.329
 1321W        W74389  14.219  12.867   1.430
 1322W        W74390  10.682   6.911  14.540
 1323W        W74391  18.154  36.333   4.494
 1324W        W74392  30.992   8.900  14.359
 1325W        W74393   3.122  14.042   0.441
 1326W        W74394  33.081   5.928  10.749
 1327W        W74395  10.011  24.496  11.801
 1328W        W74396  29.136  44.192   3.316
 1329W        W74397  29.106   2.110   1.671
 1330W        W74398  13.330  29.888   0.871
 1331W        W74399  23.628  24.757  14.405
 1332W        W74400  29.621  44.889   3.333
 1333W        W74401  26.580  37.085  13.904
 1334W        W74402  29.388   3.409   1.352
 1335W        W74403  42.655  10.239  13.817
 1336W        W74404  29.473  40.896  12.971
 1337W        W74405  28.905  12.232  13.892
 1338W        W74406  17.178  21.809  13.835
 1339W        W74407   5.442   6.407  14.710
 1340W        W74408  27.884  33.895  10.630
 1341W        W74409  34.084  42.515   3.420
 1342W        W74410  44.815   3.716  11.738
 1343W        W74411   8.968   7.381  13.859
 1344W        W74412  34.553   4.680   4.150
 1345W        W74413  32.123  16.385  11.082
 1346W        W74414  20.540  35.566   2.763
 1347W        W74415  12.004   4.845  11.507
 1348W        W74416  32.616  13.825  13.790
 1349W        W74417   2.280  17.285   1.840
 1350W        W74418  27.253  31.463   1.135
 1351W        W74419  27.281   6.640   0.980
 1352W        W74420  20.778  33.467   4.010
 1353W        W74421   7.336  14.113  13.985
 1354W        W74422  19.894  23.175  13.723
 1355W        W74423  10.860   7.628   0.180
 1356W        W74424  17.491   3.523  13.866
 1357W        W74425  37.039  12.246   0.513
 1358W        W74426  35.185  12.337   3.272
 1359W        W74427  35.937   3.698   4.653
 1360W        W74428  20.535  29.671   3.814
 1361W        W74429   2.187  16.583  11.104
 1362W        W74430   6.034  29.065   2.848
 1363W        W74431   3.158  27.657  14.902
 1364W        W74432   9.219  35.913  11.835
 1365W        W74433  42.058  39.710   0.449
 1366W        W74434   8.715   1.933  13.323
 1367W        W74435  35.294  12.717  11.163
 1368W        W74436  26.087  42.386  14.440
 1369W        W74437   1.486   2.339   4.527
 1370W        W74438  27.451  40.734   3.662
 1371W        W74439   2.789  15.065  11.491
 1372W        W74440  37.296  42.453   3.732
 1373W        W74441  29.812  32.152  11.179
 1374W        W74442  36.609  26.599  12.357
 1375W        W74443  32.274   2.968   0.573
 1376W        W74444   1.872   2.150  12.340
 1377W        W74445  41.592  19.605  13.402
 1378W        W74446  24.189   7.883  12.683
 1379W        W74447  25.071  40.407   1.545
 1380W        W74448  29.638  40.584  12.557
 1381W        W74449  16.588  38.777   1.493
 1382W        W74450   1.380   8.409   1.433
 1383W        W74451  29.615   7.674  14.198
 1384W        W74452  35.900  43.816   3.712
 1385W        W74453  33.534  17.073   4.101
 1386W        W74454  30.360   2.263   1.163
 1387W        W74455  15.067  30.403   4.593
 1388W        W74456  16.308  17.853  14.963
 1389W        W74457  24.654   6.651  13.074
 1390W        W74458  27.683   1.090  10.736
 1391W        W74459   3.218  30.564  13.308
 1392W        W74460  28.943   3.669  12.924
 1393W        W74461  24.470  14.672   0.953
 1394W        W74462  32.915  10.172  13.440
 1395W        W74463  18.348   9.129  11.518
 1396W        W74464  41.930  16.276  13.464
 1397W        W74465  23.147   5.669  14.544
 1398W        W74466   3.786  13.262   4.191
 1399W        W74467  13.529   3.745  11.260
 1400W        W74468  22.749  35.859   0.697
 1401W        W74469  27.381  39.350   1.949
 1402W        W74470   3.541  34.924   3.270
 1403W        W74471  27.705  32.764   0.065
 1404W        W74472  26.673  20.536  14.905
 1405W        W74473  30.667  35.080   3.654
 1406W        W74474  21.106   8.050  10.874
 1407W        W74475  31.092  34.186   4.148
 1408W        W74476  10.661  11.334  10.844
 1409W        W74477   0.868  12.714  10.370
 1410W        W74478   5.226  11.778  12.468
 1411W        W74479   1.428  24.296   0.004
 1412W        W74480  17.375   1.934  11.248
 1413W        W74481  20.309  14.182   0.956
 1414W        W74482  24.668   8.622   3.589
 1415W        W74483  15.810  14.257  12.889
 1416W        W74484  18.059  28.858   2.893
 1417W        W74485  12.058  41.347   4.878
 1418W        W74486  33.901   3.470  13.391
 1419W        W74487   3.292  30.360   1.909
 1420W        W74488  34.084   9.358   3.353
 1421W        W74489   7.796  27.701  13.362
 1422W        W74490   2.376  34.873   0.483
 1423W        W74491  42.052   9.890   2.223
 1424W        W74492  10.156  18.743   0.279
 1425W        W74493  16.271  44.461  13.659
 1426W        W74494  36.615  14.041   3.752
 1427W        W74495  28.506  41.046  12.924
 1428W        W74496  15.763  29.857  11.134
 1429W        W74497   8.465  42.862   4.137
 1430W        W74498  15.903   6.407  14.972
 1431W        W74499  16.345  20.686   2.400
 1432W        W74500  32.983  36.523   1.985
 1433W        W74501  38.073  30.923  14.978
 1434W        W74502  18.350   3.527  11.098
 1435W        W74503  15.870  12.408  10.994
 1436W        W74504  19.689  41.706  10.687
 1437W        W74505  26.843   2.415   1.624
 1438W        W74506  35.507   1.895  11.238
 1439W        W74507  16.659   3.345  11.716
 1440W        W74508  20.642   2.700   2.274
 1441W        W74509   0.042  14.724   3.987
 1442W        W74510  41.749  16.041   3.438
 1443W        W74511  28.725  36.351   0.787
 1444W        W74512  16.619  26.719   1.866
 1445W        W74513   1.809  34.070  14.952
 1446W        W74514  31.041   5.387  14.224
 1447W        W74515  29.903  22.862  13.223
 1448W        W74516  13.209  42.342  14.789
 1449W        W74517  17.282  32.154  11.300
 1450W        W74518   9.236  31.615   1.118
 1451W        W74519  20.263  43.904   4.801
 1452W        W74520   3.501  13.619   0.627
 1453W        W74521  30.501  11.655   1.279
 1454W        W74522   3.823   8.237  12.515
 1455W        W74523   2.114  29.507  10.967
 1456W        W74524  42.162   5.510  12.325
 1457W        W74525   7.182  23.769  13.313
 1458W        W74526  24.240   4.361  10.524
 1459W        W74527  15.183   8.835  12.760
 1460W        W74528  40.002  35.834   3.140
 1461W        W74529  31.395  19.743   3.054
 1462W        W74530  18.088   1.562  11.700
 1463W        W74531  40.947  17.755  10.922
 1464W        W74532  31.583   7.444   2.394
 1465W        W74533  11.360  28.489   2.228
 1466W        W74534   3.980   3.253  11.987
 1467W        W74535  40.731  40.517  11.161
 1468W        W74536   7.861  39.504  14.945
 1469W        W74537  37.611  23.634  10.499
 1470W        W74538   8.285  29.849  14.803
 1471W        W74539   2.448   1.761   4.122
 1472W        W74540   9.840  36.320   1.282
 1473W        W74541  24.435  16.614  12.550
 1474W        W74542   0.836   9.193   3.134
 1475W        W74543  21.789  29.820   2.256
 1476W        W74544   0.917  32.689  14.368
 1477W        W74545   5.808  24.003  14.325
 1478W        W74546  33.958   8.074   2.740
 1479W        W74547  19.908  11.226   2.273
 1480W        W74548  20.045  24.541   0.990
 1481W        W74549   5.201  17.827  13.650
 1482W        W74550   3.173  31.453   0.403
 1483W        W74551  26.388   2.643  14.716
 1484W        W74552   4.710   2.243  12.535
 1485W        W74553  25.984   9.201   4.807
 1486W        W74554  36.650  41.023  11.264
 1487W        W74555  11.325  31.939   1.798
 1488W        W74556  30.923  36.603  14.867
 1489W        W74557  22.093  21.330   0.772
 1490W        W74558   6.527  33.980  10.445
 1491W        W74559  35.318  42.362  10.792
 1492W        W74560   9.876   4.304   4.800
 1493W        W74561  38.055  27.293   1.240
 1494W        W74562   3.843  30.530  14.623
 1495W        W74563   4.183  38.247   4.265
 1496W        W74564  36.733  28.488   3.579
 1497W        W74565  16.006  11.043  12.560
 1498W        W74566  35.641  43.262   4.130
 1499W        W74567  31.434  30.932  11.715
 1500W        W74568  39.815  43.106  11.234
 1501W        W74569   7.866  34.561  11.533
 1502W        W74570  23.368  15.767  13.079
 1503W        W74571  22.223  14.946   0.397
 1504W        W74572  27.617  25.658  12.047
 1505W        W74573  41.173   4.210  13.980
 1506W        W74574  10.180  20.959  14.456
 1507W        W74575  40.006  40.789  13.531
 1508W        W74576  26.065   9.164   4.266
 1509W        W74577  25.650   0.346   2.114
 1510W        W74578  42.965  40.323  13.562
 1511W        W74579  32.161  30.876   3.191
 1512W        W74580   5.221  33.448  11.301
 1513W        W74581  12.789  19.044  13.797
 1514W        W74582  38.578  22.296   1.220
 1515W        W74583   5.383   5.240   3.691
 1516W        W74584  12.387   6.455   3.115
 1517W        W74585  26.067  38.078   2.278
 1518W        W74586  14.633  19.198  13.553
 1519W        W74587  44.467  41.811  11.816
 1520W        W74588  10.890   5.928   1.039
 1521W        W74589  41.560  22.056  14.691
 1522W        W74590  14.138  30.407  13.921
 1523W        W74591  22.562  39.571  13.504
 1524W        W74592  25.922  14.615  14.772
 1525W        W74593   1.941  34.338  13.994
 1526W        W74594  44.104   1.289   0.537
 1527W        W74595  21.584  25.680   2.194
 1528W        W74596  27.164  35.308   1.508
 1529W        W74597  21.038  34.699   4.183
 1530W        W74598   4.140   6.206  11.159
 1531W        W74599  44.902  17.572   2.738
 1532W        W74600  27.962  26.034  13.150
 1533W        W74601  42.000  41.589  12.478
 1534W        W74602  32.123  26.464  13.886
 1535W        W74603  38.565  13.172  13.498
 1536W        W74604  38.505  17.033   0.981
 1537W        W74605  10.740  25.002  11.138
 1538W        W74606  42.839  39.700   3.549
 1539W        W74607  16.786  18.125  11.554
 1540W        W74608   2.317  15.949   1.194
 1541W        W74609  26.341  31.674  13.147
 1542W        W74610  24.670   0.881  13.074
 1543W        W74611  26.582  33.225  10.726
 1544W        W74612  29.899  33.089  11.252
 1545W        W74613  38.834  44.286  14.786
 1546W        W74614   6.776  40.951   0.256
 1547W        W74615  40.905  20.347   1.012
 1548W        W74616  25.580   1.568   0.919
 1549W        W74617  38.939  26.459   2.160
 1550W        W74618  12.580  42.441   3.018
 1551W        W74619  32.603   2.987   4.174
 1552W        W74620  38.453  21.705  10.761
 1553W        W74621  15.672  12.603   2.214
 1554W        W74622   6.793  11.873  14.487
 1555W        W74623   0.986  41.017   1.873
 1556W        W74624  33.767   5.789   0.133
 1557W        W74625   6.996  40.819   5.440
 1558W        W74626  38.102  23.263   2.340
 1559W        W74627  40.003  32.332   1.263
 1560W        W74628   3.696  32.901   4.398
 1561W        W74629  19.294  37.568  14.972
 1562W        W74630  24.699   7.430  13.412
 1563W        W74631  37.946  26.230  10.604
 1564W        W74632   5.299  41.292   1.476
 1565W        W74633  38.059  28.086  12.934
 1566W        W74634  17.476  16.354   3.747
 1567W        W74635  43.776  32.511  14.030
 1568W        W74636   1.451   6.798  14.037
 1569W        W74637  36.302  18.809   4.086
 1570W        W74638   1.900  11.406  13.479
 1571W        W74639  10.362  14.387   1.105
 1572W        W74640  26.721  32.548   0.689
 1573W        W74641  20.202  28.939  12.518
 1574W        W74642  37.165  32.958   0.902
 1575W        W74643  10.828  24.282   3.077
 1576W        W74644  20.839  36.485   1.796
 1577W        W74645  11.378  21.969  13.047
 1578W        W74646   2.977  33.010   0.424
 1579W        W74647   1.102  35.423  14.033
 1580W        W74648  12.604  41.820  12.802
 1581W        W74649  38.430  32.419   3.783
 1582W        W74650  24.457   7.370  14.840
 1583W        W74651  43.926  42.053   3.686
 1584W        W74652  28.946  39.010  13.897
 1585W        W74653   2.912   9.895   3.142
 1586W        W74654   8.283   3.429  13.443
 1587W        W74655  10.078  41.878   2.861
 1588W        W74656  35.544  30.560  12.173
 1589W        W74657  19.134  15.303   0.780
 1590W        W74658  15.686   2.586  12.776
 1591W        W74659  44.805  22.127   1.385
 1592W        W74660  19.770   3.883  13.480
 1593W        W74661   3.455  13.618   2.790
 1594W        W74662   6.661  13.211   2.426
 1595W        W74663   7.032  35.533   2.402
 1596W        W74664  23.872   0.528  13.021
 1597W        W74665  29.016  20.089  13.348
 1598W        W74666  35.080  22.665  11.969
 1599W        W74667  26.444  26.030   1.368
 1600W        W74668  32.445  12.170  10.747
 1601W        W74669   6.658  13.828   4.766
 1602W        W74670  40.835   9.685   1.952
 1603W        W74671   2.834  13.092   3.177
 1604W        W74672  17.622  23.907  13.363
 1605W        W74673  20.270  32.864   0.834
 1606W        W74674  33.645  35.391  13.534
 1607W        W74675  13.159  36.907  12.487
 1608W        W74676   2.367  25.643  14.216
 1609W        W74677  16.939   7.705  11.018
 1610W        W74678   2.776  26.149   3.254
 1611W        W74679  23.978  37.909   1.653
 1612W        W74680   0.907   1.671   0.355
 1613W        W74681  34.838  34.531  13.449
 1614W        W74682  27.641   1.412  11.145
 1615W        W74683  13.152  34.364   3.611
 1616W        W74684  37.040  36.056   1.465
 1617W        W74685  28.054  39.581   2.991
 1618W        W74686   8.669  17.157  11.037
 1619W        W74687  27.048  35.807   1.358
 1620W        W74688  19.221  30.097  11.017
 1621W        W74689   8.936   2.452   4.856
 1622W        W74690  25.493  27.116  10.729
 1623W        W74691  19.346  33.124  13.049
 1624W        W74692  28.809  18.777   4.553
 1625W        W74693  11.652  14.797   0.900
 1626W        W74694  17.776  23.085  12.772
 1627W        W74695  15.550  11.179  12.077
 1628W        W74696  39.231  15.060  12.530
 1629W        W74697  29.910  38.091  14.741
 1630W        W74698   4.324  43.867   4.465
 1631W        W74699  36.312  24.732   2.249
 1632W        W74700   8.673  16.268  14.028
 1633W        W74701  26.134  23.838  10.587
 1634W        W74702  37.412  20.171   2.109
 1635W        W74703  12.678   5.870   1.067
 1636W        W74704  30.211  25.990  11.958
 1637W        W74705   5.711  28.719   2.345
 1638W        W74706   0.469  25.603  14.704
 1639W        W74707  16.951   2.654   0.936
 1640W        W74708  37.443  32.964  13.585
 1641W        W74709  27.387  44.767   0.807
 1642W        W74710   5.817  32.003   1.283
 1643W        W74711  23.099  14.869   0.353
 1644W        W74712  35.431  43.607  12.015
 1645W        W74713  42.439  43.486  11.333
 1646W        W74714   1.277  17.616  11.122
 1647W        W74715  35.099  39.014  11.938
 1648W        W74716  15.591   9.546   3.023
 1649W        W74717  34.486  17.229   3.878
 1650W        W74718  30.049  20.997   1.365
 1651W        W74719   9.177  23.794   3.854
 1652W        W74720  14.326  31.630  10.256
 1653W        W74721  14.781  40.999   1.892
 1654W        W74722  21.964   4.875  11.579
 1655W        W74723  19.270   1.867  12.466
 1656W        W74724  34.480   8.315   2.656
 1657W        W74725  15.819  11.279   2.623
 1658W        W74726   6.780  14.234   3.946
 1659W        W74727  39.893   0.197  11.325
 1660W        W74728  37.384  29.477   2.999
 1661W        W74729   9.070  15.204  12.406
 1662W        W74730   0.848  34.938  12.166
 1663W        W74731  10.168  27.457  13.307
 1664W        W74732   2.228  18.270  11.654
 1665W        W74733  38.995  31.319   3.992
 1666W        W74734  18.060  33.998  10.446
 1667W        W74735  19.521  27.928  13.209
 1668W        W74736  44.966  19.564   0.806
 1669W        W74737   8.091   2.878  14.407
 1670W        W74738  15.783  17.685   2.726
 1671W        W74739  23.642   2.778   3.276
 1672W        W74740   0.929  23.769   1.449
 1673W        W74741  29.442   2.974   3.890
 1674W        W74742  30.008   0.319   1.982
 1675W        W74743  44.908  36.160   1.025
 1676W        W74744  23.095   7.873  10.831
 1677W        W74745  44.567  20.194  12.559
 1678W        W74746  32.121  29.932   3.859
 1679W        W74747  14.091   3.275   4.863
 1680W        W74748  26.743  21.709  13.824
 1681W        W74749  13.101  36.264  12.081
 1682W        W74750  14.553  19.710   0.717
 1683W        W74751   0.483  22.217  11.030
 1684W        W74752  11.765  22.707   4.120
 1685W        W74753  40.784  15.904   5.431
 1686W        W74754  37.350  14.810  12.507
 1687W        W74755  20.214  32.828  11.772
 1688W        W74756  39.999  26.140  11.211
 1689W        W74757   0.137   3.429  14.378
 1690W        W74758   9.251   8.265   3.188
 1691W        W74759  38.808  37.434   4.565
 1692W        W74760  26.314  25.502  10.673
 1693W        W74761  44.240  17.700   0.228
 1694W        W74762   6.393  40.872   1.334
 1695W        W74763  22.839  14.186  13.068
 1696W        W74764  16.871  19.170  11.672
 1697W        W74765  42.667  28.609  14.563
 1698W        W74766  38.113   0.771   0.534
 1699W        W74767  26.578  37.788   3.205
 1700W        W74768  31.068   0.882   2.965
 1701W        W74769  41.983   1.879  11.660
 1702W        W74770  37.644  29.920   2.255
 1703W        W74771  20.642  17.654  12.868
 1704W        W74772   8.580   4.929   4.014
 1705W        W74773  27.958  25.916  11.598
 1706W        W74774  27.502  17.291   2.757
 1707W        W74775  25.915  42.315   4.328
 1708W        W74776  22.955  35.112   0.071
 1709W        W74777  16.655  30.056   4.655
 1710W        W74778   4.018  18.622  12.871
 1711W        W74779  37.809   8.704  14.458
 1712W        W74780   9.747  29.787   3.340
 1713W        W74781  26.254   5.248  14.026
 1714W        W74782  11.768  20.520  14.812
 1715W        W74783   5.973  26.747   3.240
 1716W        W74784  35.307  36.537  12.172
 1717W        W74785  33.529  33.048   3.901
 1718W        W74786   9.706  19.587  13.904
 1719W        W74787   3.111  21.560   0.433
 1720W        W74788  11.244  29.435   3.226
 1721W        W74789  11.831  39.432   3.590
 1722W        W74790  44.980  37.894  10.993
 1723W        W74791  33.636   7.911  10.979
 1724W        W74792  36.375   0.904   0.047
 1725W        W74793  39.414  35.089  13.708
 1726W        W74794  16.242   7.130   4.136
 1727W        W74795  34.875  29.382  13.436
 1728W        W74796  40.261  33.377   0.792
 1729W        W74797  30.988   7.728  14.262
 1730W        W74798  28.115  28.291  11.695
 1731W        W74799   6.514   3.165  14.236
 1732W        W74800  37.884  30.386  11.959
 1733W        W74801  31.903  23.699   4.441
 1734W        W74802  21.988   4.222   2.646
 1735W        W74803  42.787  43.885  12.729
 1736W        W74804  17.002  35.485   1.409
 1737W        W74805  34.847  13.799   0.467
 1738W        W74806  29.968  37.823   0.513
 1739W        W74807  35.916  16.208  13.364
 1740W        W74808  18.364  21.995  12.565
 1741W        W74809   0.828   1.417   2.161
 1742W        W74810   7.933  33.296   1.041
 1743W        W74811   6.651  24.989  14.547
 1744W        W74812  13.275   1.447  13.131
 1745W        W74813  20.683   5.033   0.990
 1746W        W74814  16.817  44.481  12.432
 1747W        W74815  31.616  14.974  13.779
 1748W        W74816   7.912  18.307   0.899
 1749W        W74817  36.333  15.694  12.104
 1750W        W74818  28.249  24.507   0.286
 1751W        W74819  41.038  13.853   5.100
 1752W        W74820  22.096  37.092  12.916
 1753W        W74821   8.497  30.416   4.569
 1754W        W74822  41.857  38.660   3.796
 1755W        W74823   9.880  42.958   0.517
 1756W        W74824  29.995  15.202  14.380
 1757W        W74825  28.882   6.435  12.358
 1758W        W74826  10.282  42.244  11.451
 1759W        W74827  15.754   8.222   0.528
 1760W        W74828  16.139  32.217   4.904
 1761W        W74829  20.603  44.770  11.159
 1762W        W74830  20.701  17.185  13.881
 1763W        W74831  43.408  24.405  11.535
 1764W        W74832   9.339  23.501  13.285
 1765W        W74833  17.133   1.384   3.227
 1766W        W74834  21.016  21.156   3.177
 1767W        W74835  31.062  11.136   3.765
 1768W        W74836  29.369  28.130   1.339
 1769W        W74837  41.722   0.287   2.330
 1770W        W74838  27.410   4.759  14.278
 1771W        W74839  35.857  39.121   0.456
 1772W        W74840   0.021  16.526   0.059
 1773W        W74841  39.809  40.980   4.778
 1774W        W74842  34.369  13.394  12.005
 1775W        W74843  15.017  33.534   0.956
 1776W        W74844  43.193   7.361  14.400
 1777W        W74845  43.280   5.395   0.031
 1778W        W74846  12.711  22.677  10.907
 1779W        W74847  31.852  38.572  11.540
 1780W        W74848   7.967  40.727  14.318
 1781W        W74849  13.939  43.849  12.856
 1782W        W74850  28.756  22.149  14.795
 1783W        W74851  25.136   5.922  14.800
 1784W        W74852  22.685   4.616   3.558
 1785W        W74853  33.595  15.343   3.740
 1786W        W74854  26.679  25.708   1.022
 1787W        W74855   6.651  22.319   4.028
 1788W        W74856   4.221  43.308   0.847
 1789W        W74857  27.204   1.568  13.799
 1790W        W74858  34.894  38.717   0.435
 1791W        W74859  18.170  16.974   4.292
 1792W        W74860   4.423  15.231  12.104
 1793W        W74861  44.761   2.258   4.173
 1794W        W74862  26.114  36.404  11.947
 1795W        W74863  11.756  41.069   0.109
 1796W        W74864  26.482   5.795  14.349
 1797W        W74865   2.216  44.939   4.085
 1798W        W74866  17.761  15.066  13.827
 1799W        W74867  23.420  29.902   0.004
 1800W        W74868   2.323  17.340  12.613
 1801W        W74869  39.124   7.320  14.405
 1802W        W74870  17.156  30.857  11.588
 1803W        W74871  16.735   2.772   1.399
 1804W        W74872  28.876   1.787   4.143
 1805W        W74873  34.154  39.768  12.504
 1806W        W74874  28.061  20.718   0.505
 1807W        W74875   7.366  17.317  11.311
 1808W        W74876  39.031  21.743  10.168
 1809W        W74877  39.073  37.280   4.986
 1810W        W74878  35.892  19.584   1.823
 1811W        W74879  27.320  31.136   1.981
 1812W        W74880   1.747  24.139  10.893
 1813W        W74881   1.917  27.745   1.871
 1814W        W74882   8.090  10.319   3.654
 1815W        W74883  21.735  39.033   0.350
 1816W        W74884  21.944  18.975  12.383
 1817W        W74885  34.468  14.067  11.590
 1818W        W74886  34.977  36.895   3.398
 1819W        W74887  42.091  37.163   3.666
 1820W        W74888  25.708  42.433  13.475
 1821W        W74889  21.121  42.501   1.186
 1822W        W74890  19.395  28.970  12.428
 1823W        W74891   7.762  44.389   1.711
 1824W        W74892  32.512  18.520  13.262
 1825W        W74893  14.032  17.358  11.073
 1826W        W74894  16.285   1.994   4.533
 1827W        W74895  21.602  12.971  12.051
 1828W        W74896  10.999  22.208  14.532
 1829W        W74897  39.900  38.775  14.053
 1830W        W74898  37.982   9.886  10.566
 1831W        W74899  21.755  31.019  13.825
 1832W        W74900  39.489  33.868   1.697
 1833W        W74901  38.162  29.231  10.282
 1834W        W74902   6.295  41.503   3.585
 1835W        W74903   0.670  32.567  10.978
 1836W        W74904  22.904  15.076   2.257
 1837W        W74905  36.959  21.893  13.093
 1838W        W74906  13.144  11.177  11.533
 1839W        W74907  34.555  11.810   0.259
 1840W        W74908  20.746  33.363  10.209
 1841W        W74909  38.028  37.955   1.901
 1842W        W74910  13.761  24.443  11.513
 1843W        W74911   0.965   4.773   1.821
 1844W        W74912  23.636  44.332  14.457
 1845W        W74913   8.286   6.242  10.564
 1846W        W74914  10.339   9.558  11.148
 1847W        W74915  24.492   9.107  13.827
 1848W        W74916  15.728  28.130  14.421
 1849W        W74917   7.792   2.397   2.971
 1850W        W74918   7.907  30.110   2.956
 1851W        W74919  10.493  14.513  13.055
 1852W        W74920  36.921  19.530  14.081
 1853W        W74921  38.885  32.669  12.576
 1854W        W74922  42.739  43.120  11.025
 1855W        W74923  23.382  31.497  11.119
 1856W        W74924  24.223   2.311  14.943
 1857W        W74925  19.179  25.068   2.874
 1858W        W74926  12.909  23.638   0.991
 1859W        W74927  13.305   3.769  13.036
 1860W        W74928   8.807  23.235  11.673
 1861W        W74929  25.561  34.069   1.127
 1862W        W74930   4.179  38.387  13.990
 1863W        W74931  43.949  28.554   4.098
 1864W        W74932  13.670   0.075  14.397
 1865W        W74933   5.802  10.164  10.272
 1866W        W74934  31.405  34.867  12.584
 1867W        W74935   1.757  16.586  11.401
 1868W        W74936  16.881  32.551  14.871
 1869W        W74937  24.112  16.138   4.791
 1870W        W74938  36.841  22.089   3.183
 1871W        W74939  37.813  26.030  12.475
 1872W        W74940  23.839  32.047  10.787
 1873W        W74941  23.950   3.580   4.359
 1874W        W74942  37.159  25.172  11.556
 1875W        W74943  31.420   5.739   2.443
 1876W        W74944   4.225  40.816   0.260
 1877W        W74945  42.826  11.049  10.968
 1878W        W74946  29.208  32.361  13.362
 1879W        W74947  32.572   8.187   2.241
 1880W        W74948  14.604   5.689   4.228
 1881W        W74949  14.851   1.733  14.793
 1882W        W74950  28.988  14.701   2.124
 1883W        W74951  40.627  16.228   0.733
 1884W        W74952  29.575  36.611   2.862
 1885W        W74953  40.588  44.192   0.056
 1886W        W74954  37.415  32.164   3.224
 1887W        W74955  25.122  29.962  11.594
 1888W        W74956  24.083  30.158   2.743
 1889W        W74957  34.902   3.795  13.061
 1890W        W74958  43.254  38.285   1.809
 1891W        W74959  27.915   0.198   4.322
 1892W        W74960  34.536  23.426  12.080
 1893W        W74961  22.461   9.879   0.325
 1894W        W74962  11.647  31.883   4.897
 1895W        W74963  33.538   7.476   4.099
 1896W        W74964   4.232  44.409   3.096
 1897W        W74965   5.464   9.855  10.575
 1898W        W74966  21.580  36.953   4.112
 1899W        W74967  40.394   4.819  11.795
 1900W        W74968   4.708  25.927  11.957
 1901W        W74969   3.214   2.832   3.852
 1902W        W74970  13.569   0.218   0.002
 1903W        W74971  25.894  19.217  11.988
 1904W        W74972   3.950  28.125  13.539
 1905W        W74973  36.421  33.392   2.794
 1906W        W74974  21.405  35.791   3.798
 1907W        W74975  27.467  12.159   2.232
 1908W        W74976  37.406   9.806   3.176
 1909W        W74977  22.258  35.572  11.964
 1910W        W74978   9.955  25.970   1.025
 1911W        W74979   3.377  42.474   4.092
 1912W        W74980  34.420  29.164  13.381
 1913W        W74981   7.194   9.342  10.837
 1914W        W74982  12.338  11.289   4.179
 1915W        W74983  36.119  25.406  10.458
 1916W        W74984  35.946  11.598  13.973
 1917W        W74985   1.215  43.943   1.724
 1918W        W74986  11.129  23.257  13.476
 1919W        W74987   1.957   8.431  11.045
 1920W        W74988  23.607  39.852   4.376
 1921W        W74989  37.207  22.282  10.622
 1922W        W74990  15.042  10.311   0.998
 1923W        W74991  35.409  31.640  12.640
 1924W        W74992  11.216  12.271  12.040
 1925W        W74993   3.175  31.467   2.662
 1926W        W74994  14.386  41.090   0.968
 1927W        W74995  31.795  12.838  11.127
 1928W        W74996  11.413  17.245  14.299
 1929W        W74997  23.063  34.968  13.104
 1930W        W74998  29.417   9.635   1.848
 1931W        W74999  10.219  35.929  11.569
 1932W        W75000  24.334  17.593   2.381
 1933W        W75001  18.021  27.001  11.230
 1934W        W75002  44.238   5.007  10.821
 1935W        W75003  26.863  27.337   1.751
 1936W        W75004  32.455   6.864  12.458
 1937W        W75005  10.967  14.080  12.417
 1938W        W75006  34.644   0.945   1.448
 1939W        W75007  36.359  42.229  13.418
 1940W        W75008  22.043  31.750  12.879
 1941W        W75009   3.686  43.344   0.941
 1942W        W75010  31.970  14.883   4.412
 1943W        W75011  14.843  22.419  11.187
 1944W        W75012  23.151   0.182  12.884
 1945W        W75013  39.712   3.491  14.338
 1946W        W75014   9.886  23.429   4.547
 1947W        W75015  10.512   5.831  12.360
 1948W        W75016   0.042  36.594   2.353
 1949W        W75017  12.617   9.396   3.320
 1950W        W75018  25.515  32.715  12.549
 1951W        W75019  27.447  23.017  12.560
 1952W        W75020  23.767  10.196  14.137
 1953W        W75021  25.860  32.185  13.557
 1954W        W75022  26.678  37.916   3.702
 1955W        W75023  29.307   0.985   0.404
 1956W        W75024  15.806  36.535  14.820
 1957W        W75025  43.803   0.293  14.498
 1958W        W75026  19.232  26.640  13.460
 1959W        W75027  18.121  14.332  14.855
 1960W        W75028  34.382  21.864   2.270
 1961W        W75029   2.453  37.069  12.974
 1962W        W75030  27.592  11.190   2.156
 1963W        W75031  26.412  34.842  14.363
 1964W        W75032  10.164  15.527   2.611
 1965W        W75033  24.099  23.811   4.845
 1966W        W75034   2.926   8.534   4.691
 1967W        W75035  37.777  13.156  10.825
 1968W        W75036  44.925  21.393   2.093
 1969W        W75037  39.439  11.308  13.782
 1970W        W75038  21.113  38.773  14.012
 1971W        W75039  26.529  32.996   0.905
 1972W        W75040  29.491  43.911   3.018
 1973W        W75041  14.103  14.605  12.869
 1974W        W75042  23.879   9.752  12.055
 1975W        W75043  31.600  25.282   1.930
 1976W        W75044  33.885  33.504  13.558
 1977W        W75045  12.227  36.851  11.042
 1978W        W75046  17.088  11.762   1.722
 1979W        W75047  11.144  32.807   3.782
 1980W        W75048   9.893  19.151  10.220
 1981W        W75049  23.285   1.171   0.019
 1982W        W75050  37.514  11.268  10.616
 1983W        W75051   9.386  32.965   5.012
 1984W        W75052  16.267  17.561  10.692
 1985W        W75053   9.106  43.069   4.938
 1986W        W75054  21.653  34.104  13.537
 1987W        W75055  30.582  14.838  14.680
 1988W        W75056  41.011   5.171   1.202
 1989W        W75057  32.510   1.896  13.733
 1990W        W75058  42.594  11.147   2.268
 1991W        W75059  33.323  25.507  12.789
 1992W        W75060  24.792  43.429  12.885
 1993W        W75061  32.115  20.318  13.714
 1994W        W75062  38.134  27.086   4.578
 1995W        W75063  35.020   9.154   4.768
 1996W        W75064  30.652   8.155  14.015
 1997W        W75065  26.630  11.319  12.909
 1998W        W75066  43.951  39.076   3.229
 1999W        W75067   8.142  13.618   0.358
 2000W        W75068  13.195  42.435   4.613
 2001W        W75069  14.107   8.047  12.038
 2002W        W75070   8.703   8.426  10.839
 2003W        W75071   3.874   1.073  11.232
 2004W        W75072  14.567  37.430   5.159
 2005W        W75073   2.247  17.248  13.951
 2006W        W75074  23.301  27.410   2.562
 2007W        W75075   6.246  10.383   1.322
 2008W        W75076  24.248  37.904  14.408
 2009W        W75077   3.991  21.104  11.212
 2010W        W75078   4.980   2.947   4.134
 2011W        W75079  34.386   1.683  14.897
 2012W        W75080  41.930  19.095   3.998
 2013W        W75081  12.611   3.572  12.485
 2014W        W75082  25.919  24.634  14.845
 2015W        W75083  42.435   0.023   2.901
 2016W        W75084  36.479   7.464   2.749
 2017W        W75085   2.223   0.647   3.280
 2018W        W75086   4.864  11.359   1.861
 2019W        W75087   6.316  21.327  13.880
 2020W        W75088  23.214  14.994  12.589
 2021W        W75089   0.091  20.842  10.023
 2022W        W75090  22.553  39.629   1.888
 2023W        W75091  11.150   1.807  14.399
 2024W        W75092  30.395  35.833  12.252
 2025W        W75093  37.032  40.735  13.479
 2026W        W75094  13.883  36.488  14.064
 2027W        W75095   5.347  13.206  10.796
 2028W        W75096   7.020   3.033  11.676
 2029W        W75097  39.242  40.862  13.806
 2030W        W75098  23.729  27.120   0.943
 2031W        W75099  40.069  17.408   0.282
 2032W        W75100  14.261  11.899  14.004
 2033W        W75101  33.008  11.996   4.314
 2034W        W75102   7.228   9.703  14.862
 2035W        W75103  21.044   6.724   1.842
 2036W        W75104  16.039  29.094  10.631
 2037W        W75105   9.671  38.027  12.903
 2038W        W75106  24.105  23.570   3.852
 2039W        W75107  40.006   7.147  11.081
 2040W        W75108  31.911   7.299  10.889
 2041W        W75109   7.441   8.824  11.027
 2042W        W75110  17.136  20.474   1.531
 2043W        W75111  18.052  20.381   1.948
 2044W        W75112  25.189  30.449  13.889
 2045W        W75113  16.125  40.758   4.160
 2046W        W75114  36.141  39.049   3.162
 2047W        W75115  34.258  12.872   4.992
 2048W        W75116  11.843  32.410  11.689
 2049W        W75117  35.454  34.664   0.838
 2050W        W75118   3.807  35.974   0.696
 2051W        W75119  40.807  18.836  13.449
 2052W        W75120  15.548  40.594  12.586
 2053W        W75121  32.392  23.579  12.429
 2054W        W75122  17.892  39.477  12.038
 2055W        W75123   5.124   0.116   0.651
 2056W        W75124  32.026  44.585   0.419
 2057W        W75125  12.886  17.032   1.311
 2058W        W75126   0.713  30.510  13.739
 2059W        W75127  33.874  28.796  14.491
 2060W        W75128  10.301  32.659   2.402
 2061W        W75129  16.748  11.193  13.531
 2062W        W75130  19.227  18.589  10.800
 2063W        W75131  22.422  26.291  10.194
 2064W        W75132  32.141  39.940   2.390
 2065W        W75133  43.991  12.618   3.149
 2066W        W75134  43.156  43.903  11.313
 2067W        W75135  30.182  21.277   4.176
 2068W        W75136  12.230  22.441   2.758
 2069W        W75137  41.996  30.712  14.730
 2070W        W75138  14.869  14.090  14.797
 2071W        W75139  23.199   8.310  14.524
 2072W        W75140  33.974  23.503  13.083
 2073W        W75141   5.305  42.654  11.662
 2074W        W75142  35.849  11.633   0.374
 2075W        W75143  44.592   2.481  12.894
 2076W        W75144  20.541   0.569  14.977
 2077W        W75145   0.753  33.156   3.471
 2078W        W75146  35.718  37.015   2.153
 2079W        W75147   7.680  37.561   4.927
 2080W        W75148  42.259  24.008  13.939
 2081W        W75149  31.680  39.563  14.792
 2082W        W75150  34.626  22.270   3.598
 2083W        W75151   5.033  25.007  10.204
 2084W        W75152  40.923  30.975   0.514
 2085W        W75153  38.157  18.168   4.768
 2086W        W75154  29.705  37.834  11.130
 2087W        W75155  33.347  38.980  11.488
 2088W        W75156  14.694  37.990  13.015
 2089W        W75157  24.398   4.333   2.287
 2090W        W75158   8.214  26.334   3.636
 2091W        W75159  26.944  40.953   3.644
 2092W        W75160  14.894  30.394   3.286
 2093W        W75161   2.330   2.279  13.032
 2094W        W75162  40.869  16.026   4.952
 2095W        W75163  30.971  25.637   0.241
 2096W        W75164  26.687  32.451   4.152
 2097W        W75165  27.617  39.041  14.575
 2098W        W75166  42.894  29.588   4.949
 2099W        W75167   2.814  29.257   2.002
 2100W        W75168  12.268  32.319  12.623
 2101W        W75169   0.467   0.871  12.780
 2102W        W75170  34.353   1.205   4.944
 2103W        W75171  39.929  17.620  13.773
 2104W        W75172  11.813  11.110   1.408
 2105W        W75173  34.837  20.308  14.465
 2106W        W75174  11.745  28.673   3.336
 2107W        W75175  44.504  42.906  12.532
 2108W        W75176  22.726  37.264  14.293
 2109W        W75177  29.918  26.750  14.504
 2110W        W75178  14.820  33.998   0.897
 2111W        W75179  26.254   8.933   3.419
 2112W        W75180  38.835  21.683   3.756
 2113W        W75181  16.694  24.015  13.745
 2114W        W75182  37.995  16.088  14.623
 2115W        W75183  23.231   6.962  12.955
 2116W        W75184  38.986  10.732  11.084
 2117W        W75185  12.120  13.204   2.720
 2118W        W75186  38.093  43.351  10.561
 2119W        W75187  16.228  37.436  13.863
 2120W        W75188  22.704  24.186   5.395
 2121W        W75189  15.295  10.361  11.386
 2122W        W75190  44.411  32.446   2.230
 2123W        W75191  33.343  21.054   0.781
 2124W        W75192   1.476  20.295  12.513
 2125W        W75193   7.497   7.929  13.901
 2126W        W75194  41.296  37.617   5.025
 2127W        W75195  24.127  25.049  13.365
 2128W        W75196  38.896  42.508   1.742
 2129W        W75197  35.000  20.230  13.558
 2130W        W75198  14.180   6.806   4.661
 2131W        W75199  10.219  19.306   1.829
 2132W        W75200  15.527  23.536  14.835
 2133W        W75201  18.596  35.451   3.601
 2134W        W75202  10.380   4.332   4.575
 2135W        W75203  40.497  39.272  13.456
 2136W        W75204  41.244  41.684   3.275
 2137W        W75205  19.973   1.445  10.929
 2138W        W75206   6.492  23.220   3.866
 2139W        W75207  32.183  18.136   4.881
 2140W        W75208  35.045  37.650   1.258
 2141W        W75209  32.991   4.749  10.909
 2142W        W75210  29.167  25.169  13.320
 2143W        W75211   0.238  10.218  11.171
 2144W        W75212  39.369  34.491   2.898
 2145W        W75213   8.592   8.478  13.055
 2146W        W75214  16.948  11.748   1.212
 2147W        W75215  43.960   5.952   0.219
 2148W        W75216  12.244   5.827   0.319
 2149W        W75217  18.228  12.383  11.840
 2150W        W75218  40.392   0.548   1.245
 2151W        W75219  31.105   7.151   2.571
 2152W        W75220  43.369  10.174  12.946
 2153W        W75221   2.093  43.115  13.510
 2154W        W75222  15.216   6.456  11.593
 2155W        W75223   7.871  12.177   3.659
 2156W        W75224  15.672  16.058  11.584
 2157W        W75225  14.842  27.307   3.158
 2158W        W75226   9.687  24.979   1.183
 2159W        W75227  20.709  27.578  12.950
 2160W        W75228  20.269   1.887   1.809
 2161W        W75229   6.890  18.234   2.479
 2162W        W75230  17.261  31.660  11.200
 2163W        W75231  43.275   9.592   1.808
 2164W        W75232  41.017  29.474   2.189
 2165W        W75233   9.086   7.745  12.472
 2166W        W75234  25.973   4.045  14.962
 2167W        W75235  23.043  23.749  10.965
 2168W        W75236  14.665  21.591  11.738
 2169W        W75237  12.216   6.253   2.675
 2170W        W75238  36.389  11.323   2.894
 2171W        W75239  21.048  35.429   0.839
 2172W        W75240   6.173  28.934   4.596
 2173W        W75241   8.626  22.115  14.513
 2174W        W75242  13.295  27.580  13.298
 2175W        W75243  29.616  32.580  10.870
 2176W        W75244  37.935  32.026   0.992
 2177W        W75245  38.286  44.201   4.047
 2178W        W75246   3.356   6.850  13.873
 2179W        W75247  18.665  33.735  11.983
 2180W        W75248  23.224  42.963   0.890
 2181W        W75249  25.982  37.356  11.994
 2182W        W75250  28.400  40.258  10.668
 2183W        W75251   6.270   0.974  11.624
 2184W        W75252  43.897  38.217   3.782
 2185W        W75253  34.378  14.997   1.323
 2186W        W75254  16.637  36.334   3.183
 2187W        W75255   9.815  28.132  11.976
 2188W        W75256  16.457  11.642   1.093
 2189W        W75257   9.668  44.009   4.128
 2190W        W75258  32.793  26.305  13.006
 2191W        W75259  37.470  35.947   1.742
 2192W        W75260  37.074  11.231   4.086
 2193W        W75261  44.258  27.661   4.961
 2194W        W75262  20.727  25.491  13.552
 2195W        W75263   1.024   7.956   0.198
 2196W        W75264   4.692   0.235  10.961
 2197W        W75265  23.058  21.708   4.057
 2198W        W75266  24.060  11.616  14.553
 2199W        W75267  16.953   8.337  13.074
 2200W        W75268  43.806  37.741   4.734
 2201W        W75269   5.181   7.609  11.629
 2202W        W75270  39.967  26.140   0.928
 2203W        W75271   2.736  43.884   1.438
 2204W        W75272  12.997  23.346  12.630
 2205W        W75273  41.699  18.408  13.403
 2206W        W75274  14.513  43.417   4.931
 2207W        W75275  39.123  21.067  12.397
 2208W        W75276  10.759  37.460   0.424
 2209W        W75277  38.088  33.943   0.380
 2210W        W75278  31.141  31.464   3.076
 2211W        W75279  23.196   7.850  12.696
 2212W        W75280  19.217  18.690   2.764
 2213W        W75281   5.444  44.821  11.166
 2214W        W75282  43.067  20.126   1.454
 2215W        W75283  44.509   4.595   0.881
 2216W        W75284  18.146  40.443   4.062
 2217W        W75285  38.036   5.814   0.832
 2218W        W75286   4.657  13.093  13.536
 2219W        W75287  42.746  43.036   3.788
 2220W        W75288  42.455   8.829   0.059
 2221W        W75289  30.988   3.465   0.751
 2222W        W75290   9.279  43.767  12.549
 2223W        W75291  14.753  10.266   0.238
 2224W        W75292  21.524  11.837  12.802
 2225W        W75293  19.290  40.193  12.375
 2226W        W75294  44.267  37.864  13.384
 2227W        W75295   0.819  36.186   2.127
 2228W        W75296  39.109  36.388  11.647
 2229W        W75297  27.695  41.021   1.260
 2230W        W75298   4.414  11.221   4.689
 2231W        W75299  29.784  21.031  12.363
 2232W        W75300  17.593   1.834   1.201
 2233W        W75301  21.479  14.066  14.950
 2234W        W75302  12.464  42.366  11.621
 2235W        W75303  29.640  14.183  12.431
 2236W        W75304  14.328  23.017  13.863
 2237W        W75305   5.427  27.442   2.633
 2238W        W75306   3.682  36.477  13.041
 2239W        W75307   6.828  21.283  13.043
 2240W        W75308  21.558  37.032   3.157
 2241W        W75309  31.156  33.598  14.343
 2242W        W75310  41.540   7.712   1.742
 2243W        W75311  43.980  44.835   3.333
 2244W        W75312  35.403  33.591   3.691
 2245W        W75313  33.414  17.994   3.563
 2246W        W75314  23.718  19.034   4.986
 2247W        W75315  21.411  28.875   0.950
 2248W        W75316   9.072   7.265  12.735
 2249W        W75317   0.127  40.907  12.170
 2250W        W75318  11.658  29.315  12.371
 2251W        W75319  39.692  29.956   1.389
 2252W        W75320   0.031  10.642   4.184
 2253W        W75321  18.658  27.376   1.789
 2254W        W75322  26.006   0.954   1.429
 2255W        W75323  39.667   7.389  14.481
 2256W        W75324  38.923  14.294  13.957
 2257W        W75325  40.492   0.000  12.387
 2258W        W75326  17.037  24.491  12.451
 2259W        W75327  39.815  27.133  12.109
 2260W        W75328  31.557  33.845  12.544
 2261W        W75329  31.788  24.854  13.885
 2262W        W75330  39.609   1.024  11.092
 2263W        W75331  39.550  17.364   4.159
 2264W        W75332   5.266  18.579   2.729
 2265W        W75333  15.648  20.088   3.305
 2266W        W75334   2.238  43.443  14.421
 2267W        W75335  17.079  33.469  10.301
 2268W        W75336  14.192  26.289   0.698
 2269W        W75337  10.284  22.440   2.699
 2270W        W75338  39.907  26.330   3.339
 2271W        W75339  14.167   8.388  14.317
 2272W        W75340  18.684   5.810  13.010
 2273W        W75341   1.792   8.453   0.651
 2274W        W75342  12.153  41.797   3.621
 2275W        W75343  11.450   7.351  14.970
 2276W        W75344  38.537  16.115  14.740
 2277W        W75345  23.926  38.022   2.176
 2278W        W75346  38.007  17.290   0.989
 2279W        W75347   1.460   2.213   0.823
 2280W        W75348  40.975   6.115  12.069
 2281W        W75349  40.697  33.939  13.178
 2282W        W75350  35.980  42.052  10.776
 2283W        W75351  23.813   0.316   0.196
 2284W        W75352  32.137  26.525  11.038
 2285W        W75353   2.434  13.185   1.886
 2286W        W75354  23.574   8.886  14.100
 2287W        W75355  35.555  38.423   1.144
 2288W        W75356  35.870  18.660  12.169
 2289W        W75357  30.461  43.150  12.073
 2290W        W75358   3.527   4.813   2.885
 2291W        W75359   2.923  44.309  13.163
 2292W        W75360  29.487  44.835   1.952
 2293W        W75361   4.486  29.910  14.278
 2294W        W75362  17.633  18.719   1.683
 2295W        W75363   6.968  10.575  12.039
 2296W        W75364   3.933  17.553  13.431
 2297W        W75365  12.383   7.876  10.736
 2298W        W75366  31.498  43.777   4.036
 2299W        W75367  26.392  26.544   2.044
 2300W        W75368  16.160  43.322   3.692
 2301W        W75369  13.755  14.167  13.530
 2302W        W75370  40.222   6.237   0.308
 2303W        W75371  34.117  26.408   1.967
 2304W        W75372  30.335  37.859   3.428
 2305W        W75373  13.738  12.386   3.499
 2306W        W75374  16.326  31.139  12.340
 2307W        W75375  17.354   0.383   2.820
 2308W        W75376  39.103  27.709  13.413
 2309W        W75377  24.025   8.906  11.517
 2310W        W75378  37.908  39.962   2.661
 2311W        W75379  27.715  31.114  11.527
 2312W        W75380  42.848   4.199  10.246
 2313W        W75381  40.744  13.724   3.721
 2314W        W75382  11.845  33.384   3.318
 2315W        W75383  22.086  19.268  11.923
 2316W        W75384  27.798  41.501   3.484
 2317W        W75385   9.629  16.271  13.117
 2318W        W75386  11.585   1.777   5.006
 2319W        W75387   9.865   3.612  14.118
 2320W        W75388  40.790  25.403   0.124
 2321W        W75389  44.271  18.814  11.974
 2322W        W75390  28.214  20.084   3.808
 2323W        W75391   2.982  21.627   4.779
 2324W        W75392  24.942  32.977   4.611
 2325W        W75393  28.626  16.072   2.457
 2326W        W75394  29.165  39.950   0.697
 2327W        W75395  21.040   5.367  12.537
 2328W        W75396   8.678  15.009   3.285
 2329W        W75397  16.828  41.731  13.646
 2330W        W75398  18.503  37.501   0.416
 2331W        W75399   0.564   9.694  13.440
 2332W        W75400  17.771  23.973   0.351
 2333W        W75401  21.675  36.577  14.086
 2334W        W75402   2.766  11.600  14.336
 2335W        W75403  22.101  15.298  14.449
 2336W        W75404  44.514  11.894   0.700
 2337W        W75405  27.153  31.015   3.380
 2338W        W75406  30.801  43.034   1.462
 2339W        W75407  27.392  43.871   3.981
 2340W        W75408  31.582  35.351  10.756
 2341W        W75409  21.930  43.809   0.282
 2342W        W75410  28.599  21.034   3.650
 2343W        W75411  25.367  29.211   9.850
 2344W        W75412  14.031  44.039   3.677
 2345W        W75413  28.357   7.288   0.319
 2346W        W75414  31.549  38.880  14.069
 2347W        W75415  17.223   8.760  13.751
 2348W        W75416  17.995  16.050   2.840
 2349W        W75417  16.206  34.021   2.657
 2350W        W75418  22.664  43.855   2.173
 2351W        W75419  42.199  14.224   0.812
 2352W        W75420  19.473  22.633   4.287
 2353W        W75421  15.728  15.508  14.514
 2354W        W75422  36.218  23.597   1.683
 2355W        W75423  43.471   3.703  12.375
 2356W        W75424   7.027  27.915  12.854
 2357W        W75425  34.110  13.239  12.499
 2358W        W75426   1.720  31.124  14.262
 2359W        W75427  21.266  39.454  12.870
 2360W        W75428   0.066  39.897  11.631
 2361W        W75429  18.735   8.267  12.672
 2362W        W75430  42.274   6.403   2.761
 2363W        W75431   4.484  26.966   4.488
 2364W        W75432  35.427  27.520   0.380
 2365W        W75433   3.802  11.594  10.202
 2366W        W75434  10.097   8.244  14.410
 2367W        W75435  37.795  27.651  13.054
 2368W        W75436   1.727  30.541  13.551
 2369W        W75437  35.324  39.318   2.204
 2370W        W75438  36.438   4.460  14.557
 2371W        W75439   4.155   9.739  13.369
 2372W        W75440  35.384  18.305  14.465
 2373W        W75441  17.720  18.239   0.896
 2374W        W75442   2.815  10.701  13.148
 2375W        W75443   9.810  40.785   4.542
 2376W        W75444   0.733  27.872   2.339
 2377W        W75445  20.781  43.910  12.006
 2378W        W75446  28.161   5.087  10.230
 2379W        W75447  39.921  34.932   0.440
 2380W        W75448  39.383  32.265   0.782
 2381W        W75449  43.201  36.531   4.978
 2382W        W75450  27.008  30.666   1.922
 2383W        W75451   5.150  16.008   3.280
 2384W        W75452  35.066  24.003   1.043
 2385W        W75453  12.214  12.848   1.307
 2386W        W75454  12.087  19.944  10.951
 2387W        W75455  32.986   2.003  12.770
 2388W        W75456  25.811  28.254  11.962
 2389W        W75457  18.031  33.120  11.503
 2390W        W75458   6.816  20.998  12.093
 2391W        W75459  42.968  42.278  11.492
 2392W        W75460  11.884   8.852  11.534
 2393W        W75461   0.522  40.832  14.861
 2394W        W75462  34.539  21.204   3.351
 2395W        W75463  25.463   5.312  12.924
 2396W        W75464  36.421   4.693   0.428
 2397W        W75465  33.981   2.539   0.860
 2398W        W75466  31.057  17.185  12.983
 2399W        W75467  40.601  26.393   4.233
 2400W        W75468  30.395  22.143   0.576
 2401W        W75469  33.346  19.928  11.208
 2402W        W75470   1.955  24.620  12.125
 2403W        W75471  35.782  15.158   2.737
 2404W        W75472  40.623  40.465   2.807
 2405W        W75473  40.036  43.052   4.729
 2406W        W75474  38.645  44.942   4.590
 2407W        W75475   6.733  30.683   4.248
 2408W        W75476  29.633  34.634   4.120
 2409W        W75477   6.900   2.104  12.961
 2410W        W75478  16.395  14.594   0.259
 2411W        W75479  19.781  21.062  13.980
 2412W        W75480  28.899  28.385   3.818
 2413W        W75481  17.681  34.590  10.722
 2414W        W75482  16.570  15.061  13.531
 2415W        W75483  19.581  37.170   1.754
 2416W        W75484   1.923  33.379   2.388
 2417W        W75485  34.967   2.461   0.671
 2418W        W75486  43.805  24.009   1.233
 2419W        W75487   9.867   1.020  11.549
 2420W        W75488  20.726  37.748  11.084
 2421W        W75489  13.063  26.963  12.505
 2422W        W75490  14.678   6.780   1.254
 2423W        W75491   5.169  24.700   4.992
 2424W        W75492  21.295  16.767  12.235
 2425W        W75493  32.215  30.439  11.882
 2426W        W75494  23.419  24.252   2.415
 2427W        W75495  38.516  30.700   4.483
 2428W        W75496  35.953  24.037  12.360
 2429W        W75497  17.042  39.440   1.469
 2430W        W75498  19.128  37.076   0.782
 2431W        W75499  28.071   6.501  12.611
 2432W        W75500  35.178  35.879   0.387
 2433W        W75501  37.824  23.521  14.900
 2434W        W75502  17.655  17.497  14.739
 2435W        W75503  22.593   8.353  10.407
 2436W        W75504  31.590  14.134   2.027
 2437W        W75505   2.909  36.111   0.225
 2438W        W75506   7.096   6.773   1.903
 2439W        W75507   9.571  42.781  11.900
 2440W        W75508  30.915  31.883   5.115
 2441W        W75509  27.098   3.809  14.529
 2442W        W75510   0.145  12.757   3.776
 2443W        W75511  40.297   7.137  10.656
 2444W        W75512  31.780  20.107   3.771
 2445W        W75513  15.847   0.114  10.158
 2446W        W75514   1.312  15.940   1.200
 2447W        W75515  26.432  14.876   4.192
 2448W        W75516  41.367  37.492   0.656
 2449W        W75517   0.744  35.050   2.784
 2450W        W75518  41.024   0.701  11.072
 2451W        W75519  43.444  27.204   0.406
 2452W        W75520  24.708  31.465   4.224
 2453W        W75521  43.382   5.603   1.078
 2454W        W75522  27.113   4.299  12.086
 2455W        W75523  16.636   0.333  11.161
 2456W        W75524  10.289  39.049   3.028
 2457W        W75525  28.472  42.327   1.417
 2458W        W75526  44.630  19.238   4.524
 2459W        W75527   7.458   7.705   4.499
 2460W        W75528  21.678  19.115  10.968
 2461W        W75529  30.584  16.096   0.639
 2462W        W75530  12.854   5.597  11.729
 2463W        W75531   2.414   6.219   3.264
 2464W        W75532   0.517   4.440  10.694
 2465W        W75533  41.489  40.372  12.340
 2466W        W75534  11.654  24.255  13.021
 2467W        W75535   1.800   7.894   2.665
 2468W        W75536  23.466  27.190   1.387
 2469W        W75537   4.426  40.303  12.464
 2470W        W75538  28.348  10.435  12.229
 2471W        W75539   2.298   8.368  14.878
 2472W        W75540  36.293  23.291  13.011
 2473W        W75541  37.408  40.491  12.345
 2474W        W75542  33.175   9.367  12.445
 2475W        W75543  44.291  34.685   3.918
 2476W        W75544  39.952  24.132   4.874
 2477W        W75545  25.982  23.267  12.968
 2478W        W75546   1.366  42.378   4.670
 2479W        W75547  44.087  44.864  12.081
 2480W        W75548  41.423  39.960  14.056
 2481W        W75549  33.221  31.899  11.629
 2482W        W75550  19.656  44.194  14.963
 2483W        W75551  40.940  28.081  13.317
 2484W        W75552  18.561   2.713   1.966
 2485W        W75553  21.238  18.589   2.619
 2486W        W75554  35.914  36.616   1.219
 2487W        W75555  11.679  33.129  11.345
 2488W        W75556  31.690  30.056   3.577
 2489W        W75557  16.731  14.293   1.442
 2490W        W75558   3.276   5.266   2.822
 2491W        W75559  41.948  30.624   0.300
 2492W        W75560  22.080  40.370   4.063
 2493W        W75561  18.542   2.992   3.704
 2494W        W75562  16.143  39.015   2.895
 2495W        W75563   7.785   6.677  14.363
 2496W        W75564  28.244  12.197  12.521
 2497W        W75565   0.665  24.156   3.679
 2498W        W75566  20.550  19.087  12.017
 2499W        W75567  11.952   9.891  14.420
 2500W        W75568  20.569  38.492   2.216
 2501W        W75569   7.842  40.684   2.609
 2502W        W75570   1.276  32.613   3.712
 2503W        W75571  23.766  38.713  12.206
 2504W        W75572   3.785  16.903   0.751
 2505W        W75573  42.568   6.255  14.110
 2506W        W75574  31.717  16.032  13.056
 2507W        W75575  11.965  14.767   2.319
 2508W        W75576  16.700  18.637  12.463
 2509W        W75577  21.302   9.003  12.460
 2510W        W75578  19.979  43.245   2.455
 2511W        W75579  12.578   3.772  14.997
 2512W        W75580  14.272  43.456  12.662
 2513W        W75581  14.159  16.825  11.242
 2514W        W75582   9.733  19.986  11.074
 2515W        W75583  18.621   2.875   4.216
 2516W        W75584  13.355  26.539   4.029
 2517W        W75585  39.017  43.078   4.095
 2518W        W75586  30.876  22.661  13.081
 2519W        W75587   6.564  18.593  12.590
 2520W        W75588  33.660  14.126  13.520
 2521W        W75589  16.772  36.453  14.512
 2522W        W75590  23.169   0.823  13.389
 2523W        W75591  32.359   8.261  13.349
 2524W        W75592  30.201  21.106  14.204
 2525W        W75593  22.649  40.315  10.273
 2526W        W75594  13.625  16.612   3.182
 2527W        W75595  16.339  26.467   2.678
 2528W        W75596  27.580  27.663  10.485
 2529W        W75597   0.291  42.391   4.367
 2530W        W75598  15.102  32.868  11.131
 2531W        W75599  37.932  32.128   0.483
 2532W        W75600  33.827  22.796   3.290
 2533W        W75601  22.091  22.725  13.845
 2534W        W75602  22.197   6.746  14.376
 2535W        W75603  25.103  18.840   1.600
 2536W        W75604  43.559  15.653   2.283
 2537W        W75605   6.041  15.069  10.958
 2538W        W75606  21.425  12.732  14.355
 2539W        W75607  43.912   4.852  12.785
 2540W        W75608  37.631  37.219   1.373
 2541W        W75609  38.467  39.075  12.911
 2542W        W75610  29.151  15.256   0.840
 2543W        W75611  19.933  36.476   0.800
 2544W        W75612  36.462   6.921   2.793
 2545W        W75613  26.938  24.952   0.495
 2546W        W75614  25.622   1.298   1.353
 2547W        W75615   2.255   3.430   3.305
 2548W        W75616   3.823  36.247   5.227
 2549W        W75617  31.521   4.704  13.544
 2550W        W75618  34.507  21.519   4.567
 2551W        W75619   6.201  19.260   4.208
 2552W        W75620   4.278   2.582  11.185
 2553W        W75621  43.243   9.379  11.585
 2554W        W75622  12.969  11.958  10.734
 2555W        W75623  35.524   2.912   4.893
 2556W        W75624   9.145  13.808  12.532
 2557W        W75625   4.992  33.950   1.722
 2558W        W75626  39.774  23.393   1.791
 2559W        W75627  34.428   3.241   4.678
 2560W        W75628  17.928  43.476   0.690
 2561W        W75629  35.390  36.142  14.894
 2562W        W75630  23.791  17.719  12.954
 2563W        W75631  28.189  20.469  11.546
 2564W        W75632  26.617   2.519   2.412
 2565W        W75633   9.654  14.223   1.373
 2566W        W75634   9.643   8.870  10.986
 2567W        W75635   1.047  27.102  14.118
 2568W        W75636  31.184  15.906  11.161
 2569W        W75637  19.996  29.020   3.345
 2570W        W75638   8.551  12.136  12.724
 2571W        W75639  28.706  25.033   0.882
 2572W        W75640  27.010  36.086  13.371
 2573W        W75641   9.867   9.585  11.413
 2574W        W75642  43.281  16.590  13.472
 2575W        W75643  13.864  18.754  12.549
 2576W        W75644  28.253  20.724  12.782
 2577W        W75645  42.735   4.223  14.953
 2578W        W75646  26.033  25.218  11.518
 2579W        W75647  13.883  40.418  12.681
 2580W        W75648  28.419  37.434   1.255
 2581W        W75649  27.155  35.282   2.918
 2582W        W75650   8.087  10.344  13.208
 2583W        W75651  13.172  44.237  12.582
 2584W        W75652  14.737  26.114  10.631
 2585W        W75653  18.005  35.507   4.636
 2586W        W75654   7.339  20.715  12.517
 2587W        W75655  23.258  36.564  11.192
 2588W        W75656   4.867  37.809  14.978
 2589W        W75657  40.984  29.613   0.313
 2590W        W75658  19.670  19.068  12.422
 2591W        W75659  28.193  29.789  12.949
 2592W        W75660  44.699  37.565   0.688
 2593W        W75661  34.485  35.666  12.176
 2594W        W75662  42.777  39.517   0.947
 2595W        W75663   1.248  43.034  14.998
 2596W        W75664  18.001  27.111   2.260
 2597W        W75665  11.663  22.260   2.883
 2598W        W75666  25.663  18.255   0.935
 2599W        W75667  14.901  38.436   2.555
 2600W        W75668  19.629  24.421   3.672
 2601W        W75669  24.053  15.122   2.152
 2602W        W75670  36.249  43.524   2.287
 2603W        W75671  28.635  38.579   3.988
 2604W        W75672   7.702  23.277  13.446
 2605W        W75673   0.764  33.614   3.818
 2606W        W75674  12.139  27.996   2.901
 2607W        W75675  39.462  41.875  14.720
 2608W        W75676  32.847  35.700   1.274
 2609W        W75677  20.802   3.732  14.612
 2610W        W75678  18.308  43.897   3.342
 2611W        W75679  33.932  44.364  12.922
 2612W        W75680  24.436   7.443  12.393
 2613W        W75681  28.253  10.288   3.298
 2614W        W75682  44.650  39.145   1.395
 2615W        W75683  12.530  40.507   3.822
 2616W        W75684  10.207  12.065   4.170
 2617W        W75685  43.414  40.305  13.307
 2618W        W75686  25.155  30.157   1.506
 2619W        W75687  43.397  39.582  10.993
 2620W        W75688   2.740   0.266   0.403
 2621W        W75689  22.673  17.547  13.010
 2622W        W75690  13.239   1.984   2.381
 2623W        W75691  34.290  29.621  14.731
 2624W        W75692   5.618  39.525   0.523
 2625W        W75693  39.519  35.473  11.582
 2626W        W75694  13.651  36.919   0.992
 2627W        W75695  38.129   3.454  10.396
 2628W        W75696  35.565  39.925   0.206
 2629W        W75697  21.088  43.340   5.442
 2630W        W75698  33.899  26.161  14.887
 2631W        W75699   4.890  42.435   1.345
 2632W        W75700  10.139  10.226   2.606
 2633W        W75701   3.825  14.737  14.268
 2634W        W75702  35.924  10.195  13.930
 2635W        W75703  11.254   4.328   4.169
 2636W        W75704  33.878   5.683  12.948
 2637W        W75705  35.882  42.363  12.610
 2638W        W75706   2.364  36.015   4.575
 2639W        W75707  28.959  11.821   1.739
 2640W        W75708   2.496  28.190  11.646
 2641W        W75709  39.313  14.860  13.020
 2642W        W75710  25.058  13.777   3.219
 2643W        W75711   5.669   2.284   3.185
 2644W        W75712  42.288  17.528   3.502
 2645W        W75713   7.172  30.418  13.478
 2646W        W75714  44.683  38.012   4.676
 2647W        W75715  32.142   9.287  11.592
 2648W        W75716  17.236  36.905  12.475
 2649W        W75717  20.491  12.249  10.838
 2650W        W75718   0.430   3.524   4.255
 2651W        W75719  17.505   2.978   5.070
 2652W        W75720  44.579  17.290  13.414
 2653W        W75721  23.751  43.472  12.931
 2654W        W75722   2.507  36.052  11.542
 2655W        W75723  16.314  38.391   3.642
 2656W        W75724  32.410   6.042   4.234
 2657W        W75725   5.138  23.849  11.580
 2658W        W75726  24.615  34.381  13.796
 2659W        W75727  33.740   0.623  10.645
 2660W        W75728  41.240  32.732   4.243
 2661W        W75729  43.601  19.324   1.280
 2662W        W75730  26.010   5.105   3.196
 2663W        W75731  11.167  30.181   3.812
 2664W        W75732  12.305  26.017   4.807
 2665W        W75733   0.818  11.722  11.627
 2666W        W75734  40.555  26.696   0.053
 2667W        W75735   5.356  14.267   1.656
 2668W        W75736   6.861   7.466  10.690
 2669W        W75737  31.469  22.947   2.800
 2670W        W75738  23.593   0.250  11.147
 2671W        W75739  36.065  17.223   0.767
 2672W        W75740  32.875  17.733   0.394
 2673W        W75741  33.580   4.964  10.403
 2674W        W75742  41.464   7.232   3.048
 2675W        W75743  36.543  13.177   3.786
 2676W        W75744  30.963   8.807   4.541
 2677W        W75745  15.337  44.027  13.555
 2678W        W75746   1.690  20.371  11.220
 2679W        W75747  39.330  28.535  10.324
 2680W        W75748   1.445   9.446   0.946
 2681W        W75749  40.487  16.774   2.567
 2682W        W75750  31.986   1.997  13.889
 2683W        W75751  13.346  43.564   0.495
 2684W        W75752   1.737   4.321   1.806
 2685W        W75753  43.487  25.720   2.667
 2686W        W75754  27.056  27.742   0.849
 2687W        W75755  38.363   6.733  13.529
 2688W        W75756   7.219  27.442   3.069
 2689W        W75757  43.837  14.569   3.722
 2690W        W75758   8.632  19.335   0.410
 2691W        W75759  34.569   7.416   1.466
 2692W        W75760   7.164   9.946   0.505
 2693W        W75761  39.901  27.700   4.080
 2694W        W75762   4.530   5.441   2.870
 2695W        W75763  31.038  40.395  14.956
 2696W        W75764  33.918  37.465   1.794
 2697W        W75765  42.175  32.093  10.258
 2698W        W75766  14.231  30.898  13.779
 2699W        W75767  28.149   8.926   1.205
 2700W        W75768   8.736   2.321   3.490
 2701W        W75769  28.442  17.123   1.289
 2702W        W75770   0.466   8.182   2.264
 2703W        W75771   1.706  35.094  14.708
 2704W        W75772  35.571  24.401  12.452
 2705W        W75773  14.370   6.233   4.706
 2706W        W75774  18.696   5.559   0.888
 2707W        W75775  30.021  17.775   0.532
 2708W        W75776  38.341  31.397   1.356
 2709W        W75777   7.712  33.560  10.738
 2710W        W75778  30.492  16.151   1.157
 2711W        W75779  12.108  14.536   4.566
 2712W        W75780  29.330  35.067   3.233
 2713W        W75781  44.719  28.600  11.340
 2714W        W75782   9.411  36.581   0.435
 2715W        W75783  37.404  16.284   2.344
 2716W        W75784  34.413  10.083  13.838
 2717W        W75785  30.677   7.949  11.062
 2718W        W75786  43.652   8.318   1.365
 2719W        W75787  40.025  13.764   1.408
 2720W        W75788  16.604   8.651   2.701
 2721W        W75789  15.004   7.828   3.333
 2722W        W75790  22.043  38.682   4.234
 2723W        W75791  16.607  28.663  13.114
 2724W        W75792  27.477  37.774  12.000
 2725W        W75793  42.731  18.105  13.579
 2726W        W75794   1.961   2.360   3.586
 2727W        W75795  41.170  15.564   5.175
 2728W        W75796  18.919  37.929   0.189
 2729W        W75797  29.375  14.279   5.037
 2730W        W75798   0.118  38.994   0.898
 2731W        W75799  13.305  29.001  11.263
 2732W        W75800  31.870  37.446   0.271
 2733W        W75801  18.658  23.113  14.339
 2734W        W75802  21.257   9.750  13.081
 2735W        W75803  44.077   2.883   2.256
 2736W        W75804  41.472  18.133  12.857
 2737W        W75805  35.145  34.269  11.926
 2738W        W75806  38.812  14.861   0.792
 2739W        W75807   8.379  35.019  13.901
 2740W        W75808  27.963   2.924  13.548
 2741W        W75809  17.153  34.705  11.693
 2742W        W75810  29.655  19.173   2.759
 2743W        W75811   7.840  39.231   4.517
 2744W        W75812   1.954  28.933  14.396
 2745W        W75813  38.360  27.576  14.041
 2746W        W75814  24.144  40.578   4.540
 2747W        W75815  30.491  42.340  11.635
 2748W        W75816  37.526  14.493   2.720
 2749W        W75817   1.648  38.011   1.233
 2750W        W75818  44.420  19.957  13.894
 2751W        W75819  42.816  21.202   1.811
 2752W        W75820  15.896  27.422   4.489
 2753W        W75821   7.182  35.045  10.760
 2754W        W75822  20.531  44.293   4.579
 2755W        W75823   9.755  37.943  12.397
 2756W        W75824  26.205   1.368  12.424
 2757W        W75825  31.009  25.834   2.003
 2758W        W75826  14.572  40.837   4.204
 2759W        W75827   4.906   0.672  11.150
 2760W        W75828  33.387  12.205  14.864
 2761W        W75829  23.334  42.956   2.720
 2762W        W75830  32.809   1.028  14.417
 2763W        W75831   6.146  35.498  11.505
 2764W        W75832  31.469  38.469   0.980
 2765W        W75833   2.767  33.088  14.957
 2766W        W75834   8.098  22.041   0.364
 2767W        W75835  37.281  10.382  13.898
 2768W        W75836   3.429  27.911   4.293
 2769W        W75837  36.515   0.890   3.886
 2770W        W75838  24.265  37.590   5.054
 2771W        W75839  36.492  27.085   4.495
 2772W        W75840  14.824  32.579   2.943
 2773W        W75841   5.619  27.035   3.657
 2774W        W75842  11.764  19.141  10.123
 2775W        W75843  38.826  17.160  13.696
 2776W        W75844  20.685   3.936   2.668
 2777W        W75845  38.116  26.659  14.875
 2778W        W75846  43.791  44.476  13.395
 2779W        W75847  34.346   5.209  13.045
 2780W        W75848  37.558  21.289  14.693
 2781W        W75849  39.956  41.363  10.809
 2782W        W75850  27.891  39.458   1.797
 2783W        W75851  29.012  13.661  14.275
 2784W        W75852  30.956  12.284   1.761
 2785W        W75853  37.371  30.568  13.802
 2786W        W75854   1.049  33.597   4.272
 2787W        W75855   5.725   7.858   4.347
 2788W        W75856  20.144  37.502  12.272
 2789W        W75857  42.286   5.096  14.810
 2790W        W75858  25.523  37.947   2.203
 2791W        W75859  33.279  28.291  13.028
 2792W        W75860  42.305  25.957  10.846
 2793W        W75861  13.365  43.364  12.525
 2794W        W75862   3.185  41.076   2.959
 2795W        W75863  25.745  37.745  13.509
 2796W        W75864  34.123  18.721  11.068
 2797W        W75865  11.175  19.564  10.078
 2798W        W75866  25.956   5.324  12.839
 2799W        W75867  33.098  44.495   4.609
 2800W        W75868  39.248  30.524  13.816
 2801W        W75869  25.031  42.455  12.900
 2802W        W75870   3.546  32.219  13.044
 2803W        W75871  42.485  31.477  11.443
 2804W        W75872  44.931   6.346  11.163
 2805W        W75873  35.305  24.914   1.304
 2806W        W75874  41.437  32.165  12.643
 2807W        W75875  16.174  15.801   4.788
 2808W        W75876  23.255  35.098   0.934
 2809W        W75877  28.016  15.227  11.479
 2810W        W75878  33.181  20.133  10.714
 2811W        W75879   3.907  10.010   1.018
 2812W        W75880   9.862   5.261  14.773
 2813W        W75881  39.723  31.067   4.953
 2814W        W75882  24.089  29.556   2.016
 2815W        W75883  26.631  31.908   4.719
 2816W        W75884  12.181   8.894  14.737
 2817W        W75885  21.244  30.439  11.887
 2818W        W75886  34.703  35.813   3.756
 2819W        W75887   1.354  29.149  11.418
 2820W        W75888  24.859  24.048  14.816
 2821W        W75889  26.372  36.541  13.052
 2822W        W75890  39.334   2.320   2.795
 2823W        W75891  28.057   4.999   0.525
 2824W        W75892  30.960  32.507   4.116
 2825W        W75893  23.512  19.253  14.036
 2826W        W75894   3.460  26.761  11.009
 2827W        W75895  20.569  29.163   0.482
 2828W        W75896   6.167  29.648  12.920
 2829W        W75897  35.798   6.348  14.741
 2830W        W75898  34.410  20.006   0.416
 2831W        W75899  39.619  22.880   3.001
 2832W        W75900  43.374  21.510  12.866
 2833W        W75901  14.976  11.715  10.751
 2834W        W75902  24.114   8.591  10.617
 2835W        W75903  10.123   4.409  14.017
 2836W        W75904  23.924  17.202  13.611
 2837W        W75905   4.205   9.223  12.671
 2838W        W75906  34.549  19.513   0.577
 2839W        W75907   3.988  26.239  13.457
 2840W        W75908  32.263  38.341  12.459
 2841W        W75909  11.335  26.710   1.830
 2842W        W75910  43.467  26.167   1.825
 2843W        W75911  28.967   5.993  11.644
 2844W        W75912   9.808  28.572   0.487
 2845W        W75913   2.157  35.831  11.034
 2846W        W75914  26.787  28.135   2.038
 2847W        W75915   2.606   9.939   0.420
 2848W        W75916  24.222   2.784   0.185
 2849W        W75917  32.969  30.447  11.117
 2850W        W75918  17.037   7.859  12.845
 2851W        W75919   9.281  30.101   0.541
 2852W        W75920   3.478  23.188  10.555
 2853W        W75921  27.592  22.059   4.426
 2854W        W75922  36.058   7.034  14.900
 2855W        W75923  29.235  32.997   0.356
 2856W        W75924  37.720  34.971  13.057
 2857W        W75925  23.155  21.690  14.588
 2858W        W75926  26.339  18.661  14.834
 2859W        W75927  33.472  21.094  11.065
 2860W        W75928   8.742   7.602   2.421
 2861W        W75929   0.777  20.489  11.289
 2862W        W75930  28.205   8.765  12.353
 2863W        W75931  24.191   6.866   2.782
 2864W        W75932  20.763   1.527  10.531
 2865W        W75933  39.866  41.829   3.255
 2866W        W75934  34.972  22.265  10.921
 2867W        W75935  15.853  43.522  11.003
 2868W        W75936  26.558   1.624   4.940
 2869W        W75937   2.232  43.327  11.443
 2870W        W75938  31.009  32.936   0.945
 2871W        W75939   8.931  21.547  12.226
 2872W        W75940   3.352  33.567  12.364
 2873W        W75941   5.463  28.145   0.866
 2874W        W75942  42.400  26.653  12.049
 2875W        W75943  12.401  21.828  11.042
 2876W        W75944  18.992   9.332  11.199
 2877W        W75945  21.450  14.702  12.428
 2878W        W75946  14.785  16.673  11.470
 2879W        W75947  37.952  39.033   2.190
 2880W        W75948   7.344  16.278   0.255
 2881W        W75949  39.129  10.136  13.486
 2882W        W75950   7.028  43.745  13.032
 2883W        W75951  33.116  36.439   1.078
 2884W        W75952  39.934  34.128  13.578
 2885W        W75953  32.644  20.373  13.652
 2886W        W75954  13.680  43.745   4.617
 2887W        W75955  41.686  16.656   1.787
 2888W        W75956  22.128  23.938   0.026
 2889W        W75957  38.522  37.590  14.479
 2890W        W75958  42.788   3.027  12.605
 2891W        W75959  43.219  41.638  14.872
 2892W        W75960   5.240   7.143  13.445
 2893W        W75961  28.121  44.602   5.020
 2894W        W75962  27.435   4.331   4.146
 2895W        W75963  25.791  13.641   0.001
 2896W        W75964   3.896  31.867  10.646
 2897W        W75965  41.438  41.521   2.508
 2898W        W75966  36.872   8.182   0.252
 2899W        W75967  34.915  15.112   1.732
 2900W        W75968  39.802  28.846   2.497
 2901W        W75969  23.958  35.469   3.679
 2902W        W75970  16.822   8.378   4.516
 2903W        W75971   7.349  34.960  13.079
 2904W        W75972  21.278  26.231   1.831
 2905W        W75973  24.707  12.632  11.473
 2906W        W75974  34.109  29.949  12.917
 2907W        W75975  32.318  16.610   4.253
 2908W        W75976  21.657  42.893  13.975
 2909W        W75977  14.807  20.866   4.551
 2910W        W75978   7.144  12.591   1.447
 2911W        W75979  34.795   0.943  11.449
 2912W        W75980  39.807  31.485  12.061
 2913W        W75981  26.227  22.126  11.497
 2914W        W75982  17.606   7.794  11.624
 2915W        W75983  40.496  18.738  14.902
 2916W        W75984  26.963  36.063   3.043
 2917W        W75985  13.337  34.642   4.014
 2918W        W75986  34.645  35.502   1.709
 2919W        W75987  17.274  40.623   2.872
 2920W        W75988  24.461   2.914   1.870
 2921W        W75989   8.252  30.710   4.149
 2922W        W75990  41.718   4.223  13.299
 2923W        W75991   1.476  22.476  12.677
 2924W        W75992  29.448  23.645   1.297
 2925W        W75993   3.610   5.481  13.820
 2926W        W75994  42.281  40.972   4.328
 2927W        W75995  32.087  16.826  13.843
 2928W        W75996  18.745  24.296   0.978
 2929W        W75997  20.108  40.516   1.769
 2930W        W75998  18.704  33.173  10.588
 2931W        W75999  35.307  19.059  13.478
 2932W        W76000  41.278  14.459   4.867
 2933W        W76001   7.909  18.017   4.107
 2934W        W76002   0.462  40.501   4.031
 2935W        W76003  15.405  17.234  13.507
 2936W        W76004  41.388  20.546   4.977
 2937W        W76005  27.727  28.525   4.582
 2938W        W76006  38.766  21.855  13.480
 2939W        W76007  40.083  35.740  12.795
 2940W        W76008  36.366   6.331   1.438
 2941W        W76009  33.594  19.803   1.699
 2942W        W76010  30.936  22.740  13.932
 2943W        W76011  40.304   2.357  11.378
 2944W        W76012   5.644  36.372   3.212
 2945W        W76013  42.994   1.176   3.659
 2946W        W76014  27.259  36.065  11.611
 2947W        W76015  11.629  36.897   2.438
 2948W        W76016  28.872  31.011  10.710
 2949W        W76017  39.376   2.995   2.960
 2950W        W76018  26.877  19.283  12.052
 2951W        W76019  10.682  41.365   0.353
 2952W        W76020  32.223  19.930   4.031
 2953W        W76021  43.384   9.685  13.932
 2954W        W76022   0.947  19.217   4.332
 2955W        W76023  28.710  19.928   0.827
 2956W        W76024   5.290  23.209   0.325
 2957W        W76025   5.818  39.743  10.568
 2958W        W76026  19.784  15.587   4.086
 2959W        W76027  34.637  20.240  14.962
 2960W        W76028  32.807  37.038  13.776
 2961W        W76029   3.794  15.784  11.571
 2962W        W76030  23.786   6.311  13.529
 2963W        W76031  39.454  13.120  11.189
 2964W        W76032  34.353  38.327  13.943
 2965W        W76033  43.585  20.815   2.055
 2966W        W76034  17.200  28.719   4.356
 2967W        W76035  24.377  34.529   1.949
 2968W        W76036  38.430   9.859  13.411
 2969W        W76037  15.098   1.406   4.145
 2970W        W76038   8.912  24.209   4.130
 2971W        W76039   6.065  44.222   4.564
 2972W        W76040  32.473  20.033  14.009
 2973W        W76041  26.615  21.830   5.089
 2974W        W76042  29.584  38.560   0.068
 2975W        W76043  10.778   6.641  11.871
 2976W        W76044  16.673  24.486  13.955
 2977W        W76045  43.447   5.948  11.972
 2978W        W76046  34.639  19.172  10.767
 2979W        W76047  42.624  31.484  14.856
 2980W        W76048  33.879   2.489   3.289
 2981W        W76049  22.246  27.701  14.436
 2982W        W76050  41.005  23.617   3.312
 2983W        W76051  19.748  22.006   2.808
 2984W        W76052  36.773   3.974   2.679
 2985W        W76053  11.322  26.220  14.885
 2986W        W76054  35.001  18.291  12.478
 2987W        W76055  17.206  29.130  10.766
 2988W        W76056  31.494   6.419   2.497
 2989W        W76057  40.303  15.601   1.927
 2990W        W76058  24.645  22.064   3.556
 2991W        W76059   2.721  29.882  11.011
 2992W        W76060  39.803   7.984   4.213
 2993W        W76061  44.179  37.996   5.032
 2994W        W76062  21.783  29.438  11.649
 2995W        W76063  10.193  30.621  13.538
 2996W        W76064  25.210  27.141   0.453
 2997W        W76065  43.293  32.647  11.973
 2998W        W76066  22.263  40.413   3.533
 2999W        W76067  18.910  36.013   1.829
 3000W        W76068   1.493  34.595  12.482
 3001W        W76069   6.344  26.678   0.834
 3002W        W76070  20.989  21.223   1.293
 3003W        W76071  20.948   1.452   2.323
 3004W        W76072   6.492  34.831   2.856
 3005W        W76073  42.107  31.599   1.354
 3006W        W76074  10.723  25.430  13.904
 3007W        W76075   4.677  11.729  11.182
 3008W        W76076  18.074  44.757  14.721
 3009W        W76077  41.388  38.768  12.103
 3010W        W76078  23.766  16.330   3.503
 3011W        W76079  16.778  19.607  11.961
 3012W        W76080  28.018  11.392  13.020
 3013W        W76081  11.568  25.706   2.353
 3014W        W76082  31.151  43.170  11.055
 3015W        W76083  38.617  15.349   3.214
 3016W        W76084  22.650  31.546   4.125
 3017W        W76085  29.448  35.566   3.203
 3018W        W76086  33.181  10.168   4.068
 3019W        W76087   6.688  16.723   0.846
 3020W        W76088  15.564  20.161  11.655
 3021W        W76089  12.818  40.772   4.172
 3022W        W76090   0.495  23.114  11.346
 3023W        W76091  21.978  13.139   0.867
 3024W        W76092  15.195  27.509   5.219
 3025W        W76093   9.217  41.807   5.076
 3026W        W76094   1.735  21.815  11.918
 3027W        W76095   5.279  39.486   3.829
 3028W        W76096  17.504  44.307  13.063
 3029W        W76097   5.872  37.920   4.462
 3030W        W76098  14.080  15.754   2.762
 3031W        W76099   2.518  41.928  14.367
 3032W        W76100  12.148  43.413  13.112
 3033W        W76101  24.356  32.893   0.347
 3034W        W76102   8.732  22.638   4.809
 3035W        W76103   5.455  36.932  11.950
 3036W        W76104  41.320   6.885   3.455
 3037W        W76105  22.168   6.183   4.291
 3038W        W76106  40.365   8.333   2.699
 3039W        W76107  31.471  13.312   0.471
 3040W        W76108   0.229  40.430   3.209
 3041W        W76109  22.506   3.375   3.331
 3042W        W76110  24.909  29.080  13.009
 3043W        W76111  16.802  16.559   1.706
 3044W        W76112  14.878  22.686  12.578
 3045W        W76113   7.372  10.538   2.160
 3046W        W76114   2.335   2.904  11.531
 3047W        W76115  12.119  36.004   2.149
 3048W        W76116   1.300  32.641   2.719
 3049W        W76117  25.920  35.296  12.479
 3050W        W76118  24.262   2.703   3.710
 3051W        W76119   4.425  40.099  10.821
 3052W        W76120   6.253   9.618  13.366
 3053W        W76121  20.512  26.523   0.328
 3054W        W76122  20.201   1.262   0.178
 3055W        W76123  28.718  26.552   1.940
 3056W        W76124  41.534  43.902   2.249
 3057W        W76125  31.190  44.928  11.596
 3058W        W76126  18.832  39.397   3.678
 3059W        W76127   3.675  44.666   2.412
 3060W        W76128  15.994  40.922  14.379
 3061W        W76129  20.241  22.794   2.810
 3062W        W76130  10.811   1.643  11.037
 3063W        W76131  41.856   3.662  12.642
 3064W        W76132   3.968   7.991   0.924
 3065W        W76133  31.972  25.191  13.533
 3066W        W76134   6.505  36.983  12.931
 3067W        W76135  19.065  19.286   0.401
 3068W        W76136   0.366   7.834   4.346
 3069W        W76137  33.025   7.719  11.493
 3070W        W76138   5.692  29.119  11.624
 3071W        W76139  40.382  31.819  14.478
 3072W        W76140  41.481  18.994  12.863
 3073W        W76141  22.427  43.360  12.323
 3074W        W76142   5.638  26.224  12.644
 3075W        W76143  30.979   0.440   0.828
 3076W        W76144  25.237  21.808   2.278
 3077W        W76145  22.736  35.107   3.680
 3078W        W76146  27.974  18.090   3.259
 3079W        W76147  30.893  19.283  13.607
 3080W        W76148   5.256  28.958   4.942
 3081W        W76149  31.749  20.972  12.564
 3082W        W76150  43.789  12.704   1.818
 3083W        W76151  28.205  19.593   3.575
 3084W        W76152   2.441  17.867  12.617
 3085W        W76153  33.430  33.501   1.708
 3086W        W76154   8.665   6.256   2.298
 3087W        W76155  40.776  17.213   2.740
 3088W        W76156  41.319  25.951   3.558
 3089W        W76157   0.941   9.094  13.025
 3090W        W76158  21.302  32.452   0.204
 3091W        W76159  32.489  34.807  13.368
 3092W        W76160  21.001   5.656   2.568
 3093W        W76161  43.034  35.543   4.408
 3094W        W76162  20.251  16.015   4.867
 3095W        W76163  21.695  32.852  10.987
 3096W        W76164  40.974   3.370   4.177
 3097W        W76165   2.924  36.170   1.166
 3098W        W76166   9.173  39.168  12.381
 3099W        W76167  19.845   2.028  14.422
 3100W        W76168  21.261  23.680  13.829
 3101W        W76169   2.996  11.164   0.826
 3102W        W76170  32.314   4.156  13.642
 3103W        W76171  22.078  21.245   4.230
 3104W        W76172  38.987  29.550  11.294
 3105W        W76173  18.276   2.359   2.618
 3106W        W76174  36.530  15.256   2.307
 3107W        W76175  12.949  40.328   0.299
 3108W        W76176  25.150  18.805  14.380
 3109W        W76177  27.154  17.927  12.396
 3110W        W76178  26.066   6.025   1.472
 3111W        W76179  39.080  17.280   2.420
 3112W        W76180  34.453  12.592  11.680
 3113W        W76181  19.124  37.225  11.131
 3114W        W76182  26.245  28.595  11.958
 3115W        W76183  32.954   6.766   3.559
 3116W        W76184  11.949   6.200  11.475
 3117W        W76185  31.674   9.341   3.176
 3118W        W76186  27.576  32.888   2.315
 3119W        W76187  24.897  38.435  12.628
 3120W        W76188   6.993  26.704  12.166
 3121W        W76189   0.876  21.110  14.424
 3122W        W76190  13.472  10.502  14.828
 3123W        W76191   9.820  20.140  13.168
 3124W        W76192   6.500  41.151  11.562
 3125W        W76193  25.265  35.941  11.938
 3126W        W76194  28.093  22.583  12.561
 3127W        W76195  44.737  20.012   2.184
 3128W        W76196   8.200  20.911  10.389
 3129W        W76197  44.424  31.328   2.727
 3130W        W76198  40.131  41.021  13.087
 3131W        W76199   1.239  23.675   3.232
 3132W        W76200   0.799   9.706   3.262
 3133W        W76201  39.078   4.890   1.679
 3134W        W76202  28.675  38.769  12.009
 3135W        W76203  43.826  10.922  14.294
 3136W        W76204   8.819  30.786   1.448
 3137W        W76205  10.789   7.316  12.516
 3138W        W76206   2.922   6.354  14.272
 3139W        W76207  28.455  23.722   4.655
 3140W        W76208  37.798   8.242  13.552
 3141W        W76209  29.361  31.671   0.854
 3142W        W76210  27.593  18.568   1.131
 3143W        W76211   1.978  11.644  12.126
 3144W        W76212  37.345  40.216   3.306
 3145W        W76213  42.378   5.996   3.883
 3146W        W76214  14.145  24.770   4.656
 3147W        W76215  41.982  36.560  14.427
 3148W        W76216  34.098   8.927  12.027
 3149W        W76217  21.484  38.593   2.387
 3150W        W76218   5.281  43.950   1.353
 3151W        W76219  12.037  25.475   0.369
 3152W        W76220  18.203  34.796   4.138
 3153W        W76221   1.543   6.477   3.705
 3154W        W76222  25.795  12.334   3.862
 3155W        W76223  30.200  12.813  14.855
 3156W        W76224  14.426  14.358   2.065
 3157W        W76225  20.797  30.432  10.656
 3158W        W76226  12.164  44.446  12.707
 3159W        W76227  17.536  11.604  10.704
 3160W        W76228  11.754  27.460   3.770
 3161W        W76229  38.482  21.526  11.240
 3162W        W76230  18.478  41.480   3.746
 3163W        W76231   2.395  32.627   0.937
 3164W        W76232  27.181   5.181  14.492
 3165W        W76233  36.847  11.142   3.102
 3166W        W76234   5.332   7.580   0.450
 3167W        W76235   7.961  10.639  11.073
 3168W        W76236  13.165  11.072   3.654
 3169W        W76237  38.540  33.609   0.353
 3170W        W76238  28.023  21.419  13.180
 3171W        W76239   9.214  35.552  12.749
 3172W        W76240   7.851  28.212  13.488
 3173W        W76241  42.341   4.755   4.177
 3174W        W76242  23.425  32.528   1.281
 3175W        W76243   2.640  30.669  13.709
 3176W        W76244  42.125  22.943   3.349
 3177W        W76245   4.295  36.012   0.905
 3178W        W76246  43.238   6.737  13.907
 3179W        W76247  32.305   0.309  10.578
 3180W        W76248  20.260  41.816   4.314
 3181W        W76249  22.169   3.652   4.110
 3182W        W76250  25.947  11.158  13.997
 3183W        W76251   6.421   3.871   4.774
 3184W        W76252   5.941   5.382  10.637
 3185W        W76253  25.243  37.974   1.712
 3186W        W76254  30.479  31.657  13.966
 3187W        W76255  24.553  17.319   1.955
 3188W        W76256  35.901  16.535   4.587
 3189W        W76257  44.516   5.021  11.734
 3190W        W76258   6.629  40.560   3.125
 3191W        W76259  42.794   1.206  13.119
 3192W        W76260  21.125  34.803  13.167
 3193W        W76261   6.861  13.385  14.485
 3194W        W76262  15.189  25.017   3.213
 3195W        W76263  24.667  40.763   1.496
 3196W        W76264  15.397  14.765   4.198
 3197W        W76265  42.692  37.354  12.359
 3198W        W76266   5.646  11.584  11.232
 3199W        W76267   9.920   7.082  13.520
 3200W        W76268  42.942  16.639   3.290
 3201W        W76269   5.317   4.858   2.695
 3202W        W76270   5.243  23.718   4.055
 3203W        W76271  12.093  37.473  14.306
 3204W        W76272   0.033   8.476  11.993
 3205W        W76273  37.822   8.351  12.935
 3206W        W76274  24.115   0.912  12.396
 3207W        W76275   5.218   5.936  13.820
 3208W        W76276  19.082  21.991  11.508
 3209W        W76277  39.655   7.737  12.832
 3210W        W76278  28.585  39.403   4.300
 3211W        W76279  22.713   5.455  14.327
 3212W        W76280   1.786   3.822   0.398
 3213W        W76281   5.192   0.559  12.108
 3214W        W76282  29.960  22.054  14.303
 3215W        W76283  32.082  26.983   2.734
 3216W        W76284  25.995  36.464   1.711
 3217W        W76285  35.493  25.719   1.665
 3218W        W76286  22.512   1.896   0.771
 3219W        W76287  41.205  11.372  11.695
 3220W        W76288  28.011  34.571   2.205
 3221W        W76289  29.603  18.712   0.253
 3222W        W76290  15.352  31.616  12.181
 3223W        W76291   7.403  43.459   2.008
 3224W        W76292  29.274  41.181  10.227
 3225W        W76293  22.017  42.475   4.707
 3226W        W76294  37.948  43.442   0.024
 3227W        W76295  41.491  23.565   0.391
 3228W        W76296  25.235  33.847   4.598
 3229W        W76297  33.218   0.219  10.011
 3230W        W76298  27.019  15.601  13.242
 3231W        W76299   1.211  24.746  14.894
 3232W        W76300  44.483  40.815  11.971
 3233W        W76301  20.653  34.941  13.902
 3234W        W76302   0.913   9.870  11.236
 3235W        W76303  34.737  17.150   2.486
 3236W        W76304  26.216  12.860   0.468
 3237W        W76305  25.010  14.863  11.918
 3238W        W76306   6.021  43.872  13.175
 3239W        W76307   8.625  37.934  11.631
 3240W        W76308  23.687  22.641   0.049
 3241W        W76309  43.808   6.794   2.802
 3242W        W76310  32.545  24.626  13.828
 3243W        W76311  44.318  44.026  10.651
 3244W        W76312  38.413   9.282  14.349
 3245W        W76313   6.404  41.456  13.263
 3246W        W76314  10.702  42.570   3.803
 3247W        W76315   9.279  29.671   1.751
 3248W        W76316  26.041  39.655   2.183
 3249W        W76317   5.209  12.250   0.040
 3250W        W76318   4.668  25.041   1.832
 3251W        W76319  10.832   0.233  14.227
 3252W        W76320  37.379  42.018  13.989
 3253W        W76321  13.189  15.429   0.949
 3254W        W76322   2.236  23.448  11.557
 3255W        W76323  43.213  18.100  11.572
 3256W        W76324  12.303   2.969   4.777
 3257W        W76325  22.481  39.841  13.027
 3258W        W76326  33.409  12.283   4.030
 3259W        W76327  27.582  11.765  11.492
 3260W        W76328  38.400  15.161   0.414
 3261W        W76329  24.217   7.503  13.235
 3262W        W76330  34.368  42.779  13.488
 3263W        W76331  24.206   1.556   4.432
 3264W        W76332  24.442  22.765  14.377
 3265W        W76333  30.720  34.430  12.921
 3266W        W76334  43.494  18.568   4.253
 3267W        W76335  37.096  38.954   3.935
 3268W        W76336  34.526   8.560   3.165
 3269W        W76337  28.544  16.965  12.996
 3270W        W76338  16.266  41.041  11.419
 3271W        W76339  17.759  41.824   2.819
 3272W        W76340  34.007  28.599   2.459
 3273W        W76341  15.251  34.950   1.661
 3274W        W76342  25.612  34.875  13.096
 3275W        W76343  38.616  44.891  12.076
 3276W        W76344  44.288  16.357   2.331
 3277W        W76345  42.081  13.350   1.813
 3278W        W76346   1.267   1.894   4.047
 3279W        W76347  14.567  23.728   3.328
 3280W        W76348  24.816  18.787  10.264
 3281W        W76349  14.222  26.989   3.628
 3282W        W76350  26.628  24.701   2.370
 3283W        W76351  41.828  29.486  12.457
 3284W        W76352   4.652  31.187   1.463
 3285W        W76353   7.448  37.287   4.555
 3286W        W76354  20.398   5.965  12.499
 3287W        W76355  35.524  32.370   3.537
 3288W        W76356  43.745  35.382   0.877
 3289W        W76357   4.642   7.856   2.326
 3290W        W76358  30.892  34.125   2.763
 3291W        W76359  27.594  19.054  10.370
 3292W        W76360  37.066  14.620  11.553
 3293W        W76361  35.131  26.084  14.490
 3294W        W76362  28.688  27.101  14.140
 3295W        W76363  16.625  34.844  12.476
 3296W        W76364  30.333  16.992  12.484
 3297W        W76365  42.487  11.322  12.736
 3298W        W76366  34.800   8.798  10.687
 3299W        W76367  23.181  26.140   2.836
 3300W        W76368  39.908  14.036   0.738
 3301W        W76369   2.643  37.725   2.200
 3302W        W76370  22.051  20.780  14.534
 3303W        W76371  28.629  43.551  13.062
 3304W        W76372  22.488   0.293   2.296
 3305W        W76373  35.762  16.795   0.029
 3306W        W76374  12.511  25.090  13.325
 3307W        W76375  41.105  13.334   5.031
 3308W        W76376  26.549  27.530  14.231
 3309W        W76377  34.641  14.137   0.995
 3310W        W76378  11.524  17.149   9.738
 3311W        W76379  37.606  29.037  13.868
 3312W        W76380   9.170  35.830   0.943
 3313W        W76381  38.708  27.241   1.960
 3314W        W76382   5.091  12.162  11.108
 3315W        W76383  40.580  44.839   4.553
 3316W        W76384  37.668   8.680   3.414
 3317W        W76385  18.181  39.349   3.127
 3318W        W76386   4.788  22.707  13.804
 3319W        W76387  31.534  28.527  14.736
 3320W        W76388   7.265  35.788   1.130
 3321W        W76389  40.952   4.506  12.639
 3322W        W76390  16.099  28.935   2.860
 3323W        W76391  35.206  37.265  13.942
 3324W        W76392  29.171  25.463  14.988
 3325W        W76393  18.689   3.690  11.617
 3326W        W76394   1.449   6.436  14.397
 3327W        W76395   4.018  35.510   0.835
 3328W        W76396  37.107   0.445   2.332
 3329W        W76397   3.890  38.832   0.251
 3330W        W76398   5.228  10.379   0.283
 3331W        W76399  27.794  36.573   3.250
 3332W        W76400  24.009  13.354   2.177
 3333W        W76401  44.167  44.667  11.198
 3334W        W76402   8.002  10.264   0.400
 3335W        W76403   8.177  43.018   3.699
 3336W        W76404  40.746   2.336  11.135
 3337W        W76405  18.858  25.083   4.614
 3338W        W76406  25.063  36.359   2.414
 3339W        W76407  14.494   9.012   3.119
 3340W        W76408  13.441  40.446   0.181
 3341W        W76409  35.048   6.170   0.473
 3342W        W76410  18.048   8.845  11.155
 3343W        W76411  22.897  44.676  11.107
 3344W        W76412  23.107  25.181   2.826
 3345W        W76413  40.024  16.701   3.302
 3346W        W76414  11.910  17.610  10.274
 3347W        W76415   0.652   8.770  13.332
 3348W        W76416  43.405   7.419  10.517
 3349W        W76417  42.308  39.429  10.746
 3350W        W76418  26.018   2.521  14.351
 3351W        W76419   3.754   0.838   2.291
 3352W        W76420  12.620   7.297   4.223
 3353W        W76421  37.514   1.934  12.979
 3354W        W76422  43.236  33.001   2.280
 3355W        W76423  28.740   6.161  13.418
 3356W        W76424  41.885   5.444  12.966
 3357W        W76425   5.617  19.109   3.626
 3358W        W76426  19.731  18.000   0.858
 3359W        W76427  18.156  15.111  10.533
 3360W        W76428  20.264  28.804  11.494
 3361W        W76429  35.392  31.791  11.031
 3362W        W76430   0.175   4.074   2.306
 3363W        W76431  36.937  20.811   1.915
 3364W        W76432   3.433   0.757  13.031
 3365W        W76433  41.516  16.389   3.775
 3366W        W76434  29.576   5.696   3.377
 3367W        W76435  41.372  29.442   4.350
 3368W        W76436  40.886  13.419  12.087
 3369W        W76437  40.737  30.011  12.916
 3370W        W76438  28.228  37.610  12.497
 3371W        W76439  40.022  30.375   1.275
 3372W        W76440  17.723  39.916   4.129
 3373W        W76441  41.294  29.631  14.908
 3374W        W76442  14.352  37.590   3.582
 3375W        W76443  41.795  35.057  12.931
 3376W        W76444  30.026  14.550   2.756
 3377W        W76445  34.976  25.132  13.023
 3378W        W76446  26.497   7.211   3.329
 3379W        W76447  14.396  42.919  10.701
 3380W        W76448  39.078  22.950  11.761
 3381W        W76449  21.604  21.606  10.560
 3382W        W76450  28.983  16.478   2.311
 3383W        W76451  39.320  42.946  11.985
 3384W        W76452  12.736   6.959  14.536
 3385W        W76453  44.239  27.028  14.550
 3386W        W76454  40.085  14.642   0.966
 3387W        W76455   5.316  39.788  12.490
 3388W        W76456  32.839  43.198   4.181
 3389W        W76457  36.294  16.711   3.654
 3390W        W76458  18.002  34.648  12.508
 3391W        W76459  11.969  38.144  11.218
 3392W        W76460  40.384  44.203  10.594
 3393W        W76461  13.306   4.956   1.331
 3394W        W76462  14.372  35.350  12.282
 3395W        W76463  42.283   9.869  13.696
 3396W        W76464  36.467  38.343   0.238
 3397W        W76465  14.663  39.084  10.793
 3398W        W76466  35.265  17.470  13.448
 3399W        W76467  41.237  35.364   4.153
 3400W        W76468  11.714  35.547  12.429
 3401W        W76469  27.603  11.702  10.448
 3402W        W76470  44.370   7.628  12.001
 3403W        W76471  37.545   6.182  13.990
 3404W        W76472   9.799  29.247   2.362
 3405W        W76473  10.682   9.523  12.437
 3406W        W76474  27.728   4.763   2.837
 3407W        W76475  32.343  43.941   2.895
 3408W        W76476   9.873  42.562  12.397
 3409W        W76477  18.589  14.815  13.452
 3410W        W76478   3.386  10.267  13.009
 3411W        W76479  42.886  15.758  12.415
 3412W        W76480  19.703  10.455   3.635
 3413W        W76481  33.949  42.743  12.583
 3414W        W76482   1.889   3.653   0.882
 3415W        W76483   3.526  32.533   4.052
 3416W        W76484  43.998  31.529  14.471
 3417W        W76485  27.508  44.751  13.806
 3418W        W76486  34.504  43.708  12.043
 3419W        W76487  16.829  31.209   0.928
 3420W        W76488  20.698  35.075  13.059
 3421W        W76489  30.383   5.637  14.907
 3422W        W76490  42.347  33.133   2.219
 3423W        W76491   1.243  13.815  11.502
 3424W        W76492  33.487  41.075   4.705
 3425W        W76493   1.554  33.569   4.263
 3426W        W76494  22.696  33.421   4.239
 3427W        W76495  34.997  42.760   3.721
 3428W        W76496   6.868  35.198   4.151
 3429W        W76497  41.023  30.432  14.472
 3430W        W76498  36.231  14.750   3.536
 3431W        W76499   9.330   3.729   4.121
 3432W        W76500  34.017  41.252  14.986
 3433W        W76501  11.235  14.600  12.375
 3434W        W76502  14.612   2.215  14.739
 3435W        W76503  36.443  11.759  13.938
 3436W        W76504  35.909   6.448   1.932
 3437W        W76505   4.478  26.576  13.013
 3438W        W76506   9.139  18.256   2.393
 3439W        W76507  15.649  21.311  12.571
 3440W        W76508  26.248  36.013   4.582
 3441W        W76509  32.802  16.526  14.974
 3442W        W76510  29.085  34.150   3.550
 3443W        W76511  14.684  32.928  12.375
 3444W        W76512  44.700   4.237  14.781
 3445W        W76513  31.524  21.709   4.170
 3446W        W76514   0.348  16.261  11.941
 3447W        W76515  12.078   8.350  10.725
 3448W        W76516  10.741   8.727   1.911
 3449W        W76517  43.080  13.795   2.423
 3450W        W76518  29.067  22.725   1.894
 3451W        W76519  20.236  18.171  11.901
 3452W        W76520  34.849  11.356  10.180
 3453W        W76521  24.939  21.594   1.109
 3454W        W76522   3.320  15.400   3.520
 3455W        W76523  21.323   0.886   0.881
 3456W        W76524  25.868  17.754   3.379
 3457W        W76525  16.206  36.357   3.903
 3458W        W76526  29.142  39.155   1.643
 3459W        W76527  42.136  30.691   2.884
 3460W        W76528  14.894  43.062   3.324
 3461W        W76529  39.558   7.769  13.987
 3462W        W76530  25.947  16.783  11.689
 3463W        W76531  28.523  19.805  13.461
 3464W        W76532  11.338   9.375   1.416
 3465W        W76533  14.871   1.544   3.546
 3466W        W76534  23.714   1.052  14.743
 3467W        W76535   6.941  18.654  11.291
 3468W        W76536   5.894  15.590   3.364
 3469W        W76537   5.299  15.771   4.653
 3470W        W76538  27.703  32.027   3.714
 3471W        W76539   5.631  44.900   3.600
 3472W        W76540   8.163  33.535  13.066
 3473W        W76541  20.344  37.828   3.306
 3474W        W76542  41.045  29.678   4.675
 3475W        W76543  15.115  19.604  14.432
 3476W        W76544  17.526  26.666   0.164
 3477W        W76545   2.321  18.869  12.537
 3478W        W76546  12.699  22.802  13.935
 3479W        W76547  38.938  16.068   0.396
 3480W        W76548  31.600  17.203   3.746
 3481W        W76549  43.955   3.605  13.369
 3482W        W76550   8.299  35.429  14.636
 3483W        W76551  36.462  34.651  10.103
 3484W        W76552  42.342  28.333  12.906
 3485W        W76553  33.117  16.714  11.258
 3486W        W76554  29.396  15.270   3.161
 3487W        W76555   6.668  22.546   4.585
 3488W        W76556   3.494  14.841  11.137
 3489W        W76557  16.751  37.827  14.548
 3490W        W76558   2.818  10.879   2.601
 3491W        W76559   7.888  10.475  14.028
 3492W        W76560  26.108  43.300   4.474
 3493W        W76561   1.166   2.744   2.192
 3494W        W76562  11.385  42.461  12.801
 3495W        W76563  41.261  36.832  13.499
 3496W        W76564  21.748  12.649   2.136
 3497W        W76565  20.494  23.098  12.581
 3498W        W76566  19.672  27.025   4.602
 3499W        W76567  22.192  30.972   2.250
 3500W        W76568   6.467   7.400   3.341
 3501W        W76569   7.509   2.800  11.066
 3502W        W76570  42.347  12.405   1.809
 3503W        W76571  35.087  10.352  14.351
 3504W        W76572  36.511  26.909   2.535
 3505W        W76573  39.525  24.050  14.424
 3506W        W76574   8.774   0.994  10.655
 3507W        W76575  42.939  22.559   3.259
 3508W        W76576  24.833   2.273  10.735
 3509W        W76577  39.546  11.393   1.887
 3510W        W76578  41.381  11.786   4.079
 3511W        W76579   6.404  17.742   0.818
 3512W        W76580  30.124  29.235   1.359
 3513W        W76581  11.640  21.944   4.715
 3514W        W76582   6.576  22.748   0.014
 3515W        W76583  36.983  11.718   2.346
 3516W        W76584  12.561  26.193  14.959
 3517W        W76585  28.449  17.425   2.720
 3518W        W76586  20.919  12.789  14.431
 3519W        W76587   4.905   1.211   0.080
 3520W        W76588  34.987  32.041  13.371
 3521W        W76589  32.623   1.420  11.190
 3522W        W76590  43.888  29.458   4.342
 3523W        W76591  30.251   5.153  12.239
 3524W        W76592   0.244  42.541   1.226
 3525W        W76593  43.635   7.547  13.506
 3526W        W76594  13.420  22.107   3.258
 3527W        W76595  20.429  10.721   0.364
 3528W        W76596  29.164   2.275  14.797
 3529W        W76597  18.277  38.581  10.678
 3530W        W76598  37.000  31.737  12.981
 3531W        W76599  36.006   4.307   1.475
 3532W        W76600  16.885   7.263   5.205
 3533W        W76601  10.706  28.153  13.141
 3534W        W76602  41.827  44.737   0.681
 3535W        W76603  36.103  41.859  11.984
 3536W        W76604  11.833   5.952   2.871
 3537W        W76605  30.100  34.799   1.275
 3538W        W76606  12.014  12.814  14.546
 3539W        W76607  18.063  12.353  10.917
 3540W        W76608   3.714   6.438  13.845
 3541W        W76609  26.494   0.812   3.674
 3542W        W76610  29.023  36.410   1.778
 3543W        W76611  38.079   0.349  14.175
 3544W        W76612  36.547  38.844  14.921
 3545W        W76613  11.595  11.216  13.555
 3546W        W76614  42.946  44.928  13.544
 3547W        W76615   8.853  22.119  11.433
 3548W        W76616  41.537  24.021  14.812
 3549W        W76617  33.065   2.217   3.887
 3550W        W76618  38.617  37.780   2.688
 3551W        W76619  33.377   6.384  10.735
 3552W        W76620  44.812   9.358  14.767
 3553W        W76621  11.856  32.529  13.464
 3554W        W76622  31.217  37.708   1.381
 3555W        W76623  12.374  28.557  14.886
 3556W        W76624  19.828  29.472   4.544
 3557W        W76625  13.635   0.791   0.052
 3558W        W76626  25.733  11.142   0.510
 3559W        W76627   1.051  16.090   0.800
 3560W        W76628  24.941   6.498  11.094
 3561W        W76629  22.636  13.113  12.800
 3562W        W76630  28.339  35.603  12.541
 3563W        W76631   3.920  24.766   2.058
 3564W        W76632  36.601   2.396  13.293
 3565W        W76633  37.557  20.753  11.579
 3566W        W76634  27.594   1.067  12.558
 3567W        W76635  12.772  31.336   2.728
 3568W        W76636  30.643   0.625   0.026
 3569W        W76637  37.016  28.517   0.500
 3570W        W76638  13.372   1.624  14.054
 3571W        W76639  14.738  15.863  11.225
 3572W        W76640  22.226   3.972  12.857
 3573W        W76641  10.363  25.367   3.665
 3574W        W76642  13.711   3.919  10.813
 3575W        W76643  13.787   1.255  10.367
 3576W        W76644  22.542  17.508  11.615
 3577W        W76645   9.395   4.440   2.423
 3578W        W76646  40.911  32.521  14.350
 3579W        W76647  14.118  30.681  13.331
 3580W        W76648  42.558  14.729  14.075
 3581W        W76649  32.426  43.511   4.201
 3582W        W76650   8.579  24.329  13.248
 3583W        W76651  15.179   2.548  12.836
 3584W        W76652  27.931   0.063   3.791
 3585W        W76653   3.215  22.601  11.993
 3586W        W76654  27.278  16.824   4.727
 3587W        W76655  35.968  29.215   0.909
 3588W        W76656   9.926  43.407  14.077
 3589W        W76657  25.220  14.172   0.805
 3590W        W76658  43.352  15.908   3.640
 3591W        W76659  44.056  29.993   3.835
 3592W        W76660  10.712  29.506  13.965
 3593W        W76661  28.381   3.330   1.317
 3594W        W76662   4.941   6.420  13.593
 3595W        W76663  39.821   1.333  10.714
 3596W        W76664  15.265  29.032   3.574
 3597W        W76665  17.730  37.118  10.576
 3598W        W76666   4.265  28.420   4.673
 3599W        W76667  33.900   0.528   3.271
 3600W        W76668  27.041  30.220  13.413
 3601W        W76669  24.093   0.519   1.432
 3602W        W76670  32.409  43.557  11.482
 3603W        W76671   5.681  12.861   3.661
 3604W        W76672   1.861   6.153   4.046
 3605W        W76673   0.188   6.501  14.016
 3606W        W76674   6.115  20.547   3.174
 3607W        W76675  20.952  33.319   1.807
 3608W        W76676  16.236  34.447  10.663
 3609W        W76677   6.170  43.234  13.656
 3610W        W76678  40.971  27.600   0.786
 3611W        W76679  21.220   0.609   2.388
 3612W        W76680  30.002  26.091  11.385
 3613W        W76681  27.884   7.893   4.342
 3614W        W76682  38.803  18.645   1.975
 3615W        W76683  25.579  11.180   0.012
 3616W        W76684  22.087  22.192   4.522
 3617W        W76685  15.147  23.983  12.960
 3618W        W76686  26.181  24.776  10.672
 3619W        W76687  42.259  19.932  11.102
 3620W        W76688  31.818  33.005  13.896
 3621W        W76689  12.357  33.334   1.285
 3622W        W76690  12.112  32.917   2.290
 3623W        W76691   6.027  12.886   0.933
 3624W        W76692  14.489  25.712  13.462
 3625W        W76693  36.024  26.983   2.699
 3626W        W76694  22.153  24.371  13.577
 3627W        W76695  24.370  24.271  13.294
 3628W        W76696  26.683  13.062  14.704
 3629W        W76697  28.644  18.358   4.251
 3630W        W76698  19.727   4.961  11.890
 3631W        W76699  43.545  38.427  12.086
 3632W        W76700  14.955   4.779   3.052
 3633W        W76701  19.714  14.440  14.558
 3634W        W76702  39.358   4.964   3.749
 3635W        W76703  24.840  29.593   0.839
 3636W        W76704  42.229  43.808  12.999
 3637W        W76705  20.772  36.025  10.708
 3638W        W76706  18.622  31.819  14.773
 3639W        W76707  11.177  40.471   4.196
 3640W        W76708  13.342   4.590  13.849
 3641W        W76709  11.678  12.239  11.812
 3642W        W76710  27.685  35.840  13.617
 3643W        W76711  11.637   4.807   0.797
 3644W        W76712  43.322   2.448   0.064
 3645W        W76713   0.012  33.058  12.600
 3646W        W76714   9.127   1.292  11.218
 3647W        W76715  11.527  19.570  13.677
 3648W        W76716  18.592  40.159   4.118
 3649W        W76717  17.856  33.592  10.770
 3650W        W76718  44.874  19.764  10.954
 3651W        W76719  37.329  14.356  14.385
 3652W        W76720  13.592  35.305   0.252
 3653W        W76721  19.887  44.009   0.407
 3654W        W76722  37.659  41.758   3.276
 3655W        W76723   3.779   9.061   1.279
 3656W        W76724  39.874  40.485   4.073
 3657W        W76725   8.057  37.886  13.274
 3658W        W76726  19.447  12.231   0.994
 3659W        W76727  26.235   9.542  12.854
 3660W        W76728  41.127  25.884  10.971
 3661W        W76729  28.603  29.047  14.975
 3662W        W76730  19.013   0.199   4.119
 3663W        W76731  13.684  12.664  14.372
 3664W        W76732  43.502  42.260   3.920
 3665W        W76733  39.957  23.335  13.157
 3666W        W76734  30.306   7.838  13.043
 3667W        W76735   6.750   8.385   2.761
 3668W        W76736  35.562  11.354  10.682
 3669W        W76737  44.259  14.220   1.499
 3670W        W76738  42.208  32.819  14.803
 3671W        W76739  22.639   4.273   3.955
 3672W        W76740  10.109  28.140  14.027
 3673W        W76741  32.417  15.896   5.092
 3674W        W76742  23.768  17.273   4.582
 3675W        W76743  28.622  18.588   1.851
 3676W        W76744  28.486  12.050   5.317
 3677W        W76745  27.668   0.963   0.538
 3678W        W76746   8.416   4.227  10.683
 3679W        W76747  40.851  24.676   3.360
 3680W        W76748  32.340  32.120   3.158
 3681W        W76749  41.928   8.139   4.248
 3682W        W76750  30.565  42.857   1.948
 3683W        W76751  21.587  14.060   4.225
 3684W        W76752  11.328  14.075  11.088
 3685W        W76753  30.929   3.165   1.797
 3686W        W76754  36.370  32.458   0.828
 3687W        W76755  27.298  20.462   4.378
 3688W        W76756  20.624  42.015   0.925
 3689W        W76757  44.463  40.705   1.100
 3690W        W76758  21.304  40.417  11.941
 3691W        W76759  32.624  39.040  11.301
 3692W        W76760  22.913  21.767  12.701
 3693W        W76761  19.808  28.571   4.887
 3694W        W76762  26.801  32.954   0.419
 3695W        W76763  32.412   8.893   4.114
 3696W        W76764  36.877  20.048   4.167
 3697W        W76765   4.398   5.717   1.274
 3698W        W76766  30.647  30.835  14.443
 3699W        W76767  13.206  15.398  11.233
 3700W        W76768   5.468  41.909   3.156
 3701W        W76769  14.455  36.692  14.662
 3702W        W76770  40.903  17.146   3.246
 3703W        W76771  32.432  41.375   0.371
 3704W        W76772  17.704  36.892  14.285
 3705W        W76773  10.763  23.935  11.036
 3706W        W76774   6.803  16.042   3.194
 3707W        W76775   8.640  37.777   4.706
 3708W        W76776  21.232   6.823  13.099
 3709W        W76777  30.067  26.243   1.921
 3710W        W76778  33.380  13.287  13.003
 3711W        W76779  43.531   9.580   0.523
 3712W        W76780   6.347  43.779  14.986
 3713W        W76781  21.480  38.954  12.727
 3714W        W76782   3.781   0.258  10.583
 3715W        W76783  20.584  44.893  11.706
 3716W        W76784  25.668  37.585   0.195
 3717W        W76785  27.948  17.650   4.594
 3718W        W76786  43.998   2.878  10.780
 3719W        W76787  24.407  36.435  13.880
 3720W        W76788  34.758  41.932  12.132
 3721W        W76789  31.403   0.943  11.871
 3722W        W76790   6.772  36.043  11.143
 3723W        W76791  25.583  22.826  14.631
 3724W        W76792  17.247  37.411  13.080
 3725W        W76793  11.194  27.708   4.511
 3726W        W76794  12.093   5.998  11.010
 3727W        W76795  16.789  17.520  10.658
 3728W        W76796  18.335  12.830   3.122
 3729W        W76797  24.100  17.331  14.078
 3730W        W76798  35.401  28.972   4.020
 3731W        W76799  28.815  26.689  11.627
 3732W        W76800  29.033   7.391   3.233
 3733W        W76801  13.959  25.221  11.162
 3734W        W76802   9.001  39.104   0.956
 3735W        W76803   7.740  27.619  11.014
 3736W        W76804   9.779   3.394   1.044
 3737W        W76805  28.859  23.192   1.969
 3738W        W76806   2.871  15.541  11.653
 3739W        W76807  13.329  17.577   1.624
 3740W        W76808  23.289  37.102   0.199
 3741W        W76809  41.037   0.848  14.366
 3742W        W76810  22.572  44.188   4.121
 3743W        W76811  37.435  22.974   1.325
 3744W        W76812  20.317  11.953  12.140
 3745W        W76813   2.799  32.472   4.528
 3746W        W76814  28.578   8.397   1.939
 3747W        W76815  31.353   2.527   0.438
 3748W        W76816  25.360   0.252   0.269
 3749W        W76817  12.861  34.161   1.299
 3750W        W76818  36.656  22.138   4.708
 3751W        W76819  30.421  10.650   2.241
 3752W        W76820  33.958  32.208   2.617
 3753W        W76821  29.439   8.658  12.011
 3754W        W76822  26.689  41.361  12.972
 3755W        W76823  10.838   8.254   3.290
 3756W        W76824  31.600  24.734   0.948
 3757W        W76825  42.924  38.222   3.646
 3758W        W76826  23.097  37.027   2.738
 3759W        W76827  41.414  14.632  11.175
 3760W        W76828  13.311  43.269  11.150
 3761W        W76829  40.659  40.354   0.796
 3762W        W76830  38.234  11.783  13.323
 3763W        W76831   0.797  11.574  11.149
 3764W        W76832  32.883   0.724  13.006
 3765W        W76833   9.891  31.727   1.699
 3766W        W76834  42.082  26.996  11.561
 3767W        W76835  42.846  14.389   4.176
 3768W        W76836  32.475  22.264   1.732
 3769W        W76837  15.863   8.749  12.180
 3770W        W76838  30.210   4.629  12.090
 3771W        W76839  41.270  37.118   4.154
 3772W        W76840  11.031   4.755   3.178
 3773W        W76841  19.640   5.565   3.758
 3774W        W76842  28.618   3.425   1.777
 3775W        W76843  18.033   6.048  13.635
 3776W        W76844  21.879  24.137  12.108
 3777W        W76845  12.858  37.345  11.621
 3778W        W76846  39.006  44.430   1.222
 3779W        W76847  33.099  38.591  14.913
 3780W        W76848  33.306   5.103   4.343
 3781W        W76849  18.541  32.080   1.503
 3782W        W76850  32.089  34.358   0.972
 3783W        W76851  25.687   2.459  13.056
 3784W        W76852  16.757  17.651   2.289
 3785W        W76853  32.687  43.314  13.839
 3786W        W76854  21.515  24.964  10.713
 3787W        W76855  17.296  34.496  12.406
 3788W        W76856   5.510  34.070  10.551
 3789W        W76857  14.248   2.945  12.075
 3790W        W76858   8.958  16.218   3.812
 3791W        W76859   3.763  38.082   3.114
 3792W        W76860  44.571  22.982  11.887
 3793W        W76861  27.006  14.171   0.355
 3794W        W76862  21.359  38.917   3.170
 3795W        W76863  20.803   7.741  12.147
 3796W        W76864  23.023  15.561  12.744
 3797W        W76865  17.158   8.667  11.926
 3798W        W76866  27.031   3.004   0.240
 3799W        W76867   0.910   9.001  10.942
 3800W        W76868   1.452   7.836  13.387
 3801W        W76869   1.686  43.300  14.872
 3802W        W76870  42.658  12.192   0.911
 3803W        W76871   0.259   5.487  11.537
 3804W        W76872  35.955  17.063   4.554
 3805W        W76873  13.850   9.704  10.737
 3806W        W76874   4.422  25.053  14.889
 3807W        W76875  26.418  32.605   3.714
 3808W        W76876  36.430  14.957  13.325
 3809W        W76877  18.661  34.912  13.420
 3810W        W76878  44.840  39.128  12.935
 3811W        W76879  15.700  36.512   2.699
 3812W        W76880  38.792  36.709  11.117
 3813W        W76881  24.149  30.466  11.654
 3814W        W76882  10.164   7.168   1.462
 3815W        W76883  21.237   6.723  14.432
 3816W        W76884  17.730  43.071  14.381
 3817W        W76885  37.007  16.872  14.295
 3818W        W76886  14.809  15.075  10.762
 3819W        W76887  29.243  21.148  13.992
 3820W        W76888   8.246  11.751   4.609
 3821W        W76889  17.383  23.730  13.787
 3822W        W76890   3.060  36.427  14.270
 3823W        W76891  18.505  25.076  14.858
 3824W        W76892  36.368   1.369   2.871
 3825W        W76893  16.579  18.528  10.553
 3826W        W76894   3.014  11.175  11.372
 3827W        W76895  16.252  30.041  12.987
 3828W        W76896   9.323  41.703  11.358
 3829W        W76897   4.028  37.841  12.510
 3830W        W76898  39.769   9.583  13.887
 3831W        W76899   3.612  12.483   1.712
 3832W        W76900   5.042  21.780   2.385
 3833W        W76901   7.442   7.415  10.683
 3834W        W76902  28.417  30.661  12.576
 3835W        W76903  20.144   8.135   0.312
 3836W        W76904  41.547  22.451  10.999
 3837W        W76905  30.535  16.305  11.072
 3838W        W76906  44.524  16.030  12.435
 3839W        W76907  27.772   9.941  11.701
 3840W        W76908   0.685  32.491  11.482
 3841W        W76909  21.226  31.084  14.099
 3842W        W76910  27.338  31.546  13.018
 3843W        W76911   1.994   0.837  14.039
 3844W        W76912  15.856  30.461   0.380
 3845W        W76913   3.010  24.569   2.147
 3846W        W76914  37.056  28.092  12.608
 3847W        W76915  31.503  37.354  14.919
 3848W        W76916  25.938  35.257   2.800
 3849W        W76917  20.732  38.441  12.399
 3850W        W76918  18.677   3.811   0.170
 3851W        W76919  10.802  22.708   3.831
 3852W        W76920  20.809  32.808  11.044
 3853W        W76921   7.937  16.267  11.629
 3854W        W76922  15.003   9.298  12.008
 3855W        W76923   2.830  38.657   3.124
 3856W        W76924  17.534  35.501   4.434
 3857W        W76925  17.754  25.651   3.803
 3858W        W76926  20.637   9.579  11.992
 3859W        W76927  34.911  27.438  12.169
 3860W        W76928  36.074  12.914  10.782
 3861W        W76929  43.023  26.071  12.161
 3862W        W76930  41.287   8.143  10.348
 3863W        W76931  19.562  29.746  10.813
 3864W        W76932  39.108  17.248  14.690
 3865W        W76933  25.998  13.108  11.703
 3866W        W76934  33.995  31.198  10.944
 3867W        W76935  29.475   3.057   1.773
 3868W        W76936  39.923  14.372  14.150
 3869W        W76937  31.585  24.144  10.823
 3870W        W76938  44.133  36.406   1.673
 3871W        W76939  41.024  25.212  10.635
 3872W        W76940  33.541  39.800  13.722
 3873W        W76941  44.929  21.916   2.263
 3874W        W76942  26.732  42.263   3.269
 3875W        W76943  14.262  37.299   4.574
 3876W        W76944  31.380  16.610   3.315
 3877W        W76945  37.607  33.390   3.685
 3878W        W76946  34.381  41.563   3.700
 3879W        W76947  12.151   0.877   2.815
 3880W        W76948  20.097  13.495   0.128
 3881W        W76949  20.501  32.126   2.096
 3882W        W76950  38.295  44.900  14.230
 3883W        W76951  20.987  35.862  11.162
 3884W        W76952  39.099  24.002   3.266
 3885W        W76953  42.637  41.379   1.396
 3886W        W76954  23.992  43.334  14.499
 3887W        W76955  41.550  29.971   2.318
 3888W        W76956   7.181  22.762   2.341
 3889W        W76957   1.707  41.856   4.493
 3890W        W76958  36.487   2.307   3.812
 3891W        W76959  18.252   4.814  13.542
 3892W        W76960   9.148  20.100  11.569
 3893W        W76961  40.032  23.488  14.462
 3894W        W76962   2.235  20.605  14.038
 3895W        W76963  31.905  28.835  13.484
 3896W        W76964  39.033   9.035   5.066
 3897W        W76965   3.425   4.541  14.801
 3898W        W76966   9.653   8.403   2.884
 3899W        W76967  36.662   0.478   1.739
 3900W        W76968  35.346  21.653   0.684
 3901W        W76969   7.364  23.210   2.830
 3902W        W76970  27.735  13.809  13.487
 3903W        W76971   1.363   4.466  14.409
 3904W        W76972  13.715  24.440   4.736
 3905W        W76973  16.759  31.439  13.284
 3906W        W76974  41.955  37.082  13.333
 3907W        W76975  22.087  36.653   1.292
 3908W        W76976  19.722  32.780  12.925
 3909W        W76977   0.904  28.867  11.482
 3910W        W76978  23.877  30.447  14.357
 3911W        W76979  11.648  23.578   0.298
 3912W        W76980  19.985  12.223  10.796
 3913W        W76981  25.522  10.086   1.985
 3914W        W76982  19.276  26.049   0.245
 3915W        W76983   9.423  35.527   2.545
 3916W        W76984   1.475  32.003   1.805
 3917W        W76985  44.031  24.371  13.311
 3918W        W76986  29.622  44.938  14.429
 3919W        W76987  10.860  28.943  13.689
 3920W        W76988   7.221  11.207   1.542
 3921W        W76989  15.080  19.306  12.418
 3922W        W76990  37.616  11.227  14.521
 3923W        W76991  20.822  17.104  14.776
 3924W        W76992  24.226  37.312  12.566
 3925W        W76993  28.184  15.700   2.730
 3926W        W76994  42.397  15.715  13.132
 3927W        W76995  14.406  37.645  13.657
 3928W        W76996  44.235  10.396  12.437
 3929W        W76997   1.433   6.952   3.547
 3930W        W76998  37.401  25.035  13.975
 3931W        W76999   7.671  38.061  14.855
 3932W        W77000  35.609  23.985  10.606
 3933W        W77001   1.268  42.272   3.651
 3934W        W77002  23.448  21.941  11.563
 3935W        W77003  20.999  16.338   1.807
 3936W        W77004   9.861  36.692   2.147
 3937W        W77005  16.558  35.179  12.031
 3938W        W77006  33.986  31.400  11.419
 3939W        W77007  11.655   0.022   1.965
 3940W        W77008   7.480  38.425   4.585
 3941W        W77009  22.713  43.441  11.873
 3942W        W77010  29.364  11.560  14.961
 3943W        W77011  32.852  22.210   0.429
 3944W        W77012   0.534  44.522   1.743
 3945W        W77013  35.993  19.980   1.402
 3946W        W77014  20.143  35.561   0.806
 3947W        W77015   2.424  14.581   4.916
 3948W        W77016   8.032  37.334  12.399
 3949W        W77017  24.643  33.998   2.625
 3950W        W77018  36.795  26.362  10.797
 3951W        W77019  19.281  23.099   2.648
 3952W        W77020  16.800  22.987  13.780
 3953W        W77021  17.894  23.846   1.853
 3954W        W77022   9.356  12.378  11.661
 3955W        W77023  14.354  21.961  10.713
 3956W        W77024   7.806  23.256   3.142
 3957W        W77025  11.414   0.935  11.118
 3958W        W77026  44.386  32.909   3.718
 3959W        W77027  15.747  36.538   3.650
 3960W        W77028  24.475  10.785  11.316
 3961W        W77029  14.291  44.731  12.739
 3962W        W77030  36.169  17.329  11.667
 3963W        W77031  10.602  13.154   4.078
 3964W        W77032  36.925  33.422   4.614
 3965W        W77033  19.257  33.043   0.845
 3966W        W77034  15.192  10.887   4.201
 3967W        W77035  35.918  12.313   2.741
 3968W        W77036  41.270   1.923  12.969
 3969W        W77037  28.728  17.862   2.307
 3970W        W77038  41.553  17.975  12.012
 3971W        W77039  11.210  21.145  13.593
 3972W        W77040  28.393  23.977  11.615
 3973W        W77041  19.216  30.426  11.672
 3974W        W77042   2.253   4.346   1.825
 3975W        W77043   2.372  32.630   4.927
 3976W        W77044  43.889  35.598  14.462
 3977W        W77045  38.462  11.279  14.776
 3978W        W77046  28.175  28.986  14.661
 3979W        W77047  17.784  19.544  12.959
 3980W        W77048  42.869  40.885  14.274
 3981W        W77049  42.806  44.201   4.265
 3982W        W77050  32.421  19.571  13.311
 3983W        W77051  35.117  14.215  14.868
 3984W        W77052  37.860  33.561   2.705
 3985W        W77053  20.638  17.038   0.750
 3986W        W77054  26.981   8.510   1.850
 3987W        W77055  41.618  43.038  14.305
 3988W        W77056  41.821  37.460  12.984
 3989W        W77057  15.981   6.927   0.034
 3990W        W77058  15.783   3.520   3.349
 3991W        W77059   6.230  13.793   2.919
 3992W        W77060   6.427   7.560  11.097
 3993W        W77061  22.700  23.410  11.244
 3994W        W77062   0.810  39.555   4.098
 3995W        W77063  28.947  37.169  12.892
 3996W        W77064  28.829   1.619  11.492
 3997W        W77065  11.365  40.610   1.794
 3998W        W77066   8.168   0.260  13.831
 3999W        W77067   8.193  17.925  11.711
 4000W        W77068  18.414  37.798  10.658
 4001W        W77069  15.324  42.740   1.948
 4002W        W77070   0.083  13.236   2.634
 4003W        W77071  23.553   2.483  14.669
 4004W        W77072  21.165  27.738   4.519
 4005W        W77073   5.460  21.855  13.922
 4006W        W77074  16.912   9.895   1.809
 4007W        W77075  31.627  30.182  11.079
 4008W        W77076   2.263  34.695   0.966
 4009W        W77077  30.700  16.984  13.545
 4010W        W77078  21.655  24.077   4.624
 4011W        W77079  44.291   6.713  13.927
 4012W        W77080   7.213  37.585   1.643
 4013W        W77081   2.132  18.227   4.690
 4014W        W77082  38.408   2.121  12.258
 4015W        W77083  35.986  13.093   2.204
 4016W        W77084  20.240  29.496   4.225
 4017W        W77085  23.656  42.413  12.892
 4018W        W77086  31.409   9.739  11.475
 4019W        W77087  13.388  14.217   3.594
 4020W        W77088  22.367   4.105  13.335
 4021W        W77089  44.704  10.095  13.111
 4022W        W77090   7.382  31.693  10.644
 4023W        W77091  33.122  30.700  13.411
 4024W        W77092  21.528  10.133   3.674
 4025W        W77093  40.971  20.004  10.707
 4026W        W77094  24.219  34.515  12.352
 4027W        W77095  15.066  13.314  11.547
 4028W        W77096  39.172  22.164   0.497
 4029W        W77097  43.964  44.132   4.985
 4030W        W77098  42.585   3.475  12.734
 4031W        W77099  16.125  18.276   1.350
 4032W        W77100   2.824  15.516  14.177
 4033W        W77101   0.919   8.389   2.463
 4034W        W77102  13.226  28.424  12.915
 4035W        W77103  34.937  43.759  11.754
 4036W        W77104   7.259  27.881  11.057
 4037W        W77105  30.962  27.960   0.275
 4038W        W77106  12.461  16.035  14.900
 4039W        W77107  29.106   2.478   3.815
 4040W        W77108  43.783  20.154  12.580
 4041W        W77109  16.699  28.105   4.509
 4042W        W77110  10.961  16.382  14.022
 4043W        W77111  15.436   9.627  10.804
 4044W        W77112   3.423   9.628   4.410
 4045W        W77113  16.297  15.719  13.431
 4046W        W77114   4.829  17.523  13.403
 4047W        W77115  11.789  27.053  11.988
 4048W        W77116   3.158  33.526  11.902
 4049W        W77117  34.188  36.137   3.011
 4050W        W77118  44.242  36.505   4.186
 4051W        W77119   5.303  24.880   1.291
 4052W        W77120  38.876  43.777  10.611
 4053W        W77121  27.717  30.357  14.022
 4054W        W77122  25.177   0.130  11.098
 4055W        W77123  12.562  41.476  11.116
 4056W        W77124  28.217  19.965  11.635
 4057W        W77125  38.605   8.141   1.016
 4058W        W77126  13.276  20.543   4.320
 4059W        W77127  34.432  23.057   3.731
 4060W        W77128   1.743  30.444   1.389
 4061W        W77129  38.989  43.550  13.554
 4062W        W77130  35.305  18.320   0.349
 4063W        W77131  44.490  42.675  10.360
 4064W        W77132  20.469  36.516  10.760
 4065W        W77133  25.483   8.820   1.707
 4066W        W77134  28.386  30.994  10.849
 4067W        W77135  29.993  32.377   0.293
 4068W        W77136  16.857  13.655   3.068
 4069W        W77137  30.458   9.802   2.641
 4070W        W77138  15.354   9.422  14.832
 4071W        W77139  18.142  19.994  11.093
 4072W        W77140  22.021  32.277  12.930
 4073W        W77141  23.685  40.838   1.823
 4074W        W77142  14.359   1.340   2.703
 4075W        W77143  39.928  18.254  13.090
 4076W        W77144  42.010   0.891  14.534
 4077W        W77145  41.841  27.126   3.286
 4078W        W77146   5.575   8.904   0.424
 4079W        W77147   5.448  16.266   3.729
 4080W        W77148   3.728  28.612   1.656
 4081W        W77149   1.711  22.212   4.275
 4082W        W77150  23.133  42.918  12.364
 4083W        W77151  39.854  10.017   4.072
 4084W        W77152  18.231   3.860  11.891
 4085W        W77153  27.108  41.980  14.010
 4086W        W77154  29.418  30.306  14.153
 4087W        W77155  43.546  10.398   2.187
 4088W        W77156  40.459  21.812  14.822
 4089W        W77157   7.113  40.183  13.409
 4090W        W77158   5.803  21.096   3.149
 4091W        W77159  12.834  10.915   3.263
 4092W        W77160   1.883  35.435  12.411
 4093W        W77161  13.669  29.517   1.683
 4094W        W77162  41.061  40.141  11.999
 4095W        W77163  14.150   6.645  14.976
 4096W        W77164  33.840  33.380   1.353
 4097W        W77165  31.707  39.171   1.412
 4098W        W77166  20.670   5.793   0.930
 4099W        W77167  43.614  34.015   3.984
 4100W        W77168  27.987  33.568   2.347
 4101W        W77169  39.254  26.823  11.619
 4102W        W77170  10.611  28.258   0.800
 4103W        W77171  39.444  24.289  11.603
 4104W        W77172  41.429   5.671   4.213
 4105W        W77173  31.054  31.713   3.798
 4106W        W77174  34.528  20.784   4.716
 4107W        W77175  13.758  35.378   3.225
 4108W        W77176  23.432  13.713  12.620
 4109W        W77177  23.627  29.342   4.960
 4110W        W77178   7.387   7.081   1.591
 4111W        W77179   8.224  40.913   1.781
 4112W        W77180   9.729  11.289  13.801
 4113W        W77181   9.860  12.413   0.752
 4114W        W77182  19.521   8.722  12.477
 4115W        W77183  36.064  10.319   0.482
 4116W        W77184  38.194   0.005  12.407
 4117W        W77185  40.884  31.907   3.509
 4118W        W77186  18.329  22.143   3.019
 4119W        W77187   7.185   1.858  13.820
 4120W        W77188   8.648  22.730   3.362
 4121W        W77189  30.542  14.799   0.176
 4122W        W77190  38.071  30.508   4.308
 4123W        W77191  27.119  15.195  12.925
 4124W        W77192   4.479  31.624  14.417
 4125W        W77193  44.994   3.171   4.231
 4126W        W77194  26.742  30.566  13.905
 4127W        W77195  41.758  21.070  11.517
 4128W        W77196   7.837  22.522  11.130
 4129W        W77197   8.672  34.944  10.689
 4130W        W77198  31.591  35.197   3.226
 4131W        W77199   8.804   9.901   0.792
 4132W        W77200  16.779  35.534   2.771
 4133W        W77201   1.777  21.548   0.798
 4134W        W77202  18.118  20.544   0.069
 4135W        W77203  17.175  36.485  11.800
 4136W        W77204  23.896  29.840  12.014
 4137W        W77205  40.231  44.294   3.160
 4138W        W77206   4.368  38.270   1.409
 4139W        W77207  26.520  38.346  14.306
 4140W        W77208  38.419  18.216  14.942
 4141W        W77209  41.181  28.319   3.543
 4142W        W77210  17.739  38.674   0.008
 4143W        W77211  22.981  30.365  13.378
 4144W        W77212   1.284  35.322  14.903
 4145W        W77213  29.712   0.734  11.171
 4146W        W77214   1.695  39.442  11.419
 4147W        W77215   7.692  42.424   4.246
 4148W        W77216   7.898  22.332   4.389
 4149W        W77217  25.580  25.548   3.017
 4150W        W77218  23.566   9.170   3.521
 4151W        W77219  21.651   0.797   3.667
 4152W        W77220  20.625  22.271   4.584
 4153W        W77221   1.046  42.968  13.534
 4154W        W77222   6.225  26.881   1.313
 4155W        W77223  20.301  11.157   1.896
 4156W        W77224   4.880  31.719  12.411
 4157W        W77225  29.049  21.475   2.633
 4158W        W77226   5.764  39.348   2.265
 4159W        W77227  29.832  12.717  10.949
 4160W        W77228  33.484  14.759  11.820
 4161W        W77229  37.284  16.257   1.526
 4162W        W77230  28.991  12.533  11.119
 4163W        W77231   3.921  27.757   4.182
 4164W        W77232  24.499  31.181   0.787
 4165W        W77233  38.089  25.699   2.370
 4166W        W77234   1.831  30.458   4.826
 4167W        W77235   6.419  23.215  11.650
 4168W        W77236  36.565   5.255   3.955
 4169W        W77237  10.753  16.184  13.586
 4170W        W77238  11.845  36.026  14.580
 4171W        W77239   9.744  37.429   1.977
 4172W        W77240  26.691  38.983   1.360
 4173W        W77241   5.382  28.970   0.343
 4174W        W77242   9.138   6.173  10.705
 4175W        W77243  19.570  38.601   4.469
 4176W        W77244  12.770  20.478   2.131
 4177W        W77245   2.154  31.349   1.370
 4178W        W77246  21.091   9.190   4.086
 4179W        W77247  22.647  11.235  13.520
 4180W        W77248   7.610  25.180  12.917
 4181W        W77249   2.733  17.117  10.690
 4182W        W77250  30.845   3.813   0.302
 4183W        W77251  22.985  14.734   4.486
 4184W        W77252  28.291  26.742  11.658
 4185W        W77253  33.849  30.106   2.308
 4186W        W77254   2.760  29.794  13.791
 4187W        W77255  44.248  43.782  11.456
 4188W        W77256   0.199  38.785   1.840
 4189W        W77257  21.185  42.528   2.136
 4190W        W77258  22.780   1.573   2.570
 4191W        W77259  11.686  44.110  12.635
 4192W        W77260  26.177   8.741  12.653
 4193W        W77261  10.136  17.156   1.220
 4194W        W77262  12.590   0.266  12.426
 4195W        W77263  34.463  32.573   1.209
 4196W        W77264   3.328  20.637  11.704
 4197W        W77265  24.705   8.563   3.083
 4198W        W77266  13.392  16.791   3.611
 4199W        W77267  35.982  15.802  12.466
 4200W        W77268  44.502  43.845   2.226
 4201W        W77269  44.876  42.838  13.350
 4202W        W77270  25.386   1.373   2.751
 4203W        W77271  28.619  32.327   2.566
 4204W        W77272  37.882  26.013  14.021
 4205W        W77273   9.895  21.163   4.146
 4206W        W77274  21.178  44.427   4.472
 4207W        W77275  15.170  33.099   0.688
 4208W        W77276  36.628  12.759   3.183
 4209W        W77277  31.643  28.402  11.446
 4210W        W77278   6.613  11.747  11.143
 4211W        W77279  23.652   2.821  11.282
 4212W        W77280  36.044   4.228  10.892
 4213W        W77281  23.027  27.898  11.552
 4214W        W77282  30.585  35.528  10.582
 4215W        W77283   8.981  32.209   3.219
 4216W        W77284  34.195  16.825   2.209
 4217W        W77285  25.307  42.866  13.425
 4218W        W77286   6.891  31.609   0.952
 4219W        W77287  19.712   8.703  11.988
 4220W        W77288  32.067  42.372  13.258
 4221W        W77289   4.372  21.442   4.565
 4222W        W77290   6.843  19.039   0.815
 4223W        W77291  24.581  40.069  11.833
 4224W        W77292  30.045  29.973   4.578
 4225W        W77293  40.467  11.666   3.630
 4226W        W77294  18.832  31.590   4.993
 4227W        W77295  14.599   1.555   4.110
 4228W        W77296   6.009  35.964  12.807
 4229W        W77297  35.084  23.277  14.296
 4230W        W77298   8.964  42.429  12.530
 4231W        W77299  28.081   3.189  13.987
 4232W        W77300  32.189  13.342  14.264
 4233W        W77301  23.835  22.061   4.114
 4234W        W77302   9.342  33.067   3.469
 4235W        W77303  42.998   7.758  10.455
 4236W        W77304  15.290  44.814  13.946
 4237W        W77305  27.293  24.179   1.097
 4238W        W77306  14.788  42.721   1.272
 4239W        W77307   8.618  37.581   0.222
 4240W        W77308  32.961  34.643   0.467
 4241W        W77309  10.365  40.287  12.944
 4242W        W77310  27.997  11.929   4.602
 4243W        W77311  22.368  44.066  11.094
 4244W        W77312  16.646  36.990   4.561
 4245W        W77313  34.419   0.361   3.324
 4246W        W77314  41.425  41.845  14.551
 4247W        W77315  37.711  15.540  10.918
 4248W        W77316   7.359  15.749  11.564
 4249W        W77317  31.478  44.309  10.698
 4250W        W77318  32.598  11.274   0.794
 4251W        W77319   7.463  22.200   3.728
 4252W        W77320  35.924  10.680   4.759
 4253W        W77321  23.054  38.746   3.864
 4254W        W77322  18.551   3.940   1.274
 4255W        W77323  39.577  44.872  11.091
 4256W        W77324  16.621   1.368  12.942
 4257W        W77325   5.035   5.465   3.360
 4258W        W77326  34.345  23.586   3.305
 4259W        W77327  14.389  20.289   0.194
 4260W        W77328  41.863   0.364  10.594
 4261W        W77329  18.185  22.501  10.466
 4262W        W77330  31.021  38.025   4.568
 4263W        W77331  12.958  38.232   1.294
 4264W        W77332  41.637  18.830   0.461
 4265W        W77333  30.816  26.660  12.480
 4266W        W77334  15.169  26.512   0.804
 4267W        W77335  34.043  17.014   0.846
 4268W        W77336  33.553   4.989   2.619
 4269W        W77337  41.518  29.511   4.850
 4270W        W77338  19.993   2.435   4.264
 4271W        W77339   3.767  17.147   1.961
 4272W        W77340  20.179  25.176   3.065
 4273W        W77341  17.501  43.774   0.678
 4274W        W77342  37.447  39.489  10.883
 4275W        W77343  28.496  11.233  13.127
 4276W        W77344  36.081  31.257   5.137
 4277W        W77345  13.604   8.899   4.111
 4278W        W77346  39.574  41.085  12.910
 4279W        W77347  20.057  16.300   2.269
 4280W        W77348  11.740  27.341  12.635
 4281W        W77349  27.375  26.221   0.376
 4282W        W77350   4.387   6.964  12.506
 4283W        W77351  26.992  23.459   3.782
 4284W        W77352  18.743  40.624   3.239
 4285W        W77353   4.810  39.435  11.214
 4286W        W77354   5.348  22.722   3.232
 4287W        W77355  13.489  43.594  11.998
 4288W        W77356  23.714  30.886  13.918
 4289W        W77357   4.772  17.790   3.821
 4290W        W77358  35.480  34.724  11.872
 4291W        W77359  19.572  24.551  12.956
 4292W        W77360  11.988   1.700  11.869
 4293W        W77361  44.361  15.240  14.421
 4294W        W77362  41.887   0.694   4.079
 4295W        W77363  34.032  42.392  12.995
 4296W        W77364  41.251  36.194   2.159
 4297W        W77365  43.800  23.492   2.619
 4298W        W77366  32.048  43.631  10.738
 4299W        W77367  33.532  30.070  14.254
 4300W        W77368   3.221  37.780   1.523
 4301W        W77369  28.868   2.284  11.230
 4302W        W77370  21.974  28.151  11.477
 4303W        W77371  29.953  43.294   0.489
 4304W        W77372  30.437  36.830  12.823
 4305W        W77373   0.537  16.705   1.773
 4306W        W77374  39.296  19.092   0.216
 4307W        W77375  30.077  25.728   0.295
 4308W        W77376   9.280  17.542  14.391
 4309W        W77377   9.852  31.174  11.426
 4310W        W77378  44.962  43.982   1.294
 4311W        W77379  21.485  32.575  11.562
 4312W        W77380  24.276   1.566   1.726
 4313W        W77381   4.346   6.175  14.995
 4314W        W77382  41.925  18.486   2.600
 4315W        W77383  25.032  39.260  11.498
 4316W        W77384   9.196   5.931   1.409
 4317W        W77385   2.822  33.531   1.184
 4318W        W77386  13.404   7.401  11.173
 4319W        W77387  13.938  25.513  13.789
 4320W        W77388   5.273   3.827   0.261
 4321W        W77389  24.169   2.159   1.880
 4322W        W77390   8.358  38.219   3.316
 4323W        W77391  33.410  39.337  13.391
 4324W        W77392  25.616  37.650  12.279
 4325W        W77393  27.998  26.637   2.317
 4326W        W77394  41.948  23.536  10.718
 4327W        W77395  33.493  13.319  13.869
 4328W        W77396  14.468  13.608   0.643
 4329W        W77397  19.264   9.759   3.711
 4330W        W77398   7.229  24.300   4.841
 4331W        W77399  23.814  41.311   3.580
 4332W        W77400  28.456  32.028  14.372
 4333W        W77401  10.805   9.352   3.663
 4334W        W77402  34.617   3.206   1.822
 4335W        W77403   4.759  33.532  14.563
 4336W        W77404   4.164   0.298  14.212
 4337W        W77405  21.839  26.972   1.992
 4338W        W77406   3.369  24.921   3.658
 4339W        W77407   6.708   5.113   0.313
 4340W        W77408  38.876  19.058  12.468
 4341W        W77409  26.199  25.727   0.836
 4342W        W77410  36.344  23.278  13.560
 4343W        W77411   4.481   2.985   4.244
 4344W        W77412  35.119   2.257  13.326
 4345W        W77413  31.892  43.523  14.509
 4346W        W77414  28.631  17.574   0.359
 4347W        W77415  29.187  40.483  13.055
 4348W        W77416  29.584  37.575   3.656
 4349W        W77417  43.811   9.566   1.691
 4350W        W77418  17.034  27.199  12.038
 4351W        W77419  39.547  21.037   9.909
 4352W        W77420   4.798  37.564   3.048
 4353W        W77421  15.545  34.618   0.384
 4354W        W77422   3.291  24.687  14.300
 4355W        W77423  11.208  32.679   3.140
 4356W        W77424  14.983   1.749  13.863
 4357W        W77425   8.940  33.557  12.502
 4358W        W77426   5.396  25.123  13.504
 4359W        W77427  41.978  16.978   0.328
 4360W        W77428   0.204  16.271   3.581
 4361W        W77429  11.744  22.041   2.434
 4362W        W77430  25.669  21.034   4.573
 4363W        W77431   8.674   2.228  11.126
 4364W        W77432  26.133  42.097   1.442
 4365W        W77433   0.438  44.076  12.086
 4366W        W77434  12.277  19.728  12.950
 4367W        W77435  17.162  32.527  10.647
 4368W        W77436  32.598   8.737  13.427
 4369W        W77437   3.000   8.964   0.197
 4370W        W77438   1.066  29.047  11.921
 4371W        W77439  36.403  13.953   0.348
 4372W        W77440  17.718   8.996  13.213
 4373W        W77441  20.655  28.532  10.668
 4374W        W77442  29.596  33.643  14.890
 4375W        W77443  13.985  31.252   5.056
 4376W        W77444  17.066  28.097  10.746
 4377W        W77445   9.697  26.695  14.158
 4378W        W77446   3.523  41.868  14.317
 4379W        W77447  35.876  24.010   3.801
 4380W        W77448  21.105  43.568  13.487
 4381W        W77449  39.648  11.715  14.470
 4382W        W77450  35.882  44.008   1.769
 4383W        W77451   6.881  20.336   4.764
 4384W        W77452  24.028  40.979   3.926
 4385W        W77453  22.467  32.467   0.836
 4386W        W77454  17.994  39.111   2.713
 4387W        W77455  19.514  29.400  12.157
 4388W        W77456  15.361  41.751   2.338
 4389W        W77457  19.178  15.709   2.339
 4390W        W77458  26.809   9.270   5.233
 4391W        W77459   0.298  38.337   4.514
 4392W        W77460   7.325   2.223  14.773
 4393W        W77461  44.308  40.771  12.481
 4394W        W77462  36.390  19.499   1.751
 4395W        W77463  40.939  37.311  12.587
 4396W        W77464   1.350  16.098  12.063
 4397W        W77465  24.061  43.986  12.371
 4398W        W77466  19.774  37.413   3.820
 4399W        W77467  32.537  13.866   0.498
 4400W        W77468  35.454  14.753  11.383
 4401W        W77469  28.454   8.642   3.828
 4402W        W77470  31.669  30.414  10.564
 4403W        W77471   2.748  39.327   4.505
 4404W        W77472  37.542   0.221   0.347
 4405W        W77473   3.630  15.391  11.235
 4406W        W77474  35.642   5.598   0.726
 4407W        W77475   6.188   8.843  10.725
 4408W        W77476  23.464  24.541   1.965
 4409W        W77477   1.493  14.152  10.708
 4410W        W77478   0.039  20.258   0.311
 4411W        W77479  40.476  43.854  12.152
 4412W        W77480   9.859  43.900   3.134
 4413W        W77481  38.071  44.170   1.858
 4414W        W77482  26.800   3.155   1.944
 4415W        W77483  25.480  23.779  11.201
 4416W        W77484  11.793  16.145   5.173
 4417W        W77485  35.890  35.981  10.659
 4418W        W77486  43.327  21.064  11.397
 4419W        W77487   0.278   5.890  12.704
 4420W        W77488  39.885  19.250  14.603
 4421W        W77489  14.688  42.990  13.943
 4422W        W77490  16.303  42.749  12.177
 4423W        W77491  14.213  28.875   4.081
 4424W        W77492  33.594  41.399   3.244
 4425W        W77493   5.306  42.304   0.363
 4426W        W77494  10.015  12.905  11.993
 4427W        W77495   7.309  32.688  13.600
 4428W        W77496  23.064  41.894  11.593
 4429W        W77497  12.390  19.826   1.350
 4430W        W77498  22.191  12.408  13.303
 4431W        W77499  23.577  16.080   1.855
 4432W        W77500  23.433  16.756  10.650
 4433W        W77501  10.243  26.794  11.021
 4434W        W77502   7.241  16.604   3.720
 4435W        W77503  14.868   8.898  13.785
 4436W        W77504   5.703  27.236  14.132
 4437W        W77505  25.085   2.968   3.291
 4438W        W77506  24.905  10.815   1.064
 4439W        W77507  24.163   3.111  12.454
 4440W        W77508  16.327  14.262  12.914
 4441W        W77509  38.635  31.961  12.616
 4442W        W77510  37.134  30.540   4.669
 4443W        W77511   9.182  19.506   1.641
 4444W        W77512  24.181  20.245   1.875
 4445W        W77513   5.208  11.883   3.240
 4446W        W77514   6.770  33.796   4.720
 4447W        W77515  23.217  13.100  14.429
 4448W        W77516  13.243  43.531   4.039
 4449W        W77517  20.166   9.219  12.797
 4450W        W77518  32.080   7.802   2.846
 4451W        W77519   3.041  14.919   1.681
 4452W        W77520  31.949   8.723  12.842
 4453W        W77521  24.217  39.483  10.186
 4454W        W77522  24.325   1.856   3.497
 4455W        W77523  36.908  25.002  14.751
 4456W        W77524  34.338  27.206  14.791
 4457W        W77525   6.753  38.006  11.176
 4458W        W77526   2.919  23.309  14.101
 4459W        W77527  38.881  16.556  11.945
 4460W        W77528  27.640  44.694   1.252
 4461W        W77529  31.932  18.327   1.438
 4462W        W77530  34.957  17.715  10.738
 4463W        W77531   6.495  30.205   4.269
 4464W        W77532  11.295  27.397   3.193
 4465W        W77533  23.292   7.877   0.907
 4466W        W77534  18.061  16.214  13.473
 4467W        W77535  33.134  40.350   1.362
 4468W        W77536  10.166  44.456   4.618
 4469W        W77537  44.593  20.276   3.465
 4470W        W77538  42.666  43.569  13.687
 4471W        W77539  43.277  32.513  12.517
 4472W        W77540  22.113  37.917   0.687
 4473W        W77541  16.721  38.924  12.384
 4474W        W77542   6.260  37.413   1.896
 4475W        W77543   0.553  25.036   4.494
 4476W        W77544  37.998  22.532  14.945
 4477W        W77545  36.592   5.745  13.994
 4478W        W77546  20.680   3.364   3.056
 4479W        W77547  17.640   8.576   3.629
 4480W        W77548  19.010  20.794  12.333
 4481W        W77549  43.811  16.200   0.526
 4482W        W77550  13.979  35.109  14.335
 4483W        W77551  17.849  38.988  13.065
 4484W        W77552  38.285  23.552   1.711
 4485W        W77553   4.654  10.370  12.610
 4486W        W77554  26.932   4.444  12.922
 4487W        W77555  16.725  14.863   3.909
 4488W        W77556  36.161  25.504  12.978
 4489W        W77557  13.322  24.036   0.281
 4490W        W77558  40.382  40.259   0.352
 4491W        W77559  42.483  42.779  12.141
 4492W        W77560  37.606  32.111  12.515
 4493W        W77561  25.730  40.569   3.186
 4494W        W77562  44.871  38.668   3.244
 4495W        W77563  29.320  33.688   0.771
 4496W        W77564   5.538   4.624  10.948
 4497W        W77565   9.256  22.184   4.066
 4498W        W77566  36.914  35.594   4.874
 4499W        W77567  38.548  32.820  14.523
 4500W        W77568  40.856  43.060  13.359
 4501W        W77569  31.091   3.117   4.541
 4502W        W77570  19.262  10.086   0.646
 4503W        W77571   6.864   5.302   0.781
 4504W        W77572  44.438   1.763   3.324
 4505W        W77573  18.684   5.836   2.265
 4506W        W77574  44.409   6.340   1.437
 4507W        W77575  41.459   6.914   2.630
 4508W        W77576  25.132   1.431  13.330
 4509W        W77577   4.831  37.216   2.642
 4510W        W77578   9.440  16.825   0.086
 4511W        W77579  29.425   0.754  12.424
 4512W        W77580   4.280  40.138   4.514
 4513W        W77581   1.349  16.257  14.853
 4514W        W77582  25.655  38.038   3.640
 4515W        W77583  36.573   9.634  13.267
 4516W        W77584  17.054  12.225   4.358
 4517W        W77585  43.934  22.524   3.236
 4518W        W77586  19.818   0.261  11.553
 4519W        W77587  23.216  43.730  14.215
 4520W        W77588  15.346  20.248  14.004
 4521W        W77589  39.146  43.926   0.042
 4522W        W77590  24.166  37.431   1.503
 4523W        W77591   9.286  30.604   2.265
 4524W        W77592   1.329  30.864  10.651
 4525W        W77593  17.231  23.009  10.460
 4526W        W77594  34.987   2.003  12.437
 4527W        W77595  38.546  23.486   2.172
 4528W        W77596  37.518  34.579  11.623
 4529W        W77597  20.492  39.928  11.967
 4530W        W77598   9.776   0.398  10.594
 4531W        W77599  42.484  35.574  13.205
 4532W        W77600  11.005   0.512   1.915
 4533W        W77601  17.558  32.417  10.956
 4534W        W77602  31.877   3.637   4.244
 4535W        W77603  42.457  13.476  11.195
 4536W        W77604   6.359  21.258  12.045
 4537W        W77605  21.099  26.636  11.662
 4538W        W77606  38.386   1.730   2.294
 4539W        W77607  20.105  10.700   4.095
 4540W        W77608   5.031   2.258  13.750
 4541W        W77609  38.459  41.287  13.320
 4542W        W77610  25.552  19.808   0.315
 4543W        W77611   5.930  33.125  13.896
 4544W        W77612  40.526   7.679  15.000
 4545W        W77613  27.403  29.904  13.248
 4546W        W77614   5.383  32.033   4.130
 4547W        W77615  10.366  23.570  10.230
 4548W        W77616  39.536  32.504   0.357
 4549W        W77617  19.259  31.506   2.230
 4550W        W77618  15.346   8.984   0.764
 4551W        W77619  16.701   4.760   1.221
 4552W        W77620   6.670  23.662   2.425
 4553W        W77621  25.862  34.695   1.709
 4554W        W77622  21.792  39.930  10.503
 4555W        W77623  41.975   7.544  11.190
 4556W        W77624  40.823  39.072   0.217
 4557W        W77625  40.639   3.364  14.174
 4558W        W77626   0.845  29.422  12.902
 4559W        W77627  13.116  44.353  14.398
 4560W        W77628  38.199   6.296  10.196
 4561W        W77629  24.602  44.159   3.421
 4562W        W77630  20.196   5.242   0.829
 4563W        W77631  42.869   8.353   0.862
 4564W        W77632  18.983  16.072  12.521
 4565W        W77633  36.193  14.295   1.891
 4566W        W77634  42.008  29.740   2.194
 4567W        W77635  21.055  40.330   0.789
 4568W        W77636  37.286  15.140  13.888
 4569W        W77637  39.983  33.368  11.961
 4570W        W77638  18.775  25.169   0.459
 4571W        W77639  30.829   0.234  10.703
 4572W        W77640   1.333  22.045  14.049
 4573W        W77641   0.325  39.494   4.382
 4574W        W77642  15.748  27.213   1.642
 4575W        W77643  23.243  39.475   3.226
 4576W        W77644   0.273  32.126   4.113
 4577W        W77645  32.805  26.476   3.583
 4578W        W77646  35.839  18.827  11.675
 4579W        W77647  43.199  43.432   0.006
 4580W        W77648  44.693  30.490  13.871
 4581W        W77649  25.713  11.162  10.607
 4582W        W77650  26.376   3.683  14.935
 4583W        W77651  30.406  36.804  12.309
 4584W        W77652   2.444  38.478   1.376
 4585W        W77653   4.950  19.943   2.750
 4586W        W77654  22.800  19.131   0.827
 4587W        W77655  25.775  15.955   0.069
 4588W        W77656  22.197  42.843  13.899
 4589W        W77657  44.409  36.071   0.878
 4590W        W77658  20.059  39.379  11.603
 4591W        W77659  13.833  15.995  14.124
 4592W        W77660  22.703   9.678   1.327
 4593W        W77661  44.354  22.332  12.507
 4594W        W77662  36.298  40.979  13.103
 4595W        W77663  38.979  10.137  12.492
 4596W        W77664  22.111  40.682   4.798
 4597W        W77665   1.269  35.433  11.184
 4598W        W77666  39.646  37.945  13.322
 4599W        W77667   9.844   8.200   4.619
 4600W        W77668   7.352   5.465   0.760
 4601W        W77669  19.517  19.671   2.867
 4602W        W77670  32.569   9.459   2.765
 4603W        W77671   7.420  31.619  12.834
 4604W        W77672   4.221  41.473   4.964
 4605W        W77673  35.193  29.666   3.375
 4606W        W77674  30.442  16.147   3.622
 4607W        W77675  25.226  12.889   4.858
 4608W        W77676  10.202  37.522   1.702
 4609W        W77677  20.087  21.613  12.819
 4610W        W77678   4.223  11.250   1.339
 4611W        W77679  11.157  43.647   0.935
 4612W        W77680  14.027  30.136  12.569
 4613W        W77681  42.773   8.218  10.625
 4614W        W77682  11.407  26.589   3.993
 4615W        W77683   5.798   5.799  12.555
 4616W        W77684  39.574  35.269  14.514
 4617W        W77685  20.113   1.015   1.060
 4618W        W77686  41.671  37.866   2.436
 4619W        W77687  41.858  17.435   2.722
 4620W        W77688  11.520  40.474  13.915
 4621W        W77689  30.555  43.834   0.005
 4622W        W77690  40.921  39.775   4.133
 4623W        W77691  39.385  40.277   1.238
 4624W        W77692   7.473  33.358  12.486
 4625W        W77693   7.138  30.542   1.849
 4626W        W77694  13.542  39.957   0.374
 4627W        W77695  36.978   1.675  13.015
 4628W        W77696   7.679  28.903  10.395
 4629W        W77697  33.620  16.038  11.066
 4630W        W77698  16.819  31.014  12.438
 4631W        W77699  36.098   8.894  13.338
 4632W        W77700  29.114  31.382  10.940
 4633W        W77701  27.665  12.646  10.880
 4634W        W77702  40.036  37.079  12.327
 4635W        W77703  17.171   1.322   4.256
 4636W        W77704  30.682  16.156  12.982
 4637W        W77705  34.587  11.201   4.013
 4638W        W77706   5.419  22.897  12.461
 4639W        W77707  29.167  34.739  13.015
 4640W        W77708  21.933  16.111   1.640
 4641W        W77709   6.291  36.287  13.547
 4642W        W77710  24.556  13.842  12.007
 4643W        W77711  30.445  43.865  13.977
 4644W        W77712  35.132  38.397   1.874
 4645W        W77713  17.608  28.996   3.102
 4646W        W77714  30.012  16.226   3.179
 4647W        W77715  19.508  12.988  11.624
 4648W        W77716   0.899  27.890  13.001
 4649W        W77717  22.362  16.911   4.220
 4650W        W77718   6.477  38.443   4.394
 4651W        W77719  28.278  25.570  10.496
 4652W        W77720  16.778  21.076  10.996
 4653W        W77721  36.426  35.125  11.325
 4654W        W77722  14.130  23.452  12.115
 4655W        W77723  25.741  21.603  12.076
 4656W        W77724   6.813  21.247   3.202
 4657W        W77725  27.480  13.569  12.588
 4658W        W77726   3.352  41.289   4.577
 4659W        W77727   7.407  42.375  11.290
 4660W        W77728  43.406  30.366   4.027
 4661W        W77729  20.157  23.516  13.463
 4662W        W77730  22.770  19.711  11.062
 4663W        W77731  28.784  37.046  10.777
 4664W        W77732  16.764  11.815  13.292
 4665W        W77733  32.074  41.131  13.210
 4666W        W77734  18.241  37.759   4.746
 4667W        W77735  27.947   7.345   3.178
 4668W        W77736   6.424  43.801   2.755
 4669W        W77737   2.425  19.302   4.946
 4670W        W77738  32.620   6.474   1.992
 4671W        W77739  19.962   8.377   2.444
 4672W        W77740  10.618  21.515   1.143
 4673W        W77741  35.017  26.968  11.937
 4674W        W77742   7.707  42.257  12.857
 4675W        W77743   2.215  38.306   3.849
 4676W        W77744   6.077  28.910  14.819
 4677W        W77745  43.463   2.424  12.200
 4678W        W77746  15.899  15.072  11.673
 4679W        W77747  38.798  42.072  13.573
 4680W        W77748  16.635  31.598   3.249
 4681W        W77749  26.687  42.922   3.985
 4682W        W77750  37.816  20.182   2.430
 4683W        W77751  31.275  28.705   3.773
 4684W        W77752  24.681  31.660  12.842
 4685W        W77753  29.065  12.278  10.654
 4686W        W77754  13.390  16.162   3.021
 4687W        W77755  25.584  23.192   2.425
 4688W        W77756  15.663  31.236  13.415
 4689W        W77757   5.731  26.016  10.711
 4690W        W77758  12.868  22.703  11.934
 4691W        W77759   7.457  21.385   0.076
 4692W        W77760  21.265  24.458  14.985
 4693W        W77761  33.911  14.266  13.991
 4694W        W77762  26.538  40.783   0.670
 4695W        W77763   3.904   8.889   2.339
 4696W        W77764   0.204   3.420  11.944
 4697W        W77765  27.363  10.855  11.516
 4698W        W77766   0.301   9.477  14.838
 4699W        W77767  25.218   5.770   2.972
 4700W        W77768  13.820  15.779  14.816
 4701W        W77769   1.130  40.116  12.960
 4702W        W77770  31.917   8.129  11.986
 4703W        W77771  25.169  30.927   3.285
 4704W        W77772  30.377  40.512   3.006
 4705W        W77773  24.652  37.261   0.379
 4706W        W77774  14.762  10.252  14.729
 4707W        W77775  39.001   5.608  13.119
 4708W        W77776  19.812   7.983   3.656
 4709W        W77777  37.536  23.713  11.412
 4710W        W77778  14.232   0.772   0.350
 4711W        W77779  11.821  10.590   1.412
 4712W        W77780   2.101  31.072   4.150
 4713W        W77781  34.887  23.727   2.626
 4714W        W77782  36.343  16.318   1.910
 4715W        W77783  26.985  42.584   3.592
 4716W        W77784  19.276  21.558   4.824
 4717W        W77785  37.951  14.275   2.074
 4718W        W77786  20.062  18.348   0.651
 4719W        W77787  24.618  10.293   4.960
 4720W        W77788  43.235   4.241   1.198
 4721W        W77789  42.066  18.727  13.256
 4722W        W77790  31.836  29.553  11.536
 4723W        W77791  21.017  30.640   3.174
 4724W        W77792  18.088   8.214  10.682
 4725W        W77793  29.690  24.127  12.937
 4726W        W77794  25.273   7.461  11.185
 4727W        W77795  35.825  43.055  11.546
 4728W        W77796  44.891   6.417  14.464
 4729W        W77797  30.958  29.860  12.039
 4730W        W77798  18.207   2.008   3.573
 4731W        W77799   3.461  36.273   3.858
 4732W        W77800  21.944  24.067   0.943
 4733W        W77801   0.213  15.346   0.982
 4734W        W77802  14.100  39.904   4.136
 4735W        W77803  37.708   8.209  12.429
 4736W        W77804   1.171  12.249  13.358
 4737W        W77805   2.722  33.456   3.661
 4738W        W77806  32.584  42.391  14.302
 4739W        W77807  31.981  17.249   2.389
 4740W        W77808   8.259  39.099   9.908
 4741W        W77809  22.948  21.254  11.600
 4742W        W77810  14.035  29.717  14.464
 4743W        W77811  13.360   4.757   3.832
 4744W        W77812  38.020  38.461  12.319
 4745W        W77813  36.998  35.495  13.992
 4746W        W77814  11.290   5.392   1.982
 4747W        W77815  24.459  18.926   2.739
 4748W        W77816  22.026  15.195  11.750
 4749W        W77817  34.489  16.266   1.899
 4750W        W77818  41.690  37.516  12.480
 4751W        W77819  33.466  30.643  12.541
 4752W        W77820   9.612  37.025  12.416
 4753W        W77821   3.192  27.567   1.408
 4754W        W77822   0.645  43.027  13.879
 4755W        W77823  35.447  24.224  11.972
 4756W        W77824  44.865  23.683  12.838
 4757W        W77825  44.981  26.483   0.635
 4758W        W77826  30.358  17.112  13.911
 4759W        W77827   7.463  27.763   4.527
 4760W        W77828  16.224   2.915  10.603
 4761W        W77829  17.072   1.440  14.435
 4762W        W77830  15.014  28.131   3.146
 4763W        W77831  15.518  38.828   3.279
 4764W        W77832  30.950   9.315   1.258
 4765W        W77833  24.351   5.048  12.444
 4766W        W77834  12.804  14.106   2.257
 4767W        W77835  44.031  19.660   2.898
 4768W        W77836   8.435  36.334  14.749
 4769W        W77837  34.103   2.304   1.789
 4770W        W77838   2.649   4.908  12.736
 4771W        W77839  33.460  11.586  14.511
 4772W        W77840   2.238  12.797  12.635
 4773W        W77841  43.708  24.551  14.258
 4774W        W77842  32.118  13.496   1.178
 4775W        W77843  16.068  16.039  12.502
 4776W        W77844  15.407  26.666   4.586
 4777W        W77845  21.635  24.252  14.330
 4778W        W77846  26.498  29.702  11.659
 4779W        W77847   7.303  21.290  11.077
 4780W        W77848   7.642  14.542   3.744
 4781W        W77849   5.966  43.516   1.368
 4782W        W77850  22.036  32.618  14.324
 4783W        W77851  29.111   6.234  13.953
 4784W        W77852   6.651  35.059   2.417
 4785W        W77853  35.981  22.510  11.957
 4786W        W77854  35.529  21.992  11.487
 4787W        W77855  40.085  21.516   3.966
 4788W        W77856  20.792  41.803   2.259
 4789W        W77857  30.672   1.797   4.240
 4790W        W77858  26.783   1.894   1.708
 4791W        W77859  17.741  33.091  10.710
 4792W        W77860  34.864   9.912  11.497
 4793W        W77861  38.514   9.387   2.134
 4794W        W77862  12.064  23.156   4.130
 4795W        W77863  43.712  41.815  13.858
 4796W        W77864  16.074  21.426  11.600
 4797W        W77865  32.047  30.740  12.266
 4798W        W77866  18.864  34.996  14.271
 4799W        W77867  21.945  38.396  14.353
 4800W        W77868  23.871  12.811  14.782
 4801W        W77869  16.683  18.462  13.010
 4802W        W77870  30.504  37.494   2.589
 4803W        W77871   8.721  10.327   1.128
 4804W        W77872  25.712  25.225   1.248
 4805W        W77873  14.404  31.012   4.172
 4806W        W77874  18.425  42.498   0.868
 4807W        W77875  42.262  19.129   4.765
 4808W        W77876   4.846  17.132   1.209
 4809W        W77877  43.044  27.456   0.705
 4810W        W77878   9.393  25.710  12.363
 4811W        W77879  12.879  36.131   2.363
 4812W        W77880  25.523  38.432  13.945
 4813W        W77881  15.084   1.233  11.162
 4814W        W77882  25.067  17.624   4.416
 4815W        W77883   0.021  44.399   0.848
 4816W        W77884  17.146  24.097  13.471
 4817W        W77885  22.995   9.163   1.813
 4818W        W77886   1.884  28.840  11.550
 4819W        W77887  33.638  32.325  13.452
 4820W        W77888  20.624  20.812   3.094
 4821W        W77889  39.384  11.755   2.246
 4822W        W77890   3.289   4.316   0.648
 4823W        W77891  12.166  37.212  10.048
 4824W        W77892  29.143  30.069   0.242
 4825W        W77893   9.787   1.951   1.190
 4826W        W77894  41.696  21.960   3.003
 4827W        W77895   8.406  34.086   0.253
 4828W        W77896  44.557  11.116  12.069
 4829W        W77897  12.574  19.120   2.712
 4830W        W77898  20.307  38.446  13.879
 4831W        W77899  21.556  34.395  11.119
 4832W        W77900  21.530   5.351   3.588
 4833W        W77901  43.995   4.188   3.189
 4834W        W77902  42.321  40.032  14.674
 4835W        W77903  29.622  30.824  14.881
 4836W        W77904  21.701  29.099   1.754
 4837W        W77905  35.966  42.578  14.896
 4838W        W77906  27.577  38.057   4.255
 4839W        W77907  12.673  33.919  12.065
 4840W        W77908  29.607  41.350   4.549
 4841W        W77909   3.068  31.937   1.872
 4842W        W77910  38.268  32.068  10.835
 4843W        W77911  20.793  38.581  11.888
 4844W        W77912   1.630  37.256   1.330
 4845W        W77913  43.655  26.926   2.101
 4846W        W77914  39.059  21.019   1.335
 4847W        W77915   6.912  42.023   1.462
 4848W        W77916  38.740  21.274   2.648
 4849W        W77917   5.883  19.096   4.619
 4850W        W77918   7.419  17.167  13.340
 4851W        W77919  13.677  11.367  11.446
 4852W        W77920  34.153  11.943  13.036
 4853W        W77921  30.658  25.958   2.776
 4854W        W77922  34.453   4.913  10.420
 4855W        W77923  34.478  40.472  13.931
 4856W        W77924   0.439   4.191   0.644
 4857W        W77925  22.559  26.716  12.571
 4858W        W77926  30.858  12.268  13.124
 4859W        W77927  25.494  34.216   0.638
 4860W        W77928  22.039  18.850   0.744
 4861W        W77929  27.528   3.859   2.741
 4862W        W77930  33.006  23.687  14.014
 4863W        W77931  28.945  20.746   0.961
 4864W        W77932  29.728   3.827   3.336
 4865W        W77933   1.540   6.142  12.950
 4866W        W77934  27.086   0.857   0.003
 4867W        W77935  30.602   4.782  14.499
 4868W        W77936  13.117  33.841  12.419
 4869W        W77937  29.089  38.837   4.039
 4870W        W77938  40.904  33.468  14.442
 4871W        W77939  43.549   4.641  11.461
 4872W        W77940  24.687   2.344  11.241
 4873W        W77941  44.147  43.194  12.100
 4874W        W77942  18.770  18.257  11.521
 4875W        W77943   1.203  37.790  13.432
 4876W        W77944  34.192  35.845   3.686
 4877W        W77945   1.853  31.439  11.646
 4878W        W77946   8.566  35.973   0.476
 4879W        W77947   9.513  34.884  12.036
 4880W        W77948   3.220  34.481  12.482
 4881W        W77949   3.306   6.963   3.345
 4882W        W77950  34.374  24.754  13.432
 4883W        W77951  14.131   9.792   0.198
 4884W        W77952  43.898   5.847   4.689
 4885W        W77953  40.275   1.341   3.341
 4886W        W77954  36.040  36.736  11.052
 4887W        W77955  43.956  31.140  14.807
 4888W        W77956  12.305  14.075   2.117
 4889W        W77957  36.823  44.997  14.706
 4890W        W77958  29.650  44.538  11.529
 4891W        W77959  15.234  30.743   0.808
 4892W        W77960  30.989  42.380  11.555
 4893W        W77961  24.826  38.438  10.333
 4894W        W77962  29.409  27.102   2.909
 4895W        W77963  28.458   1.858  12.927
 4896W        W77964  41.898  36.357   3.657
 4897W        W77965  40.875  37.457   2.418
 4898W        W77966  21.160  23.472   3.609
 4899W        W77967  15.243  28.597   2.208
 4900W        W77968  33.814  22.245   3.202
 4901W        W77969  24.777  21.760  14.851
 4902W        W77970  42.065  36.373  13.920
 4903W        W77971  42.769  28.235   2.663
 4904W        W77972  34.296   8.651   4.219
 4905W        W77973  44.150   4.722  11.250
 4906W        W77974   2.797  16.187   2.417
 4907W        W77975  14.481  12.290  12.337
 4908W        W77976  14.638   7.270   2.878
 4909W        W77977  23.428  35.695   2.887
 4910W        W77978  31.965  31.485  12.462
 4911W        W77979  29.432  39.798   2.221
 4912W        W77980  30.591  13.839   0.768
 4913W        W77981  10.805  35.989  10.400
 4914W        W77982  24.561  36.249   2.536
 4915W        W77983  29.717  43.689   2.288
 4916W        W77984  24.666  21.791  11.964
 4917W        W77985  12.109  26.624   0.809
 4918W        W77986  41.805   0.477   3.189
 4919W        W77987  40.659  11.669  14.218
 4920W        W77988   8.043   3.272   1.742
 4921W        W77989  39.054  18.067  12.691
 4922W        W77990  15.969  42.398  11.950
 4923W        W77991   2.448  21.991   3.847
 4924W        W77992  33.037  20.798  12.408
 4925W        W77993   6.955  41.657   9.898
 4926W        W77994  17.591  14.216   0.706
 4927W        W77995  22.496   1.367  11.462
 4928W        W77996  11.219  20.252   1.855
 4929W        W77997  35.745  41.439   2.276
 4930W        W77998   8.058   7.062   0.648
 4931W        W77999  34.403   3.222   0.379
 4932W        W78000  39.315  40.410   2.224
 4933W        W78001  40.091  12.936   3.389
 4934W        W78002   1.995  41.007  12.288
 4935W        W78003  21.185  39.524  14.337
 4936W        W78004  12.562  39.607  11.218
 4937W        W78005  32.659  13.961  11.940
 4938W        W78006  25.672  28.112  13.351
 4939W        W78007  15.677  41.079   4.151
 4940W        W78008  21.977  19.779   2.685
 4941W        W78009  25.647   5.175   4.127
 4942W        W78010  38.306  10.894  12.401
 4943W        W78011  40.683  44.364  13.414
 4944W        W78012  40.525  25.203   3.723
 4945W        W78013  12.483  32.392  14.789
 4946W        W78014   3.322   6.808   0.217
 4947W        W78015   3.991  21.677  13.418
 4948W        W78016  11.682  20.902  12.046
 4949W        W78017   8.526   0.114  12.150
 4950W        W78018   2.789   5.291   4.062
 4951W        W78019  18.768  43.017   4.315
 4952W        W78020  23.433  12.863   1.321
 4953W        W78021  22.054   4.307  14.107
 4954W        W78022   5.708  21.060   2.628
 4955W        W78023  21.495   3.419   0.268
 4956W        W78024  14.611  21.332  11.305
 4957W        W78025   6.265  14.812   0.768
 4958W        W78026   0.953  25.590   0.906
 4959W        W78027  42.238  32.405   0.883
 4960W        W78028  35.153  22.389  11.386
 4961W        W78029   0.212   5.702  14.985
 4962W        W78030  17.577   2.365   4.601
 4963W        W78031   0.758   8.272  13.582
 4964W        W78032   1.418  41.456  13.361
 4965W        W78033  29.674  43.512  14.805
 4966W        W78034  21.142   1.482   5.152
 4967W        W78035  43.790  29.121  10.915
 4968W        W78036  26.634  42.531   2.782
 4969W        W78037  13.140   6.183  14.384
 4970W        W78038  39.786  44.189   2.292
 4971W        W78039  41.726  35.557  10.798
 4972W        W78040  39.355   0.114  10.697
 4973W        W78041  32.831   8.113   1.402
 4974W        W78042  29.896  41.739  10.845
 4975W        W78043  28.140  44.199   4.059
 4976W        W78044   6.485   4.301  12.898
 4977W        W78045   0.971  34.910  13.941
 4978W        W78046  31.340   6.322   3.728
 4979W        W78047  42.359  40.879   3.247
 4980W        W78048   3.980  14.336   0.761
 4981W        W78049  26.101  12.882   1.352
 4982W        W78050   8.243  25.876   3.343
 4983W        W78051  32.029  14.407   2.177
 4984W        W78052   6.727  38.259  10.736
 4985W        W78053  22.929   3.426   1.765
 4986W        W78054  21.160  22.728   2.686
 4987W        W78055  35.593  32.566  13.770
 4988W        W78056  12.453   5.298  13.524
 4989W        W78057   4.753  15.690  12.667
 4990W        W78058   5.626  12.326   4.175
 4991W        W78059  17.811  42.758  10.706
 4992W        W78060  18.036  29.056   3.389
 4993W        W78061   4.305  31.521   1.848
 4994W        W78062   0.427  19.449  11.111
 4995W        W78063  12.871  15.673   3.600
 4996W        W78064  41.635  32.372   4.972
 4997W        W78065  44.261  24.146   1.445
 4998W        W78066   4.975   0.649   1.461
 4999W        W78067   9.419  27.129   3.760
 5000W        W78068  36.030  37.404  13.163
 5001W        W78069  26.595  44.856   2.571
 5002W        W78070  15.280  36.533   2.415
 5003W        W78071   8.752  22.376   4.176
 5004W        W78072  33.313   9.624   1.314
 5005W        W78073  37.774  39.343  12.816
 5006W        W78074  35.293   6.365   3.243
 5007W        W78075   7.859   1.935   2.130
 5008W        W78076  14.696  43.969   1.769
 5009W        W78077  36.993  37.285  13.512
 5010W        W78078   7.749  14.614   3.236
 5011W        W78079  36.902   7.674   1.491
 5012W        W78080  29.411  24.212  12.459
 5013W        W78081   3.346  10.485  11.461
 5014W        W78082  26.947  34.835  14.457
 5015W        W78083  41.019  15.093  13.015
 5016W        W78084  22.943  28.150   0.528
 5017W        W78085  17.748  25.711   0.862
 5018W        W78086   4.697  21.163  14.295
 5019W        W78087  39.951  40.511   4.600
 5020W        W78088  32.141   3.918  12.252
 5021W        W78089  37.806   3.362  14.866
 5022W        W78090  40.476  20.443   4.574
 5023W        W78091  34.552   6.577   0.856
 5024W        W78092  13.545  15.285  12.997
 5025W        W78093  25.138  44.292   1.935
 5026W        W78094  43.575  34.356  10.781
 5027W        W78095   4.987  42.112  14.425
 5028W        W78096   1.206  27.237   0.278
 5029W        W78097   8.764  13.251  10.775
 5030W        W78098   4.748  14.520  14.710
 5031W        W78099   0.760   0.660   0.401
 5032W        W78100  20.696  35.414  10.474
 5033W        W78101   1.186   1.383  14.425
 5034W        W78102   2.012  27.107  14.685
 5035W        W78103  38.255   0.229  11.911
 5036W        W78104   4.307  29.023   0.888
 5037W        W78105  40.487  15.073  13.912
 5038W        W78106  11.205  29.102  12.528
 5039W        W78107  21.525  37.339   4.433
 5040W        W78108   1.641  17.267  11.177
 5041W        W78109  32.865  27.305  14.975
 5042W        W78110  23.531   0.446   3.896
 5043W        W78111  13.056  14.779  11.133
 5044W        W78112  11.394  24.741  11.885
 5045W        W78113  44.256  30.233   0.451
 5046W        W78114  28.795  30.390  14.998
 5047W        W78115   5.978   1.705  13.067
 5048W        W78116  16.812  23.269  14.240
 5049W        W78117  42.842  10.893  12.554
 5050W        W78118   5.012  33.018   1.742
 5051W        W78119  27.943  35.829   1.429
 5052W        W78120  10.616   3.804   0.120
 5053W        W78121   3.479   3.293  11.978
 5054W        W78122  32.390  21.763   3.229
 5055W        W78123  30.826  40.427   2.185
 5056W        W78124  40.057  36.836  11.493
 5057W        W78125  41.667   3.746  10.515
 5058W        W78126  21.225  44.387   3.740
 5059W        W78127  21.532  17.325  11.011
 5060W        W78128   3.660  13.582  12.865
 5061W        W78129  20.612  26.009  13.511
 5062W        W78130   8.255   6.196   1.287
 5063W        W78131  21.644   8.191   1.166
 5064W        W78132  30.678  37.284  11.600
 5065W        W78133   2.010  26.218   3.764
 5066W        W78134  13.087  17.665   2.777
 5067W        W78135  33.071   2.401   2.007
 5068W        W78136  43.459  38.536   1.382
 5069W        W78137  37.429  43.994  11.124
 5070W        W78138  24.598   0.264   1.272
 5071W        W78139  25.020  10.149  12.304
 5072W        W78140  39.431   8.677  11.868
 5073W        W78141  12.760  11.440  12.318
 5074W        W78142  36.813  29.190  11.259
 5075W        W78143  25.726   5.898  11.180
 5076W        W78144   1.221  21.183  11.508
 5077W        W78145  41.771  20.777   4.178
 5078W        W78146  26.447  40.755   1.198
 5079W        W78147   7.728  17.619   1.186
 5080W        W78148  11.835  28.609   2.413
 5081W        W78149  23.199  32.821  14.718
 5082W        W78150  17.954  13.875  13.436
 5083W        W78151  17.555  28.739   1.753
 5084W        W78152   2.019   4.714  10.654
 5085W        W78153  35.355   9.099   1.694
 5086W        W78154   7.266  43.367   1.505
 5087W        W78155   1.847  29.082  11.113
 5088W        W78156   3.837  19.935  12.144
 5089W        W78157  14.660  14.485  13.436
 5090W        W78158  44.590   0.710  13.046
 5091W        W78159  10.654   3.939  12.721
 5092W        W78160   2.169  16.048   4.506
 5093W        W78161   5.333   5.807  11.805
 5094W        W78162  38.847  41.552  13.533
 5095W        W78163  38.448  37.001  14.256
 5096W        W78164   3.363  37.354   1.253
 5097W        W78165  12.074  41.763  14.832
 5098W        W78166   9.371  15.256  12.820
 5099W        W78167  20.968  21.676   0.724
 5100W        W78168  41.499  13.715  12.983
 5101W        W78169   5.693  34.835  14.447
 5102W        W78170  21.088  25.793  12.433
 5103W        W78171  32.443  41.286  10.486
 5104W        W78172  20.100  41.988  14.189
 5105W        W78173   5.766  38.239  10.506
 5106W        W78174  30.838  39.438   4.211
 5107W        W78175  18.057  42.005  11.707
 5108W        W78176  26.478   4.714  14.460
 5109W        W78177  11.341  18.702  14.711
 5110W        W78178  34.096  36.869  14.446
 5111W        W78179  11.753  36.676  11.086
 5112W        W78180  36.832  10.233  14.866
 5113W        W78181  36.981   6.148   3.642
 5114W        W78182  34.148  23.924  13.514
 5115W        W78183   3.157  29.987   4.546
 5116W        W78184   7.256  16.797   1.305
 5117W        W78185  24.630  24.921   0.052
 5118W        W78186  19.136  13.789  14.289
 5119W        W78187  11.697  29.805  13.151
 5120W        W78188  14.349  17.799   4.508
 5121W        W78189   6.631  28.613   3.606
 5122W        W78190   8.647  22.701   1.289
 5123W        W78191  38.336   9.381  11.189
 5124W        W78192  14.288  29.717   3.692
 5125W        W78193   8.801   6.049  12.400
 5126W        W78194   9.389  15.158   1.051
 5127W        W78195  21.333  19.279  10.074
 5128W        W78196   9.716  13.690  11.679
 5129W        W78197  24.996  13.749   2.716
 5130W        W78198  19.998  27.475  13.807
 5131W        W78199  21.629  40.681   4.019
 5132W        W78200   1.805  23.469  14.919
 5133W        W78201  17.346  10.026   3.643
 5134W        W78202  10.423  42.870  11.608
 5135W        W78203  32.629   7.100  14.738
 5136W        W78204   1.060  26.956  14.653
 5137W        W78205  22.072  29.813   1.822
 5138W        W78206  40.524   4.856   1.932
 5139W        W78207   3.702  25.122  10.668
 5140W        W78208  35.452  16.093  14.567
 5141W        W78209  37.667  24.693   2.899
 5142W        W78210  43.775  22.707   4.590
 5143W        W78211   8.859  31.877   9.924
 5144W        W78212  40.906   5.318  14.437
 5145W        W78213   8.357  36.001  12.388
 5146W        W78214  22.630   5.600  13.288
 5147W        W78215  19.629  15.194   4.422
 5148W        W78216  13.390  41.234  14.039
 5149W        W78217   0.599   0.482  13.111
 5150W        W78218  23.952  34.863  12.615
 5151W        W78219  10.471  20.688   1.916
 5152W        W78220  37.467  18.330  11.171
 5153W        W78221  33.987  11.283  11.935
 5154W        W78222   6.330   6.724   4.584
 5155W        W78223  42.977   3.551   2.056
 5156W        W78224  28.838  33.661  11.891
 5157W        W78225  43.905   8.127   0.924
 5158W        W78226  19.646  24.694  12.463
 5159W        W78227   0.382  42.730   1.991
 5160W        W78228   9.933  25.030  10.751
 5161W        W78229  43.927  34.074  14.414
 5162W        W78230  28.744  11.251  11.109
 5163W        W78231  36.003   9.766   2.810
 5164W        W78232   1.762  33.287  12.121
 5165W        W78233  33.025  12.718   4.842
 5166W        W78234  43.033  29.221  14.383
 5167W        W78235  13.159  34.556  10.816
 5168W        W78236  28.070  23.050   3.745
 5169W        W78237  11.303  40.503  14.389
 5170W        W78238  17.841  29.210  13.465
 5171W        W78239  37.798  43.268   2.904
 5172W        W78240  36.714  40.841  12.172
 5173W        W78241  35.923   0.422  13.851
 5174W        W78242  42.254  43.635  13.974
 5175W        W78243  35.551  43.790  14.586
 5176W        W78244  12.671  41.809   3.746
 5177W        W78245   5.688   5.926  13.630
 5178W        W78246  16.587   9.393   3.118
 5179W        W78247  25.463  20.157   3.377
 5180W        W78248  42.898  34.113   3.654
 5181W        W78249  28.402  35.586   1.423
 5182W        W78250  25.421  28.603  12.189
 5183W        W78251  29.061   3.991   1.678
 5184W        W78252   2.696   2.719  11.152
 5185W        W78253   4.031   6.642  13.055
 5186W        W78254  21.276  40.375   4.592
 5187W        W78255  12.773  15.570  12.464
 5188W        W78256  39.387   3.902   1.275
 5189W        W78257  16.232  15.763   3.557
 5190W        W78258  15.832   5.263   3.851
 5191W        W78259  32.927  14.002   4.074
 5192W        W78260  35.834  26.550   0.485
 5193W        W78261  26.512  31.037   4.484
 5194W        W78262  36.154   0.871   1.389
 5195W        W78263  39.822  34.633   0.911
 5196W        W78264   2.662  13.049  14.551
 5197W        W78265  25.037  18.392   3.160
 5198W        W78266   1.419  39.412  13.653
 5199W        W78267  28.705   9.218  13.140
 5200W        W78268  22.754  10.233   3.141
 5201W        W78269   7.715  36.011   0.867
 5202W        W78270  39.774   4.771   2.371
 5203W        W78271  24.281   8.717  11.097
 5204W        W78272  27.781  38.928   4.462
 5205W        W78273  36.014  25.188   2.313
 5206W        W78274   4.459   8.603   3.747
 5207W        W78275  20.033  29.345  12.098
 5208W        W78276  18.455  27.265  14.533
 5209W        W78277   7.084  25.420  11.160
 5210W        W78278   9.951  14.408   3.303
 5211W        W78279  39.679  12.414  14.991
 5212W        W78280  32.985  33.580  13.445
 5213W        W78281  17.562  18.927   4.816
 5214W        W78282  40.305   0.093  11.587
 5215W        W78283  11.339  10.917  13.247
 5216W        W78284  32.851  23.500  10.991
 5217W        W78285  22.730  21.175  12.819
 5218W        W78286  26.143  18.450   0.844
 5219W        W78287  37.947  33.967   3.941
 5220W        W78288  37.216  12.111  14.550
 5221W        W78289  25.574   7.003   2.601
 5222W        W78290   9.322  13.253   1.476
 5223W        W78291   9.102   3.329  10.646
 5224W        W78292  23.158   8.928   2.262
 5225W        W78293  21.076  35.040  14.838
 5226W        W78294  24.200  38.353  14.763
 5227W        W78295   3.726  35.135  12.654
 5228W        W78296  38.032  23.583  11.568
 5229W        W78297  16.070  24.301  10.381
 5230W        W78298  38.485  26.714   3.304
 5231W        W78299   0.291  39.527  14.301
 5232W        W78300  39.830  41.723   1.877
 5233W        W78301   1.700  42.352   2.326
 5234W        W78302   3.801  30.134   0.378
 5235W        W78303  32.960  10.505  13.056
 5236W        W78304  39.425  30.026  12.451
 5237W        W78305   7.854  33.455   2.522
 5238W        W78306   9.752  26.562   1.839
 5239W        W78307  34.175  19.002  10.599
 5240W        W78308  14.241   0.693  12.907
 5241W        W78309  26.592  38.611   2.642
 5242W        W78310  15.426  16.244  11.171
 5243W        W78311  27.791  29.116  14.289
 5244W        W78312  44.940  26.360   1.901
 5245W        W78313  30.453  34.390   1.275
 5246W        W78314  25.108  10.964   2.181
 5247W        W78315   0.499  43.378   1.375
 5248W        W78316  44.981   1.828  12.539
 5249W        W78317  15.143  18.924  11.533
 5250W        W78318   9.867   5.435  11.213
 5251W        W78319   4.699  21.043   4.534
 5252W        W78320  10.134  16.823   1.931
 5253W        W78321  15.857  27.440  13.032
 5254W        W78322  41.825  23.064   0.565
 5255W        W78323  15.872  28.614  12.501
 5256W        W78324  31.588  33.370   0.235
 5257W        W78325  32.833  16.293   3.727
 5258W        W78326  39.739   5.372   5.243
 5259W        W78327  19.671  36.472  13.852
 5260W        W78328   6.368  11.811   3.776
 5261W        W78329  44.020  11.734   0.765
 5262W        W78330   8.117   7.234  13.823
 5263W        W78331  16.028  41.742   0.077
 5264W        W78332  41.472  43.074  12.350
 5265W        W78333  39.654  12.758   3.185
 5266W        W78334  22.175  43.349   0.047
 5267W        W78335  36.054   4.769   4.460
 5268W        W78336  23.521  14.575   1.679
 5269W        W78337  26.073   3.582   3.230
 5270W        W78338  34.578  26.428  14.985
 5271W        W78339  41.869   2.989   0.233
 5272W        W78340  14.029  42.506   0.284
 5273W        W78341  14.950  37.548  12.518
 5274W        W78342  37.589  31.739  14.575
 5275W        W78343   9.869  40.275   3.730
 5276W        W78344   3.002   1.953   2.615
 5277W        W78345  35.500  11.261  12.944
 5278W        W78346  31.418  16.624   2.259
 5279W        W78347   0.340  20.948   3.216
 5280W        W78348   6.891   5.643   4.111
 5281W        W78349  10.951  40.140  10.711
 5282W        W78350  12.950  14.946  14.958
 5283W        W78351   8.348  21.051   0.950
 5284W        W78352   4.684  24.702  11.101
 5285W        W78353  29.617   5.506   1.305
 5286W        W78354  12.881  15.680   2.150
 5287W        W78355  39.757  15.087   0.964
 5288W        W78356  21.521  25.573   4.589
 5289W        W78357  11.205   6.362  11.991
 5290W        W78358  29.688  18.191   0.724
 5291W        W78359  36.927   4.181  12.596
 5292W        W78360  27.354  26.582  11.463
 5293W        W78361  12.898  36.588   2.131
 5294W        W78362   0.452  14.549  12.039
 5295W        W78363  17.289  24.803  11.073
 5296W        W78364  26.542  12.145   1.888
 5297W        W78365  39.719  41.636   3.704
 5298W        W78366   3.330   6.744  14.703
 5299W        W78367   0.541  44.439  14.987
 5300W        W78368  26.677   8.323  13.362
 5301W        W78369   9.867  38.104  14.233
 5302W        W78370  15.604  35.041  12.030
 5303W        W78371  30.627  26.120  11.128
 5304W        W78372  24.365  37.159   2.219
 5305W        W78373  19.565  33.829  11.112
 5306W        W78374  28.253  41.473  13.185
 5307W        W78375  24.781  35.266  12.820
 5308W        W78376  40.821  15.107   3.782
 5309W        W78377   3.308  16.738  10.268
 5310W        W78378   2.188   3.315   2.803
 5311W        W78379  40.403   0.192  10.735
 5312W        W78380  20.598  27.617   3.456
 5313W        W78381  33.420  31.091  14.395
 5314W        W78382  40.021  35.919   1.428
 5315W        W78383  26.547  40.962  12.129
 5316W        W78384  21.308  36.152   4.202
 5317W        W78385   3.296   8.293   4.956
 5318W        W78386  27.901  32.080   4.207
 5319W        W78387  35.420  29.818  14.545
 5320W        W78388   3.567  10.933   0.069
 5321W        W78389  39.975   0.351   1.483
 5322W        W78390  21.112  39.759   2.518
 5323W        W78391  25.591  32.370   1.951
 5324W        W78392  20.236   6.399   4.113
 5325W        W78393  11.673  41.066   4.597
 5326W        W78394  27.912  36.434  13.650
 5327W        W78395  34.563  39.369   3.930
 5328W        W78396  12.866  19.171   3.679
 5329W        W78397  22.041  30.018  14.264
 5330W        W78398  18.734  18.110   4.676
 5331W        W78399  25.097   2.602   1.494
 5332W        W78400  19.021  14.233  12.047
 5333W        W78401  32.038   8.705  14.469
 5334W        W78402  13.973  19.514   3.645
 5335W        W78403  10.638  38.487  13.923
 5336W        W78404  24.804  35.539  11.115
 5337W        W78405  35.278  22.114  14.010
 5338W        W78406   8.738  35.355   2.658
 5339W        W78407   4.701  32.148   3.709
 5340W        W78408  17.363   5.274   3.836
 5341W        W78409   9.692   4.576  13.774
 5342W        W78410   4.876  15.244  10.364
 5343W        W78411   1.395  16.600   3.405
 5344W        W78412  31.467  13.319  12.040
 5345W        W78413  33.087  12.834   2.449
 5346W        W78414  44.841  34.571   4.064
 5347W        W78415   5.278   6.487  10.627
 5348W        W78416  41.217   7.262  14.849
 5349W        W78417  32.560  10.559   1.308
 5350W        W78418  38.797  37.883   1.304
 5351W        W78419  27.075   2.713  13.379
 5352W        W78420   0.329   5.452   4.167
 5353W        W78421  28.706   4.735  13.999
 5354W        W78422  25.075   6.147   0.681
 5355W        W78423  38.906   2.625  14.565
 5356W        W78424  38.675  21.728   2.391
 5357W        W78425  28.373   1.283   4.845
 5358W        W78426  43.351   1.384   3.970
 5359W        W78427   5.187  35.026   2.171
 5360W        W78428  41.059  18.162   3.647
 5361W        W78429  31.812  17.511   4.139
 5362W        W78430   0.871   8.996  14.286
 5363W        W78431  30.877  31.036   1.278
 5364W        W78432  38.751  29.040  11.052
 5365W        W78433  31.035  26.353  10.944
 5366W        W78434   8.358  12.699  14.821
 5367W        W78435  16.594  14.871   4.952
 5368W        W78436  18.658  11.284   1.074
 5369W        W78437  11.121  17.071  12.937
 5370W        W78438  29.980  21.106  14.692
 5371W        W78439  23.507  44.310   0.929
 5372W        W78440  29.086  36.032   1.398
 5373W        W78441  24.792   2.826   4.597
 5374W        W78442  15.759  26.887  13.977
 5375W        W78443  18.619  22.252  10.630
 5376W        W78444  33.038  28.766   4.742
 5377W        W78445  42.169  29.658   3.686
 5378W        W78446  43.892  14.087   4.169
 5379W        W78447  25.779  10.917  12.958
 5380W        W78448  26.963  11.915  13.331
 5381W        W78449  26.268  31.447   1.336
 5382W        W78450  24.559  34.875  12.561
 5383W        W78451   8.245  29.652  13.804
 5384W        W78452  37.874   7.189   2.704
 5385W        W78453   5.425   7.665   3.808
 5386W        W78454  23.596  31.650   1.321
 5387W        W78455  30.175  33.827   2.278
 5388W        W78456  24.254  39.951   1.165
 5389W        W78457   0.843  29.135  13.793
 5390W        W78458   0.962  26.179   0.891
 5391W        W78459  19.359   4.421   1.298
 5392W        W78460   0.911   6.593   4.647
 5393W        W78461  42.589  30.705   1.300
 5394W        W78462  13.690  31.965  11.995
 5395W        W78463   6.286   7.394  12.513
 5396W        W78464  43.998  20.722   1.178
 5397W        W78465  39.613  43.977  14.806
 5398W        W78466  10.847  20.607   3.252
 5399W        W78467  35.219  25.635   3.373
 5400W        W78468  35.120  16.284  11.534
 5401W        W78469  22.311  33.590   3.522
 5402W        W78470  31.704  15.735  12.589
 5403W        W78471  44.428  30.830   2.658
 5404W        W78472  13.311  31.594   0.288
 5405W        W78473  33.446  25.643   4.089
 5406W        W78474  39.370  11.778  14.025
 5407W        W78475  20.262  14.083   3.857
 5408W        W78476   4.996   8.278   3.301
 5409W        W78477  31.069  24.223  12.038
 5410W        W78478   5.906  38.581  13.756
 5411W        W78479  36.376  26.090  10.702
 5412W        W78480  24.094  28.571  14.050
 5413W        W78481  35.816  12.930  11.243
 5414W        W78482  10.965  29.552  12.059
 5415W        W78483  24.304  43.259   1.680
 5416W        W78484  35.085  21.222  14.330
 5417W        W78485  43.487  29.006  14.557
 5418W        W78486  18.506  28.339   1.929
 5419W        W78487  42.226  28.752  11.926
 5420W        W78488  28.608  40.022  13.108
 5421W        W78489  22.655  34.988   2.381
 5422W        W78490   5.236   3.192  12.599
 5423W        W78491  13.834   2.846  12.892
 5424W        W78492   6.578  21.679   4.297
 5425W        W78493  13.867   8.141   3.271
 5426W        W78494  30.414  13.908  12.096
 5427W        W78495  13.734  30.049  10.797
 5428W        W78496  40.354   9.610  11.068
 5429W        W78497  10.171   1.759  12.548
 5430W        W78498  30.449   2.368   4.051
 5431W        W78499   0.956  40.544   4.293
 5432W        W78500  39.289  10.955   0.118
 5433W        W78501  38.558   6.173   4.977
 5434W        W78502  11.839  28.602  14.896
 5435W        W78503  33.755  21.715  14.380
 5436W        W78504   1.916  44.260  13.913
 5437W        W78505  31.111  29.952  14.976
 5438W        W78506  34.785  38.343  13.566
 5439W        W78507   2.760  20.611  14.005
 5440W        W78508   9.261  40.074   0.872
 5441W        W78509  35.958  36.172   3.293
 5442W        W78510  24.204   4.931   4.086
 5443W        W78511  11.826  43.422   3.808
 5444W        W78512  28.205  32.112   3.795
 5445W        W78513  21.463  42.470  11.976
 5446W        W78514  31.016  27.979   3.153
 5447W        W78515  36.386  13.268  13.421
 5448W        W78516  21.146  34.386  12.220
 5449W        W78517  24.947  19.054  12.069
 5450W        W78518  43.948   8.646   4.056
 5451W        W78519  29.484   4.866  10.591
 5452W        W78520  18.758  28.585  14.507
 5453W        W78521  15.844   9.183  10.241
 5454W        W78522  10.177  39.846   4.646
 5455W        W78523  34.341  26.125  13.925
 5456W        W78524   9.062  16.737   4.593
 5457W        W78525  21.612   4.648  14.768
 5458W        W78526   0.423  12.817   0.964
 5459W        W78527  43.491  26.668   2.796
 5460W        W78528   7.528  15.196   4.053
 5461W        W78529  42.039   6.457  11.988
 5462W        W78530  23.636  19.966   5.517
 5463W        W78531  36.034  13.895  11.085
 5464W        W78532  39.034  11.217   0.471
 5465W        W78533  28.239   9.301   2.161
 5466W        W78534  39.863  25.091  11.854
 5467W        W78535   3.642  25.124   1.782
 5468W        W78536  27.887   3.238   1.356
 5469W        W78537  37.449   6.127   2.745
 5470W        W78538  31.586  20.950   1.231
 5471W        W78539  38.435  11.798   2.671
 5472W        W78540   9.927  44.927   0.627
 5473W        W78541  24.641  12.592   0.383
 5474W        W78542  26.979  44.017   1.790
 5475W        W78543   8.195  33.632  11.714
 5476W        W78544   6.292  20.470   2.340
 5477W        W78545  18.889  30.183   2.278
 5478W        W78546   2.315   9.350   2.155
 5479W        W78547   8.140  17.032  13.926
 5480W        W78548   6.421  29.708   4.327
 5481W        W78549  14.859  32.030   3.605
 5482W        W78550   5.404  12.129   2.830
 5483W        W78551  33.926  14.323  10.917
 5484W        W78552  14.945  28.546   3.442
 5485W        W78553  24.526  17.038   3.327
 5486W        W78554  36.967  26.029  13.997
 5487W        W78555  15.723  28.935  14.034
 5488W        W78556  42.723  29.766   4.132
 5489W        W78557  42.346  22.533   2.357
 5490W        W78558  38.373  32.832   0.059
 5491W        W78559  43.550  13.253   2.797
 5492W        W78560  23.927   5.314  14.943
 5493W        W78561  31.796  27.944  11.271
 5494W        W78562  41.430  43.771  14.836
 5495W        W78563  27.178  20.299   3.836
 5496W        W78564   0.986  40.957  13.920
 5497W        W78565   4.333  29.369   3.634
 5498W        W78566  41.806  29.231  14.898
 5499W        W78567  17.110  31.195  12.982
 5500W        W78568  11.204  41.081  12.814
 5501W        W78569  28.721  35.119   2.764
 5502W        W78570  26.116  39.263   4.579
 5503W        W78571  15.297  17.206   1.282
 5504W        W78572   4.795  32.550  10.526
 5505W        W78573   8.625   6.338  14.943
 5506W        W78574  30.478   6.628   3.014
 5507W        W78575  15.327  32.384   2.901
 5508W        W78576  40.001   7.162  11.890
 5509W        W78577  44.981  13.603  11.160
 5510W        W78578  42.767  14.272  10.933
 5511W        W78579  38.944  22.023  14.008
 5512W        W78580   7.434   5.331  14.829
 5513W        W78581   1.391  36.276   4.571
 5514W        W78582  20.952  38.947   4.197
 5515W        W78583   3.055  10.345  13.888
 5516W        W78584   6.130   1.754   0.514
 5517W        W78585   5.836  17.071  12.130
 5518W        W78586  25.061   8.168   2.285
 5519W        W78587  44.763  15.697  11.881
 5520W        W78588  17.580  11.329  11.147
 5521W        W78589   5.752   5.176   1.816
 5522W        W78590   5.746  19.037   4.130
 5523W        W78591  14.250  42.180  11.269
 5524W        W78592  15.779  16.140  12.939
 5525W        W78593  17.016   2.741  14.507
 5526W        W78594  27.624  40.468   1.385
 5527W        W78595  34.381  11.687  14.776
 5528W        W78596  21.241  10.634  10.507
 5529W        W78597  32.145  27.172   3.435
 5530W        W78598  42.410  17.642  12.361
 5531W        W78599  29.976  18.299   3.877
 5532W        W78600   7.445   1.738   4.715
 5533W        W78601  34.010  13.402  14.948
 5534W        W78602  24.567  44.182  12.474
 5535W        W78603   1.946  40.114  12.037
 5536W        W78604  42.103  37.558   0.438
 5537W        W78605  41.235  27.358  11.774
 5538W        W78606   1.223  40.217   3.017
 5539W        W78607  36.489   7.530   4.507
 5540W        W78608  14.196  42.834   1.176
 5541W        W78609  36.931  30.953  14.926
 5542W        W78610  32.312  26.806   0.337
 5543W        W78611  28.428  33.458   1.241
 5544W        W78612  33.607  17.550   3.723
 5545W        W78613  18.825  34.740  12.237
 5546W        W78614  25.034   4.019   2.423
 5547W        W78615  26.885  27.912  12.108
 5548W        W78616  15.391   3.515  10.439
 5549W        W78617  34.124  26.651  14.912
 5550W        W78618   3.435  40.574   2.279
 5551W        W78619   0.758   8.714  12.737
 5552W        W78620  30.853  10.247   2.792
 5553W        W78621   8.311   1.197   4.794
 5554W        W78622  10.825  43.089  14.716
 5555W        W78623  25.505   7.891  14.352
 5556W        W78624   9.994  24.474   1.375
 5557W        W78625  26.046  44.353  14.490
 5558W        W78626  34.538  14.335   0.533
 5559W        W78627  42.011  43.789   0.291
 5560W        W78628  25.666  38.926   3.803
 5561W        W78629  21.665  44.120   0.605
 5562W        W78630  12.249   4.321   3.158
 5563W        W78631  16.941  40.588   4.689
 5564W        W78632   2.462  26.570  14.961
 5565W        W78633   1.230  22.007  14.554
 5566W        W78634  21.314   0.754  12.387
 5567W        W78635  27.249  44.502  11.151
 5568W        W78636  42.785  13.612  11.605
 5569W        W78637  35.036  36.502   3.068
 5570W        W78638  38.092  26.011  11.574
 5571W        W78639  23.459  34.414  14.412
 5572W        W78640   9.802  39.054  11.734
 5573W        W78641  17.526  26.999  11.162
 5574W        W78642  21.260  44.780  13.505
 5575W        W78643  38.543   0.282  10.944
 5576W        W78644   8.844  28.763   1.496
 5577W        W78645  30.944  29.202   1.777
 5578W        W78646  33.960   7.091  12.933
 5579W        W78647   3.703  42.092   0.495
 5580W        W78648  15.628   5.763  12.818
 5581W        W78649  27.467  19.304   1.923
 5582W        W78650  35.591   6.180   3.639
 5583W        W78651  36.441  30.577   0.992
 5584W        W78652  23.976   4.494   4.304
 5585W        W78653   1.730  35.793   3.722
 5586W        W78654  41.563  13.360  11.104
 5587W        W78655  29.512   4.007   1.930
 5588W        W78656  13.659  25.516   1.762
 5589W        W78657   2.221   0.941   2.159
 5590W        W78658  31.599  21.057   0.186
 5591W        W78659  39.898  25.523  12.603
 5592W        W78660  40.299  31.388   4.619
 5593W        W78661   5.233  39.023  14.385
 5594W        W78662  25.196  15.542  13.358
 5595W        W78663   7.458  29.986  13.739
 5596W        W78664  23.632  30.957   4.335
 5597W        W78665  25.827   0.958   2.871
 5598W        W78666  44.801   5.977   4.731
 5599W        W78667   0.795  20.255   0.881
 5600W        W78668   7.822  22.802  13.230
 5601W        W78669  26.000  11.233  12.051
 5602W        W78670  44.137  14.208  11.228
 5603W        W78671   2.385  33.129   2.392
 5604W        W78672  37.414   8.795   3.867
 5605W        W78673  30.849  37.055  13.055
 5606W        W78674   9.155  20.317  14.838
 5607W        W78675  10.667   4.655   1.948
 5608W        W78676  30.597  16.762  10.835
 5609W        W78677  29.114  30.566  13.414
 5610W        W78678  25.028  29.915   3.295
 5611W        W78679  23.504  27.433  12.983
 5612W        W78680  41.228  16.831   3.822
 5613W        W78681  35.774  32.070   2.225
 5614W        W78682  18.987  27.648  12.386
 5615W        W78683  17.783  18.594   2.669
 5616W        W78684   8.698  28.913   4.735
 5617W        W78685   9.235  32.552  11.601
 5618W        W78686   7.863  17.661  12.879
 5619W        W78687  25.226  17.686   2.880
 5620W        W78688   7.615  13.611   2.735
 5621W        W78689  19.294   4.045  13.267
 5622W        W78690   7.419  40.254   3.730
 5623W        W78691  42.782   9.275  14.885
 5624W        W78692  31.873   4.157   4.113
 5625W        W78693  12.232   2.224  13.755
 5626W        W78694  19.425   4.389  12.893
 5627W        W78695  23.725   3.866   0.882
 5628W        W78696   2.975  40.879   3.398
 5629W        W78697  23.079  38.954  14.973
 5630W        W78698  22.489   0.527  13.232
 5631W        W78699  10.588  27.143   2.896
 5632W        W78700  24.102  18.631  14.332
 5633W        W78701  35.453  39.761   3.305
 5634W        W78702  25.622   4.248  13.587
 5635W        W78703   7.219   3.689   3.115
 5636W        W78704  40.935  16.380  11.127
 5637W        W78705   5.286  29.933  12.594
 5638W        W78706  24.501   7.027  14.319
 5639W        W78707  34.569  22.770   2.191
 5640W        W78708  38.461  11.806  12.845
 5641W        W78709  41.869  36.109   0.335
 5642W        W78710  33.517   2.353   3.624
 5643W        W78711  10.239  24.495  14.013
 5644W        W78712  22.086   1.581   0.726
 5645W        W78713  14.202  21.720   4.634
 5646W        W78714  42.598  15.456  14.890
 5647W        W78715   2.986  13.938  13.370
 5648W        W78716   5.155   9.562   4.039
 5649W        W78717  19.727  34.503  12.664
 5650W        W78718  42.969   1.907   4.789
 5651W        W78719  19.037  22.449   0.478
 5652W        W78720  40.038  35.107   3.898
 5653W        W78721  33.606  28.060  11.657
 5654W        W78722  29.639   8.088   1.338
 5655W        W78723   1.720  16.146   4.238
 5656W        W78724   3.980  36.562   1.473
 5657W        W78725   4.892  16.001  13.629
 5658W        W78726  28.486  39.932   1.869
 5659W        W78727   8.390  42.412  12.522
 5660W        W78728  42.581  13.895   3.304
 5661W        W78729  16.257   8.662  10.802
 5662W        W78730  15.759  39.136  12.506
 5663W        W78731  42.560  29.162  14.678
 5664W        W78732  43.996  27.147   0.431
 5665W        W78733  25.483   4.268  12.510
 5666W        W78734  33.212  24.491   3.305
 5667W        W78735  29.072  24.983   3.299
 5668W        W78736  39.717  34.269  13.128
 5669W        W78737   5.463  12.627   1.794
 5670W        W78738  10.096   5.393  11.666
 5671W        W78739  42.736  10.816   3.288
 5672W        W78740  12.664  34.364   1.740
 5673W        W78741  35.532  19.058  10.749
 5674W        W78742  30.508  27.798  11.225
 5675W        W78743  10.178  18.613   2.327
 5676W        W78744   6.424  44.742   1.987
 5677W        W78745  15.679  28.127  12.429
 5678W        W78746  40.836  26.250   0.166
 5679W        W78747  42.625   6.036   2.840
 5680W        W78748   6.984  10.209  12.426
 5681W        W78749   4.705  11.095   0.400
 5682W        W78750  14.280  11.984   4.764
 5683W        W78751  44.005  41.570  13.489
 5684W        W78752  39.943  36.393   4.312
 5685W        W78753  30.559   5.322  11.816
 5686W        W78754  13.859  29.056  12.984
 5687W        W78755  39.065   6.271   3.293
 5688W        W78756   0.511  17.625  14.421
 5689W        W78757  24.252  31.438  14.284
 5690W        W78758  35.396   6.154  12.483
 5691W        W78759  16.022  20.826   4.141
 5692W        W78760  40.971   9.791   4.395
 5693W        W78761   0.338  22.588  11.746
 5694W        W78762  29.870  15.979   4.659
 5695W        W78763  37.481  23.686  12.761
 5696W        W78764  33.346  23.505  14.361
 5697W        W78765  12.843  17.197   0.391
 5698W        W78766  35.368  36.925  13.123
 5699W        W78767   9.282  12.182   0.486
 5700W        W78768   2.373  27.975   1.771
 5701W        W78769  33.943  16.054   2.681
 5702W        W78770  21.493  18.172   0.185
 5703W        W78771   7.165  44.032   0.880
 5704W        W78772   6.097   9.164   1.748
 5705W        W78773  26.784   0.271  11.138
 5706W        W78774   3.487  16.000   2.654
 5707W        W78775  13.674   1.394   4.796
 5708W        W78776  35.655  35.612  13.495
 5709W        W78777   6.185  30.384  13.642
 5710W        W78778  18.659  26.009   4.733
 5711W        W78779  17.264  19.053   3.340
 5712W        W78780  42.989  21.781   2.586
 5713W        W78781  34.525  29.848   0.413
 5714W        W78782  31.748   1.715  12.603
 5715W        W78783  26.761   4.258  12.458
 5716W        W78784  22.951   0.221   2.760
 5717W        W78785  20.123   4.217   4.654
 5718W        W78786  11.061  20.429   2.822
 5719W        W78787  13.231  22.493  13.555
 5720W        W78788  22.217   9.602  10.547
 5721W        W78789   4.652  18.515  10.401
 5722W        W78790  41.545  23.591   1.300
 5723W        W78791  19.736  18.614  14.409
 5724W        W78792  36.055  43.403   2.758
 5725W        W78793  43.047  36.957  14.821
 5726W        W78794  27.872  18.448  12.024
 5727W        W78795   4.955  23.117   2.394
 5728W        W78796  35.540   4.159   3.218
 5729W        W78797  15.362   6.788   3.263
 5730W        W78798  26.462  43.342   3.155
 5731W        W78799  42.267  35.815  10.717
 5732W        W78800  12.694  38.088   3.697
 5733W        W78801  24.216  27.045  11.236
 5734W        W78802  22.173  23.052  10.549
 5735W        W78803  41.615  10.773  10.911
 5736W        W78804  37.059  23.945  12.903
 5737W        W78805  39.199  17.466  10.545
 5738W        W78806  29.846  24.647   4.032
 5739W        W78807   6.434  36.566   1.212
 5740W        W78808   0.312   2.182   2.157
 5741W        W78809  32.087  19.150   1.666
 5742W        W78810   4.199  22.593   4.855
 5743W        W78811  24.929   5.362  13.880
 5744W        W78812  20.696  20.621  14.269
 5745W        W78813   2.447  15.323   5.050
 5746W        W78814   6.302  37.951   1.341
 5747W        W78815   3.135   4.546  11.952
 5748W        W78816  37.590  34.463  14.841
 5749W        W78817  13.348  24.154   2.346
 5750W        W78818  36.626   6.659  13.551
 5751W        W78819  30.944  17.244   1.421
 5752W        W78820   1.260   5.783   4.725
 5753W        W78821   7.329  11.155  11.523
 5754W        W78822  39.671  18.759   3.226
 5755W        W78823  40.587  42.764   3.332
 5756W        W78824  30.923  35.360  13.324
 5757W        W78825  36.336  44.886  14.491
 5758W        W78826  33.839  22.586  14.523
 5759W        W78827  15.013   0.528  11.718
 5760W        W78828  12.297  39.026   1.059
 5761W        W78829  37.442  25.556  13.452
 5762W        W78830  18.185   9.176   3.104
 5763W        W78831  10.657  38.321  12.427
 5764W        W78832  27.146  28.997  11.956
 5765W        W78833  32.509  43.429   0.573
 5766W        W78834  29.364  12.705  10.724
 5767W        W78835  42.528  34.458  14.509
 5768W        W78836  30.924  11.120   2.605
 5769W        W78837  18.631  43.935   2.809
 5770W        W78838   5.406   0.989  14.342
 5771W        W78839  35.940  38.291   2.848
 5772W        W78840   2.711   7.314  12.961
 5773W        W78841  41.200   5.268  11.826
 5774W        W78842  23.197  27.564  13.346
 5775W        W78843   4.688  44.621   4.725
 5776W        W78844  25.644   3.752   0.261
 5777W        W78845  39.875   7.459  11.488
 5778W        W78846  30.480  34.544  14.733
 5779W        W78847  24.557  42.725  11.296
 5780W        W78848   8.259  32.435  11.150
 5781W        W78849  21.542  32.388  13.880
 5782W        W78850   1.224  20.933   4.026
 5783W        W78851  13.560  23.221  11.069
 5784W        W78852  37.044  22.188  13.497
 5785W        W78853  31.056   2.831   0.088
 5786W        W78854  16.015  15.135   2.906
 5787W        W78855   4.746  33.967  14.890
 5788W        W78856  12.823  42.527  13.309
 5789W        W78857  40.569   5.686   3.888
 5790W        W78858  39.175  30.524  11.209
 5791W        W78859   0.299  44.311  10.601
 5792W        W78860   9.692  24.645   3.155
 5793W        W78861  36.616  10.776  13.752
 5794W        W78862  32.746  42.484   3.327
 5795W        W78863  23.269  17.666  13.001
 5796W        W78864  19.962  39.039   1.976
 5797W        W78865  30.445   0.035  12.811
 5798W        W78866  30.151  14.346   2.294
 5799W        W78867  15.044  35.224   3.964
 5800W        W78868  43.519  21.325   4.839
 5801W        W78869  40.738   7.326  12.412
 5802W        W78870   5.909  16.361  12.436
 5803W        W78871  14.842  35.441  13.870
 5804W        W78872  14.582  10.073   0.994
 5805W        W78873  19.793  22.318  12.471
 5806W        W78874  21.634  17.195  14.713
 5807W        W78875  29.734  22.001   1.258
 5808W        W78876  24.448   5.198  13.813
 5809W        W78877  18.013  40.503  10.657
 5810W        W78878   5.857  39.812   0.912
 5811W        W78879  24.957  21.568  11.585
 5812W        W78880   3.174  32.181   2.379
 5813W        W78881  37.442  44.356  13.582
 5814W        W78882  38.071  32.513   2.252
 5815W        W78883  25.954  25.907   1.321
 5816W        W78884   1.476   6.827  11.230
 5817W        W78885  28.931  23.533   4.489
 5818W        W78886  43.928  34.583  13.476
 5819W        W78887  40.545   4.643  12.945
 5820W        W78888  44.671  12.119   3.253
 5821W        W78889  37.283  27.880   4.203
 5822W        W78890  36.941  22.595  11.537
 5823W        W78891  12.088  19.563  11.446
 5824W        W78892  14.801  30.587  11.656
 5825W        W78893  11.865  31.649   2.791
 5826W        W78894   9.131  10.197   3.651
 5827W        W78895   9.371  31.605   2.405
 5828W        W78896  39.346  17.962  11.913
 5829W        W78897  33.352  42.932   3.848
 5830W        W78898  18.099  43.878  14.940
 5831W        W78899  16.738   4.907   2.114
 5832W        W78900  43.935   3.823  10.909
 5833W        W78901  36.521  40.275  13.419
 5834W        W78902   4.249   7.241  14.839
 5835W        W78903  10.829  36.926   1.316
 5836W        W78904  15.629  12.324   3.222
 5837W        W78905  24.609   3.176   3.299
 5838W        W78906  14.098  29.668  13.433
 5839W        W78907  17.380   0.971  11.063
 5840W        W78908  39.563  26.322   0.623
 5841W        W78909  23.630  35.785   0.709
 5842W        W78910  20.431  35.192  13.484
 5843W        W78911  27.539   3.409   3.173
 5844W        W78912  35.860  35.005  14.875
 5845W        W78913   0.466   5.414  10.763
 5846W        W78914  18.190  22.989  12.475
 5847W        W78915  38.118  12.717  10.756
 5848W        W78916   3.896  26.520   2.152
 5849W        W78917  15.796  40.495  13.040
 5850W        W78918   5.470  29.304  14.086
 5851W        W78919   3.477  17.498   2.193
 5852W        W78920   6.365  35.468  10.632
 5853W        W78921   1.655  33.852   0.509
 5854W        W78922  35.461  19.825  13.874
 5855W        W78923  12.183  19.437  10.955
 5856W        W78924  43.933  42.240  14.867
 5857W        W78925  37.667  28.962  12.967
 5858W        W78926   9.688   5.746  14.938
 5859W        W78927  32.541  39.289   4.528
 5860W        W78928  16.343  31.423   4.223
 5861W        W78929  29.007  17.197  11.614
 5862W        W78930  28.054  16.633   2.709
 5863W        W78931  20.125   1.472   4.793
 5864W        W78932  24.587  30.901   1.245
 5865W        W78933   1.897  44.755   4.640
 5866W        W78934   9.643  33.396   0.291
 5867W        W78935  20.688  34.800  11.056
 5868W        W78936  40.251  37.254   3.202
 5869W        W78937   4.633  20.190  12.545
 5870W        W78938  40.857  13.638  12.537
 5871W        W78939  30.958  18.856   1.050
 5872W        W78940   8.005   9.732  12.850
 5873W        W78941  42.290   6.192  12.490
 5874W        W78942  37.468  30.471   3.154
 5875W        W78943  20.243  43.906  12.915
 5876W        W78944  38.308  43.855  13.575
 5877W        W78945  40.665   7.207  14.780
 5878W        W78946  28.762  39.253   4.790
 5879W        W78947  14.742   4.666  12.405
 5880W        W78948  31.120   5.453   2.071
 5881W        W78949  14.757  37.016   0.927
 5882W        W78950   8.714   1.184  13.303
 5883W        W78951  11.475  28.066  11.938
 5884W        W78952   0.301  38.983  14.503
 5885W        W78953  35.388  17.770  11.965
 5886W        W78954  26.706  33.873   0.496
 5887W        W78955  23.972  34.138  12.149
 5888W        W78956  13.811   8.385   4.098
 5889W        W78957  38.954  40.352   1.802
 5890W        W78958  44.034  16.635  12.967
 5891W        W78959  16.252  14.660  10.807
 5892W        W78960  32.545  38.536  12.932
 5893W        W78961   2.772  16.097  10.733
 5894W        W78962  24.434  27.837  12.942
 5895W        W78963   3.072  31.603   4.275
 5896W        W78964   1.908  23.418   2.434
 5897W        W78965  35.270  26.077  11.659
 5898W        W78966  19.412   7.375  10.281
 5899W        W78967  25.387  22.212   0.422
 5900W        W78968  27.276  15.211   2.672
 5901W        W78969  25.180  41.288   3.255
 5902W        W78970  20.477  39.089  11.001
 5903W        W78971  40.366  24.774   4.853
 5904W        W78972  13.543  32.798   3.720
 5905W        W78973  37.422  16.553  14.303
 5906W        W78974  38.381   0.696   5.201
 5907W        W78975  14.740  31.473   4.737
 5908W        W78976  41.107  19.167   4.665
 5909W        W78977  24.228  23.270  13.444
 5910W        W78978  35.207  26.470  12.060
 5911W        W78979  21.422   2.089  13.562
 5912W        W78980  40.936  31.226   2.714
 5913W        W78981  16.687  42.369   1.313
 5914W        W78982  20.961   9.409  13.315
 5915W        W78983   6.474  22.615  12.815
 5916W        W78984  29.944  40.763   4.046
 5917W        W78985  13.175   7.707   3.653
 5918W        W78986  10.420   5.305   1.313
 5919W        W78987   9.765   4.670   1.320
 5920W        W78988  31.028  40.110  12.405
 5921W        W78989  26.741  43.149   1.321
 5922W        W78990   7.901  23.148  14.860
 5923W        W78991   5.573  24.403  12.617
 5924W        W78992  23.752  26.639  11.555
 5925W        W78993  38.219  11.293  12.073
 5926W        W78994  16.335  40.009  12.483
 5927W        W78995  41.253  12.397  11.617
 5928W        W78996  41.336  34.671   2.302
 5929W        W78997  22.296  13.297  12.431
 5930W        W78998  19.821  16.620  13.328
 5931W        W78999  38.992  40.168   4.200
 5932W        W79000   7.579  34.352  13.909
 5933W        W79001  16.095   3.425  11.844
 5934W        W79002   3.059  19.196   1.757
 5935W        W79003  11.075  27.179   2.718
 5936W        W79004   1.280  41.001   4.772
 5937W        W79005  13.556  40.367   1.490
 5938W        W79006  34.597  11.570   3.565
 5939W        W79007  35.870  20.449   4.069
 5940W        W79008  22.348  42.794   5.002
 5941W        W79009  27.093  39.477   3.456
 5942W        W79010  11.156  31.806  13.453
 5943W        W79011  16.757  37.071   0.881
 5944W        W79012  18.591  34.589  13.029
 5945W        W79013  32.381  17.630   0.525
 5946W        W79014   0.777   0.814   4.700
 5947W        W79015  31.880   2.457  12.843
 5948W        W79016   9.878   2.922   0.400
 5949W        W79017  40.301  16.682   1.699
 5950W        W79018   9.084   1.475  10.752
 5951W        W79019  39.623  27.762  13.294
 5952W        W79020  19.175  35.950   0.421
 5953W        W79021  19.638  39.110  12.824
 5954W        W79022   7.754  39.822  10.397
 5955W        W79023  25.154  42.724  12.453
 5956W        W79024  32.241  26.838   1.366
 5957W        W79025  37.003  18.299   2.100
 5958W        W79026  40.862  22.141  14.005
 5959W        W79027  26.039   6.238  10.619
 5960W        W79028  38.195  13.961  14.008
 5961W        W79029  41.811  13.271   1.270
 5962W        W79030  30.659  10.944  10.564
 5963W        W79031  23.455  21.839   0.467
 5964W        W79032   3.516  19.295   1.979
 5965W        W79033  34.288   5.783  11.992
 5966W        W79034  23.284  25.046  11.249
 5967W        W79035  34.207  28.210   2.733
 5968W        W79036  39.866  27.518  11.756
 5969W        W79037   3.526   9.175   2.131
 5970W        W79038   6.179  11.617  10.521
 5971W        W79039   3.790  15.326  14.893
 5972W        W79040   5.599  31.411  11.814
 5973W        W79041  21.520   6.316  14.263
 5974W        W79042   2.723  41.966   0.691
 5975W        W79043  35.062   6.787   3.068
 5976W        W79044  28.409  39.180   2.984
 5977W        W79045  19.715   4.469   0.360
 5978W        W79046   7.746   6.657  12.045
 5979W        W79047  24.966  23.515   1.896
 5980W        W79048  14.009  15.770   0.331
 5981W        W79049   2.537  29.914   1.425
 5982W        W79050  38.537  17.344  11.891
 5983W        W79051   4.395  21.697   0.316
 5984W        W79052  18.845  36.027  13.201
 5985W        W79053  27.973   3.791  11.658
 5986W        W79054  13.608  43.889   4.137
 5987W        W79055   4.219  30.919   3.282
 5988W        W79056   3.182  22.916   2.758
 5989W        W79057   3.252  27.071   3.227
 5990W        W79058  14.328  34.888  10.818
 5991W        W79059  23.391  42.394   0.243
 5992W        W79060  36.904  29.966   0.920
 5993W        W79061   0.811   3.305   4.588
 5994W        W79062   0.748  17.324  11.582
 5995W        W79063  40.144   2.145   2.463
 5996W        W79064   7.743  25.471   0.930
 5997W        W79065  15.463  39.337  11.172
 5998W        W79066  41.340  21.747  11.549
 5999W        W79067  17.255  30.480  13.586
 6000W        W79068   7.542  10.779  13.416
 6001W        W79069   8.493   6.444   1.794
 6002W        W79070  12.637  24.027  10.778
 6003W        W79071  44.523  41.982   2.832
 6004W        W79072  26.611  11.966   3.606
 6005W        W79073   9.871   4.395  14.476
 6006W        W79074  38.812   8.149   0.252
 6007W        W79075   2.346  38.415   2.439
 6008W        W79076  13.357  26.844   0.242
 6009W        W79077  15.697  15.315  10.368
 6010W        W79078  17.276  20.182  14.585
 6011W        W79079   1.959  10.991   2.667
 6012W        W79080   3.536  40.330   9.918
 6013W        W79081  43.038  18.648   0.310
 6014W        W79082  29.144   9.903  11.165
 6015W        W79083  39.562  33.635   3.845
 6016W        W79084  22.250  30.650   1.842
 6017W        W79085  26.653   0.297  12.977
 6018W        W79086  22.927   5.738   3.194
 6019W        W79087  15.503  15.706   5.295
 6020W        W79088  16.717  40.304  11.252
 6021W        W79089   5.665  23.521  14.217
 6022W        W79090  16.646  36.049   0.743
 6023W        W79091  10.568  11.100   0.796
 6024W        W79092  34.519  16.427  14.586
 6025W        W79093  42.347  13.788   3.742
 6026W        W79094   0.560  22.583  14.084
 6027W        W79095  43.312  10.861  14.349
 6028W        W79096   9.731  26.699   3.742
 6029W        W79097   9.732  29.970   4.857
 6030W        W79098  12.746  12.539   1.235
 6031W        W79099  25.671  14.264   0.541
 6032W        W79100   3.448   5.162  12.475
 6033W        W79101  25.440  10.000   0.925
 6034W        W79102  15.207  10.694  11.008
 6035W        W79103   0.426  30.024   3.289
 6036W        W79104  15.633  19.590   1.383
 6037W        W79105  38.520  19.185   4.148
 6038W        W79106  35.556  18.227   1.843
 6039W        W79107   6.416  12.037  10.764
 6040W        W79108   2.773  34.221  12.372
 6041W        W79109  27.969  10.551  13.394
 6042W        W79110  35.374  38.922   0.373
 6043W        W79111  33.812  16.762  12.941
 6044W        W79112  12.556   2.855  14.886
 6045W        W79113  29.568  42.590  10.639
 6046W        W79114  19.218   3.192   0.377
 6047W        W79115  32.186  25.104   4.248
 6048W        W79116   2.300  44.342   2.701
 6049W        W79117  31.095   2.388  11.639
 6050W        W79118  22.600   1.223  11.943
 6051W        W79119  24.037  40.953   2.741
 6052W        W79120  32.998   2.205   1.537
 6053W        W79121  33.464  44.473  10.471
 6054W        W79122  25.592  15.745  12.850
 6055W        W79123  18.013  29.357   2.774
 6056W        W79124  23.213   2.998  10.980
 6057W        W79125  29.503  29.410  12.492
 6058W        W79126  44.900  13.285  14.822
 6059W        W79127  39.358  27.403  11.826
 6060W        W79128  28.897  18.498   3.734
 6061W        W79129  27.991  23.244   1.767
 6062W        W79130  40.977  38.897   1.293
 6063W        W79131   7.854  23.029  13.915
 6064W        W79132  41.812  30.032   3.622
 6065W        W79133  11.828  22.552  13.366
 6066W        W79134   4.831   6.179   1.871
 6067W        W79135  25.696  21.704   0.854
 6068W        W79136  38.848  19.088  13.817
 6069W        W79137   1.324   6.282   4.703
 6070W        W79138   4.484  42.835  13.911
 6071W        W79139   5.534  35.489  13.817
 6072W        W79140  35.553  23.498   2.759
 6073W        W79141  10.631  15.387   3.091
 6074W        W79142  12.166  38.392   3.255
 6075W        W79143  23.965  43.548   4.860
 6076W        W79144  43.751   8.198  11.555
 6077W        W79145  15.323  26.534   2.700
 6078W        W79146  32.316  43.381  10.383
 6079W        W79147  22.860  41.826   1.235
 6080W        W79148  28.997  22.392   3.331
 6081W        W79149  33.348   9.465  13.842
 6082W        W79150  39.533  38.071   3.780
 6083W        W79151  17.003  22.524  12.825
 6084W        W79152   0.755  42.843   2.334
 6085W        W79153  31.150  44.900  14.352
 6086W        W79154  39.951  25.886   2.399
 6087W        W79155  43.855  31.608  10.652
 6088W        W79156  39.987  12.348   2.318
 6089W        W79157  35.850  27.000   3.213
 6090W        W79158   4.101  13.907  12.903
 6091W        W79159  24.254  17.040   4.715
 6092W        W79160  18.513   7.673  14.681
 6093W        W79161   0.979  17.127  13.259
 6094W        W79162  18.151  23.030  14.528
 6095W        W79163  28.137  12.906   1.244
 6096W        W79164  42.766  30.559   2.816
 6097W        W79165  40.925  39.576   1.635
 6098W        W79166   8.552  26.440  12.498
 6099W        W79167  33.507   3.331   4.640
 6100W        W79168  34.529   5.929  12.424
 6101W        W79169  23.623   9.330   3.020
 6102W        W79170  42.188  10.055   1.298
 6103W        W79171  20.089   6.553   5.029
 6104W        W79172  14.700  41.928  12.980
 6105W        W79173  38.632   6.671  10.690
 6106W        W79174   9.329  14.307   0.881
 6107W        W79175  12.908   4.468  10.549
 6108W        W79176  29.149  44.392  10.666
 6109W        W79177  18.282  11.920  11.106
 6110W        W79178  37.199  41.369  10.392
 6111W        W79179  32.668  13.309   2.337
 6112W        W79180  21.559   1.426  14.356
 6113W        W79181  36.389  27.890  13.379
 6114W        W79182  12.279   0.892   2.026
 6115W        W79183  37.743  42.816   5.359
 6116W        W79184   2.723  35.358  13.448
 6117W        W79185  18.228  19.614   0.802
 6118W        W79186  16.978   6.234  14.496
 6119W        W79187  25.510   7.684   4.120
 6120W        W79188  26.235  32.261  12.420
 6121W        W79189  11.058  11.707   3.183
 6122W        W79190  14.306  33.942   0.880
 6123W        W79191  21.645  14.577   4.269
 6124W        W79192   0.022  18.756   1.182
 6125W        W79193  39.318  20.923  11.923
 6126W        W79194  31.009   4.768  11.504
 6127W        W79195  42.715  42.362   0.179
 6128W        W79196  20.170  41.772   2.332
 6129W        W79197   2.686   1.658   2.340
 6130W        W79198   7.930  37.838   1.907
 6131W        W79199   9.273  16.612  12.566
 6132W        W79200  14.314  16.179  14.290
 6133W        W79201  28.074  16.432  12.306
 6134W        W79202  17.219   1.206  11.634
 6135W        W79203  39.364  16.820   1.295
 6136W        W79204  15.851  13.285  13.932
 6137W        W79205  10.137  16.656   0.298
 6138W        W79206  32.419  14.766   4.181
 6139W        W79207  15.194  41.753  13.085
 6140W        W79208   7.734   6.981   0.220
 6141W        W79209   1.925  39.046   1.165
 6142W        W79210  29.882  34.232  14.241
 6143W        W79211  28.348  43.969   1.302
 6144W        W79212   2.798   4.329   4.774
 6145W        W79213  15.431   3.692   3.690
 6146W        W79214  12.685   0.570  14.840
 6147W        W79215  12.794  12.735  10.373
 6148W        W79216  25.753  21.635   3.085
 6149W        W79217  15.773  16.788   0.738
 6150W        W79218  29.869  32.043   2.391
 6151W        W79219  42.027  39.020   0.986
 6152W        W79220  15.349   5.414   2.924
 6153W        W79221  10.863  26.028   1.163
 6154W        W79222   0.766  31.936   3.009
 6155W        W79223  29.880  13.715  13.467
 6156W        W79224   3.723   0.351  11.877
 6157W        W79225  23.685  26.192   2.599
 6158W        W79226  16.820  12.760  11.664
 6159W        W79227  32.635  19.618   3.702
 6160W        W79228  15.852  20.182   2.818
 6161W        W79229  30.544  20.099   3.378
 6162W        W79230  15.234  27.514   3.709
 6163W        W79231  40.754   1.118   0.724
 6164W        W79232  25.056  28.378  12.486
 6165W        W79233  29.201  21.279   0.807
 6166W        W79234  23.018  14.247   2.181
 6167W        W79235  41.882  36.945  11.824
 6168W        W79236  30.023  14.964  13.901
 6169W        W79237  26.680  35.470   1.452
 6170W        W79238  23.612  32.634  13.477
 6171W        W79239   5.728  34.821  11.596
 6172W        W79240  20.364  13.699   1.151
 6173W        W79241   3.013   0.901   5.049
 6174W        W79242   1.747  42.285  12.564
 6175W        W79243  17.261   2.836   1.312
 6176W        W79244  42.582  11.813   3.472
 6177W        W79245   3.685  21.123  11.625
 6178W        W79246  42.333  30.069   3.432
 6179W        W79247  19.233  23.598   4.627
 6180W        W79248  26.739  40.852  12.591
 6181W        W79249  12.520  42.856   4.488
 6182W        W79250   8.259  19.752   4.107
 6183W        W79251  19.689  15.741   1.906
 6184W        W79252  10.606  26.655   3.383
 6185W        W79253  20.538  38.583  10.927
 6186W        W79254  39.249  39.999   4.673
 6187W        W79255  25.736  32.484  13.979
 6188W        W79256  38.043   7.593   4.210
 6189W        W79257   0.042  26.484   1.134
 6190W        W79258  29.971  12.278  13.078
 6191W        W79259  14.102  24.168  14.697
 6192W        W79260  25.573  23.439   0.287
 6193W        W79261   0.982  23.577   2.782
 6194W        W79262   4.685  15.295   0.444
 6195W        W79263  29.964  37.501  12.017
 6196W        W79264  26.483  36.131   1.370
 6197W        W79265  21.280  40.781  13.864
 6198W        W79266  38.570  20.502  13.615
 6199W        W79267  39.126  27.987  13.861
 6200W        W79268  41.940   0.846  12.593
 6201W        W79269  33.034   6.190  12.115
 6202W        W79270  43.390  18.035  13.439
 6203W        W79271  39.577  34.642  13.486
 6204W        W79272  42.125   4.341  11.426
 6205W        W79273  24.488  24.123  13.770
 6206W        W79274  12.048  35.729   0.729
 6207W        W79275  20.981   8.808  12.106
 6208W        W79276  11.333  34.205   0.408
 6209W        W79277  39.817  31.311   2.738
 6210W        W79278  18.311   2.530  11.565
 6211W        W79279  36.563   6.659  13.015
 6212W        W79280  32.818  41.435  11.842
 6213W        W79281  35.039  39.314  14.962
 6214W        W79282  37.841  16.650  12.013
 6215W        W79283  18.651  35.010  14.778
 6216W        W79284   5.375   3.124   1.385
 6217W        W79285  41.844  13.675  14.549
 6218W        W79286   0.076  10.795   3.333
 6219W        W79287  39.024   5.738   5.592
 6220W        W79288  15.397   5.813  13.854
 6221W        W79289  40.984  24.212  14.133
 6222W        W79290  19.875  36.455  12.114
 6223W        W79291  14.040  37.981  10.743
 6224W        W79292  16.864  10.180  12.126
 6225W        W79293  11.636   5.782  14.843
 6226W        W79294   7.168  16.616   2.730
 6227W        W79295  27.798  26.804  10.198
 6228W        W79296  44.848   5.304   1.988
 6229W        W79297  28.414  27.961  11.451
 6230W        W79298  24.896   7.821  10.664
 6231W        W79299  40.372  25.230  11.764
 6232W        W79300   8.182  26.476   2.296
 6233W        W79301  27.682   4.744   0.289
 6234W        W79302  11.776  20.993   0.533
 6235W        W79303  36.872  40.115   1.561
 6236W        W79304   8.380   6.775  13.793
 6237W        W79305   9.214  34.134  10.800
 6238W        W79306  33.665   3.909   0.037
 6239W        W79307  20.035  28.515  13.314
 6240W        W79308  36.919  23.245   4.695
 6241W        W79309  19.178  21.981   2.884
 6242W        W79310  32.828   9.335   0.886
 6243W        W79311  35.296   3.185   0.363
 6244W        W79312  23.699  39.006  14.368
 6245W        W79313  39.808  34.785  11.603
 6246W        W79314  38.392  30.559   4.992
 6247W        W79315  39.476  15.683   1.568
 6248W        W79316  30.494  37.513   1.200
 6249W        W79317  38.510  13.711  11.958
 6250W        W79318  35.885  30.011   4.813
 6251W        W79319  17.161  15.120  10.756
 6252W        W79320  14.023  36.663  12.015
 6253W        W79321  20.881  25.521   3.902
 6254W        W79322  18.571   3.286  10.690
 6255W        W79323  31.095  13.680   0.526
 6256W        W79324   1.828  23.995  14.865
 6257W        W79325  36.925   9.272  11.005
 6258W        W79326  13.364  12.357   3.160
 6259W        W79327   7.557  11.799  14.840
 6260W        W79328   4.860   5.667   1.976
 6261W        W79329  28.345  11.196   1.837
 6262W        W79330  26.267  10.259  10.977
 6263W        W79331  43.024  18.355   0.931
 6264W        W79332  21.652  16.537   1.721
 6265W        W79333  35.873  17.360  11.178
 6266W        W79334  22.877   4.194  13.492
 6267W        W79335  11.861  26.403  13.446
 6268W        W79336  15.009  41.561   0.808
 6269W        W79337  24.445   9.314   1.880
 6270W        W79338   8.238  41.445  14.078
 6271W        W79339  16.684   8.048  14.525
 6272W        W79340  26.436  10.886  11.852
 6273W        W79341  42.633  40.617   4.382
 6274W        W79342  13.843  12.371   0.410
 6275W        W79343  13.539  27.897  11.570
 6276W        W79344  32.008  31.184   4.230
 6277W        W79345   4.256   7.409  10.915
 6278W        W79346  18.156  40.822   1.652
 6279W        W79347  10.955  22.726  13.380
 6280W        W79348  14.057   0.770  11.788
 6281W        W79349  26.237  18.123   3.278
 6282W        W79350  18.730  34.366  13.467
 6283W        W79351  10.216  29.839   1.691
 6284W        W79352   5.315  17.304   1.358
 6285W        W79353   3.633  13.608  12.010
 6286W        W79354  27.579   8.120  11.201
 6287W        W79355  24.507  20.401   4.583
 6288W        W79356  17.501  13.103  10.660
 6289W        W79357   6.377  39.122   0.748
 6290W        W79358  15.326  22.044  10.541
 6291W        W79359  42.417  44.979   3.419
 6292W        W79360  20.788  16.335  10.517
 6293W        W79361   3.917  22.618   1.787
 6294W        W79362  24.965  23.797   4.853
 6295W        W79363   9.770  36.012   0.851
 6296W        W79364   1.698  18.032  14.489
 6297W        W79365   0.428  28.713  13.077
 6298W        W79366  32.882  14.625  11.184
 6299W        W79367  19.239  10.818  14.998
 6300W        W79368  23.191  12.863  11.549
 6301W        W79369  31.360  29.559  14.762
 6302W        W79370   8.861  24.935   0.463
 6303W        W79371  13.163  43.881  11.411
 6304W        W79372  22.492  21.522  12.522
 6305W        W79373   9.429  31.928   0.350
 6306W        W79374  22.316   8.651  13.090
 6307W        W79375   6.896  36.756   1.916
 6308W        W79376  20.532  23.267  13.830
 6309W        W79377  33.914  25.017  13.470
 6310W        W79378  29.565  24.987   3.148
 6311W        W79379  41.445  35.819  12.991
 6312W        W79380  14.126  38.652   2.282
 6313W        W79381  28.256  43.111  13.961
 6314W        W79382   6.809  19.349   4.580
 6315W        W79383  27.453  30.368  14.496
 6316W        W79384  16.814   0.818  14.971
 6317W        W79385  35.848  42.016  11.580
 6318W        W79386  44.941  18.158   4.497
 6319W        W79387   2.417  38.800   3.768
 6320W        W79388  27.479  41.035  12.971
 6321W        W79389  34.902  26.503   4.726
 6322W        W79390   0.110  44.082   0.410
 6323W        W79391  38.109   0.125  11.185
 6324W        W79392  11.429  35.017   0.626
 6325W        W79393  17.234  36.304  10.738
 6326W        W79394  16.676  19.812  12.470
 6327W        W79395  21.231  42.738  10.662
 6328W        W79396  29.962  26.073  13.896
 6329W        W79397  22.052   2.809   0.728
 6330W        W79398  23.231  30.236  12.933
 6331W        W79399  41.703  38.340  13.940
 6332W        W79400  18.786  13.705  13.030
 6333W        W79401  31.022   4.177  14.962
 6334W        W79402  12.150  41.233   3.155
 6335W        W79403  34.630   9.913   4.122
 6336W        W79404  40.168  25.674  13.450
 6337W        W79405   3.750  35.395   3.202
 6338W        W79406  38.539   5.410  14.660
 6339W        W79407  21.144  27.425   0.222
 6340W        W79408  37.800  30.872   3.241
 6341W        W79409  31.120  10.988   0.516
 6342W        W79410  28.205   9.430  11.156
 6343W        W79411  16.117  12.940   1.891
 6344W        W79412  32.441  23.759  11.178
 6345W        W79413  10.589  41.021  14.217
 6346W        W79414  25.545  44.207  13.634
 6347W        W79415   2.772  11.414   1.234
 6348W        W79416  38.133  11.309  14.372
 6349W        W79417  43.888  16.733   0.393
 6350W        W79418  22.513   9.934   1.743
 6351W        W79419  15.036   4.227   2.286
 6352W        W79420  38.343  14.667  12.730
 6353W        W79421  31.370  27.926  10.493
 6354W        W79422  18.700  12.540   1.004
 6355W        W79423  25.038  18.986   2.291
 6356W        W79424  32.954  40.109  13.114
 6357W        W79425  26.432  24.401   4.210
 6358W        W79426  32.392  12.669  13.497
 6359W        W79427  42.756  30.092  12.118
 6360W        W79428   8.875   3.058  14.863
 6361W        W79429  42.928  16.917   1.914
 6362W        W79430  30.892  24.055  13.347
 6363W        W79431   9.827  33.319  10.463
 6364W        W79432  23.703  39.502   2.328
 6365W        W79433  37.531  33.912  14.707
 6366W        W79434  40.445  33.834  11.198
 6367W        W79435  43.203  19.146   0.467
 6368W        W79436  32.023  24.054   1.777
 6369W        W79437  29.889  43.303  11.187
 6370W        W79438   5.910  12.403  11.600
 6371W        W79439  21.411  13.465   5.279
 6372W        W79440   8.248  40.887   0.330
 6373W        W79441   4.658  36.688  11.499
 6374W        W79442  26.312  40.862  10.461
 6375W        W79443  11.208   7.655   1.005
 6376W        W79444   8.573   6.335  13.242
 6377W        W79445   9.042   5.481  11.541
 6378W        W79446  36.021  20.714   3.199
 6379W        W79447  26.345  11.602  13.255
 6380W        W79448  17.658  33.329   4.061
 6381W        W79449  18.545   1.904   1.064
 6382W        W79450  28.276  36.512   0.546
 6383W        W79451  19.603  31.635  14.521
 6384W        W79452  26.632  44.508  13.371
 6385W        W79453  13.682  31.465   4.693
 6386W        W79454  30.185  21.030   0.697
 6387W        W79455  11.757  11.318   2.377
 6388W        W79456  14.124  15.142   4.352
 6389W        W79457  28.198  15.236   2.458
 6390W        W79458  39.772  14.205   3.128
 6391W        W79459  13.153   4.801  13.380
 6392W        W79460   6.985  41.780  11.951
 6393W        W79461  30.438   9.303  10.911
 6394W        W79462  32.085  14.116   2.654
 6395W        W79463  29.466   6.663  10.688
 6396W        W79464   9.123  34.775   4.715
 6397W        W79465  34.820  14.423  11.580
 6398W        W79466   3.825  13.903   3.050
 6399W        W79467  27.637  19.295  12.379
 6400W        W79468  23.639   0.194  12.688
 6401W        W79469  44.638  43.034  12.035
 6402W        W79470  21.062  29.896   0.646
 6403W        W79471   6.673  11.130  14.749
 6404W        W79472  37.467  29.809  11.206
 6405W        W79473   3.292  40.930  10.712
 6406W        W79474   6.661  29.467  11.060
 6407W        W79475  41.541   8.373   4.506
 6408W        W79476  39.084  29.143  14.002
 6409W        W79477  10.270  12.448   0.438
 6410W        W79478  31.049  29.117  13.322
 6411W        W79479  43.791  44.758   3.832
 6412W        W79480   5.262   4.208  13.456
 6413W        W79481  34.310  17.004  10.669
 6414W        W79482  29.134  43.019  10.756
 6415W        W79483  42.165  16.211   3.168
 6416W        W79484  16.090   2.564   0.531
 6417W        W79485  42.981  43.510   3.679
 6418W        W79486  41.752  13.176  14.704
 6419W        W79487  25.124  12.815  13.863
 6420W        W79488  35.616  10.309   0.850
 6421W        W79489  13.234  19.717   2.328
 6422W        W79490  19.621  14.548   3.166
 6423W        W79491  21.102   4.226  10.719
 6424W        W79492  31.484  40.546   2.786
 6425W        W79493  18.143   4.849   1.016
 6426W        W79494  44.348  14.369   2.338
 6427W        W79495   7.888  40.150   1.317
 6428W        W79496   9.094  19.723  12.405
 6429W        W79497   1.195  38.039  10.437
 6430W        W79498  22.778  22.630  14.626
 6431W        W79499  44.842  15.498   0.625
 6432W        W79500   2.852  19.528   0.927
 6433W        W79501  39.238  21.085   4.218
 6434W        W79502  12.170  38.623   0.231
 6435W        W79503  40.900  21.487   4.892
 6436W        W79504  27.850  26.040   0.357
 6437W        W79505  15.680  34.038  12.807
 6438W        W79506  10.900  41.008   0.657
 6439W        W79507  44.911   4.226  13.973
 6440W        W79508  22.270  39.045   3.271
 6441W        W79509  35.000  10.623   0.268
 6442W        W79510  36.052  36.937   3.712
 6443W        W79511   6.327  14.748  12.085
 6444W        W79512   8.220   8.152  12.080
 6445W        W79513  13.146  24.160  12.971
 6446W        W79514  12.121  15.720   0.368
 6447W        W79515  41.935   0.699   1.602
 6448W        W79516   5.199   0.670   1.995
 6449W        W79517  28.742  39.287   1.312
 6450W        W79518  25.902  14.218   3.661
 6451W        W79519  40.607  44.409  10.093
 6452W        W79520   1.510  13.789  11.070
 6453W        W79521  15.156   6.196  11.156
 6454W        W79522  18.371  11.403  12.905
 6455W        W79523  20.988  20.654   2.323
 6456W        W79524  41.440  33.849  14.384
 6457W        W79525  44.963  20.493   1.879
 6458W        W79526   0.390  10.224   2.246
 6459W        W79527  41.477   0.819  13.772
 6460W        W79528  38.490  19.043   2.249
 6461W        W79529  28.035  31.976   4.696
 6462W        W79530  36.358  18.739   4.595
 6463W        W79531   3.972  26.410  10.898
 6464W        W79532  40.362  25.715   3.827
 6465W        W79533  27.235  22.785   3.083
 6466W        W79534  24.849   3.323   4.465
 6467W        W79535  14.709   3.838   2.343
 6468W        W79536   7.167  35.992   1.597
 6469W        W79537   7.659  22.228  10.750
 6470W        W79538  29.606  24.098   1.051
 6471W        W79539  33.563  10.673   3.278
 6472W        W79540  32.875  43.689   2.333
 6473W        W79541  31.151   7.409  13.584
 6474W        W79542  33.837  34.105  14.155
 6475W        W79543  40.884   6.915  11.543
 6476W        W79544  15.533  20.797  12.815
 6477W        W79545  26.983  18.547  13.361
 6478W        W79546  44.360  32.177   3.200
 6479W        W79547   8.311  40.383  14.032
 6480W        W79548   8.816  31.400  13.099
 6481W        W79549   4.073  24.978  10.318
 6482W        W79550   6.497  38.345  13.305
 6483W        W79551  26.315  11.696   0.933
 6484W        W79552  41.909  39.008  10.758
 6485W        W79553  28.523   9.666  13.899
 6486W        W79554  29.599  29.395  14.297
 6487W        W79555  28.604  23.754  14.575
 6488W        W79556  31.802  14.242   0.814
 6489W        W79557   3.916   1.904   1.434
 6490W        W79558   2.861   2.186   0.384
 6491W        W79559  34.772  37.123  10.608
 6492W        W79560  29.458  16.830  14.998
 6493W        W79561  44.379   0.661  11.066
 6494W        W79562  21.028   0.080   0.522
 6495W        W79563  15.624  16.466   3.533
 6496W        W79564  25.624  28.863  14.326
 6497W        W79565  42.107  38.397   4.146
 6498W        W79566  43.115  41.367  11.161
 6499W        W79567   3.407  23.128   2.228
 6500W        W79568  34.020  20.142   2.697
 6501W        W79569  14.378   3.407   4.121
 6502W        W79570  24.613   0.739  12.092
 6503W        W79571  27.157  28.952   2.437
 6504W        W79572  37.996  20.550  11.924
 6505W        W79573  25.227  34.419  14.790
 6506W        W79574  12.565  34.524  11.568
 6507W        W79575  43.734  16.370   0.035
 6508W        W79576  14.670  17.060   4.616
 6509W        W79577  17.219  36.313  14.739
 6510W        W79578  28.796  32.187  11.047
 6511W        W79579  15.152   3.183   1.734
 6512W        W79580  41.973  38.149   3.695
 6513W        W79581  42.565  26.192   2.745
 6514W        W79582  38.863  42.271  11.665
 6515W        W79583  30.613  12.769   1.818
 6516W        W79584   6.152  20.611  10.776
 6517W        W79585  40.472  21.051   1.210
 6518W        W79586   7.826   3.475  13.688
 6519W        W79587  39.137   9.912  11.973
 6520W        W79588  25.113  10.792   4.175
 6521W        W79589  12.563  11.406  14.568
 6522W        W79590   2.427  36.588   4.703
 6523W        W79591  11.890  12.633   0.949
 6524W        W79592   0.389   8.389   0.901
 6525W        W79593  25.902  33.758  11.961
 6526W        W79594   1.243  25.636   1.911
 6527W        W79595  10.729  34.025  11.559
 6528W        W79596   2.543   4.317   1.382
 6529W        W79597  21.770  30.680   2.462
 6530W        W79598  41.616  18.653   4.108
 6531W        W79599  25.079  40.018  11.974
 6532W        W79600   8.153  29.676   2.961
 6533W        W79601  17.630  11.301  14.796
 6534W        W79602   5.325  14.670   1.972
 6535W        W79603  21.263  12.284   0.471
 6536W        W79604  35.627  44.968   4.111
 6537W        W79605   9.888  29.031   3.330
 6538W        W79606  34.981  44.778   2.368
 6539W        W79607  44.959  17.271   1.433
 6540W        W79608   5.241  16.339  13.259
 6541W        W79609  10.229  12.867   3.837
 6542W        W79610   3.488   6.333   2.182
 6543W        W79611  11.583  17.686  13.471
 6544W        W79612  35.344  39.283   4.208
 6545W        W79613  10.401  11.101   4.197
 6546W        W79614   4.748   9.775   2.173
 6547W        W79615  11.711  39.481  12.922
 6548W        W79616  14.622  13.037  11.638
 6549W        W79617   9.550  37.891   3.756
 6550W        W79618   5.450   1.368  11.061
 6551W        W79619  31.400  41.363  13.898
 6552W        W79620  12.851  26.917  11.972
 6553W        W79621   6.307  13.014  11.076
 6554W        W79622  12.185   0.776   3.776
 6555W        W79623  35.550  23.184   4.564
 6556W        W79624  31.375  19.590  12.223
 6557W        W79625  42.784  27.255   2.413
 6558W        W79626   9.795  39.812   0.933
 6559W        W79627  44.425   1.011  14.385
 6560W        W79628  10.718  10.626  13.022
 6561W        W79629  34.778  13.122   1.034
 6562W        W79630  42.840   8.140  14.340
 6563W        W79631   8.677   8.879   4.378
 6564W        W79632   1.281  27.429   4.595
 6565W        W79633  43.069  33.661   0.387
 6566W        W79634  18.833   5.644   1.786
 6567W        W79635   6.923  29.908  11.126
 6568W        W79636  30.011  38.603  14.744
 6569W        W79637  31.548  27.199   4.103
 6570W        W79638  20.013  26.441   0.449
 6571W        W79639  31.004  19.238   0.708
 6572W        W79640  28.681   7.767  14.014
 6573W        W79641  24.461  27.136   4.528
 6574W        W79642  36.767   1.339  13.848
 6575W        W79643  16.403  14.262   3.351
 6576W        W79644  12.196  44.474   3.083
 6577W        W79645  33.105  24.283   1.471
 6578W        W79646  14.242  20.801   3.128
 6579W        W79647  33.111  30.968   4.028
 6580W        W79648  27.465  22.395  11.306
 6581W        W79649  25.899  42.373  13.956
 6582W        W79650  36.504  24.124  10.588
 6583W        W79651   9.793  11.798  13.024
 6584W        W79652   9.930  17.664   1.231
 6585W        W79653  34.626  22.047   4.480
 6586W        W79654  24.217  38.055  11.503
 6587W        W79655   1.385  14.436   3.087
 6588W        W79656  44.516  29.950   2.815
 6589W        W79657  34.060   8.775  14.298
 6590W        W79658  10.848   1.418  11.506
 6591W        W79659   2.695   2.711   2.235
 6592W        W79660  35.171   9.358  11.587
 6593W        W79661   5.401  29.161  10.776
 6594W        W79662  26.140  39.767   4.655
 6595W        W79663  30.397  24.473   1.719
 6596W        W79664  38.016   2.791  10.951
 6597W        W79665  40.789  39.378  12.405
 6598W        W79666  19.949  17.373  14.636
 6599W        W79667  20.087   8.212  14.206
 6600W        W79668   0.418  10.953   1.712
 6601W        W79669  41.433  17.319  10.438
 6602W        W79670  39.889  11.834   2.327
 6603W        W79671  27.761   0.864  11.192
 6604W        W79672  15.146  18.887  10.635
 6605W        W79673  17.306  14.876  11.581
 6606W        W79674  21.131   0.168   1.479
 6607W        W79675  35.667  22.783   2.324
 6608W        W79676  36.307  26.053   4.044
 6609W        W79677  28.093  31.615   3.704
 6610W        W79678  15.180   0.582   4.776
 6611W        W79679   5.265  31.231  13.096
 6612W        W79680  30.953  12.312  10.655
 6613W        W79681  43.983  31.405   4.028
 6614W        W79682  10.380  38.584  11.096
 6615W        W79683  32.272  28.130  10.286
 6616W        W79684  25.951   3.492  11.189
 6617W        W79685  10.791  20.317  14.513
 6618W        W79686  18.518  26.198  12.543
 6619W        W79687  11.832  31.919   1.745
 6620W        W79688   5.034  36.598  11.968
 6621W        W79689  34.354   2.697   3.244
 6622W        W79690   9.203  19.765  14.895
 6623W        W79691  22.497  14.990  14.665
 6624W        W79692  15.234  17.905   0.374
 6625W        W79693  43.476   8.260  11.115
 6626W        W79694  40.600  44.739  14.969
 6627W        W79695  16.040  34.792   2.193
 6628W        W79696  36.754  20.772  11.164
 6629W        W79697  43.190  43.926   3.919
 6630W        W79698  15.414   4.944  13.701
 6631W        W79699  15.782  37.904  12.775
 6632W        W79700   9.358   9.148  13.960
 6633W        W79701  14.540  29.062   0.319
 6634W        W79702   2.821  19.738   0.023
 6635W        W79703   3.166  44.751   0.685
 6636W        W79704   6.275  22.700  10.937
 6637W        W79705  23.502  32.048  12.067
 6638W        W79706  41.200   4.696   1.352
 6639W        W79707   1.962  10.106  14.465
 6640W        W79708  15.616  23.499  10.226
 6641W        W79709  17.254  29.411   1.756
 6642W        W79710  35.352  44.961  14.510
 6643W        W79711  43.445  40.009   4.250
 6644W        W79712   5.162  34.906  14.498
 6645W        W79713  30.430  10.899  14.876
 6646W        W79714   1.539  33.457  11.684
 6647W        W79715  44.708  27.069   3.297
 6648W        W79716   5.637  21.418   4.328
 6649W        W79717   9.932   8.380   0.858
 6650W        W79718   2.405  42.132  14.870
 6651W        W79719  41.340  36.245   4.494
 6652W        W79720  25.630  20.199  13.883
 6653W        W79721  17.445  39.772  14.510
 6654W        W79722  34.402   7.633  12.868
 6655W        W79723   0.375  19.029  14.291
 6656W        W79724  44.383  19.777   2.545
 6657W        W79725  35.544   4.786   4.549
 6658W        W79726  42.587  11.658  12.044
 6659W        W79727   5.287   0.210  14.721
 6660W        W79728   0.975  27.068   1.358
 6661W        W79729  21.782  25.143  13.033
 6662W        W79730   9.465  28.662   3.765
 6663W        W79731  23.454   5.118  14.977
 6664W        W79732   8.012  35.389  11.977
 6665W        W79733   7.244  10.272   4.195
 6666W        W79734  32.443   7.192   5.027
 6667W        W79735  38.478   9.076   0.189
 6668W        W79736  33.159  20.545  14.825
 6669W        W79737   2.763  43.551   2.711
 6670W        W79738  16.834  38.892  11.011
 6671W        W79739  39.951  25.835   3.475
 6672W        W79740  30.895  18.246  13.741
 6673W        W79741  18.412  20.023   1.078
 6674W        W79742   0.733  22.610  11.419
 6675W        W79743   1.767  31.177  10.727
 6676W        W79744  27.465   5.739   2.687
 6677W        W79745  14.462  44.427   2.279
 6678W        W79746  42.157  25.132  14.428
 6679W        W79747   3.218  35.306   3.062
 6680W        W79748   9.390  33.916   3.733
 6681W        W79749  19.226  10.743  14.048
 6682W        W79750   4.951   2.526   0.806
 6683W        W79751  41.291   6.028  10.496
 6684W        W79752  18.228  30.285  11.404
 6685W        W79753  28.204  26.549   3.770
 6686W        W79754  23.765  42.241   3.107
 6687W        W79755  40.530  27.369   2.805
 6688W        W79756  14.386   1.551   0.944
 6689W        W79757  37.839  28.914  11.192
 6690W        W79758  38.314  32.336  14.350
 6691W        W79759  34.035   4.762   4.100
 6692W        W79760  14.706   4.656  14.406
 6693W        W79761   7.764  10.655  12.448
 6694W        W79762  11.331  33.666  12.255
 6695W        W79763  26.626  26.521   4.673
 6696W        W79764  15.164  27.227  12.359
 6697W        W79765  19.441  23.779   0.504
 6698W        W79766  32.644  32.875   0.274
 6699W        W79767  38.104  24.269   1.777
 6700W        W79768  13.178  21.513  11.598
 6701W        W79769  41.129  14.632   1.221
 6702W        W79770  35.576  41.756   0.857
 6703W        W79771  20.586  44.796   4.495
 6704W        W79772  41.506  20.499  14.814
 6705W        W79773  10.703  42.334   3.277
 6706W        W79774  22.053  11.637  11.979
 6707W        W79775  23.438   7.412  12.554
 6708W        W79776  28.129   8.146   1.651
 6709W        W79777   7.381  20.793  11.131
 6710W        W79778  30.423  11.635   2.170
 6711W        W79779  38.618  40.012   2.122
 6712W        W79780  11.072  39.278   4.987
 6713W        W79781  13.160  34.109   1.770
 6714W        W79782   9.941  43.942   3.684
 6715W        W79783  12.129  25.626   3.093
 6716W        W79784  14.213   3.489   0.957
 6717W        W79785  20.686  15.901  11.531
 6718W        W79786   9.121   7.884   2.710
 6719W        W79787   4.584  34.502  14.905
 6720W        W79788   1.560  25.501  12.509
 6721W        W79789  43.091  14.686  13.846
 6722W        W79790   0.322  21.334   1.768
 6723W        W79791  15.284  41.291  11.602
 6724W        W79792   0.409  37.833   4.119
 6725W        W79793  10.804   0.858  14.783
 6726W        W79794   5.954  22.568   4.131
 6727W        W79795  33.014  38.891  13.576
 6728W        W79796  32.583  19.616   4.220
 6729W        W79797  35.353  28.899   3.125
 6730W        W79798  21.526  40.972   1.233
 6731W        W79799  16.744  35.423   1.859
 6732W        W79800   0.690  29.157  11.135
 6733W        W79801   9.363  19.890   0.763
 6734W        W79802  21.635   8.739  14.889
 6735W        W79803  26.677  15.276  14.858
 6736W        W79804   0.928  22.595   1.818
 6737W        W79805  42.091   4.978  12.233
 6738W        W79806  36.479   9.381   1.227
 6739W        W79807  25.780  26.671  10.651
 6740W        W79808  22.399  22.283  14.520
 6741W        W79809  29.846   9.383  13.907
 6742W        W79810  24.563  17.382   0.760
 6743W        W79811  33.918  34.626  13.443
 6744W        W79812  13.906  36.641   0.125
 6745W        W79813  20.768   1.478   9.912
 6746W        W79814  41.970  18.251   3.182
 6747W        W79815  26.079   1.446   1.177
 6748W        W79816  41.530  37.797  12.056
 6749W        W79817  37.397  34.355  12.970
 6750W        W79818  30.196  21.618  11.533
 6751W        W79819  38.889  25.258  13.845
 6752W        W79820  19.080  20.750  11.125
 6753W        W79821  28.612  40.619   4.348
 6754W        W79822  22.542   6.464   4.074
 6755W        W79823   3.965  30.549  11.606
 6756W        W79824  10.199   9.316   0.674
 6757W        W79825   2.707  32.380  13.404
 6758W        W79826  28.245  39.324  10.564
 6759W        W79827  22.123  26.922  12.395
 6760W        W79828  32.129  32.608   4.367
 6761W        W79829   2.210  33.052  11.111
 6762W        W79830  23.567  20.641   4.696
 6763W        W79831  11.827  36.453   2.210
 6764W        W79832  38.494  28.781  12.576
 6765W        W79833  16.971  10.353  11.110
 6766W        W79834   9.897   7.562   2.628
 6767W        W79835  42.002  14.769   3.182
 6768W        W79836  42.748  32.088   3.629
 6769W        W79837  20.795  11.305  10.835
 6770W        W79838   7.682  43.445  11.123
 6771W        W79839  11.846  38.626  12.109
 6772W        W79840  31.665  13.666  14.015
 6773W        W79841  30.672  36.897  11.245
 6774W        W79842  44.861  14.211   0.753
 6775W        W79843  10.660   0.026   4.059
 6776W        W79844  18.650  32.705   2.719
 6777W        W79845  18.312  38.011  13.445
 6778W        W79846  21.975  22.711   3.242
 6779W        W79847   8.673  28.817   3.306
 6780W        W79848  13.357  34.592  13.085
 6781W        W79849   9.275  33.802   1.468
 6782W        W79850  36.577  40.930   3.332
 6783W        W79851   6.734  15.101   0.977
 6784W        W79852  10.555  41.470  11.646
 6785W        W79853  13.798  43.323  12.859
 6786W        W79854  20.665   7.342  13.503
 6787W        W79855   3.441  20.104   2.862
 6788W        W79856  11.632  13.036   2.656
 6789W        W79857  19.502   8.573   2.333
 6790W        W79858  13.193  12.347  14.398
 6791W        W79859  19.184  26.555  12.942
 6792W        W79860  17.139  28.347   4.020
 6793W        W79861  18.288  40.516   4.563
 6794W        W79862   2.867   4.941  11.769
 6795W        W79863  37.970  25.988  11.073
 6796W        W79864  25.637  31.640  10.780
 6797W        W79865  13.333   1.271  10.612
 6798W        W79866  11.639  14.607   4.747
 6799W        W79867  24.616  43.168   2.694
 6800W        W79868  22.177  32.894   3.956
 6801W        W79869   1.384  41.455   3.193
 6802W        W79870  17.272  44.339  14.853
 6803W        W79871  36.984  34.526  11.683
 6804W        W79872  20.097   4.714   1.807
 6805W        W79873  37.993  42.829  10.663
 6806W        W79874  35.930  14.175   4.259
 6807W        W79875  33.531  17.158   5.146
 6808W        W79876  23.239  20.769   1.312
 6809W        W79877  24.415  15.054   0.182
 6810W        W79878   4.895  41.983   0.306
 6811W        W79879  42.372  19.269   3.811
 6812W        W79880  12.665   2.476  14.531
 6813W        W79881  24.674  19.991   0.268
 6814W        W79882  35.896  15.170  13.939
 6815W        W79883  10.995   4.796  12.445
 6816W        W79884  31.869   3.462   1.208
 6817W        W79885  19.127  39.502  14.595
 6818W        W79886  36.517  13.167  10.807
 6819W        W79887  16.336  11.320   3.866
 6820W        W79888  34.992  42.243   3.641
 6821W        W79889   7.794  37.588  13.858
 6822W        W79890  34.437  17.808  11.987
 6823W        W79891  41.823  21.571   3.380
 6824W        W79892  10.164  41.411   0.202
 6825W        W79893  15.177  12.208   4.504
 6826W        W79894  10.714  39.090  14.602
 6827W        W79895   9.431  13.135  14.021
 6828W        W79896  16.545  27.687   4.203
 6829W        W79897   5.755  36.628   4.594
 6830W        W79898   7.892  31.758  13.036
 6831W        W79899  22.053  30.467  13.384
 6832W        W79900  39.621  14.445   0.885
 6833W        W79901  26.958  20.507  12.472
 6834W        W79902   7.696  39.261  14.472
 6835W        W79903  18.549  10.776   1.767
 6836W        W79904  19.848  14.874   4.109
 6837W        W79905  23.545  25.546   1.348
 6838W        W79906  20.624   3.969  12.049
 6839W        W79907   8.151  22.015   2.683
 6840W        W79908  42.267   0.743  11.287
 6841W        W79909   3.899  14.832  14.774
 6842W        W79910   3.398  24.249   2.319
 6843W        W79911   4.184  25.062  10.819
 6844W        W79912  24.652  29.138   2.058
 6845W        W79913  33.188  38.997  14.548
 6846W        W79914  28.981  10.554   4.557
 6847W        W79915  31.116   5.831   3.836
 6848W        W79916  42.328   8.310   0.863
 6849W        W79917  36.995  41.074  12.561
 6850W        W79918  10.760   0.407   0.761
 6851W        W79919  36.066  41.256   2.642
 6852W        W79920  39.802  43.011  13.040
 6853W        W79921  10.217  18.260  13.820
 6854W        W79922  36.445  13.581  11.131
 6855W        W79923   7.534  39.801   2.454
 6856W        W79924   6.544  41.429  12.761
 6857W        W79925  16.811  15.288  11.969
 6858W        W79926  35.621  34.968   3.272
 6859W        W79927  15.229  14.722   1.544
 6860W        W79928  29.160  26.638   1.665
 6861W        W79929  42.207  39.277  12.482
 6862W        W79930  14.896  42.953   2.805
 6863W        W79931  29.144  31.138   3.795
 6864W        W79932  38.636   4.232   2.843
 6865W        W79933  12.827   8.085  10.937
 6866W        W79934  24.194  14.171   3.173
 6867W        W79935  27.617  11.428   3.015
 6868W        W79936  14.661  30.904   3.336
 6869W        W79937  41.941  10.886  13.908
 6870W        W79938  31.075  23.751   3.549
 6871W        W79939  39.541  26.041   1.525
 6872W        W79940  41.276  21.430  13.781
 6873W        W79941   7.156  36.586  12.490
 6874W        W79942  32.900   5.022  11.342
 6875W        W79943  31.519  35.341   3.733
 6876W        W79944  22.092   8.700   3.543
 6877W        W79945  14.899  25.775   4.039
 6878W        W79946   1.539   5.850  13.441
 6879W        W79947   9.307   0.994   1.350
 6880W        W79948  26.366  26.020   2.784
 6881W        W79949   1.786  16.640   2.160
 6882W        W79950  13.263  42.036   4.305
 6883W        W79951   0.008   4.648  14.886
 6884W        W79952  39.252  13.741  11.524
 6885W        W79953   2.675  21.024  11.390
 6886W        W79954  12.092  37.687   0.393
 6887W        W79955  13.497  19.120  14.367
 6888W        W79956  43.386  21.805   4.719
 6889W        W79957   7.379   3.926  14.883
 6890W        W79958   0.496  35.929   1.284
 6891W        W79959   9.412  23.308  11.136
 6892W        W79960   3.447  26.883  13.855
 6893W        W79961  21.739  28.473   4.550
 6894W        W79962   8.781  16.855   1.299
 6895W        W79963  32.893  12.376  14.993
 6896W        W79964  30.998  44.011  11.577
 6897W        W79965  20.207  17.049   1.812
 6898W        W79966  10.077  41.395   5.258
 6899W        W79967  25.200  37.537  10.975
 6900W        W79968   1.492  23.237   1.232
 6901W        W79969  38.590  16.880  11.645
 6902W        W79970  43.851  18.650   0.780
 6903W        W79971  37.290   4.299   4.221
 6904W        W79972  36.096  41.360  12.544
 6905W        W79973   6.348  23.593  10.645
 6906W        W79974  16.022  36.970  12.198
 6907W        W79975  32.487  18.757   4.848
 6908W        W79976  40.765  37.947   2.346
 6909W        W79977  33.102  25.257   0.341
 6910W        W79978  43.796  39.322  10.744
 6911W        W79979  14.651  10.869  13.026
 6912W        W79980  35.187  42.376  11.294
 6913W        W79981  44.902   8.152  14.798
 6914W        W79982  40.792  32.439  13.021
 6915W        W79983  37.818  23.148  10.694
 6916W        W79984   1.332   2.665  12.068
 6917W        W79985  15.639  37.305   0.274
 6918W        W79986  33.089  29.991  13.971
 6919W        W79987  20.783  16.769  10.770
 6920W        W79988  15.305  13.069  13.325
 6921W        W79989  37.750   6.357   1.690
 6922W        W79990  38.200   1.168  14.850
 6923W        W79991  37.975  30.527   1.410
 6924W        W79992   6.347   7.572  13.555
 6925W        W79993  32.818  37.433   0.127
 6926W        W79994  27.954  40.000  10.736
 6927W        W79995  12.550  18.559  13.027
 6928W        W79996  18.520  19.655   3.836
 6929W        W79997  13.682  39.642   3.297
 6930W        W79998  39.365  10.300  12.812
 6931W        W79999  31.524  37.832  13.980
 6932W        W80000  32.381  12.877   1.759
 6933W        W80001  21.052   8.249  14.444
 6934W        W80002  42.395   8.763   3.876
 6935W        W80003   8.676  42.954  11.438
 6936W        W80004  41.053  15.375  14.939
 6937W        W80005  26.361  29.165  10.797
 6938W        W80006  35.189  24.584   3.590
 6939W        W80007  39.845  23.145   3.399
 6940W        W80008  28.041  44.707   4.174
 6941W        W80009  32.309  16.340   3.771
 6942W        W80010   4.219  42.900  11.078
 6943W        W80011   7.130  10.096   3.711
 6944W        W80012  22.046  27.025  11.511
 6945W        W80013  42.017  21.447   4.784
 6946W        W80014  14.231  24.454   2.353
 6947W        W80015  14.064   6.114  13.526
 6948W        W80016  28.820   0.283  10.333
 6949W        W80017  29.050  33.024  10.677
 6950W        W80018  19.005   9.910  12.523
 6951W        W80019   0.827  22.122  14.242
 6952W        W80020  34.825  21.961  13.826
 6953W        W80021  11.418  13.114  12.415
 6954W        W80022  23.112   5.158   1.370
 6955W        W80023  11.704  41.492   3.645
 6956W        W80024  25.309  40.387   5.442
 6957W        W80025  33.615  28.609   1.318
 6958W        W80026  44.463  21.390   4.035
 6959W        W80027  35.304  16.754   0.872
 6960W        W80028  44.106   6.264   2.842
 6961W        W80029   5.041   3.388   0.819
 6962W        W80030   3.375  19.893  13.888
 6963W        W80031  38.464   1.658  10.765
 6964W        W80032  34.850  33.866  12.054
 6965W        W80033  35.625  10.476   1.843
 6966W        W80034  23.102   7.181  14.519
 6967W        W80035  38.457  42.021  10.541
 6968W        W80036  10.674  25.591  10.617
 6969W        W80037  14.827  17.776  11.084
 6970W        W80038  25.550   4.647   4.187
 6971W        W80039  18.784  33.469  14.743
 6972W        W80040   1.691  39.622   4.168
 6973W        W80041  23.154   1.469  14.603
 6974W        W80042  30.192  39.735   3.219
 6975W        W80043  30.402  25.565  10.718
 6976W        W80044  43.009   6.625   3.399
 6977W        W80045   9.156  37.407  14.963
 6978W        W80046  27.171  21.171  10.649
 6979W        W80047  25.262  18.041   4.146
 6980W        W80048  38.354   3.898  13.494
 6981W        W80049  26.164  14.794   0.269
 6982W        W80050  40.311   3.042   2.095
 6983W        W80051  15.231  23.242  14.481
 6984W        W80052  18.713  35.099  12.944
 6985W        W80053  27.494   6.101   4.486
 6986W        W80054  17.724  12.636  10.642
 6987W        W80055  11.518  14.558   0.437
 6988W        W80056   7.356  38.460  12.803
 6989W        W80057   5.650  22.486   4.536
 6990W        W80058   3.890  38.322   1.201
 6991W        W80059  23.938  22.024  14.719
 6992W        W80060   4.657  37.015  12.490
 6993W        W80061  13.864  18.212   4.785
 6994W        W80062  13.391   8.785  10.808
 6995W        W80063  17.120  23.960  11.636
 6996W        W80064  30.591  18.055  14.462
 6997W        W80065  37.891  18.497  13.780
 6998W        W80066  17.581  20.859   0.739
 6999W        W80067  25.565   0.441   4.452
 7000W        W80068  10.471  40.051   2.750
 7001W        W80069  15.785  15.232   0.442
 7002W        W80070   1.895  27.575  10.633
 7003W        W80071  14.215  25.669   3.477
 7004W        W80072  24.022   1.461  14.533
 7005W        W80073   4.678  40.451   0.935
 7006W        W80074  12.863  15.243   2.399
 7007W        W80075   7.292   5.792  10.694
 7008W        W80076  34.310  22.205  11.592
 7009W        W80077  26.268  29.427  12.833
 7010W        W80078  39.837  20.652  11.221
 7011W        W80079  12.327  22.125  14.836
 7012W        W80080  37.532  21.598   1.741
 7013W        W80081   3.628  14.470  10.405
 7014W        W80082  23.005  33.914   0.287
 7015W        W80083  16.083  15.524   4.018
 7016W        W80084  10.703  38.657  11.538
 7017W        W80085  40.146  17.246  11.010
 7018W        W80086  19.902  31.966  10.300
 7019W        W80087  39.382  30.060  13.605
 7020W        W80088  14.189  39.445  11.439
 7021W        W80089  27.201  31.492  10.905
 7022W        W80090  33.825  30.384  12.850
 7023W        W80091  14.870  20.016   3.587
 7024W        W80092  43.301  26.197   0.243
 7025W        W80093   1.093  37.318  10.662
 7026W        W80094  12.591   0.038  11.109
 7027W        W80095  43.732   0.922  11.975
 7028W        W80096  25.610  14.610   0.175
 7029W        W80097  19.273   3.765  11.095
 7030W        W80098   1.737  14.731  14.563
 7031W        W80099  36.398  20.059  10.742
 7032W        W80100  12.230  36.052   1.599
 7033W        W80101   1.041  14.794   3.757
 7034W        W80102  27.295  33.040   0.294
 7035W        W80103  21.643  21.119  11.842
 7036W        W80104  25.660  20.540   1.362
 7037W        W80105  17.668   4.777   0.750
 7038W        W80106  19.822  15.818  11.215
 7039W        W80107  43.345  39.849   1.115
 7040W        W80108  41.044  37.034   0.698
 7041W        W80109  10.876  40.816  12.414
 7042W        W80110  18.628   1.932   0.274
 7043W        W80111  34.864   8.761   2.402
 7044W        W80112  16.436   6.647  12.181
 7045W        W80113  14.054  35.997  13.972
 7046W        W80114  44.859  26.438  10.655
 7047W        W80115  21.161  40.549   1.740
 7048W        W80116  38.812   9.542  10.160
 7049W        W80117   5.463   2.407   2.722
 7050W        W80118  36.752  29.572  14.712
 7051W        W80119  34.319  22.137   3.144
 7052W        W80120  40.114  28.691  13.449
 7053W        W80121  42.432  41.243  10.775
 7054W        W80122  12.536  22.613   1.422
 7055W        W80123   1.279   4.158   0.988
 7056W        W80124  18.571  24.163  13.032
 7057W        W80125  15.297   3.880   3.224
 7058W        W80126  39.532  17.867   4.295
 7059W        W80127   9.803   3.687   3.586
 7060W        W80128  34.700   2.838  12.023
 7061W        W80129  14.795  25.397  11.169
 7062W        W80130  16.842   6.360  12.037
 7063W        W80131   5.821  35.068   4.033
 7064W        W80132  32.643  22.664   3.690
 7065W        W80133  44.782  25.676   4.685
 7066W        W80134   7.777  36.062   2.346
 7067W        W80135  12.659  19.323  12.221
 7068W        W80136   3.661   6.939   4.101
 7069W        W80137  44.226  28.451   1.729
 7070W        W80138  26.508  24.579  11.045
 7071W        W80139  36.133   7.765  13.951
 7072W        W80140   2.287  11.748   2.167
 7073W        W80141   9.101  41.833   4.210
 7074W        W80142  14.767  18.865   3.302
 7075W        W80143  11.833  13.135  12.838
 7076W        W80144  10.659   9.224  14.386
 7077W        W80145  13.983  37.761   3.257
 7078W        W80146  31.667  21.496  12.479
 7079W        W80147  10.762   0.941   1.970
 7080W        W80148  33.842   1.690  10.543
 7081W        W80149  35.205  21.119  13.045
 7082W        W80150  26.842  42.179  12.572
 7083W        W80151   5.843   8.972  14.512
 7084W        W80152  43.515  30.912   2.267
 7085W        W80153  21.635  14.730  13.928
 7086W        W80154  41.987  33.056   1.244
 7087W        W80155  22.524  14.879   1.904
 7088W        W80156   2.937  13.837  14.880
 7089W        W80157  31.931  32.892  14.965
 7090W        W80158   2.263  16.799  12.556
 7091W        W80159  26.065   9.782   0.437
 7092W        W80160  22.173  36.316  13.403
 7093W        W80161  38.430  32.038   0.780
 7094W        W80162   9.129  22.169  14.473
 7095W        W80163  10.928  26.499   4.179
 7096W        W80164   3.043  22.694   3.749
 7097W        W80165  22.954   4.337  14.906
 7098W        W80166  20.646   7.891   3.081
 7099W        W80167  34.013  34.714   1.589
 7100W        W80168  14.237  13.264  12.419
 7101W        W80169  16.842  30.066  10.668
 7102W        W80170  30.037  37.140   1.753
 7103W        W80171  43.375  23.501  14.792
 7104W        W80172  27.402  10.374  12.509
 7105W        W80173  25.774  42.939   4.628
 7106W        W80174  14.891  14.260   5.048
 7107W        W80175  24.767  19.247   9.984
 7108W        W80176  43.924  19.650   4.882
 7109W        W80177   3.291  38.829  11.112
 7110W        W80178  31.127  19.642   4.781
 7111W        W80179  24.139   0.420  12.583
 7112W        W80180  38.772   8.201  10.553
 7113W        W80181  31.612   3.385   1.825
 7114W        W80182  20.924  13.581   3.052
 7115W        W80183  24.054   2.267  13.950
 7116W        W80184  11.396  36.053   1.370
 7117W        W80185  34.950  16.119   1.704
 7118W        W80186  19.476  16.818  11.894
 7119W        W80187  19.225  15.637  12.452
 7120W        W80188  41.917  41.324   3.845
 7121W        W80189  17.461  43.348   0.947
 7122W        W80190   4.362  39.530  12.100
 7123W        W80191  20.002  36.833  14.826
 7124W        W80192   2.250  12.210   4.099
 7125W        W80193  16.037  38.484  10.614
 7126W        W80194   9.589  26.585   4.584
 7127W        W80195  39.474  32.728  14.894
 7128W        W80196   8.732  43.183   1.904
 7129W        W80197  24.131  24.006   1.948
 7130W        W80198  15.592   9.690   1.357
 7131W        W80199  33.633   0.472   2.363
 7132W        W80200  18.679   9.795  14.947
 7133W        W80201  13.104  11.642   1.828
 7134W        W80202   7.784  10.646   4.408
 7135W        W80203  20.439  37.501   0.414
 7136W        W80204  44.115   8.207   2.330
 7137W        W80205  14.249  17.789  12.646
 7138W        W80206   0.247  21.996  10.642
 7139W        W80207  24.590  28.653  11.634
 7140W        W80208  14.791  30.959   4.630
 7141W        W80209  37.225  27.702   1.757
 7142W        W80210  10.698  14.049   3.544
 7143W        W80211  18.259   8.337  12.871
 7144W        W80212  39.948  14.410  11.952
 7145W        W80213  25.510   9.113  13.354
 7146W        W80214   2.588  21.494   3.767
 7147W        W80215   3.946  30.059   1.851
 7148W        W80216  26.752  21.655  12.074
 7149W        W80217  39.531   7.592  13.500
 7150W        W80218  28.682  15.651   3.405
 7151W        W80219  34.006  40.482   4.085
 7152W        W80220  34.885  35.863   0.819
 7153W        W80221  34.693  44.021   3.391
 7154W        W80222  28.488  17.784   1.836
 7155W        W80223  29.771  29.033   4.235
 7156W        W80224  36.065  42.211   0.307
 7157W        W80225   4.343   9.773   1.364
 7158W        W80226  18.063  35.043   0.878
 7159W        W80227  39.345  40.736  14.699
 7160W        W80228  23.422  38.372  12.346
 7161W        W80229  31.956  28.141   0.898
 7162W        W80230  26.694   1.316   2.356
 7163W        W80231   2.791   9.561   3.751
 7164W        W80232  15.322  27.915   2.749
 7165W        W80233  29.677  29.032   1.471
 7166W        W80234  31.049   1.563  13.932
 7167W        W80235  20.995  32.035   0.120
 7168W        W80236  13.931   2.729  11.552
 7169W        W80237   3.189  16.176   3.758
 7170W        W80238  40.761  17.106   4.667
 7171W        W80239  32.390  29.511  10.691
 7172W        W80240  42.327  37.396  10.163
 7173W        W80241  24.200  29.061   1.212
 7174W        W80242  12.722  31.037   4.622
 7175W        W80243  41.036  30.961  14.129
 7176W        W80244   7.997  35.625   2.132
 7177W        W80245  36.920  14.298   2.366
 7178W        W80246  19.460  40.676  12.105
 7179W        W80247   2.679   1.154  10.510
 7180W        W80248  19.055  33.899  14.468
 7181W        W80249   4.424  39.486  13.515
 7182W        W80250  33.597  29.634   3.156
 7183W        W80251   3.491  15.249   1.628
 7184W        W80252  41.948   5.937  12.851
 7185W        W80253   2.788   0.257  14.462
 7186W        W80254  15.695  43.852   3.199
 7187W        W80255  24.074  23.939   2.868
 7188W        W80256  14.474  42.252   0.438
 7189W        W80257  28.212   9.047   2.604
 7190W        W80258   2.031  21.600  13.034
 7191W        W80259  11.852   0.805   3.345
 7192W        W80260   0.046  24.559  11.032
 7193W        W80261   2.997   0.326   2.236
 7194W        W80262  15.638  43.812   1.290
 7195W        W80263  10.213   0.110   3.198
 7196W        W80264  43.941  31.836   3.178
 7197W        W80265  12.231  23.010   2.708
 7198W        W80266  26.140  18.039   3.895
 7199W        W80267  17.272  27.927  12.768
 7200W        W80268  44.089  38.333  10.205
 7201W        W80269   7.303  25.632  14.369
 7202W        W80270  15.637  35.857   0.828
 7203W        W80271  38.950  18.090  12.194
 7204W        W80272  24.724  44.754  11.007
 7205W        W80273  35.308  27.899   3.245
 7206W        W80274  15.785  10.138  14.513
 7207W        W80275  12.160  17.179  14.974
 7208W        W80276   0.327  20.535  13.141
 7209W        W80277  26.569  30.454  12.579
 7210W        W80278   7.928   8.892   0.256
 7211W        W80279  33.515  43.558  12.592
 7212W        W80280   4.058  15.354   2.418
 7213W        W80281  41.937  29.642  10.452
 7214W        W80282   7.717  28.422   2.841
 7215W        W80283  39.480  18.760  11.429
 7216W        W80284  18.011  29.691  12.112
 7217W        W80285  30.853   8.949   4.060
 7218W        W80286  17.093  14.119  11.755
 7219W        W80287  42.194   6.968   3.698
 7220W        W80288   9.302  25.235   3.717
 7221W        W80289  10.205  22.081  11.168
 7222W        W80290  25.957  44.484  10.740
 7223W        W80291  29.481   5.312  13.926
 7224W        W80292  16.331  27.193   2.200
 7225W        W80293  13.654  40.539  11.780
 7226W        W80294  27.414   5.497  13.534
 7227W        W80295   2.460   2.777   0.942
 7228W        W80296  35.100   6.688   2.529
 7229W        W80297   7.339  37.996   4.331
 7230W        W80298  14.612  39.574  14.559
 7231W        W80299  25.371  43.807   3.487
 7232W        W80300  23.577  20.325   4.267
 7233W        W80301  25.955  37.899  10.683
 7234W        W80302  17.728  26.019  14.002
 7235W        W80303  15.121   1.502  13.407
 7236W        W80304  19.619   6.356   3.210
 7237W        W80305   5.089  36.155   0.297
 7238W        W80306  14.981  19.080   2.655
 7239W        W80307  38.320  17.914   0.906
 7240W        W80308  16.622  26.810   2.401
 7241W        W80309  40.182  12.712  10.215
 7242W        W80310  26.226  21.025   3.674
 7243W        W80311  23.594  13.624  13.932
 7244W        W80312  17.574  19.794  13.380
 7245W        W80313  44.843  33.814  13.475
 7246W        W80314  38.651  20.261   3.043
 7247W        W80315   4.389  37.961  11.640
 7248W        W80316  29.983  43.998  13.764
 7249W        W80317  35.826  16.516  12.912
 7250W        W80318   8.655  41.730   0.744
 7251W        W80319  26.990   5.366  12.042
 7252W        W80320  13.120   1.164  11.473
 7253W        W80321   5.847   5.237  14.796
 7254W        W80322  21.949  15.853   0.458
 7255W        W80323  44.051  12.196   2.340
 7256W        W80324  28.454  28.011   1.823
 7257W        W80325  15.317   8.294   2.334
 7258W        W80326  42.491  38.392  10.657
 7259W        W80327  14.104  29.119   4.531
 7260W        W80328  25.647  11.919  13.752
 7261W        W80329  35.588  26.691   1.844
 7262W        W80330  14.137  26.795   4.579
 7263W        W80331  43.549  37.622   3.880
 7264W        W80332  31.512   0.718   4.418
 7265W        W80333  27.500  14.602  14.003
 7266W        W80334  10.140  29.617  13.867
 7267W        W80335  32.079   0.172   1.882
 7268W        W80336   5.310   5.774  12.849
 7269W        W80337  32.020  24.769  14.334
 7270W        W80338  16.194  20.306  11.150
 7271W        W80339  14.581  16.625   0.475
 7272W        W80340   1.065   1.760   1.860
 7273W        W80341  19.502  20.651  10.853
 7274W        W80342  22.066  28.404   3.809
 7275W        W80343  36.039  16.241   4.180
 7276W        W80344  30.691   8.387   1.844
 7277W        W80345  18.240  40.829   3.267
 7278W        W80346  19.302   0.541   2.865
 7279W        W80347   8.323  40.857  10.741
 7280W        W80348   5.998  15.142   1.690
 7281W        W80349  44.411  42.869   0.452
 7282W        W80350  24.045   8.825  13.788
 7283W        W80351  23.732  25.277   0.906
 7284W        W80352   5.796  11.298   1.954
 7285W        W80353   6.232  18.210  12.802
 7286W        W80354  12.751  44.954  13.833
 7287W        W80355  24.155  41.382  14.507
 7288W        W80356  24.207  29.450  11.436
 7289W        W80357   0.527  27.835  13.934
 7290W        W80358  33.232  43.733   1.949
 7291W        W80359  40.130  39.443  10.671
 7292W        W80360   6.357  19.207  13.196
 7293W        W80361   6.666  24.518   4.737
 7294W        W80362   0.461  38.925   0.497
 7295W        W80363   2.045  26.047   1.949
 7296W        W80364  11.752  20.474  10.724
 7297W        W80365   3.395  44.825  12.874
 7298W        W80366  37.737  25.699   4.764
 7299W        W80367  12.729   2.693  12.193
 7300W        W80368  30.548  36.850   4.308
 7301W        W80369  40.905   4.728   0.888
 7302W        W80370  29.439  43.009  11.575
 7303W        W80371  27.228  30.161  11.570
 7304W        W80372  14.822  11.324   0.295
 7305W        W80373  22.844  44.729   1.771
 7306W        W80374  44.437  39.958   0.317
 7307W        W80375  14.399  44.880   1.278
 7308W        W80376  42.983  34.404  14.817
 7309W        W80377  13.879  13.305  14.458
 7310W        W80378   4.639   2.822  12.972
 7311W        W80379   8.103  16.753   3.656
 7312W        W80380  23.476  31.147   1.389
 7313W        W80381  13.957   9.537   4.237
 7314W        W80382  31.651  14.665   4.797
 7315W        W80383  34.677   7.415   0.957
 7316W        W80384   1.989  42.548  14.559
 7317W        W80385  43.300  40.335  10.314
 7318W        W80386  24.482   6.657   4.308
 7319W        W80387  31.116  30.128  11.175
 7320W        W80388  44.051  23.961   2.438
 7321W        W80389  39.593  27.369   4.779
 7322W        W80390  31.215   0.819   2.486
 7323W        W80391  22.764   8.485  14.269
 7324W        W80392  18.607  40.307  14.444
 7325W        W80393   5.645  24.683  13.594
 7326W        W80394  30.614  10.043  12.384
 7327W        W80395  43.126  11.261   1.295
 7328W        W80396   6.985  29.097  13.778
 7329W        W80397  21.378  40.154   3.256
 7330W        W80398  16.740  24.587  12.025
 7331W        W80399  40.475  24.140   3.641
 7332W        W80400  30.180   0.379  12.564
 7333W        W80401  26.616  41.958  10.835
 7334W        W80402  41.579  18.275   0.728
 7335W        W80403   0.331  28.546   4.583
 7336W        W80404  36.200  33.815   2.094
 7337W        W80405  27.519  21.940   2.937
 7338W        W80406  38.754   6.228   9.941
 7339W        W80407  11.512   7.321  11.160
 7340W        W80408  10.838  19.085  10.627
 7341W        W80409  32.053  28.471   2.372
 7342W        W80410  42.977  11.352  12.375
 7343W        W80411  22.490  40.968   4.564
 7344W        W80412   4.089  32.960   3.085
 7345W        W80413  16.769  27.516   1.304
 7346W        W80414   3.297   3.443   1.734
 7347W        W80415  43.509  22.237  13.529
 7348W        W80416  17.374  30.506   1.166
 7349W        W80417   6.322   6.445   2.721
 7350W        W80418  23.998   7.087   1.351
 7351W        W80419  37.559  39.894  13.015
 7352W        W80420  35.897  18.010  12.045
 7353W        W80421  38.269  22.641   1.494
 7354W        W80422  36.139  38.871   3.674
 7355W        W80423  34.507  17.710   2.668
 7356W        W80424  33.040  36.817  11.432
 7357W        W80425   3.498  37.219  13.493
 7358W        W80426   3.995   8.698  14.412
 7359W        W80427  42.531  10.168   0.445
 7360W        W80428  32.520  12.743  12.971
 7361W        W80429  33.952  43.256  12.602
 7362W        W80430  10.125  24.451   2.766
 7363W        W80431  44.806  31.475   1.339
 7364W        W80432  21.115  36.851   1.204
 7365W        W80433  35.804  42.622   2.220
 7366W        W80434  43.976  36.690  11.057
 7367W        W80435  44.852  42.584  11.776
 7368W        W80436  36.550   9.624  13.769
 7369W        W80437   1.958  36.808  11.043
 7370W        W80438  11.395  16.628  13.092
 7371W        W80439  38.623  43.892   0.033
 7372W        W80440  34.370  44.357   0.339
 7373W        W80441  24.678  39.094  10.691
 7374W        W80442   1.812  16.368   4.704
 7375W        W80443  24.784  40.933   3.384
 7376W        W80444   1.446  14.863  14.031
 7377W        W80445  24.136  15.034  12.180
 7378W        W80446  27.153  22.278   3.093
 7379W        W80447  32.863  20.977   1.757
 7380W        W80448  18.669  20.161  14.711
 7381W        W80449  11.072  11.936  11.595
 7382W        W80450  12.253  32.066  11.797
 7383W        W80451   5.859  29.855  11.013
 7384W        W80452  23.415  34.682   4.681
 7385W        W80453  11.631  32.709  12.058
 7386W        W80454  14.288  42.605   3.888
 7387W        W80455   5.687  31.233   2.502
 7388W        W80456   8.061   9.224  12.964
 7389W        W80457  44.970  42.217   0.950
 7390W        W80458  42.437  44.940   1.870
 7391W        W80459  31.100   1.227  13.007
 7392W        W80460  24.532  18.039  11.681
 7393W        W80461  13.344   7.456  12.046
 7394W        W80462   3.697  36.601  11.618
 7395W        W80463  31.161   9.206  12.510
 7396W        W80464  12.075   3.531   3.606
 7397W        W80465  36.335  42.891   4.544
 7398W        W80466  27.778  25.681  10.645
 7399W        W80467  14.816  24.010   1.062
 7400W        W80468   2.061  36.228   3.797
 7401W        W80469  40.556  22.986  10.943
 7402W        W80470  20.488  39.051  14.827
 7403W        W80471  35.787  25.636   0.897
 7404W        W80472  23.281  37.500  13.067
 7405W        W80473  10.295  29.947   2.624
 7406W        W80474  14.092   2.047   1.435
 7407W        W80475  26.848  35.348  14.684
 7408W        W80476  43.283  28.934  10.796
 7409W        W80477   5.309  30.191  13.073
 7410W        W80478  19.690   2.484   0.311
 7411W        W80479  11.949  25.945   3.681
 7412W        W80480  13.377  28.903  12.981
 7413W        W80481   6.083  37.468  10.776
 7414W        W80482   0.998  11.207  13.209
 7415W        W80483   4.121  28.261  14.546
 7416W        W80484  30.365  37.249  14.897
 7417W        W80485  14.782  39.438   1.489
 7418W        W80486   8.097  21.043   9.823
 7419W        W80487  13.490   1.267  14.903
 7420W        W80488  36.167  21.915   4.661
 7421W        W80489  25.082   6.512  13.351
 7422W        W80490  31.886  21.570  10.658
 7423W        W80491  34.140  28.227   3.266
 7424W        W80492  19.474  20.495   1.033
 7425W        W80493   3.975   7.903   4.282
 7426W        W80494  21.221  30.828  14.982
 7427W        W80495  30.275  10.647   0.295
 7428W        W80496  34.905  27.420  13.068
 7429W        W80497  21.599  30.717  13.429
 7430W        W80498  37.804  44.575  10.167
 7431W        W80499  28.568  25.240  14.064
 7432W        W80500  24.174  30.630  13.021
 7433W        W80501  43.310  27.462  14.427
 7434W        W80502  32.932  39.500  10.713
 7435W        W80503  38.582  30.300   4.171
 7436W        W80504  19.130  38.354   4.700
 7437W        W80505   5.607  39.063   1.293
 7438W        W80506  25.440  29.092  13.882
 7439W        W80507  31.394  35.414   0.282
 7440W        W80508  37.335  18.632  12.871
 7441W        W80509  20.762  20.265  10.684
 7442W        W80510  42.652  36.555  12.574
 7443W        W80511  20.250  29.956   2.217
 7444W        W80512  43.685  12.334  14.786
 7445W        W80513  37.844   6.108   1.222
 7446W        W80514  24.585  38.524   0.923
 7447W        W80515  28.219  23.050  10.356
 7448W        W80516  34.532   3.808   2.373
 7449W        W80517  20.123  38.694  14.366
 7450W        W80518  20.026  18.465   0.092
 7451W        W80519  16.840  26.048  11.562
 7452W        W80520  41.864  37.644  10.215
 7453W        W80521  27.599  18.190  12.474
 7454W        W80522  12.589  22.582   4.796
 7455W        W80523  40.740  31.373   0.200
 7456W        W80524  43.286  44.768  12.976
 7457W        W80525   4.316   4.075  12.463
 7458W        W80526  23.383  23.069   3.577
 7459W        W80527  15.794  43.448   2.633
 7460W        W80528  40.104   1.901  11.877
 7461W        W80529  25.081  34.692  12.586
 7462W        W80530  44.114   2.184  13.476
 7463W        W80531  20.126   3.347   0.751
 7464W        W80532  27.978  27.788  11.744
 7465W        W80533  15.548  10.276   0.923
 7466W        W80534   6.454   8.592  13.416
 7467W        W80535  33.333  26.254  12.104
 7468W        W80536   1.669   9.444  13.954
 7469W        W80537   1.392  25.151  11.247
 7470W        W80538   4.422  11.069   1.812
 7471W        W80539  14.153  12.827  14.579
 7472W        W80540   6.295   0.393  11.022
 7473W        W80541  18.983  12.160   1.255
 7474W        W80542  16.458  17.793   0.846
 7475W        W80543  40.448  22.757   3.071
 7476W        W80544  36.504   0.110  13.870
 7477W        W80545  43.730  27.086  13.468
 7478W        W80546  27.363  12.679  14.595
 7479W        W80547  14.795  30.387   2.436
 7480W        W80548  20.640  26.107   2.349
 7481W        W80549  16.112  12.135   0.444
 7482W        W80550   8.287  29.201   4.269
 7483W        W80551  28.974  20.689   3.765
 7484W        W80552  39.414  29.127   3.357
 7485W        W80553  36.121   3.257   2.770
 7486W        W80554  31.697  10.170  14.000
 7487W        W80555  26.488  43.584   3.658
 7488W        W80556  30.691   7.933   2.732
 7489W        W80557  35.991  15.155   0.997
 7490W        W80558  10.237  39.092  11.097
 7491W        W80559  24.005  14.593   2.919
 7492W        W80560  21.551  11.304   3.887
 7493W        W80561   8.932  10.964  11.133
 7494W        W80562  42.743  44.037  11.564
 7495W        W80563  35.303  38.960  10.971
 7496W        W80564  19.119  40.805   2.365
 7497W        W80565  41.256   9.420   0.982
 7498W        W80566  25.092  33.804   5.100
 7499W        W80567  34.596  14.647   2.686
 7500W        W80568   6.473  43.562   1.371
 7501W        W80569  41.778   3.788   1.304
 7502W        W80570  37.970  24.271  12.955
 7503W        W80571  16.955  36.039  11.926
 7504W        W80572  14.713  27.456  12.481
 7505W        W80573  23.506   0.233  13.263
 7506W        W80574   4.926  17.569  10.541
 7507W        W80575  28.105   8.381  13.558
 7508W        W80576  30.287   1.735  11.860
 7509W        W80577   4.306  36.101   0.029
 7510W        W80578   8.816  28.528  13.026
 7511W        W80579   5.769   7.928  10.641
 7512W        W80580  24.808  13.274   1.170
 7513W        W80581  43.863  13.454   0.296
 7514W        W80582   0.954  20.585  14.359
 7515W        W80583   5.205   3.981   4.868
 7516W        W80584  44.992  24.951   1.851
 7517W        W80585  26.917  20.229   3.358
 7518W        W80586  42.924  32.023  13.853
 7519W        W80587   1.840   2.508  11.963
 7520W        W80588   1.942  37.968   4.611
 7521W        W80589  17.395  17.623  14.289
 7522W        W80590  11.347  41.012  12.292
 7523W        W80591  33.072  16.595   0.994
 7524W        W80592  35.806  29.977  11.606
 7525W        W80593  27.691  43.332  11.631
 7526W        W80594  27.425  20.106   3.402
 7527W        W80595  12.155  44.577   2.577
 7528W        W80596  20.351  32.996  10.906
 7529W        W80597  25.036  19.738   2.792
 7530W        W80598  37.467  43.750  14.404
 7531W        W80599  14.844  27.164   1.605
 7532W        W80600   7.211   0.252   4.618
 7533W        W80601  12.166  38.317   4.680
 7534W        W80602   8.849  34.360   4.861
 7535W        W80603  42.819  29.529  12.860
 7536W        W80604  27.152  26.421  13.064
 7537W        W80605  41.528  36.528  11.588
 7538W        W80606  30.848   9.317  11.221
 7539W        W80607  27.613  18.049   1.284
 7540W        W80608   7.378  30.386  14.816
 7541W        W80609  34.079  13.781  11.448
 7542W        W80610  10.076   7.401  12.081
 7543W        W80611   8.622  25.950  11.731
 7544W        W80612  10.291  38.584   0.943
 7545W        W80613  22.716  26.285  11.628
 7546W        W80614  25.843  38.530  12.282
 7547W        W80615   0.988   0.403  14.939
 7548W        W80616   0.485  43.081  12.251
 7549W        W80617  11.820  41.012  11.390
 7550W        W80618  42.520  43.926   1.397
 7551W        W80619  22.843   4.025  11.556
 7552W        W80620  18.600  42.764   1.292
 7553W        W80621   6.139  22.030   3.120
 7554W        W80622  40.270   2.735   4.226
 7555W        W80623  27.020  20.120   0.269
 7556W        W80624  12.332  41.605   0.267
 7557W        W80625  31.268   2.655   4.322
 7558W        W80626  20.501  29.070   4.420
 7559W        W80627  40.734  26.838  11.114
 7560W        W80628   5.501  37.516   1.347
 7561W        W80629  44.799  26.736   3.843
 7562W        W80630  33.086  14.214  12.087
 7563W        W80631  25.513  29.070  10.917
 7564W        W80632  14.655  17.881   0.396
 7565W        W80633  23.040  35.860  11.480
 7566W        W80634   0.833  17.812  12.449
 7567W        W80635  38.454   3.493   1.829
 7568W        W80636   9.337  20.116   3.720
 7569W        W80637  34.364  29.358   2.346
 7570W        W80638   9.199  24.495  11.906
 7571W        W80639  26.212  17.600  13.425
 7572W        W80640  13.846  33.609  11.420
 7573W        W80641   2.411  10.412   0.319
 7574W        W80642  18.957  39.878  12.122
 7575W        W80643  42.334  26.922  13.501
 7576W        W80644  38.211  11.415   1.543
 7577W        W80645  21.711  19.232  13.421
 7578W        W80646  14.662  28.712  11.082
 7579W        W80647  27.140  18.992  12.466
 7580W        W80648   6.600  25.246  11.148
 7581W        W80649  26.200  28.766   0.863
 7582W        W80650  25.716   1.819  11.722
 7583W        W80651  18.769  18.744  12.410
 7584W        W80652  37.717  42.682   1.725
 7585W        W80653  25.439  44.748  12.442
 7586W        W80654  20.155   7.409  12.418
 7587W        W80655  44.802   1.346  12.606
 7588W        W80656  29.630  23.449   4.124
 7589W        W80657  25.342  19.365   0.185
 7590W        W80658   2.492  38.933   2.235
 7591W        W80659  31.241  35.664  13.045
 7592W        W80660   9.565  15.175   0.506
 7593W        W80661  22.476  33.879  11.134
 7594W        W80662  22.464   4.151  10.980
 7595W        W80663  21.476  16.302  12.130
 7596W        W80664  30.771  14.354  12.061
 7597W        W80665   6.331  11.772  12.083
 7598W        W80666  20.623  38.187   4.588
 7599W        W80667  13.564  39.100  13.120
 7600W        W80668  35.232  27.768   0.830
 7601W        W80669   2.293  37.848  10.504
 7602W        W80670   3.930  18.318   3.865
 7603W        W80671  37.631   2.420   1.861
 7604W        W80672  32.929   6.465   4.448
 7605W        W80673  28.991  34.223  11.388
 7606W        W80674   2.328   7.432   4.018
 7607W        W80675  35.497   1.216  14.071
 7608W        W80676  10.712  31.864   2.336
 7609W        W80677  32.955  24.958  13.087
 7610W        W80678  42.061  12.761   4.530
 7611W        W80679  10.331  27.971  10.327
 7612W        W80680   0.698  40.832   2.260
 7613W        W80681  25.520   3.080  14.000
 7614W        W80682  17.413  24.179   4.113
 7615W        W80683  27.407  24.678  12.116
 7616W        W80684   8.186  20.789   1.360
 7617W        W80685  31.515  43.557   2.434
 7618W        W80686  31.205  31.419  11.603
 7619W        W80687  14.866   5.051   0.322
 7620W        W80688  35.661  44.044   1.295
 7621W        W80689   1.903  31.001   0.201
 7622W        W80690  10.637  11.113  14.325
 7623W        W80691  28.653  22.524  12.491
 7624W        W80692  13.265  18.721   1.198
 7625W        W80693  38.807   3.949   1.221
 7626W        W80694  33.114  39.484   0.247
 7627W        W80695  17.058  18.784   0.958
 7628W        W80696  28.079  17.777   1.296
 7629W        W80697  26.202  44.793   4.408
 7630W        W80698  32.022  13.027   1.343
 7631W        W80699  33.890  16.551  12.450
 7632W        W80700  26.544   9.688  10.559
 7633W        W80701   9.941  44.838  13.844
 7634W        W80702  24.904   1.156  12.004
 7635W        W80703  10.914  41.843   0.346
 7636W        W80704  18.607  17.064  14.522
 7637W        W80705   2.429  20.186   3.853
 7638W        W80706  15.562   8.987   5.092
 7639W        W80707  23.170   5.248  13.508
 7640W        W80708  39.099   5.832   9.785
 7641W        W80709  31.402   4.436  10.690
 7642W        W80710   4.274   6.788   2.359
 7643W        W80711  25.570  44.536   1.680
 7644W        W80712  34.486   3.789  13.595
 7645W        W80713   7.128  34.440  12.020
 7646W        W80714  43.008  22.616  14.319
 7647W        W80715  44.983  13.625  12.026
 7648W        W80716  32.447  42.149   1.351
 7649W        W80717  33.101  29.837  14.464
 7650W        W80718  25.845  15.187   4.692
 7651W        W80719   9.266   3.197  11.110
 7652W        W80720   2.502  22.336  10.997
 7653W        W80721  21.695  18.645   0.020
 7654W        W80722  24.669  35.447   2.411
 7655W        W80723  40.766   9.266   2.658
 7656W        W80724  23.209  33.701  14.001
 7657W        W80725  39.738  19.723   0.932
 7658W        W80726   2.925   8.857  13.361
 7659W        W80727  30.142  23.109   4.412
 7660W        W80728  29.983  11.756  11.372
 7661W        W80729  43.248  22.785   4.301
 7662W        W80730  36.559  19.869  12.165
 7663W        W80731  11.628  39.104  11.030
 7664W        W80732  28.110  21.639   2.228
 7665W        W80733  14.787  11.707   3.152
 7666W        W80734  38.161  19.061   4.759
 7667W        W80735  35.492  23.038  14.086
 7668W        W80736   9.253  35.942  10.872
 7669W        W80737   1.747   9.859   4.512
 7670W        W80738  23.106  23.174   2.008
 7671W        W80739  19.084  41.544   2.413
 7672W        W80740  31.088  31.164  12.038
 7673W        W80741  31.149  23.882   2.592
 7674W        W80742  42.406  22.233  10.559
 7675W        W80743  15.296  26.043  12.581
 7676W        W80744   2.449  42.730   0.703
 7677W        W80745  12.209  14.407  13.001
 7678W        W80746  13.277  35.945   0.607
 7679W        W80747  30.055  35.369  13.479
 7680W        W80748  19.094  23.192  14.832
 7681W        W80749  23.635  24.237   2.880
 7682W        W80750  22.440  39.087  12.672
 7683W        W80751  13.923  11.492  10.991
 7684W        W80752  14.292  34.028  13.093
 7685W        W80753  13.739  25.186  14.461
 7686W        W80754  37.657   8.246  11.427
 7687W        W80755  34.982  17.778  12.532
 7688W        W80756  21.687  25.507   1.691
 7689W        W80757   2.251   8.861  10.641
 7690W        W80758   6.878  40.043  10.747
 7691W        W80759  17.374  19.804  14.078
 7692W        W80760  22.538  20.395  13.965
 7693W        W80761  18.789   7.747   2.749
 7694W        W80762  19.694  30.491  11.436
 7695W        W80763  27.084  44.603  14.434
 7696W        W80764  11.064  16.867   9.681
 7697W        W80765  31.024   1.484   0.649
 7698W        W80766   0.924  35.601  12.946
 7699W        W80767  28.091  31.592  10.730
 7700W        W80768  15.074  31.619  13.494
 7701W        W80769  22.730  44.516  14.506
 7702W        W80770  35.475  33.885  14.492
 7703W        W80771  10.980  23.431   2.172
 7704W        W80772   1.436   7.184  13.708
 7705W        W80773  33.297   3.257  10.003
 7706W        W80774   1.944  18.347   4.104
 7707W        W80775   6.381  23.151  14.042
 7708W        W80776  20.153  41.365   1.460
 7709W        W80777   8.367  27.052  11.574
 7710W        W80778   4.675   4.349  11.158
 7711W        W80779  44.363  34.089   1.505
 7712W        W80780  20.644  25.439   1.263
 7713W        W80781  36.604  37.609   0.795
 7714W        W80782   9.382  24.996  10.650
 7715W        W80783  26.681  27.661   4.987
 7716W        W80784  37.828  31.354   4.157
 7717W        W80785  41.045   7.805   0.114
 7718W        W80786  26.022  43.452  12.351
 7719W        W80787  12.846  37.373   1.186
 7720W        W80788  33.210  35.936   3.395
 7721W        W80789  27.959  32.667  13.854
 7722W        W80790   1.893  34.079  10.610
 7723W        W80791  42.956  33.061   1.687
 7724W        W80792  29.914  29.143   2.375
 7725W        W80793  17.890  11.291   3.795
 7726W        W80794  42.227  19.813   4.467
 7727W        W80795  27.224   9.399   2.261
 7728W        W80796  25.147  22.476   2.766
 7729W        W80797  18.062  33.932   1.311
 7730W        W80798  40.604   1.771   3.621
 7731W        W80799   7.314  22.488   3.261
 7732W        W80800  30.053  17.228  14.315
 7733W        W80801   6.801  20.310  14.316
 7734W        W80802  12.158  40.001  12.040
 7735W        W80803   0.771  25.472  13.219
 7736W        W80804  21.956  31.975   2.067
 7737W        W80805  18.845  24.700   4.041
 7738W        W80806  34.833  21.956   0.496
 7739W        W80807  31.446  24.603  10.509
 7740W        W80808  15.581  15.453   4.221
 7741W        W80809  17.898   1.437   0.421
 7742W        W80810  30.972  29.482  12.941
 7743W        W80811  10.139   3.999  12.093
 7744W        W80812  23.516   0.348   4.399
 7745W        W80813  27.217  39.459  12.567
 7746W        W80814  13.651   9.853   1.428
 7747W        W80815  21.655  34.812   2.717
 7748W        W80816  37.248  17.856   2.353
 7749W        W80817   2.993  11.822   4.171
 7750W        W80818   4.981  32.538  11.229
 7751W        W80819  11.720   6.891  10.794
 7752W        W80820   2.465   8.588  11.046
 7753W        W80821  18.491   7.318   2.815
 7754W        W80822   2.756   0.809   2.257
 7755W        W80823  12.408  14.415   1.159
 7756W        W80824  20.128  29.581  14.741
 7757W        W80825  13.606   3.595   2.716
 7758W        W80826  41.825  33.917   2.583
 7759W        W80827  10.693  26.029   4.241
 7760W        W80828  44.952   0.690   0.040
 7761W        W80829  18.872  32.064   3.294
 7762W        W80830  22.208   5.932  14.968
 7763W        W80831   1.724   8.546   2.388
 7764W        W80832  11.157  31.808   3.549
 7765W        W80833  33.587   7.777  14.336
 7766W        W80834   7.201   8.574   2.076
 7767W        W80835   3.883   9.864   0.093
 7768W        W80836   9.017  38.984  11.225
 7769W        W80837  40.269   3.123   3.572
 7770W        W80838  17.696   8.885   4.081
 7771W        W80839   9.811  25.672   1.470
 7772W        W80840  20.108   7.398   0.925
 7773W        W80841  32.514   0.817   1.934
 7774W        W80842  29.538  40.195  13.467
 7775W        W80843  10.042   0.265  14.192
 7776W        W80844   3.755  31.689   1.835
 7777W        W80845  43.439  44.065  13.444
 7778W        W80846  12.136  18.210  12.986
 7779W        W80847  22.956   5.185  13.981
 7780W        W80848  22.563   8.649   0.107
 7781W        W80849  20.213   1.599  11.355
 7782W        W80850  11.212  12.128  11.119
 7783W        W80851  17.147  26.691   3.205
 7784W        W80852  25.570  32.498   4.742
 7785W        W80853  16.701   4.825  14.956
 7786W        W80854   7.866  44.136  12.949
 7787W        W80855   9.370  42.256  14.459
 7788W        W80856  17.523   9.461  11.842
 7789W        W80857  29.014  20.790  14.945
 7790W        W80858  40.555  31.667   2.157
 7791W        W80859  29.598  39.413  14.699
 7792W        W80860   4.059  13.604   3.908
 7793W        W80861  40.033  24.731  13.604
 7794W        W80862  28.676  41.293  12.474
 7795W        W80863  25.401  22.404   3.247
 7796W        W80864  37.053   8.881  13.374
 7797W        W80865  11.861  42.146   2.443
 7798W        W80866  25.591  23.691  14.366
 7799W        W80867  20.166  31.976  14.814
 7800W        W80868  19.090  37.954   4.338
 7801W        W80869  25.544   4.993  11.084
 7802W        W80870  27.630  19.185  14.243
 7803W        W80871  39.556  25.080  12.877
 7804W        W80872   3.218  37.969   0.840
 7805W        W80873  26.368  10.904   4.601
 7806W        W80874  28.618  16.117  11.066
 7807W        W80875  14.607  30.448  13.318
 7808W        W80876  19.722  21.285   4.611
 7809W        W80877  40.610  25.216   2.756
 7810W        W80878   8.937  14.088  12.931
 7811W        W80879  24.417  39.058  14.073
 7812W        W80880  10.695  21.359   0.355
 7813W        W80881  28.596   9.704  13.373
 7814W        W80882  29.904  23.806  12.527
 7815W        W80883  31.786  10.196   4.075
 7816W        W80884  26.424  20.497   3.665
 7817W        W80885  33.796   7.192   2.333
 7818W        W80886  30.900  24.122   3.025
 7819W        W80887  15.993  34.281   2.226
 7820W        W80888  10.795   9.731  11.511
 7821W        W80889  41.485  21.994  11.982
 7822W        W80890  39.806   2.958   3.732
 7823W        W80891   5.469  13.558  11.251
 7824W        W80892  24.698  20.721  14.001
 7825W        W80893  44.274  29.465   0.737
 7826W        W80894   8.662  44.368  14.015
 7827W        W80895  41.045  40.995   4.737
 7828W        W80896  20.655  34.609   2.385
 7829W        W80897  12.924  30.523  11.546
 7830W        W80898  16.700  20.942  12.459
 7831W        W80899  31.333  36.894   1.288
 7832W        W80900  22.188  18.285  13.461
 7833W        W80901  18.285   4.632  13.053
 7834W        W80902  19.583  38.446  12.148
 7835W        W80903  23.163  30.076   0.430
 7836W        W80904  32.608  39.972  10.993
 7837W        W80905   1.996   0.632   1.036
 7838W        W80906   3.328  41.726   4.892
 7839W        W80907  29.291  14.626   2.599
 7840W        W80908  37.303  32.839   1.528
 7841W        W80909  42.716  12.100  13.451
 7842W        W80910  27.734  12.820   0.814
 7843W        W80911   9.687   1.001  14.284
 7844W        W80912  16.676  38.038  12.238
 7845W        W80913  32.117  10.126   4.486
 7846W        W80914  11.876  27.576  10.742
 7847W        W80915  34.609   5.257   2.235
 7848W        W80916  31.525   4.381   2.630
 7849W        W80917  34.489   8.789  13.525
 7850W        W80918  11.368   1.935   2.327
 7851W        W80919  34.284  26.701   1.351
 7852W        W80920  36.581  18.170   4.543
 7853W        W80921  36.604   7.192   3.219
 7854W        W80922  21.247  21.249   0.845
 7855W        W80923  18.815  21.967  13.469
 7856W        W80924  19.863  27.808   4.207
 7857W        W80925   5.456  27.918   1.719
 7858W        W80926  13.067  21.308  10.387
 7859W        W80927  15.542   3.438  11.891
 7860W        W80928  12.566  25.582   0.362
 7861W        W80929  15.879  33.480  12.562
 7862W        W80930  32.547  14.204  11.159
 7863W        W80931  28.018   7.646   0.480
 7864W        W80932  44.204   2.256   3.250
 7865W        W80933  21.985  39.275   0.729
 7866W        W80934  22.823  10.271   4.201
 7867W        W80935   2.213   0.320   1.412
 7868W        W80936  15.889  35.040   4.282
 7869W        W80937  35.591   9.484  13.308
 7870W        W80938  30.432   1.499  10.941
 7871W        W80939  15.211  12.794  10.652
 7872W        W80940  19.833  42.850  11.260
 7873W        W80941  15.716   9.878   0.636
 7874W        W80942  19.673  36.892   1.305
 7875W        W80943  23.671  39.832  13.921
 7876W        W80944  39.924  30.568  10.764
 7877W        W80945   4.577  35.023   3.236
 7878W        W80946   7.242  18.973  10.576
 7879W        W80947  15.364  32.025  14.283
 7880W        W80948  11.406  28.461   0.816
 7881W        W80949  14.082  10.791   1.361
 7882W        W80950  26.259   5.320   0.868
 7883W        W80951   4.169  37.083  10.762
 7884W        W80952  18.312   3.466   3.568
 7885W        W80953   5.750  28.158   1.319
 7886W        W80954  27.526  33.110  12.266
 7887W        W80955  18.653  10.326   2.709
 7888W        W80956  10.786   9.813  10.996
 7889W        W80957   5.186  27.989   4.649
 7890W        W80958   8.981  36.813  14.034
 7891W        W80959   3.689  21.832  12.217
 7892W        W80960  34.251  31.636  13.335
 7893W        W80961  19.490  17.763   3.669
 7894W        W80962   7.927  19.064  12.446
 7895W        W80963  14.589  25.614  10.727
 7896W        W80964  22.977  35.977   2.910
 7897W        W80965   6.974  19.987   2.865
 7898W        W80966  10.879  43.931  11.184
 7899W        W80967  35.944  39.753   3.133
 7900W        W80968  32.907  20.249   1.191
 7901W        W80969  34.365  27.517   0.708
 7902W        W80970   9.471  37.040   0.187
 7903W        W80971  11.480  31.098  12.901
 7904W        W80972  22.734  11.150  11.202
 7905W        W80973  26.342   2.461  11.711
 7906W        W80974   2.553  42.483   1.973
 7907W        W80975  30.603  29.945  14.646
 7908W        W80976  36.958  23.689  14.541
 7909W        W80977  21.526  30.123   1.887
 7910W        W80978  22.184  36.587   2.757
 7911W        W80979  36.456  13.284   2.078
 7912W        W80980  21.029  11.575  11.228
 7913W        W80981  17.687   9.727  11.395
 7914W        W80982  19.636   0.756   3.571
 7915W        W80983  29.953  17.495  11.720
 7916W        W80984  20.429   3.394  12.447
 7917W        W80985  40.045  31.447  10.725
 7918W        W80986  20.095  29.721   0.245
 7919W        W80987  13.885  20.196   1.221
 7920W        W80988  40.859   4.933  10.838
 7921W        W80989  22.577  14.660  13.949
 7922W        W80990  20.590  24.079   4.772
 7923W        W80991  17.367  40.723  14.582
 7924W        W80992  20.009   7.145   3.680
 7925W        W80993  12.331  43.487  12.650
 7926W        W80994  32.957  44.262  14.368
 7927W        W80995  35.697  28.239   3.659
 7928W        W80996   5.833   2.934   1.170
 7929W        W80997  29.613   6.500   4.524
 7930W        W80998  26.580   3.479   3.619
 7931W        W80999  10.580   5.407  12.618
 7932W        W81000  26.611  16.272   0.340
 7933W        W81001   0.780  26.456  10.905
 7934W        W81002   4.897   8.639   2.742
 7935W        W81003  18.072  11.082   2.795
 7936W        W81004  14.117  24.002  13.879
 7937W        W81005  27.843  12.586   0.335
 7938W        W81006  42.250  15.746   1.829
 7939W        W81007  14.067  34.378   3.267
 7940W        W81008  27.280   8.095   1.816
 7941W        W81009  28.648  27.370   2.382
 7942W        W81010  16.677   5.617   3.743
 7943W        W81011  35.012  29.737   4.215
 7944W        W81012  28.852  29.053   4.586
 7945W        W81013  24.826  30.112   2.330
 7946W        W81014   0.739  36.817   0.744
 7947W        W81015  38.311  44.034  14.062
 7948W        W81016   8.924  11.830   2.333
 7949W        W81017  44.018   4.503  12.414
 7950W        W81018   3.470  29.870   1.862
 7951W        W81019  13.220  13.620   0.479
 7952W        W81020   1.087   9.589   0.291
 7953W        W81021  33.015  26.178  12.537
 7954W        W81022  43.450   8.742  14.524
 7955W        W81023  23.719  14.829  11.596
 7956W        W81024  12.937  14.652   0.375
 7957W        W81025  43.017   8.181   4.161
 7958W        W81026  35.865   7.429   4.064
 7959W        W81027   6.079  44.681  13.807
 7960W        W81028   1.531  17.772   3.463
 7961W        W81029  40.979  34.977  12.151
 7962W        W81030  40.831  35.851  10.720
 7963W        W81031  35.523  33.425  14.280
 7964W        W81032  18.645  17.257  13.409
 7965W        W81033  15.045  29.586  11.950
 7966W        W81034   5.473  35.622  12.084
 7967W        W81035  28.843  21.532  13.010
 7968W        W81036  20.203  28.957  10.685
 7969W        W81037  13.823  10.335   1.375
 7970W        W81038  26.972  37.949  12.144
 7971W        W81039  11.212  15.113   0.794
 7972W        W81040   0.716  25.202  14.107
 7973W        W81041  25.625  29.445  11.237
 7974W        W81042  37.414  17.344   2.278
 7975W        W81043  24.743   3.853   0.819
 7976W        W81044   4.322  40.648   3.685
 7977W        W81045  37.811  44.404   0.774
 7978W        W81046  42.411  34.617  12.113
 7979W        W81047  35.009  19.260   4.181
 7980W        W81048   9.094  38.168  11.539
 7981W        W81049  41.405  27.016  12.614
 7982W        W81050  34.036  19.608   3.606
 7983W        W81051   6.163  35.884   5.013
 7984W        W81052  37.532  35.454   2.635
 7985W        W81053  21.180  42.490  11.123
 7986W        W81054  12.118  38.930  10.965
 7987W        W81055  32.479  41.423  13.270
 7988W        W81056  37.961  15.384   0.180
 7989W        W81057   5.787  42.413  14.893
 7990W        W81058  35.827   6.762  13.961
 7991W        W81059  22.766  23.865   0.536
 7992W        W81060  13.805   6.041   1.668
 7993W        W81061  26.044  27.006  11.567
 7994W        W81062  23.418  11.069  13.976
 7995W        W81063  43.603   8.324  12.832
 7996W        W81064   1.388   0.707  10.997
 7997W        W81065  31.883  23.718  12.398
 7998W        W81066  44.829  32.228   0.402
 7999W        W81067  34.128   1.943  12.254
 8000W        W81068   6.115  39.420  14.142
 8001W        W81069  39.432   0.371  11.142
 8002W        W81070   3.721  19.566  10.795
 8003W        W81071  28.149   4.345   1.299
 8004W        W81072  19.213  38.434  12.547
 8005W        W81073  13.857  40.541  10.964
 8006W        W81074  43.926  32.330  11.738
 8007W        W81075  16.640  19.585  14.817
 8008W        W81076   8.618  12.748   1.559
 8009W        W81077  18.994   7.911   4.179
 8010W        W81078  39.850  24.583   4.202
 8011W        W81079   4.721  23.968   3.403
 8012W        W81080  17.292  29.719  14.466
 8013W        W81081   8.839  43.884  12.784
 8014W        W81082  14.145  38.054   2.865
 8015W        W81083  20.005  12.737   4.733
 8016W        W81084  31.034  44.324   4.122
 8017W        W81085  10.830  25.121  10.302
 8018W        W81086   7.642   6.847   3.863
 8019W        W81087  13.135  11.602   3.650
 8020W        W81088  28.582  38.594   2.022
 8021W        W81089   0.101  12.224  13.402
 8022W        W81090  25.131  15.252   3.580
 8023W        W81091  27.569  17.000  13.056
 8024W        W81092  12.921   9.643   3.712
 8025W        W81093  11.249  28.605  13.843
 8026W        W81094  15.143  44.277   1.806
 8027W        W81095  40.602   0.092  13.939
 8028W        W81096  34.308  25.829   3.109
 8029W        W81097  10.194  36.587   3.608
 8030W        W81098  16.159  24.207  11.584
 8031W        W81099  12.792  27.408   1.784
 8032W        W81100   8.786  14.789   0.009
 8033W        W81101  27.517  40.864   1.824
 8034W        W81102  29.504  27.519  13.772
 8035W        W81103  31.384  14.692   3.813
 8036W        W81104  39.130  17.061   3.263
 8037W        W81105  41.465  30.580   1.342
 8038W        W81106  30.057   9.207  10.586
 8039W        W81107   3.732  23.067  12.555
 8040W        W81108  17.770  42.312   4.235
 8041W        W81109  16.258  21.069  10.800
 8042W        W81110  23.216  27.127   0.949
 8043W        W81111   9.278  29.139   2.353
 8044W        W81112  21.056  18.082  10.692
 8045W        W81113  21.007  41.830   2.805
 8046W        W81114  23.057  27.604  14.284
 8047W        W81115   1.571   1.088  14.266
 8048W        W81116  10.301  14.241  12.682
 8049W        W81117  14.602  27.603   1.390
 8050W        W81118  39.238  19.648  14.998
 8051W        W81119  18.056  31.317   3.016
 8052W        W81120   3.934  36.647  14.021
 8053W        W81121   7.935  35.505   0.795
 8054W        W81122  37.133   0.725  11.888
 8055W        W81123  27.765   3.119   5.007
 8056W        W81124   4.403  41.201  14.203
 8057W        W81125  12.723  31.147  12.933
 8058W        W81126  44.820   8.244  12.395
 8059W        W81127  39.567  22.994   2.473
 8060W        W81128   4.504  32.997   3.415
 8061W        W81129  13.296  26.932   3.113
 8062W        W81130  21.003  23.171   2.386
 8063W        W81131  22.999  36.809  11.599
 8064W        W81132   4.827  14.844  14.296
 8065W        W81133   2.295   7.182   4.453
 8066W        W81134  42.284   1.913  12.078
 8067W        W81135  10.757  37.815  12.480
 8068W        W81136  11.995  16.243  14.947
 8069W        W81137   6.186   8.357  13.823
 8070W        W81138   6.252  42.764  13.996
 8071W        W81139  21.177   5.093   0.791
 8072W        W81140  44.840  35.413   0.420
 8073W        W81141  40.326  26.221   0.151
 8074W        W81142  16.810   1.809  12.092
 8075W        W81143   8.874  27.905  10.829
 8076W        W81144  30.226  31.058  12.112
 8077W        W81145  33.609  29.210   4.288
 8078W        W81146  21.347  40.321   1.284
 8079W        W81147   4.706   0.579   4.776
 8080W        W81148  17.943  32.089  10.159
 8081W        W81149  32.192  32.623   0.338
 8082W        W81150  31.814  44.214  14.879
 8083W        W81151  34.368  42.470  12.608
 8084W        W81152   3.277   5.136  11.500
 8085W        W81153  12.066  36.317   0.843
 8086W        W81154  13.089  17.188  13.968
 8087W        W81155   7.781  14.368   0.952
 8088W        W81156  42.795  20.275   3.633
 8089W        W81157  29.551  28.202  11.266
 8090W        W81158  35.512  20.202   1.284
 8091W        W81159  39.019  18.525   4.100
 8092W        W81160   9.792  19.281  11.616
 8093W        W81161  23.857  40.841  12.899
 8094W        W81162  41.944  44.757  11.291
 8095W        W81163   2.495  28.419   3.495
 8096W        W81164  44.248   1.559  14.308
 8097W        W81165  21.675  37.447   4.926
 8098W        W81166  21.724   0.749  11.162
 8099W        W81167   0.912  30.218  11.151
 8100W        W81168  31.246  18.403  14.938
 8101W        W81169  13.730  35.074   0.886
 8102W        W81170  23.478  12.071   3.213
 8103W        W81171  40.318  39.132  11.549
 8104W        W81172  37.527  26.294   3.202
 8105W        W81173  33.196  32.079   0.733
 8106W        W81174  41.022  24.963  11.125
 8107W        W81175  44.275  33.387  10.808
 8108W        W81176  43.803  39.487   3.534
 8109W        W81177   4.518   1.064  12.994
 8110W        W81178  27.195  27.173  10.842
 8111W        W81179  24.639   6.107  14.052
 8112W        W81180   4.937  34.866   1.732
 8113W        W81181   0.706  34.344   0.899
 8114W        W81182   1.078  13.716  14.458
 8115W        W81183  14.056  20.714  11.050
 8116W        W81184  11.699  43.779  14.233
 8117W        W81185   2.086   8.957   4.768
 8118W        W81186  41.400  43.377   4.144
 8119W        W81187  23.765  40.563   1.300
 8120W        W81188  33.999  41.767  13.879
 8121W        W81189   2.935  29.061   4.624
 8122W        W81190  28.934   1.339   2.379
 8123W        W81191  36.982  30.328  14.550
 8124W        W81192   8.285  10.155  14.914
 8125W        W81193  24.949  21.163  14.017
 8126W        W81194   6.077   9.126  11.336
 8127W        W81195   3.824   2.525  11.472
 8128W        W81196  18.995  27.557  11.535
 8129W        W81197  30.880   8.116  11.532
 8130W        W81198  11.542  27.641   1.384
 8131W        W81199  20.009  31.248   0.335
 8132W        W81200  14.212   1.794  11.472
 8133W        W81201  11.343  19.160  13.971
 8134W        W81202   5.410  28.947  13.685
 8135W        W81203   0.231  19.126  12.099
 8136W        W81204  26.181   4.059   1.411
 8137W        W81205   1.906   5.789   2.749
 8138W        W81206  38.556  19.199   0.835
 8139W        W81207  41.988  16.215   1.867
 8140W        W81208  22.543  38.399  12.320
 8141W        W81209  12.628  18.619   3.674
 8142W        W81210  21.258  17.224  12.471
 8143W        W81211  32.988  15.656  12.967
 8144W        W81212  10.277  41.849  10.588
 8145W        W81213  20.166  36.222  11.146
 8146W        W81214  14.693  20.223  10.577
 8147W        W81215  38.220  13.722   3.719
 8148W        W81216  13.365  20.270  10.416
 8149W        W81217  19.294  41.445   4.107
 8150W        W81218  22.694  23.612  13.104
 8151W        W81219  23.461  42.662   2.236
 8152W        W81220  17.542   5.290   2.416
 8153W        W81221  42.421  21.550  12.789
 8154W        W81222  43.369   9.649  12.916
 8155W        W81223  32.485  21.508  12.404
 8156W        W81224  28.543  30.878   2.717
 8157W        W81225  30.170  27.073  13.944
 8158W        W81226  42.242  29.489   0.869
 8159W        W81227  12.746  30.797  11.149
 8160W        W81228  40.813  33.048   1.881
 8161W        W81229  17.113  24.210  14.003
 8162W        W81230  17.432   4.419   2.430
 8163W        W81231  42.892  44.061  13.481
 8164W        W81232   8.896  40.104  12.064
 8165W        W81233   2.527  24.126   0.821
 8166W        W81234  44.312  14.259   0.511
 8167W        W81235  41.466  28.915   0.715
 8168W        W81236  34.917  17.980  12.064
 8169W        W81237  12.153   2.229  14.315
 8170W        W81238  36.029   8.405  13.579
 8171W        W81239  11.075  21.325   0.768
 8172W        W81240  27.701  44.300  12.900
 8173W        W81241  18.503  27.904   4.617
 8174W        W81242  20.022  19.712  10.734
 8175W        W81243   4.445  27.756   4.152
 8176W        W81244  22.082  10.192   0.466
 8177W        W81245  22.890  15.539   2.806
 8178W        W81246   1.730  13.740   3.840
 8179W        W81247   2.125   8.962   3.556
 8180W        W81248   2.183  33.568  14.366
 8181W        W81249  21.543  12.791   4.639
 8182W        W81250  21.987  13.559   3.566
 8183W        W81251  43.686   1.204  12.591
 8184W        W81252  14.124  19.876   2.759
 8185W        W81253   3.309  40.800  13.872
 8186W        W81254   9.354   2.809   4.911
 8187W        W81255   7.363   9.322  13.521
 8188W        W81256  22.593  38.605  12.799
 8189W        W81257   6.847  12.886  14.307
 8190W        W81258  34.409  27.783   3.058
 8191W        W81259  15.699  34.405  12.448
 8192W        W81260  26.815   6.662   2.685
 8193W        W81261  21.578  31.679  11.637
 8194W        W81262  20.066  23.175   4.655
 8195W        W81263   4.199  16.928  12.414
 8196W        W81264  12.124   1.323  11.554
 8197W        W81265  15.769  14.552  10.652
 8198W        W81266  19.653  38.482   0.058
 8199W        W81267   7.452  37.252  11.971
 8200W        W81268  26.015  21.982  13.237
 8201W        W81269  17.999  21.802  14.850
 8202W        W81270  42.282  24.640  12.144
 8203W        W81271  38.825  35.008  14.532
 8204W        W81272  26.448   0.276  10.319
 8205W        W81273  24.652  37.604   2.389
 8206W        W81274  16.367  10.199   1.340
 8207W        W81275   2.897  35.016   2.707
 8208W        W81276   4.619  11.225  13.548
 8209W        W81277  44.204  33.354   1.964
 8210W        W81278   7.880  27.485   4.604
 8211W        W81279   7.463  27.477   0.400
 8212W        W81280  40.321   7.828   3.317
 8213W        W81281  22.040  21.611   0.220
 8214W        W81282   3.847  15.210   1.285
 8215W        W81283  25.815  25.931  13.924
 8216W        W81284  22.437  30.170  14.804
 8217W        W81285  32.854   4.957   4.562
 8218W        W81286  41.001  22.706   0.195
 8219W        W81287  34.167  23.586  10.754
 8220W        W81288  44.804  15.607   1.171
 8221W        W81289  23.398  28.917   0.951
 8222W        W81290  40.115   1.847   3.435
 8223W        W81291  39.345  10.471   0.312
 8224W        W81292  38.073  40.408  14.745
 8225W        W81293  17.152  29.792  13.005
 8226W        W81294  23.177  23.467   3.868
 8227W        W81295  31.942  40.017   1.440
 8228W        W81296   4.284   1.921   1.815
 8229W        W81297   5.492  31.908  11.707
 8230W        W81298  31.145  40.482   1.776
 8231W        W81299  15.269  27.659   3.219
 8232W        W81300  40.391  19.146  14.429
 8233W        W81301  43.776  33.930   3.441
 8234W        W81302  17.812  28.198   0.549
 8235W        W81303  22.446  11.070   3.177
 8236W        W81304  18.436  16.984  11.875
 8237W        W81305  24.047  27.467  14.295
 8238W        W81306  30.890   2.232  12.967
 8239W        W81307  24.624   7.035  10.713
 8240W        W81308  38.459   7.252  13.593
 8241W        W81309   2.696  26.219   0.344
 8242W        W81310  44.891  21.082  12.100
 8243W        W81311  28.942  11.820  10.294
 8244W        W81312   7.919  32.479   4.590
 8245W        W81313   3.776   6.761  12.162
 8246W        W81314  17.751  24.942   2.683
 8247W        W81315   9.203  18.108   1.428
 8248W        W81316  41.414  35.066   0.834
 8249W        W81317  22.730  38.277   1.753
 8250W        W81318  13.847  35.610  14.377
 8251W        W81319  20.557  30.800  14.528
 8252W        W81320  42.190  13.112   0.070
 8253W        W81321  39.206   5.518   2.841
 8254W        W81322  33.035   8.180   3.838
 8255W        W81323  30.732   5.044   2.766
 8256W        W81324   5.542  22.606   0.394
 8257W        W81325  31.648  27.555   2.381
 8258W        W81326   0.360  30.197   0.548
 8259W        W81327  28.294  28.426  13.899
 8260W        W81328  41.453  20.142   4.651
 8261W        W81329  25.485  14.299  11.052
 8262W        W81330  32.433   4.416  13.187
 8263W        W81331  21.066  36.863   3.224
 8264W        W81332  10.356   4.096   4.108
 8265W        W81333  13.875  19.707  10.977
 8266W        W81334   2.145   0.789  10.306
 8267W        W81335  31.050  21.061   0.829
 8268W        W81336  30.930  27.940  13.398
 8269W        W81337  44.755  41.149   2.299
 8270W        W81338  41.127   8.224  13.831
 8271W        W81339   3.369  11.867   3.341
 8272W        W81340  13.579  32.560  12.585
 8273W        W81341   9.340  25.448   0.311
 8274W        W81342  18.151  12.899  13.289
 8275W        W81343   3.299   3.794  14.001
 8276W        W81344  26.561   5.043   3.685
 8277W        W81345  10.606   6.418  13.471
 8278W        W81346  43.766  28.031  13.340
 8279W        W81347  28.096   3.377   0.007
 8280W        W81348  36.894  14.281  10.698
 8281W        W81349  38.870  17.515  11.026
 8282W        W81350  31.280   5.884  11.846
 8283W        W81351  35.954  40.659  13.973
 8284W        W81352  35.965  38.366   3.739
 8285W        W81353  22.646  28.595  11.092
 8286W        W81354   7.300  19.138   4.551
 8287W        W81355  30.391  19.078   3.132
 8288W        W81356  42.849  21.574  13.438
 8289W        W81357  42.523  44.446   3.897
 8290W        W81358  24.552  20.341   3.176
 8291W        W81359  39.393   8.163   4.509
 8292W        W81360  39.117   9.702   1.914
 8293W        W81361  22.680  27.011  11.100
 8294W        W81362   2.020  11.187  13.934
 8295W        W81363  38.070  32.858   4.148
 8296W        W81364   6.821  15.286   4.606
 8297W        W81365  28.796  15.610   4.342
 8298W        W81366  32.939   8.421  12.976
 8299W        W81367  31.670  18.241  10.581
 8300W        W81368  20.469  28.029  12.754
 8301W        W81369  13.236  32.752  13.427
 8302W        W81370   0.543  28.411   2.371
 8303W        W81371   2.412   2.691   4.160
 8304W        W81372   7.472   5.724   3.490
 8305W        W81373  38.899  39.857  10.604
 8306W        W81374  41.305  38.858   5.011
 8307W        W81375  17.704  41.340  10.763
 8308W        W81376  18.071  34.391   0.365
 8309W        W81377  24.592  38.601  13.879
 8310W        W81378  21.216  20.473  11.575
 8311W        W81379  31.464  22.708  11.345
 8312W        W81380   3.917  31.031  12.858
 8313W        W81381   8.950  35.007  11.128
 8314W        W81382  26.169  24.721  11.657
 8315W        W81383  21.439  12.664  12.989
 8316W        W81384   7.099  39.097  13.525
 8317W        W81385  19.933   2.333   1.914
 8318W        W81386  39.425  42.052  10.924
 8319W        W81387  19.489  44.591  13.433
 8320W        W81388  20.492  40.352  13.996
 8321W        W81389  23.679  44.280   1.425
 8322W        W81390  40.616  27.123  11.522
 8323W        W81391   6.176   5.710  12.910
 8324W        W81392  22.767  38.141   3.303
 8325W        W81393  20.975   2.356   1.837
 8326W        W81394   0.198  16.563   3.986
 8327W        W81395  41.228   0.913   0.828
 8328W        W81396   1.474  36.622   2.805
 8329W        W81397  34.902  27.089  10.456
 8330W        W81398  28.451  30.700   3.198
 8331W        W81399  28.037  37.794  14.751
 8332W        W81400  44.216   8.568  12.872
 8333W        W81401  16.316  43.580   4.134
 8334W        W81402  39.298  28.079   3.326
 8335W        W81403  22.779  30.056   3.178
 8336W        W81404  38.498  34.626  14.355
 8337W        W81405  21.259  32.214  14.731
 8338W        W81406  11.327  11.096  11.050
 8339W        W81407   9.382  36.795  12.020
 8340W        W81408  24.749  16.643  11.116
 8341W        W81409   6.382   2.310   4.517
 8342W        W81410  36.847  38.533  13.124
 8343W        W81411  13.225  21.252   0.430
 8344W        W81412  25.761  41.429  11.071
 8345W        W81413  21.365  19.045  14.940
 8346W        W81414  28.578   7.589   2.407
 8347W        W81415   2.370  25.641   0.945
 8348W        W81416   5.860   5.869   2.236
 8349W        W81417  33.675  40.446  13.045
 8350W        W81418  40.914  29.589  12.120
 8351W        W81419  32.387  41.650   1.345
 8352W        W81420  11.621  32.514  12.998
 8353W        W81421   6.518  23.173   3.349
 8354W        W81422  19.908  13.824  14.126
 8355W        W81423  20.750  14.284   1.922
 8356W        W81424   3.241  12.524  14.958
 8357W        W81425  42.918  20.252  11.558
 8358W        W81426   9.162   0.757   4.844
 8359W        W81427  17.062  37.933   1.723
 8360W        W81428  33.085  41.101   1.854
 8361W        W81429  31.077  11.129   4.681
 8362W        W81430  41.267  27.190   0.887
 8363W        W81431   4.261  20.537   3.802
 8364W        W81432  39.751  36.112   2.765
 8365W        W81433  41.086   0.078   2.719
 8366W        W81434  30.715  22.577   4.899
 8367W        W81435  14.678  20.173  11.961
 8368W        W81436  21.199   0.576   4.710
 8369W        W81437  16.359  39.401   3.676
 8370W        W81438  33.195  17.554   0.792
 8371W        W81439  19.743  31.847  14.069
 8372W        W81440  24.058  31.483  11.607
 8373W        W81441  42.015  40.057   3.048
 8374W        W81442  42.685  24.873  14.984
 8375W        W81443  27.601   4.819  14.768
 8376W        W81444  35.551  43.473  13.389
 8377W        W81445  41.260  16.109  12.554
 8378W        W81446   9.467   9.245  12.934
 8379W        W81447  32.164   9.926  13.861
 8380W        W81448  38.877  32.936   2.454
 8381W        W81449  34.659  12.420   4.130
 8382W        W81450  26.039  39.068  13.918
 8383W        W81451   7.337  36.033   2.614
 8384W        W81452  41.489   0.819  12.844
 8385W        W81453   3.230  38.537   4.369
 8386W        W81454  31.888  32.920  12.528
 8387W        W81455  18.743   2.957  12.040
 8388W        W81456  36.945  41.951  10.934
 8389W        W81457   3.497  11.523   0.033
 8390W        W81458   1.575  16.551  12.103
 8391W        W81459  19.543  44.029  13.432
 8392W        W81460  27.641  29.197   2.288
 8393W        W81461  14.350   4.781   3.777
 8394W        W81462  39.749   8.328   5.202
 8395W        W81463  23.920  25.458  11.560
 8396W        W81464  44.339  11.737   3.317
 8397W        W81465  30.771   7.848   2.068
 8398W        W81466  42.070  42.327  13.828
 8399W        W81467  27.049   6.329   4.677
 8400W        W81468   5.275  13.737  12.580
 8401W        W81469  41.912  14.637  12.667
 8402W        W81470   5.170   4.161   2.366
 8403W        W81471  27.648   9.824  11.222
 8404W        W81472  39.749   4.277  12.015
 8405W        W81473  32.858  13.861   4.613
 8406W        W81474  27.051  15.138   1.872
 8407W        W81475   2.318  24.605   0.872
 8408W        W81476  40.343   4.963   0.979
 8409W        W81477   4.733  41.235  14.739
 8410W        W81478  42.070  28.090  13.632
 8411W        W81479  22.763  39.992   4.536
 8412W        W81480   2.328  31.025  13.971
 8413W        W81481  24.219  39.053  10.502
 8414W        W81482  37.436   5.227  10.577
 8415W        W81483  27.606  42.290   1.075
 8416W        W81484  23.949  33.962  13.888
 8417W        W81485  36.146  15.222  11.973
 8418W        W81486   1.497  28.505   1.789
 8419W        W81487  16.333  26.650  13.500
 8420W        W81488  18.311  42.993  12.974
 8421W        W81489   8.894  17.118   0.778
 8422W        W81490  33.282  20.884   4.918
 8423W        W81491  40.990   1.983   3.944
 8424W        W81492   0.139   0.846   4.199
 8425W        W81493  43.564  30.069  12.490
 8426W        W81494  28.165  28.596   0.837
 8427W        W81495  29.044   7.868   0.292
 8428W        W81496  44.382  11.110  12.896
 8429W        W81497  38.017  24.666  10.731
 8430W        W81498  12.339   1.372  12.637
 8431W        W81499  18.862  44.391  14.774
 8432W        W81500  13.291  24.413  13.394
 8433W        W81501  22.253  18.247   3.407
 8434W        W81502  42.578  11.407   3.764
 8435W        W81503  21.081  36.876  12.946
 8436W        W81504  37.841  23.319   1.887
 8437W        W81505  21.027  39.415  10.533
 8438W        W81506   7.180  28.387   2.932
 8439W        W81507  24.383  38.609   1.409
 8440W        W81508  18.680  25.142   1.040
 8441W        W81509   1.465  29.591   4.550
 8442W        W81510  17.034   4.757  12.348
 8443W        W81511  40.339   1.221  10.678
 8444W        W81512  29.593   1.873  14.037
 8445W        W81513  26.627  32.980   4.785
 8446W        W81514  20.732  39.043   5.132
 8447W        W81515  10.687  31.925  13.261
 8448W        W81516  41.469   4.413  10.673
 8449W        W81517  14.200  27.923   0.343
 8450W        W81518  33.875   8.655   1.305
 8451W        W81519  34.151  11.769   2.810
 8452W        W81520  36.548  33.939  12.282
 8453W        W81521  29.058  27.729   0.308
 8454W        W81522  42.843  26.395   0.851
 8455W        W81523  19.054  16.585  12.631
 8456W        W81524  36.362   1.945   5.032
 8457W        W81525  22.603  16.809   4.650
 8458W        W81526  31.749  41.191  12.020
 8459W        W81527  12.336  13.173  11.047
 8460W        W81528  43.344  44.626   0.302
 8461W        W81529  22.406   9.187   0.891
 8462W        W81530   9.667  19.679  12.939
 8463W        W81531  43.199  28.007   0.870
 8464W        W81532  10.983  14.500  13.157
 8465W        W81533   9.438  23.112  14.975
 8466W        W81534  36.354  29.117   0.373
 8467W        W81535   0.469   3.400   0.332
 8468W        W81536  32.389   4.286  11.653
 8469W        W81537  28.501   8.658   2.369
 8470W        W81538  34.064  40.469   4.593
 8471W        W81539   5.995  19.979   3.669
 8472W        W81540  28.372  31.055   0.442
 8473W        W81541  16.138  10.251  12.857
 8474W        W81542   9.030  36.428   2.439
 8475W        W81543   3.490  44.734  14.408
 8476W        W81544  16.517  40.802   0.305
 8477W        W81545  26.142  26.679   4.612
 8478W        W81546  43.571  15.311   2.777
 8479W        W81547   5.482   1.515  12.033
 8480W        W81548   9.731  33.347  12.291
 8481W        W81549  14.791  19.573  10.113
 8482W        W81550  13.121   2.281   4.875
 8483W        W81551  26.525   3.068   1.471
 8484W        W81552  44.088  23.369  14.917
 8485W        W81553  22.833  35.559  13.114
 8486W        W81554  26.735  37.920  13.413
 8487W        W81555  38.905  40.556  14.519
 8488W        W81556  44.942  25.265   3.858
 8489W        W81557  39.044  31.904   4.973
 8490W        W81558  38.204  11.384   2.924
 8491W        W81559  12.110  35.171  13.783
 8492W        W81560   8.271  42.069   5.407
 8493W        W81561  32.085   0.312  12.000
 8494W        W81562  42.887  43.842  12.222
 8495W        W81563  28.386  18.794  10.720
 8496W        W81564  14.690   6.349  14.100
 8497W        W81565   0.230  13.736  13.514
 8498W        W81566  34.326   0.014  13.365
 8499W        W81567   3.263  17.031   2.175
 8500W        W81568  14.027  42.489  12.522
 8501W        W81569   6.285   2.485  11.420
 8502W        W81570  43.940  40.045   2.909
 8503W        W81571  36.023  44.037   4.177
 8504W        W81572  17.298  21.238  14.873
 8505W        W81573   4.038  35.459  14.328
 8506W        W81574  39.424   4.034   1.957
 8507W        W81575   0.244  17.245  12.159
 8508W        W81576   4.338   5.115  12.517
 8509W        W81577  33.283  42.330   0.749
 8510W        W81578  34.932  39.966   3.886
 8511W        W81579  23.593   4.973   1.406
 8512W        W81580  18.628  35.746  10.160
 8513W        W81581  35.607   3.235  13.951
 8514W        W81582  20.769  21.131   3.817
 8515W        W81583  13.156  20.173  11.592
 8516W        W81584   5.423   1.320   3.742
 8517W        W81585  21.739   8.285   0.242
 8518W        W81586  31.653  40.429  11.466
 8519W        W81587  33.019  36.707  14.098
 8520W        W81588  13.126  15.291  14.566
 8521W        W81589  26.648  36.635   1.345
 8522W        W81590  19.273   6.689   2.303
 8523W        W81591  33.121  17.744  11.601
 8524W        W81592  41.492   1.725   2.660
 8525W        W81593  26.863   1.393  11.089
 8526W        W81594   6.756  32.652  12.930
 8527W        W81595   7.802   0.489  12.110
 8528W        W81596  22.387  43.368   4.311
 8529W        W81597  39.808  27.639  12.729
 8530W        W81598  25.528  40.334   4.970
 8531W        W81599  11.805   3.645   2.770
 8532W        W81600   0.183   3.862   1.451
 8533W        W81601  32.391  22.897  10.212
 8534W        W81602  21.631  23.743   4.196
 8535W        W81603  18.506  34.648  14.402
 8536W        W81604  18.288  16.877   3.689
 8537W        W81605  43.831  13.344  10.707
 8538W        W81606  35.359  17.113   0.045
 8539W        W81607  43.384  27.442   9.932
 8540W        W81608  24.064   5.056  11.270
 8541W        W81609  28.927  37.332  11.247
 8542W        W81610   1.343  21.590  13.772
 8543W        W81611  14.767  27.029  11.913
 8544W        W81612  28.087  31.197   0.905
 8545W        W81613   3.221  28.100  14.648
 8546W        W81614  36.264  35.908  12.878
 8547W        W81615  19.644  32.472   0.110
 8548W        W81616   8.650  42.271  11.069
 8549W        W81617   6.331  13.047  12.921
 8550W        W81618  23.190  30.525  10.950
 8551W        W81619   1.947  39.170  10.542
 8552W        W81620   8.355   4.540   2.852
 8553W        W81621  15.545  14.698  11.105
 8554W        W81622   0.455   9.023  10.585
 8555W        W81623  17.439  36.511   2.473
 8556W        W81624  44.353  37.530  10.256
 8557W        W81625   2.718  40.951  12.962
 8558W        W81626  34.809  16.620   2.782
 8559W        W81627   4.068   7.999  14.052
 8560W        W81628  40.773  35.375  10.520
 8561W        W81629  36.332  28.879  13.472
 8562W        W81630  24.176  29.922   1.382
 8563W        W81631  20.577  29.949  10.778
 8564W        W81632  15.538  38.730  11.739
 8565W        W81633  19.569  12.710  12.922
 8566W        W81634   6.199  24.990   1.264
 8567W        W81635  35.877  15.656   2.423
 8568W        W81636  29.900  19.445   4.804
 8569W        W81637  19.601  41.979   3.488
 8570W        W81638   2.347  19.278   3.978
 8571W        W81639   0.405  11.730  14.946
 8572W        W81640  43.237   8.416  10.696
 8573W        W81641  20.155  10.904  12.967
 8574W        W81642  13.350  13.295   3.277
 8575W        W81643   8.735  13.870   2.691
 8576W        W81644  18.848   5.440  14.535
 8577W        W81645  13.907   7.247   4.141
 8578W        W81646  25.570  41.580   3.493
 8579W        W81647  37.940  37.093   4.952
 8580W        W81648  35.187   7.122   3.467
 8581W        W81649  31.979  24.958   1.748
 8582W        W81650  23.302  14.053  11.822
 8583W        W81651  29.044  20.998   2.837
 8584W        W81652  18.338  11.464  11.423
 8585W        W81653   4.861  26.093   0.942
 8586W        W81654  23.598  12.315   4.809
 8587W        W81655  14.043  13.850  13.224
 8588W        W81656  17.254  35.044   4.393
 8589W        W81657  27.592  33.777   0.224
 8590W        W81658   9.236  44.085  13.107
 8591W        W81659   1.321  37.812  12.927
 8592W        W81660  14.068  34.931  12.120
 8593W        W81661  36.574   8.528   4.514
 8594W        W81662  43.209  18.031  14.398
 8595W        W81663  16.166  18.663   2.921
 8596W        W81664  11.197  21.119   3.663
 8597W        W81665  19.735   7.888   1.267
 8598W        W81666  29.988  21.779  10.695
 8599W        W81667  19.594  17.161  11.102
 8600W        W81668   6.498   4.227   0.337
 8601W        W81669  17.672  22.942  13.253
 8602W        W81670  27.129   1.488  11.924
 8603W        W81671  21.066  44.639   1.469
 8604W        W81672  22.582   5.351   0.707
 8605W        W81673  24.518  41.343  11.125
 8606W        W81674  36.589  30.069  14.777
 8607W        W81675  20.064  40.007   5.028
 8608W        W81676  17.482   2.128  13.909
 8609W        W81677  43.866  34.067  13.451
 8610W        W81678  13.243  31.960  11.530
 8611W        W81679  18.748  26.581  13.298
 8612W        W81680  17.314   0.542  12.776
 8613W        W81681  27.483  41.350  12.544
 8614W        W81682  32.882   5.283   1.835
 8615W        W81683  22.011  31.694  11.935
 8616W        W81684  39.041  35.788   5.174
 8617W        W81685  35.335  26.456   0.394
 8618W        W81686   2.285  12.526   4.934
 8619W        W81687  23.701  37.372  13.867
 8620W        W81688   2.921  32.560   3.531
 8621W        W81689  14.076  28.269   3.120
 8622W        W81690  29.644  42.249  13.723
 8623W        W81691  37.344  44.060  13.990
 8624W        W81692  16.053   2.307   2.302
 8625W        W81693  40.093  16.073  14.978
 8626W        W81694   1.721  11.930   2.817
 8627W        W81695  32.465  22.177   3.886
 8628W        W81696   3.925   8.387  11.518
 8629W        W81697  32.661  28.911   1.067
 8630W        W81698  33.132  25.732   1.266
 8631W        W81699  39.834  37.043   2.670
 8632W        W81700  15.805  20.718   4.637
 8633W        W81701   3.357  25.584  11.986
 8634W        W81702   7.877  28.408   0.309
 8635W        W81703  17.008  43.774  12.691
 8636W        W81704   4.667   9.197   1.816
 8637W        W81705  39.816   7.402  12.468
 8638W        W81706  18.615  22.781   3.178
 8639W        W81707   0.925  29.883  11.669
 8640W        W81708   8.752   5.293  12.895
 8641W        W81709  31.411  23.785   4.212
 8642W        W81710  32.925  39.069   1.711
 8643W        W81711  27.612  39.504   3.263
 8644W        W81712  44.984  24.485   0.283
 8645W        W81713  21.197   1.859  11.217
 8646W        W81714  14.238  32.116   3.641
 8647W        W81715   0.442  16.405  10.993
 8648W        W81716  43.200  20.794  12.350
 8649W        W81717  17.093  42.610   2.892
 8650W        W81718  23.763   3.497   0.521
 8651W        W81719  22.074  42.318   1.194
 8652W        W81720  38.576  18.213   4.475
 8653W        W81721   9.231   3.222  14.370
 8654W        W81722  23.245   1.078  11.116
 8655W        W81723  10.697  29.044  12.753
 8656W        W81724  40.681   5.868   0.556
 8657W        W81725  30.489  39.748   2.640
 8658W        W81726  12.355  15.628   3.674
 8659W        W81727  31.463   0.865   1.923
 8660W        W81728  14.051  41.239  14.954
 8661W        W81729  33.129  20.393  11.148
 8662W        W81730  23.367  37.959   4.978
 8663W        W81731   8.102   7.902  11.644
 8664W        W81732  40.856   8.388  12.432
 8665W        W81733  27.165  14.708   3.783
 8666W        W81734  43.493  12.167  12.152
 8667W        W81735  26.404  23.230   3.631
 8668W        W81736  26.130  11.798   2.804
 8669W        W81737  19.611   9.114  13.515
 8670W        W81738  10.434  10.360   4.574
 8671W        W81739  10.188  25.926  14.216
 8672W        W81740   2.728  19.019   3.213
 8673W        W81741   5.176  25.563  14.864
 8674W        W81742  20.943   4.910  11.618
 8675W        W81743  32.157  40.410  11.986
 8676W        W81744  27.718   5.271   2.699
 8677W        W81745  24.465   1.092  11.221
 8678W        W81746   2.480  44.456  12.917
 8679W        W81747   8.930  13.427  14.708
 8680W        W81748   1.660  38.084  11.852
 8681W        W81749   7.455  10.364   0.358
 8682W        W81750  28.578   5.005   4.181
 8683W        W81751  32.589   1.772  11.587
 8684W        W81752  41.006   6.346   4.999
 8685W        W81753  43.352   9.910  11.584
 8686W        W81754  21.717   4.757   4.689
 8687W        W81755  27.371  20.657  11.489
 8688W        W81756   1.899   2.116  14.429
 8689W        W81757  15.217  34.936   3.161
 8690W        W81758  18.366   8.762   1.667
 8691W        W81759  40.225   0.336   2.782
 8692W        W81760  29.587   2.045   5.035
 8693W        W81761  34.613  22.003   2.718
 8694W        W81762  29.730   9.250  13.041
 8695W        W81763  38.554  35.977  10.214
 8696W        W81764  20.863  27.093   1.881
 8697W        W81765  40.487  24.050   2.067
 8698W        W81766  20.532  27.439  13.838
 8699W        W81767  44.719  37.110  14.904
 8700W        W81768  34.923  20.712  12.459
 8701W        W81769  29.631  22.134   4.207
 8702W        W81770  32.058  13.696   1.693
 8703W        W81771  15.868  30.796  12.412
 8704W        W81772   2.623  31.562   1.187
 8705W        W81773  42.794  27.459  13.928
 8706W        W81774   2.183   7.064   4.949
 8707W        W81775  41.801  18.814  10.675
 8708W        W81776  28.119  28.222   2.221
 8709W        W81777  15.796  10.295   2.614
 8710W        W81778  35.339   9.839   4.804
 8711W        W81779   8.253  29.977   4.717
 8712W        W81780  24.602  40.338  14.791
 8713W        W81781  25.521  44.426   4.133
 8714W        W81782   5.893  18.122  10.990
 8715W        W81783  31.305  23.726  11.622
 8716W        W81784  42.255  15.901   0.426
 8717W        W81785  43.472   3.371  11.212
 8718W        W81786  21.155  37.284   2.253
 8719W        W81787  32.478   4.680  10.889
 8720W        W81788  16.275  25.286   5.078
 8721W        W81789  29.306  33.417  14.015
 8722W        W81790  24.508  13.091  13.892
 8723W        W81791  31.044  40.046  13.769
 8724W        W81792  15.082   4.327   3.267
 8725W        W81793  24.219  11.134   2.247
 8726W        W81794  28.075  21.258   0.406
 8727W        W81795  35.514  23.489  14.512
 8728W        W81796  19.566  41.318  13.036
 8729W        W81797  37.880  44.862  13.921
 8730W        W81798  23.486   6.205   3.753
 8731W        W81799   4.727  43.216   4.469
 8732W        W81800  35.011   5.779  12.428
 8733W        W81801  14.241  21.240  11.700
 8734W        W81802  15.652  12.386   4.322
 8735W        W81803  22.110  12.661  11.993
 8736W        W81804  22.402  31.238   2.663
 8737W        W81805  30.389  21.660   3.292
 8738W        W81806  33.327  29.529  13.015
 8739W        W81807  25.473  13.663   2.950
 8740W        W81808  18.427  31.601  12.802
 8741W        W81809  44.324  16.918   2.292
 8742W        W81810   4.773  35.897  14.967
 8743W        W81811  20.686   8.610  14.490
 8744W        W81812   3.374   5.463   4.798
 8745W        W81813   6.227  20.511   0.999
 8746W        W81814  34.420  42.559  14.909
 8747W        W81815  26.204   5.775  11.996
 8748W        W81816  28.473  14.820   1.863
 8749W        W81817  23.545   3.461   0.058
 8750W        W81818  20.712   5.436   0.096
 8751W        W81819  38.988  28.570   2.042
 8752W        W81820  36.042  25.098   3.182
 8753W        W81821  43.488  35.642  10.812
 8754W        W81822   6.437  10.614   4.155
 8755W        W81823  35.639   5.432  10.427
 8756W        W81824  28.076   1.393   2.618
 8757W        W81825   7.133  19.172   1.577
 8758W        W81826  13.355  12.672   3.711
 8759W        W81827  17.258  41.296   1.790
 8760W        W81828  42.260  31.905   0.944
 8761W        W81829  32.541   4.946   4.154
 8762W        W81830  39.235   9.847  10.147
 8763W        W81831  31.340   2.914   2.694
 8764W        W81832  31.372  39.015   1.765
 8765W        W81833   4.336  35.714   4.686
 8766W        W81834   1.226  42.855  11.207
 8767W        W81835  42.064  19.437  13.563
 8768W        W81836  39.363  18.858  13.718
 8769W        W81837   5.270  16.819  13.062
 8770W        W81838  27.919  13.065  13.391
 8771W        W81839  27.644  38.615   0.872
 8772W        W81840   6.768   3.212  14.710
 8773W        W81841   1.271   9.271   3.396
 8774W        W81842  26.866  11.281  13.862
 8775W        W81843  11.446  31.393   2.933
 8776W        W81844   9.688  39.274   1.918
 8777W        W81845  23.057  41.971  14.422
 8778W        W81846  11.681  24.965   3.731
 8779W        W81847   6.397  24.509   1.309
 8780W        W81848  16.621  43.847   2.679
 8781W        W81849  34.850   9.965  14.832
 8782W        W81850  12.054  11.440  14.736
 8783W        W81851  27.743  43.674  13.027
 8784W        W81852  31.974   5.680   4.176
 8785W        W81853  41.778  19.001  13.565
 8786W        W81854   8.813  44.882   1.264
 8787W        W81855  10.077   9.418  12.215
 8788W        W81856  28.379   8.849   5.066
 8789W        W81857  19.525  12.933  14.230
 8790W        W81858  29.736  25.710   3.618
 8791W        W81859  38.769  36.369   4.559
 8792W        W81860   8.286  22.117  13.594
 8793W        W81861   6.354  24.982   5.080
 8794W        W81862  12.705  13.226  13.081
 8795W        W81863  39.541   8.723  11.377
 8796W        W81864  22.746  33.549  10.829
 8797W        W81865  34.503  28.876  12.962
 8798W        W81866  11.859  44.271  13.395
 8799W        W81867  22.257  18.512  10.740
 8800W        W81868  36.068  38.815  13.492
 8801W        W81869  40.776  14.295   4.957
 8802W        W81870  43.413   6.448  14.551
 8803W        W81871   1.295   1.338   0.303
 8804W        W81872  35.859  39.445   1.827
 8805W        W81873  23.596  21.128  11.218
 8806W        W81874   6.298  11.515   1.850
 8807W        W81875  13.575   0.275   2.359
 8808W        W81876   7.035  12.736  14.764
 8809W        W81877  22.626  40.996   2.374
 8810W        W81878   4.590  29.437  13.223
 8811W        W81879  11.479  23.701   3.568
 8812W        W81880  12.172  36.821  14.969
 8813W        W81881   5.672  26.676  12.393
 8814W        W81882  41.011  30.956   3.547
 8815W        W81883  11.193  34.638  14.473
 8816W        W81884  23.126  42.872  14.374
 8817W        W81885  35.343   9.226  11.126
 8818W        W81886   6.613   0.969   4.732
 8819W        W81887   0.471   1.052  11.044
 8820W        W81888   5.971  39.845   2.250
 8821W        W81889  36.283  19.009   1.156
 8822W        W81890  14.693  17.747  14.415
 8823W        W81891  10.634  40.550  13.356
 8824W        W81892  13.793  14.107  14.055
 8825W        W81893  25.530  33.689  11.563
 8826W        W81894  27.557  39.795  11.001
 8827W        W81895  40.679  39.922  12.917
 8828W        W81896  42.900  14.685   1.412
 8829W        W81897  21.572  11.812  11.841
 8830W        W81898  23.087  43.772  10.697
 8831W        W81899  38.499  19.469   1.872
 8832W        W81900  16.838  15.077   0.772
 8833W        W81901  35.566  43.792   4.146
 8834W        W81902  26.608  43.122   4.452
 8835W        W81903  42.910  42.057  11.021
 8836W        W81904  27.449   9.270  12.425
 8837W        W81905  29.684  39.844   3.133
 8838W        W81906  35.146  33.638  13.395
 8839W        W81907  31.010  13.047  12.010
 8840W        W81908  17.871   8.207   0.731
 8841W        W81909  13.382  26.521   0.647
 8842W        W81910  10.939   3.509   4.696
 8843W        W81911  42.476  28.018  12.477
 8844W        W81912  35.653   5.637  11.652
 8845W        W81913   3.792   2.290   4.160
 8846W        W81914  12.667  29.284  12.864
 8847W        W81915  22.520  20.166   0.915
 8848W        W81916  19.673  41.435  11.145
 8849W        W81917   0.045  33.552   0.261
 8850W        W81918   6.708   7.391  14.951
 8851W        W81919  30.898  19.570   2.292
 8852W        W81920   5.721  40.490  11.126
 8853W        W81921  41.645  10.303  13.891
 8854W        W81922  37.116  27.144   4.382
 8855W        W81923  44.692  18.580  13.761
 8856W        W81924  40.914  20.782  11.124
 8857W        W81925  39.501  31.595   3.948
 8858W        W81926   6.586  44.537  12.649
 8859W        W81927  30.901  16.739  14.956
 8860W        W81928   3.472  31.084  12.203
 8861W        W81929  44.567  27.093   1.922
 8862W        W81930  25.014  15.140   2.226
 8863W        W81931  11.202  15.312  10.561
 8864W        W81932  17.950  15.555   3.628
 8865W        W81933  31.485  27.551  11.171
 8866W        W81934  15.268  42.066  12.103
 8867W        W81935  30.698  40.935   2.129
 8868W        W81936  30.859  11.660   2.486
 8869W        W81937  31.064  25.415  11.882
 8870W        W81938   9.273  42.329   4.223
 8871W        W81939  29.864  35.190  14.445
 8872W        W81940  43.801  34.366  11.251
 8873W        W81941  43.024   9.269   0.759
 8874W        W81942  32.773  33.102   1.322
 8875W        W81943  18.995  38.235   3.350
 8876W        W81944  16.035   4.902  10.036
 8877W        W81945  33.606  42.188  10.301
 8878W        W81946  22.756  31.998  11.588
 8879W        W81947  43.432   6.935  12.239
 8880W        W81948  33.971  40.542   1.855
 8881W        W81949  16.719  29.571   2.260
 8882W        W81950   2.322  30.600   4.612
 8883W        W81951  17.094  17.445   1.814
 8884W        W81952   8.248   0.955   3.105
 8885W        W81953  40.303   6.876  14.974
 8886W        W81954   0.251  14.881  10.876
 8887W        W81955  43.444  31.640   0.491
 8888W        W81956  22.158   3.915  13.787
 8889W        W81957  43.369  33.173  11.983
 8890W        W81958   5.281  13.228  12.666
 8891W        W81959   6.994  15.008  13.962
 8892W        W81960  44.341  40.146   1.163
 8893W        W81961   0.857   8.077   4.481
 8894W        W81962  18.004  32.427  12.430
 8895W        W81963  26.553   9.718   2.778
 8896W        W81964  28.265  34.220  13.768
 8897W        W81965  15.588  14.707  12.932
 8898W        W81966  34.547  43.051   3.678
 8899W        W81967  37.006  39.593   0.933
 8900W        W81968  15.681  43.097   3.764
 8901W        W81969   7.187  19.727  13.449
 8902W        W81970  43.864  38.045  12.140
 8903W        W81971  30.940  37.846  13.068
 8904W        W81972  36.382  33.047  13.595
 8905W        W81973  16.756  39.578   3.288
 8906W        W81974   7.294  10.884   0.202
 8907W        W81975  20.959  38.958  11.057
 8908W        W81976  36.953  12.817  14.390
 8909W        W81977  35.112  18.692   1.737
 8910W        W81978  38.438  23.181   4.823
 8911W        W81979  35.436  31.362   0.360
 8912W        W81980  22.923  39.325   1.664
 8913W        W81981  38.303  40.146  12.603
 8914W        W81982  34.051  28.105  11.406
 8915W        W81983  42.293   4.849  14.338
 8916W        W81984   5.207  39.754  11.191
 8917W        W81985  33.253  13.170   3.648
 8918W        W81986  27.916  10.414   4.626
 8919W        W81987  27.927  43.952   0.127
 8920W        W81988  12.144  42.002  12.948
 8921W        W81989  30.880  34.865   0.905
 8922W        W81990   4.467   6.436  13.353
 8923W        W81991  22.957   3.632  10.380
 8924W        W81992   7.502  40.047  11.274
 8925W        W81993  42.185  41.249  10.324
 8926W        W81994  26.449   5.586  11.591
 8927W        W81995  23.737   7.139  11.693
 8928W        W81996  21.152   1.426   3.184
 8929W        W81997  15.203   2.125   4.560
 8930W        W81998  38.521  18.388   3.490
 8931W        W81999  31.590   8.372  10.630
 8932W        W82000  27.583  40.299  11.120
 8933W        W82001  42.437   4.344  13.115
 8934W        W82002  22.537   0.528   1.796
 8935W        W82003  39.794  19.805  10.653
 8936W        W82004  24.175  29.673   4.167
 8937W        W82005   0.818  41.045   4.540
 8938W        W82006  17.199   1.385   3.751
 8939W        W82007  13.938   6.616  14.355
 8940W        W82008  32.613  43.365  12.973
 8941W        W82009  10.846   0.903  11.412
 8942W        W82010  14.580  32.518  12.684
 8943W        W82011  43.884  24.771  12.226
 8944W        W82012  12.824   2.091  12.017
 8945W        W82013   6.318  33.925  13.858
 8946W        W82014   8.123  19.325   3.836
 8947W        W82015  19.457  33.439   2.724
 8948W        W82016  12.789   9.103  11.061
 8949W        W82017  31.382  16.051   0.792
 8950W        W82018   9.775  12.202   0.295
 8951W        W82019  35.039   5.531   4.507
 8952W        W82020  39.909  35.054  13.480
 8953W        W82021   9.456  38.846   0.872
 8954W        W82022  10.342   7.743  10.357
 8955W        W82023   4.746  18.659   4.119
 8956W        W82024  31.498  17.086  11.182
 8957W        W82025  42.310   8.475   3.088
 8958W        W82026  30.033   8.034  14.946
 8959W        W82027   6.326   5.696  10.449
 8960W        W82028  39.475  35.183   0.475
 8961W        W82029  14.608  19.867   2.239
 8962W        W82030   6.166  24.218   3.780
 8963W        W82031  25.257  41.302   4.171
 8964W        W82032   3.409  11.353   3.251
 8965W        W82033  22.382  23.070   3.973
 8966W        W82034  39.024  32.474   3.246
 8967W        W82035  25.021  25.402  14.049
 8968W        W82036  24.298   8.813   0.805
 8969W        W82037  23.997  40.348   3.136
 8970W        W82038  35.285   9.658  12.898
 8971W        W82039  34.346  13.860   0.651
 8972W        W82040  34.544  38.487  12.960
 8973W        W82041  12.492   2.708  12.677
 8974W        W82042  23.637   5.722   4.014
 8975W        W82043   9.274  21.081   0.341
 8976W        W82044  25.107  34.507  13.913
 8977W        W82045   0.415  27.036   4.547
 8978W        W82046  31.254  26.171  14.025
 8979W        W82047   2.995  16.255   4.226
 8980W        W82048  30.913  33.396   4.576
 8981W        W82049  31.267  36.372   0.268
 8982W        W82050  12.191  15.741  11.876
 8983W        W82051   7.763  14.085  11.930
 8984W        W82052  17.219  16.624   2.826
 8985W        W82053  10.877  41.806   4.201
 8986W        W82054   7.924  17.128   2.313
 8987W        W82055   6.177  39.979  10.269
 8988W        W82056  31.954  38.348   4.537
 8989W        W82057   5.106  39.275  11.636
 8990W        W82058  37.434  18.072   1.007
 8991W        W82059  23.450   5.218   4.625
 8992W        W82060  43.877   2.759   2.754
 8993W        W82061   4.987  19.262  11.102
 8994W        W82062  36.690  37.091   1.763
 8995W        W82063  28.219  10.060  14.860
 8996W        W82064   0.762  44.796  13.581
 8997W        W82065  38.953  22.994  14.859
 8998W        W82066  10.366  20.198  10.594
 8999W        W82067  26.597   8.640  14.457
 9000W        W82068   3.247   6.988  12.030
 9001W        W82069  14.098   4.446  12.887
 9002W        W82070  15.370  37.080  13.914
 9003W        W82071  12.383   4.833   1.282
 9004W        W82072  28.484   6.720   0.814
 9005W        W82073  20.301  23.300   2.875
 9006W        W82074  20.131  36.642   1.271
 9007W        W82075   8.709  20.718   1.282
 9008W        W82076  26.211  32.411  11.497
 9009W        W82077  29.164   4.387   2.958
 9010W        W82078  12.191  36.221  12.060
 9011W        W82079  29.625  28.122   0.859
 9012W        W82080  34.457  36.517   1.671
 9013W        W82081  35.000  17.940  11.203
 9014W        W82082  14.376  36.510   3.760
 9015W        W82083  27.906  25.095   2.681
 9016W        W82084  39.015  18.119  14.827
 9017W        W82085  26.686  25.189   0.912
 9018W        W82086  21.127  12.424  14.025
 9019W        W82087  34.204  31.718   3.778
 9020W        W82088   3.130  16.159  11.091
 9021W        W82089  40.888  28.461   2.270
 9022W        W82090  23.230  24.208  10.720
 9023W        W82091  23.452  16.973   1.209
 9024W        W82092  30.478  28.980   1.669
 9025W        W82093  41.798  26.185   1.202
 9026W        W82094  34.520   1.823   4.251
 9027W        W82095   0.707   9.214  12.589
 9028W        W82096  41.310  39.431  12.454
 9029W        W82097  16.509  40.987  14.407
 9030W        W82098  10.823  27.421   4.815
 9031W        W82099  16.360   5.174   3.878
 9032W        W82100  25.989   4.305   4.151
 9033W        W82101  25.422  44.854  13.063
 9034W        W82102   8.213  41.403   1.052
 9035W        W82103  28.048  34.612  14.046
 9036W        W82104  24.503  18.965   3.613
 9037W        W82105  10.459  29.152   0.104
 9038W        W82106  21.980   5.642  11.087
 9039W        W82107  38.345   6.212   1.035
 9040W        W82108  43.947  43.982  13.309
 9041W        W82109   3.760  19.588   3.675
 9042W        W82110  36.533  38.233   3.468
 9043W        W82111  39.078  30.289  13.278
 9044W        W82112  18.668  22.766  12.425
 9045W        W82113   7.388  41.641  10.195
 9046W        W82114  33.589   4.219   2.399
 9047W        W82115  42.886  22.585  14.803
 9048W        W82116   9.877  43.536  10.557
 9049W        W82117  14.155  12.928   4.142
 9050W        W82118  39.142  44.913  11.968
 9051W        W82119  15.507   7.188   0.277
 9052W        W82120   1.712  39.454  12.799
 9053W        W82121  30.050  36.868   0.234
 9054W        W82122  40.892  21.029   3.257
 9055W        W82123  44.712  21.662  14.323
 9056W        W82124  37.068  23.042  12.390
 9057W        W82125   2.485  13.298   2.768
 9058W        W82126  31.641   5.907   0.860
 9059W        W82127  27.179  40.008   2.693
 9060W        W82128  25.027  15.702   1.902
 9061W        W82129  23.723  38.597  11.386
 9062W        W82130   4.122  19.745  11.194
 9063W        W82131  19.807  17.553   3.278
 9064W        W82132  37.303  22.954  14.417
 9065W        W82133  22.702  27.983   2.194
 9066W        W82134  13.229  40.091   4.461
 9067W        W82135  43.045  31.448   1.288
 9068W        W82136  36.447   4.022  12.126
 9069W        W82137  34.110  35.283  12.769
 9070W        W82138  30.450   8.663   0.968
 9071W        W82139  39.782  21.936   4.047
 9072W        W82140  37.446  13.594   2.389
 9073W        W82141  41.455  15.681  13.962
 9074W        W82142  41.339  14.757  10.678
 9075W        W82143  37.912  37.139  11.993
 9076W        W82144  12.362  36.355   0.101
 9077W        W82145   9.649   3.490   3.123
 9078W        W82146   2.915  31.208   0.944
 9079W        W82147   5.138   1.801  10.451
 9080W        W82148  29.138  31.487   4.252
 9081W        W82149   4.346  35.613  11.733
 9082W        W82150  25.536  11.414  13.849
 9083W        W82151  20.497   8.200   0.781
 9084W        W82152  28.124  28.197   3.060
 9085W        W82153  31.393  23.467   3.805
 9086W        W82154  36.695  44.929  12.421
 9087W        W82155  16.423  35.917   4.048
 9088W        W82156  36.061  41.098   3.254
 9089W        W82157  35.712  14.708  12.969
 9090W        W82158   7.092  25.156  12.894
 9091W        W82159  29.900  33.668   3.392
 9092W        W82160  29.974  44.885  12.642
 9093W        W82161  42.377  42.944   1.013
 9094W        W82162  13.863   8.357   2.314
 9095W        W82163  30.051  36.189  14.416
 9096W        W82164  16.138   9.420   1.791
 9097W        W82165  26.166  27.444   3.137
 9098W        W82166   5.299  29.733  12.105
 9099W        W82167  26.430  23.981  13.837
 9100W        W82168   8.188  20.001   1.025
 9101W        W82169  30.029  43.426   3.253
 9102W        W82170  41.039  19.688   2.792
 9103W        W82171  29.225  20.641  12.915
 9104W        W82172  12.334  20.267   4.115
 9105W        W82173   3.206  28.614   4.810
 9106W        W82174  20.687   2.627  12.887
 9107W        W82175  16.070   3.945  11.000
 9108W        W82176  26.088  29.928  12.556
 9109W        W82177  10.759  24.231  12.833
 9110W        W82178  41.865   4.546  11.898
 9111W        W82179   2.181  23.939   0.241
 9112W        W82180  21.683  34.002   0.754
 9113W        W82181  22.356   0.052   1.850
 9114W        W82182  24.739  42.343  11.843
 9115W        W82183   2.476  28.897   3.728
 9116W        W82184  42.401  43.922   4.460
 9117W        W82185  34.127   6.737   4.275
 9118W        W82186   7.275   1.393  10.785
 9119W        W82187  25.564  21.325  11.592
 9120W        W82188  41.807  10.841   1.228
 9121W        W82189  21.525  33.831   1.729
 9122W        W82190  44.470  20.917  13.021
 9123W        W82191  38.815  26.508   3.783
 9124W        W82192  31.089  28.172  14.815
 9125W        W82193  33.392  44.063  13.868
 9126W        W82194  30.626   7.060  12.593
 9127W        W82195  39.107   5.387  10.650
 9128W        W82196  26.772  23.765   1.998
 9129W        W82197  13.687  40.627   1.934
 9130W        W82198  22.620  25.226  13.788
 9131W        W82199  18.600  44.478   4.464
 9132W        W82200   2.349  27.384   3.628
 9133W        W82201  29.662  18.317  10.438
 9134W        W82202  11.138  44.837  12.027
 9135W        W82203  22.709  26.432   1.742
 9136W        W82204  20.713  43.324   2.198
 9137W        W82205  10.512  24.511   1.439
 9138W        W82206  29.070  38.894   1.208
 9139W        W82207  24.966  15.772   0.125
 9140W        W82208  12.880  34.961  14.266
 9141W        W82209  41.703  29.823  12.918
 9142W        W82210  13.775  40.510   4.157
 9143W        W82211  33.046  43.324  14.256
 9144W        W82212  40.503  34.383   0.824
 9145W        W82213  36.561  37.081   0.783
 9146W        W82214  43.111   1.421  13.484
 9147W        W82215  30.160  15.085   0.375
 9148W        W82216  13.403  28.484   0.702
 9149W        W82217   5.634  24.414   0.822
 9150W        W82218  41.933  43.374  12.582
 9151W        W82219   9.743   5.792  13.301
 9152W        W82220  24.182   2.724   0.687
 9153W        W82221  26.712  29.118   2.266
 9154W        W82222   5.772   0.083  12.486
 9155W        W82223  12.620  15.160   2.863
 9156W        W82224  33.366  34.193  11.393
 9157W        W82225   2.700   4.408   4.248
 9158W        W82226   3.397   7.489   3.258
 9159W        W82227  14.245  29.756  14.952
 9160W        W82228  26.397   3.357  11.609
 9161W        W82229  40.012  29.654   2.261
 9162W        W82230   5.230  14.977   4.174
 9163W        W82231  10.338  43.417  11.644
 9164W        W82232  15.451  33.708  13.475
 9165W        W82233  35.889  29.653   4.006
 9166W        W82234  18.923  21.228  11.066
 9167W        W82235   5.829  37.206  10.380
 9168W        W82236  18.131  13.377  13.483
 9169W        W82237  37.276  25.371   0.927
 9170W        W82238   6.900   6.743  13.979
 9171W        W82239  21.480  38.470  14.547
 9172W        W82240  42.475  12.659   3.696
 9173W        W82241  14.091  11.329  12.587
 9174W        W82242   8.234  29.002  12.494
 9175W        W82243  18.812  18.857   4.239
 9176W        W82244  40.025   6.174  12.101
 9177W        W82245  37.559  43.797   2.230
 9178W        W82246   6.492  40.277   4.661
 9179W        W82247  16.719  10.113  13.099
 9180W        W82248  33.767  31.225   2.216
 9181W        W82249  20.131   3.764  12.148
 9182W        W82250  20.546  41.849  14.380
 9183W        W82251   5.898  27.467   3.397
 9184W        W82252  18.460  31.514  11.297
 9185W        W82253  12.305   6.303   1.219
 9186W        W82254  27.946  40.992   2.859
 9187W        W82255   5.672  28.400   1.893
 9188W        W82256  27.970  13.707  12.448
 9189W        W82257  20.133  41.110   0.332
 9190W        W82258  36.064  30.597  14.194
 9191W        W82259  31.511  22.314  13.822
 9192W        W82260  30.929  42.531   3.852
 9193W        W82261   7.013  28.535  13.994
 9194W        W82262  14.963  17.566   0.085
 9195W        W82263   4.921  14.655  12.893
 9196W        W82264  42.392   0.764  13.504
 9197W        W82265  33.508   8.493  11.465
 9198W        W82266  21.360  17.835   3.204
 9199W        W82267  28.389  20.199  14.951
 9200W        W82268  23.755   2.167  12.504
 9201W        W82269  28.373  29.007  10.750
 9202W        W82270   2.790  12.085  14.139
 9203W        W82271  16.185   5.358   2.913
 9204W        W82272  37.471  15.176  12.849
 9205W        W82273  32.101  20.283   2.687
 9206W        W82274   0.834   3.852   3.339
 9207W        W82275   2.232  18.273   3.463
 9208W        W82276  31.049  26.917  14.483
 9209W        W82277  26.729   0.263  12.065
 9210W        W82278  33.550  20.659  12.319
 9211W        W82279  18.819  42.528   1.708
 9212W        W82280  44.361  35.598   4.195
 9213W        W82281  31.515  41.476   0.815
 9214W        W82282  13.801  33.242  14.547
 9215W        W82283  30.434  11.610  11.554
 9216W        W82284   6.065  35.086   1.517
 9217W        W82285  41.422  14.705   3.086
 9218W        W82286  20.255  39.839  10.689
 9219W        W82287  15.020  21.616   0.989
 9220W        W82288  20.257   5.024  11.114
 9221W        W82289  12.633   4.251   2.794
 9222W        W82290  42.939  34.964   4.574
 9223W        W82291  44.498  16.438  13.987
 9224W        W82292   0.806  41.878  10.710
 9225W        W82293   7.187   3.386  12.319
 9226W        W82294   4.770  44.096   4.638
 9227W        W82295   6.225  10.131  13.298
 9228W        W82296  33.844   9.372  13.943
 9229W        W82297   2.492   4.388   3.708
 9230W        W82298  38.582  12.819   3.368
 9231W        W82299   0.645   9.286   2.303
 9232W        W82300  29.787   7.412   0.702
 9233W        W82301  37.649  26.713  11.479
 9234W        W82302   6.991   2.833   4.064
 9235W        W82303  17.042   0.222  11.491
 9236W        W82304  13.020  32.072   4.263
 9237W        W82305   0.001  30.560  14.321
 9238W        W82306   9.973  43.598   4.161
 9239W        W82307  26.472  40.508  14.833
 9240W        W82308  33.391  28.544  11.954
 9241W        W82309  19.079   4.104  12.671
 9242W        W82310  37.730  37.606  11.921
 9243W        W82311  26.806  12.732  10.947
 9244W        W82312  44.027  28.839   0.097
 9245W        W82313  13.703   2.939   3.683
 9246W        W82314  41.818  10.764  12.617
 9247W        W82315  27.102   8.933  13.008
 9248W        W82316  20.109  18.793  11.205
 9249W        W82317   0.619  13.928   0.347
 9250W        W82318   1.490  41.347   2.221
 9251W        W82319   6.979   2.588  13.167
 9252W        W82320  13.055  26.075   1.298
 9253W        W82321  29.171  43.340  13.843
 9254W        W82322  32.007   0.439   4.479
 9255W        W82323  13.568  38.003   2.123
 9256W        W82324  28.438   4.052  11.116
 9257W        W82325  20.192  18.581  12.622
 9258W        W82326  28.908  35.643  12.585
 9259W        W82327  14.348  41.148  12.545
 9260W        W82328  18.361  29.152  12.395
 9261W        W82329   8.545  26.786  12.903
 9262W        W82330   6.885  31.385  13.507
 9263W        W82331  28.897  12.851   1.733
 9264W        W82332  13.882  17.868  13.050
 9265W        W82333  10.802  28.237   3.249
 9266W        W82334  36.515   6.801  14.981
 9267W        W82335  39.059  13.194  13.171
 9268W        W82336  22.211  36.802  12.515
 9269W        W82337  17.124   1.382  13.110
 9270W        W82338   9.894  15.093  12.483
 9271W        W82339  22.579  10.718   2.412
 9272W        W82340  26.956  39.555  12.993
 9273W        W82341  43.851  34.029  12.819
 9274W        W82342  11.037   7.927  12.155
 9275W        W82343  27.884   0.020   2.720
 9276W        W82344  43.951   2.027   0.006
 9277W        W82345  37.333  30.611   1.996
 9278W        W82346   2.820  25.217  11.345
 9279W        W82347  19.727  43.927   4.783
 9280W        W82348   2.845   9.829   4.195
 9281W        W82349  40.350  26.656   1.364
 9282W        W82350  16.533  24.923   2.335
 9283W        W82351  15.223  21.735  14.522
 9284W        W82352  23.746  35.131   2.355
 9285W        W82353  21.731   7.260  14.694
 9286W        W82354  33.347  17.556   2.151
 9287W        W82355  17.956  11.363  13.814
 9288W        W82356  26.585   2.686  10.915
 9289W        W82357  28.395  26.665   0.963
 9290W        W82358   0.007  41.882  14.213
 9291W        W82359  21.054  11.354   0.539
 9292W        W82360  32.050  23.327  14.211
 9293W        W82361  14.418  16.371  11.238
 9294W        W82362   5.251  16.322   4.551
 9295W        W82363  14.740  27.219   2.660
 9296W        W82364  44.780  28.818   4.114
 9297W        W82365  12.879  41.548   3.095
 9298W        W82366   5.888  16.295   4.086
 9299W        W82367  29.896  19.454  11.023
 9300W        W82368   7.798  15.883  11.329
 9301W        W82369  38.017  13.629  12.117
 9302W        W82370  17.433  22.539  14.520
 9303W        W82371  42.437  30.279   2.084
 9304W        W82372  36.935   9.155  14.870
 9305W        W82373  19.267   1.029   1.319
 9306W        W82374   8.587  26.934   4.104
 9307W        W82375   5.830  16.321   0.478
 9308W        W82376   3.752  37.852   2.282
 9309W        W82377  10.379  42.476  14.345
 9310W        W82378   3.984  42.719  13.748
 9311W        W82379  36.867  13.308  11.160
 9312W        W82380  40.779  44.025   0.591
 9313W        W82381   5.361  42.801  13.689
 9314W        W82382  44.444   2.799   1.182
 9315W        W82383  20.221   1.257  11.731
 9316W        W82384  39.645  36.044  14.058
 9317W        W82385  27.364  32.983  12.759
 9318W        W82386   7.636  42.054   0.748
 9319W        W82387  41.953  42.992  14.721
 9320W        W82388  13.816  44.765   3.273
 9321W        W82389   3.750  42.034   4.918
 9322W        W82390   3.408   6.772   0.734
 9323W        W82391  12.145   4.758   4.628
 9324W        W82392   5.177  16.351  11.917
 9325W        W82393  28.454  27.909  11.952
 9326W        W82394  18.242   0.551  12.019
 9327W        W82395   0.413  19.843   4.580
 9328W        W82396  41.087  37.789  10.769
 9329W        W82397  10.282  11.128  12.538
 9330W        W82398   8.751   0.783   1.895
 9331W        W82399   5.891  17.092   3.423
 9332W        W82400  35.492   3.944   0.121
 9333W        W82401  33.849   6.356  12.485
 9334W        W82402  22.211   0.967  11.085
 9335W        W82403   2.423  32.916   0.484
 9336W        W82404  38.143  24.705   2.071
 9337W        W82405  15.165  37.557   1.974
 9338W        W82406  44.297  15.703  10.411
 9339W        W82407  38.616  23.572  10.633
 9340W        W82408   0.879  37.449  12.056
 9341W        W82409  12.527  37.192  14.841
 9342W        W82410  13.583  41.906   4.682
 9343W        W82411   9.493   1.968   4.541
 9344W        W82412   2.459   7.103  13.810
 9345W        W82413  27.861  22.166   1.404
 9346W        W82414  33.133  34.085   2.840
 9347W        W82415  17.299   0.686  13.778
 9348W        W82416  36.380   7.068   1.888
 9349W        W82417  28.367  10.660  11.524
 9350W        W82418  18.637   5.020  14.289
 9351W        W82419  23.489  18.504   2.797
 9352W        W82420  19.602   1.168  13.982
 9353W        W82421   2.715   2.905   1.354
 9354W        W82422  44.194  33.531  12.175
 9355W        W82423  40.874   4.800  11.677
 9356W        W82424   7.656  36.102  13.430
 9357W        W82425  39.747  33.521  11.520
 9358W        W82426   3.875   6.750  14.433
 9359W        W82427   7.080   0.742   4.528
 9360W        W82428  13.014  25.898   2.214
 9361W        W82429   5.100  28.610  14.281
 9362W        W82430  14.820  13.622   1.007
 9363W        W82431   3.151   7.188   4.747
 9364W        W82432   4.402   6.992  11.155
 9365W        W82433  30.500  39.018   4.451
 9366W        W82434  11.776  36.922  13.119
 9367W        W82435   4.230  15.549   0.534
 9368W        W82436  36.004  12.065   3.219
 9369W        W82437  35.177  30.639   3.266
 9370W        W82438  17.741  20.093  14.338
 9371W        W82439  26.531  21.736  10.717
 9372W        W82440  16.550  32.971   0.041
 9373W        W82441  21.745   9.121   2.163
 9374W        W82442  21.014  32.699  14.822
 9375W        W82443  23.604   6.393  14.440
 9376W        W82444   2.190  39.385  11.953
 9377W        W82445  27.927  40.444  13.594
 9378W        W82446  29.571  10.735  11.160
 9379W        W82447  43.795  17.543  12.043
 9380W        W82448   3.726   3.216  12.441
 9381W        W82449  21.623  14.648  12.901
 9382W        W82450  16.327  26.668  14.998
 9383W        W82451   0.897  19.059  14.378
 9384W        W82452  37.321  20.284   3.257
 9385W        W82453  35.362  28.350   4.624
 9386W        W82454  40.749  23.955   0.884
 9387W        W82455   4.396  37.760   4.206
 9388W        W82456   0.238  17.728  11.294
 9389W        W82457  19.968  40.994  13.504
 9390W        W82458  37.264  40.362   0.010
 9391W        W82459  29.087   8.326   1.972
 9392W        W82460   6.825  31.483   4.578
 9393W        W82461  32.034   1.086   0.502
 9394W        W82462  26.531  25.942   4.653
 9395W        W82463  19.035  20.681   0.840
 9396W        W82464  14.109  16.697   0.225
 9397W        W82465  40.040  17.564  14.792
 9398W        W82466  15.784  32.194  13.339
 9399W        W82467  28.452   8.558   1.469
 9400W        W82468  36.958   6.352  13.267
 9401W        W82469  13.622  39.772   0.861
 9402W        W82470  15.570  26.697  13.512
 9403W        W82471  20.836  40.908   3.803
 9404W        W82472  40.631  13.537   5.028
 9405W        W82473  33.134  40.418   0.466
 9406W        W82474  17.135  39.014   2.709
 9407W        W82475  40.748  36.091   3.045
 9408W        W82476  15.063  13.196  14.702
 9409W        W82477  11.479  18.015   2.200
 9410W        W82478  33.731  33.640  14.438
 9411W        W82479  10.948  30.926  13.391
 9412W        W82480  13.866  19.111   2.336
 9413W        W82481  22.888  26.459   3.290
 9414W        W82482   9.847  39.429   4.571
 9415W        W82483  30.162   8.687  10.661
 9416W        W82484   0.254  34.122   3.125
 9417W        W82485   4.921  11.560   1.382
 9418W        W82486  31.148   1.362   4.688
 9419W        W82487  26.971  22.113   3.740
 9420W        W82488  17.785  22.589   1.014
 9421W        W82489  26.423   6.255  11.208
 9422W        W82490  38.348  28.310   0.754
 9423W        W82491  24.794   6.474   3.330
 9424W        W82492  29.628  27.545   1.655
 9425W        W82493  21.659  41.947   2.045
 9426W        W82494  38.872  20.592   0.310
 9427W        W82495  29.923  27.611  13.334
 9428W        W82496  19.748  18.756   0.401
 9429W        W82497  25.237  33.478  14.621
 9430W        W82498   7.793  35.544   3.653
 9431W        W82499  26.441  30.905   4.964
 9432W        W82500  40.303  26.442   1.848
 9433W        W82501  40.395  40.343   3.251
 9434W        W82502  36.988  10.424  10.365
 9435W        W82503  44.507   4.310   3.306
 9436W        W82504  32.400   1.629  10.764
 9437W        W82505  19.529   3.509  11.974
 9438W        W82506   4.422  18.144   3.630
 9439W        W82507  12.710  21.204   0.344
 9440W        W82508   7.650  11.279   3.300
 9441W        W82509  34.517  28.442   4.046
 9442W        W82510   3.897   3.097   4.608
 9443W        W82511   3.043  44.723  10.377
 9444W        W82512   0.459   2.003   2.729
 9445W        W82513  40.225  24.828  12.163
 9446W        W82514  38.830   7.799   1.365
 9447W        W82515  36.451  38.153   1.647
 9448W        W82516  31.098  33.535   1.507
 9449W        W82517  37.515  41.899  12.560
 9450W        W82518  31.080  31.969  11.585
 9451W        W82519  12.595  10.209  13.334
 9452W        W82520  23.785  36.458   3.309
 9453W        W82521   7.669  39.612   0.887
 9454W        W82522  15.582  40.027   2.830
 9455W        W82523  23.407  32.059   0.894
 9456W        W82524  17.154   4.645   0.828
 9457W        W82525  21.687  20.708  11.473
 9458W        W82526   7.670  18.630  13.343
 9459W        W82527  39.828   0.885   0.656
 9460W        W82528   6.648  10.869  11.539
 9461W        W82529  17.708  11.634  13.429
 9462W        W82530  15.081  21.163  11.549
 9463W        W82531  23.727  38.950   1.424
 9464W        W82532  10.731  14.300   1.800
 9465W        W82533  27.893  12.405  14.823
 9466W        W82534  24.585  10.858   1.929
 9467W        W82535  39.398   2.996  14.022
 9468W        W82536  11.788  16.884  10.669
 9469W        W82537  37.508  22.617   2.755
 9470W        W82538   6.657  35.233  12.418
 9471W        W82539  16.620  18.002  12.470
 9472W        W82540  25.137   5.704  10.565
 9473W        W82541  23.725  13.310   1.296
 9474W        W82542  11.858  26.685  10.707
 9475W        W82543   6.801  30.918  14.360
 9476W        W82544  38.634  16.457  12.414
 9477W        W82545   0.151  40.730   2.756
 9478W        W82546   2.923  39.947  13.844
 9479W        W82547   9.763  26.997  11.876
 9480W        W82548   8.509   6.834   0.518
 9481W        W82549  39.841  39.406   3.686
 9482W        W82550   9.218  28.824   4.222
 9483W        W82551  12.649  34.233  13.452
 9484W        W82552  14.066  14.502  13.778
 9485W        W82553   2.262  43.399  10.813
 9486W        W82554  39.565   5.669   1.349
 9487W        W82555  40.337   7.664  11.554
 9488W        W82556  21.501  37.926   3.594
 9489W        W82557  33.636   1.125  10.605
 9490W        W82558  32.879   2.497   0.397
 9491W        W82559   8.934  13.315  12.494
 9492W        W82560  33.040  23.997  12.206
 9493W        W82561  14.589  30.547  11.158
 9494W        W82562  19.007  23.044  12.107
 9495W        W82563  27.159  28.166  14.231
 9496W        W82564  43.195  33.553  14.091
 9497W        W82565  38.983  23.686   2.736
 9498W        W82566   5.970   7.669   3.764
 9499W        W82567  17.146  38.166  12.467
 9500W        W82568   5.667  24.053   0.427
 9501W        W82569  39.774   9.713   1.275
 9502W        W82570  36.487  37.749   4.297
 9503W        W82571  39.917  30.480   4.146
 9504W        W82572  15.533  23.714  10.841
 9505W        W82573  26.166  41.039  14.741
 9506W        W82574  40.532   7.654   0.988
 9507W        W82575  35.577   8.756  11.149
 9508W        W82576  42.499  31.112  12.078
 9509W        W82577  13.532  24.975  12.943
 9510W        W82578   9.203   0.731   4.326
 9511W        W82579  15.290  37.493  13.564
 9512W        W82580  14.251  34.010   1.395
 9513W        W82581  21.488  35.773   1.800
 9514W        W82582   7.263  10.297  13.349
 9515W        W82583   2.118  22.691   0.898
 9516W        W82584  41.750  32.519  13.922
 9517W        W82585  33.646   9.254  12.559
 9518W        W82586  11.347   9.308   2.352
 9519W        W82587  31.567  42.802   1.214
 9520W        W82588  44.536   4.970   2.831
 9521W        W82589   1.165  13.152  14.429
 9522W        W82590  36.609  37.922   1.212
 9523W        W82591  16.536  39.571  14.867
 9524W        W82592  10.745  44.529   2.387
 9525W        W82593  35.017   5.926   1.799
 9526W        W82594  17.671  37.530  14.935
 9527W        W82595   5.451  18.353   4.836
 9528W        W82596  30.447  19.783  11.735
 9529W        W82597  12.258  44.188  14.878
 9530W        W82598   8.142   6.413  13.516
 9531W        W82599  17.857  40.326  12.461
 9532W        W82600  33.607  41.963   0.915
 9533W        W82601   5.232  40.986  13.176
 9534W        W82602  14.278  16.516   1.208
 9535W        W82603  32.251   5.743  12.042
 9536W        W82604  29.420  20.818   0.758
 9537W        W82605  44.466  44.320   1.730
 9538W        W82606  36.843  18.309  14.530
 9539W        W82607  22.916  21.197  14.823
 9540W        W82608  11.539  10.535   4.810
 9541W        W82609   4.081   1.562  11.699
 9542W        W82610  22.161  37.695  13.704
 9543W        W82611  39.984  30.468  11.640
 9544W        W82612   8.675  13.611   0.540
 9545W        W82613  43.309  44.156   0.535
 9546W        W82614  20.521  33.206  14.387
 9547W        W82615  19.217   3.617  12.804
 9548W        W82616  37.124  18.145   4.597
 9549W        W82617   9.416  18.597   1.712
 9550W        W82618  24.235  25.403   2.109
 9551W        W82619   7.393  26.396  13.486
 9552W        W82620  31.875  21.735   4.558
 9553W        W82621  25.283   7.492  13.549
 9554W        W82622  40.845  35.341  14.389
 9555W        W82623  16.048  17.135   1.059
 9556W        W82624  18.242   6.492  14.981
 9557W        W82625  10.689  42.677  10.798
 9558W        W82626  37.711  23.882   0.919
 9559W        W82627  35.512  34.296  12.948
 9560W        W82628  42.725   2.137   3.531
 9561W        W82629  25.480  29.408   2.842
 9562W        W82630  30.503  14.060   3.075
 9563W        W82631  12.357  19.054   5.341
 9564W        W82632  30.094  30.430  10.984
 9565W        W82633   7.220  40.835  11.705
 9566W        W82634  26.068  37.806  11.733
 9567W        W82635  36.295  26.998   3.607
 9568W        W82636   8.958  24.970  11.006
 9569W        W82637   6.068   7.337  11.414
 9570W        W82638   5.571  11.383  12.510
 9571W        W82639  43.038   2.383  13.385
 9572W        W82640   9.889   2.415  12.936
 9573W        W82641   9.305   8.126   1.774
 9574W        W82642  23.016  34.171  12.024
 9575W        W82643   5.121   0.135   1.366
 9576W        W82644  16.179  28.373   0.397
 9577W        W82645  33.469  15.039   1.459
 9578W        W82646  23.046  30.637   0.473
 9579W        W82647  19.020  33.997   2.899
 9580W        W82648  34.777  25.968   3.855
 9581W        W82649  37.718  30.906  13.992
 9582W        W82650  42.317   2.004  13.017
 9583W        W82651   6.609  26.968  11.508
 9584W        W82652  26.728  30.706  13.006
 9585W        W82653  32.163  36.912   2.890
 9586W        W82654  36.384  10.331  13.617
 9587W        W82655  20.057  32.149  13.405
 9588W        W82656   4.414  28.943   4.549
 9589W        W82657  21.230  28.483  11.145
 9590W        W82658  40.219  27.957  12.547
 9591W        W82659  33.168  37.508   0.997
 9592W        W82660  20.175  31.952   2.465
 9593W        W82661  38.575  43.750  13.118
 9594W        W82662  44.888  20.876   2.281
 9595W        W82663  18.610  26.139  13.574
 9596W        W82664  26.643  42.734  13.112
 9597W        W82665  42.024  36.421  11.715
 9598W        W82666   1.424   5.963   0.488
 9599W        W82667   0.497   2.970   1.777
 9600W        W82668  18.436   9.219   3.703
 9601W        W82669  11.135  36.470  12.997
 9602W        W82670  38.879   4.107  14.394
 9603W        W82671  10.500  36.294  11.255
 9604W        W82672  18.130  15.391   2.311
 9605W        W82673  39.994  27.192   4.006
 9606W        W82674   7.028  41.027  10.653
 9607W        W82675  10.616   2.288   0.991
 9608W        W82676  10.650  30.184   4.467
 9609W        W82677  40.692  28.103  11.068
 9610W        W82678  27.465  30.910  11.123
 9611W        W82679  37.129   5.861   1.110
 9612W        W82680  24.055  39.892   0.664
 9613W        W82681  39.071  27.163   9.622
 9614W        W82682  41.497  11.926   0.111
 9615W        W82683  29.417   3.998  14.730
 9616W        W82684  36.433  42.825   9.824
 9617W        W82685  17.741   8.376  14.365
 9618W        W82686  24.825  21.812   3.124
 9619W        W82687   4.794  20.959   2.695
 9620W        W82688  32.650  21.053  10.464
 9621W        W82689  14.851  28.931   1.278
 9622W        W82690  32.517   2.120   0.996
 9623W        W82691  29.244  23.804   0.817
 9624W        W82692  31.902   3.477  12.077
 9625W        W82693  28.214  37.055   0.306
 9626W        W82694   6.328   3.974  11.684
 9627W        W82695   5.817   0.898   1.557
 9628W        W82696   5.227  20.529  13.914
 9629W        W82697   4.954   2.132   2.246
 9630W        W82698   4.717  40.836  14.352
 9631W        W82699  13.856  32.308  12.947
 9632W        W82700   6.146  11.205  12.111
 9633W        W82701  38.542  38.452   0.521
 9634W        W82702  41.798  11.542  13.541
 9635W        W82703  31.457  30.938  14.103
 9636W        W82704   2.287  23.491  13.582
 9637W        W82705   8.312  39.519   0.229
 9638W        W82706  15.663  20.667  13.999
 9639W        W82707  21.149  41.351   0.023
 9640W        W82708   9.258  15.818   4.069
 9641W        W82709  42.867   0.763  12.435
 9642W        W82710   1.521  41.535   0.291
 9643W        W82711  31.537  32.660   2.144
 9644W        W82712  20.563   5.669  11.397
 9645W        W82713  16.238  24.470  13.089
 9646W        W82714  12.997  18.581  13.960
 9647W        W82715   4.593  33.942   3.818
 9648W        W82716  23.225  23.667  13.804
 9649W        W82717  43.958  16.299  10.635
 9650W        W82718  36.154  44.761  14.011
 9651W        W82719   3.801  23.601   3.898
 9652W        W82720  20.803  43.378  10.323
 9653W        W82721   9.319  17.054  13.446
 9654W        W82722  14.762  33.676  11.236
 9655W        W82723  19.507   2.432  14.414
 9656W        W82724  16.325  29.551  12.352
 9657W        W82725  37.741  13.591  13.573
 9658W        W82726  10.921  23.714   4.665
 9659W        W82727  36.071  26.072   2.217
 9660W        W82728  11.052  10.693   2.546
 9661W        W82729  31.880   5.233  11.091
 9662W        W82730   3.791  28.633   3.609
 9663W        W82731   9.394  12.356   0.959
 9664W        W82732  15.158  42.379   4.345
 9665W        W82733  11.626   7.281   4.569
 9666W        W82734  44.105   1.268   2.781
 9667W        W82735  40.540  12.656   4.528
 9668W        W82736   6.951   5.117  13.941
 9669W        W82737   2.996  28.354   3.306
 9670W        W82738  41.317   9.411  13.879
 9671W        W82739  18.575  18.186  10.646
 9672W        W82740  16.024  20.599  14.475
 9673W        W82741  29.437  22.995  13.426
 9674W        W82742  44.679  33.528  13.052
 9675W        W82743  31.128  12.713  12.907
 9676W        W82744   2.654  21.555   2.944
 9677W        W82745  17.995   5.711  11.616
 9678W        W82746  44.773  39.245   3.560
 9679W        W82747  30.973   3.512  12.597
 9680W        W82748  30.126  19.203  10.648
 9681W        W82749  36.590   3.786  12.650
 9682W        W82750   2.874   3.227  14.770
 9683W        W82751  25.554  27.403   3.231
 9684W        W82752  11.273  16.794  14.963
 9685W        W82753  10.944   3.938  14.358
 9686W        W82754  33.228  13.186   4.796
 9687W        W82755  11.312   0.003   2.592
 9688W        W82756  28.325  10.030  10.537
 9689W        W82757  12.251  39.100   2.776
 9690W        W82758   5.787  16.178   2.661
 9691W        W82759  41.082  10.607  13.101
 9692W        W82760  35.374  20.958  12.428
 9693W        W82761   0.483  37.406  13.962
 9694W        W82762  37.950  22.412  14.048
 9695W        W82763   2.416  16.215  13.823
 9696W        W82764   1.398   8.145   2.366
 9697W        W82765  35.924   5.942  11.157
 9698W        W82766  34.551   2.933  11.521
 9699W        W82767   6.365   9.013   4.040
 9700W        W82768  20.225  20.205  10.668
 9701W        W82769  19.798  32.931   1.818
 9702W        W82770   0.577  27.327  14.061
 9703W        W82771  23.048  41.583   1.938
 9704W        W82772  33.340   0.292  10.566
 9705W        W82773  32.236  42.449   4.222
 9706W        W82774   0.393  29.962  10.605
 9707W        W82775  36.332  42.793  12.462
 9708W        W82776  20.629  32.402  11.295
 9709W        W82777  41.468  12.151  13.855
 9710W        W82778  39.159  40.705   1.458
 9711W        W82779  26.582   6.119   4.309
 9712W        W82780   5.906   3.811   4.747
 9713W        W82781   8.385  18.128   0.750
 9714W        W82782  32.098  36.834  13.392
 9715W        W82783  35.408   8.563  14.280
 9716W        W82784  30.308  41.911  11.100
 9717W        W82785   4.205   8.093   2.090
 9718W        W82786  38.265  38.430  11.013
 9719W        W82787  25.427  12.373  13.886
 9720W        W82788  32.945  40.509  13.493
 9721W        W82789  28.722  25.684   3.664
 9722W        W82790   6.416  44.961  12.894
 9723W        W82791  16.912  17.757  14.170
 9724W        W82792  16.656   1.224   3.558
 9725W        W82793  36.366  40.096   1.735
 9726W        W82794  21.449  34.687   2.225
 9727W        W82795  43.367  38.244  10.798
 9728W        W82796  35.813   7.359  14.580
 9729W        W82797  30.035  41.611   4.651
 9730W        W82798   1.977  11.250  11.654
 9731W        W82799  40.337   0.998   5.058
 9732W        W82800  36.293   4.804  11.608
 9733W        W82801  35.550  18.341  13.918
 9734W        W82802  30.228  36.597   4.614
 9735W        W82803  18.585  44.821  12.947
 9736W        W82804  35.360  30.846   0.419
 9737W        W82805  32.841  20.707   4.664
 9738W        W82806  33.284   0.058   3.322
 9739W        W82807  32.872  27.255   4.068
 9740W        W82808  40.439  19.702   9.967
 9741W        W82809  32.185  16.845  10.298
 9742W        W82810  35.469   9.570   4.288
 9743W        W82811   7.303  24.935  11.128
 9744W        W82812  17.488   4.378  13.390
 9745W        W82813  15.495  17.949   2.367
 9746W        W82814  41.476  11.156  14.030
 9747W        W82815   8.226  13.090  12.987
 9748W        W82816   7.412  21.230  12.490
 9749W        W82817  42.256  16.452  12.569
 9750W        W82818  22.825   2.731   1.151
 9751W        W82819   0.357  18.099   3.888
 9752W        W82820  44.665   3.893   3.749
 9753W        W82821  30.602  28.973  11.684
 9754W        W82822  21.579  25.606  13.231
 9755W        W82823  18.379  28.980   0.426
 9756W        W82824  32.921  15.640   1.969
 9757W        W82825   5.264  12.267  13.250
 9758W        W82826  34.073  41.281   1.335
 9759W        W82827  35.497  13.805   4.727
 9760W        W82828   1.282   0.205  11.124
 9761W        W82829   5.910   8.260  14.920
 9762W        W82830   8.250  10.151  10.383
 9763W        W82831  43.698  42.942  11.352
 9764W        W82832   8.716  15.120  11.571
 9765W        W82833  12.098  31.584  11.549
 9766W        W82834  37.586  42.987  10.226
 9767W        W82835   6.720  44.084  13.914
 9768W        W82836  32.526   5.824   0.699
 9769W        W82837  18.511  24.745   2.344
 9770W        W82838  44.520   5.931  13.627
 9771W        W82839  32.963  39.291  11.654
 9772W        W82840  26.461   6.734  13.869
 9773W        W82841  37.004  12.399  11.128
 9774W        W82842   6.397   3.769  10.378
 9775W        W82843  38.376  14.307   3.129
 9776W        W82844  14.217  35.901   2.784
 9777W        W82845  33.058  18.520  13.089
 9778W        W82846   6.922  37.393   0.629
 9779W        W82847   9.382   3.960   2.227
 9780W        W82848  37.432   9.094   5.206
 9781W        W82849   8.050   4.740   3.221
 9782W        W82850  21.521  31.971   1.645
 9783W        W82851  43.035   9.128   5.070
 9784W        W82852  29.263   5.911   1.204
 9785W        W82853  25.856  18.786  14.876
 9786W        W82854  39.591   3.386   3.249
 9787W        W82855  43.753  36.986  11.599
 9788W        W82856  26.877  36.416  12.997
 9789W        W82857  39.473  29.577   2.173
 9790W        W82858  37.016  26.435   2.330
 9791W        W82859  38.030  39.794  12.868
 9792W        W82860  31.873  36.521  11.957
 9793W        W82861  28.181  13.866   2.822
 9794W        W82862   6.247   7.868  12.677
 9795W        W82863  27.737  42.242  13.309
 9796W        W82864  21.808  44.725   3.180
 9797W        W82865  40.841  37.236  11.763
 9798W        W82866  29.218   9.210  13.099
 9799W        W82867  16.557  44.004  12.823
 9800W        W82868   0.635  15.206  14.002
 9801W        W82869  42.065   1.843  14.889
 9802W        W82870  17.859  26.696  10.790
 9803W        W82871  10.117  40.935   3.469
 9804W        W82872  22.167  38.449  13.038
 9805W        W82873  18.654  21.968   2.639
 9806W        W82874  13.423   0.079   0.492
 9807W        W82875  20.780  41.530   3.180
 9808W        W82876   8.960  15.566  11.890
 9809W        W82877  24.408  14.148   0.276
 9810W        W82878   0.051  33.593  14.764
 9811W        W82879  32.664  15.640   2.430
 9812W        W82880  34.301  42.143  12.203
 9813W        W82881  32.514  13.803   1.011
 9814W        W82882  29.516  26.180   3.674
 9815W        W82883  18.807  18.690  11.140
 9816W        W82884  28.586  41.056  13.898
 9817W        W82885  10.121   8.471   3.142
 9818W        W82886  19.193   4.257   4.326
 9819W        W82887   5.790  25.175   3.320
 9820W        W82888  14.259  41.370  10.677
 9821W        W82889  31.317  33.974   1.316
 9822W        W82890  15.682   7.287  14.111
 9823W        W82891  38.224  40.799  11.965
 9824W        W82892  26.109   7.191  13.838
 9825W        W82893  13.225  21.197  12.077
 9826W        W82894   4.416  44.487  12.893
 9827W        W82895   7.543  44.433  13.515
 9828W        W82896  39.303  16.349  13.006
 9829W        W82897  11.187  24.212  13.267
 9830W        W82898  17.791  11.341   1.653
 9831W        W82899  31.628  12.194  13.488
 9832W        W82900  20.619  17.232   3.895
 9833W        W82901  21.090  18.983   4.254
 9834W        W82902   9.360   9.757   2.620
 9835W        W82903  15.643  32.502   3.431
 9836W        W82904  17.167  41.122   0.763
 9837W        W82905   4.234  30.561   2.686
 9838W        W82906  16.057   8.293   0.981
 9839W        W82907  34.105   5.464   1.437
 9840W        W82908   5.120  27.152   3.848
 9841W        W82909  17.772  31.518   2.626
 9842W        W82910  43.604   3.844  12.848
 9843W        W82911  36.601  12.878   0.539
 9844W        W82912  24.562   1.237   4.618
 9845W        W82913  12.332  37.396  10.983
 9846W        W82914  16.075   6.294  14.234
 9847W        W82915   5.685  38.170   4.969
 9848W        W82916  37.628  32.243  14.734
 9849W        W82917  29.458  16.104  11.918
 9850W        W82918  14.721  38.993   1.229
 9851W        W82919   8.876   3.891   2.322
 9852W        W82920  39.852  43.390  10.510
 9853W        W82921  34.427  25.633   0.241
 9854W        W82922  17.558  10.658   0.894
 9855W        W82923  30.506   3.213   0.877
 9856W        W82924  26.064   2.736  13.824
 9857W        W82925  17.668  20.663  11.112
 9858W        W82926  16.706  24.993   4.918
 9859W        W82927  32.862  24.500   3.735
 9860W        W82928   4.956  15.555   2.544
 9861W        W82929  41.454  10.764  13.674
 9862W        W82930  29.238  25.686  13.221
 9863W        W82931  12.227  41.033  12.547
 9864W        W82932  31.107   7.882   4.568
 9865W        W82933  34.369   3.794  13.084
 9866W        W82934  16.330  30.374   2.143
 9867W        W82935  38.066  34.617  11.598
 9868W        W82936  19.146   3.553  13.296
 9869W        W82937  17.687  24.269  14.393
 9870W        W82938  44.556  44.931  14.446
 9871W        W82939  23.998  16.374  12.478
 9872W        W82940  26.657  27.620  12.560
 9873W        W82941  30.614  25.607  13.541
 9874W        W82942   8.366  22.029   3.681
 9875W        W82943   4.417  31.519  12.583
 9876W        W82944  14.842  34.481   2.789
 9877W        W82945  15.141  21.571  10.664
 9878W        W82946  33.475  10.350   4.438
 9879W        W82947  30.975  29.072   0.740
 9880W        W82948   9.765  26.308   2.771
 9881W        W82949  34.746  33.995  13.264
 9882W        W82950   2.680  36.983  11.560
 9883W        W82951  37.517   8.728  11.657
 9884W        W82952  25.675  40.746  10.151
 9885W        W82953   0.319   4.941   4.092
 9886W        W82954  29.601  20.138  11.933
 9887W        W82955  35.951   7.013   0.421
 9888W        W82956  26.598  26.127   0.723
 9889W        W82957  25.048  34.844   0.530
 9890W        W82958  10.922   7.296   3.363
 9891W        W82959  32.978  18.499  14.022
 9892W        W82960   8.404   9.808  11.594
 9893W        W82961  22.243   1.202   4.392
 9894W        W82962  41.699  15.189   3.129
 9895W        W82963   3.657  24.508   2.809
 9896W        W82964  29.495  40.817  13.953
 9897W        W82965  28.012  32.984  10.676
 9898W        W82966  29.654  33.113  13.620
 9899W        W82967  36.998  33.759  12.074
 9900W        W82968   1.372  16.141   3.180
 9901W        W82969   0.943  25.337  13.676
 9902W        W82970  40.346  37.370   1.835
 9903W        W82971  17.902  38.030   0.403
 9904W        W82972  25.901  15.247   0.297
 9905W        W82973  10.900   6.316   3.146
 9906W        W82974  17.556   7.666  13.475
 9907W        W82975  23.115   3.302  14.783
 9908W        W82976  34.374  37.556  14.671
 9909W        W82977  41.535  18.730   0.965
 9910W        W82978  41.549  22.922  13.802
 9911W        W82979  39.910  31.039  10.996
 9912W        W82980  18.261  16.107  10.677
 9913W        W82981  10.489   9.229  11.505
 9914W        W82982  35.192   3.728   1.143
 9915W        W82983   6.949  11.849   2.301
 9916W        W82984   5.439  34.461   4.528
 9917W        W82985  43.028  42.868  14.321
 9918W        W82986  13.251  39.256  13.957
 9919W        W82987  24.647  29.704  11.657
 9920W        W82988  43.447  42.443   3.426
 9921W        W82989  42.773   5.800   0.408
 9922W        W82990  36.836  40.023   3.301
 9923W        W82991  32.588  28.072   3.089
 9924W        W82992   3.262  19.160  14.401
 9925W        W82993  44.480  27.911  13.017
 9926W        W82994  44.822  41.863  14.728
 9927W        W82995  44.894  17.003  14.832
 9928W        W82996  38.078   0.370  10.736
 9929W        W82997  28.507   7.625  14.905
 9930W        W82998  21.762   0.921   4.176
 9931W        W82999  30.072  19.729   2.450
 9932W        W83000   0.164  24.524  13.860
 9933W        W83001  22.720  16.553   9.833
 9934W        W83002   9.282  16.664  12.047
 9935W        W83003  15.206  42.234   1.934
 9936W        W83004  15.621  25.173  11.735
 9937W        W83005   3.942  27.520  11.611
 9938W        W83006   0.353  31.026  14.830
 9939W        W83007  24.113  22.467   1.784
 9940W        W83008  44.873  23.230  14.530
 9941W        W83009  38.979  21.547  10.645
 9942W        W83010   8.683  25.757   2.329
 9943W        W83011   9.336  18.043   2.812
 9944W        W83012  12.369  28.105   4.263
 9945W        W83013   6.860  34.815   4.521
 9946W        W83014  10.811  36.359   1.277
 9947W        W83015  40.017  44.435   2.709
 9948W        W83016   8.865  44.881  11.415
 9949W        W83017  14.579  30.573  10.649
 9950W        W83018  23.673   2.406   3.757
 9951W        W83019  31.983   4.910   0.340
 9952W        W83020  15.213   2.048  14.437
 9953W        W83021  39.389   7.396  14.940
 9954W        W83022   8.123  14.647   3.589
 9955W        W83023  15.285   6.984  14.308
 9956W        W83024   7.878  15.050  14.857
 9957W        W83025  16.711  37.578   0.911
 9958W        W83026   3.217  21.216  10.572
 9959W        W83027  34.355  22.267  14.035
 9960W        W83028  34.019  31.550   4.653
 9961W        W83029   8.295  24.804  12.081
 9962W        W83030  13.887  12.866   0.286
 9963W        W83031  10.919  27.821   4.011
 9964W        W83032  40.073  43.589   4.782
 9965W        W83033  10.882  32.717  13.750
 9966W        W83034  17.040  10.868   1.762
 9967W        W83035  17.532  39.084   2.401
 9968W        W83036  19.590  16.075  14.499
 9969W        W83037  17.090  20.092  12.669
 9970W        W83038  17.181  38.681  13.482
 9971W        W83039  19.664  18.838  11.984
 9972W        W83040  33.361   5.234   3.694
 9973W        W83041  32.591   3.356   0.422
 9974W        W83042   3.888  11.589  10.724
 9975W        W83043   8.445  23.650  11.127
 9976W        W83044   5.078  28.835  14.926
 9977W        W83045   6.669  14.779   0.201
 9978W        W83046  40.525  22.639  14.222
 9979W        W83047   1.948  38.194  11.432
 9980W        W83048   9.213  29.990  14.507
 9981W        W83049  31.930  41.083  14.474
 9982W        W83050  14.335   6.665   3.403
 9983W        W83051   3.705  22.998  14.570
 9984W        W83052  32.971  43.030   4.731
 9985W        W83053  24.312   6.707   1.137
 9986W        W83054  27.323  23.496  13.857
 9987W        W83055  34.649   8.939   3.972
 9988W        W83056  39.144  12.387  15.000
 9989W        W83057   1.305  41.954   0.015
 9990W        W83058  40.864  33.659   1.734
 9991W        W83059  34.552  39.624   2.599
 9992W        W83060   9.705   9.908  14.025
 9993W        W83061  43.962   3.849  14.971
 9994W        W83062  25.260  20.108  14.523
 9995W        W83063  33.973  10.444   0.007
 9996W        W83064  22.035  20.264   1.011
 9997W        W83065  26.083   1.067  11.594
 9998W        W83066  34.483  20.891   3.777
 9999W        W83067  12.228  38.340   3.787
10000W        W83068  38.416   1.250   5.110
10001W        W83069  27.020  37.532   3.794
10002W        W83070  24.139  41.009  10.215
10003W        W83071  12.403  36.074   0.540
10004W        W83072  26.937  31.926   4.299
10005W        W83073   7.971  18.564   2.782
10006W        W83074  40.601  40.425  12.021
10007W        W83075  44.539  14.247  14.458
10008W        W83076  17.010  40.756   0.409
10009W        W83077  34.211  24.892   2.732
10010W        W83078  21.800  23.032   4.569
10011W        W83079  10.695  43.291   2.820
10012W        W83080   8.722  17.852   3.655
10013W        W83081  29.969  19.276   3.388
10014W        W83082   0.386   0.330   1.760
10015W        W83083   5.052  23.223  10.751
10016W        W83084  27.419  11.423   4.133
10017W        W83085   3.831  12.914  13.426
10018W        W83086  14.806  30.451   0.415
10019W        W83087  40.582  40.571  14.863
10020W        W83088  32.532  25.097   4.676
10021W        W83089   1.185  10.288  14.735
10022W        W83090  19.168  41.297  11.056
10023W        W83091  26.546   3.519   4.623
10024W        W83092  10.399  41.917   2.435
10025W        W83093  12.518  24.244  12.479
10026W        W83094   8.937  27.181  14.501
10027W        W83095  16.578  29.063  12.444
10028W        W83096  13.780  36.552  13.559
10029W        W83097  43.956  39.553   3.027
10030W        W83098  27.483   6.694  13.846
10031W        W83099  29.566  16.317   2.905
10032W        W83100  24.060  17.623  13.378
10033W        W83101   0.980  15.855   3.335
10034W        W83102  21.974  30.988   0.270
10035W        W83103   9.059  41.315  13.417
10036W        W83104  29.936  24.539  14.364
10037W        W83105  12.005   6.215  12.934
10038W        W83106  12.828  35.217  13.515
10039W        W83107  29.593  13.301  14.457
10040W        W83108  37.440  32.386  13.876
10041W        W83109  40.785   1.133   4.208
10042W        W83110  28.227  42.481   1.916
10043W        W83111  32.662  31.344  12.009
10044W        W83112  10.118   8.893  10.763
10045W        W83113   5.927  43.681  11.044
10046W        W83114  34.479  11.621  11.326
10047W        W83115  33.658  17.312  14.416
10048W        W83116   1.053  10.717   3.480
10049W        W83117  42.313   6.855   4.463
10050W        W83118  20.158  30.507   0.756
10051W        W83119  12.593  25.967  11.689
10052W        W83120  13.248   9.549   1.182
10053W        W83121  18.194  19.334  11.993
10054W        W83122  21.389  32.945   4.915
10055W        W83123  38.623  44.678   3.582
10056W        W83124  30.690  42.455   1.657
10057W        W83125  26.166  14.721  11.009
10058W        W83126  38.480  30.515   3.709
10059W        W83127   1.833  24.238  13.900
10060W        W83128  42.955  10.474  12.859
10061W        W83129  36.405  44.958   0.009
10062W        W83130  32.330  33.418   4.623
10063W        W83131   0.307  11.235  14.872
10064W        W83132   2.751   6.212   2.844
10065W        W83133  12.114  25.413  11.874
10066W        W83134  25.868  41.073   5.102
10067W        W83135  27.505  11.962  12.874
10068W        W83136   0.791  30.683   1.174
10069W        W83137  35.673  33.001   3.709
10070W        W83138  15.610  29.214   2.776
10071W        W83139  28.654   6.179  14.849
10072W        W83140   2.575  36.613  14.673
10073W        W83141  41.234  12.902   2.856
10074W        W83142   0.950  39.817   2.282
10075W        W83143  26.488  39.288  10.538
10076W        W83144  19.995  42.898  14.383
10077W        W83145  35.962  24.585   4.402
10078W        W83146  35.020  28.601  14.836
10079W        W83147  27.446  15.036   4.149
10080W        W83148  44.975  43.739  13.361
10081W        W83149  19.785  36.461  12.956
10082W        W83150  15.730   8.661   0.790
10083W        W83151  42.297  24.385  10.732
10084W        W83152  40.690  30.739  11.195
10085W        W83153   1.971  41.439  10.692
10086W        W83154   3.574  37.640   4.314
10087W        W83155  30.133  16.284  12.017
10088W        W83156  18.064  25.687   1.254
10089W        W83157  39.348  43.007  14.181
10090W        W83158  27.413  42.448  14.018
10091W        W83159  34.070  39.402   0.439
10092W        W83160  28.174   4.016   0.189
10093W        W83161  20.872  19.175   3.777
10094W        W83162  30.031  42.595   2.275
10095W        W83163  20.236   8.764   3.731
10096W        W83164   5.664  37.950  11.898
10097W        W83165  41.005  38.115  13.391
10098W        W83166  44.336   7.466  10.667
10099W        W83167   5.749  19.200  12.389
10100W        W83168  17.730  19.579  14.393
10101W        W83169  24.180  38.709   0.559
10102W        W83170  43.846   3.997  14.460
10103W        W83171  35.028  11.774  13.157
10104W        W83172  20.639  43.911  14.742
10105W        W83173  11.191  14.173   0.553
10106W        W83174  25.048  29.163  14.734
10107W        W83175  42.871  20.318  12.109
10108W        W83176   2.807  40.918   2.356
10109W        W83177  22.754   2.804  11.144
10110W        W83178  39.606   4.049   2.870
10111W        W83179  20.240  39.855  11.531
10112W        W83180  36.073  16.780   4.124
10113W        W83181  39.284   8.424   4.960
10114W        W83182   7.917   3.320   2.710
10115W        W83183  31.462  32.354  10.741
10116W        W83184  23.272  29.226  13.974
10117W        W83185  44.359  18.277   4.555
10118W        W83186  29.065  16.866   1.867
10119W        W83187  13.828  26.041  14.322
10120W        W83188  19.195  35.096  12.033
10121W        W83189  17.825  35.690   4.057
10122W        W83190   5.625   7.111   1.302
10123W        W83191  33.055  36.495   0.583
10124W        W83192  30.910  28.094  12.484
10125W        W83193  15.062  42.977  12.528
10126W        W83194  19.585  21.083   3.208
10127W        W83195   5.130  26.407   4.117
10128W        W83196   6.487  41.491  11.971
10129W        W83197  13.104  42.440   3.197
10130W        W83198  18.788  13.953  10.735
10131W        W83199   1.935   1.246   1.705
10132W        W83200   1.961   3.737  10.691
10133W        W83201  38.837  19.598  12.487
10134W        W83202  42.555  27.492   1.620
10135W        W83203   2.471  43.530  10.339
10136W        W83204  34.558  20.105  12.346
10137W        W83205  33.414  36.042  10.500
10138W        W83206  33.871  21.143   1.806
10139W        W83207  39.319   3.122  13.519
10140W        W83208  34.964  24.147   3.403
10141W        W83209  33.058  40.513  10.440
10142W        W83210  23.720  39.292   1.838
10143W        W83211   5.583  36.559  14.535
10144W        W83212  38.317  23.073  10.904
10145W        W83213   3.785  17.532   1.600
10146W        W83214  28.420  30.727   4.111
10147W        W83215   6.677  22.273  14.106
10148W        W83216  26.421  15.600   0.732
10149W        W83217  30.097   3.484   3.205
10150W        W83218   8.717  32.631   0.463
10151W        W83219   9.658  40.918   1.023
10152W        W83220   5.826  41.069   4.123
10153W        W83221  18.345  17.791  13.879
10154W        W83222  11.799  31.794  10.102
10155W        W83223  22.239   5.938   3.817
10156W        W83224   3.901  21.988   4.100
10157W        W83225   4.078  34.626   2.132
10158W        W83226   9.914  43.437   2.315
10159W        W83227  15.672  12.384   0.275
10160W        W83228  27.866  30.566   2.179
10161W        W83229  39.096  31.548   2.336
10162W        W83230  33.075  12.788  14.730
10163W        W83231  27.787  24.240   4.259
10164W        W83232   2.613  10.336  12.519
10165W        W83233  34.574  35.384  10.543
10166W        W83234  38.120  28.198   2.180
10167W        W83235  35.621  24.123  11.478
10168W        W83236  40.090  43.074  14.938
10169W        W83237  31.136  22.390   4.635
10170W        W83238   3.943  40.354  13.045
10171W        W83239   0.228  33.329  11.115
10172W        W83240  43.823  37.902   4.212
10173W        W83241  19.556  32.886   3.632
10174W        W83242  30.468   6.214   3.328
10175W        W83243  10.246   4.014  14.817
10176W        W83244  15.349  12.746   2.611
10177W        W83245   5.421  15.796  10.637
10178W        W83246  19.534  33.506   4.890
10179W        W83247   9.367  16.543  14.650
10180W        W83248  11.410  32.787   0.436
10181W        W83249   1.869  20.546  10.434
10182W        W83250  39.857  13.923  11.135
10183W        W83251   3.919  16.116   1.013
10184W        W83252   5.640  26.078   3.854
10185W        W83253  26.547  13.785  12.797
10186W        W83254  35.466  14.947  14.735
10187W        W83255  27.626   5.119   4.591
10188W        W83256  16.910   2.324   4.149
10189W        W83257   0.228  14.072  12.054
10190W        W83258   7.433  31.508   2.332
10191W        W83259  28.222  38.249   4.074
10192W        W83260   4.900  14.007  14.013
10193W        W83261  21.119  26.332  12.455
10194W        W83262   7.606  21.036   2.038
10195W        W83263  25.945  24.613   0.768
10196W        W83264  20.067  41.483  13.004
10197W        W83265   4.548  22.204   4.898
10198W        W83266  16.680  35.943   2.246
10199W        W83267  12.815  27.060   0.345
10200W        W83268  18.247  29.523   2.309
10201W        W83269  21.493  44.583  14.825
10202W        W83270  15.809   1.811   4.569
10203W        W83271   0.813   1.320   1.632
10204W        W83272  27.604  18.686   2.091
10205W        W83273  42.918  12.729   0.694
10206W        W83274   2.621  40.945   4.880
10207W        W83275   2.362  25.022   2.714
10208W        W83276  29.531   9.641   1.354
10209W        W83277  12.619  24.026  11.659
10210W        W83278  40.992  12.086  14.335
10211W        W83279  41.990  40.222   0.486
10212W        W83280  10.049   8.592  11.187
10213W        W83281  33.828  39.002   1.039
10214W        W83282  18.229  17.375   3.607
10215W        W83283   6.129  18.724   1.416
10216W        W83284  31.426  29.047  11.991
10217W        W83285  13.226   2.498   0.629
10218W        W83286   9.641  22.485   3.149
10219W        W83287  27.044  21.601   1.298
10220W        W83288   1.712  27.484  11.109
10221W        W83289   5.403  32.221  12.130
10222W        W83290  11.640  18.886   0.632
10223W        W83291  28.436  25.654  14.797
10224W        W83292  44.142  12.987   3.478
10225W        W83293  13.718  40.030  14.519
10226W        W83294  24.310   3.853  14.708
10227W        W83295   5.513   2.270  14.865
10228W        W83296  22.175  24.158   1.396
10229W        W83297   1.955  24.455   2.328
10230W        W83298  13.666  38.766  11.383
10231W        W83299   1.462  29.881  14.809
10232W        W83300  12.279  26.705   2.736
10233W        W83301  17.498  34.454   3.962
10234W        W83302   2.447  17.012   3.181
10235W        W83303  24.386   0.437  13.032
10236W        W83304  27.674  23.465  12.685
10237W        W83305  26.580  40.279  14.381
10238W        W83306  34.011  32.440   4.910
10239W        W83307  30.454  37.341   4.127
10240W        W83308  17.763  10.177   1.792
10241W        W83309  38.885  26.376   4.741
10242W        W83310  27.867   6.162  14.318
10243W        W83311  35.275  31.099  14.945
10244W        W83312  42.295  17.218   0.881
10245W        W83313   5.242  19.093  11.512
10246W        W83314  25.554  16.756  11.330
10247W        W83315  19.993  20.222  14.392
10248W        W83316  10.107  15.159   0.403
10249W        W83317  13.664   0.540   1.414
10250W        W83318  22.557   0.921   5.212
10251W        W83319  36.659  27.913  11.210
10252W        W83320   8.198  36.897  11.425
10253W        W83321  43.577   0.753  12.990
10254W        W83322  38.639   0.198  10.431
10255W        W83323  11.528  44.800   3.630
10256W        W83324  44.046  23.112  11.992
10257W        W83325  36.045   8.244   1.361
10258W        W83326  24.617  23.050   0.315
10259W        W83327  15.790   3.998   3.159
10260W        W83328  32.120  28.029   1.698
10261W        W83329  29.888  35.638   4.566
10262W        W83330   3.812   4.207   0.711
10263W        W83331  25.661  14.909   4.226
10264W        W83332   6.462  35.888  11.513
10265W        W83333  34.941  37.141   1.269
10266W        W83334  18.245   4.698  14.052
10267W        W83335  42.047   2.812  12.937
10268W        W83336  33.932   2.847   2.909
10269W        W83337  28.600  12.313  10.895
10270W        W83338  21.108   1.904   4.864
10271W        W83339   0.880  42.563   1.860
10272W        W83340  12.977  20.908   2.804
10273W        W83341   5.446   0.968  13.003
10274W        W83342   5.278   1.499   0.311
10275W        W83343  27.648  35.925  13.064
10276W        W83344   5.236  43.223  13.333
10277W        W83345   8.307   2.252   4.542
10278W        W83346   3.779  41.394  14.843
10279W        W83347  33.956  24.642  11.469
10280W        W83348  24.997   9.258  12.382
10281W        W83349  41.303  25.755   1.784
10282W        W83350  16.172  39.195  11.738
10283W        W83351   6.675   3.884  11.318
10284W        W83352  30.026   8.908   1.132
10285W        W83353   6.229   3.463  13.886
10286W        W83354  10.535  31.433   3.262
10287W        W83355   2.317  33.486  12.463
10288W        W83356  34.599  22.397  12.839
10289W        W83357  33.963   2.982  12.350
10290W        W83358   3.980  26.119   1.568
10291W        W83359  34.865  43.257  12.628
10292W        W83360  14.592  21.228   1.178
10293W        W83361  14.362   0.198  12.926
10294W        W83362  43.847  29.117   1.907
10295W        W83363   1.238  30.635   2.821
10296W        W83364  38.965  31.681  12.871
10297W        W83365  20.718  28.934   2.454
10298W        W83366   2.535  40.517  13.418
10299W        W83367  26.446  27.876   1.431
10300W        W83368   8.569   3.967   1.441
10301W        W83369  15.838  19.553   4.353
10302W        W83370  26.570   4.175   1.756
10303W        W83371  39.814  25.109   2.415
10304W        W83372  16.515  10.856   3.662
10305W        W83373  28.072  13.284  12.922
10306W        W83374   8.220  30.432   3.677
10307W        W83375  27.116   7.871   3.656
10308W        W83376   1.811  17.537  12.358
10309W        W83377  32.406  39.854   1.699
10310W        W83378  22.959  25.100   4.884
10311W        W83379  39.616   3.555  13.384
10312W        W83380  25.561  36.474   4.721
10313W        W83381  11.130  28.033  14.461
10314W        W83382  24.210  12.916   1.945
10315W        W83383   5.104  31.632  14.802
10316W        W83384  42.574  15.668   3.878
10317W        W83385  17.673   4.829   3.832
10318W        W83386  42.277   7.496  13.562
10319W        W83387  18.132  16.882  11.080
10320W        W83388  28.183  34.511   0.423
10321W        W83389  10.049  17.136   4.553
10322W        W83390   6.627  26.440   2.215
10323W        W83391  23.663  40.238  14.860
10324W        W83392   0.181  43.877   4.653
10325W        W83393  10.143  14.200   5.177
10326W        W83394  27.219  17.663   0.709
10327W        W83395   2.818  18.976  12.569
10328W        W83396  16.561  19.336  10.786
10329W        W83397  41.550  30.843   0.888
10330W        W83398  31.390  29.137   2.063
10331W        W83399  22.582  29.244   3.904
10332W        W83400  18.282  26.373  14.439
10333W        W83401  37.042  11.635  11.576
10334W        W83402  30.635   0.529  12.753
10335W        W83403  29.061  30.482   0.933
10336W        W83404  27.537  37.108  14.047
10337W        W83405  26.939  27.947   4.583
10338W        W83406  22.993  18.064   0.193
10339W        W83407  13.378  41.978  10.860
10340W        W83408  12.592  14.504  11.121
10341W        W83409   8.289   6.324   3.816
10342W        W83410  17.762  30.577   2.128
10343W        W83411  43.626  35.138   0.401
10344W        W83412  19.993  29.007   4.333
10345W        W83413  25.730   3.581  14.230
10346W        W83414  42.508  34.462   2.881
10347W        W83415  27.618  16.805   1.887
10348W        W83416  29.869   3.435  10.812
10349W        W83417   2.030  35.151   3.373
10350W        W83418  12.699  10.888  11.443
10351W        W83419  44.292  19.216   4.124
10352W        W83420   3.825  31.243   3.541
10353W        W83421  28.096  35.991  13.913
10354W        W83422  37.082  25.238  14.338
10355W        W83423  19.073  28.386  12.987
10356W        W83424  32.735  26.632  12.586
10357W        W83425  17.981  22.432   4.248
10358W        W83426  37.035  43.362   1.200
10359W        W83427   8.045  17.347  14.724
10360W        W83428   0.349  36.888   3.196
10361W        W83429  14.640  18.361   3.257
10362W        W83430   0.438  25.699  10.623
10363W        W83431  39.478  38.875   0.309
10364W        W83432   8.924  42.896   3.073
10365W        W83433   8.793  24.187  10.668
10366W        W83434  32.169  25.699   3.139
10367W        W83435  40.311  23.704   0.787
10368W        W83436  10.229  24.436   4.661
10369W        W83437   7.587  41.173  10.052
10370W        W83438  23.542  26.374  10.752
10371W        W83439  38.479   0.371   1.964
10372W        W83440   6.430  15.750   5.086
10373W        W83441  41.447  25.696  10.624
10374W        W83442  35.582  31.180   2.090
10375W        W83443   0.827  39.940   1.781
10376W        W83444  40.188  18.590  10.731
10377W        W83445   3.226  24.302  11.620
10378W        W83446  14.446  27.881   4.240
10379W        W83447  32.572  28.506   2.386
10380W        W83448  30.231  21.825   1.463
10381W        W83449  38.666  32.653  11.354
10382W        W83450   6.868   3.425  10.603
10383W        W83451  36.705   4.202  13.996
10384W        W83452  43.313   9.431  10.771
10385W        W83453  11.296   1.201   3.660
10386W        W83454  37.985  10.884   2.820
10387W        W83455  18.330  14.203  11.532
10388W        W83456  28.485   7.944   1.311
10389W        W83457  42.108  32.653   3.659
10390W        W83458  35.980  37.257  11.186
10391W        W83459  39.505  18.033   2.331
10392W        W83460  41.298  14.692  11.831
10393W        W83461  23.192  28.665   4.878
10394W        W83462   9.005  37.540  13.394
10395W        W83463  38.076  13.836   1.786
10396W        W83464  40.471  20.157  10.771
10397W        W83465   6.163   6.358  12.213
10398W        W83466   4.551  13.194   1.747
10399W        W83467  15.049  34.441   0.512
10400W        W83468  33.003  37.885   0.686
10401W        W83469  10.498  16.769   4.625
10402W        W83470  37.088   7.101  10.976
10403W        W83471  38.312   5.059   2.851
10404W        W83472  10.431  32.355   2.812
10405W        W83473  25.301  23.486  13.350
10406W        W83474  22.463   7.350   3.669
10407W        W83475   6.794  14.572   2.124
10408W        W83476  28.828   9.261  13.996
10409W        W83477  22.631   2.528   2.770
10410W        W83478   3.940  30.744  12.427
10411W        W83479  36.910  19.799   0.443
10412W        W83480  35.847  40.116  13.972
10413W        W83481  11.244  37.941   1.897
10414W        W83482  16.535   9.385  10.666
10415W        W83483  39.016  20.240  14.370
10416W        W83484   7.927  10.776  14.446
10417W        W83485  30.602  11.142   2.199
10418W        W83486  35.447  36.494   0.981
10419W        W83487  10.260  42.284   4.718
10420W        W83488  32.166   2.877  10.715
10421W        W83489   8.228  23.610   4.146
10422W        W83490  22.250   3.287   3.764
10423W        W83491  30.109  40.177  14.535
10424W        W83492  27.467  33.705   2.207
10425W        W83493  19.149  37.533  11.531
10426W        W83494  35.444   5.785   4.338
10427W        W83495  23.117  22.187   4.539
10428W        W83496  13.269   4.697  10.207
10429W        W83497  44.726  36.612   4.244
10430W        W83498  25.624  30.678   4.038
10431W        W83499   6.233  12.723  11.933
10432W        W83500  26.637  40.615   2.624
10433W        W83501  10.913  30.569  12.865
10434W        W83502   5.301   6.902   2.414
10435W        W83503  26.134  38.796  13.484
10436W        W83504   0.662   3.397   2.568
10437W        W83505   8.327  24.882   2.382
10438W        W83506  23.170  40.368  13.167
10439W        W83507   9.707  35.605   3.709
10440W        W83508  28.225  29.111  12.049
10441W        W83509  38.018  10.134  13.479
10442W        W83510  23.707  34.791  12.145
10443W        W83511  29.218   1.866  13.107
10444W        W83512  13.904  13.705   2.838
10445W        W83513  34.189  29.592  11.120
10446W        W83514   2.869  43.866  10.399
10447W        W83515  25.151   0.759   0.879
10448W        W83516   7.629   9.483  13.095
10449W        W83517  23.573  34.887   1.307
10450W        W83518  38.404  17.725  11.030
10451W        W83519  18.696  38.093  10.969
10452W        W83520  15.005  20.223  11.408
10453W        W83521   4.790  37.856  13.008
10454W        W83522   8.637  39.297   3.743
10455W        W83523  41.982  28.586   2.281
10456W        W83524  24.012  17.204   0.044
10457W        W83525  41.786  17.614   1.746
10458W        W83526  21.696  24.192  14.860
10459W        W83527  29.196  20.031   0.137
10460W        W83528  10.123  16.469   0.775
10461W        W83529  38.321   8.368  11.964
10462W        W83530  28.548  25.200   4.437
10463W        W83531  40.513   7.908  11.969
10464W        W83532   1.727  25.052  10.423
10465W        W83533  35.845  28.725   3.894
10466W        W83534  36.354  21.554   0.945
10467W        W83535  38.900  24.049  14.371
10468W        W83536  35.564   6.811   3.280
10469W        W83537  16.637  10.820   1.161
10470W        W83538  23.746  17.715  10.403
10471W        W83539  20.213  40.422  11.156
10472W        W83540  24.570  39.773  12.733
10473W        W83541   5.900  34.599  12.530
10474W        W83542   4.667  32.168  11.433
10475W        W83543  15.289   2.706   3.612
10476W        W83544   5.108  14.507   3.448
10477W        W83545  14.212   9.545   4.714
10478W        W83546  32.975  15.357   4.547
10479W        W83547  37.895  12.910  12.669
10480W        W83548  41.102   0.190  13.908
10481W        W83549  25.767  24.712   1.242
10482W        W83550   9.433  21.700   2.835
10483W        W83551  19.540  39.011  13.318
10484W        W83552  37.380  13.178  10.473
10485W        W83553  19.321  42.668  12.033
10486W        W83554  22.960  11.026   3.311
10487W        W83555   7.391  39.922   1.396
10488W        W83556  35.539   0.771   4.620
10489W        W83557  27.100   6.245  12.586
10490W        W83558  26.480  44.501   1.785
10491W        W83559   6.360  16.312   2.352
10492W        W83560  34.920  23.144   3.911
10493W        W83561  22.531  29.472   0.761
10494W        W83562  15.747  40.854  10.939
10495W        W83563  37.335   7.255   0.004
10496W        W83564  25.722  31.070  14.332
10497W        W83565  17.871  30.542  12.080
10498W        W83566  21.116  15.616  11.506
10499W        W83567  44.372  25.054  12.318
10500W        W83568  28.619  22.846  10.769
10501W        W83569  30.137  18.834   0.442
10502W        W83570  13.732  31.350   3.098
10503W        W83571  10.346   5.453   3.945
10504W        W83572  13.679  18.095   0.955
10505W        W83573  42.199  29.934  12.956
10506W        W83574  19.972  36.635  13.429
10507W        W83575  37.424  37.462  10.459
10508W        W83576  31.383   9.960  10.656
10509W        W83577  40.413  40.920   2.617
10510W        W83578  22.772  25.111  11.245
10511W        W83579  18.030  42.733   3.555
10512W        W83580  17.555   0.494   3.307
10513W        W83581  17.158  13.187   1.890
10514W        W83582  35.906  22.688  14.072
10515W        W83583   5.895  40.832  13.096
10516W        W83584  14.692  31.531   0.991
10517W        W83585  28.727  18.203   4.754
10518W        W83586   8.747  35.091   2.202
10519W        W83587  13.764   4.280   1.021
10520W        W83588  38.317  44.220  13.232
10521W        W83589   6.518  40.504   0.428
10522W        W83590   4.747  16.159  11.291
10523W        W83591   1.235  20.620  12.919
10524W        W83592  25.499  12.812   2.643
10525W        W83593  19.568  33.642   4.376
10526W        W83594  37.268  38.374  14.862
10527W        W83595   9.242  12.448   2.754
10528W        W83596   3.592  29.366   2.815
10529W        W83597  16.666  40.128  14.452
10530W        W83598  39.857  34.403   0.420
10531W        W83599  22.730  42.683   3.281
10532W        W83600   3.149  22.303   1.924
10533W        W83601  12.669  25.411   2.763
10534W        W83602   6.188  13.728   3.944
10535W        W83603  23.538  34.677   1.991
10536W        W83604   6.294  37.025  14.255
10537W        W83605  34.378  19.631  11.514
10538W        W83606  30.973  32.601  12.464
10539W        W83607  37.778  35.054  11.558
10540W        W83608  16.684  39.879  10.916
10541W        W83609  14.278  40.380  11.704
10542W        W83610  31.660  19.281   1.364
10543W        W83611   6.649  15.648  12.518
10544W        W83612  28.256  37.094   2.216
10545W        W83613   1.341  38.432  14.069
10546W        W83614  33.772   8.412  14.050
10547W        W83615  30.217   2.949   3.224
10548W        W83616  43.708  18.047  11.606
10549W        W83617  10.217  13.800  11.909
10550W        W83618  37.785   0.556  11.100
10551W        W83619  26.713  35.090   4.914
10552W        W83620  32.524  17.379   0.097
10553W        W83621  22.069  11.931  13.925
10554W        W83622  13.162  37.269  10.376
10555W        W83623  35.170  27.656  14.468
10556W        W83624  14.231  34.036   0.341
10557W        W83625  34.228  12.819  12.939
10558W        W83626  41.067  39.035   0.791
10559W        W83627  31.586  29.614   3.826
10560W        W83628  29.027  11.726  12.934
10561W        W83629  30.370  24.710  11.105
10562W        W83630  14.900   3.383  10.600
10563W        W83631  38.048  37.998  14.991
10564W        W83632   6.080   1.900  10.742
10565W        W83633   0.408  25.917   4.041
10566W        W83634  23.964  44.341  13.595
10567W        W83635   3.196  22.940  14.568
10568W        W83636  42.814  39.918  14.417
10569W        W83637  44.537  30.964   3.591
10570W        W83638  24.685  31.432  14.001
10571W        W83639  12.869  28.542   2.759
10572W        W83640  30.563  30.567   0.840
10573W        W83641  14.801  20.477  13.995
10574W        W83642   5.141   1.364   1.178
10575W        W83643  25.692  32.496   0.934
10576W        W83644  34.313   8.103   3.118
10577W        W83645  19.227  15.605   0.226
10578W        W83646  15.006   7.227   0.132
10579W        W83647  35.034   3.999   2.138
10580W        W83648  38.933   4.491  14.073
10581W        W83649  25.155  43.769   1.953
10582W        W83650  36.607  25.619   2.727
10583W        W83651  40.576   3.738   4.205
10584W        W83652   1.854  40.404  12.955
10585W        W83653  14.354  14.335   5.035
10586W        W83654  43.949  12.952  13.058
10587W        W83655  22.944  38.571   1.156
10588W        W83656   4.368   1.301  14.370
10589W        W83657  25.121  15.728   2.403
10590W        W83658  29.687  14.873   0.405
10591W        W83659  27.447  20.306  14.992
10592W        W83660   1.542  10.819  14.865
10593W        W83661  31.434  22.936   0.079
10594W        W83662  32.093  41.315   2.683
10595W        W83663  41.467  10.948   2.703
10596W        W83664   3.016   8.375   3.456
10597W        W83665  25.061  28.115   2.750
10598W        W83666  31.679  37.410   4.753
10599W        W83667  42.727  19.675  13.967
10600W        W83668  38.989  21.273  14.604
10601W        W83669  10.601  40.035   3.383
10602W        W83670   2.472  28.098   4.428
10603W        W83671   2.913  32.750  12.472
10604W        W83672  10.687  31.337   2.392
10605W        W83673   6.665  44.005   2.318
10606W        W83674   4.274  28.102   2.831
10607W        W83675  41.442  19.774   0.385
10608W        W83676  31.530  14.284   0.259
10609W        W83677  39.831  35.106  14.055
10610W        W83678  18.347  31.523  13.329
10611W        W83679  13.313  38.517   2.797
10612W        W83680  44.725  11.594   4.125
10613W        W83681   1.984  25.533   4.377
10614W        W83682  16.693  43.463  12.090
10615W        W83683   8.241  29.813   1.209
10616W        W83684  15.639  36.821   1.683
10617W        W83685  41.506  22.184   0.193
10618W        W83686  11.259   9.414   3.920
10619W        W83687  29.228  29.643   3.236
10620W        W83688   8.904  12.147  11.048
10621W        W83689  14.950  14.086  10.345
10622W        W83690  36.598  11.353   0.473
10623W        W83691  14.715  36.416   3.324
10624W        W83692  21.787  14.612  13.417
10625W        W83693  22.652  41.772   3.107
10626W        W83694  30.431  28.292  11.337
10627W        W83695   6.465  31.081  13.407
10628W        W83696   0.784   4.968   2.299
10629W        W83697  20.092  40.472  12.514
10630W        W83698  30.360  35.051  13.922
10631W        W83699   0.572  16.632  11.642
10632W        W83700   6.659  24.651   0.878
10633W        W83701  10.027  33.541  14.360
10634W        W83702   2.282   0.880   0.657
10635W        W83703   9.165  34.461   2.502
10636W        W83704  42.997  22.075   3.023
10637W        W83705  23.729  41.765   3.291
10638W        W83706  10.731  33.878   0.972
10639W        W83707   4.139  11.495  13.910
10640W        W83708  23.518  17.329  12.705
10641W        W83709   8.596   2.735   2.857
10642W        W83710  32.989  32.574   1.892
10643W        W83711  23.457  29.556   2.450
10644W        W83712  35.435  13.251  11.137
10645W        W83713  37.569  31.641  11.766
10646W        W83714  34.085  25.984  14.360
10647W        W83715  28.618  28.935  11.187
10648W        W83716  31.950   5.717   2.469
10649W        W83717  24.091  10.118  10.395
10650W        W83718  31.361  10.914  13.502
10651W        W83719  22.990  29.411  10.749
10652W        W83720  12.371  14.061  14.915
10653W        W83721  36.550   6.569  12.485
10654W        W83722  44.790  33.003  13.090
10655W        W83723  44.726  23.916   2.111
10656W        W83724  35.984  33.759   9.819
10657W        W83725  22.398  30.003   0.736
10658W        W83726   3.569  34.712  14.835
10659W        W83727  27.058   3.682   4.765
10660W        W83728  44.418  14.892   2.333
10661W        W83729  44.516  22.594   3.784
10662W        W83730   3.327   1.889  10.859
10663W        W83731  21.030  26.999  10.948
10664W        W83732   9.017  11.489   3.143
10665W        W83733   5.348   0.979   0.267
10666W        W83734  22.938   4.484  10.129
10667W        W83735   7.580  12.325   3.215
10668W        W83736   6.003  35.864   3.691
10669W        W83737  25.736  42.992   2.897
10670W        W83738  24.141  37.676   2.517
10671W        W83739  25.656  33.597  12.411
10672W        W83740  18.338  10.464  10.963
10673W        W83741  39.347   3.351   1.490
10674W        W83742  33.392  35.572  13.122
10675W        W83743  17.229  21.192  11.207
10676W        W83744  19.873   3.242   1.807
10677W        W83745  37.302  17.868  11.158
10678W        W83746  37.322  24.244  12.206
10679W        W83747  13.405   4.279   4.123
10680W        W83748  29.848  13.072  11.865
10681W        W83749  28.475   4.533   3.322
10682W        W83750   0.237   7.681  11.076
10683W        W83751  11.656  20.061  12.179
10684W        W83752  24.643  30.994   3.858
10685W        W83753  31.412  44.815   3.065
10686W        W83754   1.972  37.513   3.711
10687W        W83755   1.235  36.485   4.095
10688W        W83756  23.229  27.322   4.143
10689W        W83757   6.256   7.734  14.486
10690W        W83758  11.636  22.439   1.219
10691W        W83759  41.491  34.045   3.795
10692W        W83760   0.774  42.419   4.176
10693W        W83761  39.764  23.812  14.825
10694W        W83762   4.210   2.328   1.490
10695W        W83763  34.386  13.916  12.054
10696W        W83764  19.407  14.369  13.323
10697W        W83765   3.456   9.142  14.387
10698W        W83766   9.547   2.379  10.489
10699W        W83767  23.939  40.118   3.603
10700W        W83768  38.814  39.259   3.670
10701W        W83769   6.731  10.364  11.648
10702W        W83770  34.130  13.846  13.750
10703W        W83771  41.272  20.112   2.590
10704W        W83772  17.220  44.975   4.362
10705W        W83773  27.326   9.209  14.289
10706W        W83774   6.236  38.524  12.858
10707W        W83775  37.106  39.548  14.004
10708W        W83776  18.592  43.678   1.439
10709W        W83777  31.089   4.223   4.614
10710W        W83778  38.055   3.756  13.047
10711W        W83779  43.227  32.505  13.939
10712W        W83780  36.586  33.817  10.434
10713W        W83781  41.365  33.827   1.757
10714W        W83782  14.300  14.856  11.554
10715W        W83783  25.956   3.257  13.779
10716W        W83784  13.092  33.060   0.221
10717W        W83785  19.148  26.866   0.040
10718W        W83786   1.364  11.397   2.355
10719W        W83787  12.219  33.117   0.229
10720W        W83788  17.428  10.856   0.409
10721W        W83789  37.420   1.829   4.606
10722W        W83790   8.280  40.041   0.944
10723W        W83791  22.114  38.635  11.560
10724W        W83792  32.476  25.476   3.510
10725W        W83793  12.136  16.891   2.100
10726W        W83794  31.515   3.276   0.879
10727W        W83795   4.640  12.681  12.913
10728W        W83796   0.757   9.572  12.978
10729W        W83797  26.789  19.712  14.997
10730W        W83798   2.918  38.447   2.681
10731W        W83799  25.549  38.787   3.334
10732W        W83800   5.831  17.281   2.964
10733W        W83801  28.712   4.851  12.966
10734W        W83802   6.275  20.255   1.425
10735W        W83803  30.173  15.645   4.921
10736W        W83804   9.972   0.615  10.150
10737W        W83805   3.968  39.319   0.081
10738W        W83806  19.722   5.246   3.230
10739W        W83807   1.292  42.464   4.143
10740W        W83808  24.094  20.280   3.721
10741W        W83809  26.085   6.817  12.890
10742W        W83810  40.840   7.969   2.219
10743W        W83811  11.760   6.881   2.424
10744W        W83812  39.470  44.793   5.249
10745W        W83813  39.242  23.749  14.115
10746W        W83814  32.400  39.921   2.829
10747W        W83815  34.802   7.942  12.784
10748W        W83816  23.191  28.598   3.307
10749W        W83817  15.334  26.478   1.298
10750W        W83818  43.788  24.434  12.852
10751W        W83819  23.926  26.198  14.426
10752W        W83820   6.951  27.969  11.932
10753W        W83821  31.901  24.449  11.181
10754W        W83822   9.375  27.037  12.531
10755W        W83823  33.391  34.324   4.714
10756W        W83824   9.618  30.511   3.637
10757W        W83825   4.480   7.784  11.164
10758W        W83826  20.086  39.071  12.576
10759W        W83827  35.335  31.259   1.653
10760W        W83828   0.011  17.646  14.007
10761W        W83829   9.096  17.042  10.242
10762W        W83830  44.288  37.046   1.782
10763W        W83831  40.333   2.267  10.778
10764W        W83832  13.098  42.900  12.463
10765W        W83833  11.930   6.906   4.332
10766W        W83834  12.147  17.634  14.604
10767W        W83835  26.497   6.663   2.254
10768W        W83836  23.202  35.850   0.447
10769W        W83837  14.087  44.561   3.671
10770W        W83838   0.739  21.658   1.923
10771W        W83839  21.122  31.178  11.129
10772W        W83840  16.409  41.458  13.842
10773W        W83841  24.963  35.466   2.838
10774W        W83842  14.970   9.521   0.180
10775W        W83843  21.269  27.559  10.065
10776W        W83844   8.305  16.307  12.799
10777W        W83845  44.996   7.971   2.212
10778W        W83846   7.816   0.809  14.872
10779W        W83847  11.255   1.724   3.666
10780W        W83848  33.547  30.993  10.730
10781W        W83849  12.583  36.416   3.053
10782W        W83850  15.564  36.209  10.164
10783W        W83851   2.912  20.127  13.936
10784W        W83852  25.110  15.582  11.119
10785W        W83853  28.992  28.155  12.671
10786W        W83854  35.802  24.731   2.311
10787W        W83855  29.482  24.448   1.885
10788W        W83856  26.988  13.419  12.767
10789W        W83857  12.914   1.765  13.931
10790W        W83858  35.061  21.513  13.907
10791W        W83859  25.589   9.612  13.419
10792W        W83860  35.497  27.437  14.853
10793W        W83861  40.422   5.368   2.481
10794W        W83862  39.326  31.567  11.234
10795W        W83863   7.938  24.006   0.911
10796W        W83864  39.942  38.913   0.057
10797W        W83865  10.653   4.964   4.154
10798W        W83866  33.291  35.009   0.605
10799W        W83867  39.391  26.314  11.468
10800W        W83868  18.141  33.918   3.100
10801W        W83869  29.466  27.873  13.391
10802W        W83870   0.694  28.116  12.069
10803W        W83871  44.292  13.132   0.315
10804W        W83872  41.319  10.235   4.433
10805W        W83873  12.818  36.001   0.833
10806W        W83874  33.572   2.352  14.950
10807W        W83875  28.585   4.899  12.081
10808W        W83876   9.250  43.119   4.441
10809W        W83877  36.660  13.851  13.728
10810W        W83878  27.976  34.437  12.616
10811W        W83879  37.367  34.952   4.670
10812W        W83880  10.717  20.788  14.791
10813W        W83881   3.802   2.234  13.379
10814W        W83882  24.256  44.307   1.827
10815W        W83883  17.573   0.554  10.817
10816W        W83884  40.934   1.703   4.860
10817W        W83885  16.114   1.399   3.343
10818W        W83886  27.984  16.604   0.205
10819W        W83887  30.434   2.991   2.757
10820W        W83888  35.461  23.280  12.075
10821W        W83889   4.737  16.178   0.358
10822W        W83890  22.987  32.135  13.033
10823W        W83891  16.950  33.007   1.431
10824W        W83892  17.241  20.590   4.183
10825W        W83893  11.112  36.431   0.825
10826W        W83894  35.517  14.411  13.481
10827W        W83895   7.801  22.865   5.184
10828W        W83896  41.390  20.150  11.600
10829W        W83897  19.264  13.780  10.595
10830W        W83898  19.591   8.379   4.805
10831W        W83899  14.560  42.766  13.488
10832W        W83900  30.916  22.676   0.933
10833W        W83901   6.742  28.889  14.739
10834W        W83902   3.187  20.107   3.325
10835W        W83903  16.318  27.433   2.649
10836W        W83904  16.683  26.485  13.900
10837W        W83905  26.120  32.039   0.099
10838W        W83906  26.425  29.503  14.330
10839W        W83907  17.958  38.173  10.735
10840W        W83908  25.217  26.984   4.910
10841W        W83909  29.239  44.359  12.873
10842W        W83910  20.546  17.702  13.406
10843W        W83911  13.063  42.692   3.722
10844W        W83912  24.068  38.989  10.007
10845W        W83913  30.128   2.371   2.440
10846W        W83914  31.399  33.051   1.756
10847W        W83915  40.424  44.560   1.274
10848W        W83916  11.248  44.951  14.091
10849W        W83917  21.523  40.339  10.688
10850W        W83918   2.327  27.077   4.526
10851W        W83919  24.056  19.993   0.876
10852W        W83920  18.779  10.185  11.237
10853W        W83921   2.166  38.166  11.919
10854W        W83922   3.458  42.721   4.518
10855W        W83923  13.219  38.400  14.065
10856W        W83924  28.982  40.456   2.753
10857W        W83925  28.322  42.142  11.606
10858W        W83926   2.372  32.559  11.839
10859W        W83927  38.157  26.125   2.669
10860W        W83928  40.283   5.829   1.927
10861W        W83929   3.786  11.148  13.755
10862W        W83930  17.801   4.421   9.997
10863W        W83931  24.119  43.460   3.904
10864W        W83932  20.032  11.708  13.280
10865W        W83933  43.555   3.286   4.661
10866W        W83934  40.048  25.346   1.281
10867W        W83935   9.615   4.887   2.321
10868W        W83936  44.917  11.050   2.320
10869W        W83937   5.794  41.922  12.284
10870W        W83938  33.567  14.152  11.256
10871W        W83939  16.861  14.239  12.948
10872W        W83940   6.290   5.680  10.968
10873W        W83941  10.066  19.505   0.281
10874W        W83942  18.503  33.512   3.776
10875W        W83943  36.061  44.012   2.255
10876W        W83944  11.775  37.853   2.682
10877W        W83945  39.168   6.249   0.373
10878W        W83946  33.877  17.513  13.389
10879W        W83947  23.442  27.046  11.619
10880W        W83948  23.241  13.311   1.529
10881W        W83949  36.544   8.876  11.027
10882W        W83950  26.489  34.492   0.697
10883W        W83951  36.541   2.943  14.383
10884W        W83952  11.648  33.834  10.729
10885W        W83953  30.444  33.199  10.796
10886W        W83954  27.044  40.334   1.363
10887W        W83955  34.629  17.772   1.236
10888W        W83956  13.037  25.962  11.987
10889W        W83957  26.147  32.160  11.020
10890W        W83958  19.006  32.446   4.477
10891W        W83959  27.815  27.119   0.557
10892W        W83960  31.627  16.295  11.958
10893W        W83961  21.991  10.919   1.252
10894W        W83962  34.445   9.856   1.430
10895W        W83963  33.082  17.604   3.688
10896W        W83964  35.071  23.900   0.323
10897W        W83965  20.274  44.233  12.497
10898W        W83966  24.424  22.622  12.445
10899W        W83967  30.555  39.899  12.453
10900W        W83968   6.291  36.555  14.015
10901W        W83969  22.973   1.984   0.508
10902W        W83970   7.243  16.155  12.390
10903W        W83971  32.832  36.796  12.863
10904W        W83972  35.041   6.240   2.784
10905W        W83973  23.040  20.663  14.831
10906W        W83974   0.397  40.270   2.755
10907W        W83975   5.253  22.837   4.546
10908W        W83976  14.265  43.854   1.478
10909W        W83977  32.613  36.052  11.611
10910W        W83978  40.967  17.911   0.052
10911W        W83979  18.094  44.014   1.365
10912W        W83980  10.301  33.363  13.972
10913W        W83981  14.679   0.191  13.350
10914W        W83982   9.465  30.012  13.068
10915W        W83983  12.792  34.822   0.376
10916W        W83984  34.636   1.234   0.149
10917W        W83985  20.070  42.732  13.481
10918W        W83986   8.844  25.503  11.856
10919W        W83987  40.443  28.672  12.413
10920W        W83988  24.952  28.365   4.206
10921W        W83989   4.261  30.459  13.458
10922W        W83990  14.345  34.483  12.005
10923W        W83991   9.550  39.621   5.520
10924W        W83992  14.441  25.398  13.891
10925W        W83993  41.282  26.059  12.109
10926W        W83994  14.758  28.116  14.173
10927W        W83995   9.827  38.746  10.871
10928W        W83996  29.384  43.326  12.012
10929W        W83997  37.823  37.210   2.281
10930W        W83998  26.472  40.827  14.370
10931W        W83999   6.950   5.870   3.633
10932W        W84000  18.841  17.045   3.211
10933W        W84001  15.282   3.435  10.974
10934W        W84002  34.305  33.806  13.517
10935W        W84003  20.312  27.107  12.449
10936W        W84004  26.691  18.375   3.178
10937W        W84005  24.228  35.668  14.763
10938W        W84006  32.690  23.199   0.376
10939W        W84007  17.314  13.713  14.015
10940W        W84008   0.850  39.632  11.198
10941W        W84009  35.063   2.684   4.053
10942W        W84010   0.610   5.961   0.885
10943W        W84011  39.543  10.129  11.111
10944W        W84012   3.850  45.000   4.690
10945W        W84013  15.142  29.215   0.888
10946W        W84014  37.377  22.741   0.346
10947W        W84015  18.759  22.699   3.746
10948W        W84016  19.502  23.073   2.200
10949W        W84017  10.153   7.262   4.810
10950W        W84018   5.998  35.713   1.002
10951W        W84019  33.053  30.687   0.477
10952W        W84020  28.236  10.647   4.964
10953W        W84021  23.582  43.280  13.379
10954W        W84022   3.238  20.157   0.684
10955W        W84023  27.754   7.769   4.843
10956W        W84024  30.102  43.754   0.293
10957W        W84025  17.361  29.986  13.776
10958W        W84026  37.611  16.980  13.067
10959W        W84027   7.700  24.664   4.663
10960W        W84028  32.891  41.707   1.221
10961W        W84029  30.060  14.805  14.930
10962W        W84030   0.570  20.748  14.673
10963W        W84031  13.459  17.815   2.085
10964W        W84032  32.716  33.715  11.379
10965W        W84033  35.453  27.977   1.939
10966W        W84034  20.908   8.735   4.257
10967W        W84035  12.429  18.129  14.281
10968W        W84036  18.801  18.347   2.834
10969W        W84037  34.726   8.329  12.062
10970W        W84038  36.806  39.217  11.682
10971W        W84039   9.243   5.168  10.692
10972W        W84040  22.307   8.715   0.690
10973W        W84041  14.549   4.753  13.108
10974W        W84042  22.032   8.123   1.777
10975W        W84043  34.358  25.082  14.086
10976W        W84044  10.297   8.136  11.191
10977W        W84045  12.097  20.450  11.153
10978W        W84046  31.416   5.822   0.387
10979W        W84047  10.165  13.868  10.905
10980W        W84048   0.194  41.950   4.655
10981W        W84049  44.882   0.841   4.720
10982W        W84050  43.262   5.728  12.795
10983W        W84051  28.742  13.814   3.757
10984W        W84052   7.635  31.260  13.119
10985W        W84053  24.610  14.795  13.204
10986W        W84054  17.540  35.868  13.583
10987W        W84055  39.537  35.926  12.298
10988W        W84056   0.753  32.372   2.724
10989W        W84057  26.667   7.766   3.934
10990W        W84058   5.918  27.095  13.670
10991W        W84059  22.305   7.232  13.005
10992W        W84060  44.966   0.098  11.584
10993W        W84061  43.873  35.425   3.376
10994W        W84062   6.307  43.258  14.158
10995W        W84063  30.521  36.992   2.460
10996W        W84064  12.479   9.713  12.222
10997W        W84065  30.880  40.747  13.079
10998W        W84066  32.210  42.522   2.721
10999W        W84067  18.455  44.910  13.739
11000W        W84068   9.305  12.756   4.639
11001W        W84069  41.035  24.102  10.633
11002W        W84070  27.726   2.270   2.709
11003W        W84071  24.785  13.115  14.359
11004W        W84072  11.445   7.283   3.542
11005W        W84073   2.014   5.748   1.822
11006W        W84074  12.323  11.691   0.889
11007W        W84075   4.221  36.992  11.595
11008W        W84076  14.300   2.998  13.759
11009W        W84077  29.238  13.791   4.684
11010W        W84078   5.580  26.028  14.059
11011W        W84079  13.656   3.882   4.365
11012W        W84080  41.539   5.454   3.764
11013W        W84081  28.234   5.475   0.660
11014W        W84082  43.983  27.885  12.889
11015W        W84083   3.411  33.294  14.799
11016W        W84084  15.313  24.996  10.404
11017W        W84085  44.233  20.995   4.310
11018W        W84086   4.970  11.653   5.129
11019W        W84087  20.308  39.925  14.886
11020W        W84088  37.920  11.080  11.628
11021W        W84089  43.260  26.635  11.998
11022W        W84090   4.723  16.423  13.330
11023W        W84091   4.381   2.904   2.074
11024W        W84092  30.185   7.225   4.539
11025W        W84093  11.836  32.617  12.541
11026W        W84094  11.765   5.812   1.910
11027W        W84095  14.660  39.850  11.527
11028W        W84096  27.923  37.318  12.003
11029W        W84097  43.780  38.829  14.816
11030W        W84098  24.862   9.750  13.155
11031W        W84099   7.682  13.779  10.767
11032W        W84100  21.466   1.920  12.139
11033W        W84101   2.940  38.918   0.930
11034W        W84102   6.820  17.496   0.657
11035W        W84103  42.912  15.041  12.064
11036W        W84104   1.315  39.357   2.941
11037W        W84105  18.194  33.461   3.339
11038W        W84106  28.529  33.892  14.381
11039W        W84107   4.970  38.335  10.457
11040W        W84108  12.231   0.757   1.522
11041W        W84109  29.957   4.959   0.669
11042W        W84110  18.107  36.435  11.267
11043W        W84111  37.426  30.352  10.333
11044W        W84112  32.338  13.373   3.869
11045W        W84113   5.798  33.841   1.033
11046W        W84114   8.589  19.191  14.450
11047W        W84115   3.242  18.012   3.777
11048W        W84116  11.330  20.751   1.306
11049W        W84117   8.435  23.160  11.325
11050W        W84118  27.713  20.123   2.207
11051W        W84119   0.027  13.324  11.588
11052W        W84120  12.118   7.586   0.844
11053W        W84121   8.317  35.625  13.616
11054W        W84122   7.821  29.853   1.501
11055W        W84123   3.847  30.726   3.565
11056W        W84124   8.442   6.982   1.015
11057W        W84125   3.384  29.406   0.953
11058W        W84126  43.735  19.957   0.963
11059W        W84127  37.355  18.550  10.721
11060W        W84128  21.193   5.617  10.078
11061W        W84129  28.315  31.140   4.401
11062W        W84130  25.565  30.405   3.591
11063W        W84131  43.413  40.834   4.199
11064W        W84132  18.794  26.746   2.651
11065W        W84133  35.963  13.388  10.999
11066W        W84134  35.411  37.297   0.407
11067W        W84135  18.713  35.537   1.565
11068W        W84136  31.632   1.692   4.573
11069W        W84137  31.898  29.135   1.914
11070W        W84138  28.745  32.567   4.335
11071W        W84139  16.252   0.836  11.762
11072W        W84140   2.699  29.427  11.248
11073W        W84141   8.813  14.421   0.962
11074W        W84142  29.122  13.593  11.952
11075W        W84143  11.427   9.789   2.556
11076W        W84144   4.310  19.575  12.985
11077W        W84145   3.489  17.065  12.030
11078W        W84146  17.841   2.329   3.772
11079W        W84147  28.566  41.864   0.053
11080W        W84148   6.438  19.753  11.886
11081W        W84149  10.185  28.638   3.125
11082W        W84150  38.042  17.695  10.656
11083W        W84151  40.809  39.322  14.742
11084W        W84152  13.438  28.988   2.285
11085W        W84153  18.193  36.439  12.702
11086W        W84154  12.820  41.440  11.564
11087W        W84155   4.320  16.167   2.122
11088W        W84156  33.758   2.834  10.682
11089W        W84157  22.192   2.386   1.402
11090W        W84158  20.002  23.744   2.807
11091W        W84159  18.504  35.973  12.811
11092W        W84160  36.497  20.099   4.577
11093W        W84161  39.106   8.469  13.850
11094W        W84162  42.491  19.134  14.345
11095W        W84163  19.095  15.343   2.938
11096W        W84164  15.651  18.117  11.605
11097W        W84165  31.291  18.784   3.279
11098W        W84166  25.540  18.876   2.924
11099W        W84167  16.110  29.366  13.335
11100W        W84168   7.624   4.725   0.075
11101W        W84169  11.822  23.771  13.935
11102W        W84170  31.946  44.248   0.851
11103W        W84171  14.695  22.713  12.088
11104W        W84172  30.973  16.022  10.704
11105W        W84173  31.148  14.568   2.354
11106W        W84174  42.458  38.314  11.175
11107W        W84175   4.349  39.298   0.419
11108W        W84176   3.345  30.379   2.746
11109W        W84177   6.468  10.298   0.001
11110W        W84178  27.984  10.438   2.328
11111W        W84179  25.024   3.240  13.796
11112W        W84180  31.922  22.932   1.033
11113W        W84181  11.950  18.184   3.811
11114W        W84182  12.393   9.878  14.123
11115W        W84183   1.947  28.404  14.465
11116W        W84184  33.316  20.592  12.801
11117W        W84185   4.389  39.011   1.912
11118W        W84186  38.752   1.977   0.336
11119W        W84187  10.364  26.154  12.400
11120W        W84188   5.384   1.508  14.322
11121W        W84189   8.897   8.395   0.754
11122W        W84190  14.588  32.443  13.592
11123W        W84191  18.494   9.221  12.006
11124W        W84192  27.865  40.959  11.308
11125W        W84193  22.152   3.214   2.960
11126W        W84194  29.617  38.403  12.151
11127W        W84195   0.735   5.785   1.348
11128W        W84196  35.825   2.589   2.187
11129W        W84197   2.446  15.664  10.736
11130W        W84198  12.874  20.274   1.240
11131W        W84199  10.165  26.113  14.882
11132W        W84200  36.854   5.368  11.937
11133W        W84201  30.596   4.843  13.583
11134W        W84202  28.441  14.364   0.836
11135W        W84203  27.408  37.954   2.963
11136W        W84204  23.753   4.758  13.864
11137W        W84205  34.494  22.152  10.791
11138W        W84206  40.489   1.795  13.576
11139W        W84207  37.381  26.570   0.377
11140W        W84208  44.714  14.068  12.073
11141W        W84209   2.361  42.106   1.677
11142W        W84210   2.777  34.327   3.228
11143W        W84211  23.739  18.664   4.621
11144W        W84212  38.822  23.242  12.085
11145W        W84213  22.878   2.466   0.264
11146W        W84214   4.787  35.839  12.485
11147W        W84215  14.699  31.199   2.891
11148W        W84216   3.752  37.257  10.995
11149W        W84217  31.066  22.982   1.797
11150W        W84218  12.925   9.220  13.357
11151W        W84219  18.048  14.176   1.806
11152W        W84220  39.124  32.460  13.739
11153W        W84221  37.937   6.387   0.780
11154W        W84222  24.411  33.596   0.879
11155W        W84223  19.010   1.969  14.904
11156W        W84224   1.829  12.676  12.942
11157W        W84225   6.712  36.357   3.696
11158W        W84226   0.287  38.277   3.880
11159W        W84227  22.990  11.286  10.726
11160W        W84228   1.965  10.893  13.488
11161W        W84229  11.322  29.215   1.657
11162W        W84230  34.617  35.883  13.037
11163W        W84231  29.600   0.428   1.603
11164W        W84232  12.668  13.255  12.049
11165W        W84233  17.531  24.624  12.422
11166W        W84234  22.098  14.057   3.656
11167W        W84235  27.350  42.322  12.500
11168W        W84236  22.153   6.239  11.498
11169W        W84237  40.873  33.833  11.881
11170W        W84238  22.635  11.291   3.656
11171W        W84239  14.141  26.894  10.859
11172W        W84240  19.503  43.762   1.340
11173W        W84241  23.813  29.418   0.377
11174W        W84242   3.401  26.545  12.275
11175W        W84243  11.810  31.562   0.397
11176W        W84244  30.487  23.628  12.233
11177W        W84245  32.486   0.896   2.842
11178W        W84246  23.678  16.224   1.001
11179W        W84247   2.416   9.555  13.525
11180W        W84248  20.289  39.400   2.173
11181W        W84249  14.553  25.109  12.978
11182W        W84250   0.370   0.381  10.511
11183W        W84251  24.417   1.044   1.756
11184W        W84252   2.511  16.057  12.306
11185W        W84253   3.178  13.960  12.029
11186W        W84254  31.950  32.546  10.618
11187W        W84255  10.223  31.618  13.568
11188W        W84256  22.529  38.428   4.524
11189W        W84257   4.430  34.004   1.403
11190W        W84258  11.622  27.055   4.096
11191W        W84259  33.912  44.340   4.538
11192W        W84260  28.509  19.034   3.383
11193W        W84261  10.815  13.125   1.372
11194W        W84262   9.025  23.016   3.170
11195W        W84263  39.980  13.085   0.768
11196W        W84264   2.497   5.341   2.309
11197W        W84265  16.802  28.363  14.640
11198W        W84266   1.763  25.500  13.386
11199W        W84267   6.522   0.827  13.150
11200W        W84268  29.430  24.093   2.795
11201W        W84269   0.558  34.522   2.966
11202W        W84270  32.480  29.116  12.877
11203W        W84271   9.343  41.944  10.903
11204W        W84272  33.118  20.018  14.839
11205W        W84273   2.254  42.283  13.992
11206W        W84274  11.584  38.869  14.812
11207W        W84275  15.775  38.109   3.763
11208W        W84276  30.491  15.321  14.474
11209W        W84277  23.724  16.793  11.929
11210W        W84278  40.816  28.171   1.841
11211W        W84279  43.257   7.786  14.693
11212W        W84280  14.869   8.447   2.550
11213W        W84281  26.817  44.004   3.602
11214W        W84282  24.848  25.490  11.457
11215W        W84283   5.292  40.886   4.287
11216W        W84284  24.490   9.421  10.554
11217W        W84285   0.213  12.314  10.761
11218W        W84286   2.285  32.575  11.308
11219W        W84287  27.700  13.111  10.659
11220W        W84288  39.140  14.050   2.836
11221W        W84289  17.998  43.227   3.687
11222W        W84290  20.071  44.499  12.094
11223W        W84291  27.147   2.088   1.327
11224W        W84292  14.073  19.064   3.181
11225W        W84293  20.272   7.689   3.672
11226W        W84294  19.864   4.931   0.531
11227W        W84295  12.238   5.306   1.466
11228W        W84296   0.330  10.033  13.747
11229W        W84297  15.826   6.913  12.047
11230W        W84298  33.138  35.489   3.756
11231W        W84299   2.475  33.021  12.628
11232W        W84300  14.583  35.975   0.817
11233W        W84301  38.578  29.393  11.575
11234W        W84302  35.046  15.119   0.016
11235W        W84303  31.371  21.947   0.300
11236W        W84304   5.296   2.142  13.309
11237W        W84305  19.656  19.774   1.009
11238W        W84306  29.636  26.090   4.678
11239W        W84307  30.708  25.032   4.302
11240W        W84308  38.092   0.529  11.519
11241W        W84309  43.051   2.748  14.714
11242W        W84310   3.631  39.539   0.910
11243W        W84311  24.153  29.707   2.972
11244W        W84312   4.506  12.666   1.801
11245W        W84313   8.758   9.954   3.339
11246W        W84314  21.829  17.608   3.366
11247W        W84315   6.165   0.857   3.942
11248W        W84316  25.806  42.845  14.836
11249W        W84317  18.182  25.214   2.919
11250W        W84318  29.584  16.131  11.068
11251W        W84319   9.314  21.174  11.597
11252W        W84320  29.517  32.635  14.910
11253W        W84321  29.884  26.624  12.490
11254W        W84322  34.510  19.321  13.994
11255W        W84323  26.137  38.979   0.531
11256W        W84324   2.811   6.939  10.625
11257W        W84325  36.481   2.129  13.734
11258W        W84326  34.066  31.379   1.800
11259W        W84327  37.392  41.931   0.463
11260W        W84328  39.558  11.300   0.352
11261W        W84329  23.746  39.475   0.444
11262W        W84330  25.708  19.747  13.638
11263W        W84331  42.908  15.993   0.773
11264W        W84332  35.452  27.130   4.919
11265W        W84333   1.869  21.366   5.014
11266W        W84334  41.819  35.891   5.081
11267W        W84335  36.426  11.310   3.415
11268W        W84336  38.611  11.614   4.036
11269W        W84337  12.190  37.853   3.255
11270W        W84338  24.257  23.335  12.492
11271W        W84339  30.579  37.163   1.982
11272W        W84340  38.085   3.878   1.823
11273W        W84341  40.146   9.186   4.533
11274W        W84342  33.408   3.705   3.232
11275W        W84343  23.937  30.769  13.470
11276W        W84344  22.482  10.746  13.412
11277W        W84345  34.728  32.128  10.670
11278W        W84346  41.493  11.904  14.418
11279W        W84347  11.709  29.380  11.177
11280W        W84348  29.068  29.138  11.410
11281W        W84349  18.736  40.904  12.896
11282W        W84350   0.063  24.137  10.677
11283W        W84351   9.708   8.220  11.925
11284W        W84352   3.940  41.857  14.656
11285W        W84353  35.916  25.160   0.670
11286W        W84354  24.978   6.332  12.319
11287W        W84355  12.074   7.428  13.937
11288W        W84356   8.753  21.355  10.638
11289W        W84357  19.457  37.903   2.304
11290W        W84358   4.742  39.866   3.663
11291W        W84359   7.647  22.454   4.877
11292W        W84360  23.431  23.470  11.689
11293W        W84361  15.315  27.475   1.498
11294W        W84362  17.272  36.299   3.798
11295W        W84363   7.952  42.861  13.375
11296W        W84364  12.403  24.246  11.201
11297W        W84365  15.225  18.105  11.200
11298W        W84366  16.533  26.118   0.857
11299W        W84367   0.114  17.716  13.052
11300W        W84368  29.717  42.152  13.215
11301W        W84369  35.423   0.813   0.063
11302W        W84370  25.450  39.652  12.910
11303W        W84371  40.261  17.082  12.371
11304W        W84372  44.565  28.535  13.960
11305W        W84373  16.958  33.529   0.837
11306W        W84374  23.167  29.372   2.824
11307W        W84375   7.794  12.907  13.220
11308W        W84376  21.158  16.232  11.373
11309W        W84377   6.917  35.158  14.866
11310W        W84378  18.904   3.672   1.041
11311W        W84379  17.332  37.481   1.779
11312W        W84380  42.395  42.420  13.423
11313W        W84381  14.120  26.121   3.739
11314W        W84382   3.528  28.532  11.542
11315W        W84383   3.571   1.781   2.427
11316W        W84384  26.836  39.770   4.244
11317W        W84385  20.908  34.956  10.616
11318W        W84386  25.831   8.879  11.277
11319W        W84387  28.580  32.476  12.741
11320W        W84388  37.494   1.252   1.335
11321W        W84389  15.381  36.222   3.820
11322W        W84390  26.525   7.755   0.722
11323W        W84391  38.078  28.457   3.392
11324W        W84392  16.546  37.292   1.363
11325W        W84393   2.810  10.462   2.291
11326W        W84394  14.113  13.910   1.424
11327W        W84395  40.489  26.667  13.385
11328W        W84396  20.731  33.582  14.899
11329W        W84397  13.194  12.175   1.807
11330W        W84398   4.320  41.024  13.137
11331W        W84399  23.192  28.427  12.495
11332W        W84400  21.052   7.873   4.280
11333W        W84401  36.823  23.535   2.420
11334W        W84402  35.926  36.569   0.256
11335W        W84403  35.055   4.366   2.537
11336W        W84404  39.357  28.447  13.915
11337W        W84405  23.629  33.402   4.254
11338W        W84406  19.453  40.762   2.845
11339W        W84407   2.942  43.262  14.476
11340W        W84408  19.005  23.278   0.606
11341W        W84409  25.039  33.078  11.133
11342W        W84410  13.739  35.792  13.401
11343W        W84411  35.575  15.527  10.701
11344W        W84412  23.603  22.812  12.994
11345W        W84413   2.846  16.695   4.490
11346W        W84414  40.745  37.772  12.516
11347W        W84415  34.589  22.904  12.989
11348W        W84416  32.562  21.914  13.883
11349W        W84417   2.215  32.022  11.058
11350W        W84418  14.396  30.842  14.422
11351W        W84419  22.649   0.861  12.384
11352W        W84420  12.324  42.427  13.186
11353W        W84421  18.157   6.175   4.652
11354W        W84422   8.894  29.256  11.903
11355W        W84423  16.642   1.502   0.928
11356W        W84424  40.622  35.463  13.410
11357W        W84425  36.330  24.537  13.582
11358W        W84426  26.038  25.661   3.272
11359W        W84427  42.655  29.200  11.954
11360W        W84428   6.024  30.492   3.198
11361W        W84429  32.044  20.902  13.607
11362W        W84430  14.948  10.709  13.901
11363W        W84431  42.685  35.057  12.495
11364W        W84432  40.247  20.734  13.453
11365W        W84433  13.687  22.621  10.610
11366W        W84434  44.226  36.980  14.999
11367W        W84435  43.909  30.912   0.577
11368W        W84436  38.870   9.627   2.420
11369W        W84437   1.145  19.782  14.997
11370W        W84438   5.062  41.012  13.647
11371W        W84439  37.099  30.029  13.921
11372W        W84440   5.793   4.319   4.636
11373W        W84441   3.688  32.072   3.157
11374W        W84442  40.842  38.574   0.881
11375W        W84443  42.289  37.361  11.572
11376W        W84444  24.338  31.941  11.531
11377W        W84445  17.686  26.652   3.251
11378W        W84446  31.578   7.754  13.624
11379W        W84447  25.885  11.632  11.434
11380W        W84448  28.958   6.334  12.941
11381W        W84449  40.468  35.789   3.354
11382W        W84450  44.017  17.877   2.611
11383W        W84451  22.557   0.908  14.814
11384W        W84452  15.735  27.410  11.978
11385W        W84453   6.452  14.257  13.932
11386W        W84454   8.421  28.854   2.477
11387W        W84455   5.322  42.739  12.659
11388W        W84456  18.568   8.276   2.822
11389W        W84457  23.702  36.113  13.005
11390W        W84458  42.325  16.085  12.185
11391W        W84459  22.456  24.558  12.897
11392W        W84460   4.750  44.568  12.152
11393W        W84461  21.749  28.582  11.621
11394W        W84462  38.960  16.477  11.223
11395W        W84463   5.398  13.749  10.769
11396W        W84464   9.862  12.725   0.306
11397W        W84465  16.045  26.678  12.613
11398W        W84466  32.241  42.664   3.224
11399W        W84467  22.286   7.464  11.251
11400W        W84468  43.792  26.712   1.654
11401W        W84469  14.252  21.626   4.133
11402W        W84470  30.688   6.156   2.864
11403W        W84471  43.347   5.061   0.494
11404W        W84472  43.846  22.344  14.340
11405W        W84473  28.723  34.426  12.953
11406W        W84474  40.697  16.052  12.659
11407W        W84475  42.335  16.585  10.971
11408W        W84476   7.077  37.222  10.772
11409W        W84477  36.249  14.880   0.247
11410W        W84478  13.379   7.334   1.161
11411W        W84479  22.305  25.546   3.903
11412W        W84480  29.679  10.139  12.759
11413W        W84481  31.066  42.047   3.709
11414W        W84482  43.490  18.188   1.904
11415W        W84483  13.800  23.697   0.493
11416W        W84484  30.929   3.311   0.240
11417W        W84485  27.153  36.997   4.569
11418W        W84486  15.069  14.644  14.595
11419W        W84487  40.204   0.866   2.077
11420W        W84488  16.191  19.576  12.527
11421W        W84489   9.476  40.167  12.520
11422W        W84490  22.157   7.673   4.272
11423W        W84491   6.885  24.185   4.439
11424W        W84492  18.468   6.323   2.168
11425W        W84493  30.472  13.985  11.162
11426W        W84494  16.892  41.984  14.973
11427W        W84495  23.140  25.590  13.503
11428W        W84496  29.698   9.490   2.267
11429W        W84497  43.779   9.713  10.746
11430W        W84498   6.458   1.443   4.910
11431W        W84499  11.834  15.754   4.847
11432W        W84500  33.296   3.382  13.400
11433W        W84501  26.642  30.156   2.136
11434W        W84502   4.841   4.347  14.470
11435W        W84503   7.369  28.443  13.621
11436W        W84504   3.919  42.997  12.561
11437W        W84505  39.557  21.141   4.616
11438W        W84506  20.665  34.572   1.845
11439W        W84507   9.350  27.063   4.602
11440W        W84508  44.737  17.134   3.675
11441W        W84509  13.185  42.424   1.384
11442W        W84510  41.876  23.935   0.526
11443W        W84511  33.105   7.197   0.025
11444W        W84512  14.252  14.781   4.758
11445W        W84513  44.969   7.805   3.561
11446W        W84514   1.965  33.126  14.568
11447W        W84515   0.942  36.774   2.866
11448W        W84516   2.537  28.356  10.422
11449W        W84517  42.759   9.427   1.797
11450W        W84518  13.098  41.631   4.672
11451W        W84519   7.276  19.211   1.051
11452W        W84520  23.323  42.534  12.108
11453W        W84521  19.718  16.211  13.030
11454W        W84522  23.670   6.837  13.479
11455W        W84523  42.497  43.407   1.242
11456W        W84524  25.510  36.109   0.294
11457W        W84525  30.469  10.081   3.807
11458W        W84526  30.608  11.044  14.428
11459W        W84527  23.240  44.049   1.301
11460W        W84528   1.051  37.893  14.384
11461W        W84529  43.033  41.519   0.544
11462W        W84530  23.246  26.040   4.441
11463W        W84531   2.883  20.488   4.271
11464W        W84532  14.087  37.813   0.850
11465W        W84533  32.106  21.007  14.521
11466W        W84534  16.115  35.432   4.931
11467W        W84535  32.033  27.542  11.027
11468W        W84536  26.413   3.846  13.524
11469W        W84537  15.347  14.196  13.862
11470W        W84538  17.372  26.687   5.011
11471W        W84539  38.233  10.102  11.494
11472W        W84540  38.366  17.087   4.578
11473W        W84541  17.148  25.262  13.807
11474W        W84542  33.849  18.474   4.033
11475W        W84543  10.728  33.622  14.058
11476W        W84544  32.332  36.295  14.911
11477W        W84545  29.587  36.916   1.578
11478W        W84546  33.261  21.535  12.176
11479W        W84547   3.068  26.619   9.840
11480W        W84548  20.226  37.988   0.502
11481W        W84549  22.076  16.804   0.913
11482W        W84550  17.516  17.593   4.928
11483W        W84551  16.218  30.413   1.271
11484W        W84552  39.524  13.253  13.668
11485W        W84553  23.798   3.173  10.326
11486W        W84554  38.470   4.965  14.277
11487W        W84555  35.316   8.869   2.696
11488W        W84556  33.602  18.590  12.467
11489W        W84557  20.693  17.596  14.828
11490W        W84558  43.056  18.463  13.337
11491W        W84559  19.977  13.577   1.465
11492W        W84560  35.634  11.318   0.827
11493W        W84561  30.023  15.563   2.614
11494W        W84562  40.762  21.515  12.913
11495W        W84563  32.213  19.754   1.058
11496W        W84564  15.217  43.839   0.597
11497W        W84565  14.076  22.593   4.589
11498W        W84566  18.257  11.898  13.030
11499W        W84567  24.559  35.973  10.555
11500W        W84568  32.158  24.802   1.131
11501W        W84569  39.915  44.836  10.676
11502W        W84570  26.637   1.901   4.529
11503W        W84571  34.952  20.568   2.707
11504W        W84572  20.111  41.990  10.521
11505W        W84573  25.931   1.423  11.983
11506W        W84574  40.202  43.594   1.548
11507W        W84575  39.832  31.595  11.168
11508W        W84576  16.316  31.218   0.817
11509W        W84577  15.288  23.594   0.293
11510W        W84578  38.330  10.299   2.166
11511W        W84579  11.279   7.127  12.540
11512W        W84580  13.918   3.842   0.288
11513W        W84581  40.634   4.371   1.704
11514W        W84582  39.124  15.769   0.784
11515W        W84583   4.623  32.636  12.175
11516W        W84584   5.732   5.900  13.107
11517W        W84585  37.825  14.759   1.421
11518W        W84586  16.541  20.154  12.002
11519W        W84587  16.332  31.602  12.087
11520W        W84588  13.254  23.750   2.802
11521W        W84589  20.181  10.889   0.804
11522W        W84590  37.466  31.964   1.259
11523W        W84591  40.510  35.669   2.818
11524W        W84592  38.149  37.102   1.748
11525W        W84593   4.275  20.262   0.354
11526W        W84594   2.554   5.865   0.946
11527W        W84595  38.753   6.368  12.783
11528W        W84596  39.328  30.398  12.857
11529W        W84597  25.339  18.074   0.559
11530W        W84598  17.388  11.304  13.023
11531W        W84599  40.578   1.733   2.623
11532W        W84600  35.888  37.245  14.545
11533W        W84601   1.324  16.885  11.211
11534W        W84602  17.325  10.171   2.362
11535W        W84603   7.873  26.930   1.810
11536W        W84604  19.759   4.521  12.155
11537W        W84605  23.177  32.854   3.856
11538W        W84606   3.908  31.586   4.250
11539W        W84607  36.301  31.903  14.198
11540W        W84608   7.929  43.527   0.676
11541W        W84609  17.766   9.850   4.604
11542W        W84610  10.079  27.590   4.111
11543W        W84611   1.286  22.693   2.174
11544W        W84612  26.507  33.299  14.822
11545W        W84613  36.145  37.877  13.426
11546W        W84614  24.055   8.199  10.949
11547W        W84615  42.314  40.864  11.931
11548W        W84616  31.649  24.663   4.520
11549W        W84617  30.399  22.578   0.925
11550W        W84618  16.637  24.698   1.870
11551W        W84619  28.457  36.510  11.940
11552W        W84620  25.051   2.483   0.991
11553W        W84621  15.822   4.823  13.282
11554W        W84622   3.435  33.444  11.450
11555W        W84623  31.067  38.627  13.964
11556W        W84624  33.123  11.872  14.266
11557W        W84625  17.184  31.258   3.158
11558W        W84626  14.682  27.280  11.487
11559W        W84627  39.268  25.663   1.722
11560W        W84628   7.931  23.683  11.092
11561W        W84629  15.171   7.329   3.215
11562W        W84630  26.386  20.318   4.173
11563W        W84631  33.434  18.057   2.176
11564W        W84632  43.300   5.909   3.602
11565W        W84633  25.100  18.986   4.385
11566W        W84634  16.185  38.556   0.253
11567W        W84635   2.576  18.060  11.317
11568W        W84636  25.717   1.201  14.404
11569W        W84637  33.495  24.696   4.334
11570W        W84638  42.789  41.388   2.723
11571W        W84639  12.034  22.147  14.387
11572W        W84640   6.887  26.320   1.764
11573W        W84641  11.577  21.577   1.547
11574W        W84642  21.204  11.339  13.223
11575W        W84643  19.277  42.983   4.560
11576W        W84644  43.823  36.810  13.200
11577W        W84645  35.404  24.093   3.640
11578W        W84646  41.883  35.559  12.884
11579W        W84647  29.119  38.463  11.930
11580W        W84648   1.436   4.166   2.307
11581W        W84649  33.483  25.227   2.156
11582W        W84650   3.866  29.273  11.036
11583W        W84651  17.520  12.840   2.046
11584W        W84652  38.606  39.559  14.539
11585W        W84653  27.300  19.691  11.238
11586W        W84654   0.506  16.869  13.144
11587W        W84655   6.043  37.830   0.844
11588W        W84656  21.051  37.491  12.524
11589W        W84657  31.362  27.543  13.086
11590W        W84658  19.923   3.644   3.673
11591W        W84659  10.802   6.474  12.972
11592W        W84660  22.138  34.644  11.088
11593W        W84661  31.355  28.041  11.004
11594W        W84662  21.221  10.229   1.917
11595W        W84663  27.835  13.824   0.774
11596W        W84664   7.525  43.751  12.919
11597W        W84665   3.929  14.336   4.522
11598W        W84666  20.029  14.281   2.257
11599W        W84667   1.662  20.929   2.125
11600W        W84668   6.230  30.586   4.069
11601W        W84669  32.600  19.656   5.252
11602W        W84670  23.727  23.281  12.054
11603W        W84671  13.803  44.153  11.161
11604W        W84672  19.842  42.583  12.117
11605W        W84673  15.768  24.260  11.916
11606W        W84674  27.386  36.911   3.319
11607W        W84675  32.390  41.050   1.811
11608W        W84676   9.296  25.134  14.823
11609W        W84677  18.198  35.448   1.187
11610W        W84678  27.275  40.547  12.944
11611W        W84679  41.327   4.210  14.843
11612W        W84680  35.606   1.262  12.561
11613W        W84681  30.385  42.182  13.022
11614W        W84682   1.754  15.273   3.937
11615W        W84683   0.918   8.222   3.503
11616W        W84684  35.300  26.525   2.834
11617W        W84685  27.606  28.321   2.432
11618W        W84686  41.884  14.770   1.774
11619W        W84687  41.920  39.667  13.435
11620W        W84688  11.545  10.805   2.408
11621W        W84689  15.854  35.537   0.312
11622W        W84690  27.159   7.347  14.697
11623W        W84691  34.371  35.586   4.105
11624W        W84692   0.204  29.830   2.320
11625W        W84693   9.972   3.192  12.448
11626W        W84694  16.958   6.524  11.526
11627W        W84695   9.160  42.630   4.615
11628W        W84696  32.088  15.776   0.848
11629W        W84697   7.842  21.524   0.462
11630W        W84698  11.158   6.887  12.111
11631W        W84699   3.947  17.305   0.492
11632W        W84700  28.195  32.479  11.447
11633W        W84701  19.835  11.100  12.592
11634W        W84702  18.615  42.507  13.416
11635W        W84703   7.584  20.591  11.582
11636W        W84704  38.097  32.015   3.750
11637W        W84705  34.010   8.288  10.813
11638W        W84706  17.282  18.086  14.992
11639W        W84707  25.361  10.214  14.041
11640W        W84708  23.977  33.324   0.937
11641W        W84709  32.704   9.814  11.149
11642W        W84710  42.523   4.172   3.318
11643W        W84711  19.745  32.916   0.876
11644W        W84712  17.034   3.495  14.128
11645W        W84713  19.324  16.144   4.564
11646W        W84714  35.482  18.279  12.903
11647W        W84715  18.754  28.445  13.588
11648W        W84716  36.346  35.304   4.359
11649W        W84717  27.335  38.864   0.007
11650W        W84718   0.358  28.045   0.711
11651W        W84719  23.389  19.042   4.584
11652W        W84720  11.183   5.732  12.952
11653W        W84721  34.264  17.659  13.750
11654W        W84722  31.614   5.743  13.453
11655W        W84723  22.233  18.102  12.527
11656W        W84724  23.718  43.677   4.140
11657W        W84725  21.997  15.181  11.230
11658W        W84726  35.910  18.399  11.189
11659W        W84727   6.785   0.774   1.040
11660W        W84728   5.857   9.329   0.481
11661W        W84729   7.275  40.773   3.350
11662W        W84730  16.058   8.104   4.090
11663W        W84731  13.835  24.678  12.568
11664W        W84732  26.402   8.381   2.737
11665W        W84733  27.977  16.512  11.496
11666W        W84734   7.616  43.271  14.520
11667W        W84735  44.013  16.593  11.491
11668W        W84736  20.023  44.339   4.949
11669W        W84737   6.276  31.653   3.111
11670W        W84738  19.481  13.258  12.826
11671W        W84739   0.899  23.417   0.553
11672W        W84740  34.914  39.994   1.222
11673W        W84741  32.433  33.710  14.918
11674W        W84742  35.136  20.735  13.430
11675W        W84743  41.597   6.358  13.370
11676W        W84744  44.878  14.671  11.233
11677W        W84745  24.485  13.125   4.252
11678W        W84746  24.152  16.436   3.201
11679W        W84747   5.481  43.875   3.985
11680W        W84748  25.993  24.695   3.065
11681W        W84749  39.536  13.695  11.965
11682W        W84750  33.418  28.133   1.301
11683W        W84751  41.346  13.090   0.025
11684W        W84752  24.603  26.484   1.603
11685W        W84753  39.571  25.001   0.717
11686W        W84754   9.661  44.322  10.623
11687W        W84755   2.383  37.914   0.436
11688W        W84756  36.012  21.895   1.180
11689W        W84757  21.050  34.320   0.964
11690W        W84758  18.040  39.784   1.425
11691W        W84759  30.919  35.294  11.884
11692W        W84760   4.986  41.845   4.371
11693W        W84761  31.291  10.500   0.390
11694W        W84762  34.875   5.713   3.634
11695W        W84763  35.030  13.005   2.604
11696W        W84764  40.813   2.921   1.932
11697W        W84765  38.945  29.469   2.213
11698W        W84766  26.314  10.357  13.870
11699W        W84767  28.146  11.852   1.369
11700W        W84768   5.059  33.703   3.811
11701W        W84769  24.192  15.116   1.641
11702W        W84770   3.390  44.386  13.372
11703W        W84771  25.158  31.941   1.058
11704W        W84772  14.972  16.694   4.037
11705W        W84773  27.018  29.668  13.513
11706W        W84774  14.333  12.594  11.669
11707W        W84775  35.486   4.164   4.110
11708W        W84776  36.858  14.650   4.175
11709W        W84777   1.351  15.564   4.588
11710W        W84778  13.746  29.254  11.284
11711W        W84779  41.008  41.562  14.357
11712W        W84780  32.361  23.582   1.320
11713W        W84781  10.713  29.520  12.983
11714W        W84782  38.974  35.106  10.254
11715W        W84783  30.391  16.545   3.924
11716W        W84784  20.328   1.207   1.513
11717W        W84785  19.640  44.327   2.063
11718W        W84786  14.829  37.941   4.261
11719W        W84787  35.457   4.084  14.364
11720W        W84788  36.086   8.609  11.084
11721W        W84789  30.828  23.577  12.624
11722W        W84790  43.941  14.610  13.996
11723W        W84791  32.462  20.287  12.848
11724W        W84792  19.178  23.550  12.022
11725W        W84793  36.052   2.931  14.114
11726W        W84794  16.720  35.937   1.724
11727W        W84795  21.962   2.324   4.631
11728W        W84796  20.697  13.876   4.157
11729W        W84797   8.623   1.522  11.551
11730W        W84798   1.654   2.192  14.878
11731W        W84799  27.261  10.033   3.208
11732W        W84800  41.475   9.013   0.320
11733W        W84801   7.264  11.270  13.319
11734W        W84802  34.397  40.764   2.638
11735W        W84803  21.507  42.844   5.298
11736W        W84804  26.465  40.831  13.018
11737W        W84805  24.671  24.065   4.523
11738W        W84806  39.919   3.183  12.483
11739W        W84807  32.108   7.766  13.550
11740W        W84808  10.157   1.202  10.721
11741W        W84809   1.683  15.741   2.710
11742W        W84810  17.043  37.492   1.316
11743W        W84811  13.816   0.734   2.400
11744W        W84812   0.203  44.939   2.837
11745W        W84813  30.696  11.767  13.288
11746W        W84814  44.105  12.176   1.025
11747W        W84815   0.500  17.733   1.113
11748W        W84816   5.426  20.736   4.467
11749W        W84817   3.584  29.227   1.427
11750W        W84818   7.293  12.794  12.130
11751W        W84819  21.703  31.091   2.142
11752W        W84820   9.267  41.468  14.744
11753W        W84821  31.487   8.260  13.322
11754W        W84822   4.234  21.667   1.142
11755W        W84823  29.510  28.026   1.891
11756W        W84824  10.728   9.667  12.926
11757W        W84825  28.529   9.074   0.026
11758W        W84826  44.465  25.478  14.544
11759W        W84827   7.795  28.496  12.183
11760W        W84828   2.481  14.463   2.230
11761W        W84829  29.503   8.205   3.088
11762W        W84830  33.089  22.535  10.610
11763W        W84831  41.853  25.106  13.591
11764W        W84832  13.690   4.275   0.505
11765W        W84833  14.688  44.671  14.524
11766W        W84834  28.960  25.494   3.241
11767W        W84835  44.069   6.156  13.512
11768W        W84836  20.109  15.263   3.107
11769W        W84837  24.019  15.464  12.485
11770W        W84838   0.968  11.705   1.599
11771W        W84839  28.721  14.307   3.212
11772W        W84840  25.946  34.570  11.499
11773W        W84841  28.887  13.882   1.895
11774W        W84842  36.542  12.319  14.005
11775W        W84843  29.502  16.278   3.920
11776W        W84844  11.754  40.056   4.469
11777W        W84845  13.753  24.200  14.273
11778W        W84846  29.598  37.552  10.722
11779W        W84847  44.879  31.217  10.612
11780W        W84848  33.096  15.206  14.889
11781W        W84849  29.624  38.036   0.186
11782W        W84850   5.695   1.996   4.392
11783W        W84851   1.513   1.538  11.606
11784W        W84852  10.410  21.184   4.119
11785W        W84853  34.407  39.926   1.127
11786W        W84854  18.771  22.515  14.947
11787W        W84855   9.820   8.964  13.221
11788W        W84856  13.645  22.428   2.868
11789W        W84857  16.799   9.883   0.101
11790W        W84858  16.211  25.347   0.371
11791W        W84859  11.139  19.265   1.870
11792W        W84860  21.540  40.111   0.798
11793W        W84861  35.335  35.042   3.747
11794W        W84862  10.238  42.332   3.707
11795W        W84863  31.130  41.374   2.694
11796W        W84864  14.294  35.517   3.968
11797W        W84865   6.208  31.660  13.084
11798W        W84866   0.126  34.582   3.341
11799W        W84867  22.078   5.237   1.332
11800W        W84868   4.397  17.195  14.412
11801W        W84869  29.060  38.250  14.431
11802W        W84870  30.152  42.838  13.335
11803W        W84871  26.034  21.186  11.863
11804W        W84872  37.869  42.570  14.980
11805W        W84873   6.640  39.014  14.958
11806W        W84874   6.240  43.349   1.815
11807W        W84875  40.207  41.345  11.253
11808W        W84876  24.884  38.482   1.385
11809W        W84877   7.001  11.818  13.548
11810W        W84878  44.192   9.286   4.519
11811W        W84879  11.132  41.231   1.069
11812W        W84880  34.307  11.859   1.879
11813W        W84881  12.015   7.890  13.279
11814W        W84882   1.945  19.005  11.767
11815W        W84883  10.372  32.936   2.867
11816W        W84884  36.403   0.858   2.777
11817W        W84885  40.281  31.087   2.789
11818W        W84886   8.097  14.312  13.287
11819W        W84887  28.409  15.766   0.862
11820W        W84888   9.811  32.854   3.212
11821W        W84889   7.479  30.247   1.580
11822W        W84890  11.677  26.181  11.835
11823W        W84891  27.543  23.124  13.549
11824W        W84892  44.310  43.423   3.355
11825W        W84893   3.415   6.647  10.769
11826W        W84894  10.343   5.916   4.916
11827W        W84895  31.755   1.426  12.135
11828W        W84896   5.442  16.996   3.211
11829W        W84897  18.779  16.761   1.737
11830W        W84898  20.066  42.151  11.933
11831W        W84899  15.511  36.071  12.072
11832W        W84900  25.632  20.299   0.467
11833W        W84901  27.375  24.955  10.865
11834W        W84902  24.067  31.191  12.155
11835W        W84903  26.019  20.224  12.691
11836W        W84904  28.474  10.200  11.748
11837W        W84905  15.562  38.159   4.746
11838W        W84906  10.624   4.737  10.504
11839W        W84907   7.797  22.692   9.960
11840W        W84908  23.449  28.527  10.780
11841W        W84909   9.562  31.606  11.640
11842W        W84910  42.499  12.649   4.211
11843W        W84911   2.262  17.586   0.718
11844W        W84912  10.802  44.496   0.570
11845W        W84913  32.973  24.847  11.671
11846W        W84914  15.257   3.311   0.872
11847W        W84915  11.888  30.542  12.054
11848W        W84916   2.807  12.612   4.880
11849W        W84917   0.174  42.836  13.778
11850W        W84918  12.839  35.650   3.850
11851W        W84919  23.576  32.824   3.205
11852W        W84920  32.495   3.941  10.244
11853W        W84921  39.696  25.497   4.986
11854W        W84922  30.555  20.803   2.810
11855W        W84923  28.075  10.417  10.234
11856W        W84924  36.328  38.334  11.901
11857W        W84925  21.150  26.901   4.190
11858W        W84926  21.005  41.010  14.264
11859W        W84927  10.595   2.811   0.998
11860W        W84928  27.202  31.004  14.770
11861W        W84929   3.010   4.854   4.211
11862W        W84930  13.096  28.203   4.656
11863W        W84931  29.941   5.715   4.344
11864W        W84932  43.348  21.594  11.173
11865W        W84933  25.731  16.320  11.559
11866W        W84934  44.884  42.835   2.868
11867W        W84935  18.736  13.223   4.675
11868W        W84936  40.945  33.468  13.175
11869W        W84937  40.500  26.675  10.676
11870W        W84938  19.145  11.639   2.914
11871W        W84939  29.118  40.521  12.521
11872W        W84940  30.938   2.347  14.386
11873W        W84941  23.108  25.462  12.537
11874W        W84942  32.455  35.380   0.271
11875W        W84943  14.924  29.927  14.882
11876W        W84944   2.043  44.225   1.866
11877W        W84945  24.552  17.045  10.824
11878W        W84946  41.684  30.858  14.272
11879W        W84947  40.048  26.021  13.070
11880W        W84948  18.739  10.373  13.948
11881W        W84949   2.550  44.271   1.814
11882W        W84950  38.097  39.948   2.176
11883W        W84951  21.730   7.802  10.645
11884W        W84952  18.785  39.373   2.335
11885W        W84953  15.043   3.928  13.812
11886W        W84954   4.733  37.477   4.624
11887W        W84955  32.425  38.348   0.947
11888W        W84956   5.791  44.392   3.736
11889W        W84957  33.948  20.296  13.367
11890W        W84958  20.982  14.266  11.771
11891W        W84959  12.607  29.379   5.139
11892W        W84960  12.792   7.879   2.663
11893W        W84961  26.127   8.285   4.712
11894W        W84962  38.290   7.950   5.022
11895W        W84963  14.424  12.540  14.929
11896W        W84964   3.302  44.317   2.562
11897W        W84965  10.069  18.139  11.802
11898W        W84966  11.394  10.683   2.932
11899W        W84967  27.930  38.979  11.573
11900W        W84968  21.169  15.316  13.188
11901W        W84969   0.932  38.537   1.045
11902W        W84970  16.784  36.591  10.762
11903W        W84971  37.871  41.274  11.897
11904W        W84972  17.253  35.464  14.294
11905W        W84973  41.292  17.256   2.876
11906W        W84974   6.916   9.970  12.862
11907W        W84975  18.153  36.040   3.830
11908W        W84976  43.078  16.200   0.296
11909W        W84977  39.514  43.243   0.834
11910W        W84978  10.183   2.869  13.630
11911W        W84979  38.545  33.898   4.812
11912W        W84980  28.374  31.606  14.023
11913W        W84981  10.792  44.338  13.298
11914W        W84982  30.937   6.304  14.389
11915W        W84983  18.804   0.829  10.273
11916W        W84984  10.818  19.615  14.439
11917W        W84985  20.714   8.765  14.973
11918W        W84986   9.655  17.253   3.362
11919W        W84987   7.090  15.142   1.367
11920W        W84988  29.609  16.695  14.398
11921W        W84989  12.654  23.622  13.387
11922W        W84990  18.860  34.445   4.699
11923W        W84991  25.928  18.078   4.723
11924W        W84992  23.926  35.827  13.500
11925W        W84993   3.177  11.348   4.192
11926W        W84994  15.197  18.786   3.018
11927W        W84995  38.983  18.592  13.925
11928W        W84996  23.469  15.849   2.293
11929W        W84997   6.647   5.877  13.563
11930W        W84998  21.111  20.658   4.401
11931W        W84999  28.152  25.677   2.847
11932W        W85000  16.509  33.832   3.536
11933W        W85001  10.711  29.025  10.997
11934W        W85002  20.526  36.460   2.218
11935W        W85003  35.877  37.430  12.610
11936W        W85004  36.302  32.591  12.394
11937W        W85005   0.912  16.537  13.116
11938W        W85006  44.237  31.159   3.213
11939W        W85007   9.405   6.203   1.798
11940W        W85008  11.264  44.262   3.215
11941W        W85009   0.059  13.171   0.293
11942W        W85010   2.464   9.912   2.893
11943W        W85011   6.547  11.880   4.763
11944W        W85012  41.516  42.471   3.761
11945W        W85013   2.700  10.712   4.383
11946W        W85014   4.776  20.264   0.910
11947W        W85015  43.289   9.945  10.663
11948W        W85016  18.695   7.461   1.553
11949W        W85017  29.145  21.643  13.893
11950W        W85018  15.174  40.837  12.894
11951W        W85019   5.138  20.026   1.963
11952W        W85020  10.392   0.202  14.548
11953W        W85021  12.119   8.399  11.567
11954W        W85022  38.838  15.036   4.101
11955W        W85023  29.475  44.760  10.378
11956W        W85024   1.765  11.755  11.689
11957W        W85025  18.076  24.693   0.368
11958W        W85026   7.094  15.664   4.296
11959W        W85027   6.339  40.529   0.923
11960W        W85028  41.044  18.153   3.117
11961W        W85029  34.942  25.125   5.138
11962W        W85030  30.861  16.131   3.929
11963W        W85031   7.558  33.036  10.715
11964W        W85032  32.070  40.457   2.323
11965W        W85033  23.671  34.380   2.398
11966W        W85034  21.608   4.992  14.344
11967W        W85035   5.342  41.476  11.112
11968W        W85036  26.063  39.247   3.946
11969W        W85037  16.826   0.905   3.990
11970W        W85038  44.021  25.013  11.797
11971W        W85039  25.704   7.163  12.984
11972W        W85040  11.300  36.976  10.402
11973W        W85041  44.946  38.800   0.441
11974W        W85042   6.169   4.667   4.562
11975W        W85043  23.549  30.629   2.292
11976W        W85044   0.041  33.790  11.651
11977W        W85045  16.588  12.589   3.133
11978W        W85046  17.120   2.222  13.488
11979W        W85047  10.195  40.155   0.823
11980W        W85048  28.108   1.591  11.007
11981W        W85049   7.175  20.493  10.746
11982W        W85050  27.466  29.508  10.735
11983W        W85051  20.437   2.366  11.134
11984W        W85052  38.926   8.356   2.830
11985W        W85053  16.794  20.599   2.107
11986W        W85054  27.662  35.266   4.500
11987W        W85055  41.976  12.147  12.965
11988W        W85056  31.920  44.763   0.888
11989W        W85057  28.655  39.137   2.537
11990W        W85058  23.708  43.177   4.066
11991W        W85059  43.739  41.979  12.282
11992W        W85060  15.369  20.042   1.863
11993W        W85061  44.035  34.455  12.590
11994W        W85062   2.251   9.902   2.428
11995W        W85063  21.797  43.461  11.492
11996W        W85064  17.108  30.718   1.824
11997W        W85065   1.029   2.396  12.800
11998W        W85066  10.389  43.300   2.421
11999W        W85067   4.301  19.523   3.552
12000W        W85068  37.016  12.896  10.748
12001W        W85069  11.265   4.336   3.645
12002W        W85070  18.480  24.873  10.352
12003W        W85071   8.335  36.435   3.720
12004W        W85072   8.136  44.181   4.599
12005W        W85073  39.491  14.187  12.110
12006W        W85074  37.533  18.833  12.448
12007W        W85075  28.153  18.284  11.495
12008W        W85076  25.345  38.577  10.396
12009W        W85077  25.596  43.503   3.157
12010W        W85078  20.175  41.773  12.318
12011W        W85079  33.804  15.323  14.049
12012W        W85080  10.710  32.089  14.558
12013W        W85081  17.545  22.708   4.276
12014W        W85082   7.279  40.271  12.554
12015W        W85083  44.932  21.610   4.122
12016W        W85084   6.894  42.901   4.215
12017W        W85085  30.103  16.267  10.748
12018W        W85086  44.816   1.946   0.892
12019W        W85087  21.218  38.390   1.893
12020W        W85088  25.434  20.761  12.519
12021W        W85089  34.130  34.790  12.946
12022W        W85090  33.891   1.362   1.134
12023W        W85091  37.679  37.057  10.641
12024W        W85092  34.362  37.443  10.576
12025W        W85093  43.885  28.642  11.473
12026W        W85094   4.460  34.516  12.664
12027W        W85095  41.090  22.237  11.141
12028W        W85096  16.140  21.595  12.970
12029W        W85097  20.667  18.041  11.068
12030W        W85098  14.111  12.637   3.254
12031W        W85099   4.898  26.646   0.831
12032W        W85100  35.018  25.162   0.023
12033W        W85101  15.264  17.338   4.495
12034W        W85102  44.363  13.189   4.877
12035W        W85103  39.010  39.317   1.362
12036W        W85104  18.906  31.388  14.684
12037W        W85105   2.379   5.924  10.733
12038W        W85106  40.906   1.627   4.309
12039W        W85107  42.138  21.985   3.270
12040W        W85108  40.455   9.846   1.658
12041W        W85109  31.375  20.203  11.084
12042W        W85110   1.737  15.338   1.904
12043W        W85111   6.445  29.967   0.410
12044W        W85112  20.089  26.252   3.162
12045W        W85113  42.405  44.405  11.704
12046W        W85114   6.306  34.249  12.555
12047W        W85115  36.642   1.350  12.372
12048W        W85116  37.207  42.911   1.517
12049W        W85117  29.398  27.539  11.555
12050W        W85118  40.467   4.285  12.554
12051W        W85119  10.291  40.485  11.229
12052W        W85120  42.706   2.281   4.526
12053W        W85121  31.925  41.861   1.991
12054W        W85122   8.901  23.147   4.817
12055W        W85123  39.807  13.780  14.784
12056W        W85124   9.336  37.278  11.596
12057W        W85125   0.747   1.561   2.659
12058W        W85126  13.542  41.375  14.961
12059W        W85127  33.605  43.907   2.277
12060W        W85128  36.430  37.450  14.110
12061W        W85129  26.071   3.773  11.574
12062W        W85130  31.185  28.629   1.007
12063W        W85131   6.729  32.379  11.642
12064W        W85132  39.957  25.273  13.747
12065W        W85133  23.109  34.971   1.845
12066W        W85134  42.441  26.745   0.836
12067W        W85135  43.829   8.681   1.734
12068W        W85136  29.156  31.106   4.599
12069W        W85137  37.240   2.421   3.280
12070W        W85138   3.534   3.195   3.663
12071W        W85139  12.253  21.622   0.538
12072W        W85140  32.544  20.631  10.988
12073W        W85141  40.960  43.904  13.410
12074W        W85142   9.799  13.779  14.479
12075W        W85143  12.569   8.220  12.528
12076W        W85144  30.518  14.773   0.680
12077W        W85145  33.348  11.321   0.332
12078W        W85146  32.045  31.994  12.425
12079W        W85147   6.330  39.893   5.032
12080W        W85148  12.365  29.714   1.727
12081W        W85149  31.147  16.111  12.054
12082W        W85150   8.417  44.267  14.468
12083W        W85151   0.539  15.280   1.358
12084W        W85152  18.698  22.659   4.693
12085W        W85153  44.861  32.243   3.356
12086W        W85154  31.568   0.928   0.363
12087W        W85155   1.267  12.815   2.122
12088W        W85156  13.231  18.896   3.244
12089W        W85157  20.135  21.005  14.950
12090W        W85158  17.732   2.457  12.649
12091W        W85159   7.811  17.156  11.141
12092W        W85160  30.146  40.445   3.719
12093W        W85161  34.829  36.389  11.132
12094W        W85162   2.397  34.266  10.159
12095W        W85163  11.926  37.329  12.440
12096W        W85164  27.926  27.753  13.049
12097W        W85165  25.703  23.024   4.081
12098W        W85166  22.188   4.817   3.412
12099W        W85167  41.261  21.947  13.718
12100W        W85168   7.400  39.774   3.018
12101W        W85169  25.190   7.289   4.850
12102W        W85170   4.496   5.200  13.933
12103W        W85171  25.842  10.076   3.263
12104W        W85172   1.585  43.391   4.631
12105W        W85173  30.715  10.349  13.997
12106W        W85174  27.146  11.634   1.973
12107W        W85175   0.544   2.059  14.520
12108W        W85176  23.142  17.187   0.262
12109W        W85177  37.425  12.826   4.343
12110W        W85178  32.405  38.319  13.830
12111W        W85179   3.328  18.835  12.635
12112W        W85180   2.327  33.949  11.648
12113W        W85181  23.828  40.909   3.222
12114W        W85182   3.476  27.011   2.760
12115W        W85183  24.502   4.568   3.527
12116W        W85184  36.342   5.169   1.334
12117W        W85185  40.094   3.182  11.130
12118W        W85186  31.184  13.099   2.375
12119W        W85187  21.116  23.068   3.918
12120W        W85188  15.648  10.920  13.028
12121W        W85189  22.665  23.786  12.539
12122W        W85190  20.732  17.819   2.194
12123W        W85191   0.327  18.800   4.653
12124W        W85192  34.940  35.719  10.062
12125W        W85193  13.646  43.892  11.590
12126W        W85194  28.384  42.390   4.319
12127W        W85195   2.340   7.132  11.999
12128W        W85196  43.330  30.193   4.544
12129W        W85197  37.082  17.024  14.895
12130W        W85198  16.824  41.771  11.125
12131W        W85199  21.335  10.120  14.823
12132W        W85200  42.452  24.579   4.340
12133W        W85201   2.082  40.166  10.721
12134W        W85202  15.797  37.070  10.791
12135W        W85203  23.888  14.574   3.430
12136W        W85204  33.541  30.925   1.818
12137W        W85205  37.011  41.865   4.894
12138W        W85206  44.038  39.344   2.241
12139W        W85207   6.868  14.682   1.640
12140W        W85208   3.358  13.167  13.919
12141W        W85209  38.867  40.322   1.270
12142W        W85210  39.895  44.522   1.887
12143W        W85211  10.247  43.243  10.813
12144W        W85212  44.842   8.220   4.334
12145W        W85213  17.082  19.175   2.844
12146W        W85214  27.188  12.071   1.259
12147W        W85215  44.517  36.582   2.274
12148W        W85216  23.229  24.500   3.788
12149W        W85217  10.230  12.971  14.378
12150W        W85218   3.922  10.634  13.803
12151W        W85219  23.692  19.412   5.343
12152W        W85220  29.624  18.865   0.750
12153W        W85221  32.027  17.223  12.132
12154W        W85222   8.989  13.262  13.788
12155W        W85223   8.705  14.612  11.156
12156W        W85224  16.951  10.789   0.262
12157W        W85225  15.154  37.301   0.044
12158W        W85226  43.544  33.595   0.569
12159W        W85227  36.365   9.257  12.976
12160W        W85228   3.425  11.283  14.127
12161W        W85229   1.779  44.980  12.244
12162W        W85230  35.411  20.066   3.171
12163W        W85231  34.160  10.184   0.625
12164W        W85232   2.864  39.138  11.342
12165W        W85233  15.299  12.861  11.511
12166W        W85234   9.250  16.637  13.098
12167W        W85235  38.342   2.183   2.552
12168W        W85236  11.256  42.984  12.078
12169W        W85237  22.732  11.266  14.535
12170W        W85238  31.707  12.778  14.724
12171W        W85239  24.202  30.644   2.841
12172W        W85240  38.138  37.962  13.565
12173W        W85241  43.961  20.664  13.876
12174W        W85242  14.249  15.109  11.108
12175W        W85243  19.985   9.548   0.801
12176W        W85244   0.011  22.381   2.463
12177W        W85245  41.809  15.786  13.585
12178W        W85246   8.166  44.248  13.986
12179W        W85247   0.711  21.002   4.059
12180W        W85248  25.231  40.756   3.251
12181W        W85249  27.413  29.555  14.572
12182W        W85250   9.901  24.186   4.348
12183W        W85251   4.935   6.816   4.809
12184W        W85252  10.882  34.375  11.967
12185W        W85253  27.924  24.682  12.063
12186W        W85254  43.958   6.288   0.699
12187W        W85255  26.974  37.589   0.478
12188W        W85256  41.797   0.250   0.795
12189W        W85257  24.586   7.606   2.643
12190W        W85258  38.054  34.045   1.792
12191W        W85259  31.023  40.869  10.537
12192W        W85260  29.002  13.152  12.958
12193W        W85261  18.209  40.990  12.825
12194W        W85262  26.941  24.831  11.243
12195W        W85263  19.255  32.865   4.108
12196W        W85264   2.246   4.321  14.351
12197W        W85265  21.206  11.670  12.183
12198W        W85266  30.880   1.892  12.498
12199W        W85267  15.708  41.594  14.688
12200W        W85268  38.933   9.309   0.313
12201W        W85269  24.938  22.569  12.430
12202W        W85270  11.332   1.169   2.646
12203W        W85271  32.570  12.820  14.790
12204W        W85272   6.897   5.840  14.578
12205W        W85273   2.334  43.458   1.413
12206W        W85274  43.985  12.919  10.450
12207W        W85275  27.653   3.994  10.459
12208W        W85276  35.792  14.709   1.165
12209W        W85277  23.369  24.338   0.816
12210W        W85278  43.483  19.453   4.127
12211W        W85279   8.928  20.454   0.821
12212W        W85280  37.248  42.524  13.887
12213W        W85281  10.785  44.049  10.690
12214W        W85282  22.255  25.032   2.320
12215W        W85283   7.158  15.872  13.556
12216W        W85284   3.013  30.627   4.045
12217W        W85285  44.289  28.985   2.439
12218W        W85286  19.174  15.074   0.325
12219W        W85287  31.700  33.909  13.345
12220W        W85288   0.067  23.659  14.783
12221W        W85289  19.592   5.286  14.945
12222W        W85290  25.930  14.077   2.763
12223W        W85291  21.501  10.267   2.842
12224W        W85292  31.482  25.211  11.566
12225W        W85293   3.411  39.569  13.029
12226W        W85294  23.208  16.256  13.097
12227W        W85295   9.063  17.282  10.706
12228W        W85296   0.546  26.437   9.928
12229W        W85297   0.866  11.061   0.213
12230W        W85298  22.938  42.411  11.195
12231W        W85299   5.682  20.309   0.871
12232W        W85300   8.871  21.714  14.273
12233W        W85301  41.076  33.210   4.270
12234W        W85302  19.478  44.314   3.913
12235W        W85303  10.307  12.917  12.421
12236W        W85304   7.806   5.707   0.717
12237W        W85305  29.030  38.040   1.824
12238W        W85306  44.983  39.319  11.154
12239W        W85307  27.729  30.439  14.980
12240W        W85308   3.691  37.548  14.824
12241W        W85309  18.617  33.877  12.455
12242W        W85310  28.521  10.813   4.541
12243W        W85311  35.749  30.082  10.358
12244W        W85312  19.969   4.276  14.893
12245W        W85313  27.740  24.503   0.306
12246W        W85314   8.330  32.370   4.075
12247W        W85315  21.557   8.319   1.683
12248W        W85316  21.734  14.852   3.826
12249W        W85317  41.649  34.756   0.467
12250W        W85318  16.035  42.362   3.162
12251W        W85319   5.498   6.807  12.504
12252W        W85320  26.119  34.146  13.517
12253W        W85321  11.163  12.247   2.818
12254W        W85322   5.498  13.173  13.981
12255W        W85323  18.795  32.649   4.034
12256W        W85324   4.917   6.371  13.063
12257W        W85325  22.742   7.681   2.206
12258W        W85326   3.709  16.561   1.116
12259W        W85327  20.685  24.335  12.999
12260W        W85328  18.027   2.110  12.420
12261W        W85329   5.914  32.205  12.034
12262W        W85330  32.601  38.898   3.716
12263W        W85331   5.748  12.293  13.423
12264W        W85332  26.270  35.005   5.232
12265W        W85333  34.540  15.315  13.587
12266W        W85334  20.011   5.313   2.224
12267W        W85335  11.717   8.722  13.835
12268W        W85336  23.938  10.450   2.665
12269W        W85337  43.844  10.088  11.620
12270W        W85338  34.149   6.130  12.830
12271W        W85339   2.300   1.324   2.544
12272W        W85340  21.729  21.089   1.954
12273W        W85341  12.616  28.932   4.313
12274W        W85342  41.583   5.179   4.296
12275W        W85343  35.648  28.894   1.821
12276W        W85344  25.373   3.659   4.122
12277W        W85345  16.876  37.208   4.153
12278W        W85346   6.761  33.649  10.775
12279W        W85347  23.807  17.066   2.799
12280W        W85348  23.956  32.413  14.427
12281W        W85349  11.144  18.778  12.101
12282W        W85350  24.162   9.872   0.399
12283W        W85351  11.893  17.267   4.632
12284W        W85352  24.709  36.746   0.295
12285W        W85353  40.478  28.783   3.651
12286W        W85354  44.675  12.639  11.989
12287W        W85355  10.976  13.150   3.152
12288W        W85356  29.395  20.574  13.812
12289W        W85357  29.777  36.548  12.313
12290W        W85358   7.650  17.267   1.914
12291W        W85359  39.098   0.787   1.481
12292W        W85360  21.240  12.191  13.061
12293W        W85361   9.170  28.513  14.442
12294W        W85362  11.840  17.975  14.843
12295W        W85363   2.869  20.800   0.557
12296W        W85364  10.580  29.715  14.426
12297W        W85365  20.305  22.955  13.502
12298W        W85366  33.210   6.886   0.423
12299W        W85367   6.389  30.483  12.517
12300W        W85368  38.871  41.392  11.071
12301W        W85369  27.623  34.875  13.296
12302W        W85370   3.313   2.490  12.685
12303W        W85371  11.239  19.550   3.211
12304W        W85372  26.722  12.891  13.359
12305W        W85373  15.601  20.987  14.396
12306W        W85374  24.093  43.869  11.535
12307W        W85375  23.241  18.547   3.249
12308W        W85376  43.314   1.494   4.481
12309W        W85377   3.805  39.346   3.693
12310W        W85378  20.287   4.000   2.308
12311W        W85379  10.842  12.748  12.107
12312W        W85380  36.840  13.593   3.609
12313W        W85381  20.895  23.283  11.989
12314W        W85382   6.793  37.296   1.839
12315W        W85383  16.183  28.013   0.037
12316W        W85384  40.253  36.862   1.741
12317W        W85385   8.257  43.385   3.298
12318W        W85386   4.489  10.854   4.045
12319W        W85387  21.047  20.996  14.402
12320W        W85388  11.194  15.844   2.575
12321W        W85389  16.389   4.376  11.842
12322W        W85390  21.772  26.479   0.777
12323W        W85391  10.640   6.115   0.195
12324W        W85392  10.228   6.901  14.827
12325W        W85393  10.619   6.884  11.393
12326W        W85394   3.693  27.647   1.272
12327W        W85395  19.835  43.891  10.344
12328W        W85396  37.428  41.557   0.889
12329W        W85397  11.106  35.734   3.966
12330W        W85398  11.090  22.111  12.654
12331W        W85399   4.013  11.537   0.811
12332W        W85400  30.637  23.975  11.865
12333W        W85401  44.681  36.945  11.755
12334W        W85402   5.399   1.663   4.136
12335W        W85403  35.332  23.093  10.799
12336W        W85404  42.606  12.975   1.460
12337W        W85405  13.986   6.971   1.762
12338W        W85406  15.738  37.123   1.243
12339W        W85407  20.408  41.121  10.481
12340W        W85408   8.191   2.381  14.798
12341W        W85409  27.233  38.520  12.460
12342W        W85410  38.605   7.958   2.691
12343W        W85411  38.437  31.725   2.557
12344W        W85412  21.473  23.553   3.217
12345W        W85413   0.723   2.187  12.406
12346W        W85414  20.039  16.196  13.527
12347W        W85415  14.742  38.573   0.917
12348W        W85416  34.010  20.328   4.062
12349W        W85417   1.424  39.875  12.615
12350W        W85418  41.774  18.335   1.201
12351W        W85419  26.451  16.309   2.115
12352W        W85420   5.799   0.593   4.216
12353W        W85421   5.662  20.123   2.306
12354W        W85422  22.225   5.150   4.108
12355W        W85423   8.274  10.939  12.025
12356W        W85424  30.038   2.806  14.967
12357W        W85425  37.059  41.832  11.916
12358W        W85426   3.849  31.117   4.479
12359W        W85427   9.720   8.975   1.507
12360W        W85428  16.309  32.465   4.020
12361W        W85429  32.502  39.121   2.242
12362W        W85430   2.895   9.287   1.492
12363W        W85431  25.195  28.995   4.579
12364W        W85432   4.902  21.683  12.367
12365W        W85433   5.319  16.753  13.573
12366W        W85434  22.018  21.499   1.565
12367W        W85435  30.344   6.401  10.701
12368W        W85436   3.285  42.225  12.641
12369W        W85437  12.784  38.826  11.561
12370W        W85438  34.700  14.476   0.061
12371W        W85439  19.788  20.723   4.067
12372W        W85440  35.684  43.935  11.095
12373W        W85441  25.296  42.277  10.575
12374W        W85442   8.710   1.612   4.075
12375W        W85443  26.201  16.031  10.690
12376W        W85444  24.200  43.249   0.942
12377W        W85445  41.368   1.973  11.059
12378W        W85446  38.794  30.036  14.464
12379W        W85447  14.356  24.023   0.150
12380W        W85448  14.656  24.623   3.207
12381W        W85449  37.951  23.468  12.583
12382W        W85450  34.121  42.410   0.357
12383W        W85451  28.354  23.609  11.046
12384W        W85452   2.893   0.970   3.550
12385W        W85453  40.644   2.423   4.495
12386W        W85454  44.033  28.834  12.957
12387W        W85455  41.528   5.209   1.300
12388W        W85456   5.562  12.368  14.682
12389W        W85457  15.686  19.384  12.489
12390W        W85458  39.029  40.475   4.619
12391W        W85459  41.460  25.982   4.596
12392W        W85460   0.229  33.243  10.566
12393W        W85461  29.701   5.975   1.506
12394W        W85462  44.789  37.535  12.046
12395W        W85463  25.190   3.843   0.523
12396W        W85464  13.610   7.984   4.394
12397W        W85465   9.509  30.530   0.359
12398W        W85466  33.489  33.014   2.925
12399W        W85467  18.828   7.412   0.031
12400W        W85468  34.384  30.978   4.147
12401W        W85469  14.324  38.307   0.216
12402W        W85470  26.668  25.466  13.931
12403W        W85471  26.079  17.970   1.062
12404W        W85472  31.486  26.614   3.129
12405W        W85473  40.955   4.265   1.172
12406W        W85474  26.542  33.892  13.358
12407W        W85475   5.906  17.180  13.948
12408W        W85476   8.387  31.872   0.640
12409W        W85477  40.325  37.086  11.906
12410W        W85478   5.440  39.784   2.214
12411W        W85479   7.814  22.964   2.698
12412W        W85480  19.757  39.783   0.771
12413W        W85481   2.787   2.052  10.565
12414W        W85482   1.452  29.225  14.423
12415W        W85483  19.618  11.843   1.300
12416W        W85484  26.747  18.262   4.655
12417W        W85485  14.531  15.956   4.225
12418W        W85486  19.365  36.456   3.130
12419W        W85487  32.360  29.597  11.585
12420W        W85488   3.220  23.721  13.990
12421W        W85489   2.217  12.144  14.846
12422W        W85490   7.228   1.056   0.823
12423W        W85491  11.069  34.008  14.111
12424W        W85492  37.465  36.297  13.979
12425W        W85493  11.083  24.659   1.736
12426W        W85494   8.736  10.205  11.584
12427W        W85495   3.007  44.778   3.697
12428W        W85496  35.356  37.304   4.946
12429W        W85497  34.821  32.107   0.728
12430W        W85498  21.159  16.105   0.816
12431W        W85499   6.344  44.240   1.939
12432W        W85500  30.591   5.671  10.731
12433W        W85501   7.501   2.815   3.118
12434W        W85502  22.146   6.414  10.471
12435W        W85503  37.337  34.162  10.336
12436W        W85504  34.983  15.606  14.828
12437W        W85505  22.802  44.556   2.711
12438W        W85506  41.134  43.025   2.370
12439W        W85507  36.170  40.906   0.731
12440W        W85508   5.598  39.077  11.611
12441W        W85509  30.235  37.853  11.161
12442W        W85510  15.610  26.577  14.399
12443W        W85511  27.707  14.606  12.584
12444W        W85512  21.637  35.823   5.059
12445W        W85513   4.379  14.832   0.967
12446W        W85514   2.958  24.233  13.264
12447W        W85515  25.551  29.361   3.740
12448W        W85516  39.926   8.754  12.072
12449W        W85517  22.882  43.762   3.363
12450W        W85518   0.186   8.777   1.838
12451W        W85519  10.799   7.744   1.624
12452W        W85520  12.371  31.537  10.751
12453W        W85521   0.826  43.941   4.785
12454W        W85522   0.739  29.540   1.725
12455W        W85523   6.779  18.346   4.880
12456W        W85524  32.062  22.294   1.400
12457W        W85525  35.419   7.946   4.515
12458W        W85526  25.894  37.390  10.428
12459W        W85527   7.698   8.907  14.801
12460W        W85528   1.284  19.776   4.887
12461W        W85529  17.818   7.408   0.334
12462W        W85530   7.618  27.085  14.520
12463W        W85531   3.538  27.412   4.228
12464W        W85532  15.825  37.474  11.104
12465W        W85533  10.893  29.168   2.951
12466W        W85534  20.013  25.965   4.117
12467W        W85535  27.680  14.765   3.775
12468W        W85536  29.333   7.208  11.385
12469W        W85537  30.683  12.755  13.230
12470W        W85538  36.987   8.796   1.696
12471W        W85539  17.527  44.291   3.143
12472W        W85540   2.240   7.881   3.745
12473W        W85541  26.492  44.001   4.473
12474W        W85542   4.223  22.106   0.842
12475W        W85543  21.464  26.052   4.361
12476W        W85544   5.929  25.105  13.506
12477W        W85545   6.172  29.338   0.760
12478W        W85546   1.983   7.201  11.598
12479W        W85547  38.644  27.894  12.504
12480W        W85548  17.994  18.689   3.181
12481W        W85549  36.392  40.848   1.175
12482W        W85550  19.256  23.605  14.020
12483W        W85551  36.224  17.685   4.870
12484W        W85552  28.732  32.058   3.882
12485W        W85553   5.952  19.547  14.894
12486W        W85554  21.943   6.380   3.863
12487W        W85555   5.387  35.071  12.931
12488W        W85556   0.499  14.309   3.055
12489W        W85557  36.427  40.005   1.185
12490W        W85558  23.973   4.960   4.558
12491W        W85559  26.013   9.180  14.885
12492W        W85560  13.018   6.259   2.353
12493W        W85561   2.390  36.381  12.170
12494W        W85562  23.616  22.089  12.434
12495W        W85563  18.602   9.866  13.919
12496W        W85564  34.291  22.652  12.505
12497W        W85565  42.026  13.801  14.035
12498W        W85566  10.268   8.986  13.616
12499W        W85567   8.394   5.420  13.267
12500W        W85568   5.728  29.688   0.897
12501W        W85569  11.802  32.425  10.655
12502W        W85570  36.117  24.514  13.115
12503W        W85571  10.610  22.759   0.222
12504W        W85572  27.735  34.817   4.218
12505W        W85573   6.373  27.962  13.868
12506W        W85574  31.173  38.762  12.967
12507W        W85575   1.936  32.496   1.352
12508W        W85576  11.231  16.816  14.043
12509W        W85577   6.875  32.879   1.280
12510W        W85578  40.225   4.986   1.510
12511W        W85579  16.204  15.507  10.313
12512W        W85580  26.638  40.495   3.551
12513W        W85581  19.626  25.274   0.788
12514W        W85582  26.842  28.760  14.848
12515W        W85583   8.283  37.318  14.804
12516W        W85584  15.537   6.650   3.747
12517W        W85585   8.175  40.792   4.248
12518W        W85586  20.289  38.512   1.782
12519W        W85587  38.474   1.528   0.227
12520W        W85588  44.746   2.251   3.195
12521W        W85589  20.514  38.978   1.959
12522W        W85590  27.654  41.365  14.483
12523W        W85591  11.531  22.544   2.389
12524W        W85592  12.333  29.580  11.963
12525W        W85593   0.899   4.701  12.555
12526W        W85594   4.390  15.526   4.847
12527W        W85595   1.545   1.749  14.418
12528W        W85596  23.681   8.091  11.292
12529W        W85597  17.979   9.313  11.991
12530W        W85598  39.671   5.141  10.211
12531W        W85599  33.214  43.828  14.286
12532W        W85600  23.742  24.116  11.307
12533W        W85601  22.204   9.130  10.830
12534W        W85602  11.665  28.421   4.704
12535W        W85603  12.389  30.980  11.495
12536W        W85604  32.069  13.999   0.293
12537W        W85605  17.004  33.849  12.022
12538W        W85606  29.522  32.555  11.373
12539W        W85607  39.422   3.394   4.503
12540W        W85608  16.354  21.495   2.310
12541W        W85609  20.003   8.609  11.584
12542W        W85610  29.478  26.586  13.285
12543W        W85611   6.751  11.443   0.806
12544W        W85612  41.625   0.407  12.530
12545W        W85613   8.778  20.112   4.554
12546W        W85614  16.796  24.214   1.833
12547W        W85615   1.664  44.039  14.331
12548W        W85616  31.737  20.169  12.053
12549W        W85617   3.946  31.262  12.396
12550W        W85618  28.873   6.378  14.410
12551W        W85619  22.545  25.299   2.685
12552W        W85620  31.682   1.925   0.438
12553W        W85621  29.904  19.358  12.551
12554W        W85622  22.192   9.896  12.831
12555W        W85623   0.701  24.189  13.137
12556W        W85624   3.775  38.589   3.122
12557W        W85625  23.283  44.358   2.664
12558W        W85626  16.918  22.645   2.793
12559W        W85627   8.370  41.332   0.557
12560W        W85628  16.336  29.574  14.821
12561W        W85629  39.163  13.712  14.306
12562W        W85630  25.550   0.368  12.989
12563W        W85631  15.315   9.715   4.084
12564W        W85632  43.334  12.325   3.672
12565W        W85633  44.571  43.840  11.057
12566W        W85634   8.674  28.645  14.540
12567W        W85635  23.493  43.269  12.520
12568W        W85636   8.763   1.882   3.190
12569W        W85637  36.301   0.319   0.761
12570W        W85638   0.429  38.372  11.883
12571W        W85639   1.819  18.780   1.856
12572W        W85640  41.298  30.200  12.056
12573W        W85641   6.586  29.968  12.986
12574W        W85642  36.436   3.310  10.688
12575W        W85643   6.955  20.075  10.957
12576W        W85644  36.824  28.086   4.192
12577W        W85645  22.060  33.367   2.558
12578W        W85646   6.260  12.162  11.254
12579W        W85647  44.490  24.194   0.416
12580W        W85648  37.545  28.755   4.497
12581W        W85649   1.761   9.278   0.194
12582W        W85650  44.277  29.329  11.018
12583W        W85651   7.231  42.786   3.371
12584W        W85652  34.533   6.367  13.361
12585W        W85653  28.245   6.762   4.757
12586W        W85654  22.170  32.856  13.867
12587W        W85655  42.786  16.170  14.831
12588W        W85656   9.399  14.665   1.251
12589W        W85657  30.711  36.456  12.617
12590W        W85658   6.278  32.125   2.065
12591W        W85659  22.638  21.743   2.781
12592W        W85660  32.860   7.100   2.752
12593W        W85661  44.599  27.992   0.347
12594W        W85662   2.516  32.071   2.676
12595W        W85663  36.239  44.193  13.961
12596W        W85664  38.133  30.116   2.217
12597W        W85665  14.132  34.632  14.936
12598W        W85666  33.666  27.858   3.767
12599W        W85667  38.038  11.815  10.221
12600W        W85668   1.942  34.837  13.865
12601W        W85669  34.136   5.969  11.085
12602W        W85670   8.798  37.915   3.385
12603W        W85671   4.116  27.503  14.877
12604W        W85672  10.564  16.099  13.112
12605W        W85673  16.812  37.583   4.515
12606W        W85674  29.835  20.682   1.039
12607W        W85675  14.710  39.986   2.671
12608W        W85676  40.788  18.530   0.869
12609W        W85677   3.680   3.648  14.315
12610W        W85678  33.431  18.580   0.407
12611W        W85679  30.130  31.696   2.808
12612W        W85680  37.362  32.595  14.381
12613W        W85681  36.316   1.651   2.124
12614W        W85682  14.311  31.420  12.903
12615W        W85683  15.521  17.749   0.773
12616W        W85684  11.573  39.874   3.111
12617W        W85685  38.797  11.775  10.796
12618W        W85686   4.986  18.214   3.572
12619W        W85687  23.274  37.344   1.697
12620W        W85688  11.703   6.631  12.912
12621W        W85689  31.017   5.825  10.998
12622W        W85690   7.792  38.174  11.086
12623W        W85691  39.549   7.777  11.904
12624W        W85692  40.117  24.421  14.021
12625W        W85693   9.699  27.014  11.339
12626W        W85694  21.960   3.242   0.452
12627W        W85695  35.898  22.775   1.764
12628W        W85696   3.672  43.830  14.403
12629W        W85697  42.718   2.334  11.662
12630W        W85698  10.923  30.639   4.424
12631W        W85699  26.295  33.029  14.416
12632W        W85700  38.781   8.806   3.667
12633W        W85701  24.699  40.852  14.905
12634W        W85702   0.079  43.859  10.938
12635W        W85703  18.630  42.783   2.343
12636W        W85704   9.096   3.901   3.227
12637W        W85705  19.315  38.094  14.907
12638W        W85706  43.834  27.222  11.061
12639W        W85707  37.552  23.617   4.906
12640W        W85708  40.955   4.442  10.695
12641W        W85709  31.598  24.793   0.405
12642W        W85710  12.553  17.061  10.760
12643W        W85711  12.721   7.623   0.204
12644W        W85712  44.798  36.108  10.656
12645W        W85713  19.293  41.950  14.517
12646W        W85714   1.901  31.711   3.306
12647W        W85715   0.635   6.463   2.862
12648W        W85716   8.805  24.951   1.859
12649W        W85717   4.558  12.731  14.725
12650W        W85718  28.100  12.612   2.796
12651W        W85719  18.429  40.812  13.303
12652W        W85720  35.018   1.013  12.337
12653W        W85721   9.155  41.280   5.054
12654W        W85722  38.938  15.229  10.775
12655W        W85723  27.607  28.621  13.095
12656W        W85724  17.526  31.182  13.330
12657W        W85725   6.731  19.837  13.199
12658W        W85726  18.034  20.385   0.984
12659W        W85727   8.979  29.880  13.243
12660W        W85728  23.248  31.613  12.133
12661W        W85729  27.842  23.932   3.871
12662W        W85730   2.296  17.539   3.185
12663W        W85731  33.555   1.395   2.819
12664W        W85732  29.092  31.190  14.119
12665W        W85733  21.535  10.500  13.985
12666W        W85734  29.341  18.689  14.252
12667W        W85735  41.117  30.083  13.881
12668W        W85736   5.557   4.317  13.041
12669W        W85737  18.976  25.496  13.853
12670W        W85738  24.352  13.965  13.200
12671W        W85739  41.746  29.114   1.472
12672W        W85740  31.472   1.779  14.145
12673W        W85741   0.968  34.703  11.625
12674W        W85742  16.661  43.941  13.339
12675W        W85743  36.106  24.367  10.800
12676W        W85744  12.909  27.634   2.695
12677W        W85745  21.552  37.105   1.323
12678W        W85746   8.378  27.627   0.912
12679W        W85747  44.515  34.417  13.886
12680W        W85748   6.120  22.865  14.758
12681W        W85749  40.285  15.838   1.402
12682W        W85750  14.103  20.188  11.091
12683W        W85751  14.367  23.772   1.814
12684W        W85752  40.232  23.591   1.979
12685W        W85753  11.312  34.475   1.340
12686W        W85754   8.467  21.033   3.774
12687W        W85755  36.915  18.430  13.529
12688W        W85756  17.359  13.714   0.759
12689W        W85757  12.340  41.020  12.033
12690W        W85758  12.372   2.310  12.067
12691W        W85759  24.478  41.446  11.634
12692W        W85760  26.533  43.632   1.196
12693W        W85761  28.080  42.887  12.217
12694W        W85762  31.338  27.952  11.511
12695W        W85763   8.561  41.097  14.981
12696W        W85764  44.216  44.368   0.360
12697W        W85765   1.762   3.857  12.087
12698W        W85766  19.242  40.939   4.680
12699W        W85767   9.005   8.300   2.186
12700W        W85768  10.252   4.609   4.170
12701W        W85769   5.140  18.214  14.505
12702W        W85770  38.554  40.691   1.904
12703W        W85771  24.273  23.034   2.820
12704W        W85772   2.360  29.673  12.985
12705W        W85773  41.964  18.099  13.024
12706W        W85774  26.790  44.074  10.472
12707W        W85775   1.785  18.269   0.332
12708W        W85776  19.773  41.778  14.529
12709W        W85777  41.865  42.950   0.867
12710W        W85778  20.785   5.386   0.614
12711W        W85779  31.002   8.339  13.567
12712W        W85780  28.677  22.002  12.479
12713W        W85781  10.030   7.126  13.027
12714W        W85782  22.189  25.635   0.914
12715W        W85783  36.083  38.662   2.233
12716W        W85784   3.896  44.765   1.960
12717W        W85785  22.771  18.067   1.854
12718W        W85786   4.849  28.777   1.747
12719W        W85787  28.495  33.595  11.531
12720W        W85788   4.846  10.871   0.866
12721W        W85789  20.849  29.524   5.129
12722W        W85790  16.335  27.931  11.986
12723W        W85791   3.021  33.459  12.711
12724W        W85792   3.800  31.174   1.791
12725W        W85793   5.672  19.905   4.742
12726W        W85794   5.781  14.604   2.361
12727W        W85795  44.038  20.554   2.173
12728W        W85796  23.772  44.144   1.912
12729W        W85797   8.598   1.937   2.703
12730W        W85798   2.478   1.775  11.402
12731W        W85799  32.374   3.475   1.288
12732W        W85800  36.571   3.604   3.163
12733W        W85801  38.100  23.685  12.087
12734W        W85802  34.812   1.952   2.275
12735W        W85803   0.556  34.420   3.559
12736W        W85804   0.873  16.178  11.177
12737W        W85805  25.468  23.462   1.774
12738W        W85806   5.866   1.469   2.817
12739W        W85807  39.403  21.672  10.916
12740W        W85808  12.362  31.908   3.675
12741W        W85809  10.141   3.916   0.312
12742W        W85810  31.674  16.016  11.053
12743W        W85811   7.391  14.142   2.171
12744W        W85812  25.564  18.713   0.706
12745W        W85813  18.296  42.907  12.132
12746W        W85814  26.596  13.892   4.190
12747W        W85815  42.173  19.374  11.100
12748W        W85816  13.285  15.928  11.195
12749W        W85817  14.199  42.062   3.776
12750W        W85818  13.806  19.083   3.894
12751W        W85819  44.423   5.375  10.474
12752W        W85820  16.708  36.848   3.173
12753W        W85821  23.596  34.895  11.128
12754W        W85822  29.462   3.658  11.211
12755W        W85823  33.985  16.714   0.416
12756W        W85824   7.318  40.156   2.147
12757W        W85825  28.396  23.620   2.771
12758W        W85826  14.126  27.536  10.772
12759W        W85827  27.617  32.113  12.978
12760W        W85828   4.853  22.118   2.727
12761W        W85829  11.627   0.454  12.380
12762W        W85830   9.747  14.123  14.052
12763W        W85831  13.248   0.350   3.193
12764W        W85832   7.289   7.806  14.573
12765W        W85833   7.291  33.670   0.223
12766W        W85834  30.062  13.686  12.978
12767W        W85835  42.453  13.554  14.910
12768W        W85836  38.378  18.668   0.188
12769W        W85837  21.970  35.688  14.101
12770W        W85838   1.358  35.673  10.621
12771W        W85839  43.111  39.870  11.646
12772W        W85840  27.949  22.224   2.775
12773W        W85841  44.319  12.253   4.605
12774W        W85842  30.038   1.024  13.300
12775W        W85843  31.012  17.991  12.443
12776W        W85844  34.951  41.464  13.361
12777W        W85845   8.363  15.564   3.677
12778W        W85846  40.840  25.543   1.663
12779W        W85847   5.917  35.516  13.468
12780W        W85848  39.287   4.489  12.375
12781W        W85849  12.146  39.559   1.904
12782W        W85850  18.049  30.877   0.410
12783W        W85851  37.407  18.182  13.501
12784W        W85852   0.469  30.455   2.092
12785W        W85853   7.213   3.887  13.113
12786W        W85854  27.856  24.537  13.874
12787W        W85855  31.942  40.319   4.103
12788W        W85856   9.017  26.454   0.430
12789W        W85857  35.100  15.286   3.272
12790W        W85858  41.896  18.043   0.379
12791W        W85859  38.729   7.242   0.344
12792W        W85860  30.065   5.949  14.034
12793W        W85861  43.759  17.649  13.364
12794W        W85862  42.366   1.440   2.026
12795W        W85863  11.625  14.717  13.575
12796W        W85864  31.162   4.490  12.501
12797W        W85865  30.247  32.238  12.074
12798W        W85866  29.299  41.377  12.861
12799W        W85867  38.744  39.916   4.557
12800W        W85868  30.429  32.036   3.093
12801W        W85869  40.773  19.040   1.191
12802W        W85870  10.628  29.075  13.250
12803W        W85871  27.979  38.272  13.010
12804W        W85872   4.871   6.174  10.619
12805W        W85873   4.832  17.811  12.937
12806W        W85874  23.755  12.393  12.436
12807W        W85875  35.524  38.033  11.192
12808W        W85876  22.445  39.134   1.758
12809W        W85877  10.223   5.226   0.829
12810W        W85878   9.686  42.268  14.908
12811W        W85879   8.760  43.900  11.750
12812W        W85880  10.374  13.375   0.200
12813W        W85881  40.091  25.069  12.778
12814W        W85882  27.996  12.383  12.052
12815W        W85883  38.122  28.228   1.668
12816W        W85884  38.496  28.924  10.624
12817W        W85885   4.457  42.953  11.578
12818W        W85886  36.514  44.276   4.229
12819W        W85887  12.203  16.228   0.442
12820W        W85888  10.180  19.071  13.339
12821W        W85889  26.961  44.069   0.281
12822W        W85890  38.037  31.885  14.322
12823W        W85891  27.842  30.413   0.855
12824W        W85892  36.932  22.998   4.238
12825W        W85893   5.430  11.514   3.516
12826W        W85894  24.725  15.041  14.770
12827W        W85895  14.308  40.656  12.417
12828W        W85896  23.785  32.910  12.570
12829W        W85897   4.727  36.862   1.264
12830W        W85898  36.305  20.204   3.232
12831W        W85899   4.168  42.178   0.296
12832W        W85900   8.787  18.323  11.646
12833W        W85901  25.524   1.684   2.233
12834W        W85902  10.865   3.362  13.631
12835W        W85903  33.008  35.098   4.536
12836W        W85904  27.158  43.973  13.959
12837W        W85905  35.546  20.775  11.971
12838W        W85906  34.946   7.737   0.204
12839W        W85907  16.391  16.243  13.572
12840W        W85908  28.954  13.819  11.519
12841W        W85909  25.382  13.427   1.021
12842W        W85910  23.307  43.928   4.334
12843W        W85911  43.920  42.061   1.768
12844W        W85912  35.912  30.048   3.298
12845W        W85913  36.192  41.324   0.425
12846W        W85914  12.152  43.104  14.490
12847W        W85915  22.121  41.280   2.906
12848W        W85916  11.226  24.169   4.681
12849W        W85917   5.898  26.250  12.191
12850W        W85918  36.294  27.112   0.022
12851W        W85919  29.015  44.172   1.013
12852W        W85920   3.962  34.495  12.823
12853W        W85921  33.473   6.655  11.178
12854W        W85922  29.688  25.632  13.974
12855W        W85923  23.630  32.852   4.152
12856W        W85924  10.318   0.908   4.145
12857W        W85925  27.608   3.522  10.675
12858W        W85926  31.923  16.407   4.574
12859W        W85927  19.187   0.680  14.406
12860W        W85928  15.658   3.929   4.080
12861W        W85929   0.981  34.164  11.575
12862W        W85930  22.689  17.365  11.139
12863W        W85931  33.472  39.069   0.290
12864W        W85932  27.895   2.757   1.981
12865W        W85933  20.230  18.208   3.483
12866W        W85934   2.272  19.366  14.346
12867W        W85935  32.000  23.447  10.986
12868W        W85936  43.566  33.120   4.042
12869W        W85937  24.950  41.034   2.875
12870W        W85938  39.974   4.658   0.744
12871W        W85939  37.377  15.255   4.040
12872W        W85940  18.690  13.690  13.966
12873W        W85941  21.187  41.319   1.040
12874W        W85942  30.770  30.451   3.636
12875W        W85943  30.540  36.292  14.648
12876W        W85944   2.287  12.917   0.998
12877W        W85945  41.414  12.386   1.693
12878W        W85946  40.564  33.896   4.040
12879W        W85947  43.636   8.412   2.357
12880W        W85948  42.082  34.628   0.241
12881W        W85949  40.321  27.044  14.135
12882W        W85950  12.267  43.805   4.323
12883W        W85951  15.665  44.916  14.517
12884W        W85952  11.432  35.752   0.488
12885W        W85953   4.176  18.659  10.543
12886W        W85954  19.097  44.286  11.041
12887W        W85955  17.486  22.928  11.443
12888W        W85956  18.176  33.053   0.892
12889W        W85957  38.608  30.290   2.143
12890W        W85958   7.125  38.889   3.427
12891W        W85959  17.218  41.576  10.724
12892W        W85960  18.288   1.234  14.006
12893W        W85961  42.015  17.314  11.068
12894W        W85962  42.608  36.261  10.685
12895W        W85963  28.389  41.124   3.697
12896W        W85964  30.943  15.520  10.895
12897W        W85965   4.609  10.378   3.284
12898W        W85966  26.886  29.357   2.729
12899W        W85967  31.961   7.004  12.364
12900W        W85968  17.797  13.585  11.523
12901W        W85969   7.823  17.493   4.065
12902W        W85970  31.025   0.370   3.659
12903W        W85971   3.890  25.019   3.596
12904W        W85972  20.650  18.330   2.134
12905W        W85973   5.878  41.794   0.738
12906W        W85974   3.828  20.599   0.949
12907W        W85975  34.934  31.930   4.993
12908W        W85976  34.486  11.376   2.015
12909W        W85977  38.940   6.480  11.207
12910W        W85978  22.425  28.534  10.645
12911W        W85979   8.781  17.515   4.035
12912W        W85980  20.267   6.491  11.380
12913W        W85981  40.353  35.638  10.705
12914W        W85982  27.459  28.743  12.563
12915W        W85983   0.823  20.562  12.564
12916W        W85984  42.158  13.206   4.839
12917W        W85985   9.190  35.513  14.731
12918W        W85986  35.929  17.634  10.709
12919W        W85987  33.244   5.757  11.197
12920W        W85988  25.586  36.024  13.680
12921W        W85989  41.290  17.042  11.971
12922W        W85990   4.929  37.438  12.359
12923W        W85991  43.817  19.514  14.837
12924W        W85992  34.479   1.222  14.659
12925W        W85993  32.004  26.035  12.664
12926W        W85994  20.314  16.549  11.979
12927W        W85995  38.018   4.317   0.775
12928W        W85996  27.033  41.752  13.529
12929W        W85997  15.528  35.101   3.927
12930W        W85998  30.561  20.275  11.595
12931W        W85999   7.852  38.217   0.315
12932W        W86000  40.757  39.870   2.763
12933W        W86001   0.014  22.769  12.083
12934W        W86002  18.513  15.683  12.200
12935W        W86003  24.976  41.937   2.738
12936W        W86004  31.101  32.103  12.540
12937W        W86005   2.987  17.025   1.352
12938W        W86006   6.265  12.331   0.035
12939W        W86007  36.691  38.303  11.519
12940W        W86008  10.128  11.341   3.809
12941W        W86009  23.950  33.329  14.350
12942W        W86010  36.245  22.777  14.462
12943W        W86011  14.709   9.574   0.978
12944W        W86012  23.213   7.914   2.264
12945W        W86013  17.501  12.410   1.739
12946W        W86014  41.940  15.139   3.585
12947W        W86015  29.431  29.897  13.793
12948W        W86016  38.487  42.010  11.456
12949W        W86017   5.765  39.529  12.487
12950W        W86018  39.936  27.003  13.452
12951W        W86019  35.792  16.647   3.705
12952W        W86020  35.572  43.486   0.231
12953W        W86021  20.007  43.894   5.242
12954W        W86022  43.753   7.484   0.240
12955W        W86023  26.616  17.279  11.900
12956W        W86024  44.279  34.281   1.015
12957W        W86025  10.539  41.393  11.133
12958W        W86026  32.515  24.989   3.330
12959W        W86027  22.137  36.331   2.313
12960W        W86028  26.963  31.790  14.357
12961W        W86029  31.481  25.041  10.790
12962W        W86030  31.013  35.020   4.427
12963W        W86031  43.903   2.693   3.370
12964W        W86032  15.981  19.985  14.311
12965W        W86033  29.811  29.558  14.803
12966W        W86034  24.733  14.569   2.299
12967W        W86035  17.201  28.759   0.959
12968W        W86036  24.708  20.804  11.962
12969W        W86037  27.241  24.338   1.562
12970W        W86038  10.381  15.394  13.078
12971W        W86039   4.883   9.061  11.993
12972W        W86040   2.391  33.491  11.435
12973W        W86041  31.448  20.988   3.689
12974W        W86042  24.554  34.021   4.597
12975W        W86043  42.193  17.687  13.384
12976W        W86044   6.300  42.728  12.455
12977W        W86045   7.968  15.401  13.093
12978W        W86046  33.976  11.730   4.543
12979W        W86047  29.587  41.888   4.764
12980W        W86048  19.087   0.410  13.592
12981W        W86049   6.671  18.487  13.537
12982W        W86050   6.415  18.978   3.285
12983W        W86051  32.292  43.843   0.853
12984W        W86052   4.408  17.152   4.128
12985W        W86053  36.084  13.827   2.853
12986W        W86054   7.727  41.423  13.782
12987W        W86055  17.689  23.704   0.789
12988W        W86056  31.664  15.113   0.903
12989W        W86057  24.730   6.494   1.804
12990W        W86058   2.642  38.877  13.365
12991W        W86059  42.576  14.716   2.310
12992W        W86060  36.345  39.902  10.660
12993W        W86061   9.423   8.782   0.204
12994W        W86062  34.357  11.294   0.118
12995W        W86063  42.253  32.660   2.363
12996W        W86064  21.928   1.806  11.935
12997W        W86065   7.198  32.236   0.237
12998W        W86066   2.894  44.905  11.395
12999W        W86067   0.912  18.842   0.480
13000W        W86068  10.843  30.095  10.779
13001W        W86069  22.175  43.360  11.087
13002W        W86070  19.779  37.378  13.980
13003W        W86071  10.360  38.081   2.821
13004W        W86072  12.294  33.912  13.722
13005W        W86073   2.783  26.486   1.045
13006W        W86074  26.917  10.870  12.044
13007W        W86075  25.003  36.821  11.231
13008W        W86076   1.296  30.674  11.564
13009W        W86077   0.271   4.031  10.489
13010W        W86078  12.247  11.828  13.544
13011W        W86079  24.770   8.132   0.383
13012W        W86080   5.244  15.828  14.315
13013W        W86081   7.878  39.711  11.236
13014W        W86082  44.859   8.263   1.803
13015W        W86083  39.777  25.022   0.124
13016W        W86084  18.461  39.951  11.944
13017W        W86085  40.782   1.998  13.122
13018W        W86086   5.544  40.968  11.220
13019W        W86087   0.943  14.059  13.506
13020W        W86088  13.388   3.779   3.280
13021W        W86089  14.424  19.253  14.991
13022W        W86090  18.560   0.011  12.453
13023W        W86091   5.727  19.992  14.825
13024W        W86092  29.663  34.997   2.104
13025W        W86093  18.685  29.746   2.398
13026W        W86094  21.654   3.038  11.839
13027W        W86095  12.349   8.721  14.257
13028W        W86096  28.002   8.079   2.567
13029W        W86097  44.592   4.201   2.276
13030W        W86098  10.279   4.403  11.764
13031W        W86099  16.609   4.193  11.426
13032W        W86100   7.708  21.122  10.160
13033W        W86101  20.542  28.655   4.127
13034W        W86102  36.794   1.688   1.385
13035W        W86103  44.843  23.657  12.346
13036W        W86104  44.888  42.300   0.428
13037W        W86105   2.998  37.301  10.356
13038W        W86106  40.477  22.003   4.107
13039W        W86107  44.255   1.411  12.676
13040W        W86108  40.265   3.925   2.425
13041W        W86109  12.873  18.167   2.827
13042W        W86110  31.328  25.051   1.543
13043W        W86111  20.063  23.493   4.196
13044W        W86112  12.976  41.021   2.585
13045W        W86113  42.259  23.114  12.830
13046W        W86114  34.911  17.452  11.180
13047W        W86115  25.568  43.690  10.432
13048W        W86116  28.987  19.846   4.311
13049W        W86117  20.035  33.514  14.250
13050W        W86118   8.147  31.057   4.579
13051W        W86119  42.072  25.379   2.803
13052W        W86120  29.675  20.159  11.410
13053W        W86121  21.757  15.103   4.278
13054W        W86122  36.042  29.292  14.678
13055W        W86123  41.094  22.801   1.446
13056W        W86124   6.216  38.147  14.860
13057W        W86125  27.451  23.624  10.861
13058W        W86126  10.748  37.925   4.313
13059W        W86127  13.514   1.218   2.386
13060W        W86128  24.477  28.627  10.794
13061W        W86129  30.936  10.424  12.720
13062W        W86130  26.109   6.066  11.586
13063W        W86131  24.075   8.797   4.301
13064W        W86132   9.601  17.684  10.734
13065W        W86133   3.804  25.106   0.244
13066W        W86134  24.877  37.157   2.175
13067W        W86135  21.653   6.892   0.528
13068W        W86136  28.711  14.253   4.174
13069W        W86137  23.711  44.835   0.355
13070W        W86138  14.327  22.675  13.475
13071W        W86139  15.316   4.531   4.677
13072W        W86140   1.314  43.908  13.175
13073W        W86141  19.323  41.637  11.760
13074W        W86142  43.568  11.797   3.650
13075W        W86143  14.479  44.494  12.255
13076W        W86144  25.178  29.885   4.163
13077W        W86145  30.287  25.013   5.082
13078W        W86146  38.417   0.351   0.922
13079W        W86147  18.202  26.410   4.172
13080W        W86148  36.390  10.026  14.066
13081W        W86149  23.675  16.496  13.248
13082W        W86150  30.864   4.850   1.262
13083W        W86151  36.941   0.931  12.404
13084W        W86152  19.542  28.517  12.219
13085W        W86153  29.652  29.531   2.197
13086W        W86154   0.640  12.180   4.219
13087W        W86155  32.477  26.199   1.813
13088W        W86156  21.788  13.326   1.394
13089W        W86157  24.672  18.536  11.648
13090W        W86158   7.226   7.941   1.403
13091W        W86159  18.224   7.053  13.357
13092W        W86160   2.356  15.823   4.093
13093W        W86161   1.359  16.910  13.976
13094W        W86162   8.363  43.849  12.602
13095W        W86163  22.729  16.601  11.980
13096W        W86164  33.991  15.167   0.379
13097W        W86165  13.214  27.054   4.117
13098W        W86166  12.841  38.070  12.530
13099W        W86167  11.260   3.879   3.905
13100W        W86168  28.179  13.605  14.401
13101W        W86169  15.256   4.773  11.925
13102W        W86170  32.570   1.540  13.342
13103W        W86171  22.518  32.726   1.355
13104W        W86172  38.881  22.320   1.841
13105W        W86173  23.948  21.715   3.595
13106W        W86174   5.998  43.367  11.990
13107W        W86175  23.263  20.778   4.250
13108W        W86176  44.121  25.219   4.242
13109W        W86177  13.838  25.802   2.657
13110W        W86178  11.669  43.004   4.048
13111W        W86179  21.599   1.960  10.628
13112W        W86180  38.875   8.510   0.779
13113W        W86181  11.810  25.929   2.775
13114W        W86182  10.342  35.102  13.437
13115W        W86183  25.918  27.722  11.229
13116W        W86184   0.446  15.106  14.901
13117W        W86185  43.480  33.624   1.094
13118W        W86186  42.110  16.099  10.742
13119W        W86187  22.019   5.901  10.631
13120W        W86188   2.143  25.923  13.537
13121W        W86189  43.034  23.021  13.440
13122W        W86190   9.224  23.539   0.177
13123W        W86191  38.154   0.799   3.731
13124W        W86192  16.537  13.074   2.374
13125W        W86193  29.050  15.118   4.114
13126W        W86194  24.590  42.921  13.828
13127W        W86195  33.465   9.667  10.476
13128W        W86196  17.369  29.010   5.120
13129W        W86197  30.307  44.458  10.703
13130W        W86198   0.427  41.993  14.789
13131W        W86199  43.865   2.755   3.963
13132W        W86200  10.316  19.647  12.190
13133W        W86201  21.094  24.927   4.575
13134W        W86202  36.030  33.979   0.790
13135W        W86203   9.428  43.337   2.413
13136W        W86204   3.293   9.174   4.159
13137W        W86205  11.708   3.682  10.542
13138W        W86206  39.356  14.646  13.532
13139W        W86207  10.503  33.511   2.679
13140W        W86208  29.919   0.771  14.337
13141W        W86209  28.224   2.143  13.905
13142W        W86210  32.612  14.153  13.377
13143W        W86211  38.906  19.146   1.860
13144W        W86212  31.960  20.346  12.930
13145W        W86213  26.246  43.944   2.914
13146W        W86214  41.963  15.615   1.107
13147W        W86215  30.869  19.599  10.674
13148W        W86216  43.089  25.254  12.899
13149W        W86217  39.862   0.749   2.430
13150W        W86218  22.734  14.536  14.438
13151W        W86219  25.552  21.277  12.558
13152W        W86220  33.524  31.162   3.208
13153W        W86221  44.690  32.033   1.572
13154W        W86222   7.776  16.776  13.420
13155W        W86223  42.512  42.364  11.234
13156W        W86224  36.932  24.319   1.859
13157W        W86225  11.392   2.726  12.363
13158W        W86226  34.919  32.635  12.540
13159W        W86227  14.119  43.973  13.363
13160W        W86228  34.806  22.582  12.416
13161W        W86229  22.882  44.089  11.112
13162W        W86230  36.213  39.847  13.382
13163W        W86231  33.521  36.461   0.262
13164W        W86232   8.754  32.395   5.000
13165W        W86233  30.694  39.568   3.256
13166W        W86234   2.301  14.081  12.080
13167W        W86235  13.209  29.085   1.314
13168W        W86236  41.991   8.061  11.217
13169W        W86237  35.406  17.561  14.774
13170W        W86238  29.683  14.305   2.039
13171W        W86239  42.081   5.677   2.032
13172W        W86240  10.448  40.887   3.869
13173W        W86241  36.527  40.537   2.978
13174W        W86242   1.649   3.427  11.518
13175W        W86243  35.417  40.056   4.651
13176W        W86244  21.511  23.551   1.806
13177W        W86245  44.037   9.249   3.287
13178W        W86246  31.288   8.620   2.796
13179W        W86247  23.022  31.546  11.665
13180W        W86248  17.663  32.956   0.913
13181W        W86249   1.277   2.360  11.156
13182W        W86250   5.811  39.039  13.993
13183W        W86251   4.238  18.670  11.975
13184W        W86252  37.110  43.607   0.702
13185W        W86253  25.176  28.826   4.091
13186W        W86254  27.437   7.882   0.883
13187W        W86255  15.749  22.006  10.847
13188W        W86256  44.786   9.403   1.316
13189W        W86257  16.723  42.988   3.097
13190W        W86258  29.558  33.298  13.091
13191W        W86259   0.509   7.010  12.983
13192W        W86260  27.446   7.156  12.930
13193W        W86261   3.896   4.761  14.982
13194W        W86262  24.250  34.339  14.584
13195W        W86263   6.211  21.274   2.677
13196W        W86264  30.101  44.941   4.221
13197W        W86265   6.706  36.027  13.734
13198W        W86266  23.195  16.030  12.625
13199W        W86267  26.958  13.818  10.833
13200W        W86268   1.780  25.001  10.929
13201W        W86269  21.697   3.626   1.745
13202W        W86270   6.631  43.337   4.323
13203W        W86271  21.672   1.430   2.622
13204W        W86272   0.861  32.296   0.273
13205W        W86273  31.548  17.777  13.920
13206W        W86274  41.953  42.169   4.449
13207W        W86275  17.379  41.602   0.752
13208W        W86276  35.981   9.325   3.137
13209W        W86277  28.652  22.785   1.258
13210W        W86278  43.828   2.310   3.715
13211W        W86279  32.531  30.434   2.175
13212W        W86280  18.197  44.916   1.410
13213W        W86281  19.946  32.730   0.443
13214W        W86282  39.275  42.375  12.556
13215W        W86283  14.662   0.600   0.102
13216W        W86284  20.937  21.670  10.624
13217W        W86285  20.951  25.930   4.244
13218W        W86286  24.667  28.064  10.696
13219W        W86287  27.465  13.959   0.224
13220W        W86288  27.434  32.367  11.097
13221W        W86289   8.148  26.789   3.861
13222W        W86290  28.609  18.529   3.258
13223W        W86291  24.976  12.736  12.837
13224W        W86292  38.872  21.015  13.621
13225W        W86293  13.305   7.610  12.538
13226W        W86294  19.794  29.224  12.617
13227W        W86295  39.774  40.827  14.946
13228W        W86296  22.006  13.284   3.132
13229W        W86297   9.499  14.136  12.139
13230W        W86298   1.371  13.592  11.923
13231W        W86299  22.119   0.632   3.777
13232W        W86300  35.841  16.818  11.163
13233W        W86301  25.622   3.201  12.511
13234W        W86302  35.866  26.908   4.645
13235W        W86303  24.277   7.321  10.995
13236W        W86304   9.433   3.198  11.597
13237W        W86305  20.505  33.651   3.604
13238W        W86306   3.418  19.129  13.885
13239W        W86307  12.115  25.914  14.296
13240W        W86308  42.546  25.495   3.239
13241W        W86309   2.714  33.009  14.000
13242W        W86310  10.546  41.412  10.621
13243W        W86311  33.948  12.931  14.757
13244W        W86312  14.068  28.378   3.660
13245W        W86313  38.159  21.445  12.148
13246W        W86314   3.438  13.407   3.272
13247W        W86315   1.341  27.942  13.967
13248W        W86316  31.091  12.144   3.840
13249W        W86317  18.574  20.762   4.291
13250W        W86318  41.877  44.351  14.082
13251W        W86319  41.424  42.356  14.571
13252W        W86320   7.712   9.943  14.924
13253W        W86321  11.015  20.586   0.201
13254W        W86322   2.993  12.648  14.494
13255W        W86323  19.126  37.330  14.532
13256W        W86324   5.749  30.952  11.973
13257W        W86325  41.376   2.828  13.617
13258W        W86326  40.785  32.053   4.985
13259W        W86327  26.632  39.580   4.681
13260W        W86328   1.476   0.835  13.289
13261W        W86329  17.392  34.301  11.959
13262W        W86330   0.004  11.791   1.809
13263W        W86331  21.996  15.120  13.508
13264W        W86332   2.221  24.029   3.650
13265W        W86333  44.019  44.448  10.725
13266W        W86334  28.641  26.949  12.027
13267W        W86335  39.041  12.631  10.553
13268W        W86336  36.217   2.120   3.389
13269W        W86337  24.327  28.407   3.142
13270W        W86338  38.944  38.620  12.208
13271W        W86339  11.195  40.611  10.754
13272W        W86340  31.627  40.865  13.335
13273W        W86341  43.431  21.294  14.820
13274W        W86342  32.726  27.208  11.047
13275W        W86343   7.384   1.932  12.906
13276W        W86344  32.012  23.692   2.622
13277W        W86345  33.201  35.046   4.066
13278W        W86346   2.793  12.879   2.677
13279W        W86347  41.432  41.806  13.039
13280W        W86348  17.801  38.742  10.810
13281W        W86349  19.917  23.130  11.990
13282W        W86350  30.330  38.823   3.130
13283W        W86351  43.764   1.204   1.753
13284W        W86352  29.340  14.116   0.827
13285W        W86353  41.664  10.257  12.071
13286W        W86354   0.462  12.828  10.746
13287W        W86355  42.420   7.787  11.149
13288W        W86356  43.057   6.983  11.111
13289W        W86357   5.879  18.053  13.589
13290W        W86358  30.883  34.506   1.540
13291W        W86359  25.631  29.641   4.140
13292W        W86360  21.348   4.237  12.389
13293W        W86361  20.398  12.797  14.448
13294W        W86362  37.320   6.107   1.785
13295W        W86363   6.725   6.878  14.965
13296W        W86364  14.663  40.999  13.018
13297W        W86365  41.931  38.319   2.075
13298W        W86366  14.548  17.122   1.879
13299W        W86367   3.212   3.802  13.098
13300W        W86368  32.533  27.227  10.559
13301W        W86369  15.550  18.448   3.168
13302W        W86370  15.448  23.621   0.775
13303W        W86371  23.043  12.213   0.363
13304W        W86372  10.084  32.034  11.023
13305W        W86373  18.267   9.530   2.723
13306W        W86374  41.784  43.376  13.929
13307W        W86375  29.554   1.521   4.585
13308W        W86376  36.907  41.482   0.865
13309W        W86377  37.829  28.671  14.607
13310W        W86378   6.309   8.700   0.896
13311W        W86379  30.963  21.178   3.746
13312W        W86380  38.848  12.867  13.964
13313W        W86381  20.249  41.785  10.963
13314W        W86382  17.947  27.621   2.205
13315W        W86383  37.137  12.947  13.889
13316W        W86384  15.765  16.148   4.765
13317W        W86385   0.804  21.971   0.996
13318W        W86386  37.729  22.219  10.608
13319W        W86387  25.259  21.520  12.912
13320W        W86388  21.308  25.281   1.333
13321W        W86389  34.901   4.407   0.846
13322W        W86390   3.830  41.122   0.278
13323W        W86391  14.534  44.484   4.472
13324W        W86392   6.357  18.550   1.848
13325W        W86393  17.712  41.228   0.827
13326W        W86394  22.996  19.082  10.934
13327W        W86395  39.840  42.484   1.266
13328W        W86396  15.834  30.591   2.339
13329W        W86397   9.154   0.960  12.992
13330W        W86398  33.719  24.309   4.623
13331W        W86399  30.718  35.851   4.630
13332W        W86400  35.878  11.288   4.601
13333W        W86401   6.247   5.864  11.978
13334W        W86402  19.172   8.644   1.318
13335W        W86403  39.572  38.278   3.293
13336W        W86404  13.072  32.550   0.899
13337W        W86405  20.972  16.632   5.299
13338W        W86406  26.218  19.147  14.670
13339W        W86407  42.700  31.180   3.275
13340W        W86408  17.602  30.569   4.249
13341W        W86409  30.821  44.942  12.475
13342W        W86410   6.884  20.552   3.758
13343W        W86411  22.748  31.107   4.406
13344W        W86412  44.035  13.995   3.283
13345W        W86413  21.742  29.951   2.978
13346W        W86414   7.778  35.696   1.266
13347W        W86415   6.479  23.982  12.554
13348W        W86416  32.461  38.867  14.985
13349W        W86417  23.722  34.203  11.628
13350W        W86418   5.733  26.051   4.389
13351W        W86419  20.512  23.223   0.971
13352W        W86420  33.196  21.071   3.144
13353W        W86421  34.078  31.526  10.542
13354W        W86422  41.525  33.130  10.719
13355W        W86423  24.420  40.801  12.951
13356W        W86424   3.450  40.955   0.569
13357W        W86425  24.977  34.239   3.309
13358W        W86426   1.181   1.456   3.385
13359W        W86427  25.472   5.370  12.001
13360W        W86428  27.499  40.321   1.869
13361W        W86429   9.654  34.086  11.602
13362W        W86430  18.811  27.031   3.097
13363W        W86431   7.090  36.886  13.771
13364W        W86432  15.460  15.766   3.029
13365W        W86433  39.365  35.085  12.696
13366W        W86434  28.929  17.219   1.480
13367W        W86435  10.307  12.967   0.511
13368W        W86436  26.922   5.395   2.261
13369W        W86437  19.759  21.738   4.928
13370W        W86438  34.054   6.415   3.663
13371W        W86439  38.022  10.171  12.602
13372W        W86440  32.783  34.701   4.003
13373W        W86441  14.565  11.373  11.935
13374W        W86442  14.224  44.784   4.114
13375W        W86443  17.679  23.276  12.321
13376W        W86444  37.927  35.366   2.149
13377W        W86445  10.470   5.220   4.713
13378W        W86446  13.759   5.874   3.059
13379W        W86447   8.178  12.572  13.049
13380W        W86448  39.973  34.615  13.828
13381W        W86449  12.373  29.473   1.254
13382W        W86450  37.911   3.837   3.745
13383W        W86451  27.709  12.124   1.316
13384W        W86452  28.146  35.322   2.751
13385W        W86453  20.317   2.901  11.133
13386W        W86454  31.414  37.861  10.650
13387W        W86455  11.761  42.452  13.949
13388W        W86456  38.346   5.469  14.171
13389W        W86457  30.861  10.176   5.092
13390W        W86458   4.922  17.329  11.664
13391W        W86459  33.514  31.587  11.286
13392W        W86460  29.908  36.948  14.009
13393W        W86461   8.131  30.601   1.821
13394W        W86462  42.249  41.572   1.706
13395W        W86463  12.478  44.136   2.350
13396W        W86464  20.455  18.274   0.275
13397W        W86465  37.380  42.843   0.295
13398W        W86466  30.963   7.623  11.635
13399W        W86467  11.182  41.722   0.882
13400W        W86468   6.659   1.426  12.463
13401W        W86469  35.531  32.103  12.342
13402W        W86470  26.704  31.566  10.835
13403W        W86471  20.002  22.496  14.280
13404W        W86472   3.195  24.653  14.795
13405W        W86473   7.642  36.467   3.358
13406W        W86474   4.228   6.716  14.872
13407W        W86475  28.651  24.761  14.724
13408W        W86476  29.315  38.772   3.332
13409W        W86477  41.232  40.478  11.037
13410W        W86478   2.721   0.722  10.815
13411W        W86479   2.856   0.306  11.720
13412W        W86480   9.360  34.396   5.059
13413W        W86481  40.983  41.814  10.716
13414W        W86482   3.244  32.360  12.349
13415W        W86483  43.991  21.074   1.885
13416W        W86484  14.646  13.243  12.111
13417W        W86485  34.754   4.571  13.774
13418W        W86486  21.288   9.406   2.232
13419W        W86487   6.540   7.269   4.391
13420W        W86488  23.400  40.453  12.329
13421W        W86489   1.056  20.738  11.664
13422W        W86490  35.056  30.085   4.660
13423W        W86491   8.463  11.178  11.268
13424W        W86492  16.020  38.988   4.730
13425W        W86493  13.841  39.945  12.984
13426W        W86494   2.339  28.297   9.824
13427W        W86495   9.259  24.313  11.230
13428W        W86496   7.916  13.305   3.251
13429W        W86497  43.930  34.008  10.903
13430W        W86498  27.458  43.437  12.664
13431W        W86499  17.147  28.531   2.015
13432W        W86500   9.123   5.626   2.494
13433W        W86501  44.458  13.766   1.676
13434W        W86502  28.095  40.931  14.490
13435W        W86503  16.892  31.657   1.670
13436W        W86504  20.396  17.237  14.400
13437W        W86505  12.696  43.973   3.733
13438W        W86506  25.234   2.505  13.322
13439W        W86507   6.783  27.954  10.677
13440W        W86508  29.031  35.351   0.739
13441W        W86509  23.597  17.069  11.036
13442W        W86510  31.986  40.544  14.514
13443W        W86511  35.483   3.183  11.640
13444W        W86512   5.620  42.353  12.489
13445W        W86513  43.409  24.223   0.389
13446W        W86514   6.468   9.766   4.226
13447W        W86515  20.959  18.093   4.361
13448W        W86516  27.856  23.428  13.834
13449W        W86517   7.914  42.984  11.137
13450W        W86518   9.917  41.284   4.631
13451W        W86519  27.937  36.472   0.943
13452W        W86520   6.838  36.477  13.982
13453W        W86521  24.982  25.439  13.506
13454W        W86522   4.421  13.401   3.606
13455W        W86523  26.432  27.372   2.686
13456W        W86524  21.125  37.409  11.057
13457W        W86525  29.957   8.517   1.807
13458W        W86526   0.460   0.192  13.948
13459W        W86527  42.818  26.091   0.423
13460W        W86528  34.899  25.542  14.331
13461W        W86529  36.027  22.840  12.923
13462W        W86530  21.013  17.563  13.211
13463W        W86531  17.182  37.059   3.193
13464W        W86532  12.182  25.991   0.360
13465W        W86533   2.345  33.948  12.143
13466W        W86534  38.172  13.212   1.129
13467W        W86535  18.970  20.137   2.232
13468W        W86536  31.813  28.456   3.389
13469W        W86537   0.085  17.561  11.760
13470W        W86538   4.294  32.481   0.474
13471W        W86539  29.883  29.632  13.932
13472W        W86540  36.058   2.755  14.600
13473W        W86541  34.938   1.462   2.207
13474W        W86542  28.887  10.938   5.337
13475W        W86543  16.327  24.372  13.594
13476W        W86544  14.335  12.824  13.553
13477W        W86545   7.490   5.636  13.436
13478W        W86546   3.778  27.936  10.702
13479W        W86547  11.958  27.506  14.283
13480W        W86548   8.781  14.966   4.289
13481W        W86549  43.142  16.791  12.136
13482W        W86550  44.899  32.156  10.871
13483W        W86551  28.197   1.585   0.887
13484W        W86552  39.537   9.427   1.666
13485W        W86553  21.887  39.400   4.470
13486W        W86554  35.842   8.449   3.281
13487W        W86555  35.611  44.382   4.156
13488W        W86556  15.286  32.627  12.984
13489W        W86557  14.588  37.055   3.862
13490W        W86558   3.054   6.390  12.396
13491W        W86559  38.003  13.123   2.960
13492W        W86560   7.669  21.967   1.816
13493W        W86561  38.830  15.312  13.825
13494W        W86562  39.302  23.610   1.776
13495W        W86563  42.567  44.699  10.400
13496W        W86564   4.455  27.636   1.916
13497W        W86565  22.757   3.848  13.107
13498W        W86566  44.025  31.621   0.032
13499W        W86567  30.528  22.183   0.075
13500W        W86568  22.177  22.216  11.072
13501W        W86569  15.261  16.074  12.984
13502W        W86570  26.049  37.789   4.099
13503W        W86571  22.188  14.552   2.150
13504W        W86572  13.818  29.943   3.753
13505W        W86573   5.982  16.074  12.852
13506W        W86574  39.093   7.166   3.135
13507W        W86575  41.091  18.179   1.597
13508W        W86576  13.728   1.914   4.712
13509W        W86577  44.564  25.742  11.551
13510W        W86578  34.644  43.363  11.581
13511W        W86579  35.403  20.601   2.989
13512W        W86580  44.747  15.176  13.470
13513W        W86581   1.285  20.498   0.985
13514W        W86582  18.817   3.920  13.097
13515W        W86583  40.128   4.217   1.666
13516W        W86584  41.528  23.962   1.894
13517W        W86585  41.350  39.530  10.975
13518W        W86586  25.631   7.247  11.503
13519W        W86587   4.923  20.802   2.194
13520W        W86588  42.519  25.230  12.908
13521W        W86589  15.743  41.890  14.280
13522W        W86590  26.425   5.541   3.672
13523W        W86591  33.661  14.796  14.012
13524W        W86592  25.152  44.946   2.815
13525W        W86593  33.559   1.487   4.267
13526W        W86594  43.511  41.247   1.816
13527W        W86595  11.249   8.764   2.219
13528W        W86596  20.747  15.298   3.739
13529W        W86597  28.207   4.860   3.003
13530W        W86598  37.454  43.536   2.661
13531W        W86599  29.667  44.286  10.256
13532W        W86600   6.349  21.588  10.723
13533W        W86601  41.949  42.537   4.795
13534W        W86602  19.174   0.812  13.911
13535W        W86603  21.183  27.250   2.726
13536W        W86604   7.237  32.150  13.416
13537W        W86605  40.053  26.734   4.250
13538W        W86606  42.139   4.650   0.477
13539W        W86607  44.474  25.169  13.357
13540W        W86608  33.022  16.572   2.802
13541W        W86609  29.632   0.953  12.000
13542W        W86610  31.423  23.810   0.368
13543W        W86611  32.045  38.546  12.874
13544W        W86612  15.035  15.735   0.353
13545W        W86613  27.438  42.458  14.557
13546W        W86614  44.539  28.866  13.023
13547W        W86615  36.049   5.847  13.103
13548W        W86616   9.163  17.290  13.916
13549W        W86617  24.990  38.000  14.824
13550W        W86618  11.833  41.037  11.901
13551W        W86619  32.030  10.196  10.745
13552W        W86620  20.767   3.505   1.721
13553W        W86621  43.392  34.423  12.538
13554W        W86622   8.608   2.393   5.420
13555W        W86623  20.022   4.172   3.715
13556W        W86624  14.532  10.230   4.747
13557W        W86625  42.262   6.996  14.856
13558W        W86626  18.608   1.997   3.900
13559W        W86627   2.354  22.403  11.569
13560W        W86628  30.443  12.283   1.714
13561W        W86629   7.860  36.121   5.093
13562W        W86630   7.495   0.528   4.274
13563W        W86631  14.727   4.411  10.481
13564W        W86632  19.798  24.198   1.633
13565W        W86633  38.890   3.371  11.573
13566W        W86634   4.864  37.049   3.142
13567W        W86635   0.878  28.187  13.894
13568W        W86636  31.562  13.784   1.027
13569W        W86637  20.094   1.476   0.787
13570W        W86638   9.711   1.426  11.861
13571W        W86639   4.730  24.968   3.242
13572W        W86640  44.295  30.523   4.599
13573W        W86641  19.584  33.422   1.624
13574W        W86642  40.098  21.441  14.727
13575W        W86643   7.989  20.309   1.394
13576W        W86644  29.579  30.913   3.536
13577W        W86645  33.432  44.359  11.466
13578W        W86646  22.681   3.891   0.419
13579W        W86647  32.821   1.292  12.958
13580W        W86648  15.201  34.812   3.657
13581W        W86649  11.726   5.232  10.633
13582W        W86650  26.844   1.261   4.599
13583W        W86651  42.015  31.418  13.822
13584W        W86652  11.754  20.055  13.583
13585W        W86653  25.101  40.834   1.229
13586W        W86654  38.834  10.816   3.996
13587W        W86655  38.954  31.592   0.521
13588W        W86656  30.373  23.259  14.479
13589W        W86657  28.281   7.240   2.735
13590W        W86658   8.178  22.284  10.777
13591W        W86659  27.096   0.298   0.912
13592W        W86660  41.692  16.162  13.918
13593W        W86661  22.115  29.565   3.220
13594W        W86662  27.011  20.512   1.735
13595W        W86663  40.168  44.814  13.949
13596W        W86664   3.913  15.573   4.621
13597W        W86665  18.118  24.894   4.211
13598W        W86666  44.700  40.027  13.037
13599W        W86667  21.254   3.715  14.889
13600W        W86668   5.822  42.870  13.446
13601W        W86669  24.211  28.585  11.275
13602W        W86670  42.783  28.621  12.817
13603W        W86671  22.518   1.365  10.957
13604W        W86672  33.366  33.094   2.435
13605W        W86673   4.550  32.177  11.931
13606W        W86674  11.801   6.461  11.059
13607W        W86675  12.554  41.391   0.690
13608W        W86676  25.025  36.917  12.108
13609W        W86677  26.710  25.693   2.540
13610W        W86678  38.074  22.631   2.730
13611W        W86679  22.057  42.521  11.664
13612W        W86680  43.818  38.056  14.440
13613W        W86681   3.767  42.329   1.452
13614W        W86682  16.191   8.610  13.843
13615W        W86683  43.824   3.784   4.260
13616W        W86684  44.441  22.102  11.687
13617W        W86685  25.033  35.959   2.731
13618W        W86686  36.371  23.703   3.170
13619W        W86687   0.676  13.011  13.385
13620W        W86688  34.155   1.822  11.523
13621W        W86689  26.121   5.399   2.797
13622W        W86690   0.906  43.384  12.956
13623W        W86691  15.312   2.900  14.664
13624W        W86692   1.909   9.317   0.714
13625W        W86693  13.629  30.433  14.758
13626W        W86694   8.212  17.070  10.790
13627W        W86695  14.799  31.026   0.871
13628W        W86696  33.596  34.935   4.408
13629W        W86697  10.283  31.998  11.494
13630W        W86698  29.894  24.721   1.718
13631W        W86699  18.571  38.092   2.073
13632W        W86700  36.874   0.863  14.844
13633W        W86701  19.622   3.330  11.501
13634W        W86702  11.391  30.608  13.020
13635W        W86703  15.452  22.094  11.974
13636W        W86704  13.743  43.944   2.171
13637W        W86705   7.018  35.323   4.640
13638W        W86706  44.516  24.746   3.090
13639W        W86707  43.218  37.073  11.623
13640W        W86708  15.755  15.999   3.368
13641W        W86709  18.201  43.999  12.098
13642W        W86710  34.563   8.399  12.591
13643W        W86711  27.465  15.175   0.311
13644W        W86712  41.818  33.215  13.411
13645W        W86713   3.386   4.450   3.306
13646W        W86714  17.319  26.028  14.701
13647W        W86715  32.759  16.921  11.539
13648W        W86716  41.045  17.320   1.778
13649W        W86717  26.183   0.125  13.886
13650W        W86718  38.279  15.326  13.850
13651W        W86719  15.147  27.059   3.956
13652W        W86720   5.485  37.279  11.560
13653W        W86721  38.491  13.628   1.130
13654W        W86722  44.586  22.115   0.434
13655W        W86723  20.652  42.487   4.863
13656W        W86724   0.032  44.215   3.089
13657W        W86725  37.260  12.860  11.196
13658W        W86726  32.074  11.266   1.088
13659W        W86727  10.102  15.636  11.120
13660W        W86728  23.193  18.516   0.380
13661W        W86729  26.650  10.147   2.213
13662W        W86730  12.077   8.478  12.451
13663W        W86731  39.313  18.806  10.394
13664W        W86732  33.505  40.958  12.943
13665W        W86733  35.971  41.761   1.186
13666W        W86734  36.955  40.765   3.735
13667W        W86735   2.495  26.581   4.492
13668W        W86736  24.023  43.476  12.470
13669W        W86737  41.862  16.769  10.180
13670W        W86738  36.837   4.945   1.343
13671W        W86739  10.442  30.357  12.837
13672W        W86740  13.549   2.457  11.737
13673W        W86741  42.273  25.022   3.151
13674W        W86742  17.457  13.755  11.884
13675W        W86743  42.422  32.180  13.272
13676W        W86744  18.073  30.060  14.417
13677W        W86745  41.439  31.789   3.347
13678W        W86746  20.976   8.856  13.262
13679W        W86747   0.705   3.883   1.432
13680W        W86748  30.877   5.753   0.014
13681W        W86749  42.831  31.088   1.600
13682W        W86750  33.848  42.937   4.967
13683W        W86751  15.861  22.690   3.696
13684W        W86752  40.066  23.682  10.769
13685W        W86753  21.963  41.839   3.727
13686W        W86754  40.591  12.708   0.235
13687W        W86755   5.685  15.573   4.367
13688W        W86756  41.288   8.761  14.416
13689W        W86757  24.498  14.821  11.127
13690W        W86758   3.419   3.262  14.839
13691W        W86759  34.996  24.393  13.650
13692W        W86760  42.516  39.521  12.958
13693W        W86761  24.202  21.070  14.508
13694W        W86762   9.636   3.979  12.581
13695W        W86763  40.429  35.828  13.797
13696W        W86764   5.452  14.257   3.143
13697W        W86765  42.584   2.650   3.516
13698W        W86766  28.970  13.158   3.543
13699W        W86767  40.650  14.720  12.896
13700W        W86768  26.134   5.539  12.431
13701W        W86769  15.666  33.133   0.831
13702W        W86770  17.252   9.901  11.119
13703W        W86771  21.212  43.449   1.603
13704W        W86772  41.087   2.646   4.651
13705W        W86773  34.444  43.359   3.070
13706W        W86774  13.317  11.664  11.631
13707W        W86775  35.361  22.721   2.746
13708W        W86776  22.766  22.765   2.858
13709W        W86777  14.081  32.960  11.185
13710W        W86778  39.343   6.197   2.607
13711W        W86779  10.779  44.975  10.941
13712W        W86780   0.319  28.922   2.297
13713W        W86781  43.946   6.037  11.580
13714W        W86782   9.891  32.951  12.590
13715W        W86783  21.474  32.400   2.890
13716W        W86784   8.222  17.358   1.902
13717W        W86785   7.802   7.317   3.749
13718W        W86786  18.506  24.158   1.400
13719W        W86787  11.589  12.724   0.042
13720W        W86788  39.936  26.358   1.413
13721W        W86789  38.814  25.426   0.873
13722W        W86790  36.165   1.843   2.819
13723W        W86791  34.308  32.093   1.383
13724W        W86792  34.092  26.707   3.302
13725W        W86793  43.866   3.387   1.193
13726W        W86794  23.210   3.116  13.323
13727W        W86795  28.003   0.190  13.374
13728W        W86796  11.906   5.923   3.699
13729W        W86797  42.474  33.348  11.515
13730W        W86798  23.552  30.429   0.439
13731W        W86799   9.194  34.566   3.174
13732W        W86800  24.512  40.841  11.098
13733W        W86801  38.476  14.036  13.523
13734W        W86802  41.722  27.463  12.818
13735W        W86803  42.192   6.469  11.250
13736W        W86804  20.672  26.868  10.576
13737W        W86805   2.422  35.922  10.567
13738W        W86806  14.890   1.929   1.726
13739W        W86807  42.055  26.965  10.754
13740W        W86808   9.618  16.888   2.815
13741W        W86809  24.598   6.665  13.958
13742W        W86810  40.801   6.193   2.863
13743W        W86811  18.008  29.662  14.764
13744W        W86812   0.905   8.713   3.319
13745W        W86813   8.317  41.307  14.576
13746W        W86814   9.702  29.938  13.807
13747W        W86815  43.969   5.420  14.410
13748W        W86816  17.034  10.648  10.666
13749W        W86817  12.273   6.927  12.529
13750W        W86818  44.838   5.138  12.390
13751W        W86819   0.633   5.144   3.693
13752W        W86820  25.687   2.436  14.813
13753W        W86821   7.415  22.263   0.839
13754W        W86822  40.155  14.814  12.829
13755W        W86823   9.712   5.624  13.789
13756W        W86824  34.897  31.672  11.130
13757W        W86825  36.355   5.960  14.396
13758W        W86826   0.822  30.442  11.585
13759W        W86827  16.746  18.050   3.751
13760W        W86828  22.064  28.283   1.876
13761W        W86829   9.398  41.369   4.598
13762W        W86830  30.408  43.349   1.261
13763W        W86831  25.638  41.886  10.805
13764W        W86832  39.522  43.738   2.168
13765W        W86833  21.086  37.805   2.256
13766W        W86834   4.867   7.302  13.813
13767W        W86835  32.656  16.164   1.664
13768W        W86836   2.510   8.924   1.298
13769W        W86837  41.939  22.696   4.805
13770W        W86838  11.414  37.316  12.459
13771W        W86839  14.870  33.230  11.504
13772W        W86840  40.352   8.917  11.840
13773W        W86841  22.103   9.929   1.422
13774W        W86842  33.001  25.000   4.075
13775W        W86843  40.862   9.311   4.685
13776W        W86844  37.789  27.606   0.864
13777W        W86845  10.943  33.846   0.516
13778W        W86846  22.684  42.565  10.653
13779W        W86847  12.683  27.221   0.854
13780W        W86848  43.719  13.644  13.574
13781W        W86849  43.124  34.116   4.117
13782W        W86850   5.732  15.517   4.877
13783W        W86851   7.062   3.345   2.521
13784W        W86852  24.838  19.599   1.522
13785W        W86853  21.708  14.409   1.977
13786W        W86854   6.414  29.134  13.824
13787W        W86855   3.865  42.572  10.925
13788W        W86856  31.546  11.416  14.195
13789W        W86857  26.514  16.711   3.613
13790W        W86858   3.843  29.514   1.895
13791W        W86859  15.872   7.649   3.781
13792W        W86860  15.074  28.574   4.840
13793W        W86861  41.912  41.982  12.865
13794W        W86862   5.574  32.337   3.278
13795W        W86863  27.759   1.590  14.398
13796W        W86864   7.954  34.104   1.230
13797W        W86865   0.366   1.317   1.928
13798W        W86866  26.989  22.061   0.350
13799W        W86867   6.354  35.451   0.297
13800W        W86868  22.517  41.105   3.665
13801W        W86869  38.356  41.205   3.787
13802W        W86870   0.240  40.173  13.489
13803W        W86871  22.293   6.519   4.661
13804W        W86872  24.218  31.093   3.569
13805W        W86873  17.800  13.359  12.004
13806W        W86874  20.984  14.525  14.798
13807W        W86875   1.886  23.152  13.610
13808W        W86876   0.444  29.742  12.962
13809W        W86877  35.134  31.431   2.127
13810W        W86878   0.755  13.534   3.190
13811W        W86879  18.141  14.320  13.929
13812W        W86880  25.329  44.960   4.576
13813W        W86881  31.576  19.165  11.579
13814W        W86882   1.454  34.543  13.829
13815W        W86883  41.958  31.160   2.767
13816W        W86884  35.106  30.636  14.733
13817W        W86885  40.485   0.197  12.846
13818W        W86886  17.709  15.460   0.270
13819W        W86887  35.096   0.183  10.674
13820W        W86888  33.889   6.313  10.689
13821W        W86889   8.648  31.175   3.457
13822W        W86890   0.987  30.965   4.782
13823W        W86891  29.860  36.971   0.722
13824W        W86892  11.292  36.021   3.401
13825W        W86893  22.696  41.599  12.181
13826W        W86894   0.345  16.664   4.475
13827W        W86895  15.526   7.856  12.217
13828W        W86896  41.802  32.545  14.988
13829W        W86897  42.249  31.427   3.151
13830W        W86898   4.471  42.846   0.983
13831W        W86899  30.525  13.598   3.626
13832W        W86900   6.710  24.594   0.020
13833W        W86901  41.473   4.237   1.310
13834W        W86902  31.952  41.927   1.470
13835W        W86903  24.409   9.846   1.798
13836W        W86904  33.436  22.067   1.055
13837W        W86905  28.583  11.909  12.759
13838W        W86906  25.804  24.233   2.777
13839W        W86907  40.409   5.355   1.811
13840W        W86908  34.907  13.718  14.947
13841W        W86909  18.582  31.376   4.372
13842W        W86910  27.818  17.046  13.521
13843W        W86911   1.261  27.672   4.128
13844W        W86912  13.892   0.335  12.025
13845W        W86913  36.631  22.189  11.543
13846W        W86914   6.123  23.626  12.446
13847W        W86915  41.505  39.940  13.542
13848W        W86916  30.969   1.700   1.488
13849W        W86917  27.989  29.885  13.904
13850W        W86918   1.451   7.834  11.576
13851W        W86919  35.290  34.027  14.961
13852W        W86920  23.493  41.799  12.508
13853W        W86921   7.413   9.788  11.405
13854W        W86922  18.232  41.834   1.400
13855W        W86923  36.453   8.218   1.975
13856W        W86924  12.800  34.113  14.793
13857W        W86925   5.323  21.084   4.075
13858W        W86926  43.899   4.713   4.302
13859W        W86927  42.363  26.946  12.500
13860W        W86928  20.781  16.654  12.174
13861W        W86929  18.556  29.645  13.020
13862W        W86930  38.124   6.473   4.883
13863W        W86931  29.204  25.429   4.137
13864W        W86932  34.124  42.038   1.722
13865W        W86933  22.492  26.211   1.338
13866W        W86934  30.944  36.524   3.243
13867W        W86935  31.525   3.947   3.308
13868W        W86936  15.288  34.475   1.881
13869W        W86937  43.964  33.532  11.718
13870W        W86938  33.475   1.623   2.359
13871W        W86939   1.439  19.309   4.073
13872W        W86940  39.014  13.574   1.333
13873W        W86941  17.163  20.941  12.157
13874W        W86942   8.429  31.509   3.775
13875W        W86943   6.167  38.777  13.313
13876W        W86944   0.519  24.023  14.453
13877W        W86945   2.732  27.071   3.283
13878W        W86946  11.248   7.456   0.446
13879W        W86947  38.614  37.568  11.439
13880W        W86948   3.010  32.570   4.070
13881W        W86949  41.123  26.691  13.941
13882W        W86950  33.550  39.311  14.765
13883W        W86951  20.597  39.555  14.632
13884W        W86952  25.989   5.306   4.499
13885W        W86953  35.831  36.430   4.489
13886W        W86954  40.423  21.548   1.316
13887W        W86955  16.718  23.084   1.619
13888W        W86956  43.480  37.568   0.268
13889W        W86957  15.118  25.753  11.307
13890W        W86958  39.916   6.439  13.775
13891W        W86959  18.289   7.805   2.835
13892W        W86960  26.600  30.074   2.651
13893W        W86961  38.963  29.643   0.427
13894W        W86962  26.225  34.599  10.707
13895W        W86963  34.117   3.228  11.553
13896W        W86964  22.782  25.119  12.140
13897W        W86965  12.896  18.223   5.034
13898W        W86966   0.903  40.482  14.121
13899W        W86967  29.318  32.207  11.059
13900W        W86968   0.198  36.982   1.367
13901W        W86969   5.360  37.026  14.674
13902W        W86970  17.246  27.209   4.883
13903W        W86971  12.844  14.182   1.362
13904W        W86972  21.918  26.438  10.985
13905W        W86973  22.396  25.222  12.467
13906W        W86974   1.467  20.216   2.846
13907W        W86975  31.582  42.033  14.640
13908W        W86976  28.967   9.778   2.066
13909W        W86977  28.185   1.840   9.876
13910W        W86978  15.092  39.393  13.772
13911W        W86979   1.274  43.721  14.213
13912W        W86980  22.763   9.685  14.944
13913W        W86981  20.358  38.397   4.190
13914W        W86982  26.743   6.910   1.249
13915W        W86983  34.367  23.614  12.539
13916W        W86984  23.435  30.039  12.057
13917W        W86985  20.161   3.935  13.145
13918W        W86986   5.952  22.290   0.554
13919W        W86987   8.807  16.016  12.144
13920W        W86988  20.178  34.465   2.595
13921W        W86989   5.277  30.522   4.720
13922W        W86990  13.715  40.008  11.880
13923W        W86991  16.679  13.564   2.557
13924W        W86992   3.386   6.724   2.694
13925W        W86993  12.072  15.087   4.543
13926W        W86994  43.062  17.065  13.462
13927W        W86995  11.663  18.537   3.370
13928W        W86996   4.698  38.958   0.161
13929W        W86997  37.294   9.292   3.835
13930W        W86998  23.471  37.808   3.718
13931W        W86999  28.637  33.931  13.181
13932W        W87000   5.852  44.485  11.233
13933W        W87001  31.369   9.350   3.605
13934W        W87002  33.098  20.289  12.414
13935W        W87003  35.968  25.029  12.881
13936W        W87004  24.997  38.911  12.419
13937W        W87005   8.268  40.310   3.346
13938W        W87006  13.592   5.156   0.452
13939W        W87007  38.055   8.809  12.837
13940W        W87008  23.008  19.713   2.900
13941W        W87009   1.682  28.001   3.335
13942W        W87010  22.306  29.007   9.956
13943W        W87011  29.395  16.768   4.154
13944W        W87012  19.558  16.830   2.769
13945W        W87013  29.175  17.585   1.120
13946W        W87014  10.079  31.566  11.649
13947W        W87015  33.569  39.974  14.215
13948W        W87016  23.240  11.399   1.932
13949W        W87017  29.456   8.807  12.898
13950W        W87018   6.740  27.539   4.022
13951W        W87019   2.850  27.233   4.492
13952W        W87020  36.605  36.252  10.498
13953W        W87021   7.223   4.947  11.832
13954W        W87022  16.594  27.962   3.417
13955W        W87023   0.431   1.284  14.797
13956W        W87024  30.742  42.506  14.668
13957W        W87025  26.248  34.342  13.990
13958W        W87026   7.696  14.614  11.103
13959W        W87027  32.591  19.896   0.762
13960W        W87028  24.624  16.532   3.037
13961W        W87029  44.912  14.105   3.238
13962W        W87030  20.519  29.137  13.859
13963W        W87031  18.796   6.487   0.643
13964W        W87032  28.997  30.418  14.438
13965W        W87033  43.307  44.939   4.135
13966W        W87034  16.753  10.969   3.226
13967W        W87035  44.397  38.092   3.603
13968W        W87036   7.531  23.055  14.522
13969W        W87037  43.388  24.265  13.335
13970W        W87038  16.206  31.414  13.182
13971W        W87039  13.436  11.546   3.227
13972W        W87040  34.492  10.383   0.248
13973W        W87041   2.893  16.087  13.545
13974W        W87042  19.684  23.757  13.442
13975W        W87043  28.219  34.657  14.530
13976W        W87044  41.357  20.562   0.837
13977W        W87045  33.467   4.903   1.760
13978W        W87046  42.460  42.425   1.181
13979W        W87047  39.854  29.548   4.183
13980W        W87048  33.600  44.376  14.837
13981W        W87049   2.311  24.599  14.306
13982W        W87050  41.578  16.587  11.990
13983W        W87051  22.084  37.413  12.096
13984W        W87052   8.003  32.193  14.968
13985W        W87053   0.299   7.256  10.710
13986W        W87054  30.403  20.337   2.944
13987W        W87055   9.393   0.300   0.484
13988W        W87056   3.412  28.259  10.900
13989W        W87057  31.028   0.388   3.126
13990W        W87058  18.092   9.360  11.123
13991W        W87059  35.071  22.387   3.310
13992W        W87060   4.307  13.317  10.750
13993W        W87061  30.126  42.394  11.288
13994W        W87062  43.282  13.075  12.165
13995W        W87063   4.296  22.145   0.011
13996W        W87064   5.702  31.154  13.875
13997W        W87065  29.529  39.389   0.772
13998W        W87066  23.169   1.204   1.862
13999W        W87067   8.328   3.779  10.453
14000W        W87068  10.833   8.357  13.006
14001W        W87069   0.668  35.623  13.856
14002W        W87070  13.858  43.228  11.105
14003W        W87071  41.445   1.589   0.513
14004W        W87072  31.079  15.815   3.297
14005W        W87073   4.502  28.965   2.914
14006W        W87074  10.217  25.557  12.937
14007W        W87075   8.235  41.511   0.061
14008W        W87076   3.820  25.279  12.105
14009W        W87077   0.924  17.138  13.817
14010W        W87078   8.137  39.327  13.505
14011W        W87079  25.055  38.863   3.213
14012W        W87080  15.602  36.255   5.256
14013W        W87081  36.029   0.946  10.875
14014W        W87082   8.846  18.289  12.500
14015W        W87083  31.404  42.294  12.890
14016W        W87084  41.951  25.075  12.604
14017W        W87085  14.578   5.151  14.466
14018W        W87086  40.761  44.038  11.009
14019W        W87087  11.193  15.837   1.705
14020W        W87088   9.769  32.493  13.416
14021W        W87089   1.867  42.697  13.306
14022W        W87090   3.367  35.958   0.431
14023W        W87091  27.260  39.847   1.319
14024W        W87092  31.893  38.962   1.858
14025W        W87093  24.000   8.399   0.757
14026W        W87094  29.514  40.290  11.056
14027W        W87095   6.874   1.433  13.830
14028W        W87096  33.339   2.553  13.902
14029W        W87097   4.827  34.467  14.406
14030W        W87098   9.681   1.314   3.698
14031W        W87099   7.488  24.106  14.963
14032W        W87100  12.937  22.055  12.464
14033W        W87101  35.256  19.675   3.600
14034W        W87102   8.468  10.298   1.619
14035W        W87103  37.956  33.912  11.173
14036W        W87104  30.105  33.422   4.865
14037W        W87105   7.507  14.816  14.556
14038W        W87106   8.783   5.944  11.537
14039W        W87107  29.389  33.114  11.319
14040W        W87108  18.369  11.843   4.078
14041W        W87109  25.349   7.276   2.228
14042W        W87110  11.208  43.992   2.791
14043W        W87111  36.253  13.756  11.950
14044W        W87112  17.713  11.761   2.310
14045W        W87113  33.838  30.968  12.325
14046W        W87114  20.599  26.363  10.422
14047W        W87115  23.761  12.523  12.924
14048W        W87116   4.687  30.504   2.910
14049W        W87117  34.507   4.739  12.923
14050W        W87118  32.441  36.564   2.321
14051W        W87119  39.721  43.283  12.098
14052W        W87120   7.429  30.785  13.200
14053W        W87121  11.313  41.721  11.567
14054W        W87122  30.068  13.162  14.270
14055W        W87123  39.550  32.582   4.909
14056W        W87124  36.409  34.997  13.470
14057W        W87125  41.268   2.180  13.866
14058W        W87126  20.094  13.581  10.720
14059W        W87127  20.056  21.501  13.824
14060W        W87128  41.844   7.645  12.431
14061W        W87129  32.976  20.881  11.107
14062W        W87130   3.969  38.072   1.726
14063W        W87131  20.469  40.808  12.351
14064W        W87132  19.448  27.334   2.319
14065W        W87133  25.184  17.832  10.675
14066W        W87134  26.240  34.865  11.160
14067W        W87135   7.885  30.524  13.021
14068W        W87136   3.512  30.909   4.779
14069W        W87137  10.311  12.352   4.952
14070W        W87138  22.119  41.416   1.898
14071W        W87139   3.838  40.391   4.609
14072W        W87140   1.657  26.464  13.772
14073W        W87141  34.802   6.842  14.689
14074W        W87142  23.398  10.723  12.994
14075W        W87143  44.481  43.165  13.031
14076W        W87144  25.357  15.108  13.576
14077W        W87145  37.968   8.247  14.312
14078W        W87146  26.201   3.924   2.861
14079W        W87147  24.813  32.033   1.431
14080W        W87148  19.665  42.900   3.274
14081W        W87149  21.649  31.183  12.508
14082W        W87150  42.095  39.368   4.775
14083W        W87151  28.793  41.481  12.936
14084W        W87152  41.912  19.509   2.651
14085W        W87153  24.657  24.772  10.777
14086W        W87154  22.754  40.503   2.640
14087W        W87155   0.218  36.101  12.169
14088W        W87156  14.838   7.078   2.443
14089W        W87157  31.611  29.404  14.329
14090W        W87158  14.217  31.182  12.441
14091W        W87159  35.577   1.103   2.637
14092W        W87160  19.101   7.940  13.461
14093W        W87161  22.585  41.592   0.650
14094W        W87162   1.876   6.348   1.355
14095W        W87163  30.551  10.703   3.254
14096W        W87164  12.701   1.031  13.077
14097W        W87165  37.140   5.224   0.283
14098W        W87166   9.915  44.001   0.626
14099W        W87167  20.281  25.157  14.543
14100W        W87168   0.984  43.799   0.407
14101W        W87169  34.181   8.074   1.761
14102W        W87170  27.917  18.760   4.455
14103W        W87171  26.923  42.391  12.050
14104W        W87172   5.614  32.643   2.441
14105W        W87173   8.600  37.200  12.628
14106W        W87174  21.100  32.090   3.940
14107W        W87175  44.985  24.694   2.491
14108W        W87176  11.144  37.496   0.940
14109W        W87177  13.883  30.542  12.025
14110W        W87178  39.367  28.193  13.452
14111W        W87179  23.949  15.466   1.350
14112W        W87180   3.846  29.531  10.593
14113W        W87181  32.120  18.159   2.403
14114W        W87182  13.447  33.430  12.430
14115W        W87183  34.500  32.685  14.360
14116W        W87184  16.667  35.866  12.532
14117W        W87185  31.466  15.122   4.528
14118W        W87186   9.303  22.924   4.532
14119W        W87187  11.763  12.174  12.858
14120W        W87188  24.648  42.682  12.650
14121W        W87189  38.405  41.124   0.992
14122W        W87190  24.207  43.771   0.972
14123W        W87191  30.611  40.033   0.286
14124W        W87192  25.522  37.801  10.432
14125W        W87193  25.514  38.821   4.692
14126W        W87194   6.830  26.497   0.784
14127W        W87195   6.130  39.939  14.837
14128W        W87196  29.017  34.874  11.981
14129W        W87197  38.039  22.722  13.127
14130W        W87198   0.969  30.350   2.123
14131W        W87199  10.825   9.868  12.041
14132W        W87200  14.395  15.606   2.383
14133W        W87201  15.725  14.633   4.564
14134W        W87202  33.553  23.240   3.276
14135W        W87203  21.540   7.173  14.216
14136W        W87204  33.287  12.762   3.339
14137W        W87205  21.928  26.533   4.028
14138W        W87206   1.992  27.491   3.200
14139W        W87207  28.625   1.923  14.923
14140W        W87208  11.585  41.339   0.873
14141W        W87209  24.156   2.964  13.739
14142W        W87210  42.902  21.550   3.087
14143W        W87211  12.693  35.331   0.229
14144W        W87212  31.153  11.485   2.890
14145W        W87213  40.996  42.233   2.765
14146W        W87214  33.985  15.030  14.421
14147W        W87215   5.280  32.663  10.633
14148W        W87216   3.997  12.824   1.810
14149W        W87217  15.078  43.710  13.236
14150W        W87218   3.228  30.609  12.023
14151W        W87219  28.569  26.983   3.206
14152W        W87220  15.649  18.301  13.163
14153W        W87221  23.760  26.179  13.160
14154W        W87222   7.209  43.313  12.831
14155W        W87223   7.852  42.007   2.190
14156W        W87224  30.487  19.948   2.202
14157W        W87225  35.355   2.462  11.205
14158W        W87226   1.034  20.149   1.772
14159W        W87227  39.258  39.535   3.647
14160W        W87228  30.601   6.947   0.438
14161W        W87229  11.583  10.365   0.939
14162W        W87230   4.924   5.048  13.298
14163W        W87231  34.426  42.980  12.521
14164W        W87232  35.142   0.912   1.375
14165W        W87233  30.455  31.130   4.160
14166W        W87234   0.374  33.860   0.889
14167W        W87235  15.693  18.492  14.092
14168W        W87236  43.895   6.210  13.019
14169W        W87237   4.749   7.224   2.834
14170W        W87238  13.107  11.654  11.166
14171W        W87239   2.041  20.071   1.978
14172W        W87240  17.337  10.699  11.940
14173W        W87241  23.464  43.900   0.595
14174W        W87242  41.849  40.685   1.421
14175W        W87243   4.413  29.901   4.733
14176W        W87244  29.990  34.639   3.677
14177W        W87245  13.683  25.942  10.759
14178W        W87246  22.971  11.418  12.659
14179W        W87247   0.977  33.828  12.410
14180W        W87248   4.638  32.344   2.347
14181W        W87249  36.600  21.570   0.329
14182W        W87250  31.675   2.962  12.937
14183W        W87251  44.835  11.602  11.180
14184W        W87252   7.897  26.459  11.929
14185W        W87253  43.528  38.838  12.471
14186W        W87254  26.637   8.663  12.926
14187W        W87255  27.484  29.572   0.547
14188W        W87256  24.752  29.124   0.531
14189W        W87257  39.899   1.544  13.497
14190W        W87258  36.618  24.528  14.045
14191W        W87259  27.226  25.036   0.915
14192W        W87260  21.860  20.160   2.008
14193W        W87261  22.050  20.638   3.415
14194W        W87262   0.237  22.520   2.986
14195W        W87263  34.555  30.199   4.553
14196W        W87264  31.472   7.643  14.107
14197W        W87265   9.223  25.592   4.211
14198W        W87266   4.284  11.611  13.419
14199W        W87267   3.672   1.531  11.397
14200W        W87268  24.689  33.015   2.325
14201W        W87269  40.646  13.064  14.371
14202W        W87270  28.686  37.377   2.227
14203W        W87271  44.042   2.434  11.149
14204W        W87272  42.365  23.282  13.313
14205W        W87273  38.151  25.532  13.888
14206W        W87274  29.689  32.458  12.246
14207W        W87275   6.444  36.390  11.612
14208W        W87276   8.869   4.372   3.244
14209W        W87277  22.489  38.237   0.376
14210W        W87278  35.242   8.225  12.008
14211W        W87279  42.589  24.529  12.558
14212W        W87280  11.747  28.520  11.548
14213W        W87281   0.260   3.072  10.602
14214W        W87282  33.001   0.925   4.747
14215W        W87283   1.200  32.079  12.559
14216W        W87284  31.782  35.149   5.019
14217W        W87285  24.004  31.825  13.375
14218W        W87286  25.024  27.172   1.771
14219W        W87287   9.317  44.725   2.213
14220W        W87288  28.446  26.154   1.454
14221W        W87289  14.262  18.667  14.402
14222W        W87290   0.292  31.834   2.837
14223W        W87291  11.832  37.034   3.337
14224W        W87292  14.782  24.174  11.539
14225W        W87293  14.349  20.226   3.595
14226W        W87294  16.124   9.732   1.332
14227W        W87295  43.500  30.396   5.074
14228W        W87296  23.820  39.542  12.405
14229W        W87297  34.499  17.621  11.515
14230W        W87298  32.481  17.772   2.341
14231W        W87299  28.978  26.176  13.843
14232W        W87300  44.961  39.098   2.250
14233W        W87301   6.214  27.863   0.410
14234W        W87302  31.278  23.393   2.650
14235W        W87303   7.426  19.272   3.256
14236W        W87304  28.389  42.961   0.245
14237W        W87305  27.275  13.358   2.563
14238W        W87306   2.499  32.137   0.035
14239W        W87307  22.060  31.011  13.337
14240W        W87308   9.128   0.384   0.036
14241W        W87309  41.750  11.168  12.939
14242W        W87310  21.988   4.491   0.930
14243W        W87311  39.235   4.238  11.298
14244W        W87312  31.690   7.681   3.678
14245W        W87313  25.030  33.699   1.412
14246W        W87314   2.711  16.362   1.931
14247W        W87315  30.511   1.781   1.244
14248W        W87316  24.997   6.662   2.232
14249W        W87317  18.530   0.127   1.792
14250W        W87318   3.932  28.452  13.082
14251W        W87319  28.949  33.919  10.475
14252W        W87320  37.096  32.069   4.088
14253W        W87321  35.337   4.719  13.921
14254W        W87322  20.281  21.644   3.304
14255W        W87323  20.799  37.957  13.418
14256W        W87324  15.724  34.888   1.383
14257W        W87325  37.539  40.533  14.206
14258W        W87326  25.476  44.038   0.738
14259W        W87327  22.297  23.678   4.365
14260W        W87328   5.811  37.007   2.667
14261W        W87329  11.389   3.323   2.801
14262W        W87330  16.610  28.722   1.626
14263W        W87331  16.603  32.522   3.351
14264W        W87332  26.071  43.847   4.706
14265W        W87333  24.246  38.611  11.462
14266W        W87334  42.402  42.804  14.491
14267W        W87335  40.890   0.185   1.735
14268W        W87336   4.968  33.712   2.186
14269W        W87337   2.721  25.658  11.102
14270W        W87338  14.075  13.385   1.418
14271W        W87339  37.643  19.808   5.059
14272W        W87340  13.617  42.295   1.121
14273W        W87341  10.916  40.466   3.275
14274W        W87342  19.056  14.767   4.571
14275W        W87343  42.484   2.865   2.180
14276W        W87344   2.941  35.122  10.688
14277W        W87345  42.295  16.600   4.544
14278W        W87346   0.969   3.830   1.870
14279W        W87347  33.390  27.106   3.418
14280W        W87348  32.328   0.108  13.162
14281W        W87349  20.200  13.172   3.672
14282W        W87350  18.217  37.149  14.487
14283W        W87351   6.263  10.170   3.986
14284W        W87352   5.392  40.160  13.790
14285W        W87353  13.849  12.723   2.774
14286W        W87354   9.507  41.044   2.298
14287W        W87355  23.755  35.257  12.897
14288W        W87356  20.318  15.811  13.289
14289W        W87357  14.636  34.898  14.951
14290W        W87358   7.892  40.429  13.066
14291W        W87359  12.795  18.606   3.153
14292W        W87360  18.661  40.891  13.773
14293W        W87361  25.183  30.964  13.424
14294W        W87362  31.131  19.229   5.083
14295W        W87363   5.594   5.125  11.079
14296W        W87364   9.256  28.459  13.918
14297W        W87365  24.992  31.683   2.860
14298W        W87366   7.253  31.659   3.136
14299W        W87367  21.197   3.408   3.805
14300W        W87368  13.389   9.600  11.673
14301W        W87369   3.759  21.236  13.349
14302W        W87370   5.852  21.819   2.257
14303W        W87371  29.441   2.269  14.339
14304W        W87372  13.698  26.480   0.103
14305W        W87373  27.042  34.972  14.994
14306W        W87374  19.284  14.299  14.270
14307W        W87375  19.606  33.989   0.276
14308W        W87376  41.381  38.474   3.194
14309W        W87377  23.057  25.440  11.538
14310W        W87378   3.884  12.763   4.059
14311W        W87379  25.991  38.447   0.483
14312W        W87380  23.225   3.824   0.738
14313W        W87381  36.354   2.611   4.315
14314W        W87382   9.303  42.519   0.915
14315W        W87383  43.836  44.458   2.512
14316W        W87384  14.531   2.035  13.849
14317W        W87385  29.892  27.692  11.602
14318W        W87386  36.913  32.071   4.549
14319W        W87387  34.397  40.742  12.529
14320W        W87388  29.895  30.098  13.704
14321W        W87389   5.376  21.092  13.290
14322W        W87390  17.064  39.968  13.424
14323W        W87391   7.676  33.884   3.378
14324W        W87392  35.583  27.584   1.633
14325W        W87393  37.034  13.282  14.719
14326W        W87394  34.393  42.579   2.407
14327W        W87395  32.033  15.509   0.416
14328W        W87396  21.008   8.882  11.570
14329W        W87397   1.681  12.253   4.145
14330W        W87398  40.705  11.749   0.500
14331W        W87399  12.760  30.451   3.757
14332W        W87400  23.674  35.963   3.497
14333W        W87401  28.374   4.421  12.973
14334W        W87402   3.966  16.536   1.567
14335W        W87403  31.362   6.359  11.632
14336W        W87404  35.385  11.292   4.796
14337W        W87405  11.792   4.320   0.802
14338W        W87406  16.378  43.208  13.362
14339W        W87407  24.976  39.979  14.588
14340W        W87408  38.933  31.034   3.536
14341W        W87409   9.621   1.061   4.584
14342W        W87410   5.886   2.250   1.685
14343W        W87411  24.512  41.815  10.677
14344W        W87412  15.515  19.187   2.708
14345W        W87413  42.166   3.533  14.587
14346W        W87414  36.413   5.927  10.938
14347W        W87415  11.613   5.809   4.140
14348W        W87416  29.937  13.230  12.802
14349W        W87417  20.622  31.668   2.298
14350W        W87418   3.368  44.043   4.432
14351W        W87419  24.931  21.090   0.921
14352W        W87420  31.160  10.906  10.705
14353W        W87421   3.912  39.447   2.700
14354W        W87422  21.294  30.583  12.857
14355W        W87423   7.975  29.587   1.910
14356W        W87424   0.800  18.268  13.071
14357W        W87425  10.380  39.802   5.233
14358W        W87426  18.168  24.761   1.884
14359W        W87427  33.950  24.957   3.624
14360W        W87428  39.858   5.952  11.640
14361W        W87429  28.599  35.356   1.838
14362W        W87430  11.852  36.410  12.446
14363W        W87431   9.804  11.895  14.892
14364W        W87432   8.132  16.142  13.998
14365W        W87433   3.443  15.168  12.484
14366W        W87434  19.985  40.884   1.405
14367W        W87435  38.050  20.199  10.992
14368W        W87436  11.215  19.812  12.153
14369W        W87437  36.315  43.937   2.892
14370W        W87438  41.300  30.622   3.261
14371W        W87439   4.120  21.250  14.695
14372W        W87440  22.532   1.478  12.883
14373W        W87441  14.477  35.403  10.931
14374W        W87442   8.913  42.133  11.678
14375W        W87443  17.523  18.340  13.097
14376W        W87444  44.565  18.472   1.157
14377W        W87445  15.546   4.614   0.924
14378W        W87446   2.789  44.528  14.909
14379W        W87447  18.121  27.095   4.440
14380W        W87448  12.913  13.184   1.957
14381W        W87449   6.241  20.024  11.464
14382W        W87450  42.249  10.632   3.265
14383W        W87451  12.833   0.923   4.176
14384W        W87452  24.205  27.861   2.563
14385W        W87453  16.344  22.426  14.814
14386W        W87454  33.430  15.615  12.588
14387W        W87455  14.188  40.781  14.772
14388W        W87456   5.387  44.337   2.276
14389W        W87457  16.154  33.066   0.986
14390W        W87458  27.433   5.686  11.484
14391W        W87459  36.609  18.104   1.647
14392W        W87460  22.142  17.601   2.121
14393W        W87461  16.576  39.507   4.150
14394W        W87462  27.828   3.500  12.519
14395W        W87463  37.112  40.512   0.998
14396W        W87464   8.429  38.954   2.789
14397W        W87465  10.577  23.854   5.026
14398W        W87466  40.867  36.342   4.260
14399W        W87467  34.074  30.539   4.121
14400W        W87468   4.482  19.380  13.440
14401W        W87469  12.570   3.472   0.434
14402W        W87470   0.180   5.836  10.710
14403W        W87471  10.997   1.930  12.072
14404W        W87472  33.421  44.350  12.950
14405W        W87473  40.621   8.270  13.767
14406W        W87474  41.793  24.517  11.711
14407W        W87475  16.721  19.337  14.340
14408W        W87476  23.516   3.818   4.293
14409W        W87477  41.884  31.516  14.301
14410W        W87478  25.012   4.424  13.835
14411W        W87479   4.355  22.193   3.955
14412W        W87480  42.117   4.822  13.837
14413W        W87481  18.001  17.285  12.017
14414W        W87482  18.034  42.840  11.673
14415W        W87483   2.566  29.868  11.506
14416W        W87484   4.735   6.915   1.140
14417W        W87485  10.762  21.756   0.693
14418W        W87486  24.883  35.738  13.335
14419W        W87487  13.833  42.889   5.294
14420W        W87488   9.211  19.611   3.668
14421W        W87489  37.426  14.878  14.412
14422W        W87490   2.200   3.207  12.427
14423W        W87491  29.587   6.798  13.426
14424W        W87492  19.210  17.670  13.431
14425W        W87493  35.058  22.103   4.796
14426W        W87494  16.231   9.778   4.841
14427W        W87495  16.120  26.460   1.758
14428W        W87496   9.330  42.587   2.927
14429W        W87497   0.675  36.129  10.954
14430W        W87498  12.754  39.585   3.653
14431W        W87499  35.929   1.440  10.687
14432W        W87500   1.947  30.171   0.999
14433W        W87501   3.312  43.856  10.695
14434W        W87502  39.869  29.670  12.972
14435W        W87503  30.109   3.731   1.638
14436W        W87504   9.337  41.478   1.306
14437W        W87505  40.061  20.024  12.537
14438W        W87506  26.382  18.686   2.901
14439W        W87507   1.362  15.000   1.490
14440W        W87508  42.310  24.962  13.402
14441W        W87509  43.546  14.097  13.377
14442W        W87510   9.380   3.237   2.766
14443W        W87511  40.402   1.746  10.682
14444W        W87512  38.359  18.807  12.727
14445W        W87513   9.243  17.807  13.882
14446W        W87514   9.155   4.248  11.080
14447W        W87515   9.761   0.758   4.183
14448W        W87516  15.804  44.315  12.189
14449W        W87517  12.840  34.144   3.962
14450W        W87518  20.784  10.117   0.723
14451W        W87519   4.936   9.701  11.446
14452W        W87520  21.237  18.131  12.028
14453W        W87521   4.968   6.003   2.378
14454W        W87522  27.893  40.445  14.625
14455W        W87523  27.050   9.922   0.435
14456W        W87524  30.949  19.712  13.302
14457W        W87525  20.447   6.676  14.007
14458W        W87526   0.483  37.139  11.952
14459W        W87527  29.197   8.337  10.798
14460W        W87528   4.499   3.338  13.736
14461W        W87529  13.789   6.235   4.120
14462W        W87530  24.037   6.359  10.672
14463W        W87531  26.969  40.763   4.826
14464W        W87532  28.014  19.677  12.576
14465W        W87533  21.738  23.132   0.022
14466W        W87534  22.024   2.542  12.601
14467W        W87535   7.417   8.630  11.557
14468W        W87536  19.523  36.597  14.882
14469W        W87537  19.091  14.351   3.309
14470W        W87538  23.548   1.285  14.304
14471W        W87539   8.796   7.528   3.479
14472W        W87540   8.241   3.674  12.959
14473W        W87541  35.369  42.458  13.972
14474W        W87542  29.672  12.279   3.359
14475W        W87543  44.845  17.011   2.355
14476W        W87544  28.926  39.784   4.106
14477W        W87545  29.436  44.182  12.408
14478W        W87546  16.972  43.853  11.899
14479W        W87547  41.218  26.206  11.609
14480W        W87548   5.329  14.704  12.545
14481W        W87549  42.061  13.152  11.184
14482W        W87550   6.232  10.025   1.817
14483W        W87551  37.563  27.200   1.369
14484W        W87552  40.853   6.904   3.199
14485W        W87553  30.328  21.785   4.660
14486W        W87554   7.694  19.119   4.192
14487W        W87555   4.982  13.018   4.269
14488W        W87556  33.378  14.539   1.427
14489W        W87557  39.387  24.105  10.578
14490W        W87558   4.303  32.543  10.734
14491W        W87559   7.277  17.147  10.418
14492W        W87560  10.949   6.459  11.427
14493W        W87561  25.721  18.990   2.438
14494W        W87562   3.508  32.948  11.600
14495W        W87563  32.116  32.625   2.886
14496W        W87564  19.207  42.310   4.075
14497W        W87565   3.210   2.742   2.171
14498W        W87566  39.762   5.852   1.798
14499W        W87567  29.288  39.340   3.212
14500W        W87568  37.810  39.531  14.740
14501W        W87569   8.414  19.835   0.338
14502W        W87570  26.664  12.050   5.026
14503W        W87571   3.651  22.829  11.874
14504W        W87572   1.483  15.184   2.881
14505W        W87573  40.524   2.245   2.831
14506W        W87574  38.103  38.440  11.749
14507W        W87575  35.814  29.249  12.701
14508W        W87576  20.855  39.095   3.223
14509W        W87577   5.885  25.098   4.855
14510W        W87578  23.141  11.200   4.522
14511W        W87579   7.583  43.813  14.452
14512W        W87580  36.022  34.852  13.782
14513W        W87581  39.357  43.056   0.220
14514W        W87582  41.983   4.326  10.557
14515W        W87583   4.177   8.261   4.603
14516W        W87584  12.131  36.840   2.377
14517W        W87585  14.797   9.439   3.222
14518W        W87586  25.130   8.684  10.789
14519W        W87587  11.325  28.421   4.097
14520W        W87588   2.688  21.231   0.807
14521W        W87589  38.581  30.981  10.620
14522W        W87590  11.176   4.536  11.625
14523W        W87591   9.399  13.287   0.474
14524W        W87592  38.996   9.330  13.632
14525W        W87593  25.636  22.039  11.128
14526W        W87594  34.800  14.411  12.936
14527W        W87595  11.108  15.396   2.811
14528W        W87596   4.743  34.625   0.378
14529W        W87597  42.694  10.575  11.098
14530W        W87598   3.226  34.627   0.991
14531W        W87599   4.531  19.119   4.321
14532W        W87600  32.600  29.980   0.461
14533W        W87601  29.025  30.136   1.755
14534W        W87602  11.195  14.874   2.713
14535W        W87603  26.238  39.229  10.992
14536W        W87604  34.096   5.062   0.464
14537W        W87605  23.675  29.874   4.704
14538W        W87606  15.200  26.131  13.874
14539W        W87607   3.267   6.325   0.950
14540W        W87608  12.024   0.441   1.987
14541W        W87609  31.946  43.303   1.875
14542W        W87610   0.520  12.686   4.185
14543W        W87611   6.209  30.544  14.147
14544W        W87612  44.715  16.100   3.519
14545W        W87613  36.284  39.597   4.590
14546W        W87614   0.477  33.629  10.789
14547W        W87615  30.886  10.353  11.462
14548W        W87616  10.367   9.836   1.442
14549W        W87617  41.948   1.806  14.388
14550W        W87618  36.831  37.052   0.330
14551W        W87619   6.445  11.769   2.347
14552W        W87620  40.576   8.260   3.173
14553W        W87621  14.972   7.652   1.112
14554W        W87622  15.397  21.531   1.352
14555W        W87623  43.737  20.568   2.619
14556W        W87624  24.199   3.262  14.448
14557W        W87625   0.552  28.219  14.332
14558W        W87626  12.129  17.063  12.922
14559W        W87627  43.546  17.057   2.266
14560W        W87628  40.827  19.692   1.743
14561W        W87629  39.312   5.203  11.162
14562W        W87630  43.442   2.148  10.579
14563W        W87631  13.351  19.583   0.845
14564W        W87632  21.655   9.724  14.796
14565W        W87633  24.186  24.157  11.998
14566W        W87634  31.071  23.275  14.923
14567W        W87635  19.743  31.409   1.910
14568W        W87636  25.257   8.865  12.918
14569W        W87637  15.101  25.956  11.764
14570W        W87638   6.641  23.503  14.351
14571W        W87639  44.826  21.428  14.915
14572W        W87640  27.024   8.963   2.072
14573W        W87641  17.211  42.363  12.747
14574W        W87642  11.877  26.771   0.310
14575W        W87643  31.984  43.881   0.436
14576W        W87644   7.375   1.407  12.952
14577W        W87645  19.274   7.187   2.162
14578W        W87646   4.009   4.020   4.275
14579W        W87647  29.831  41.802   0.392
14580W        W87648  26.249   0.719   4.134
14581W        W87649  29.972  31.336  10.805
14582W        W87650  14.775  23.562  14.417
14583W        W87651  35.553  11.927   1.653
14584W        W87652  26.487  21.948  13.446
14585W        W87653  42.641  33.086  14.814
14586W        W87654   4.542  26.775   3.272
14587W        W87655  36.574  11.369  10.686
14588W        W87656  35.904  16.017   1.155
14589W        W87657  24.154   3.020   2.285
14590W        W87658  24.684  32.621  11.954
14591W        W87659  39.461  43.463  11.112
14592W        W87660   8.333  22.623   4.359
14593W        W87661  28.909  30.618   1.919
14594W        W87662  28.688  16.531   0.487
14595W        W87663  38.617  27.586   3.170
14596W        W87664  19.973   7.432   3.268
14597W        W87665   9.292  39.409  11.152
14598W        W87666  32.136  22.417  10.978
14599W        W87667   0.464   3.549  12.374
14600W        W87668  11.802   2.749   1.710
14601W        W87669  39.552  22.566  14.391
14602W        W87670  17.084  15.078   2.382
14603W        W87671  26.609   4.035  12.919
14604W        W87672  23.786  17.667  12.122
14605W        W87673  31.953   5.312  12.000
14606W        W87674  11.045  16.789   0.946
14607W        W87675   2.613  40.493   2.625
14608W        W87676  10.163  10.236  12.482
14609W        W87677  41.399  24.703   0.785
14610W        W87678   5.008  36.428   1.149
14611W        W87679  14.145  31.871  11.571
14612W        W87680   3.241  16.904  11.584
14613W        W87681   1.827  38.819  12.834
14614W        W87682  18.358   1.918  11.061
14615W        W87683   3.273   3.005  10.107
14616W        W87684   3.508  22.269  13.332
14617W        W87685   3.938  37.514  13.465
14618W        W87686  38.369  39.474  10.695
14619W        W87687  27.525   8.173   3.104
14620W        W87688  16.892  42.699   0.417
14621W        W87689  26.226  30.936  14.320
14622W        W87690  38.623  44.341   0.298
14623W        W87691  13.247  11.961  12.034
14624W        W87692  25.926  34.922   2.387
14625W        W87693  22.086  12.820   4.702
14626W        W87694   3.990  32.140   1.813
14627W        W87695  39.514  10.876  13.518
14628W        W87696   4.176  19.084   0.824
14629W        W87697  22.302  23.181   2.172
14630W        W87698   1.533  22.942   1.637
14631W        W87699  25.652   0.055  14.834
14632W        W87700  36.205  41.764   1.640
14633W        W87701  16.634  44.107  14.375
14634W        W87702  13.171   5.258   2.201
14635W        W87703  12.494   8.253   1.427
14636W        W87704   5.839  38.865  12.037
14637W        W87705  28.173   2.027   3.839
14638W        W87706  16.043  37.376   2.349
14639W        W87707  28.122  42.558  11.411
14640W        W87708  13.700   2.376   0.334
14641W        W87709  14.137  19.616   2.290
14642W        W87710  16.364   8.769   1.194
14643W        W87711  38.531  36.812   4.414
14644W        W87712  26.622  27.979   0.951
14645W        W87713  44.745  41.059   2.790
14646W        W87714  40.323  16.861   1.234
14647W        W87715   0.189   6.757   2.468
14648W        W87716  24.568  37.015  11.036
14649W        W87717  21.244  34.897  13.837
14650W        W87718   3.696  11.145  10.447
14651W        W87719  13.475  18.688  10.226
14652W        W87720  31.412  36.980  10.631
14653W        W87721  31.395   3.210  14.962
14654W        W87722  14.577  25.622   1.837
14655W        W87723  43.951   3.839   4.750
14656W        W87724  22.471  35.516   4.719
14657W        W87725   8.119  20.559  13.917
14658W        W87726  21.857  44.387   0.181
14659W        W87727  35.472  28.189  13.351
14660W        W87728   1.920  27.627   0.539
14661W        W87729  33.118  13.820  12.477
14662W        W87730  28.545  31.091  13.993
14663W        W87731  23.117  38.360  13.085
14664W        W87732  21.149  11.008  12.840
14665W        W87733  22.581  21.468  14.108
14666W        W87734  36.952  42.841   2.435
14667W        W87735   3.339  32.057   0.018
14668W        W87736  33.520   8.617   2.189
14669W        W87737   6.772  40.423  14.868
14670W        W87738  23.002  18.657  13.429
14671W        W87739   8.960  24.023   1.727
14672W        W87740  25.656  10.646  13.390
14673W        W87741   9.049  34.633   0.332
14674W        W87742  21.699  41.643  13.437
14675W        W87743  15.031  13.607   0.535
14676W        W87744   2.259   6.166   2.708
14677W        W87745  31.051  26.856   1.782
14678W        W87746  10.208  27.285  11.973
14679W        W87747  20.631  25.032   3.769
14680W        W87748   8.171  24.227  12.913
14681W        W87749  42.291  41.517   0.984
14682W        W87750  23.676  29.694  11.558
14683W        W87751   2.050  25.514  11.632
14684W        W87752  32.585   2.713  14.285
14685W        W87753  31.454  26.784   3.809
14686W        W87754  23.150  15.678   4.613
14687W        W87755  30.869   8.916   1.756
14688W        W87756   6.456  24.982  10.717
14689W        W87757  16.781   4.623  10.557
14690W        W87758  30.781  43.958  11.113
14691W        W87759   4.726  24.454  13.710
14692W        W87760  23.550  40.461   3.349
14693W        W87761  11.805  40.928   0.603
14694W        W87762  21.149  41.146   1.544
14695W        W87763  32.351  11.725   3.339
14696W        W87764  24.737   5.439  12.457
14697W        W87765   4.194  14.270   3.093
14698W        W87766  15.954  33.980  11.103
14699W        W87767   5.931  35.094  13.149
14700W        W87768  36.433  41.994   2.903
14701W        W87769   9.339  32.083  10.507
14702W        W87770   6.116   5.921  14.926
14703W        W87771  22.947  38.937  12.559
14704W        W87772   2.803  20.697   0.045
14705W        W87773  21.044  29.518  12.065
14706W        W87774   7.490  12.699   4.278
14707W        W87775   9.589  17.733   3.137
14708W        W87776  29.099  16.286   3.142
14709W        W87777   3.211  41.504  11.964
14710W        W87778  36.986  38.272  12.683
14711W        W87779  15.514  30.001  11.549
14712W        W87780   0.035  30.004   4.866
14713W        W87781   4.229   0.254  11.162
14714W        W87782  10.342  39.522   2.760
14715W        W87783  27.284  35.621  13.344
14716W        W87784  37.740  28.413   0.032
14717W        W87785  16.145   4.321   2.917
14718W        W87786   7.173  26.059   0.162
14719W        W87787  24.607   4.642  13.518
14720W        W87788  29.369  41.568   1.495
14721W        W87789  32.688  20.122   3.847
14722W        W87790  29.047  40.494   4.609
14723W        W87791  14.845  28.167   4.544
14724W        W87792   9.255  35.544  13.237
14725W        W87793   2.134  36.809  13.297
14726W        W87794  30.580  33.445  11.679
14727W        W87795  29.042  17.321   0.144
14728W        W87796   8.883  12.624   0.691
14729W        W87797  34.264  37.955  11.188
14730W        W87798  27.021  23.889  13.605
14731W        W87799  21.698  34.024   1.269
14732W        W87800  35.782  37.295   4.588
14733W        W87801   8.900   1.127   4.166
14734W        W87802  35.615  43.364  14.319
14735W        W87803  40.267  16.504   2.175
14736W        W87804   3.370  38.946  12.185
14737W        W87805  35.822  42.578  14.185
14738W        W87806  26.236  41.914   0.606
14739W        W87807  22.822   7.987  14.365
14740W        W87808   9.113  26.144   3.501
14741W        W87809   9.640  31.667   0.747
14742W        W87810  13.807  44.556  14.496
14743W        W87811   1.399   9.869   2.234
14744W        W87812  17.336  10.769   4.552
14745W        W87813  18.939  38.779   2.715
14746W        W87814  25.454  11.658  14.303
14747W        W87815  22.032  28.712   2.829
14748W        W87816   2.544  23.919  13.388
14749W        W87817  11.074  38.783  14.812
14750W        W87818  30.615  29.422   3.103
14751W        W87819  33.535  39.055  11.019
14752W        W87820  10.984  36.177   3.767
14753W        W87821   9.386   4.327   4.502
14754W        W87822  28.504  32.495  14.132
14755W        W87823  22.609  28.953   0.743
14756W        W87824  12.720  29.164   1.515
14757W        W87825  31.651  37.866   2.901
14758W        W87826  21.914   9.067  12.185
14759W        W87827  44.367  37.796   1.212
14760W        W87828  11.669  24.633   4.320
14761W        W87829  36.679  30.364   1.408
14762W        W87830  12.254  20.412  12.596
14763W        W87831  27.613  38.089   0.926
14764W        W87832  31.199  41.026  12.428
14765W        W87833  33.080  29.094  12.851
14766W        W87834  17.610  25.621  14.324
14767W        W87835  44.259  34.105   3.407
14768W        W87836  29.428  16.084  14.856
14769W        W87837  33.615  17.577   1.328
14770W        W87838  21.134  43.802  14.841
14771W        W87839  44.838  39.561   4.563
14772W        W87840   0.492  12.763   2.405
14773W        W87841  39.905  12.103   0.858
14774W        W87842  20.286  36.370   0.376
14775W        W87843  22.240  24.597  14.547
14776W        W87844   8.379  20.632  12.920
14777W        W87845   5.827  19.516  13.552
14778W        W87846   7.855  15.575  14.819
14779W        W87847  19.492  11.290   0.639
14780W        W87848  39.574  16.656   2.700
14781W        W87849  28.078  13.400   1.056
14782W        W87850  12.218  23.942   2.626
14783W        W87851  31.542  11.783  13.060
14784W        W87852  32.608   4.669   2.261
14785W        W87853  25.028   2.443   3.258
14786W        W87854  23.119   5.745  13.345
14787W        W87855  23.670   2.558  13.759
14788W        W87856  41.520  33.943   3.233
14789W        W87857  22.479  35.452  10.493
14790W        W87858  15.600   4.899   1.354
14791W        W87859  34.791  31.956   3.240
14792W        W87860  14.611  26.224   0.411
14793W        W87861  12.958  16.068   0.002
14794W        W87862  38.075  25.494  11.541
14795W        W87863  38.529  21.118   0.441
14796W        W87864  36.269  19.343  11.960
14797W        W87865  12.163  44.166   4.712
14798W        W87866  41.497  38.252  14.414
14799W        W87867  27.090  12.121   1.758
14800W        W87868  17.259  15.723  13.482
14801W        W87869  12.322  44.707  14.799
14802W        W87870   2.329  38.444   0.357
14803W        W87871  26.129  29.693  13.511
14804W        W87872  34.883  17.052   0.813
14805W        W87873  36.320  41.401  11.999
14806W        W87874  24.713   1.711   4.402
14807W        W87875  40.080  25.458   2.141
14808W        W87876  44.908  35.380  14.525
14809W        W87877  20.027  37.711  12.734
14810W        W87878   0.308  13.600   3.712
14811W        W87879   0.502  29.049   3.685
14812W        W87880   1.857  44.287   4.149
14813W        W87881  44.024  42.567   1.721
14814W        W87882  36.460  34.652  12.048
14815W        W87883  41.347  23.185   0.736
14816W        W87884  36.314   0.303   5.081
14817W        W87885  13.243  13.430   4.223
14818W        W87886  40.037  42.792  14.520
14819W        W87887  14.502   6.245   2.775
14820W        W87888  28.454  18.869  12.017
14821W        W87889  20.407  13.285  11.600
14822W        W87890  23.620  38.397  12.829
14823W        W87891   4.717   4.731  10.553
14824W        W87892  29.569   9.380   0.906
14825W        W87893   1.428  16.855  11.725
14826W        W87894  15.721  28.510   0.856
14827W        W87895   4.840  21.747  12.888
14828W        W87896  15.045  15.666  12.318
14829W        W87897   7.387  12.222  10.907
14830W        W87898  20.173  27.759   4.608
14831W        W87899  35.335  38.109   3.722
14832W        W87900  24.954  10.737  11.071
14833W        W87901  28.049  10.983   3.710
14834W        W87902  20.012   0.442  12.034
14835W        W87903  36.886  10.755   2.758
14836W        W87904   9.179  29.233  10.330
14837W        W87905  24.103  33.847   3.718
14838W        W87906  43.497  27.489   2.193
14839W        W87907  34.873  12.222  13.433
14840W        W87908  40.529  14.159   2.801
14841W        W87909  42.699  37.972   4.581
14842W        W87910  13.879  31.079   4.335
14843W        W87911  18.739  24.598  14.176
14844W        W87912  25.420  24.728  14.844
14845W        W87913  20.058   4.440   4.186
14846W        W87914  41.749  14.159  11.143
14847W        W87915  17.243  14.307   5.039
14848W        W87916   9.616  24.222  11.622
14849W        W87917   9.557  41.467  13.426
14850W        W87918  35.869   7.763   1.338
14851W        W87919  14.141  11.867   1.548
14852W        W87920  11.225   3.924   4.948
14853W        W87921  31.820  43.846   1.737
14854W        W87922  36.016   8.709   2.829
14855W        W87923  34.856  41.438   2.658
14856W        W87924   1.798  39.993   3.054
14857W        W87925  29.197  30.730   4.260
14858W        W87926   5.636  23.034  13.794
14859W        W87927  26.188  28.440  13.853
14860W        W87928  15.965   0.698   0.862
14861W        W87929  38.948  36.339  13.001
14862W        W87930  13.370  17.587  11.684
14863W        W87931  39.374   4.847   4.658
14864W        W87932  37.103  26.520  13.495
14865W        W87933   4.179  31.672  14.839
14866W        W87934  35.836  11.103  14.857
14867W        W87935  18.275  23.149   3.377
14868W        W87936   7.736  13.049  11.931
14869W        W87937   3.054  19.708   0.485
14870W        W87938  30.063   8.336   0.376
14871W        W87939  15.232  21.094  10.476
14872W        W87940  36.457  14.462   5.034
14873W        W87941  12.075   9.840   0.827
14874W        W87942   0.471  20.787  11.016
14875W        W87943  25.389  17.572   0.386
14876W        W87944  12.021  34.975  10.613
14877W        W87945  37.774  33.700   1.483
14878W        W87946   7.926   8.300   4.792
14879W        W87947   5.450   6.290  12.885
14880W        W87948   0.949  25.641  12.744
14881W        W87949   4.380  42.607   2.058
14882W        W87950  38.909   0.804  14.022
14883W        W87951  23.751  32.203   0.508
14884W        W87952  31.583  22.527   3.719
14885W        W87953  28.654   0.896   0.279
14886W        W87954  20.787  24.496  14.798
14887W        W87955  33.295   9.263  14.343
14888W        W87956  37.566  10.957   1.899
14889W        W87957  20.650  21.149   0.014
14890W        W87958  17.139  30.934   1.358
14891W        W87959  20.995  32.491   4.632
14892W        W87960  20.006  35.070   1.989
14893W        W87961  22.616  23.789   2.737
14894W        W87962  15.651   2.555   2.109
14895W        W87963  35.337  15.072  10.681
14896W        W87964  29.629  24.394  10.857
14897W        W87965  32.890  38.471  13.896
14898W        W87966  16.249  19.983   3.206
14899W        W87967  25.161   3.176   4.065
14900W        W87968  21.436  40.686  11.531
14901W        W87969   4.721  34.079   2.447
14902W        W87970  24.046   6.973  12.406
14903W        W87971  11.347  22.694   3.782
14904W        W87972  35.109  41.495  12.835
14905W        W87973   4.232  37.456  12.216
14906W        W87974  22.610  14.996   3.267
14907W        W87975  20.132   1.251  13.044
14908W        W87976  42.849  20.999  10.755
14909W        W87977  41.977  11.645  14.476
14910W        W87978  39.371  21.199   5.096
14911W        W87979   4.180   2.595  13.381
14912W        W87980  34.630   7.174   1.937
14913W        W87981  24.572  34.634  14.238
14914W        W87982   5.447  33.154   4.404
14915W        W87983  20.853  38.437   4.086
14916W        W87984  22.584  26.211   3.619
14917W        W87985  24.141  24.014   1.050
14918W        W87986  27.982   8.925  12.794
14919W        W87987  14.115  15.174  14.521
14920W        W87988  22.675   3.671   2.377
14921W        W87989  41.527  34.371  11.876
14922W        W87990  24.847  14.536  14.657
14923W        W87991  19.305  11.531  11.599
14924W        W87992  21.090  20.689   3.360
14925W        W87993  36.505  39.611   2.530
14926W        W87994   1.427  10.997   3.162
14927W        W87995  17.718   4.307  14.573
14928W        W87996  40.158   8.258   9.787
14929W        W87997  17.694   1.377  14.147
14930W        W87998  10.794  15.476   0.773
14931W        W87999  16.242  17.244   4.586
14932W        W88000  44.295  19.759   0.129
14933W        W88001   9.179  18.021   4.564
14934W        W88002  26.002  34.768  12.433
14935W        W88003  28.546  30.038  11.984
14936W        W88004  29.448  43.288   0.280
14937W        W88005  32.029  21.988  11.818
14938W        W88006  15.631  31.664   0.664
14939W        W88007  34.592  44.804   2.758
14940W        W88008  32.068  43.781  14.931
14941W        W88009  35.423  21.027   2.033
14942W        W88010  17.656  35.094   4.747
14943W        W88011  44.900   6.290   2.337
14944W        W88012  33.865  29.465  11.970
14945W        W88013   1.930  37.628   1.490
14946W        W88014  39.582   8.596   4.111
14947W        W88015   2.924  19.875   2.931
14948W        W88016   1.374  25.024   3.846
14949W        W88017   9.396  19.745  13.494
14950W        W88018  29.675   1.971   2.392
14951W        W88019   1.482   2.496   1.845
14952W        W88020   0.546  19.917  12.430
14953W        W88021  35.952  44.865   0.257
14954W        W88022  10.940  13.009   0.876
14955W        W88023   0.904   8.256  14.087
14956W        W88024   4.838  31.592   2.054
14957W        W88025  33.555  30.373   1.744
14958W        W88026  33.900  37.316  12.661
14959W        W88027  28.181  39.045  11.113
14960W        W88028  24.707  21.321   3.095
14961W        W88029  17.521  21.347   3.696
14962W        W88030  42.345  14.031   0.299
14963W        W88031  24.770   3.718  13.008
14964W        W88032  11.276  34.442   3.621
14965W        W88033   3.938  23.028   3.110
14966W        W88034   5.946  20.567   4.326
14967W        W88035  19.655  15.050   3.265
14968W        W88036  39.901  24.528   2.609
14969W        W88037  44.735  28.045   2.200
14970W        W88038  10.362  16.939  10.805
14971W        W88039  36.642  37.064  13.829
14972W        W88040   8.707  20.761  12.548
14973W        W88041  11.240  44.378   0.359
14974W        W88042  43.722  22.208   2.375
14975W        W88043  22.174  42.009  13.884
14976W        W88044  43.890  34.829  11.561
14977W        W88045  29.773  43.488   2.783
14978W        W88046  37.055   0.622  10.532
14979W        W88047  30.017  19.224   0.796
14980W        W88048  31.367  24.579  12.247
14981W        W88049  36.040  37.961   4.883
14982W        W88050  39.074  34.610  13.678
14983W        W88051  24.429  32.494   3.763
14984W        W88052  25.419  35.441  12.515
14985W        W88053  22.314  40.605  14.245
14986W        W88054   5.012  30.487  10.766
14987W        W88055   0.892   6.230  11.594
14988W        W88056  19.059  16.711  14.390
14989W        W88057  14.871   4.007   0.533
14990W        W88058  25.624   0.431   4.951
14991W        W88059  44.473  32.015  11.121
14992W        W88060  22.573   2.669  14.851
14993W        W88061  26.721   5.122  11.683
14994W        W88062  24.225  39.895   1.739
14995W        W88063  38.935  20.611  13.981
14996W        W88064  33.111   0.979   3.478
14997W        W88065   8.266   5.397  11.137
14998W        W88066   8.368  36.947  12.245
14999W        W88067  34.543  31.639   1.452
15000W        W88068  10.927  34.827   1.356
15001W        W88069   5.460  37.219  13.735
15002W        W88070  43.470  12.123   1.224
15003W        W88071  14.892  34.747   4.115
15004W        W88072   2.980  36.828   4.377
15005W        W88073  37.999  37.784  14.543
15006W        W88074  22.652  27.652  12.716
15007W        W88075  26.854  34.692  11.925
15008W        W88076  35.883  10.633   3.428
15009W        W88077  22.027  18.774  11.149
15010W        W88078  41.271  30.177   2.713
15011W        W88079  23.700   8.638   2.156
15012W        W88080  36.134  22.288   0.857
15013W        W88081  44.992  30.621   4.053
15014W        W88082  22.165  42.073   3.264
15015W        W88083  29.728  10.233  13.792
15016W        W88084  18.148  33.913   2.592
15017W        W88085   5.778  12.323   4.688
15018W        W88086   3.297  41.975  12.171
15019W        W88087  42.849   2.657   0.290
15020W        W88088  26.546  11.614  10.660
15021W        W88089   6.238  31.463  11.178
15022W        W88090  32.941  26.782  14.421
15023W        W88091   5.398  13.932  11.617
15024W        W88092   4.859  31.305  11.026
15025W        W88093  17.286   3.345   1.437
15026W        W88094  39.248  35.420   2.473
15027W        W88095  22.496   7.147   2.734
15028W        W88096  31.549  23.125  11.031
15029W        W88097  40.986  36.797  12.650
15030W        W88098  32.969  26.777  10.898
15031W        W88099  29.974  37.488   2.813
15032W        W88100  32.506  13.309  13.833
15033W        W88101   5.288  20.949   3.232
15034W        W88102  40.468  28.600   4.736
15035W        W88103  33.419   6.807  13.334
15036W        W88104  32.264  15.790  14.560
15037W        W88105  20.611  15.840  10.657
15038W        W88106  33.170   6.481   4.921
15039W        W88107  18.507   7.785   3.312
15040W        W88108   3.221  42.297   3.628
15041W        W88109  25.803  21.169   2.756
15042W        W88110  19.495  17.103   4.131
15043W        W88111  34.850  18.142   3.819
15044W        W88112  42.534  40.072   3.733
15045W        W88113   9.156  27.618  14.723
15046W        W88114  20.137  20.928   3.321
15047W        W88115  26.698  13.784   3.675
15048W        W88116  33.522  42.041  13.862
15049W        W88117  40.365  43.537  13.934
15050W        W88118  30.118  36.460  13.972
15051W        W88119  13.781  14.577  11.566
15052W        W88120  19.086   8.155  14.152
15053W        W88121  36.218  43.041  10.729
15054W        W88122  15.552  21.963  11.474
15055W        W88123   9.208  17.171  12.944
15056W        W88124  11.728  41.267  14.599
15057W        W88125  41.761  42.451  12.607
15058W        W88126  27.969   0.500   2.874
15059W        W88127  18.990  42.345   3.621
15060W        W88128  37.935  36.122   4.125
15061W        W88129  20.214   6.487  10.879
15062W        W88130   9.115  23.252   4.173
15063W        W88131  42.409  13.065   0.536
15064W        W88132  12.890  31.114   0.996
15065W        W88133  22.849  33.694   2.884
15066W        W88134  43.005   0.367  13.825
15067W        W88135  36.168  24.963  12.401
15068W        W88136  15.164  20.739  14.230
15069W        W88137  34.927   0.437   1.161
15070W        W88138  23.212   7.411   2.149
15071W        W88139  31.487  25.415   3.331
15072W        W88140  34.950  43.781   3.867
15073W        W88141  12.616  20.056  12.730
15074W        W88142  38.042  25.092  14.284
15075W        W88143   0.527   2.271   4.872
15076W        W88144  17.267  12.871  11.046
15077W        W88145  38.076  36.465  13.052
15078W        W88146   4.176  43.384  12.373
15079W        W88147  18.608   5.850   0.462
15080W        W88148  44.843  14.359   3.673
15081W        W88149   4.203  40.570  12.087
15082W        W88150  36.874   8.751   3.837
15083W        W88151  34.561  42.311  13.062
15084W        W88152  25.027  43.497   2.820
15085W        W88153   5.365  25.866   4.739
15086W        W88154  24.471  29.953   0.975
15087W        W88155  10.998   3.020   2.323
15088W        W88156   0.809  28.671  14.019
15089W        W88157   6.845  31.893  11.828
15090W        W88158   6.718  12.616  12.064
15091W        W88159   9.190  23.234   1.764
15092W        W88160  36.798  40.957  13.878
15093W        W88161   2.183  11.823  12.564
15094W        W88162  29.790  30.932   1.107
15095W        W88163  17.644   4.328   1.971
15096W        W88164  27.915   7.378   4.515
15097W        W88165   6.484  32.438  11.203
15098W        W88166  30.807   1.683  12.008
15099W        W88167   7.742  31.649   3.258
15100W        W88168   1.058  31.909   4.624
15101W        W88169  23.298  31.073  11.468
15102W        W88170  21.560  36.590   1.362
15103W        W88171  23.249  19.135  14.498
15104W        W88172   6.872   7.468   3.663
15105W        W88173  18.236  13.419  14.493
15106W        W88174  43.272  27.798   2.663
15107W        W88175  13.128  38.938   4.943
15108W        W88176  31.495  18.712   0.830
15109W        W88177  35.175  34.148  11.221
15110W        W88178   9.818   6.809   0.461
15111W        W88179   8.347  33.354   2.402
15112W        W88180  27.625   1.015   3.288
15113W        W88181  16.855  42.619  14.488
15114W        W88182  38.080  32.419  12.119
15115W        W88183  14.231   0.964  13.341
15116W        W88184   5.242  32.525   2.951
15117W        W88185  20.468  24.811  12.984
15118W        W88186  26.266  12.930  12.927
15119W        W88187  24.516  13.610  13.972
15120W        W88188  19.269  22.709  14.933
15121W        W88189  10.034  33.504  12.681
15122W        W88190  33.443  17.828  13.348
15123W        W88191  15.770  28.172   1.888
15124W        W88192  14.702  16.193  11.612
15125W        W88193  19.672   7.415   4.537
15126W        W88194   0.907  19.145   3.141
15127W        W88195  20.537  38.892  12.786
15128W        W88196  41.836   9.432   3.769
15129W        W88197  20.695  18.241  14.805
15130W        W88198  24.015  18.180  11.557
15131W        W88199  30.038  22.280  12.573
15132W        W88200  18.830  30.509   4.055
15133W        W88201  36.186   0.401   1.965
15134W        W88202   3.751   9.212  12.426
15135W        W88203  33.546  41.507  13.870
15136W        W88204  19.795   8.484   3.816
15137W        W88205  43.142   2.863  13.853
15138W        W88206   1.896  33.587  14.798
15139W        W88207  44.780  14.131   1.413
15140W        W88208   4.971  34.022  10.613
15141W        W88209  26.236   3.801  12.035
15142W        W88210  25.248  16.708   4.294
15143W        W88211   5.259  35.425   1.869
15144W        W88212  42.809  44.014   4.774
15145W        W88213   4.185  42.367   4.811
15146W        W88214  10.642   6.944   4.179
15147W        W88215  18.676   9.176   1.808
15148W        W88216  26.060  26.141  11.575
15149W        W88217  13.016  33.433  12.704
15150W        W88218   4.206  24.687   0.868
15151W        W88219  33.059   4.724  13.843
15152W        W88220   6.022  18.773  11.160
15153W        W88221  27.463  34.939   2.622
15154W        W88222   6.271  44.995   2.431
15155W        W88223  35.581  26.598   4.147
15156W        W88224   0.742  37.701   0.959
15157W        W88225  31.098  35.145   2.549
15158W        W88226  23.780  18.235  14.503
15159W        W88227   3.132   7.003  12.931
15160W        W88228  12.230  10.643  11.214
15161W        W88229  36.804  13.162   0.167
15162W        W88230  22.117  21.793  12.311
15163W        W88231  13.340  44.511  13.003
15164W        W88232   5.217  14.772   0.390
15165W        W88233  25.193  42.525  11.972
15166W        W88234  26.661   5.837  12.924
15167W        W88235   8.390  33.974   1.459
15168W        W88236  12.866  20.452   3.996
15169W        W88237  42.532  13.543   0.826
15170W        W88238   7.941  30.494   0.356
15171W        W88239  32.136   7.315  13.294
15172W        W88240  25.029  12.680   0.715
15173W        W88241  36.845  42.793   4.566
15174W        W88242   3.487  42.796   3.708
15175W        W88243  17.938  10.275  10.697
15176W        W88244   4.856  25.613   1.152
15177W        W88245   8.878  11.348  10.347
15178W        W88246  27.818   0.797   0.050
15179W        W88247  33.582  38.807  14.855
15180W        W88248   5.497  40.429   1.284
15181W        W88249  21.289  39.246   2.384
15182W        W88250   1.761  17.562  13.286
15183W        W88251  13.257  22.614  10.207
15184W        W88252  40.815  24.612   3.888
15185W        W88253  17.237  33.948   3.179
15186W        W88254  11.738  23.247   2.648
15187W        W88255   8.991   4.109   1.690
15188W        W88256  35.967  19.575  12.653
15189W        W88257  13.075  28.913   5.039
15190W        W88258  32.268  14.727  14.955
15191W        W88259  33.466  44.365  14.313
15192W        W88260  32.811  23.549  14.525
15193W        W88261  16.111   5.275   1.039
15194W        W88262  39.008  13.296  13.696
15195W        W88263  38.817   8.846   4.617
15196W        W88264  19.628   8.250  12.232
15197W        W88265  44.941  44.665  10.780
15198W        W88266  25.031  36.486   4.706
15199W        W88267  40.847  33.661   3.190
15200W        W88268   3.873  35.635  14.796
15201W        W88269  29.386  21.022  11.619
15202W        W88270  10.237   4.795   1.160
15203W        W88271  41.459   5.365  13.264
15204W        W88272  32.221   6.651  12.072
15205W        W88273  18.718  44.055  12.494
15206W        W88274  18.219   1.140   0.718
15207W        W88275  37.872  23.232  13.071
15208W        W88276  42.769  40.132  11.369
15209W        W88277  11.329   7.802   2.782
15210W        W88278  43.529  26.167  12.882
15211W        W88279  30.333  15.427  11.231
15212W        W88280  11.372  31.185   1.269
15213W        W88281  42.557  17.081  13.403
15214W        W88282  20.280  18.924   3.142
15215W        W88283   1.466  18.904   0.037
15216W        W88284  29.555  23.560   2.329
15217W        W88285   7.998  29.927  12.435
15218W        W88286  25.730  39.387  13.667
15219W        W88287  36.194  34.315  13.847
15220W        W88288   7.762  13.957  13.063
15221W        W88289  37.011   6.144   0.162
15222W        W88290  25.895   1.945   0.767
15223W        W88291  11.385  11.736  14.358
15224W        W88292  22.279   3.254  12.192
15225W        W88293  18.113  20.057   3.652
15226W        W88294  17.611  32.595   1.534
15227W        W88295  32.541   5.845  12.446
15228W        W88296  29.972  43.117   2.412
15229W        W88297  24.460  42.915   1.230
15230W        W88298  17.167  10.632   1.273
15231W        W88299  27.841   6.761   1.863
15232W        W88300  33.828   8.382  14.574
15233W        W88301  22.426   2.248  12.395
15234W        W88302  14.512   9.174  12.064
15235W        W88303  39.774  21.778  12.863
15236W        W88304  41.951  31.943   0.516
15237W        W88305  35.409  16.474  12.185
15238W        W88306  19.388  26.194   1.734
15239W        W88307  18.735  22.036  14.771
15240W        W88308  39.295  31.276   2.752
15241W        W88309  44.650  26.281  11.494
15242W        W88310   6.325  16.884  11.149
15243W        W88311  42.333  11.325   0.017
15244W        W88312  24.985  18.199  10.961
15245W        W88313  30.431  10.469  12.621
15246W        W88314  18.286  38.977  11.026
15247W        W88315  30.405  26.690   0.273
15248W        W88316  35.531  21.874   2.812
15249W        W88317  11.383  30.684   1.351
15250W        W88318  18.091  37.890   1.965
15251W        W88319  28.646   3.672  12.411
15252W        W88320  33.552   4.637   0.662
15253W        W88321  19.786  34.043  10.691
15254W        W88322  42.701   6.748  13.988
15255W        W88323  14.742   1.761   2.735
15256W        W88324  39.251  37.471   4.058
15257W        W88325  19.554   2.073   1.163
15258W        W88326  11.607  31.479   0.912
15259W        W88327   9.738  35.894  10.680
15260W        W88328  31.653  13.836  14.972
15261W        W88329  21.428   3.248  13.947
15262W        W88330  10.083   8.604   1.359
15263W        W88331  12.173   9.254  14.247
15264W        W88332  23.802  13.687  11.175
15265W        W88333  41.055   3.287   2.206
15266W        W88334   5.220   1.227  12.423
15267W        W88335  11.148  23.598   0.441
15268W        W88336   3.979  17.412   3.382
15269W        W88337  17.816   6.807   4.879
15270W        W88338  38.577  35.990   2.303
15271W        W88339   1.040  22.688   3.607
15272W        W88340  15.549   4.769  12.811
15273W        W88341  12.284  26.654  14.716
15274W        W88342  27.086  35.118   0.525
15275W        W88343  24.896  41.839   1.076
15276W        W88344   4.897  41.651   2.668
15277W        W88345   8.998  35.038  11.989
15278W        W88346  27.938  34.897   3.742
15279W        W88347   1.406  40.254  14.197
15280W        W88348  40.853  26.122   2.888
15281W        W88349  19.558  15.656  13.721
15282W        W88350  12.116  11.422  13.257
15283W        W88351  10.337  16.127  11.132
15284W        W88352  21.675  43.508  13.352
15285W        W88353   7.695   9.327  10.711
15286W        W88354  37.616   1.821  10.599
15287W        W88355  17.106  39.887   3.564
15288W        W88356   8.112  29.272  11.142
15289W        W88357  30.742  31.902  14.579
15290W        W88358  14.015  22.640   1.471
15291W        W88359  24.233  30.046  12.951
15292W        W88360  15.746  24.587   1.763
15293W        W88361  15.634  30.984   3.136
15294W        W88362  20.525  11.212   2.924
15295W        W88363  18.037  32.306   2.778
15296W        W88364  37.563  16.251  11.890
15297W        W88365   4.394  27.712   2.426
15298W        W88366  40.257  36.754   3.181
15299W        W88367   3.264  20.484   3.670
15300W        W88368  44.228   0.311   1.205
15301W        W88369  43.000  35.533   0.498
15302W        W88370  33.032  37.289  11.184
15303W        W88371  26.024  29.651  10.964
15304W        W88372  25.739  11.866   3.583
15305W        W88373  20.213  10.754  14.891
15306W        W88374  37.297  34.644  12.106
15307W        W88375  44.028   7.242  14.790
15308W        W88376  40.512  25.052  11.299
15309W        W88377  29.033  23.951  14.278
15310W        W88378  14.543  27.655  14.980
15311W        W88379  16.886   9.595   2.748
15312W        W88380  17.299   1.619  13.943
15313W        W88381  19.029  41.329  12.050
15314W        W88382  22.491  44.329   2.299
15315W        W88383   2.455   6.270  15.000
15316W        W88384  44.571   8.749  13.177
15317W        W88385  19.705  31.104   3.281
15318W        W88386  35.139  17.786   4.593
15319W        W88387  42.488   1.850   3.111
15320W        W88388  20.127  36.850   3.203
15321W        W88389  43.950  22.649  14.775
15322W        W88390  20.983   0.309  10.536
15323W        W88391   8.246  36.796  14.920
15324W        W88392  12.405  28.409  11.270
15325W        W88393  37.946  42.855  14.331
15326W        W88394  29.872  32.403  11.733
15327W        W88395  27.207  30.893   0.479
15328W        W88396   0.993  38.918   4.981
15329W        W88397  33.083   2.040   0.258
15330W        W88398  33.012  40.834  11.660
15331W        W88399   1.668  25.815   4.110
15332W        W88400  12.107  32.392   0.921
15333W        W88401  34.465  43.020  13.949
15334W        W88402  19.995   3.630  11.667
15335W        W88403  29.533  17.814   0.349
15336W        W88404  26.964   0.815   0.993
15337W        W88405  17.456   5.870   3.120
15338W        W88406  22.753  18.576   4.655
15339W        W88407  25.649  24.026  10.764
15340W        W88408  18.983  30.768  13.618
15341W        W88409  23.994  32.308  13.614
15342W        W88410  27.506  32.876  11.361
15343W        W88411  40.415  36.757  14.282
15344W        W88412  19.952  11.649   4.955
15345W        W88413  24.608  31.807  14.414
15346W        W88414  27.256  20.761  10.982
15347W        W88415  33.791   3.774  10.527
15348W        W88416  13.078  44.752   3.778
15349W        W88417  35.995  41.717   0.168
15350W        W88418  30.440  27.052  10.812
15351W        W88419  38.990  14.709   2.047
15352W        W88420  10.626  31.059  11.165
15353W        W88421  14.779  39.933  11.002
15354W        W88422  33.432  18.584   1.320
15355W        W88423  35.430   7.387  12.899
15356W        W88424  24.163   8.786  12.388
15357W        W88425   6.695  44.757  11.539
15358W        W88426  29.720  30.641   4.159
15359W        W88427  14.177   8.831  14.967
15360W        W88428  24.777  40.361  14.289
15361W        W88429  31.704  18.179  13.132
15362W        W88430   0.483   1.503  13.994
15363W        W88431  13.255  29.956   1.880
15364W        W88432  36.946  29.424  14.267
15365W        W88433  42.113  36.825   4.432
15366W        W88434  26.025  29.411  10.504
15367W        W88435  28.578  18.571  11.622
15368W        W88436  12.622  13.657  12.817
15369W        W88437  13.049  44.474   3.043
15370W        W88438  10.739   3.780  10.804
15371W        W88439  10.965   0.173  12.960
15372W        W88440  40.626  16.131   3.724
15373W        W88441  41.810  26.934  12.902
15374W        W88442   8.277  14.914   0.261
15375W        W88443  23.069   7.655   4.271
15376W        W88444  39.434  35.452   0.921
15377W        W88445  24.266  44.839   4.550
15378W        W88446   9.979  34.536  12.411
15379W        W88447  30.439  17.982   0.321
15380W        W88448  16.274  35.445   2.898
15381W        W88449   9.797  15.938  12.280
15382W        W88450  30.805  34.631   4.129
15383W        W88451  41.826  23.702   4.657
15384W        W88452  29.020  42.929   1.847
15385W        W88453  28.156   0.239   1.888
15386W        W88454  25.253  23.168  11.700
15387W        W88455  29.161  21.095  10.325
15388W        W88456   3.206   1.475  12.687
15389W        W88457  20.641  18.675  14.483
15390W        W88458  20.693   3.857  12.568
15391W        W88459   2.826  14.716   0.403
15392W        W88460  12.012   7.656  12.823
15393W        W88461  36.929  31.371  11.607
15394W        W88462  34.912   2.531   1.199
15395W        W88463   4.955  14.920   3.722
15396W        W88464  29.461  43.235   2.351
15397W        W88465  26.171  41.618   1.619
15398W        W88466  22.325  39.265   4.844
15399W        W88467  44.237  21.489  11.070
15400W        W88468  19.622  40.991   2.393
15401W        W88469  39.855  16.778  10.519
15402W        W88470  37.832  24.631   1.015
15403W        W88471   0.972   7.340   1.534
15404W        W88472  37.110  32.328   9.900
15405W        W88473  13.422  38.439   1.406
15406W        W88474  39.432  21.793  11.421
15407W        W88475  14.805  40.876  12.519
15408W        W88476  18.039  32.392  13.369
15409W        W88477  13.388  19.607  11.181
15410W        W88478  27.519  28.099  13.154
15411W        W88479  24.629  39.972  11.335
15412W        W88480  11.719  16.841  11.549
15413W        W88481   0.587  29.514  10.797
15414W        W88482  15.885  11.065   3.110
15415W        W88483  12.745  30.070   1.814
15416W        W88484   9.335   2.498  13.482
15417W        W88485   6.475  38.114   0.873
15418W        W88486  15.299  10.722  12.187
15419W        W88487  21.228  10.583   3.665
15420W        W88488   2.820  28.829   3.354
15421W        W88489   0.536  18.134  11.209
15422W        W88490  14.395  41.213   1.489
15423W        W88491  26.646  23.027   4.524
15424W        W88492  19.472  36.660  13.326
15425W        W88493  17.014  15.837  12.611
15426W        W88494  27.970   6.510  13.940
15427W        W88495   7.673  15.395   0.769
15428W        W88496  23.110  17.712   5.136
15429W        W88497  27.591  36.453   4.571
15430W        W88498   1.787   9.928   2.685
15431W        W88499  25.694  40.426   9.750
15432W        W88500   2.316  17.192  14.873
15433W        W88501  26.242  17.638  12.059
15434W        W88502  22.218  12.878  14.949
15435W        W88503  24.519  43.575  11.607
15436W        W88504   6.305  25.041   3.382
15437W        W88505  41.242  26.913  11.077
15438W        W88506  32.008  40.738   0.694
15439W        W88507  10.851  31.836   1.082
15440W        W88508   8.392  17.104   3.363
15441W        W88509  40.985  40.858   1.920
15442W        W88510  12.135  16.708   0.227
15443W        W88511  37.494  44.919  13.561
15444W        W88512  24.283   4.847  12.927
15445W        W88513  44.929  11.895  14.839
15446W        W88514  44.161  24.551   2.720
15447W        W88515   3.516  41.770  12.637
15448W        W88516  15.346  38.060   4.282
15449W        W88517  40.355  44.997   0.359
15450W        W88518  23.496  38.040   1.396
15451W        W88519  44.828  32.516   1.901
15452W        W88520  30.813  37.132   2.834
15453W        W88521  12.180  11.547  11.228
15454W        W88522  23.986  36.469   0.649
15455W        W88523   1.280  43.365   0.537
15456W        W88524  42.877   6.267   0.080
15457W        W88525  38.156   6.778  10.398
15458W        W88526  25.995  11.858   1.337
15459W        W88527  10.570  38.542   2.254
15460W        W88528  12.272  25.438  14.462
15461W        W88529  36.896   4.650  14.722
15462W        W88530  25.092   7.379   4.291
15463W        W88531  37.046  36.446  13.042
15464W        W88532  32.444  23.029  10.697
15465W        W88533  19.826  41.532   4.151
15466W        W88534  19.014  19.864  12.463
15467W        W88535  27.032   4.132   2.866
15468W        W88536  13.141  19.123  12.058
15469W        W88537  44.348  12.111   1.487
15470W        W88538   2.254  40.609   1.484
15471W        W88539  28.319  36.884   4.115
15472W        W88540   6.893  26.131   3.994
15473W        W88541  23.085   2.321  14.381
15474W        W88542  38.548  16.093   2.765
15475W        W88543  40.534   7.851  12.954
15476W        W88544  13.622   5.590   2.197
15477W        W88545  34.869   0.264  14.430
15478W        W88546  41.090  12.543   2.088
15479W        W88547  39.031  12.813  13.487
15480W        W88548   7.992   6.345   1.731
15481W        W88549  41.090  31.932  12.957
15482W        W88550  43.961  10.647   0.900
15483W        W88551  14.224  43.302   4.150
15484W        W88552  21.941  43.250  12.535
15485W        W88553  24.490   9.418  11.065
15486W        W88554  12.611  36.329  12.967
15487W        W88555  32.384   8.708  10.803
15488W        W88556   6.858  14.764  13.536
15489W        W88557  42.552   9.365  14.393
15490W        W88558   4.957   6.025   4.593
15491W        W88559  11.719  23.555  12.403
15492W        W88560  12.584  21.542  11.636
15493W        W88561   8.499  28.445   2.188
15494W        W88562  24.472   5.313  12.879
15495W        W88563  11.612   1.795   4.064
15496W        W88564  41.707   9.516  13.543
15497W        W88565   8.682   6.474   4.135
15498W        W88566  13.769  24.682   4.286
15499W        W88567  29.115  41.778  11.886
15500W        W88568  31.105  10.407  10.593
15501W        W88569  33.287   2.827   4.834
15502W        W88570  25.224  18.040   1.864
15503W        W88571  35.788  13.340   0.484
15504W        W88572   3.927  17.982  11.008
15505W        W88573  22.246  25.463  11.558
15506W        W88574  12.849  43.415   0.404
15507W        W88575  33.431  44.821  14.623
15508W        W88576   8.356  42.837   2.157
15509W        W88577  22.524  25.068  11.699
15510W        W88578  39.038  28.566  11.687
15511W        W88579  10.353  27.067   4.820
15512W        W88580  19.664   1.937  11.698
15513W        W88581  42.797  12.187  11.418
15514W        W88582  17.235  43.837  10.683
15515W        W88583  18.144  30.969   1.271
15516W        W88584  19.145   9.147   3.083
15517W        W88585   9.144  30.958  11.874
15518W        W88586  23.573  22.633   3.828
15519W        W88587  12.799   6.784   2.254
15520W        W88588  40.826  22.959   2.804
15521W        W88589   4.775  27.672  11.770
15522W        W88590  16.656  33.620  13.915
15523W        W88591  24.175  33.958  11.695
15524W        W88592  25.595  30.476   0.206
15525W        W88593  19.266   4.194   0.400
15526W        W88594  24.930  41.411   4.736
15527W        W88595  24.711  22.408  11.223
15528W        W88596   0.387  16.137   2.758
15529W        W88597  17.007  22.493   2.286
15530W        W88598  43.957  27.657   3.214
15531W        W88599  26.941  12.300  11.241
15532W        W88600  37.896  31.990  10.098
15533W        W88601   2.742   0.290   1.343
15534W        W88602   3.206  26.077  12.164
15535W        W88603   7.166  15.298   3.643
15536W        W88604   2.843  25.279   4.894
15537W        W88605  24.548  20.769   0.763
15538W        W88606  39.286  33.583   3.422
15539W        W88607  18.589  25.742  10.943
15540W        W88608   8.878  17.991  13.565
15541W        W88609  22.139  41.482  11.802
15542W        W88610   7.718  29.022  12.377
15543W        W88611   0.910  43.856   4.079
15544W        W88612  37.575  26.144   4.572
15545W        W88613  32.247  19.084   3.112
15546W        W88614  11.520  41.409  11.179
15547W        W88615  25.507  44.223  11.638
15548W        W88616  27.493  11.833   4.440
15549W        W88617  33.530  33.506  11.979
15550W        W88618  41.926  34.877   4.016
15551W        W88619  17.082   4.346  13.067
15552W        W88620   3.400   2.109   0.241
15553W        W88621  44.261  16.881  13.362
15554W        W88622  43.521  22.488   3.629
15555W        W88623  33.685  31.671  11.753
15556W        W88624   9.538   7.879  10.948
15557W        W88625  26.259  42.603  14.894
15558W        W88626   0.223  16.496  10.525
15559W        W88627  11.533  43.659   0.097
15560W        W88628  32.929   2.988  11.030
15561W        W88629  43.858  14.460   0.354
15562W        W88630  14.850  31.986   1.738
15563W        W88631  27.225  34.373   2.592
15564W        W88632   2.524  21.396  12.621
15565W        W88633   7.943   4.632  10.482
15566W        W88634  13.082  38.864   3.156
15567W        W88635  21.912  18.174  10.576
15568W        W88636  34.699   3.884   1.250
15569W        W88637  23.907  12.292  13.948
15570W        W88638  35.076  27.154   1.268
15571W        W88639  23.962  31.479   2.865
15572W        W88640   2.446  18.604   1.844
15573W        W88641  20.919  39.671   0.130
15574W        W88642  38.274  36.837   0.681
15575W        W88643  35.960   4.730   1.161
15576W        W88644  24.021  30.963  14.336
15577W        W88645  17.058   2.888   3.615
15578W        W88646  21.737  20.197   2.506
15579W        W88647  34.042  16.008  14.348
15580W        W88648  39.959  24.731   2.109
15581W        W88649  41.999   4.085   2.569
15582W        W88650  15.320  17.862   4.494
15583W        W88651  43.718   1.592   2.596
15584W        W88652  29.190  11.534  11.064
15585W        W88653   3.072  10.644   0.886
15586W        W88654  14.077  29.927   5.029
15587W        W88655  21.400  30.037  14.772
15588W        W88656  19.294  27.830   2.193
15589W        W88657  23.273  36.640  12.038
15590W        W88658   8.602  31.433  13.955
15591W        W88659   8.913  19.833  10.732
15592W        W88660   6.984   2.362   3.691
15593W        W88661  33.125  40.801   4.932
15594W        W88662  21.120  18.266   1.384
15595W        W88663  43.688  31.988  13.478
15596W        W88664  13.741   9.220  12.868
15597W        W88665  25.245  37.112   9.897
15598W        W88666  39.021  44.446  14.330
15599W        W88667  34.855  28.128   0.193
15600W        W88668  44.907   3.938  13.548
15601W        W88669  26.118   2.185   4.770
15602W        W88670  22.953  16.100  14.342
15603W        W88671  14.772   7.757  13.401
15604W        W88672  18.861  15.788   2.750
15605W        W88673  24.674   3.711   3.332
15606W        W88674  15.909   3.857   4.511
15607W        W88675  14.784  19.072   3.812
15608W        W88676  16.197  38.064   0.690
15609W        W88677   3.889  44.992   4.151
15610W        W88678   3.775  29.932   4.066
15611W        W88679  32.646   1.033  13.376
15612W        W88680  32.478  21.457   2.832
15613W        W88681   0.946   6.185  14.407
15614W        W88682  18.965  24.138  14.757
15615W        W88683  11.868  39.127  10.553
15616W        W88684   3.761  20.970  10.535
15617W        W88685  37.056  43.379  12.357
15618W        W88686   2.199  40.214   2.784
15619W        W88687   7.729  21.008   0.385
15620W        W88688  31.173   1.367  14.407
15621W        W88689   9.997  19.145  14.715
15622W        W88690   7.855  16.559   4.411
15623W        W88691  15.197  11.148  14.980
15624W        W88692   6.071  30.934   2.913
15625W        W88693  37.592  37.442  11.434
15626W        W88694  18.900   4.151   3.121
15627W        W88695   1.349  39.325  11.035
15628W        W88696  26.034  26.618   3.562
15629W        W88697  19.563  44.789  12.948
15630W        W88698  39.948  37.006  14.337
15631W        W88699  37.020  42.437  10.742
15632W        W88700  10.818  23.546   1.685
15633W        W88701  39.130  31.579  14.022
15634W        W88702  40.560   5.395  12.446
15635W        W88703  29.944  43.515  10.711
15636W        W88704  17.333  32.717  14.682
15637W        W88705  15.823  16.252  12.045
15638W        W88706   5.800  17.337   0.254
15639W        W88707  11.854   8.124   4.121
15640W        W88708  22.112  13.854  13.067
15641W        W88709  24.699  13.615  13.020
15642W        W88710  40.609   0.566  12.496
15643W        W88711  19.791  41.955  11.118
15644W        W88712  15.041   8.383  11.069
15645W        W88713   8.930   8.456   3.556
15646W        W88714  35.659  16.190   3.325
15647W        W88715  24.211   6.676  14.786
15648W        W88716  33.624   9.214   1.371
15649W        W88717  19.491  24.224   3.137
15650W        W88718   1.980   0.298  11.429
15651W        W88719   0.157  26.228  11.595
15652W        W88720  26.653  39.043  12.088
15653W        W88721  33.896   5.968  14.271
15654W        W88722  12.935  15.485  13.520
15655W        W88723  41.734   7.092   0.404
15656W        W88724   9.443  37.254   4.526
15657W        W88725  26.600  37.161  12.944
15658W        W88726  32.389  35.939   2.700
15659W        W88727   5.853   7.602   0.475
15660W        W88728  29.488  26.247   0.851
15661W        W88729  23.140  35.073  12.111
15662W        W88730  25.620  30.694   3.138
15663W        W88731  41.729   6.352   4.588
15664W        W88732  23.040  32.152  11.155
15665W        W88733  13.225   9.540  14.274
15666W        W88734   3.734  18.525  11.958
15667W        W88735  33.417   4.438  10.578
15668W        W88736   7.606   6.228  12.426
15669W        W88737   6.598  40.161  11.577
15670W        W88738  25.055  22.059  12.266
15671W        W88739  34.137  16.116  13.433
15672W        W88740  44.017  41.950   2.777
15673W        W88741  26.314   3.127  11.113
15674W        W88742  26.896  24.785   4.204
15675W        W88743   6.673  22.111   1.837
15676W        W88744  16.056  13.327   0.599
15677W        W88745  14.685   2.682  14.982
15678W        W88746  12.377  10.679  11.816
15679W        W88747  13.237  15.333  12.492
15680W        W88748   3.119  12.073  13.314
15681W        W88749   3.208  41.937  13.065
15682W        W88750   9.164  14.067  10.432
15683W        W88751  38.841  16.760   4.583
15684W        W88752  37.080   1.295  13.414
15685W        W88753  12.435   0.469  12.901
15686W        W88754  21.897   8.120  13.944
15687W        W88755  24.052  38.516   4.120
15688W        W88756   0.187  11.395  13.024
15689W        W88757  34.364  29.885   0.901
15690W        W88758  25.414  20.632  13.381
15691W        W88759  32.421  34.886   3.679
15692W        W88760  18.726   2.371   4.387
15693W        W88761  33.364  21.122   4.049
15694W        W88762  29.535   1.367  14.788
15695W        W88763  25.678  30.469  12.116
15696W        W88764  44.207  14.203  12.133
15697W        W88765  44.342  27.602   2.237
15698W        W88766   5.288  32.397   3.777
15699W        W88767  20.182  11.323   4.511
15700W        W88768  21.701  36.905   1.763
15701W        W88769  14.560  13.970   4.700
15702W        W88770  29.254   6.780  13.038
15703W        W88771   8.273  10.686  14.815
15704W        W88772  44.119  11.342   1.471
15705W        W88773  30.066  43.494  13.873
15706W        W88774  38.459  29.120   2.957
15707W        W88775  10.786  30.601  14.725
15708W        W88776  39.414  31.453   1.905
15709W        W88777  30.852  38.938   4.074
15710W        W88778  35.155  34.389  13.845
15711W        W88779   2.212   2.562  11.171
15712W        W88780  23.187  17.639  14.965
15713W        W88781  40.759  23.451   2.893
15714W        W88782   6.857  15.163  12.462
15715W        W88783  30.079  29.552  13.042
15716W        W88784  35.331  24.609   2.203
15717W        W88785  32.898  16.788  14.522
15718W        W88786  22.337  23.618  13.845
15719W        W88787  13.177   7.190   4.724
15720W        W88788  20.732  18.349  11.539
15721W        W88789  28.452  34.491  14.979
15722W        W88790  42.287  30.441   0.979
15723W        W88791  24.433   4.793   0.814
15724W        W88792  35.828  14.122  12.065
15725W        W88793  27.213  39.091  14.261
15726W        W88794  33.120  15.193  13.487
15727W        W88795  43.454  28.428  10.737
15728W        W88796  33.537  44.979   1.419
15729W        W88797  29.967   0.358  13.991
15730W        W88798  24.891  26.475  12.322
15731W        W88799  21.312  12.765  10.736
15732W        W88800  20.489   9.233  13.389
15733W        W88801  27.014  29.490  14.033
15734W        W88802  21.153   1.422   1.851
15735W        W88803  38.941   8.685  10.590
15736W        W88804  43.018   5.915  14.123
15737W        W88805  20.531   9.824  11.554
15738W        W88806   3.416  39.642   2.566
15739W        W88807  27.719   1.777   3.814
15740W        W88808  30.118  31.007  14.887
15741W        W88809   9.439   4.456  14.761
15742W        W88810  35.997  11.779  13.495
15743W        W88811  14.237   9.123   4.424
15744W        W88812  14.643   2.389  14.245
15745W        W88813  14.594  26.339  13.365
15746W        W88814  33.736   9.949  13.985
15747W        W88815  39.494   0.214  13.477
15748W        W88816  33.694   5.391   0.440
15749W        W88817  15.695   6.216  11.565
15750W        W88818   4.068   6.164   1.267
15751W        W88819  30.439   5.721   0.806
15752W        W88820  15.482  17.119  11.284
15753W        W88821  19.249  28.080  11.740
15754W        W88822  29.228   0.292   1.956
15755W        W88823   2.254  34.191   2.313
15756W        W88824  26.709  13.568   2.754
15757W        W88825  33.497  36.844  14.333
15758W        W88826   6.319  40.509  13.039
15759W        W88827  13.578  34.845  12.401
15760W        W88828  37.049  18.394   4.140
15761W        W88829  36.304  14.172  13.074
15762W        W88830  21.530  38.123   2.206
15763W        W88831  43.763  32.573  12.169
15764W        W88832   7.651   2.919  13.023
15765W        W88833  41.987  22.279  14.461
15766W        W88834  19.958  40.781  12.094
15767W        W88835   5.722   1.034  12.423
15768W        W88836  37.576  29.958   3.140
15769W        W88837  31.985  39.145  14.262
15770W        W88838  41.636   3.380  11.289
15771W        W88839  20.316  37.164  12.633
15772W        W88840  44.497  32.643  14.419
15773W        W88841   9.246   7.693   0.888
15774W        W88842  41.458   1.792  11.576
15775W        W88843   9.364  10.092  11.090
15776W        W88844   5.710  23.039   1.787
15777W        W88845  33.376  42.980  14.520
15778W        W88846   1.942   5.679  10.608
15779W        W88847  44.218  44.340   2.179
15780W        W88848  28.893   4.934  14.515
15781W        W88849  13.878  26.358  11.654
15782W        W88850  11.591  25.429   4.669
15783W        W88851  24.495  35.391  13.282
15784W        W88852  21.305   5.018   4.438
15785W        W88853  34.209   4.383   4.642
15786W        W88854   8.014  13.302  14.013
15787W        W88855  32.855  34.118  10.639
15788W        W88856  42.999   2.558  14.235
15789W        W88857   9.186  28.674   3.304
15790W        W88858  24.589  25.114   2.386
15791W        W88859  17.241  17.121   0.560
15792W        W88860  31.974  14.381   4.211
15793W        W88861   4.918  29.411  10.727
15794W        W88862  29.314   8.034   2.610
15795W        W88863  43.140  40.980  13.824
15796W        W88864   8.368  25.664   1.887
15797W        W88865  26.071  27.884  10.776
15798W        W88866  38.056  25.162   2.325
15799W        W88867   1.704  24.057   3.643
15800W        W88868   1.277   1.682  12.025
15801W        W88869  42.744  31.475   2.569
15802W        W88870  22.544  20.434  11.602
15803W        W88871  32.062  29.991  10.802
15804W        W88872  22.686  23.463   4.085
15805W        W88873  26.692   9.603   2.273
15806W        W88874  43.530   5.732  14.307
15807W        W88875  33.874  29.101   0.252
15808W        W88876   6.625  19.618   4.996
15809W        W88877   7.253   0.557  12.876
15810W        W88878  30.716  17.447  13.288
15811W        W88879  20.077  25.588   2.746
15812W        W88880   0.732  12.734   3.720
15813W        W88881  44.501  17.558  13.874
15814W        W88882  13.602  43.681   0.029
15815W        W88883   3.012  40.994   3.899
15816W        W88884  33.360   8.755   1.334
15817W        W88885   5.928  29.465  11.964
15818W        W88886   6.348  21.185   0.425
15819W        W88887  10.126  32.129  12.364
15820W        W88888  27.577   9.815   0.371
15821W        W88889  20.765  39.801  12.387
15822W        W88890  21.879  16.619  10.256
15823W        W88891  12.681  32.496  12.384
15824W        W88892  30.471  42.800  11.163
15825W        W88893   4.792  10.838  14.005
15826W        W88894  18.106   6.413   1.783
15827W        W88895  25.045  37.093  10.803
15828W        W88896  10.342  26.664  13.553
15829W        W88897  22.960  12.703   1.132
15830W        W88898  44.997  16.339  14.148
15831W        W88899  25.983  31.182  10.978
15832W        W88900  21.720  43.479   1.464
15833W        W88901   6.819  36.213  12.449
15834W        W88902  36.867  33.774  14.510
15835W        W88903   6.576  40.243   2.714
15836W        W88904  36.841  35.432   3.261
15837W        W88905  39.623   7.768  10.550
15838W        W88906  13.442  27.400  13.755
15839W        W88907   1.551  23.685  12.044
15840W        W88908  42.237  38.339  11.641
15841W        W88909   9.710   6.082   1.390
15842W        W88910  19.892  24.956  13.085
15843W        W88911   7.351   2.775   3.660
15844W        W88912  37.964  41.228  14.075
15845W        W88913  29.467  17.409  11.583
15846W        W88914  34.799  30.424  14.223
15847W        W88915  16.243   3.318   3.326
15848W        W88916  35.530  17.563   2.863
15849W        W88917   4.219  14.211   4.052
15850W        W88918  31.887   0.498   3.471
15851W        W88919  34.514  36.159  12.008
15852W        W88920   5.863  26.720  11.086
15853W        W88921  30.979  32.847   1.942
15854W        W88922  38.528   2.338   1.701
15855W        W88923  18.195   4.463  14.519
15856W        W88924  42.068  14.662  14.495
15857W        W88925  22.586  42.025   2.090
15858W        W88926  23.806  15.692   2.650
15859W        W88927  21.050   7.170   3.557
15860W        W88928  10.794  18.477  13.425
15861W        W88929   7.863   5.237  14.552
15862W        W88930   1.709  11.574   3.714
15863W        W88931  15.395  38.383  14.334
15864W        W88932   6.918  14.059  13.682
15865W        W88933   3.932  32.102  14.265
15866W        W88934   6.957   3.428  13.048
15867W        W88935  11.366  21.053  11.669
15868W        W88936  24.714  36.350   2.040
15869W        W88937  30.986  41.598  14.571
15870W        W88938  21.110  31.138   1.352
15871W        W88939  41.374  23.346  12.551
15872W        W88940   3.565  15.117   3.874
15873W        W88941  27.606   9.838   0.883
15874W        W88942  14.649  14.590  14.891
15875W        W88943  44.702   7.427  13.426
15876W        W88944   2.995  32.215  13.003
15877W        W88945   2.953   1.058   1.688
15878W        W88946  18.154  20.823  14.107
15879W        W88947  18.027  18.634  10.938
15880W        W88948  18.034  30.566  14.240
15881W        W88949  29.482  27.345  13.266
15882W        W88950  36.304  16.457   2.837
15883W        W88951  23.993  43.039   0.456
15884W        W88952  36.027  20.000   3.804
15885W        W88953   7.361  35.741   0.622
15886W        W88954  31.947  25.021   2.277
15887W        W88955  32.122  42.326  12.357
15888W        W88956   6.856  12.384  14.416
15889W        W88957   3.953  24.246  12.061
15890W        W88958  34.950  12.587  11.977
15891W        W88959  40.906  44.941  10.735
15892W        W88960   7.206   7.420  13.604
15893W        W88961   3.721  41.473  11.913
15894W        W88962  35.756   5.452   4.100
15895W        W88963  42.987   0.289  14.773
15896W        W88964  34.338   2.280  13.898
15897W        W88965  36.127   9.918  13.451
15898W        W88966  37.104  30.705  12.989
15899W        W88967  24.496  43.671  12.505
15900W        W88968  36.479  40.966  12.632
15901W        W88969  41.388  43.733  13.952
15902W        W88970   2.745  26.295  14.419
15903W        W88971  19.350  32.085   0.822
15904W        W88972  34.882  41.912  13.004
15905W        W88973   6.788  42.526  12.541
15906W        W88974   6.303  44.041   1.441
15907W        W88975  13.694  28.082   2.461
15908W        W88976  30.522  20.482  12.963
15909W        W88977  28.567   4.917   4.693
15910W        W88978  25.174  42.986   2.290
15911W        W88979  33.693  29.181   2.217
15912W        W88980  11.877   8.927  10.762
15913W        W88981   6.030  21.775  13.911
15914W        W88982  24.201  10.300  13.140
15915W        W88983  24.223  39.094   1.317
15916W        W88984  15.186  23.051   4.687
15917W        W88985   9.209  30.802   4.395
15918W        W88986  38.246   3.403   3.639
15919W        W88987  36.015  14.091  14.816
15920W        W88988  17.560  40.487   3.392
15921W        W88989  27.896   6.991  12.625
15922W        W88990  18.565  39.053  11.560
15923W        W88991  28.342  17.832  11.065
15924W        W88992  29.921  23.580   3.675
15925W        W88993  44.853  27.114  13.878
15926W        W88994  31.889  26.876  13.675
15927W        W88995  21.696  15.723   1.380
15928W        W88996  27.618  27.213   3.717
15929W        W88997  30.622   3.953   4.667
15930W        W88998  31.404   5.610  14.913
15931W        W88999  29.501  21.674   4.401
15932W        W89000  20.764  24.014   1.386
15933W        W89001  37.987   0.551   4.904
15934W        W89002  38.491  33.834  14.840
15935W        W89003  25.920   0.648  12.633
15936W        W89004  12.257  43.428   2.712
15937W        W89005   1.955   7.150  10.757
15938W        W89006  13.546  37.595  12.097
15939W        W89007  23.291  17.822  10.649
15940W        W89008  12.827  28.096   0.079
15941W        W89009   0.719  41.577  11.153
15942W        W89010  18.585  33.203  11.991
15943W        W89011  14.922   9.675  10.745
15944W        W89012  28.386  28.341   3.891
15945W        W89013  40.057   5.753   3.837
15946W        W89014  26.949  41.935  13.044
15947W        W89015  18.783   4.681   1.882
15948W        W89016  28.551  28.255  13.488
15949W        W89017  20.585  35.991   1.972
15950W        W89018  27.160   8.345   2.303
15951W        W89019  23.879  31.047  13.027
15952W        W89020   5.434  17.021   0.010
15953W        W89021  19.465  14.829   0.746
15954W        W89022   1.908  25.109  12.406
15955W        W89023  38.862  36.133  12.111
15956W        W89024  16.060  12.334  11.470
15957W        W89025  12.171  17.681   0.128
15958W        W89026  10.369  16.212   1.676
15959W        W89027   0.258  18.063  12.544
15960W        W89028   0.181   4.877   0.314
15961W        W89029  19.083  20.251  13.932
15962W        W89030  39.643  17.671  11.627
15963W        W89031   3.311   2.921  12.421
15964W        W89032  32.907  21.485   3.146
15965W        W89033  12.557  12.326   4.583
15966W        W89034  24.974  24.739  12.909
15967W        W89035   1.052  22.061   1.799
15968W        W89036   7.271  42.243   3.368
15969W        W89037  37.184  38.781  14.208
15970W        W89038  23.722  11.370   0.657
15971W        W89039  44.512  21.416  12.882
15972W        W89040  33.101  23.990  14.430
15973W        W89041  41.263  25.729   0.807
15974W        W89042   2.907  22.412   4.794
15975W        W89043  43.215  18.703  13.832
15976W        W89044  42.575  39.768   0.525
15977W        W89045  25.470  14.637  12.820
15978W        W89046  30.320  36.128   2.576
15979W        W89047  42.849   3.369   1.152
15980W        W89048  35.428  35.629  14.848
15981W        W89049  37.222   8.363  12.502
15982W        W89050  40.029  35.471   4.745
15983W        W89051  28.389  13.726  10.660
15984W        W89052  29.603  31.605  14.255
15985W        W89053   4.218  10.262   1.366
15986W        W89054  36.831  16.110   4.923
15987W        W89055  32.703  13.283  11.202
15988W        W89056  35.572  37.560   0.862
15989W        W89057  16.087  12.608   3.333
15990W        W89058  36.962  37.323  10.161
15991W        W89059  29.869  18.200   0.227
15992W        W89060  28.391  15.203   3.287
15993W        W89061   7.534   4.760  12.584
15994W        W89062  21.446  20.065  14.435
15995W        W89063  37.427   1.680  11.539
15996W        W89064  29.653  19.024  14.033
15997W        W89065  15.823  15.415   1.680
15998W        W89066   1.947  12.681  13.977
15999W        W89067   0.220  38.010  12.174
16000W        W89068  21.959  29.607  10.694
16001W        W89069  44.756  16.538  10.779
16002W        W89070  26.696   8.216   0.535
16003W        W89071   7.175  43.095   3.780
16004W        W89072  22.054  39.239   2.681
16005W        W89073  18.871   7.173   4.083
16006W        W89074   9.786  12.887   2.084
16007W        W89075  33.148  35.406   2.025
16008W        W89076  24.835  33.054   0.280
16009W        W89077  16.769   5.107  14.291
16010W        W89078  44.382  21.592  14.699
16011W        W89079  39.913  29.592   1.743
16012W        W89080  38.263  41.272  14.571
16013W        W89081  16.101  44.863  12.847
16014W        W89082   4.112  21.449   0.686
16015W        W89083  13.255  15.359   0.074
16016W        W89084  34.688  13.449   1.447
16017W        W89085  39.902  23.320  14.944
16018W        W89086  23.609  43.806  14.573
16019W        W89087  41.281   8.471   0.945
16020W        W89088  17.712  42.986   0.676
16021W        W89089  30.043   5.706  14.510
16022W        W89090  41.349  17.963  11.534
16023W        W89091   3.251  40.015  11.989
16024W        W89092  27.724  19.647  14.028
16025W        W89093  37.878  40.589  12.538
16026W        W89094  37.794  17.284   4.908
16027W        W89095  13.308  24.170   4.211
16028W        W89096   2.722  13.232   0.912
16029W        W89097  38.004  14.439  11.449
16030W        W89098  26.695  38.335   3.067
16031W        W89099  35.651  12.173   1.207
16032W        W89100  18.303  21.972   0.530
16033W        W89101  19.068  44.311   2.715
16034W        W89102  35.519  18.538  10.799
16035W        W89103   3.408  41.428   1.615
16036W        W89104  17.690  16.352  11.830
16037W        W89105  24.530  39.558   0.515
16038W        W89106  36.614  36.559   1.770
16039W        W89107  43.770  20.287  12.091
16040W        W89108   1.745  31.076   1.694
16041W        W89109   2.390   9.093   0.733
16042W        W89110  19.684  21.187  11.539
16043W        W89111  20.671  15.859  12.458
16044W        W89112   2.522  36.533   2.968
16045W        W89113  41.533  19.076   3.343
16046W        W89114  22.140  44.999  11.503
16047W        W89115  12.902  44.435   2.207
16048W        W89116  30.705  36.056   1.453
16049W        W89117   4.475  17.293  10.518
16050W        W89118  11.570   5.450  12.476
16051W        W89119  37.213  36.398  12.564
16052W        W89120   1.340  32.639   2.186
16053W        W89121  20.526  44.414  14.968
16054W        W89122   2.070  19.260   1.905
16055W        W89123   7.073   3.144  14.293
16056W        W89124  17.770  32.605  10.520
16057W        W89125  11.796   4.830   0.290
16058W        W89126  32.133  12.587  10.844
16059W        W89127  34.928  18.240  13.543
16060W        W89128   1.343  12.113   4.803
16061W        W89129  31.185  11.700  14.428
16062W        W89130  12.820  44.567  14.811
16063W        W89131  28.046  10.935   2.234
16064W        W89132  43.961  13.867  13.178
16065W        W89133  36.334  28.643  12.989
16066W        W89134  27.657  44.738  11.996
16067W        W89135  44.168  26.575   2.742
16068W        W89136  35.375  11.350  14.801
16069W        W89137  23.879  29.016  12.828
16070W        W89138   2.368   7.529   1.528
16071W        W89139  41.557   1.001  14.264
16072W        W89140   1.549   5.249  12.155
16073W        W89141   5.207  37.550  11.935
16074W        W89142  44.759  20.106   4.652
16075W        W89143  20.046  34.798   0.293
16076W        W89144  30.860  30.988   4.985
16077W        W89145   7.441  27.471   3.534
16078W        W89146  28.954  32.524   3.853
16079W        W89147  18.348   4.684   0.013
16080W        W89148  43.521  42.873  10.808
16081W        W89149  27.978  26.100   2.174
16082W        W89150  34.120  31.883  11.538
16083W        W89151  18.094  29.941   1.261
16084W        W89152  37.701   0.218   3.126
16085W        W89153   7.732   7.919   4.104
16086W        W89154  37.388  17.113   2.787
16087W        W89155   4.118   3.512   0.394
16088W        W89156  13.895   8.788  14.065
16089W        W89157  35.875  29.167   4.192
16090W        W89158   7.634  42.399   1.940
16091W        W89159  40.977  16.260   4.103
16092W        W89160  40.590   4.319   2.576
16093W        W89161   3.526  15.124   2.560
16094W        W89162  26.755   1.436   2.872
16095W        W89163  28.676   3.738   2.762
16096W        W89164  24.255  13.911   4.152
16097W        W89165   4.698  27.067   0.446
16098W        W89166  12.891  31.665  10.877
16099W        W89167  42.620   0.382  12.637
16100W        W89168  38.863  27.532  13.907
16101W        W89169  26.530  32.143  14.410
16102W        W89170  11.640  41.319   3.138
16103W        W89171  25.774  13.464  11.392
16104W        W89172   6.966  24.189  12.487
16105W        W89173  35.715  13.050   1.374
16106W        W89174  30.890  41.384   2.247
16107W        W89175  26.396  26.050  11.956
16108W        W89176   9.916  30.918   3.585
16109W        W89177  43.383  15.838  12.891
16110W        W89178   3.005   1.013   0.862
16111W        W89179   8.793  22.455  11.046
16112W        W89180  12.069   4.111  12.092
16113W        W89181  11.691  41.607  10.742
16114W        W89182  33.384  22.730  11.504
16115W        W89183   0.719  23.518  11.629
16116W        W89184  29.680  39.544   3.578
16117W        W89185  37.951  18.263   1.666
16118W        W89186  11.967  31.856   4.504
16119W        W89187  17.873  10.351   3.628
16120W        W89188  43.535  15.182  10.358
16121W        W89189   6.803  26.313  13.948
16122W        W89190  20.667  43.917   0.760
16123W        W89191  23.895  42.074  13.730
16124W        W89192  23.669   7.874  12.476
16125W        W89193  21.132  44.862  14.013
16126W        W89194  22.501   6.318   1.693
16127W        W89195  33.877   4.977   1.420
16128W        W89196  26.846  41.354  12.005
16129W        W89197  12.602   6.797  14.052
16130W        W89198   8.647  11.269  12.106
16131W        W89199   3.451  24.232   4.112
16132W        W89200  30.933  42.025   1.842
16133W        W89201  22.744  41.398   9.959
16134W        W89202   0.250  23.057   3.676
16135W        W89203  29.085  23.707  13.099
16136W        W89204   8.902  19.605  14.451
16137W        W89205  23.015  22.751  10.796
16138W        W89206   5.762  15.685  11.618
16139W        W89207  28.491  17.313   0.814
16140W        W89208  18.753   4.744  14.706
16141W        W89209  15.554   3.932   1.396
16142W        W89210  16.537  34.585  11.117
16143W        W89211  19.101  36.363  14.541
16144W        W89212  13.997  34.856  11.622
16145W        W89213  31.860  14.786  11.276
16146W        W89214   2.422  36.957   3.661
16147W        W89215   4.920  24.859  10.678
16148W        W89216   5.363  23.120  14.297
16149W        W89217  38.435  32.869   4.719
16150W        W89218   9.450  31.461   2.903
16151W        W89219  31.607  11.672  11.628
16152W        W89220  39.457  40.842   3.788
16153W        W89221  25.725  44.020   5.049
16154W        W89222  27.467  27.515   4.556
16155W        W89223  23.507  10.299   1.489
16156W        W89224  42.174  10.418  12.323
16157W        W89225  29.789  29.891  11.465
16158W        W89226  29.138  37.590   0.807
16159W        W89227   7.255   3.269   3.883
16160W        W89228  40.705  39.963   1.882
16161W        W89229  33.255  21.740  14.454
16162W        W89230   1.984  25.173   3.058
16163W        W89231   7.852  18.092  12.587
16164W        W89232  26.419  13.796  13.814
16165W        W89233  15.277  30.540   2.269
16166W        W89234  21.627  26.511  13.381
16167W        W89235  23.247   4.823  12.071
16168W        W89236  35.008  22.412  13.648
16169W        W89237  40.631   7.794   2.899
16170W        W89238  13.125  41.417  12.367
16171W        W89239  20.486  20.340   1.845
16172W        W89240  39.424  26.157  14.037
16173W        W89241   3.739  12.890   0.911
16174W        W89242  13.157  28.569   1.355
16175W        W89243   9.681   3.721  12.076
16176W        W89244   2.297  15.200  13.348
16177W        W89245   7.883  34.381   2.695
16178W        W89246  12.882  12.192   2.229
16179W        W89247   8.708  19.873  14.024
16180W        W89248  33.608  26.489  10.770
16181W        W89249  17.281  41.959  13.507
16182W        W89250  12.883   3.581   3.265
16183W        W89251   3.748  26.435  14.743
16184W        W89252  20.830  42.836  12.194
16185W        W89253  12.254  26.486  12.473
16186W        W89254  40.253  10.473   2.343
16187W        W89255  44.197   4.945  14.456
16188W        W89256   5.856  40.107  14.015
16189W        W89257  34.424  16.302   0.485
16190W        W89258  31.306  38.681  12.472
16191W        W89259  28.134  41.447   2.668
16192W        W89260  12.167   1.312   1.704
16193W        W89261  22.816   8.399   4.580
16194W        W89262   3.998  43.833  14.823
16195W        W89263  17.925  32.137  10.708
16196W        W89264  10.647  26.845  14.830
16197W        W89265  20.548  27.517  10.420
16198W        W89266   3.528  24.564   4.533
16199W        W89267  34.928   0.713  11.927
16200W        W89268  17.521  10.276   4.504
16201W        W89269  43.943  12.369  13.914
16202W        W89270  12.279  40.727  11.589
16203W        W89271   3.234  19.170   0.908
16204W        W89272  11.230  41.401   3.864
16205W        W89273  27.566  44.348   0.165
16206W        W89274  33.446   1.938   2.763
16207W        W89275  27.025  25.646   4.562
16208W        W89276   9.288  34.677  12.606
16209W        W89277  36.991  16.623   1.181
16210W        W89278  22.236  37.445   0.151
16211W        W89279  26.703  16.771  13.924
16212W        W89280  28.579  21.164  12.046
16213W        W89281  26.857  11.694  12.442
16214W        W89282   2.535  23.736   4.544
16215W        W89283   8.368  20.090  12.168
16216W        W89284  14.064   5.227  11.719
16217W        W89285   2.741  27.739   2.691
16218W        W89286  17.676   6.206   3.555
16219W        W89287  11.224  23.670  12.388
16220W        W89288  36.052   0.934  12.961
16221W        W89289  24.760  38.595  11.586
16222W        W89290  14.288  20.835   1.328
16223W        W89291  41.364  17.588   1.481
16224W        W89292  11.126  22.839   0.035
16225W        W89293  27.656  24.534  10.750
16226W        W89294  44.172   3.306   0.791
16227W        W89295  39.787  16.445   1.148
16228W        W89296  44.504  38.531  14.777
16229W        W89297  25.565  43.542   0.754
16230W        W89298  17.264  34.477  12.928
16231W        W89299   8.587  27.981  12.367
16232W        W89300   1.358   3.348   4.395
16233W        W89301  33.509  15.302   1.925
16234W        W89302  32.432  15.097  13.558
16235W        W89303  23.745   5.365   3.266
16236W        W89304   2.820  24.658   0.157
16237W        W89305  28.569  43.333  11.632
16238W        W89306   5.328  22.983   0.933
16239W        W89307  14.719   5.463  13.491
16240W        W89308  33.003  24.891   4.559
16241W        W89309  41.990  19.957  13.317
16242W        W89310  25.135  29.348  13.395
16243W        W89311  31.047  33.322   0.002
16244W        W89312   3.538   4.859   1.919
16245W        W89313   0.833  10.855  14.341
16246W        W89314  33.866   9.372  11.925
16247W        W89315   3.853  26.003   0.883
16248W        W89316  43.597  32.668  12.912
16249W        W89317  40.819   4.695   2.860
16250W        W89318  35.230  42.950   4.154
16251W        W89319  11.886  30.539   4.741
16252W        W89320  41.395  39.055  10.721
16253W        W89321  29.045  13.074   2.175
16254W        W89322  19.850  18.750  13.903
16255W        W89323  28.327  32.889  11.088
16256W        W89324  35.277  19.583   3.048
16257W        W89325  16.226   6.712   1.429
16258W        W89326  43.442  42.937  12.694
16259W        W89327  26.982  20.704   3.095
16260W        W89328   0.499   5.429  12.845
16261W        W89329  40.046  41.901  12.525
16262W        W89330  29.324  42.052  11.490
16263W        W89331  23.909  42.458  13.336
16264W        W89332  44.358  32.632  13.058
16265W        W89333  42.011  26.513  11.042
16266W        W89334  31.613  14.262  12.011
16267W        W89335  20.248   0.861  10.786
16268W        W89336   1.808  29.511   0.020
16269W        W89337  14.284  40.939  11.037
16270W        W89338  26.389  32.571  11.996
16271W        W89339   9.671  35.522  12.475
16272W        W89340   9.188  32.463  12.976
16273W        W89341  24.582   8.174   3.892
16274W        W89342  22.442   6.675  12.552
16275W        W89343  41.910   9.735  11.663
16276W        W89344   3.371  41.328  14.324
16277W        W89345   4.423  17.184   3.168
16278W        W89346  32.738  13.350   4.711
16279W        W89347  38.845   2.809   4.193
16280W        W89348  13.572   3.241   5.019
16281W        W89349  13.378  41.860  12.413
16282W        W89350  23.681  42.284  10.679
16283W        W89351  30.408   8.645   3.199
16284W        W89352  19.653  43.381   4.043
16285W        W89353  35.692   9.857  12.680
16286W        W89354  17.129  32.477  11.645
16287W        W89355  42.867   4.758   4.368
16288W        W89356  42.996  29.454   4.451
16289W        W89357  11.654  26.458   0.649
16290W        W89358  23.605  39.981  12.594
16291W        W89359  15.096  18.240   4.151
16292W        W89360   7.891  29.513   3.385
16293W        W89361   1.214  32.568  12.313
16294W        W89362  17.811   9.986   2.301
16295W        W89363  29.684  22.925   4.617
16296W        W89364   2.953   9.621  12.303
16297W        W89365  44.728   5.474   2.911
16298W        W89366  23.819  41.289   4.914
16299W        W89367  22.551  30.020   2.717
16300W        W89368  12.373  26.519   0.327
16301W        W89369  17.000  34.652   4.699
16302W        W89370  28.414   1.513   4.201
16303W        W89371  33.717  31.676   3.183
16304W        W89372  15.894   8.479  14.859
16305W        W89373  26.848  29.173  13.507
16306W        W89374  19.454  29.213  11.007
16307W        W89375   5.249  30.957  12.619
16308W        W89376  15.264  15.549   2.241
16309W        W89377  32.278   4.763  11.917
16310W        W89378  44.979  29.021   0.303
16311W        W89379   7.356  23.465   3.585
16312W        W89380   2.263  24.712  14.974
16313W        W89381  17.854  17.067  14.967
16314W        W89382  40.287  44.382  13.095
16315W        W89383  26.615  34.409  12.271
16316W        W89384  10.749   1.956   2.396
16317W        W89385   3.703   1.657  12.605
16318W        W89386  31.612  10.888  11.038
16319W        W89387  24.226  38.289   5.077
16320W        W89388   0.982   7.315  13.962
16321W        W89389  26.548  43.993   5.000
16322W        W89390  22.514  22.986  13.405
16323W        W89391  12.586   4.810  13.539
16324W        W89392  22.022  27.269  10.698
16325W        W89393  26.185  38.343  12.634
16326W        W89394  12.942  18.547   4.154
16327W        W89395   3.760   2.308   1.763
16328W        W89396  36.222  34.811   4.217
16329W        W89397   2.092   4.382   0.421
16330W        W89398  37.768  43.712  13.952
16331W        W89399  26.220  37.298  10.887
16332W        W89400  36.404  23.066   1.010
16333W        W89401   0.219  36.989  14.935
16334W        W89402  23.660  20.307   2.367
16335W        W89403   3.236  36.958  10.692
16336W        W89404   0.971  24.536   2.185
16337W        W89405  44.269  35.205   2.678
16338W        W89406  27.973  38.066   5.006
16339W        W89407  33.134  37.007   1.883
16340W        W89408   5.483  36.331   4.258
16341W        W89409  22.047  39.466   1.738
16342W        W89410  43.544  38.532  12.952
16343W        W89411  29.016   3.224   0.509
16344W        W89412   3.718  41.376   4.194
16345W        W89413  20.630   3.936   0.342
16346W        W89414  17.568  20.581   0.258
16347W        W89415  28.367  21.193  11.529
16348W        W89416  18.029  27.696  12.682
16349W        W89417  22.490  39.447   1.343
16350W        W89418   9.352  34.412  11.218
16351W        W89419   7.726  31.938  14.033
16352W        W89420  22.670   9.727   2.232
16353W        W89421  32.471  23.108   2.944
16354W        W89422  20.811  14.114  14.029
16355W        W89423   1.135  17.018   2.624
16356W        W89424   8.124  23.556   1.139
16357W        W89425  11.522  20.596   0.282
16358W        W89426  31.131  24.517  13.443
16359W        W89427  17.520  24.995   0.100
16360W        W89428  23.856   3.180   4.675
16361W        W89429  29.623  44.372   3.221
16362W        W89430  11.910  33.005  10.462
16363W        W89431  26.936  11.189   1.766
16364W        W89432  35.311   1.689   1.804
16365W        W89433  28.626  18.810  14.762
16366W        W89434  16.296  42.591  10.760
16367W        W89435  38.277  33.634   1.235
16368W        W89436  30.956  24.589  11.686
16369W        W89437  26.410  27.026   1.816
16370W        W89438   2.702   5.879  14.205
16371W        W89439  13.661   5.748   0.309
16372W        W89440  15.807  35.500   2.650
16373W        W89441  36.558   6.995   4.537
16374W        W89442  27.210   2.193   4.698
16375W        W89443  30.586  28.658  14.368
16376W        W89444  32.063  39.046   4.535
16377W        W89445  21.192  33.989   2.935
16378W        W89446  15.814  19.344  12.990
16379W        W89447  24.635  10.336   3.891
16380W        W89448  22.269   9.019   2.683
16381W        W89449  42.369  40.921  11.420
16382W        W89450  30.421  31.640  12.962
16383W        W89451  34.466  16.759  11.942
16384W        W89452  29.086  35.346  11.781
16385W        W89453  22.338  24.694   3.667
16386W        W89454  17.581  26.183   3.578
16387W        W89455  10.899  36.931  14.619
16388W        W89456  37.832  25.462   3.183
16389W        W89457  15.637  33.035   4.565
16390W        W89458  39.182   0.442  10.319
16391W        W89459  27.636  14.840   2.829
16392W        W89460  24.216  15.435   3.560
16393W        W89461   8.703  40.780  11.098
16394W        W89462  44.496   1.179   2.433
16395W        W89463  37.917  30.137  11.505
16396W        W89464  40.051  37.568  13.146
16397W        W89465  39.846   1.814  13.056
16398W        W89466  25.720  21.653   2.190
16399W        W89467   3.783   3.582   4.458
16400W        W89468  11.575  22.059   3.347
16401W        W89469  31.139  18.976   4.165
16402W        W89470   4.988  41.953   2.230
16403W        W89471  22.668  40.373  14.923
16404W        W89472  12.039  24.405  12.685
16405W        W89473  24.804  44.884   4.591
16406W        W89474   3.744  24.059  10.804
16407W        W89475  28.530  16.462  12.992
16408W        W89476  33.458  34.442   5.326
16409W        W89477  33.348  24.682   3.821
16410W        W89478  43.179  24.984   1.548
16411W        W89479  19.322  36.738  11.240
16412W        W89480  36.605  21.039  10.757
16413W        W89481  13.769  25.861  11.652
16414W        W89482   0.859   4.024  12.316
16415W        W89483   6.786  40.395  12.408
16416W        W89484  43.103  37.049  13.544
16417W        W89485  40.575  13.964   5.350
16418W        W89486  39.492  26.202   0.016
16419W        W89487   3.272  21.188   2.381
16420W        W89488  41.922  37.909   0.856
16421W        W89489   4.251  31.808  13.973
16422W        W89490  16.494  17.270  11.049
16423W        W89491  15.958   0.521   0.137
16424W        W89492  38.512   4.560  12.946
16425W        W89493  36.223   4.809   3.937
16426W        W89494   9.863  41.952  14.526
16427W        W89495  14.128  44.854   2.540
16428W        W89496   7.892  20.739  14.375
16429W        W89497  14.186   5.700   0.436
16430W        W89498   7.284  31.629   1.314
16431W        W89499  19.162   7.767   3.707
16432W        W89500  36.739  39.975   2.096
16433W        W89501  33.068   2.364  10.436
16434W        W89502   3.624  34.164  12.518
16435W        W89503   7.151  22.511  11.531
16436W        W89504  28.143  31.172   1.867
16437W        W89505  19.538  25.737   4.105
16438W        W89506  23.731   4.678  11.207
16439W        W89507   6.357  18.008  14.131
16440W        W89508   8.952  43.966   4.867
16441W        W89509  12.642   2.797  10.844
16442W        W89510  20.016   7.324  10.886
16443W        W89511  28.442   2.010   4.301
16444W        W89512  35.173  44.137   4.199
16445W        W89513  17.767  10.650   3.137
16446W        W89514  39.034  31.170   4.962
16447W        W89515  13.155  34.059   3.199
16448W        W89516   8.088  11.260   3.709
16449W        W89517  25.045   6.735  10.650
16450W        W89518  43.788  35.350   2.841
16451W        W89519   2.819  15.195  13.365
16452W        W89520   0.981  31.287   0.070
16453W        W89521   7.735  44.301   3.656
16454W        W89522  35.805  40.036   2.211
16455W        W89523  39.735   9.315   0.816
16456W        W89524   4.102  10.711  11.101
16457W        W89525  20.020  10.531   1.155
16458W        W89526  11.369  11.796  12.901
16459W        W89527  22.705  16.560   1.778
16460W        W89528  21.523  35.336   0.426
16461W        W89529  37.352   6.860  14.483
16462W        W89530  32.580   3.707   3.716
16463W        W89531   4.169   5.274   0.434
16464W        W89532  36.559  23.415   0.240
16465W        W89533   6.272  19.169   9.875
16466W        W89534   5.814  44.312   2.596
16467W        W89535  35.764  17.456   5.017
16468W        W89536  28.419  28.109   2.639
16469W        W89537  26.886  12.516   0.994
16470W        W89538  14.833  43.408  11.179
16471W        W89539  17.842  18.653   0.250
16472W        W89540   5.272  41.066  10.793
16473W        W89541  31.117   9.671  13.323
16474W        W89542  44.316  33.607  13.433
16475W        W89543  37.177  26.706   1.744
16476W        W89544  40.912  16.682  10.690
16477W        W89545   9.936  23.996  11.966
16478W        W89546   0.449  41.662   3.721
16479W        W89547  30.465   9.129   1.313
16480W        W89548  29.564  28.052  13.872
16481W        W89549  34.186   6.654   0.470
16482W        W89550  29.015  20.621  13.388
16483W        W89551  24.260  27.988   1.720
16484W        W89552  28.206  41.793   2.271
16485W        W89553  29.474  24.599  12.818
16486W        W89554  33.330  15.680  14.860
16487W        W89555  42.484  24.975   3.627
16488W        W89556  34.855  27.359   0.844
16489W        W89557  19.797  33.336  13.802
16490W        W89558  42.412  27.921  13.268
16491W        W89559  21.239  12.635  13.481
16492W        W89560  11.391  30.627   4.830
16493W        W89561   2.626  25.045   4.161
16494W        W89562  25.852  26.201   2.723
16495W        W89563  41.044  41.715   2.789
16496W        W89564  36.354  32.040   4.558
16497W        W89565  23.253  34.164   2.157
16498W        W89566  36.003  35.862   0.823
16499W        W89567  13.304  42.930  11.550
16500W        W89568  42.066  43.450   0.952
16501W        W89569  13.365  41.116   1.746
16502W        W89570  11.285  27.678  11.415
16503W        W89571   7.163  15.515   0.826
16504W        W89572  37.637  44.902   3.628
16505W        W89573  44.720  43.502   4.336
16506W        W89574  31.206  31.405   0.519
16507W        W89575  43.859  35.464   1.373
16508W        W89576   2.843  18.174   1.768
16509W        W89577   5.848   7.465   3.168
16510W        W89578  20.659  33.141   3.584
16511W        W89579  31.726  20.005   4.858
16512W        W89580  13.071   6.725   0.294
16513W        W89581  25.385  18.073   3.372
16514W        W89582  41.085   0.703  11.963
16515W        W89583  11.447  40.235   4.903
16516W        W89584   9.684  37.436  14.908
16517W        W89585  14.413   1.454  14.960
16518W        W89586  21.196  39.337   3.917
16519W        W89587   3.329   8.605   0.425
16520W        W89588  32.164   8.977   3.677
16521W        W89589  41.931  44.979   3.192
16522W        W89590  20.061  41.966   0.786
16523W        W89591  37.473  17.570   1.801
16524W        W89592  16.160  33.465  13.915
16525W        W89593   1.457   3.953  12.490
16526W        W89594  27.125  18.447  12.404
16527W        W89595   1.011  24.984  12.112
16528W        W89596   3.497  14.153  14.373
16529W        W89597  16.700  22.175   2.833
16530W        W89598  24.623  25.595   4.405
16531W        W89599  32.973  41.407   3.025
16532W        W89600  18.152  21.047   1.480
16533W        W89601  15.678  13.991  14.323
16534W        W89602  14.861   7.976  10.807
16535W        W89603   4.925   7.092  14.297
16536W        W89604  28.001  24.505   0.762
16537W        W89605   5.154  44.993   3.778
16538W        W89606   2.499  37.002   1.758
16539W        W89607  40.360   6.253   5.519
16540W        W89608   9.151  10.617  14.127
16541W        W89609  43.787   7.134   1.215
16542W        W89610   9.412  25.509  13.587
16543W        W89611  11.291   5.386  14.895
16544W        W89612  41.334  33.023   2.708
16545W        W89613  22.835  32.898  11.598
16546W        W89614  18.864   4.649   3.288
16547W        W89615  26.602   7.560   4.851
16548W        W89616  25.777  38.872  14.311
16549W        W89617  22.893   6.856  11.148
16550W        W89618  39.424   7.092  13.408
16551W        W89619  16.940   5.345   2.405
16552W        W89620   2.725  25.030  12.917
16553W        W89621   2.443  10.312  14.392
16554W        W89622  13.055  14.266   3.197
16555W        W89623  13.355  27.682   1.789
16556W        W89624  38.171   0.723   1.674
16557W        W89625   1.955  22.147  13.030
16558W        W89626  29.061  13.338  12.440
16559W        W89627  34.335  36.895  13.033
16560W        W89628   6.701   1.035   1.486
16561W        W89629  12.600  42.906   3.802
16562W        W89630  27.473  39.432  11.686
16563W        W89631  40.901   9.589  12.065
16564W        W89632  26.555  34.198  10.746
16565W        W89633  11.076   7.040  11.207
16566W        W89634  17.116   1.710  11.653
16567W        W89635  18.979  16.768  11.636
16568W        W89636  38.229  16.076   4.462
16569W        W89637   3.330  14.461  11.940
16570W        W89638  39.024  26.722  13.331
16571W        W89639  17.537   6.067  10.988
16572W        W89640  42.020   8.402   3.799
16573W        W89641  10.278  32.064   5.191
16574W        W89642  27.463  11.227  11.153
16575W        W89643  24.129  21.121   3.260
16576W        W89644   1.940  29.910   1.447
16577W        W89645  15.304  26.535  10.792
16578W        W89646  28.374  38.921   3.430
16579W        W89647   4.482  40.932   3.270
16580W        W89648   6.839  27.553  11.633
16581W        W89649  39.024  40.665   4.148
16582W        W89650  28.192  40.789   2.166
16583W        W89651  26.048   4.926  11.150
16584W        W89652  32.411  17.581  13.391
16585W        W89653  37.406  26.246   1.901
16586W        W89654  42.053  31.484   4.087
16587W        W89655  23.297  10.091  13.813
16588W        W89656   2.951  41.377   2.141
16589W        W89657  38.369  39.810   0.805
16590W        W89658  39.642   4.826   3.317
16591W        W89659  26.452   3.113  14.497
16592W        W89660  21.611   5.277   1.018
16593W        W89661  38.952  25.668   0.312
16594W        W89662   0.487  39.268  11.126
16595W        W89663   7.457  10.772   4.024
16596W        W89664  22.546  16.242   3.809
16597W        W89665   7.966  20.032  10.961
16598W        W89666  33.535  36.018  11.496
16599W        W89667  15.744   6.743  14.222
16600W        W89668  25.934   7.013  14.308
16601W        W89669  42.593  24.123  11.444
16602W        W89670  31.612  36.776  11.086
16603W        W89671  40.497  11.785  11.925
16604W        W89672  36.408  35.186   3.780
16605W        W89673  10.774  35.482  11.686
16606W        W89674  41.390   4.355  12.428
16607W        W89675  26.593   0.096  14.757
16608W        W89676  24.473  21.415   2.355
16609W        W89677  30.540  20.971  12.187
16610W        W89678  38.076   8.577  12.372
16611W        W89679  13.076  22.629  13.085
16612W        W89680  31.133  40.006   0.330
16613W        W89681  26.957  28.680  13.335
16614W        W89682  24.003  12.526   4.522
16615W        W89683  43.099   7.835   0.905
16616W        W89684   3.960  21.969   0.410
16617W        W89685  39.602  32.993  11.652
16618W        W89686  27.175   1.026  12.140
16619W        W89687   7.185  36.770   0.753
16620W        W89688  15.040  35.725   3.133
16621W        W89689  27.033  26.281  11.757
16622W        W89690  11.933  36.945  14.504
16623W        W89691  25.279   0.566  11.489
16624W        W89692   7.938  44.002   2.814
16625W        W89693  22.466   6.168  12.061
16626W        W89694   2.878  15.763   4.197
16627W        W89695   9.935   5.274  13.446
16628W        W89696  30.766  11.914   4.188
16629W        W89697  42.241  13.280   3.799
16630W        W89698  10.769  14.587   2.739
16631W        W89699  15.255  12.724  12.375
16632W        W89700  33.843  29.653   4.353
16633W        W89701  16.143  20.525  14.978
16634W        W89702  18.826   8.202   3.299
16635W        W89703  19.808  42.378   1.803
16636W        W89704  41.275  24.009  11.076
16637W        W89705  28.188  40.289  13.013
16638W        W89706  37.675  16.580  11.122
16639W        W89707  21.407   5.743  12.508
16640W        W89708  29.891  38.974  10.671
16641W        W89709   6.188  31.159  12.979
16642W        W89710  41.295   0.420  13.485
16643W        W89711  40.295  20.605  10.973
16644W        W89712  34.891  12.269  12.532
16645W        W89713  17.006  18.177   5.029
16646W        W89714  14.756  44.806  14.018
16647W        W89715   3.411   6.153   3.581
16648W        W89716  38.234  29.516   0.044
16649W        W89717  16.673  28.436  10.642
16650W        W89718   5.738  28.712   3.854
16651W        W89719  35.589  10.698  12.129
16652W        W89720  26.933   5.688  13.372
16653W        W89721  14.806  21.163   0.730
16654W        W89722  41.323  15.919  13.497
16655W        W89723  11.557   2.787  13.613
16656W        W89724  44.429  44.925   0.313
16657W        W89725   7.777  15.606   3.056
16658W        W89726  25.450  25.571  14.789
16659W        W89727  12.211   7.854   3.223
16660W        W89728  35.645  35.471   0.774
16661W        W89729  36.675   9.118  12.597
16662W        W89730  42.452  11.365  11.245
16663W        W89731   1.490  38.975   3.829
16664W        W89732  38.112  18.660   3.733
16665W        W89733  31.021  31.901  13.590
16666W        W89734  18.896  12.130   2.851
16667W        W89735   2.750  36.874   2.206
16668W        W89736  42.835   3.892   1.119
16669W        W89737  33.532  11.684   0.001
16670W        W89738  15.087  29.687   1.810
16671W        W89739  34.587  43.096   1.704
16672W        W89740  19.287  32.543  12.806
16673W        W89741  18.062  23.924  14.327
16674W        W89742   1.925  23.173  13.027
16675W        W89743  24.613  19.219  10.491
16676W        W89744   2.521  35.774   0.965
16677W        W89745  32.138  17.549  12.919
16678W        W89746   3.763  44.786  11.592
16679W        W89747  31.834  34.747   0.768
16680W        W89748  32.023  12.631   0.499
16681W        W89749  18.582  11.831   1.745
16682W        W89750   5.235   4.627   1.291
16683W        W89751  29.534  20.197  13.428
16684W        W89752  29.331  17.788  11.241
16685W        W89753  14.557  14.273   3.335
16686W        W89754  37.369  21.789  13.459
16687W        W89755  43.486  24.622  14.745
16688W        W89756  13.272   3.006   3.929
16689W        W89757  28.821  33.868   0.879
16690W        W89758  22.148   6.252  12.484
16691W        W89759  37.263  21.190  12.366
16692W        W89760  22.497  23.025   0.821
16693W        W89761  26.128  40.479   0.875
16694W        W89762  29.224  41.986   2.300
16695W        W89763   8.564   9.525  12.044
16696W        W89764   2.134   3.835  11.161
16697W        W89765  28.352  43.719   0.835
16698W        W89766  26.919   6.744  14.274
16699W        W89767  26.689   1.464  11.614
16700W        W89768  18.258  16.381  11.147
16701W        W89769  35.768   5.700  13.541
16702W        W89770  19.807  15.151  12.006
16703W        W89771  42.247  40.313  11.206
16704W        W89772   6.245  30.284   0.022
16705W        W89773  42.808   8.444  11.689
16706W        W89774  43.045  23.963   2.681
16707W        W89775  33.839  31.060   1.419
16708W        W89776   9.445   1.632  10.066
16709W        W89777  24.990  24.386  13.990
16710W        W89778   2.318  30.819   0.449
16711W        W89779  15.354  40.037   4.586
16712W        W89780  20.613   2.821   4.019
16713W        W89781   4.268  16.046   0.654
16714W        W89782  21.264  29.021   4.535
16715W        W89783  28.854  18.578  10.742
16716W        W89784  38.885  23.496  12.531
16717W        W89785   9.163   6.086   2.239
16718W        W89786  14.636   6.292  10.293
16719W        W89787  18.395  26.950  13.070
16720W        W89788  37.212  39.025   0.213
16721W        W89789  21.068  44.461  12.767
16722W        W89790  27.042  10.927  11.128
16723W        W89791  20.300   7.557   2.849
16724W        W89792  35.972   2.754   0.820
16725W        W89793  40.874  36.953   2.658
16726W        W89794   3.266  14.749  10.657
16727W        W89795   5.375  41.798   0.507
16728W        W89796   6.844   9.400  13.432
16729W        W89797  21.144  22.512  12.816
16730W        W89798  42.047  21.700  11.241
16731W        W89799  32.284  19.984   0.369
16732W        W89800  11.142  17.140   1.308
16733W        W89801  30.939   1.966   0.963
16734W        W89802  27.050  28.958  12.897
16735W        W89803  43.090   9.785   3.856
16736W        W89804   3.162  14.075  13.913
16737W        W89805  39.848  31.441   0.541
16738W        W89806  23.741  22.310  12.909
16739W        W89807  28.879  25.942  14.481
16740W        W89808  31.626  39.504   3.720
16741W        W89809  16.632  32.440  13.383
16742W        W89810  38.940   6.490   2.655
16743W        W89811  28.251  14.452   9.974
16744W        W89812  43.430  11.812  11.127
16745W        W89813   7.859  21.829  13.438
16746W        W89814  14.522  24.448  14.892
16747W        W89815   6.365  41.619   2.164
16748W        W89816  40.779   4.187  12.992
16749W        W89817  18.256  15.035   0.548
16750W        W89818   7.135  34.342   2.505
16751W        W89819  41.951  17.519   0.278
16752W        W89820  16.509  11.753   3.660
16753W        W89821  11.735   9.483   4.185
16754W        W89822  44.553  17.278  14.531
16755W        W89823  25.605  13.848   4.304
16756W        W89824  27.869  11.065   1.733
16757W        W89825   9.103  34.065  11.556
16758W        W89826  35.190   3.489   2.921
16759W        W89827  12.287  18.931  10.876
16760W        W89828   0.179  27.370   1.873
16761W        W89829  17.975  31.459  14.743
16762W        W89830   5.508   2.799  10.779
16763W        W89831  30.046  34.483  14.992
16764W        W89832  43.519  14.598  13.359
16765W        W89833  13.666  10.866  14.488
16766W        W89834   4.726   0.561   3.733
16767W        W89835  38.386  13.128  13.999
16768W        W89836  15.542  35.566  10.908
16769W        W89837  43.441  15.848   0.738
16770W        W89838  42.937  36.149  14.199
16771W        W89839  20.282  36.966   2.159
16772W        W89840  34.002  44.357   3.629
16773W        W89841   0.991  32.528   1.755
16774W        W89842   4.782  34.018  13.010
16775W        W89843  17.458  21.126   2.268
16776W        W89844  17.246  30.209   3.273
16777W        W89845  11.122  38.623   1.287
16778W        W89846  38.373  17.337  13.837
16779W        W89847  30.413  29.096   2.167
16780W        W89848  14.340  28.364   4.099
16781W        W89849  35.442  31.834   3.741
16782W        W89850  37.583  42.372  14.342
16783W        W89851  33.491  11.329  12.062
16784W        W89852  21.598  27.563   2.811
16785W        W89853  41.744  35.883   0.777
16786W        W89854   6.687  38.817   0.436
16787W        W89855  12.917  11.424   3.214
16788W        W89856  10.234  16.388  14.863
16789W        W89857  43.525  29.019   0.087
16790W        W89858  40.016   1.052   3.816
16791W        W89859  15.930  25.463   3.838
16792W        W89860  37.093  22.955   3.391
16793W        W89861  15.431  17.586  13.885
16794W        W89862  22.957   7.346  12.680
16795W        W89863  20.008   5.386  11.973
16796W        W89864   7.744  14.368   1.466
16797W        W89865   6.869  39.281   2.222
16798W        W89866  17.271  41.928  12.149
16799W        W89867  17.253  27.583   1.485
16800W        W89868  18.216   7.791   3.747
16801W        W89869  23.680   2.310   1.709
16802W        W89870  27.861  43.486  14.453
16803W        W89871  29.403   1.440   3.727
16804W        W89872  29.922  28.312  10.829
16805W        W89873  27.026  23.284  10.922
16806W        W89874  32.438  36.448  14.389
16807W        W89875  20.754   2.457   2.735
16808W        W89876  39.437   5.389   0.937
16809W        W89877  16.602  25.002  10.772
16810W        W89878  39.428  33.149  13.129
16811W        W89879  39.132  39.061   3.331
16812W        W89880   9.216  14.057   2.705
16813W        W89881   2.743  44.747   0.376
16814W        W89882   9.229  30.079   4.965
16815W        W89883  13.849  15.594   2.330
16816W        W89884  23.719  30.372  14.931
16817W        W89885   0.864  31.961   0.719
16818W        W89886   3.407  42.895   0.914
16819W        W89887   8.510  15.235   2.847
16820W        W89888  34.865  31.004  12.320
16821W        W89889  30.461  13.235   0.072
16822W        W89890  14.657  43.319  11.677
16823W        W89891  20.737  15.094  12.915
16824W        W89892  33.337  31.588   2.254
16825W        W89893   0.475   9.527   4.043
16826W        W89894  27.908  18.187   0.814
16827W        W89895  11.836  20.423   2.319
16828W        W89896  34.555  12.430   0.323
16829W        W89897   7.313   4.772   4.335
16830W        W89898  30.211  14.029   0.279
16831W        W89899  25.011   1.270   4.319
16832W        W89900   1.636  17.307   4.699
16833W        W89901  19.291  20.886   1.842
16834W        W89902  17.058  29.007  12.609
16835W        W89903   6.436  13.885  12.636
16836W        W89904  41.138  35.061   2.918
16837W        W89905   4.840  25.896  10.567
16838W        W89906  33.732  36.571  11.875
16839W        W89907  10.219  25.901  13.318
16840W        W89908  37.952  35.972  13.130
16841W        W89909  18.295  40.964  10.575
16842W        W89910  23.958  37.909  14.872
16843W        W89911  15.093  30.475  13.515
16844W        W89912   9.146  11.322  10.785
16845W        W89913   0.990  35.333  12.502
16846W        W89914  10.841  31.604  11.982
16847W        W89915  11.207  37.270  13.823
16848W        W89916  36.211  22.573  10.672
16849W        W89917  22.673  37.866   2.863
16850W        W89918  17.326  29.444   0.490
16851W        W89919  39.011  23.989  12.493
16852W        W89920  23.798  31.908  13.868
16853W        W89921  14.968  20.575   2.841
16854W        W89922  21.778   0.569   0.806
16855W        W89923   6.933   9.910   0.977
16856W        W89924  38.927  40.492   3.676
16857W        W89925  18.769   2.531   3.868
16858W        W89926  35.987  41.217  14.300
16859W        W89927  14.405  18.873   0.331
16860W        W89928  31.449   6.268   1.174
16861W        W89929  32.529  32.129  14.498
16862W        W89930  24.203   5.769   2.095
16863W        W89931   9.050  39.950   3.721
16864W        W89932  15.370  16.614  10.729
16865W        W89933  20.040   5.771  13.902
16866W        W89934  30.214   2.905  10.681
16867W        W89935  21.269   3.310  10.402
16868W        W89936   4.021  35.640  10.960
16869W        W89937  14.263  39.802   1.311
16870W        W89938  36.542  32.255   1.311
16871W        W89939  33.437  19.656   0.763
16872W        W89940  21.047  12.447   1.773
16873W        W89941  41.407   0.893   1.718
16874W        W89942  18.600  43.055  14.418
16875W        W89943  29.896  29.749  12.620
16876W        W89944  35.422   9.863  10.803
16877W        W89945   6.974  37.015  12.173
16878W        W89946   4.431  41.413  11.708
16879W        W89947  16.420  14.663  14.357
16880W        W89948  30.763  26.113   1.440
16881W        W89949  30.124   8.273   1.281
16882W        W89950  42.183  18.581  11.603
16883W        W89951  34.760  42.840   5.007
16884W        W89952  11.295  43.410   0.506
16885W        W89953  24.043  17.943  12.534
16886W        W89954  21.459  17.660   3.711
16887W        W89955   1.273  16.688  10.715
16888W        W89956   5.437  25.108  14.896
16889W        W89957   9.258   6.433  13.895
16890W        W89958  39.604  44.955  13.020
16891W        W89959  18.053   8.248   2.936
16892W        W89960   9.016  27.467   0.430
16893W        W89961  35.499  33.487   2.287
16894W        W89962  17.474  37.756   0.363
16895W        W89963  17.249  16.167   4.570
16896W        W89964  26.529  10.695  14.479
16897W        W89965  27.488  10.754   4.568
16898W        W89966  39.809  42.910   3.703
16899W        W89967   0.371  34.433   0.191
16900W        W89968  10.996  24.376   1.299
16901W        W89969  21.648   8.387  11.943
16902W        W89970  37.163  34.527   4.443
16903W        W89971  40.506  28.462   4.226
16904W        W89972  19.212   8.290  12.514
16905W        W89973  27.059  16.240  12.062
16906W        W89974  29.617  24.607   2.762
16907W        W89975  32.894  21.459   4.078
16908W        W89976  20.761  28.129  14.008
16909W        W89977  35.921  44.820  12.874
16910W        W89978  37.557  35.888   0.771
16911W        W89979   9.051   5.168   2.858
16912W        W89980  34.004  11.278   2.766
16913W        W89981   9.680  24.440  12.610
16914W        W89982  33.904  33.018  13.374
16915W        W89983  43.735  31.427  12.617
16916W        W89984  23.731  27.477   3.144
16917W        W89985  31.534  34.661  12.147
16918W        W89986  32.477  34.075  14.025
16919W        W89987   5.865  34.146  12.823
16920W        W89988  35.978  22.747   0.261
16921W        W89989   6.491  26.269  13.435
16922W        W89990  22.216   4.184   0.466
16923W        W89991  32.773  43.484   1.823
16924W        W89992   5.880   5.215   2.924
16925W        W89993  44.092  32.508   4.502
16926W        W89994  32.532  43.893  12.875
16927W        W89995  26.468  29.462  12.358
16928W        W89996  42.916  36.189   2.763
16929W        W89997  32.773  11.043   3.996
16930W        W89998  18.972  33.000   2.266
16931W        W89999  12.552   7.299   1.375
16932W        W90000  21.602  24.682   4.408
16933W        W90001  11.763  31.898  11.777
16934W        W90002  19.805  14.229   3.604
16935W        W90003  23.230  35.628  11.012
16936W        W90004   9.911  17.383   0.802
16937W        W90005  36.052   8.386  12.186
16938W        W90006  43.075  25.877   0.861
16939W        W90007  11.698  32.524   3.843
16940W        W90008  30.718  37.648  12.007
16941W        W90009  16.270  44.248  11.467
16942W        W90010  14.843  14.065   0.747
16943W        W90011  32.936   7.278   4.836
16944W        W90012  26.585  21.973  11.158
16945W        W90013  16.065   4.454  10.312
16946W        W90014  37.119  14.661  14.029
16947W        W90015   0.999  42.663  14.723
16948W        W90016   9.074  15.058  11.909
16949W        W90017  28.677  28.372  11.943
16950W        W90018  17.586  17.282   2.807
16951W        W90019  22.804  31.902  10.721
16952W        W90020   6.762  43.017   4.713
16953W        W90021  32.151  19.352  12.901
16954W        W90022  27.628   3.879   1.739
16955W        W90023  42.088  10.406   2.142
16956W        W90024  22.303  15.763   2.897
16957W        W90025  11.245  29.673   1.417
16958W        W90026  19.124   9.146   1.120
16959W        W90027   4.306   5.718  11.185
16960W        W90028  29.934  34.296   1.364
16961W        W90029  44.398  44.289  11.495
16962W        W90030  44.722   4.458   2.730
16963W        W90031  21.510   1.767  14.830
16964W        W90032  23.676   0.533   2.298
16965W        W90033   9.523   8.140   2.444
16966W        W90034   6.669  29.601  12.604
16967W        W90035   5.711  27.711   4.328
16968W        W90036  33.651  11.246   2.068
16969W        W90037  37.350  16.186   4.337
16970W        W90038  20.746   8.063   3.728
16971W        W90039  38.505   4.807  14.779
16972W        W90040   8.720   7.991  10.543
16973W        W90041   5.679   6.852  13.501
16974W        W90042   1.921  36.972   4.874
16975W        W90043  32.050  33.887   2.023
16976W        W90044  43.272  24.197  11.984
16977W        W90045  41.569  32.145  12.147
16978W        W90046  36.052  28.843   0.005
16979W        W90047  17.033  16.245  11.060
16980W        W90048  43.348  19.374  11.935
16981W        W90049   6.315  10.297   2.704
16982W        W90050  39.602  23.171  11.104
16983W        W90051  36.463  21.770   1.431
16984W        W90052   0.046  26.945  12.890
16985W        W90053  16.744  26.498   1.370
16986W        W90054  15.561   3.438  13.975
16987W        W90055   6.684  14.654   2.619
16988W        W90056  44.444  31.838   2.554
16989W        W90057  37.958   9.728   0.560
16990W        W90058  32.304  18.688   2.342
16991W        W90059   5.405   0.805  10.401
16992W        W90060   1.392  43.977   3.135
16993W        W90061   0.512  11.873  10.627
16994W        W90062  17.529  23.232  11.846
16995W        W90063   7.807  12.597   2.829
16996W        W90064  35.911  23.161  13.830
16997W        W90065   8.859  13.675   3.145
16998W        W90066   1.868  14.827   3.694
16999W        W90067  17.685  19.407   4.602
17000W        W90068   0.758  18.175   3.590
17001W        W90069  24.817   1.699   3.548
17002W        W90070  17.344  18.188  11.997
17003W        W90071  13.476   4.081  13.895
17004W        W90072  38.949  28.087  11.469
17005W        W90073  32.891  35.963  10.320
17006W        W90074  32.893   6.174  12.643
17007W        W90075  32.382   5.939   1.940
17008W        W90076  14.676  32.595   4.338
17009W        W90077  17.127  27.267   1.030
17010W        W90078  24.011   0.893   2.451
17011W        W90079  34.388  34.802  13.565
17012W        W90080   4.449  37.514  10.575
17013W        W90081  11.871  19.541  14.507
17014W        W90082  24.215   7.648   4.625
17015W        W90083  25.479  11.394  10.187
17016W        W90084   7.400  13.220   1.690
17017W        W90085   2.810   2.008  14.075
17018W        W90086   0.818  28.660   1.975
17019W        W90087   5.591  23.719   3.241
17020W        W90088   0.035  33.916  12.988
17021W        W90089   9.598  38.105  11.926
17022W        W90090  16.167  36.569  11.881
17023W        W90091  23.566  21.124  13.265
17024W        W90092  38.404  26.816  11.592
17025W        W90093   1.067  25.059   0.811
17026W        W90094  17.769  36.253   4.100
17027W        W90095   3.935  32.504  11.101
17028W        W90096  11.834  10.086   1.313
17029W        W90097  14.644  34.163  10.937
17030W        W90098  29.507  10.253  10.962
17031W        W90099  38.697  23.884  11.104
17032W        W90100  30.395  40.072  11.511
17033W        W90101  17.298  23.992   0.962
17034W        W90102  35.721  39.086   3.893
17035W        W90103   4.386   3.062   0.289
17036W        W90104  25.233  40.822  12.559
17037W        W90105  21.087  35.669  13.626
17038W        W90106  21.478  26.748   2.273
17039W        W90107  13.150  35.196   4.039
17040W        W90108  13.851  24.481   2.738
17041W        W90109  13.166  30.499   3.421
17042W        W90110  19.935   3.262  12.274
17043W        W90111  11.770  33.909  13.471
17044W        W90112  11.831  21.466   0.913
17045W        W90113  11.272  37.065   4.375
17046W        W90114  22.399  44.359   4.689
17047W        W90115  11.981  33.608   4.203
17048W        W90116  38.445  38.737  12.015
17049W        W90117  19.776  17.737   0.012
17050W        W90118  10.388  44.303   1.494
17051W        W90119  36.581  21.070   0.466
17052W        W90120  27.804  22.030  11.548
17053W        W90121  40.045  32.334  13.700
17054W        W90122  15.522  10.194   4.694
17055W        W90123   7.246  36.385   3.802
17056W        W90124  24.502  12.026  12.072
17057W        W90125  24.915  19.211   2.746
17058W        W90126  41.489  20.461   1.770
17059W        W90127  28.793  36.757   3.411
17060W        W90128  10.749  36.056   2.221
17061W        W90129  33.608  30.606   3.182
17062W        W90130  34.387  29.382  12.888
17063W        W90131  30.825  21.503  10.823
17064W        W90132   5.394  12.422  14.216
17065W        W90133  29.962   9.529   1.793
17066W        W90134  17.218  41.273  11.513
17067W        W90135   8.109  21.026   1.820
17068W        W90136  31.239  33.685  13.455
17069W        W90137   3.338  34.088   2.147
17070W        W90138   4.691  29.416  14.388
17071W        W90139  25.000  44.357  11.597
17072W        W90140  23.751   5.759  11.878
17073W        W90141  35.958  26.105  13.875
17074W        W90142  41.413   2.080   2.225
17075W        W90143   8.284  15.686  11.550
17076W        W90144  28.998   7.291  12.075
17077W        W90145  37.311  24.127  11.200
17078W        W90146  29.516   9.171   3.431
17079W        W90147  25.254  22.069   1.817
17080W        W90148   1.272  19.590   1.212
17081W        W90149   5.038  12.204  14.564
17082W        W90150  43.593  11.673  10.216
17083W        W90151  35.405  30.079   2.490
17084W        W90152   4.065  44.015   2.808
17085W        W90153  39.273   0.674  14.357
17086W        W90154  40.785  14.405  13.869
17087W        W90155  32.193  36.345  11.617
17088W        W90156  42.700  44.439   1.411
17089W        W90157  29.789   6.318  12.330
17090W        W90158   9.379   1.308  12.671
17091W        W90159  33.641  31.386   2.719
17092W        W90160   0.790   0.738   3.352
17093W        W90161   9.446  21.958   2.371
17094W        W90162  42.331  17.260   1.411
17095W        W90163  33.267  35.769   1.638
17096W        W90164  17.624  20.615   1.704
17097W        W90165  11.800  30.220   3.154
17098W        W90166  29.940  26.671   4.283
17099W        W90167   8.867   6.146   3.722
17100W        W90168  44.928  43.589  14.379
17101W        W90169  14.153   3.699   4.494
17102W        W90170  33.815   8.127   1.249
17103W        W90171   7.864  43.879  12.491
17104W        W90172  40.373  21.217   0.734
17105W        W90173  15.683  30.369   3.807
17106W        W90174  28.483  28.051  14.483
17107W        W90175   9.068  21.418   3.259
17108W        W90176  27.938  43.607  13.509
17109W        W90177  12.679  29.175   3.364
17110W        W90178   5.258  31.756   1.743
17111W        W90179  36.994  33.903   0.847
17112W        W90180  43.516  41.795   1.280
17113W        W90181  39.057  12.952  11.472
17114W        W90182  12.748  33.494   3.749
17115W        W90183   8.889  36.913  12.140
17116W        W90184  37.991  30.518   2.854
17117W        W90185   2.815  15.099   4.385
17118W        W90186  14.285  28.431  10.863
17119W        W90187  39.897  29.365   0.775
17120W        W90188  30.686  41.385  11.199
17121W        W90189  36.937  28.484   4.525
17122W        W90190   8.806  24.700  14.980
17123W        W90191  30.412   4.035   0.038
17124W        W90192   8.944  12.544   1.202
17125W        W90193  23.559   5.627  14.227
17126W        W90194  16.979  41.713  11.626
17127W        W90195  24.641  35.171  14.355
17128W        W90196   0.342   0.917   4.934
17129W        W90197  23.067  30.660   3.707
17130W        W90198   0.971   5.275  12.939
17131W        W90199  34.553   1.227  12.376
17132W        W90200  41.293  23.565  14.901
17133W        W90201  43.854   1.737  14.586
17134W        W90202  36.802  18.819  14.498
17135W        W90203  38.317  41.815   0.387
17136W        W90204  44.489  28.445  12.557
17137W        W90205  36.278  28.711   2.693
17138W        W90206  13.781  39.763  11.379
17139W        W90207  31.838  28.047   2.147
17140W        W90208  43.473  11.341  14.229
17141W        W90209  17.228  26.026   4.466
17142W        W90210  25.482  33.007   4.586
17143W        W90211  22.483  28.615  13.841
17144W        W90212  35.069  15.622   4.044
17145W        W90213  17.114  32.016   1.965
17146W        W90214  21.151  13.279   1.198
17147W        W90215  19.230  10.583  11.254
17148W        W90216   3.293  37.619  11.721
17149W        W90217   1.660  41.072  14.526
17150W        W90218  24.634  43.549   4.601
17151W        W90219  39.537  29.132   4.139
17152W        W90220  18.254  30.656  11.753
17153W        W90221   7.724  26.631   5.065
17154W        W90222  14.457  22.022   1.659
17155W        W90223  37.608  15.375  11.390
17156W        W90224  40.730  16.390   9.835
17157W        W90225  10.649  35.425   3.303
17158W        W90226  39.773  11.361  11.392
17159W        W90227  39.991  13.748   2.355
17160W        W90228  14.511  28.536   1.481
17161W        W90229   4.161  38.343  12.344
17162W        W90230   0.897   6.028   0.361
17163W        W90231   1.068  29.109   2.805
17164W        W90232  17.590   9.074   0.922
17165W        W90233  32.709  15.524  13.404
17166W        W90234  17.735  30.465  12.971
17167W        W90235  15.348  32.183   3.743
17168W        W90236  22.762  41.954  13.020
17169W        W90237  16.557  39.434   2.738
17170W        W90238   4.127  16.056   1.619
17171W        W90239  41.545  13.775   3.322
17172W        W90240  35.639   2.228  14.060
17173W        W90241  18.191  37.849  12.029
17174W        W90242   5.620  36.580   2.199
17175W        W90243  29.199  30.454  12.370
17176W        W90244  44.296   8.884   1.668
17177W        W90245  17.064   2.241  14.790
17178W        W90246  14.763  12.337   0.289
17179W        W90247  31.877  11.855   4.092
17180W        W90248   6.417  41.902  12.973
17181W        W90249  18.016  37.036  11.980
17182W        W90250   5.402   3.754   2.159
17183W        W90251  14.546  21.259   4.347
17184W        W90252  30.586  11.797  13.795
17185W        W90253  41.639   6.957   3.867
17186W        W90254  18.737  31.979  11.193
17187W        W90255  14.567  31.621   3.342
17188W        W90256  18.824  14.207  13.302
17189W        W90257  19.303  31.127  13.405
17190W        W90258  12.920  42.229   3.943
17191W        W90259  21.149   5.644   0.287
17192W        W90260  38.124  37.236   1.252
17193W        W90261   4.975  33.098  14.223
17194W        W90262  21.980  36.796  13.304
17195W        W90263  38.458  12.079   0.232
17196W        W90264  23.600  14.877  13.040
17197W        W90265  37.794  36.615  13.465
17198W        W90266  16.886   8.364  14.903
17199W        W90267  18.300  42.401  11.541
17200W        W90268  26.021  20.782   3.069
17201W        W90269  12.612   4.732  14.948
17202W        W90270  40.813  33.463   3.893
17203W        W90271  21.795  11.780   1.745
17204W        W90272  30.372   9.253  14.826
17205W        W90273  38.025  19.232   4.310
17206W        W90274  23.056   0.625  11.487
17207W        W90275  19.880  36.545   4.513
17208W        W90276  31.467  13.276  14.929
17209W        W90277  34.402   0.536  11.593
17210W        W90278  21.145   3.099   0.954
17211W        W90279  39.021  24.648   0.263
17212W        W90280   8.851  18.550   0.012
17213W        W90281  29.250  31.215  11.891
17214W        W90282  42.494   4.641  10.519
17215W        W90283  37.428  18.499   0.359
17216W        W90284  14.254  23.326   3.330
17217W        W90285  44.795   2.698  11.587
17218W        W90286  22.485  11.658  13.774
17219W        W90287  39.073  35.897   2.295
17220W        W90288  30.874  19.301  11.118
17221W        W90289  39.655  20.004   0.503
17222W        W90290   1.211  32.548  11.134
17223W        W90291   9.785  34.934   4.159
17224W        W90292  44.967  38.618  13.950
17225W        W90293   0.488  15.136  12.826
17226W        W90294  34.689  31.452  10.301
17227W        W90295  41.570  24.569   4.697
17228W        W90296  15.097  10.753   3.165
17229W        W90297  35.512  28.060   1.429
17230W        W90298  29.477  25.684  11.351
17231W        W90299  35.062  43.973  12.619
17232W        W90300   4.892   3.617  11.654
17233W        W90301  31.097  11.805  13.940
17234W        W90302  33.413  12.216   2.238
17235W        W90303  22.057  32.034   2.565
17236W        W90304  15.331  14.707  12.487
17237W        W90305  26.024  19.800  11.119
17238W        W90306  41.539  37.848   3.682
17239W        W90307   5.351  30.158  14.514
17240W        W90308  35.518  27.010   2.809
17241W        W90309   5.769  26.154   2.414
17242W        W90310  31.928   7.328  11.410
17243W        W90311  31.454   4.892  11.779
17244W        W90312   2.922  29.773  12.634
17245W        W90313  20.699  23.441   0.549
17246W        W90314   0.878  32.403   4.746
17247W        W90315  14.569  14.772  12.990
17248W        W90316  31.881   1.895  14.419
17249W        W90317  41.785   4.265  11.038
17250W        W90318  40.927  23.293   2.391
17251W        W90319   0.486  42.484  13.987
17252W        W90320  36.728   9.691   0.006
17253W        W90321  11.614   0.059  13.232
17254W        W90322  33.969  40.022   1.855
17255W        W90323  41.066  24.009   0.075
17256W        W90324  15.722  25.109   1.905
17257W        W90325  14.920   7.573   2.261
17258W        W90326  35.120  33.910  12.908
17259W        W90327   6.687  15.590   0.654
17260W        W90328  30.956  34.340   1.059
17261W        W90329  25.035  29.930   0.455
17262W        W90330   2.230  13.138   4.132
17263W        W90331  44.352  20.429   4.556
17264W        W90332  20.746  25.522   1.945
17265W        W90333  20.804  14.859   4.055
17266W        W90334  31.147  16.590  12.319
17267W        W90335   0.887  14.554  11.159
17268W        W90336   7.544  25.409   4.196
17269W        W90337  18.268  28.972   3.859
17270W        W90338  23.064  18.235   1.246
17271W        W90339  22.541  35.134  12.961
17272W        W90340  23.239  26.532  13.308
17273W        W90341  36.378  44.049   3.798
17274W        W90342  25.052  20.111  13.161
17275W        W90343  40.331  36.149  10.709
17276W        W90344  33.181   5.252  12.552
17277W        W90345  39.413  29.670  11.039
17278W        W90346  43.915  30.974  11.341
17279W        W90347   2.893  30.221  13.543
17280W        W90348  31.329   9.023   1.468
17281W        W90349  26.047  13.867  11.250
17282W        W90350   8.011  31.423  13.418
17283W        W90351  20.993  10.262   2.711
17284W        W90352   7.651  30.563   0.787
17285W        W90353  13.293  15.771  14.756
17286W        W90354  22.557  19.319  10.785
17287W        W90355   1.444  22.191  13.564
17288W        W90356  23.305  22.053  12.860
17289W        W90357  25.371  27.637  14.471
17290W        W90358  25.952   6.984   3.891
17291W        W90359  44.587  25.975   4.241
17292W        W90360  41.029  23.013  13.915
17293W        W90361   2.457  39.834   3.662
17294W        W90362  24.197   7.640   0.912
17295W        W90363  37.149  28.843   1.443
17296W        W90364   6.812   2.791   1.375
17297W        W90365  33.554   6.825   4.904
17298W        W90366   9.083  26.869  12.978
17299W        W90367  41.879  13.531  10.733
17300W        W90368  30.018  42.340   1.309
17301W        W90369  30.101  14.533   0.378
17302W        W90370  35.337  31.885   4.631
17303W        W90371  26.056  20.087   0.269
17304W        W90372  44.432  12.992  12.369
17305W        W90373   4.931   5.643   0.516
17306W        W90374  23.674  24.107   1.712
17307W        W90375  28.087   3.977   0.693
17308W        W90376   7.789  27.116   1.337
17309W        W90377  11.857   8.371  14.253
17310W        W90378  43.807  16.648  13.453
17311W        W90379  31.516  22.697  14.245
17312W        W90380   5.311  11.363  14.304
17313W        W90381  10.877  34.349  11.177
17314W        W90382  13.200  33.909   2.719
17315W        W90383   7.946  13.366   4.231
17316W        W90384  10.609   4.668  14.905
17317W        W90385  41.009   9.909  11.664
17318W        W90386  28.715   8.475  10.643
17319W        W90387  41.851  37.575   3.368
17320W        W90388  18.568  30.421  10.670
17321W        W90389  40.429  37.526  13.922
17322W        W90390  41.962  16.278  10.293
17323W        W90391   3.495  36.381  14.804
17324W        W90392  38.652  29.014  13.027
17325W        W90393  43.106  24.844  10.279
17326W        W90394  19.343  31.571  11.590
17327W        W90395  37.966   2.665  14.158
17328W        W90396   9.773  41.547  12.936
17329W        W90397   8.271  42.046  11.898
17330W        W90398   9.186  24.615  12.551
17331W        W90399  37.050  11.376  10.982
17332W        W90400  21.042  15.046   2.395
17333W        W90401  12.940  14.754   4.126
17334W        W90402  13.891   7.333   3.603
17335W        W90403  11.500  10.291  13.967
17336W        W90404  18.238  44.048  11.217
17337W        W90405   0.774   1.918  14.078
17338W        W90406  10.648  40.325   1.064
17339W        W90407  43.046   5.970   1.372
17340W        W90408  29.574  34.109   3.228
17341W        W90409  17.272  23.233  13.964
17342W        W90410  19.538  42.579   0.208
17343W        W90411  24.770  40.392   1.137
17344W        W90412  34.999   3.276  13.122
17345W        W90413  13.725  29.547  13.079
17346W        W90414  26.230  34.324   4.111
17347W        W90415   8.527   5.780  12.907
17348W        W90416  25.274  40.979   9.872
17349W        W90417   5.924   5.449  12.010
17350W        W90418  42.329  32.030  14.236
17351W        W90419   7.776  25.665  13.015
17352W        W90420  44.083  11.684   0.267
17353W        W90421  30.182   6.704  11.109
17354W        W90422  36.044  11.891   4.061
17355W        W90423  24.527   6.721   2.406
17356W        W90424  42.054   6.077   4.282
17357W        W90425  37.927  30.363  13.265
17358W        W90426  28.001  25.474   1.262
17359W        W90427  16.571   0.670   4.408
17360W        W90428  37.931   6.945   4.908
17361W        W90429  12.583   0.217   4.219
17362W        W90430  11.067  40.839  11.880
17363W        W90431  29.537  27.441   0.299
17364W        W90432  33.969  25.113  11.664
17365W        W90433  44.411  39.401  14.233
17366W        W90434  25.647  19.790  10.739
17367W        W90435  23.063  17.199  12.948
17368W        W90436  30.732  23.546   2.615
17369W        W90437  31.336  22.975   3.686
17370W        W90438   8.367  12.763  12.600
17371W        W90439  42.148   8.491  14.751
17372W        W90440  40.286  35.353   0.663
17373W        W90441   9.708   7.804   0.003
17374W        W90442  17.116  15.592   2.324
17375W        W90443  20.049  26.387   1.294
17376W        W90444   7.003  39.025   0.785
17377W        W90445   4.769  30.680  13.355
17378W        W90446  25.216  19.139  11.117
17379W        W90447  25.474  15.878  11.411
17380W        W90448  34.005  16.045   1.767
17381W        W90449   5.313  15.278   3.754
17382W        W90450  39.414  22.329   4.029
17383W        W90451  11.887   7.685   4.387
17384W        W90452  24.552  35.444   0.875
17385W        W90453   6.661  25.194   2.705
17386W        W90454   1.130  18.854   4.027
17387W        W90455  19.551  17.829  12.053
17388W        W90456   3.227   3.421  12.422
17389W        W90457  33.138  11.208  11.709
17390W        W90458  19.791  17.093  11.568
17391W        W90459  22.640   4.552   4.899
17392W        W90460  39.961  38.767   4.519
17393W        W90461   6.254   3.311  12.479
17394W        W90462  11.588  40.064   0.285
17395W        W90463  20.317   7.888  12.051
17396W        W90464  44.745  23.015   3.635
17397W        W90465  25.626  44.829  11.186
17398W        W90466  18.080  13.667   1.692
17399W        W90467  22.097  13.766  12.568
17400W        W90468  11.729  34.341   1.697
17401W        W90469  16.427   4.811   1.668
17402W        W90470  32.866  34.982  11.880
17403W        W90471  28.776  14.293  13.671
17404W        W90472  32.640   4.805   1.418
17405W        W90473   3.478  30.977  13.488
17406W        W90474  10.863  25.080   0.229
17407W        W90475   5.689  32.345  11.549
17408W        W90476  15.578  44.384   4.982
17409W        W90477  23.445  27.561   3.624
17410W        W90478  44.820  27.295   3.739
17411W        W90479  17.181   1.456   0.907
17412W        W90480  30.995  17.786   1.749
17413W        W90481  44.263  23.882  14.853
17414W        W90482  21.650   2.373   4.199
17415W        W90483  24.525  33.950  14.779
17416W        W90484   5.669  13.274  13.480
17417W        W90485  21.254  24.654   0.947
17418W        W90486   3.972  30.014   0.867
17419W        W90487  17.325  22.313   4.659
17420W        W90488  20.954  43.914   3.699
17421W        W90489  18.103  12.550   4.763
17422W        W90490  12.515   0.271   2.097
17423W        W90491  20.556  22.373   0.824
17424W        W90492  36.963   2.345  13.788
17425W        W90493   7.766  20.627   1.738
17426W        W90494  32.779  38.602   3.323
17427W        W90495  26.331  33.406   4.608
17428W        W90496  20.244  29.438   2.593
17429W        W90497  30.804  32.155  12.078
17430W        W90498  19.798   6.402  11.626
17431W        W90499  32.554  34.061   3.205
17432W        W90500  18.302   0.649   3.651
17433W        W90501   5.720  29.984   3.155
17434W        W90502   2.007  30.217  12.097
17435W        W90503  14.802  15.254  12.114
17436W        W90504  42.298  37.111   0.852
17437W        W90505  13.310  18.787  12.456
17438W        W90506  38.646  18.828  14.209
17439W        W90507  29.007  17.804  13.834
17440W        W90508  23.248  33.589  10.949
17441W        W90509  40.259  25.465   0.804
17442W        W90510  31.531  19.280   2.808
17443W        W90511   0.726  14.165   4.546
17444W        W90512   9.608   2.966   1.354
17445W        W90513  29.131  21.284  14.839
17446W        W90514  22.664  27.340   3.241
17447W        W90515   4.897  40.749  14.840
17448W        W90516  19.532  39.633  12.855
17449W        W90517   4.464  34.585   0.806
17450W        W90518  37.720   6.154   4.989
17451W        W90519   6.889  37.816  11.646
17452W        W90520  40.822  25.614   3.610
17453W        W90521  34.397   5.522   2.708
17454W        W90522  21.806  44.906   4.025
17455W        W90523   0.549  23.514  12.126
17456W        W90524  44.965  26.797   4.590
17457W        W90525  32.202   0.894   2.371
17458W        W90526  43.071  31.890   2.712
17459W        W90527  10.868   0.245   1.439
17460W        W90528  36.343  44.435   2.332
17461W        W90529  16.882  38.079  11.507
17462W        W90530  28.918  39.392  12.078
17463W        W90531   9.751  24.109   1.072
17464W        W90532  11.640  14.130   1.338
17465W        W90533  20.053  25.575  12.054
17466W        W90534   8.928  25.495  11.004
17467W        W90535   9.202   4.246  14.351
17468W        W90536   5.520  15.359  14.199
17469W        W90537   5.223  28.059   0.403
17470W        W90538   5.663   0.964  10.811
17471W        W90539   2.781  27.457  13.802
17472W        W90540  29.454   2.277   0.418
17473W        W90541  29.374  39.569   3.980
17474W        W90542  11.846  19.915   5.019
17475W        W90543  39.970  21.125   2.263
17476W        W90544  32.364  35.297  11.022
17477W        W90545  42.502   6.245   0.477
17478W        W90546   3.709  17.078   3.664
17479W        W90547  11.577  23.226   1.692
17480W        W90548   2.168  14.748  12.452
17481W        W90549   3.284  43.032   4.129
17482W        W90550  10.065  17.262  13.893
17483W        W90551  38.612  24.446  13.819
17484W        W90552  15.924  39.322   1.657
17485W        W90553  15.335  43.613   2.411
17486W        W90554  20.820  35.047   1.650
17487W        W90555  27.603  40.328   2.735
17488W        W90556  13.090   9.204   2.820
17489W        W90557  39.002  13.674   3.211
17490W        W90558  28.477   8.418  14.349
17491W        W90559  39.383  43.250  13.325
17492W        W90560  23.704  44.766  11.409
17493W        W90561  34.145  13.874   4.188
17494W        W90562  21.093  44.572   0.616
17495W        W90563  38.435  27.112  12.056
17496W        W90564  34.853  20.956  11.094
17497W        W90565  39.987   4.369   2.608
17498W        W90566  38.553  20.902   2.309
17499W        W90567  17.243  24.065   2.723
17500W        W90568  11.907  19.351   4.453
17501W        W90569  34.478  20.735  14.895
17502W        W90570  34.015   3.930   2.400
17503W        W90571  26.662  19.032  14.402
17504W        W90572   3.950  36.213   3.717
17505W        W90573   9.503  31.613  10.713
17506W        W90574  28.085  15.621  14.074
17507W        W90575  32.647  39.076  14.533
17508W        W90576  34.370  34.547  10.738
17509W        W90577  39.922   9.145  14.128
17510W        W90578  10.834  17.677  14.008
17511W        W90579  15.630  22.550  13.967
17512W        W90580  32.589  18.309   4.598
17513W        W90581   7.152   1.350  14.390
17514W        W90582   8.762  15.295  14.838
17515W        W90583   3.370  25.983   4.690
17516W        W90584  29.145   0.750   1.723
17517W        W90585  44.995  36.856  14.471
17518W        W90586   3.916  24.714   1.546
17519W        W90587  38.145  19.571   1.492
17520W        W90588   3.665  35.792   3.775
17521W        W90589  23.650  40.731   4.701
17522W        W90590  20.886  36.462  11.639
17523W        W90591   4.086   0.285   5.111
17524W        W90592  24.658  39.266   3.677
17525W        W90593  10.018  14.793   4.655
17526W        W90594  25.946  20.378   3.452
17527W        W90595  18.631  36.572   4.351
17528W        W90596  15.805  17.191   1.533
17529W        W90597  39.999  40.895  10.514
17530W        W90598  29.403  35.940  14.149
17531W        W90599  15.583  29.072  11.541
17532W        W90600   5.481  23.599   0.664
17533W        W90601  40.361  36.362   1.877
17534W        W90602  37.371   6.283  11.084
17535W        W90603  26.688  33.405   1.750
17536W        W90604  13.822  27.008  11.669
17537W        W90605  43.835  28.277   2.445
17538W        W90606  20.826  41.488  14.190
17539W        W90607  35.932  17.001  12.991
17540W        W90608  33.528  41.351   0.163
17541W        W90609  15.793  40.863  12.196
17542W        W90610  25.202  44.563  13.453
17543W        W90611  25.290  31.839  11.183
17544W        W90612  12.668   7.047   1.816
17545W        W90613  28.426  18.661   3.749
17546W        W90614  16.863  20.503  13.932
17547W        W90615  16.060   6.403   2.779
17548W        W90616  40.301  13.128   0.348
17549W        W90617  17.316  21.070   5.017
17550W        W90618  41.911  34.833   3.490
17551W        W90619  41.660  34.987  14.112
17552W        W90620   0.032   7.844   0.449
17553W        W90621  38.313  23.229   3.729
17554W        W90622  37.577  16.126  13.114
17555W        W90623  39.403  14.578  14.569
17556W        W90624  21.500   5.930   3.282
17557W        W90625   7.752  15.431   2.565
17558W        W90626   8.050  34.135  13.947
17559W        W90627   8.775  15.380  14.324
17560W        W90628  32.541  30.152   3.622
17561W        W90629  36.349   8.930   4.746
17562W        W90630  10.190  14.063   4.251
17563W        W90631  20.919   2.237  11.020
17564W        W90632  34.914  40.171  13.983
17565W        W90633  26.658  14.170  14.930
17566W        W90634  31.588   4.369   4.510
17567W        W90635  24.071  26.409   1.846
17568W        W90636  20.519  18.171   4.705
17569W        W90637  24.724  32.075  10.631
17570W        W90638  13.816  41.569  11.596
17571W        W90639  24.062  44.631   4.985
17572W        W90640  12.496   9.110   0.420
17573W        W90641  12.337  13.055   3.772
17574W        W90642   4.823  23.827  14.447
17575W        W90643  15.784  15.525   3.593
17576W        W90644  36.963  31.722   1.769
17577W        W90645  43.762  21.616  13.881
17578W        W90646  17.351   6.206   2.165
17579W        W90647   6.805  17.612  13.839
17580W        W90648  10.289  37.923   0.529
17581W        W90649  27.071  17.298   4.377
17582W        W90650  40.820  21.019  11.577
17583W        W90651   5.669  16.094   3.190
17584W        W90652  16.477  13.540  12.146
17585W        W90653  23.492  44.040   0.068
17586W        W90654  37.014  26.243   3.373
17587W        W90655  17.249  24.654  11.978
17588W        W90656  36.169  39.767  14.289
17589W        W90657  16.346  17.207   2.402
17590W        W90658  21.630  40.785   1.695
17591W        W90659   8.115  42.834  12.467
17592W        W90660   8.259  20.669   4.067
17593W        W90661  12.416  24.047   4.504
17594W        W90662   5.811  33.496   2.839
17595W        W90663  20.540  14.919   4.488
17596W        W90664  18.076  41.227   3.544
17597W        W90665  13.573  10.870  11.504
17598W        W90666  16.241  25.499  11.171
17599W        W90667  24.014   4.976   3.079
17600W        W90668   2.418  37.389   0.320
17601W        W90669  16.397  18.307   0.920
17602W        W90670  33.852  23.673   3.331
17603W        W90671   2.237  38.078  13.055
17604W        W90672  37.016  44.720   2.796
17605W        W90673  42.568  27.113  11.527
17606W        W90674   9.144   0.026   9.948
17607W        W90675  34.029  20.676  12.086
17608W        W90676  13.386  35.678   4.065
17609W        W90677  24.143  44.450  12.611
17610W        W90678  34.016   8.431  12.704
17611W        W90679   0.138   6.366   2.810
17612W        W90680  20.635  14.430   3.839
17613W        W90681  27.628  26.645   0.502
17614W        W90682  41.441  22.867   4.610
17615W        W90683  10.637  32.743  12.873
17616W        W90684  37.411   9.261  13.107
17617W        W90685   6.612  32.001  10.981
17618W        W90686   6.254  26.368   1.413
17619W        W90687  27.052  19.650   4.263
17620W        W90688  12.107   1.311   0.844
17621W        W90689   5.389   5.226  13.066
17622W        W90690  11.705  40.567   0.218
17623W        W90691   2.302  19.039  14.761
17624W        W90692   1.050  29.121   1.856
17625W        W90693  42.409  21.720   3.818
17626W        W90694   4.749  29.342   0.882
17627W        W90695  38.558  37.988  14.900
17628W        W90696  14.091  37.058   1.527
17629W        W90697   9.670  37.175   4.080
17630W        W90698  41.316  36.521  14.925
17631W        W90699  30.661  30.416   1.415
17632W        W90700   0.541  35.648  12.546
17633W        W90701  13.173  24.539  14.814
17634W        W90702  25.152  34.064  11.542
17635W        W90703  35.529  25.140   1.759
17636W        W90704  21.203  17.491  14.720
17637W        W90705  13.667  22.721   0.969
17638W        W90706  42.946  15.315   4.746
17639W        W90707   4.394  28.182  13.120
17640W        W90708  43.267  39.962   4.917
17641W        W90709  40.125  35.010   4.944
17642W        W90710  21.420  36.520  11.655
17643W        W90711  22.761   5.387  12.459
17644W        W90712   6.416  16.270   0.478
17645W        W90713  18.757  12.611   0.484
17646W        W90714  17.021  29.980  12.537
17647W        W90715  30.443  11.100  11.639
17648W        W90716  37.555  24.503  10.552
17649W        W90717  13.790  26.705  11.254
17650W        W90718  36.995   8.349   4.771
17651W        W90719   0.881   9.738   2.246
17652W        W90720   3.818  13.492  10.793
17653W        W90721  41.217  41.788   0.049
17654W        W90722  40.503  13.208   0.833
17655W        W90723  30.557  27.584  10.768
17656W        W90724  36.453   3.087   3.131
17657W        W90725  18.737  10.290   1.706
17658W        W90726  19.334  17.680   0.928
17659W        W90727  38.106  37.934   2.744
17660W        W90728  16.365  17.790  13.458
17661W        W90729  42.527   9.627   1.344
17662W        W90730  43.928  35.862   0.827
17663W        W90731  43.980  28.858   4.640
17664W        W90732  10.964  16.911   3.815
17665W        W90733   0.746   0.717   2.338
17666W        W90734  22.227   1.162   1.000
17667W        W90735   8.731  21.106   4.982
17668W        W90736  40.989  35.886  11.199
17669W        W90737  33.344  29.038   1.429
17670W        W90738  40.483  44.415  12.074
17671W        W90739  36.129  14.168   3.758
17672W        W90740  24.574   4.028  12.437
17673W        W90741  38.262   5.325  10.955
17674W        W90742  18.711  12.825  11.321
17675W        W90743  28.809  18.212   0.543
17676W        W90744  36.672  26.149   2.664
17677W        W90745  23.557   1.171   1.275
17678W        W90746  24.208  15.622  14.920
17679W        W90747  29.920  10.732  13.962
17680W        W90748  30.343  16.096   0.185
17681W        W90749  23.308  31.573  14.458
17682W        W90750  34.434   3.773   4.639
17683W        W90751  13.961  27.564  11.652
17684W        W90752  17.131   0.831   2.620
17685W        W90753  14.750  13.160   2.127
17686W        W90754  22.211  18.520   4.680
17687W        W90755   1.934  18.530  12.520
17688W        W90756  33.718  10.351  10.730
17689W        W90757  36.452   3.183   0.099
17690W        W90758   7.878  44.275  14.458
17691W        W90759  36.857  34.542  10.822
17692W        W90760  35.999   2.975  11.594
17693W        W90761  10.328   3.918  11.083
17694W        W90762  22.207  18.578  13.892
17695W        W90763   1.187   2.446   3.320
17696W        W90764  34.883  20.285   4.113
17697W        W90765  29.634   2.937   1.288
17698W        W90766  40.541  37.035  12.424
17699W        W90767  18.369  14.467  14.394
17700W        W90768   7.915   2.543  10.835
17701W        W90769   9.213  14.137  14.240
17702W        W90770  37.810   9.216   2.707
17703W        W90771   6.829  36.162   3.230
17704W        W90772  39.082   1.677  14.439
17705W        W90773   5.792  27.614  12.444
17706W        W90774  38.528  22.782   1.073
17707W        W90775  41.295   7.708   2.188
17708W        W90776   9.712  28.063   3.437
17709W        W90777   9.262  17.158  11.902
17710W        W90778  13.624  27.970  14.971
17711W        W90779  11.235  22.614  12.599
17712W        W90780   9.627  28.048  13.864
17713W        W90781  13.288  34.138  13.891
17714W        W90782  18.817  38.610  11.760
17715W        W90783  32.005   0.674   1.947
17716W        W90784  33.668   3.201   2.586
17717W        W90785   9.340  38.018  11.072
17718W        W90786   1.704  12.151   0.302
17719W        W90787  17.149  14.612  12.012
17720W        W90788  37.986  10.331   3.700
17721W        W90789  20.410  23.180  12.045
17722W        W90790  13.101   8.796  12.202
17723W        W90791  12.629  19.170   1.820
17724W        W90792  32.338   0.513   3.178
17725W        W90793   4.966  43.087  13.894
17726W        W90794  29.513  22.154   0.774
17727W        W90795  43.955  27.611  11.716
17728W        W90796  31.503  43.308  13.880
17729W        W90797   5.375  38.003   4.120
17730W        W90798  18.302  44.182   4.164
17731W        W90799  31.902   6.453  10.956
17732W        W90800  13.508  36.609  14.411
17733W        W90801  28.076   9.244   4.933
17734W        W90802  16.310  35.650  12.191
17735W        W90803  42.268   3.979  14.854
17736W        W90804  13.779   1.675  12.083
17737W        W90805  31.658  31.055  12.159
17738W        W90806  11.632  38.681  10.708
17739W        W90807  41.879  31.560  11.410
17740W        W90808  20.180  34.038  13.563
17741W        W90809  19.544  40.573   4.096
17742W        W90810  16.043   4.751  12.624
17743W        W90811   6.183   7.318   9.896
17744W        W90812   9.190  39.970  11.179
17745W        W90813  10.178   5.466   1.831
17746W        W90814  24.957  35.994  12.887
17747W        W90815  36.009   8.495   1.849
17748W        W90816  24.220  42.461   3.186
17749W        W90817  37.396   3.757   3.542
17750W        W90818  13.693  21.556  11.571
17751W        W90819  44.489  21.001   4.750
17752W        W90820  19.277  21.581   1.394
17753W        W90821   6.496  16.005  14.593
17754W        W90822   4.430  15.306  12.606
17755W        W90823   7.813  36.403   3.848
17756W        W90824  27.509  38.323   3.324
17757W        W90825  31.602  30.355  12.382
17758W        W90826  27.230   4.016   0.405
17759W        W90827  35.425  17.719   3.339
17760W        W90828  17.325  17.062   1.537
17761W        W90829   5.940  22.189  10.386
17762W        W90830  18.542  27.261   0.957
17763W        W90831  42.383  41.401  11.657
17764W        W90832  11.153  42.089   3.145
17765W        W90833  41.524  17.276   5.049
17766W        W90834   7.652  16.525   9.892
17767W        W90835  31.458  36.766  13.841
17768W        W90836  32.608  40.351   0.492
17769W        W90837  39.091  32.406   0.082
17770W        W90838  16.776  32.686   4.218
17771W        W90839  13.077  37.288  12.104
17772W        W90840  43.727  41.536   2.895
17773W        W90841  28.555  18.425  13.854
17774W        W90842  37.375  42.940   2.011
17775W        W90843  17.636  39.560   1.219
17776W        W90844  34.346   9.425   1.859
17777W        W90845  35.314  27.149   1.750
17778W        W90846  17.511  31.509  12.913
17779W        W90847   6.312  11.746  11.558
17780W        W90848  42.399  37.898  10.907
17781W        W90849  36.119  29.333  11.096
17782W        W90850  23.473   0.498   0.588
17783W        W90851  22.466   5.263   2.679
17784W        W90852   1.174  36.900  12.968
17785W        W90853  31.158  12.668   2.662
17786W        W90854  29.952  24.223   2.886
17787W        W90855  44.944  10.451   3.706
17788W        W90856  15.814  15.104  13.984
17789W        W90857   7.779   2.446   1.949
17790W        W90858  10.907  25.118  14.320
17791W        W90859   0.153  40.682   3.642
17792W        W90860   7.190  13.708   2.430
17793W        W90861  28.727  11.443   4.021
17794W        W90862  20.231  39.474   2.695
17795W        W90863  20.015  37.016  12.051
17796W        W90864  14.248  21.131   0.778
17797W        W90865   1.184   4.897   5.015
17798W        W90866  33.313  41.798  14.284
17799W        W90867  14.960  44.523   2.254
17800W        W90868  26.090  10.792  13.658
17801W        W90869  11.132  42.185  11.382
17802W        W90870  18.740  20.461  13.381
17803W        W90871  23.518   8.935  11.609
17804W        W90872  28.640  31.405  13.361
17805W        W90873  23.812   2.976   3.729
17806W        W90874  37.812  34.436   3.702
17807W        W90875  14.997  42.629  12.150
17808W        W90876  26.939  29.199  11.523
17809W        W90877   8.445  44.981  10.666
17810W        W90878   7.265  18.337   1.157
17811W        W90879   1.049  44.540   0.951
17812W        W90880  19.428   0.245   1.978
17813W        W90881   6.336  19.548   3.644
17814W        W90882  31.757  23.602  14.562
17815W        W90883   8.943   7.969   3.780
17816W        W90884  36.129   1.308   1.745
17817W        W90885   0.746   1.808   0.833
17818W        W90886  26.727  44.757  11.978
17819W        W90887  23.618  42.151   2.334
17820W        W90888  32.379  42.997   4.168
17821W        W90889  31.845  25.464   0.334
17822W        W90890  25.985   6.746   0.216
17823W        W90891   9.134  17.232   1.216
17824W        W90892  41.952  28.734  14.858
17825W        W90893  28.005   6.273  11.507
17826W        W90894  27.678  33.603   1.733
17827W        W90895  13.661  18.787  12.048
17828W        W90896   7.239  12.038  14.316
17829W        W90897   7.323   5.307   3.146
17830W        W90898  38.078  35.225   0.754
17831W        W90899   7.390  33.345   2.305
17832W        W90900  32.078  22.783   2.816
17833W        W90901  42.481  40.981   2.762
17834W        W90902   9.971  16.120   3.838
17835W        W90903  13.085  23.069  10.401
17836W        W90904  20.776  39.855  10.662
17837W        W90905  44.826  19.205   3.338
17838W        W90906  16.028  29.988  12.517
17839W        W90907  29.908  44.383  12.507
17840W        W90908  39.303  32.987   4.623
17841W        W90909  13.194  21.681   0.737
17842W        W90910  23.899   3.903  13.349
17843W        W90911  11.236  33.467  11.104
17844W        W90912  31.714   3.638  11.555
17845W        W90913  29.637  16.994  10.681
17846W        W90914   6.249  11.571   0.883
17847W        W90915  19.499  42.934  12.578
17848W        W90916  38.049   4.870  11.076
17849W        W90917   8.900  42.822   3.589
17850W        W90918  15.662   9.144  10.765
17851W        W90919  30.763   0.781   5.071
17852W        W90920   5.297  40.089  11.573
17853W        W90921  40.784  14.183  12.559
17854W        W90922   1.493  19.770  12.595
17855W        W90923  42.883  21.296  12.988
17856W        W90924  28.844  39.608   0.910
17857W        W90925   4.405  43.332  13.914
17858W        W90926  39.870  20.670  10.677
17859W        W90927  44.762  33.910  12.047
17860W        W90928   5.686  42.622   3.776
17861W        W90929  19.732  31.955  10.816
17862W        W90930  25.520  10.343  11.006
17863W        W90931  37.982  30.579  12.436
17864W        W90932  19.546  24.629   4.575
17865W        W90933   8.809  20.589  13.362
17866W        W90934  10.850  17.414  12.141
17867W        W90935   9.930  42.609  11.516
17868W        W90936  38.917   5.229   3.183
17869W        W90937  20.219  15.783   3.188
17870W        W90938  41.842  44.784  12.875
17871W        W90939  42.949   0.019   1.353
17872W        W90940  26.479  27.937   3.762
17873W        W90941  12.738  33.483   2.754
17874W        W90942  25.088  18.540   2.007
17875W        W90943   3.986  37.989  11.343
17876W        W90944  22.298   1.909   1.621
17877W        W90945   7.262  16.818   3.217
17878W        W90946  23.172  16.542  12.555
17879W        W90947  25.762   0.839  11.255
17880W        W90948   6.223  21.620  13.447
17881W        W90949   7.101  19.686   0.494
17882W        W90950  42.936  43.328  11.473
17883W        W90951  27.529  19.325  13.696
17884W        W90952  37.962  17.489  14.838
17885W        W90953  24.034  16.926   3.238
17886W        W90954  21.807  38.669  11.094
17887W        W90955  35.858  43.439  14.791
17888W        W90956   3.278  32.595  12.801
17889W        W90957  29.158  10.339   2.351
17890W        W90958  27.008  27.172  12.506
17891W        W90959   9.079  20.511   3.416
17892W        W90960   6.917  39.443   4.524
17893W        W90961   5.391  39.962   0.757
17894W        W90962   4.987  10.604   2.359
17895W        W90963  37.853  33.270   3.207
17896W        W90964  34.761   1.969  13.963
17897W        W90965   0.879   7.881   3.080
17898W        W90966  42.730  32.880  11.427
17899W        W90967  32.881  17.340   2.335
17900W        W90968   9.932  38.024  11.533
17901W        W90969  42.394  33.417  10.596
17902W        W90970  14.610  36.985   1.425
17903W        W90971   5.333  28.645   1.580
17904W        W90972  15.048  38.425  12.415
17905W        W90973  26.201   2.131   3.729
17906W        W90974  33.145  15.857   2.398
17907W        W90975  41.460  44.736   2.632
17908W        W90976  36.446  32.532   3.462
17909W        W90977  36.940  36.983  10.956
17910W        W90978  22.629  38.476  13.321
17911W        W90979  19.997  16.293   0.403
17912W        W90980  29.429  24.861  13.664
17913W        W90981  20.757  31.269  14.412
17914W        W90982   1.634   4.322  11.891
17915W        W90983   6.469   6.007   0.486
17916W        W90984  31.460  26.916  13.924
17917W        W90985  20.044  22.044  13.952
17918W        W90986  14.866   8.878   4.680
17919W        W90987  28.067   2.549   3.794
17920W        W90988   0.490  13.699   1.842
17921W        W90989  10.094  15.830  13.056
17922W        W90990   5.966  23.496   1.722
17923W        W90991  40.806  41.260   0.824
17924W        W90992  43.736  19.150   2.192
17925W        W90993  16.740  22.760  13.289
17926W        W90994  44.044  28.539  10.352
17927W        W90995   1.881   6.294   0.548
17928W        W90996  41.884  43.500  14.876
17929W        W90997  17.633  26.890  12.444
17930W        W90998  40.424   4.188  14.447
17931W        W90999   1.965   2.740   0.973
17932W        W91000  35.169  14.808  12.964
17933W        W91001  22.500   4.478  14.263
17934W        W91002  12.856   6.230  10.545
17935W        W91003   8.651  17.036  10.521
17936W        W91004  22.975  40.171   4.984
17937W        W91005  15.046  29.060  11.563
17938W        W91006  38.224  21.539   2.269
17939W        W91007  38.583  37.365  12.357
17940W        W91008  27.227  44.359   3.896
17941W        W91009   7.348  38.527   2.582
17942W        W91010  38.553  11.125   0.272
17943W        W91011  19.896  17.225   0.341
17944W        W91012  22.045  17.324   0.784
17945W        W91013  33.227  43.768  12.959
17946W        W91014  10.379  40.951   0.501
17947W        W91015  14.377   1.362  12.404
17948W        W91016  43.283  35.607  13.777
17949W        W91017  18.690  32.165  12.035
17950W        W91018   2.773  30.096   2.300
17951W        W91019  13.470   5.651   1.683
17952W        W91020  38.500  29.768   2.295
17953W        W91021  11.146  29.613  12.552
17954W        W91022  16.816  11.355   1.906
17955W        W91023  33.029  36.090   4.218
17956W        W91024   1.691  15.700  12.467
17957W        W91025   4.312  42.150   3.894
17958W        W91026   0.278  30.510   3.628
17959W        W91027   4.234  35.119  11.067
17960W        W91028   4.989  17.272   3.106
17961W        W91029  18.263  13.205   0.518
17962W        W91030  29.538   9.585  11.853
17963W        W91031   9.956  25.131   4.375
17964W        W91032  12.915  26.423   5.163
17965W        W91033  11.287  36.619   4.071
17966W        W91034   9.849   5.808   4.526
17967W        W91035  19.814  29.286  13.394
17968W        W91036  22.804   9.403  13.480
17969W        W91037   6.091  16.233  11.614
17970W        W91038  23.955  32.965  10.881
17971W        W91039  10.090   8.755   4.078
17972W        W91040  40.495  35.406  11.606
17973W        W91041  14.790  17.546   4.519
17974W        W91042   3.274  11.227  12.159
17975W        W91043   4.816   8.105  14.072
17976W        W91044  28.196  39.878  11.682
17977W        W91045  14.637  30.163  13.775
17978W        W91046  13.844  25.018   1.959
17979W        W91047   4.298  42.417   4.322
17980W        W91048  40.757   5.193  13.080
17981W        W91049  35.370  22.956  11.593
17982W        W91050  36.550  36.427  11.791
17983W        W91051  16.405  21.312   0.338
17984W        W91052  33.010  39.297   2.729
17985W        W91053  19.997  43.285   5.471
17986W        W91054   7.686  33.700  11.597
17987W        W91055  12.074  29.513   2.104
17988W        W91056  26.023   0.494  11.546
17989W        W91057  22.729  31.414   3.056
17990W        W91058  34.191  21.404   0.867
17991W        W91059  24.753  16.062   2.667
17992W        W91060  42.956  40.876   2.573
17993W        W91061  42.785  25.024   3.193
17994W        W91062   0.717  19.242   0.781
17995W        W91063  20.677  42.760   2.093
17996W        W91064  12.262  18.150  11.513
17997W        W91065   9.881   2.782   3.589
17998W        W91066  26.194  23.713  13.158
17999W        W91067   8.704  14.251  12.512
18000W        W91068  35.303  17.650   1.906
18001W        W91069  16.859   7.223  10.299
18002W        W91070  36.673  10.167  10.807
18003W        W91071  19.203  43.781   0.488
18004W        W91072  29.102  34.309   2.626
18005W        W91073   9.571  39.801   3.761
18006W        W91074   8.214  31.010   2.122
18007W        W91075  41.918  29.184  10.668
18008W        W91076  10.258  18.909   4.982
18009W        W91077  32.136   6.185  14.815
18010W        W91078   3.581   6.912   1.768
18011W        W91079  13.771  16.137  11.924
18012W        W91080  18.214   8.444   1.202
18013W        W91081  29.965  26.548   3.263
18014W        W91082  26.645  36.058   4.244
18015W        W91083  31.096   6.276  11.197
18016W        W91084  20.732  10.567   3.458
18017W        W91085  42.907  27.018  12.448
18018W        W91086  24.033  26.266   3.844
18019W        W91087  20.082  19.637   3.710
18020W        W91088   9.224  39.202   2.173
18021W        W91089   4.904  16.693   4.724
18022W        W91090  18.392   4.910   3.358
18023W        W91091  38.699  37.158  12.798
18024W        W91092  18.217   4.377  11.728
18025W        W91093  21.593  20.602  11.975
18026W        W91094   4.832  42.443   2.246
18027W        W91095  33.080  18.575  12.584
18028W        W91096  30.020   6.274   0.341
18029W        W91097   5.710  15.184  11.782
18030W        W91098   1.139   8.329  12.107
18031W        W91099  31.689  11.712  10.525
18032W        W91100  44.445  41.837  10.844
18033W        W91101   1.347   7.697  13.875
18034W        W91102  16.713   1.835  14.503
18035W        W91103   1.257  18.738  14.568
18036W        W91104  37.927  42.138  14.705
18037W        W91105  41.702   7.148  12.458
18038W        W91106  14.585  19.272  14.493
18039W        W91107   2.586  15.650   0.871
18040W        W91108  28.555   1.252   2.774
18041W        W91109  44.323  34.340  11.209
18042W        W91110   0.749  38.080  14.871
18043W        W91111  25.843  33.623  12.890
18044W        W91112  32.680  29.147   3.948
18045W        W91113  12.375  23.088   1.285
18046W        W91114  13.823   0.293  12.951
18047W        W91115  44.427  39.812  12.446
18048W        W91116  30.554  30.112  11.732
18049W        W91117  35.474  11.814   0.691
18050W        W91118  36.243  17.243  10.813
18051W        W91119  11.583   5.987  11.117
18052W        W91120  28.617  25.978   4.531
18053W        W91121  27.524   0.747   2.801
18054W        W91122  34.950  19.665  13.765
18055W        W91123  38.489  34.348   1.660
18056W        W91124  42.756  17.161   4.638
18057W        W91125  33.378  29.972   9.938
18058W        W91126  10.360  44.229   0.451
18059W        W91127  18.210  22.678  14.973
18060W        W91128  41.466  20.218  12.511
18061W        W91129   8.113  16.877  14.536
18062W        W91130  32.037  13.564  10.715
18063W        W91131  42.406  38.779   1.253
18064W        W91132   5.831  29.639  13.718
18065W        W91133  18.979  36.390  11.485
18066W        W91134   9.499  22.975   2.396
18067W        W91135  22.002  26.092   3.233
18068W        W91136  17.017  22.032   1.244
18069W        W91137  20.402  38.055  12.521
18070W        W91138  30.924  16.160  14.361
18071W        W91139  18.998  32.418   2.952
18072W        W91140   1.714  27.816  13.052
18073W        W91141  41.239   9.589  12.447
18074W        W91142  35.947   1.953  10.537
18075W        W91143  26.030  25.959  10.705
18076W        W91144  33.953  18.047   4.310
18077W        W91145  43.500  28.434   4.322
18078W        W91146  26.522  21.186  12.090
18079W        W91147  11.819   2.331  11.199
18080W        W91148  19.524   2.244   4.262
18081W        W91149  24.094  30.546  10.755
18082W        W91150  27.175  15.697  12.746
18083W        W91151  41.954   6.786   2.665
18084W        W91152  23.729  20.186  14.283
18085W        W91153  12.618  36.977  11.836
18086W        W91154   7.819  20.128  11.995
18087W        W91155  27.072  40.944   0.537
18088W        W91156  22.314  34.523   0.117
18089W        W91157  16.803  22.004  11.546
18090W        W91158  33.417   1.481  10.279
18091W        W91159  11.012  43.701   0.200
18092W        W91160  40.290  32.351   4.315
18093W        W91161  26.764  17.539  13.399
18094W        W91162   2.986  27.789  12.869
18095W        W91163  11.128   4.804   4.307
18096W        W91164  26.913  29.006   1.282
18097W        W91165  24.481  24.265   2.745
18098W        W91166  10.334  44.871   0.987
18099W        W91167  17.762  14.415  12.398
18100W        W91168  44.252  10.955   3.746
18101W        W91169  32.475  33.201  14.867
18102W        W91170  17.321  27.539   3.628
18103W        W91171  39.624  43.087  14.690
18104W        W91172  32.462  23.759   5.051
18105W        W91173   1.174  40.877  11.516
18106W        W91174  21.031  44.305  14.772
18107W        W91175   4.916   1.010  12.004
18108W        W91176  24.041  13.863  13.979
18109W        W91177  32.262  44.232  10.173
18110W        W91178   1.468  12.603  10.983
18111W        W91179  17.208   3.449  10.075
18112W        W91180  38.846  24.007  13.425
18113W        W91181  25.987   7.137   3.413
18114W        W91182  34.887  32.637   1.926
18115W        W91183   5.410   0.917  11.282
18116W        W91184  27.354  38.283  11.982
18117W        W91185  25.044  11.703  12.882
18118W        W91186  27.662  20.971  10.669
18119W        W91187   9.959  20.113   3.229
18120W        W91188  35.945  38.939   1.800
18121W        W91189   1.256  19.500   2.234
18122W        W91190  23.117  25.171   3.352
18123W        W91191  11.584  35.511  12.957
18124W        W91192  36.969   9.128   1.233
18125W        W91193   9.269  41.267  14.272
18126W        W91194  22.548  20.357  10.586
18127W        W91195   5.448  38.503  12.045
18128W        W91196  18.619  20.661  14.906
18129W        W91197  44.026  20.668  12.868
18130W        W91198  35.604  24.508  10.781
18131W        W91199  25.691  34.156  11.698
18132W        W91200  29.507  17.212  11.119
18133W        W91201  31.893  26.973   0.058
18134W        W91202   3.971   3.770  10.716
18135W        W91203  22.251  31.407   0.447
18136W        W91204  44.297  27.911  14.917
18137W        W91205   7.453  25.539   1.434
18138W        W91206  10.349  26.538  11.449
18139W        W91207  17.824   0.899   2.114
18140W        W91208  33.062   8.234  11.394
18141W        W91209  10.154   0.450  13.072
18142W        W91210  32.559  19.221   2.720
18143W        W91211  10.261  22.954   2.813
18144W        W91212  30.186  38.325   2.365
18145W        W91213  37.354  28.130  11.874
18146W        W91214   5.649  29.376  11.171
18147W        W91215  36.874  38.551   4.156
18148W        W91216  40.474  19.749  14.365
18149W        W91217  15.606   6.198   4.016
18150W        W91218  16.364   5.841  13.516
18151W        W91219  25.447  15.309  14.465
18152W        W91220  37.400  40.042  14.039
18153W        W91221  14.548  35.518  12.864
18154W        W91222  34.355  26.157  13.014
18155W        W91223  16.429   2.591   0.944
18156W        W91224  15.551  14.242  12.425
18157W        W91225   2.430   9.050  11.738
18158W        W91226  19.333   2.974  14.834
18159W        W91227  34.942   9.633   4.515
18160W        W91228  30.431   3.717   2.379
18161W        W91229  25.468  11.959  13.017
18162W        W91230  38.081  27.047   0.227
18163W        W91231  37.831  29.141   5.091
18164W        W91232  43.392   7.736   3.538
18165W        W91233  42.508   7.491   2.678
18166W        W91234  15.264   1.078  12.928
18167W        W91235  28.494  42.813   1.633
18168W        W91236  25.423  40.834   4.978
18169W        W91237  42.763   7.024  11.606
18170W        W91238  19.282  41.464  13.467
18171W        W91239  20.875  14.583   2.700
18172W        W91240  20.786  44.298  10.630
18173W        W91241  25.830  42.293  14.884
18174W        W91242  29.031  10.231   0.359
18175W        W91243  31.151  39.458   2.286
18176W        W91244  21.618  10.152   1.244
18177W        W91245  30.538  27.465   4.114
18178W        W91246   7.023  44.709  10.275
18179W        W91247  15.509  42.489  14.797
18180W        W91248   0.759   3.978  10.655
18181W        W91249   5.176  23.526   2.053
18182W        W91250  10.748  39.280   4.122
18183W        W91251  23.858  22.313  13.429
18184W        W91252   4.391  18.543  14.518
18185W        W91253   6.590  27.997  13.390
18186W        W91254  36.452  41.320   1.784
18187W        W91255  42.785  33.395  13.160
18188W        W91256  43.509   6.354  10.792
18189W        W91257  26.910  37.989  11.642
18190W        W91258  37.791  28.524   2.434
18191W        W91259  37.406   1.795   3.733
18192W        W91260  29.156  31.739  12.529
18193W        W91261  30.916  33.606   2.801
18194W        W91262  30.925  23.792   1.238
18195W        W91263  21.812  12.154  13.533
18196W        W91264  28.693  38.242   2.735
18197W        W91265  21.807  11.364  11.629
18198W        W91266   3.271   2.502   3.007
18199W        W91267  33.559   5.911   1.458
18200W        W91268   0.269  25.419   1.845
18201W        W91269  11.229  31.913   4.528
18202W        W91270  39.404  34.759  14.530
18203W        W91271  42.392   3.396  13.647
18204W        W91272  16.681  29.090   2.834
18205W        W91273  25.000  28.511   4.715
18206W        W91274  27.032  28.179  13.336
18207W        W91275   2.990  10.458  14.574
18208W        W91276  16.098  10.886   1.838
18209W        W91277  15.388  25.643   4.652
18210W        W91278  35.971  41.485   4.249
18211W        W91279  20.579  14.114   1.427
18212W        W91280  39.456   8.972  13.310
18213W        W91281  28.683  40.626  11.567
18214W        W91282  37.870   1.226  10.192
18215W        W91283  36.451  15.243   5.085
18216W        W91284  40.101   8.199  13.831
18217W        W91285   6.375   4.228  10.970
18218W        W91286  44.969  44.510   1.767
18219W        W91287  16.298   8.441  12.346
18220W        W91288   4.411  16.014   4.144
18221W        W91289  28.879  29.735  10.731
18222W        W91290  40.336   3.977   3.372
18223W        W91291  13.699  34.313  13.387
18224W        W91292  11.159  38.441  11.537
18225W        W91293  42.471  38.275  14.352
18226W        W91294   6.713  13.093  14.987
18227W        W91295  24.725  10.090   1.475
18228W        W91296   9.384  39.418  10.616
18229W        W91297  36.921  23.727   0.060
18230W        W91298  31.174  13.655  10.993
18231W        W91299   3.726  13.385   1.015
18232W        W91300  21.782  37.493   3.631
18233W        W91301  14.301  41.223  13.997
18234W        W91302  26.962   4.222  14.837
18235W        W91303  32.021  18.574  13.816
18236W        W91304   3.273   2.102   3.383
18237W        W91305  31.107   1.157   0.244
18238W        W91306  19.144   9.891  14.683
18239W        W91307  22.777  40.832  11.522
18240W        W91308  34.551  36.494   2.887
18241W        W91309   2.914  22.510  12.403
18242W        W91310  43.985  22.022   3.412
18243W        W91311  36.069  25.035  14.278
18244W        W91312   4.242  20.876  10.303
18245W        W91313  28.944  15.310   1.396
18246W        W91314  38.808  23.970   4.966
18247W        W91315  13.630  18.688   3.615
18248W        W91316   5.161  24.977   0.357
18249W        W91317  35.577   7.482  10.651
18250W        W91318  35.308  10.767  14.563
18251W        W91319  14.908  26.854   1.139
18252W        W91320  18.184  16.177   0.884
18253W        W91321   0.542   8.722   0.507
18254W        W91322  15.025  28.844  10.724
18255W        W91323   2.846  38.774  12.396
18256W        W91324  23.421  42.260   4.103
18257W        W91325  21.226  15.733   3.625
18258W        W91326  37.396  21.614   2.664
18259W        W91327   8.162  13.183  10.839
18260W        W91328  27.725  21.608  13.842
18261W        W91329  11.573   8.425  12.494
18262W        W91330  14.839  12.928  13.455
18263W        W91331  15.211  22.217   2.405
18264W        W91332  16.848   6.283   0.537
18265W        W91333  43.925  43.367   4.793
18266W        W91334  13.061  34.870   3.648
18267W        W91335  34.394  33.519  14.807
18268W        W91336  36.421  22.368  11.107
18269W        W91337  41.800  10.138  14.382
18270W        W91338  33.280  31.379   3.667
18271W        W91339  41.425  44.819   3.161
18272W        W91340  31.952  13.550   5.110
18273W        W91341   8.814  27.257   1.358
18274W        W91342  41.370   4.948   4.762
18275W        W91343  16.226   7.637   4.165
18276W        W91344  26.427  39.217   4.971
18277W        W91345  15.570  37.444  11.528
18278W        W91346   5.408  23.968   1.017
18279W        W91347  38.432   3.774   2.749
18280W        W91348   3.248  11.634  14.564
18281W        W91349  37.991  15.137  10.623
18282W        W91350   0.510  30.544   3.151
18283W        W91351  39.985   2.559  13.468
18284W        W91352  18.737  44.631   0.490
18285W        W91353   8.950   4.392  14.911
18286W        W91354   5.676  19.623  14.454
18287W        W91355  19.478  38.416   3.184
18288W        W91356  33.377  25.994   1.888
18289W        W91357  43.715  15.912  14.702
18290W        W91358  28.144  14.663   4.842
18291W        W91359  16.727  42.143  14.522
18292W        W91360  27.820  11.181   2.624
18293W        W91361  40.781   2.521  11.625
18294W        W91362  10.273  20.226   1.814
18295W        W91363  15.341   3.814  13.081
18296W        W91364  42.751  38.525   0.910
18297W        W91365  20.859  12.577  13.135
18298W        W91366   0.986  41.285   2.308
18299W        W91367   1.756  29.331  10.648
18300W        W91368  14.582  30.123   1.247
18301W        W91369  36.862   6.688  10.739
18302W        W91370  10.228   2.753  12.511
18303W        W91371  22.269   9.480  14.974
18304W        W91372  42.861  21.926   0.266
18305W        W91373  39.582   7.879  14.925
18306W        W91374   2.864  10.195  12.954
18307W        W91375  23.085  20.500   0.332
18308W        W91376  24.001  20.238  13.828
18309W        W91377   8.964  37.289  13.841
18310W        W91378  43.213  31.866   3.714
18311W        W91379  25.612  27.221   1.261
18312W        W91380  36.969   1.565   3.011
18313W        W91381  37.772  40.431   0.205
18314W        W91382  42.412  38.346   2.254
18315W        W91383  28.063  35.520   0.442
18316W        W91384  29.511   6.761  11.604
18317W        W91385  12.951  40.465  12.386
18318W        W91386  27.190   4.870   0.157
18319W        W91387   2.550   1.588  11.894
18320W        W91388   3.391  34.720  11.419
18321W        W91389  30.493  24.357   0.461
18322W        W91390  22.589  34.901   0.382
18323W        W91391  16.901  38.499   4.563
18324W        W91392  14.005  16.356  11.531
18325W        W91393  38.888  32.892  13.500
18326W        W91394  40.539  12.492  13.142
18327W        W91395  32.020  26.486  13.371
18328W        W91396  28.210  25.680   3.777
18329W        W91397  33.999  24.500   1.323
18330W        W91398   6.127  44.832   3.737
18331W        W91399  27.186  25.088   3.236
18332W        W91400  42.383  28.056   4.805
18333W        W91401  18.000  14.531   3.668
18334W        W91402  15.909  32.890   1.424
18335W        W91403  14.558   8.470   1.855
18336W        W91404  25.562  18.986   4.638
18337W        W91405  25.150  39.053   3.694
18338W        W91406  39.614   2.906   4.887
18339W        W91407   0.817   9.143   3.646
18340W        W91408  20.140  16.531   1.809
18341W        W91409  42.818  15.645  10.662
18342W        W91410  43.779  25.059   4.628
18343W        W91411  35.808  39.536   4.250
18344W        W91412  19.270  41.466  14.764
18345W        W91413  17.393   9.147  14.453
18346W        W91414   1.779  36.620   0.699
18347W        W91415  35.069   9.826  14.319
18348W        W91416  15.509  43.279   3.305
18349W        W91417  18.184  38.279   4.672
18350W        W91418  32.986  17.322   3.255
18351W        W91419  25.101  10.600   3.087
18352W        W91420   7.335  44.674   0.401
18353W        W91421  17.701   5.433   2.893
18354W        W91422  28.835  36.399   0.277
18355W        W91423  37.074   4.434  14.293
18356W        W91424   0.680  30.100   4.271
18357W        W91425  22.149  43.983  11.567
18358W        W91426  14.361  28.122   4.691
18359W        W91427  28.944   7.825  12.082
18360W        W91428   2.594  30.720  14.287
18361W        W91429  12.021  43.460  10.616
18362W        W91430  39.734  36.590   0.989
18363W        W91431  37.843  38.515   3.729
18364W        W91432  35.015   8.731  14.888
18365W        W91433   1.243  16.233   1.628
18366W        W91434  20.189  17.055  13.956
18367W        W91435   6.277   2.387  10.872
18368W        W91436  37.328  17.171  11.594
18369W        W91437  26.018   6.526   1.589
18370W        W91438   3.207  19.202   3.328
18371W        W91439  33.261  38.447   3.203
18372W        W91440  15.573  43.639  11.457
18373W        W91441  34.399   1.485   2.344
18374W        W91442  26.580   4.256   3.208
18375W        W91443   8.300  23.412   3.150
18376W        W91444  35.161   4.205  13.922
18377W        W91445  32.893  43.185   2.269
18378W        W91446   7.363  15.266  12.308
18379W        W91447  19.906   1.926   4.103
18380W        W91448  13.200  36.108   0.118
18381W        W91449  42.497  41.632   2.336
18382W        W91450  10.245  33.343  10.808
18383W        W91451  39.325  17.589   0.902
18384W        W91452  24.448  19.430   2.782
18385W        W91453   4.258  33.940   4.309
18386W        W91454  21.084  12.129   3.850
18387W        W91455  37.519  44.395  12.126
18388W        W91456   0.317  35.487  14.216
18389W        W91457   8.776   5.594   1.651
18390W        W91458  25.035  14.016  11.110
18391W        W91459  17.562  28.464  14.717
18392W        W91460  23.094  27.043  13.347
18393W        W91461  13.351  20.040  14.323
18394W        W91462  29.187  32.119  12.893
18395W        W91463  37.016  30.464   2.845
18396W        W91464   4.232  39.296   4.067
18397W        W91465  26.429  21.362   4.115
18398W        W91466   8.323   7.894  13.400
18399W        W91467  42.126  43.483  13.488
18400W        W91468  41.194  39.941  13.093
18401W        W91469  14.076  14.734   2.914
18402W        W91470  34.691  26.997  12.359
18403W        W91471  19.198  18.402  11.285
18404W        W91472  24.671  30.952  11.063
18405W        W91473  23.704  33.528  13.046
18406W        W91474  40.371  29.505   3.312
18407W        W91475  34.044  32.196   3.629
18408W        W91476  10.840  26.454   0.375
18409W        W91477   9.900  42.881   3.194
18410W        W91478  30.254  20.104   3.802
18411W        W91479   8.473  24.185  14.276
18412W        W91480  25.629  23.192  12.080
18413W        W91481  15.142  37.343  10.530
18414W        W91482  26.893   1.781  14.831
18415W        W91483   0.986  22.729   4.735
18416W        W91484  43.919  40.726   4.063
18417W        W91485   0.003  17.725   1.208
18418W        W91486  10.226  11.611  14.905
18419W        W91487  38.820  14.553   1.231
18420W        W91488  14.542  38.504  12.506
18421W        W91489  28.014  13.916  11.969
18422W        W91490  42.811   4.330   2.925
18423W        W91491  32.582  22.334  14.902
18424W        W91492   2.491  28.910  12.667
18425W        W91493   2.531  36.444  14.166
18426W        W91494   4.373   4.494   2.629
18427W        W91495  13.795  13.270  12.138
18428W        W91496  15.080  35.055  12.037
18429W        W91497   9.413  31.525   1.858
18430W        W91498   4.128  12.436  11.272
18431W        W91499  13.560  40.919  14.418
18432W        W91500  10.725  13.189  12.386
18433W        W91501  22.815  30.655   4.164
18434W        W91502  37.110  33.095  12.613
18435W        W91503  43.730   6.206  12.489
18436W        W91504  10.727  32.865   3.222
18437W        W91505  41.764  29.087  12.120
18438W        W91506  38.921  21.525  13.860
18439W        W91507  40.303  13.871  14.858
18440W        W91508   6.911   6.914   1.405
18441W        W91509  18.323  44.377  12.516
18442W        W91510  37.498  29.372   0.733
18443W        W91511   0.757  14.158  13.021
18444W        W91512   3.864  26.900  10.706
18445W        W91513  41.479  12.703  14.704
18446W        W91514  14.333  29.241  14.843
18447W        W91515  44.290  33.777   1.074
18448W        W91516  17.639   5.216  14.906
18449W        W91517  34.580  41.816   2.852
18450W        W91518  26.143  12.045  14.525
18451W        W91519  10.875  24.434  11.958
18452W        W91520   2.700   5.933  12.381
18453W        W91521  41.352  24.251  11.541
18454W        W91522  32.176  27.846  12.112
18455W        W91523  32.664   6.381  14.508
18456W        W91524   6.734   5.848  12.145
18457W        W91525  31.800  29.215   2.825
18458W        W91526  18.243  20.854   1.948
18459W        W91527  37.387  39.740  12.570
18460W        W91528  13.072  21.641   1.753
18461W        W91529  17.761  34.064  11.693
18462W        W91530  42.953  40.973   3.073
18463W        W91531  40.455  37.267  14.372
18464W        W91532  43.305  25.645   2.175
18465W        W91533  16.223  43.197   1.808
18466W        W91534  44.441   4.524  11.609
18467W        W91535  11.470  11.453   1.943
18468W        W91536  33.499  12.626  14.493
18469W        W91537  31.531  38.157   1.433
18470W        W91538  14.588   2.441   3.856
18471W        W91539  23.909   1.914   0.903
18472W        W91540  18.687  10.148   2.204
18473W        W91541  34.888   6.174   1.370
18474W        W91542  14.214   3.189   1.933
18475W        W91543  31.483  33.164   3.581
18476W        W91544  32.054  22.176  12.678
18477W        W91545  20.497  42.857  14.289
18478W        W91546  34.202  14.675   3.566
18479W        W91547  27.666  23.052   2.947
18480W        W91548  41.303  19.557   3.366
18481W        W91549  40.451  41.099  14.859
18482W        W91550  34.974  32.592  10.707
18483W        W91551  10.571  35.574   0.787
18484W        W91552  28.554   2.370   1.444
18485W        W91553  28.427   0.748  12.423
18486W        W91554  21.556  35.264   1.832
18487W        W91555   0.844  34.468   4.288
18488W        W91556  19.502  37.560  13.563
18489W        W91557   8.732  15.174   3.791
18490W        W91558  28.171  40.530   4.077
18491W        W91559  18.556  39.508  10.872
18492W        W91560  41.866   2.278  14.116
18493W        W91561   2.155  19.548   4.552
18494W        W91562  43.956  23.606  11.825
18495W        W91563  11.642   3.118   1.321
18496W        W91564   6.760  26.374  14.878
18497W        W91565  29.633  13.185  12.341
18498W        W91566  35.314  32.583   3.967
18499W        W91567  29.887  17.091  11.438
18500W        W91568   6.661  19.265   1.870
18501W        W91569  13.733  36.991  13.998
18502W        W91570  16.383  33.416   4.327
18503W        W91571  27.764  35.556  10.370
18504W        W91572  38.101   8.526   3.185
18505W        W91573  37.064   9.721  13.101
18506W        W91574  28.509  20.951   0.661
18507W        W91575  17.678  36.064  10.643
18508W        W91576   5.494   8.496  11.465
18509W        W91577   6.303  41.855   0.425
18510W        W91578  36.805   9.276   3.628
18511W        W91579  43.959  21.566  12.838
18512W        W91580  12.108  27.193  12.973
18513W        W91581   0.493   9.885  10.905
18514W        W91582  14.571  37.231  10.413
18515W        W91583   7.442  34.178   2.923
18516W        W91584  22.236  19.168   3.494
18517W        W91585  18.605  35.427  10.578
18518W        W91586  24.281  40.432   1.344
18519W        W91587  12.211  39.127  13.084
18520W        W91588   5.387  12.423   3.726
18521W        W91589   0.036   9.639  14.384
18522W        W91590   1.407  26.437   0.880
18523W        W91591  43.302  43.357  12.977
18524W        W91592  23.775  19.711  12.594
18525W        W91593  12.715   4.670   0.919
18526W        W91594  44.987  13.733   2.883
18527W        W91595  44.725   8.337   0.511
18528W        W91596  28.148  35.601   0.971
18529W        W91597  25.665  15.887   2.328
18530W        W91598   0.836  42.484   2.725
18531W        W91599  31.066  31.431  10.652
18532W        W91600  16.163  43.241  12.885
18533W        W91601  29.874  28.625   3.027
18534W        W91602  10.610  24.180   1.029
18535W        W91603   1.443  14.622   4.552
18536W        W91604  27.866  32.027  12.539
18537W        W91605  11.680  15.899  10.645
18538W        W91606  32.112   2.989   3.560
18539W        W91607  27.947  12.906  12.007
18540W        W91608  32.636  16.826   1.450
18541W        W91609  21.441  13.820  10.688
18542W        W91610  22.501  19.159  12.195
18543W        W91611  43.556  24.138  10.681
18544W        W91612  40.831  38.449  11.188
18545W        W91613  37.985   9.630  11.536
18546W        W91614  22.441  40.154  14.472
18547W        W91615  17.812  27.618  12.229
18548W        W91616  30.278   8.347   2.715
18549W        W91617  42.273   7.817  11.649
18550W        W91618  14.808  40.977  11.149
18551W        W91619  28.164  15.283   1.959
18552W        W91620   6.255  37.064   1.149
18553W        W91621  16.834   3.998   1.668
18554W        W91622   3.211  15.512   2.761
18555W        W91623   9.780   2.740  13.307
18556W        W91624  43.514  10.609  13.937
18557W        W91625  43.836  40.129   1.533
18558W        W91626   4.338  43.275   3.696
18559W        W91627  17.080  37.602  11.575
18560W        W91628  34.109  33.477   0.339
18561W        W91629  43.383  29.830   0.721
18562W        W91630  33.722  10.766  12.626
18563W        W91631  24.773  24.285  12.989
18564W        W91632   2.239  18.770   3.228
18565W        W91633  13.453  17.973  10.357
18566W        W91634   5.048  42.585   3.274
18567W        W91635  12.895  24.943   1.710
18568W        W91636   6.803   6.400   3.625
18569W        W91637   4.203  15.213   1.918
18570W        W91638  12.190  25.962  11.057
18571W        W91639   6.068   8.920   0.242
18572W        W91640  27.507   6.209  11.616
18573W        W91641  25.182  11.247  10.603
18574W        W91642  32.424  13.336  12.917
18575W        W91643  12.102   5.364  12.553
18576W        W91644  35.820  28.740   2.900
18577W        W91645  43.991  40.266  14.407
18578W        W91646  18.437   5.887   3.206
18579W        W91647  33.893  24.869   0.744
18580W        W91648  32.619  20.464   1.569
18581W        W91649   0.590  14.192   4.027
18582W        W91650  44.448  33.401  12.611
18583W        W91651   4.359  19.028   2.638
18584W        W91652  37.944  19.488  14.832
18585W        W91653  36.394   7.222   0.264
18586W        W91654  11.866  29.526   1.561
18587W        W91655  38.943  17.806   4.782
18588W        W91656   7.435   6.289  14.250
18589W        W91657  19.049  32.805   0.434
18590W        W91658  29.833  17.547   4.567
18591W        W91659  11.172  43.789   2.320
18592W        W91660  42.999   1.422  12.110
18593W        W91661   7.407  42.237   4.628
18594W        W91662   1.861  38.438   1.839
18595W        W91663  24.744   0.824  11.590
18596W        W91664  26.289  43.086  13.282
18597W        W91665  21.502  12.177   0.928
18598W        W91666  35.302  43.527  12.523
18599W        W91667  24.610  34.645  12.025
18600W        W91668   9.834  25.065  11.251
18601W        W91669  40.002  36.905   2.199
18602W        W91670  39.552  30.647   3.591
18603W        W91671  30.213  27.725  14.310
18604W        W91672   3.192  26.020  14.476
18605W        W91673  26.090  12.959  14.971
18606W        W91674  12.376  19.198  13.004
18607W        W91675  13.221  28.995   0.769
18608W        W91676  15.601  21.756  12.809
18609W        W91677  40.193  20.106   4.958
18610W        W91678  13.697  32.961  13.557
18611W        W91679   8.917  23.710  13.497
18612W        W91680  32.425  23.550  10.695
18613W        W91681  26.625  16.798  14.836
18614W        W91682  33.949  13.406   4.175
18615W        W91683   2.924  34.650   1.417
18616W        W91684  32.077  44.810  11.822
18617W        W91685  10.721  12.245  10.360
18618W        W91686  14.547  31.642  12.501
18619W        W91687  39.288  44.770  11.495
18620W        W91688  31.063  10.258  12.249
18621W        W91689  20.603  42.079  10.700
18622W        W91690   2.898   1.937  11.675
18623W        W91691  29.398   2.278   3.350
18624W        W91692  20.677  38.132  10.730
18625W        W91693  31.639  42.082  13.334
18626W        W91694  11.022  19.748   2.059
18627W        W91695  26.792   8.356  10.612
18628W        W91696  12.481  22.193   1.720
18629W        W91697  21.962  41.475  10.802
18630W        W91698  29.136  31.920   0.053
18631W        W91699  38.229  33.471   0.742
18632W        W91700  38.411  26.853  14.462
18633W        W91701  17.427  13.863  13.516
18634W        W91702  42.207  32.399   1.639
18635W        W91703  23.839  13.338  10.704
18636W        W91704  25.057  38.913  11.892
18637W        W91705   0.541  20.509   0.141
18638W        W91706  24.647  29.183  11.658
18639W        W91707  10.809  16.132  10.922
18640W        W91708   4.755  44.534   3.757
18641W        W91709  21.555  14.873   0.818
18642W        W91710  40.042  39.000  11.090
18643W        W91711  32.490   1.275  11.662
18644W        W91712  28.397   0.839  11.385
18645W        W91713  15.253  24.891   4.170
18646W        W91714  33.263   5.843   0.002
18647W        W91715  19.778  24.383   2.745
18648W        W91716  31.649   8.849   0.260
18649W        W91717  17.498  42.921   1.648
18650W        W91718  30.084   3.901   1.142
18651W        W91719  21.221  23.557  12.459
18652W        W91720  31.252   0.181   0.427
18653W        W91721  39.321  10.456  10.775
18654W        W91722   2.096  44.944  10.815
18655W        W91723   2.971  15.053  14.403
18656W        W91724  23.274  23.264  14.216
18657W        W91725  33.047  11.118   3.276
18658W        W91726  26.457   1.748  11.086
18659W        W91727  22.090   2.650   4.239
18660W        W91728  11.724  44.377   2.789
18661W        W91729  39.455  19.527  13.278
18662W        W91730  13.617  13.699   1.435
18663W        W91731  41.812  32.898   2.153
18664W        W91732  30.613  42.503  13.381
18665W        W91733  35.526  24.967   3.725
18666W        W91734  35.968  27.780  14.730
18667W        W91735  16.074  14.168  12.452
18668W        W91736  16.964  43.948  14.804
18669W        W91737  35.335  31.211   4.158
18670W        W91738   9.283   4.340  12.361
18671W        W91739  18.290  25.943  11.871
18672W        W91740   5.658  41.890   3.650
18673W        W91741  38.499  10.877   0.716
18674W        W91742  23.085  44.324   4.101
18675W        W91743  39.401  26.488   3.727
18676W        W91744  20.169  41.104  11.722
18677W        W91745  18.911   2.208   5.271
18678W        W91746  16.130  36.999   1.556
18679W        W91747  40.527  39.315  10.355
18680W        W91748   5.714  16.586   0.933
18681W        W91749  25.726  43.410  11.281
18682W        W91750  17.471  27.061   3.502
18683W        W91751  35.104   4.378  12.854
18684W        W91752  28.454  39.931   0.101
18685W        W91753  44.358   2.068  14.225
18686W        W91754  23.701  29.211   2.128
18687W        W91755   4.811   9.204  11.507
18688W        W91756  11.244  39.934   4.343
18689W        W91757  19.284   8.690   2.810
18690W        W91758   8.207  17.712   0.990
18691W        W91759  34.023  27.598  10.702
18692W        W91760  29.724   7.263  11.749
18693W        W91761  37.774  35.502   4.730
18694W        W91762   0.021   5.347  11.961
18695W        W91763  18.449  22.642   4.221
18696W        W91764  39.353  32.815   0.899
18697W        W91765  38.267  24.150   0.119
18698W        W91766   7.287   4.162   1.322
18699W        W91767   6.277  27.188   3.164
18700W        W91768  31.210  21.279  12.557
18701W        W91769  32.869   8.290   0.383
18702W        W91770  18.124  18.821  11.922
18703W        W91771  12.913  30.432   2.936
18704W        W91772  17.364  32.064   3.245
18705W        W91773   5.869  41.323  13.344
18706W        W91774  44.899   1.188   0.201
18707W        W91775  16.896  34.367  12.057
18708W        W91776   7.643  16.495   2.906
18709W        W91777  36.863   8.940   0.751
18710W        W91778  37.356  31.286  12.588
18711W        W91779  21.170  36.947   1.737
18712W        W91780  19.007  18.718  11.651
18713W        W91781  40.110  42.704  12.123
18714W        W91782  13.160  38.975  13.421
18715W        W91783  25.896  23.401  11.210
18716W        W91784  30.509  21.275  11.771
18717W        W91785   7.333  40.567  12.139
18718W        W91786  34.078  31.497   1.268
18719W        W91787  15.612   7.236  12.424
18720W        W91788  43.689   3.435  14.835
18721W        W91789  32.015  14.277  14.312
18722W        W91790  40.553  40.990  11.147
18723W        W91791   9.080  15.894  10.992
18724W        W91792  44.407  39.969  13.473
18725W        W91793  44.907  13.617   3.385
18726W        W91794  33.472  23.501  12.921
18727W        W91795  25.678  21.069   3.729
18728W        W91796  34.512  19.921   1.810
18729W        W91797  32.194  40.588   4.529
18730W        W91798  41.350  10.541   2.383
18731W        W91799  20.689  12.593   5.096
18732W        W91800  43.906  16.846   1.965
18733W        W91801   8.947  19.772   0.446
18734W        W91802  44.191  13.267  14.360
18735W        W91803  15.180   2.283   1.440
18736W        W91804   9.657  19.308   3.740
18737W        W91805  16.516  34.591   4.924
18738W        W91806  40.095   8.617  12.962
18739W        W91807  27.470  12.233   0.478
18740W        W91808  11.320  24.192  14.733
18741W        W91809  42.883  21.790  11.155
18742W        W91810  18.765  11.348   1.590
18743W        W91811  21.558  28.019  10.498
18744W        W91812  24.036  28.809   3.307
18745W        W91813  34.268   4.891   4.534
18746W        W91814   5.472  42.264   2.265
18747W        W91815  41.922  29.013  12.637
18748W        W91816  27.956  18.300   0.281
18749W        W91817   8.929   4.310  10.629
18750W        W91818  19.642   4.159  11.144
18751W        W91819   5.337   7.535  13.060
18752W        W91820  37.868   7.414  12.913
18753W        W91821  18.819  26.900   4.263
18754W        W91822  12.367  34.301  11.095
18755W        W91823  38.945  18.164   1.784
18756W        W91824   2.191  29.969   0.599
18757W        W91825  38.838  27.460   3.773
18758W        W91826  31.418  11.708   0.572
18759W        W91827  15.999  10.115   5.175
18760W        W91828  41.315  14.197   2.256
18761W        W91829   8.062   6.416  12.539
18762W        W91830  11.799  42.763  14.339
18763W        W91831  29.014   3.900   3.708
18764W        W91832   4.331  18.544  12.477
18765W        W91833  37.057   5.827  10.191
18766W        W91834   6.665  25.298   3.667
18767W        W91835  16.041   8.796  13.074
18768W        W91836  34.365   1.992   2.514
18769W        W91837   2.345  17.818   2.719
18770W        W91838   2.919  42.926   0.751
18771W        W91839  24.046  44.493  11.689
18772W        W91840  41.278   2.098   0.518
18773W        W91841  14.545  19.590  12.499
18774W        W91842  26.161  13.604   2.735
18775W        W91843  26.693   9.192  12.848
18776W        W91844  31.116  17.811   3.161
18777W        W91845  30.301  14.402  12.978
18778W        W91846  40.525  36.378   0.474
18779W        W91847  33.733  15.815   4.526
18780W        W91848   8.109  26.998  14.655
18781W        W91849  34.948  15.043  13.408
18782W        W91850  29.674   4.383   1.341
18783W        W91851  34.338  14.865   3.085
18784W        W91852  16.836  20.654  10.714
18785W        W91853   4.411  11.865  12.965
18786W        W91854  35.327   5.771   0.332
18787W        W91855  39.372   5.782   0.275
18788W        W91856  42.725  23.949  14.841
18789W        W91857  14.775  21.320  12.919
18790W        W91858  26.505   1.761   2.551
18791W        W91859   6.350  41.203   1.836
18792W        W91860  26.721  22.130  10.231
18793W        W91861   4.980  36.513   4.206
18794W        W91862  40.811  27.644  11.578
18795W        W91863  15.058   8.714   3.660
18796W        W91864  20.279  31.985   0.768
18797W        W91865  21.148  24.262  14.498
18798W        W91866  20.949  29.810  14.958
18799W        W91867   5.378  28.165   3.300
18800W        W91868   1.826  44.638   0.775
18801W        W91869  18.651   1.950   2.338
18802W        W91870   1.200  32.013   0.013
18803W        W91871   8.068   5.937   2.848
18804W        W91872  37.508  24.038  13.158
18805W        W91873  18.722  26.978  12.411
18806W        W91874  11.436  20.074   2.769
18807W        W91875   4.656  19.788  11.156
18808W        W91876  43.433  25.159   3.676
18809W        W91877   1.902   0.094   2.855
18810W        W91878  19.164  10.112   1.937
18811W        W91879   5.271   9.057   0.037
18812W        W91880  28.986  30.910  12.182
18813W        W91881  35.099  31.592  14.858
18814W        W91882  12.593   4.415   0.462
18815W        W91883  41.053  26.555  11.958
18816W        W91884  22.271  42.480  12.484
18817W        W91885   7.500  26.659  13.039
18818W        W91886  16.246  38.249  12.847
18819W        W91887  18.811  17.606  11.191
18820W        W91888  38.349   5.881   5.370
18821W        W91889  30.563  17.089  14.405
18822W        W91890  38.326  11.108   1.144
18823W        W91891  35.666  12.846   3.596
18824W        W91892  40.285  30.426  13.907
18825W        W91893  42.744  15.796   0.263
18826W        W91894  10.057  19.977  11.468
18827W        W91895  17.113  25.041  13.337
18828W        W91896  18.518  25.618   0.324
18829W        W91897  44.975  20.770   1.339
18830W        W91898  27.397  17.808   3.645
18831W        W91899  34.940  34.647   3.249
18832W        W91900   3.285  15.782  13.315
18833W        W91901  23.358   2.728  14.216
18834W        W91902  17.923  33.472  13.347
18835W        W91903   7.649  18.791   2.411
18836W        W91904  40.814   7.980   4.069
18837W        W91905  29.648  39.205  13.243
18838W        W91906  30.025  13.298  14.776
18839W        W91907  21.963  25.017  11.625
18840W        W91908   0.124   7.048   1.219
18841W        W91909  10.440   8.755   0.540
18842W        W91910  38.003   4.340  12.951
18843W        W91911   0.012  24.183  14.521
18844W        W91912  22.489  10.742   1.226
18845W        W91913  39.514  39.337   1.266
18846W        W91914   0.793  40.890  14.409
18847W        W91915  18.206  19.799  14.385
18848W        W91916  11.269  26.256  11.044
18849W        W91917  16.764   6.733  13.147
18850W        W91918   1.889  39.020  11.046
18851W        W91919  29.363  31.741  11.215
18852W        W91920   9.419   9.909   1.725
18853W        W91921  28.782   2.395   1.957
18854W        W91922  22.206  21.718   1.126
18855W        W91923   8.124  36.777   4.055
18856W        W91924  19.852  35.934  13.009
18857W        W91925   9.374  37.779   1.795
18858W        W91926   1.801  25.767   3.632
18859W        W91927  43.036  35.923  12.488
18860W        W91928  41.890  21.220  12.089
18861W        W91929  44.354  16.217  12.894
18862W        W91930   7.316   8.397   2.857
18863W        W91931  43.020  37.914  13.148
18864W        W91932  33.963  41.520   0.439
18865W        W91933   9.830  33.883   1.417
18866W        W91934   0.287  28.135  12.399
18867W        W91935  37.637  20.387  11.218
18868W        W91936  40.601   8.757  13.952
18869W        W91937  37.398  31.090  13.516
18870W        W91938   5.217  23.268   3.322
18871W        W91939  37.407  37.280   4.032
18872W        W91940  14.527  41.019  12.045
18873W        W91941  11.830   3.399  11.520
18874W        W91942   9.863  38.380   1.893
18875W        W91943  32.457  39.628  12.354
18876W        W91944  16.059   7.459   1.810
18877W        W91945  44.950   3.927  14.397
18878W        W91946  37.512  13.100   3.873
18879W        W91947  29.234   2.182   2.192
18880W        W91948  34.933  39.923   1.740
18881W        W91949  20.805  17.359  11.619
18882W        W91950  17.998  20.602   2.924
18883W        W91951  26.100  39.790  12.013
18884W        W91952  14.536   0.686  11.653
18885W        W91953   3.458  12.107   4.698
18886W        W91954  24.017  33.366   2.778
18887W        W91955  14.234  21.438  10.732
18888W        W91956   6.519  25.035  12.032
18889W        W91957  13.190  23.574  11.161
18890W        W91958  17.817  13.507  14.819
18891W        W91959  35.667  30.415   1.453
18892W        W91960  34.016   8.252   2.231
18893W        W91961  17.630  31.833  12.236
18894W        W91962  27.352  17.242  13.475
18895W        W91963  32.982   2.181   2.847
18896W        W91964  31.227  24.146   0.915
18897W        W91965   9.858   6.908   1.792
18898W        W91966  43.683  35.418   1.857
18899W        W91967  11.662  13.232   4.058
18900W        W91968  36.180  29.145  10.590
18901W        W91969  11.197   8.002   1.435
18902W        W91970  33.015  20.056  13.912
18903W        W91971  24.524  19.935   1.151
18904W        W91972  29.533  42.857   4.801
18905W        W91973  35.540  34.809   4.206
18906W        W91974  29.086  14.860  12.341
18907W        W91975  20.173  34.845  11.120
18908W        W91976  24.498  43.013  13.000
18909W        W91977  13.163   8.363   0.274
18910W        W91978  33.625  17.296   0.725
18911W        W91979  41.412   6.377  11.425
18912W        W91980  31.168  39.122  13.823
18913W        W91981  29.080  19.599  11.055
18914W        W91982  33.540  25.998  10.552
18915W        W91983   6.369  15.268   3.359
18916W        W91984  42.943  32.635  10.133
18917W        W91985   4.876  30.609  13.864
18918W        W91986  16.573  21.591   3.609
18919W        W91987  20.795  23.056   1.363
18920W        W91988  23.025   1.197  13.011
18921W        W91989  18.374  31.160   0.753
18922W        W91990  36.673  31.640   4.664
18923W        W91991  16.106   2.894   2.127
18924W        W91992  13.241  19.294  12.535
18925W        W91993  11.821   3.753   0.882
18926W        W91994  24.494  15.608   1.255
18927W        W91995   2.783  23.599  11.286
18928W        W91996  36.073  32.090  12.373
18929W        W91997  38.799  44.292   3.283
18930W        W91998  35.076   0.783  12.823
18931W        W91999   3.417  12.250   1.285
18932W        W92000   8.962  24.031  14.306
18933W        W92001  34.566  17.242  12.868
18934W        W92002  41.554  14.732  12.282
18935W        W92003  11.292  25.699  14.775
18936W        W92004  34.394  38.880  13.793
18937W        W92005  27.994   8.804  10.344
18938W        W92006  11.432  42.708   0.938
18939W        W92007  43.910   5.050  13.605
18940W        W92008  12.162   4.338  11.592
18941W        W92009   0.202   4.683   1.253
18942W        W92010  28.891   1.881  13.503
18943W        W92011  28.994  44.855   1.762
18944W        W92012  44.516  36.008   1.864
18945W        W92013  11.354   7.152  13.344
18946W        W92014  10.406   1.898  13.879
18947W        W92015  36.236  21.301   1.416
18948W        W92016  20.702  16.771   1.210
18949W        W92017  42.305  23.093   3.864
18950W        W92018   4.883  28.350  12.975
18951W        W92019  12.195  23.225  10.958
18952W        W92020  35.415   1.473   4.143
18953W        W92021  42.417   8.203  11.954
18954W        W92022  12.609  17.145   2.300
18955W        W92023   0.536  34.140  14.578
18956W        W92024   6.099   6.942   1.822
18957W        W92025  19.132  42.539   2.352
18958W        W92026   4.142   1.046  10.797
18959W        W92027  38.061  43.191  13.842
18960W        W92028  36.303  16.904   0.252
18961W        W92029  17.217  12.713   0.136
18962W        W92030  26.592   6.691  12.931
18963W        W92031  42.925   1.651  12.870
18964W        W92032  43.769  16.280  13.812
18965W        W92033   3.296  23.364   3.819
18966W        W92034  29.165  29.002  11.880
18967W        W92035   0.700   6.760   2.402
18968W        W92036  10.886  27.519  10.816
18969W        W92037  41.073   9.333   2.251
18970W        W92038  34.347  27.150   3.094
18971W        W92039  30.059  40.516   0.895
18972W        W92040  43.922  24.940   5.117
18973W        W92041  44.487  28.176   0.821
18974W        W92042  24.168  14.211   3.697
18975W        W92043  19.254  42.388  14.816
18976W        W92044  21.779  33.496  12.011
18977W        W92045   6.356  16.009   2.795
18978W        W92046  30.080  19.627   3.875
18979W        W92047   4.714  32.267   5.130
18980W        W92048  26.104  29.404   3.181
18981W        W92049  33.527  18.173   0.071
18982W        W92050  35.996  15.571   4.372
18983W        W92051  32.353  44.461   1.165
18984W        W92052  39.523   0.224  11.671
18985W        W92053  19.850  43.277  14.904
18986W        W92054  22.797  37.368  13.418
18987W        W92055  12.304  43.530   0.453
18988W        W92056  44.557  41.981   1.179
18989W        W92057  11.173  18.147  12.852
18990W        W92058  23.504  23.172   4.914
18991W        W92059  11.839  13.098   3.577
18992W        W92060  41.780   3.263  13.040
18993W        W92061  33.911   3.168  13.817
18994W        W92062   1.535  16.163  10.658
18995W        W92063  31.988  14.800  14.477
18996W        W92064  15.071   1.033  14.376
18997W        W92065  37.964  41.484   1.860
18998W        W92066  31.458   0.245   3.351
18999W        W92067  13.115  14.326   4.645
19000W        W92068  16.554  33.569  12.082
19001W        W92069  34.903   9.673   3.691
19002W        W92070  21.684  36.676  12.511
19003W        W92071  21.084  15.106  11.498
19004W        W92072  38.431  37.574  13.894
19005W        W92073  42.772  16.086  13.057
19006W        W92074  44.009   1.486   0.035
19007W        W92075  29.904  28.177  12.534
19008W        W92076   7.583  18.082  13.015
19009W        W92077  15.386  16.325  13.433
19010W        W92078  38.429   4.151   2.356
19011W        W92079  17.304  38.846   4.588
19012W        W92080   3.781   2.946  13.352
19013W        W92081  36.064  31.493   1.206
19014W        W92082  40.383  29.780   1.888
19015W        W92083   4.419  14.263   1.735
19016W        W92084  32.666  20.468  14.983
19017W        W92085  39.790  17.395   0.785
19018W        W92086   4.025  35.983   4.151
19019W        W92087  33.618  42.062  11.136
19020W        W92088   3.191   4.270  11.034
19021W        W92089  10.585  10.401   2.815
19022W        W92090  41.255  24.140   2.919
19023W        W92091  25.122  21.011   0.452
19024W        W92092  42.223  41.431  13.757
19025W        W92093  19.410   5.341  12.011
19026W        W92094  28.852  33.073   4.452
19027W        W92095  16.088   8.941   2.540
19028W        W92096  32.883  40.367  12.579
19029W        W92097   6.994  17.695  10.453
19030W        W92098  44.201  21.636  14.197
19031W        W92099  14.262  36.808  11.584
19032W        W92100  20.012  19.001   0.022
19033W        W92101  25.835  39.293   3.453
19034W        W92102  29.408  39.283  13.752
19035W        W92103  25.837  20.184  11.889
19036W        W92104  26.842  10.404   0.288
19037W        W92105  41.315   9.770   1.811
19038W        W92106  35.529  25.201  14.746
19039W        W92107  32.581   3.195   3.677
19040W        W92108  22.223  30.573  10.469
19041W        W92109  33.443  12.288   1.697
19042W        W92110  14.096   7.545  11.861
19043W        W92111  31.791  12.851  14.153
19044W        W92112  17.179  21.308   4.563
19045W        W92113  16.446  35.496   2.365
19046W        W92114  12.697   0.410  11.439
19047W        W92115  15.889  38.044  14.069
19048W        W92116  20.788  43.550   4.169
19049W        W92117  27.713   9.834   9.698
19050W        W92118  33.639  23.339  12.087
19051W        W92119  25.036  44.748   1.002
19052W        W92120  39.832   2.481   2.845
19053W        W92121   5.334  27.469  11.473
19054W        W92122  18.443  24.655   1.199
19055W        W92123  20.134  25.703   4.783
19056W        W92124  32.577  14.162  14.278
19057W        W92125  36.975  16.237   0.324
19058W        W92126  22.070  44.226   4.313
19059W        W92127   7.359  14.333  13.025
19060W        W92128   8.196  25.964   2.278
19061W        W92129   4.887   4.137   1.882
19062W        W92130  12.168  24.090   1.715
19063W        W92131  21.492   3.285  12.537
19064W        W92132  16.146  10.104   2.261
19065W        W92133  15.986  17.573  13.802
19066W        W92134   5.930  36.543   1.288
19067W        W92135  34.008  44.200   0.737
19068W        W92136  40.961   9.698   1.419
19069W        W92137  25.741   1.340   5.135
19070W        W92138  39.862  11.740  12.631
19071W        W92139  36.524  34.202  11.804
19072W        W92140  22.950  21.757   0.581
19073W        W92141  31.047   7.867  13.797
19074W        W92142  16.700  14.250  14.508
19075W        W92143  37.626  15.388  11.944
19076W        W92144  25.129   9.409  13.552
19077W        W92145  35.424  31.158  13.421
19078W        W92146   1.886   7.711   4.109
19079W        W92147  21.713  20.473   0.654
19080W        W92148  19.068  27.420   0.892
19081W        W92149  19.782  27.924   2.744
19082W        W92150  24.271  24.559   2.352
19083W        W92151   1.847  43.781   4.904
19084W        W92152  21.696  25.589   1.150
19085W        W92153  13.765   0.908   0.532
19086W        W92154  26.667  14.104   1.491
19087W        W92155  31.401  28.257  13.323
19088W        W92156   6.458  35.609   0.774
19089W        W92157  39.447   3.790   2.428
19090W        W92158  16.261  17.777   4.688
19091W        W92159  28.938  33.345   0.931
19092W        W92160  28.439  20.054  10.642
19093W        W92161  17.204  30.531  11.994
19094W        W92162  17.624  34.554  11.577
19095W        W92163  17.493  31.349  11.572
19096W        W92164  38.941  21.543  12.519
19097W        W92165  32.434  30.393  11.079
19098W        W92166  11.279  31.893  11.979
19099W        W92167   3.727  10.319  13.414
19100W        W92168   9.341  39.648  12.498
19101W        W92169  23.389  30.429  14.534
19102W        W92170  13.834  36.096   1.450
19103W        W92171  14.566  35.060   1.394
19104W        W92172  14.316  40.421  11.161
19105W        W92173  30.174  40.340  12.812
19106W        W92174   1.416  21.277   4.783
19107W        W92175  15.040  22.065  13.444
19108W        W92176  33.452  43.542   1.505
19109W        W92177  35.527  20.258  13.519
19110W        W92178  44.967  25.937  12.447
19111W        W92179  37.042  23.692  14.015
19112W        W92180  11.288  10.927   1.947
19113W        W92181  44.940  13.222   3.707
19114W        W92182  35.586  41.466  12.652
19115W        W92183  29.172   8.704   4.590
19116W        W92184  40.050  44.200   4.022
19117W        W92185  15.859  21.146  13.958
19118W        W92186  37.229   2.960   4.138
19119W        W92187  13.125  27.867   3.144
19120W        W92188  27.539  13.606  14.831
19121W        W92189  16.852   8.868   2.303
19122W        W92190  30.352  10.272   2.822
19123W        W92191   1.805  38.451  14.292
19124W        W92192  27.744  23.644   0.201
19125W        W92193  33.091  14.202   4.912
19126W        W92194  38.771  36.451  12.515
19127W        W92195  31.449  31.405   4.616
19128W        W92196   2.788  37.953  13.098
19129W        W92197  32.977   3.214  10.413
19130W        W92198  14.557  25.872  12.445
19131W        W92199  39.821  36.639  11.085
19132W        W92200  37.757  12.730  11.123
19133W        W92201  38.565   4.886   1.689
19134W        W92202  19.345  33.163   3.166
19135W        W92203  42.827   5.628   3.279
19136W        W92204  44.759   2.493  14.542
19137W        W92205  21.793  23.225  14.510
19138W        W92206  20.105  40.574   1.006
19139W        W92207  14.508  35.047   2.780
19140W        W92208   3.670  14.894   3.407
19141W        W92209  36.269   2.267   0.472
19142W        W92210  42.933  11.609  11.077
19143W        W92211  35.967  32.337   3.240
19144W        W92212  11.235  12.949  11.459
19145W        W92213  19.142  27.904   0.752
19146W        W92214   4.906  40.589  12.662
19147W        W92215  30.377   0.696  14.064
19148W        W92216  23.604  25.432   0.416
19149W        W92217  11.596  39.309   4.080
19150W        W92218   7.109  41.599   1.840
19151W        W92219  28.964  42.974   3.958
19152W        W92220  14.549   4.337   2.176
19153W        W92221  35.090  26.475  14.902
19154W        W92222   4.625   8.442  13.313
19155W        W92223  40.429  12.599  11.973
19156W        W92224  23.226   6.816   3.760
19157W        W92225  13.524  21.169   5.020
19158W        W92226  30.282   6.824  12.939
19159W        W92227   1.828  28.690   3.639
19160W        W92228  19.071  22.828   1.853
19161W        W92229   1.208  14.311   0.208
19162W        W92230   3.296   2.449   1.008
19163W        W92231  11.906   1.209   0.372
19164W        W92232  39.847   6.186   5.555
19165W        W92233   7.753  42.735  12.026
19166W        W92234  16.276  25.671  14.969
19167W        W92235  34.960  14.299   1.383
19168W        W92236  25.447  22.516  13.634
19169W        W92237  23.182  40.294   0.088
19170W        W92238   4.997  43.668   0.076
19171W        W92239  14.282  18.319  10.866
19172W        W92240  14.068  42.521   2.880
19173W        W92241   7.705  31.838   1.538
19174W        W92242  16.096  38.715  13.114
19175W        W92243  33.041   9.675   4.897
19176W        W92244   7.644  41.603   4.254
19177W        W92245   3.632  25.864  13.484
19178W        W92246  31.887  13.520  11.624
19179W        W92247   1.384   4.936   4.534
19180W        W92248  28.742  43.317   2.698
19181W        W92249  17.227  18.101  14.456
19182W        W92250  24.529  25.701  14.786
19183W        W92251  27.903  43.759   3.923
19184W        W92252  22.237  40.014   3.224
19185W        W92253  27.141  40.836   0.001
19186W        W92254  25.626  12.584  12.170
19187W        W92255  23.377  26.524   4.326
19188W        W92256  26.024  42.418   0.370
19189W        W92257  28.209  17.611   3.180
19190W        W92258   0.796  11.260  14.708
19191W        W92259  31.384   5.694  11.332
19192W        W92260  41.010  20.262  14.255
19193W        W92261   0.925  28.524  11.856
19194W        W92262   8.594   1.268   2.363
19195W        W92263  24.489  39.300   0.001
19196W        W92264  10.103  23.926   4.794
19197W        W92265  31.177  39.558  14.961
19198W        W92266  23.049  11.280   0.432
19199W        W92267  21.542  36.137   3.070
19200W        W92268  29.556  10.804  12.146
19201W        W92269   8.619  16.294   2.957
19202W        W92270  44.382  41.222   1.075
19203W        W92271   4.447  30.594  14.685
19204W        W92272  23.187   1.812  11.630
19205W        W92273   2.250  13.289  14.317
19206W        W92274  44.733  24.955  11.106
19207W        W92275  12.717  42.484  14.711
19208W        W92276  31.849  22.744  14.857
19209W        W92277  15.862  43.380  14.430
19210W        W92278   3.678  11.975   1.656
19211W        W92279  17.282   5.671   4.553
19212W        W92280  40.935  37.827   1.370
19213W        W92281  31.990   6.289   0.307
19214W        W92282   6.723  35.480  12.870
19215W        W92283  19.089  17.283   2.822
19216W        W92284  26.498  29.260   0.433
19217W        W92285  28.395  29.404   2.746
19218W        W92286  40.408  23.052   4.102
19219W        W92287  30.595  14.433   3.990
19220W        W92288  27.832  33.653  14.271
19221W        W92289  15.782   4.716   4.863
19222W        W92290  27.558  30.583   2.753
19223W        W92291  19.203  13.087   1.475
19224W        W92292  16.073  44.095   1.904
19225W        W92293  20.666  11.396   3.786
19226W        W92294  11.926   3.502   2.277
19227W        W92295  42.353  10.000   4.957
19228W        W92296  21.453   6.904  14.987
19229W        W92297  32.102  42.805   1.820
19230W        W92298  13.773  16.348  12.864
19231W        W92299  20.707  36.379   0.036
19232W        W92300  30.018  14.266   4.756
19233W        W92301   6.531   8.853   2.653
19234W        W92302  18.761  30.122  12.940
19235W        W92303  23.650   8.163  12.898
19236W        W92304  24.548  35.391  13.804
19237W        W92305  40.518  34.483   2.346
19238W        W92306   5.625  26.019   2.903
19239W        W92307  35.817  43.886   2.718
19240W        W92308  39.926   9.093  13.093
19241W        W92309  42.466  12.344  11.056
19242W        W92310  15.824  31.667  11.182
19243W        W92311  36.027  31.664   2.635
19244W        W92312  23.529  43.178  11.596
19245W        W92313  34.811  43.777   0.331
19246W        W92314  16.229   4.451   4.860
19247W        W92315  43.948   8.778   0.405
19248W        W92316   2.989  31.920   2.803
19249W        W92317  42.251  34.427   4.206
19250W        W92318  21.169  22.478   4.558
19251W        W92319  25.975   3.028  14.250
19252W        W92320   8.181  40.906   4.771
19253W        W92321   3.856  42.391   3.901
19254W        W92322  26.552   4.251   2.686
19255W        W92323  24.589  44.452   4.378
19256W        W92324  27.003  38.537   3.462
19257W        W92325  24.719  25.231  11.911
19258W        W92326  43.197   1.495  11.197
19259W        W92327   4.380  15.113   4.092
19260W        W92328  37.450  19.542  11.542
19261W        W92329  20.696  27.814  11.362
19262W        W92330  23.229   7.875   0.061
19263W        W92331  33.721   6.406   0.601
19264W        W92332  31.891  23.262   2.865
19265W        W92333  29.193  44.377   1.904
19266W        W92334  20.372  14.107   4.865
19267W        W92335  12.510   6.965  11.153
19268W        W92336  20.324  34.276   4.581
19269W        W92337   4.948  27.526  10.787
19270W        W92338  17.599  23.570   2.239
19271W        W92339  11.159  12.336   3.730
19272W        W92340  24.410  25.202   3.777
19273W        W92341  17.108  43.009   0.767
19274W        W92342  16.634   3.128  14.506
19275W        W92343  43.700  42.933   1.967
19276W        W92344  17.260  38.436   2.808
19277W        W92345  34.715  34.652   0.544
19278W        W92346   1.811  34.414   0.906
19279W        W92347  19.559   2.672   4.537
19280W        W92348   3.916  38.843   3.680
19281W        W92349  20.929   6.184   3.703
19282W        W92350   5.815  29.752   2.331
19283W        W92351   3.166  43.376   0.817
19284W        W92352   6.403   7.381   1.767
19285W        W92353  16.124  14.513  12.032
19286W        W92354  21.272  34.834   3.128
19287W        W92355   6.952  19.132   2.269
19288W        W92356  25.910  31.603  14.935
19289W        W92357   8.696  12.112   1.355
19290W        W92358   7.958  10.231  12.711
19291W        W92359  38.809  18.286   0.336
19292W        W92360  13.286  36.174   4.979
19293W        W92361  22.698  32.922  11.120
19294W        W92362  36.911  31.199   3.178
19295W        W92363  13.670  17.921   1.445
19296W        W92364  39.464  36.178   0.193
19297W        W92365  15.150   6.913  13.403
19298W        W92366  37.537  12.310  14.931
19299W        W92367   4.461  40.449  14.553
19300W        W92368  11.592  31.731  12.367
19301W        W92369   0.297  20.703   4.220
19302W        W92370  31.403  18.663  10.734
19303W        W92371   1.452  12.406   3.706
19304W        W92372   5.727   4.018   1.821
19305W        W92373  24.550  37.078  12.037
19306W        W92374  12.079   0.566  13.691
19307W        W92375  17.627  37.353   3.157
19308W        W92376  38.018  18.310  11.904
19309W        W92377  16.598  42.794  13.651
19310W        W92378   3.362  42.839   0.382
19311W        W92379  19.960  31.015   2.779
19312W        W92380  24.998  35.043   1.007
19313W        W92381  29.448  18.581  14.741
19314W        W92382  17.657  38.593   2.369
19315W        W92383  33.864  37.981   1.970
19316W        W92384  34.587  38.626   1.213
19317W        W92385   4.223  12.908  13.762
19318W        W92386  33.230  42.320  14.366
19319W        W92387   2.047   8.334   2.712
19320W        W92388  16.589  42.083   3.585
19321W        W92389  10.393  37.067   0.383
19322W        W92390  30.943  39.083  14.833
19323W        W92391  43.868  37.206  11.138
19324W        W92392  30.207  22.225   4.906
19325W        W92393  25.509   9.107  11.623
19326W        W92394  43.839  33.443   3.227
19327W        W92395   0.888  23.751  12.449
19328W        W92396  20.164  25.064  13.931
19329W        W92397  36.711  19.082  12.096
19330W        W92398  39.554  44.199   2.765
19331W        W92399  11.153  23.705   2.592
19332W        W92400   4.215  43.696  10.921
19333W        W92401  44.209  13.397   0.756
19334W        W92402  35.372  36.764  14.020
19335W        W92403  11.810  26.744   3.034
19336W        W92404  22.486   6.494  11.177
19337W        W92405   5.461  23.258   2.390
19338W        W92406   4.857  19.632   3.172
19339W        W92407  22.476  29.531  10.650
19340W        W92408  20.785   4.353   3.263
19341W        W92409  27.507  34.882   0.710
19342W        W92410   2.656  38.762  10.406
19343W        W92411   6.322  11.870   4.310
19344W        W92412  41.776   2.942  11.051
19345W        W92413   7.910  40.429   4.484
19346W        W92414  40.995  42.037   4.565
19347W        W92415  30.991  11.685   1.118
19348W        W92416  38.451  11.643  13.862
19349W        W92417  27.884  23.076   2.271
19350W        W92418  15.191   0.794   1.919
19351W        W92419   5.357  24.654  11.854
19352W        W92420  40.813  22.423   2.813
19353W        W92421  19.687  34.557  12.138
19354W        W92422  26.196  35.702   2.791
19355W        W92423  32.066   5.031   2.936
19356W        W92424  28.665  12.230  13.434
19357W        W92425  25.436   5.839   0.865
19358W        W92426  44.220  21.921   0.080
19359W        W92427  43.687   8.680   0.860
19360W        W92428  31.723   9.650   1.912
19361W        W92429  22.904  13.478   4.837
19362W        W92430  35.116  10.241   5.059
19363W        W92431  11.170   2.040   4.092
19364W        W92432  14.119   1.771  12.568
19365W        W92433  39.094  40.004   3.723
19366W        W92434  17.079  42.063  10.777
19367W        W92435  18.366  25.099  13.062
19368W        W92436  41.509  42.002  10.689
19369W        W92437   2.684  11.242   4.283
19370W        W92438  19.384  25.043  12.992
19371W        W92439  33.532  35.727   2.225
19372W        W92440   0.479  15.873  14.693
19373W        W92441   9.110  22.482   3.214
19374W        W92442  11.994   7.673  12.000
19375W        W92443  13.628  10.716   0.286
19376W        W92444  36.969   9.936  13.585
19377W        W92445  18.482  27.675  11.544
19378W        W92446   8.923  34.191   1.265
19379W        W92447   7.832   5.989   3.861
19380W        W92448  20.557   6.686   0.896
19381W        W92449  13.070  23.054  14.316
19382W        W92450  44.235  10.151  11.125
19383W        W92451  20.584   0.972  12.524
19384W        W92452   3.115  10.353   3.295
19385W        W92453   5.695  11.397  14.822
19386W        W92454  35.853  32.522  11.510
19387W        W92455  29.147  41.937   0.035
19388W        W92456  20.637   2.573   1.364
19389W        W92457  31.946  27.951  12.565
19390W        W92458  10.886  15.752   4.526
19391W        W92459  30.835  20.627   1.017
19392W        W92460  23.201  15.755  10.968
19393W        W92461  16.514   3.299   2.057
19394W        W92462  43.010  27.701   2.214
19395W        W92463  34.492   1.338   3.957
19396W        W92464  31.223  42.479   4.289
19397W        W92465   7.938  37.901  14.434
19398W        W92466   9.458  26.050  11.584
19399W        W92467  16.775  25.888  14.837
19400W        W92468  35.426   5.478   1.176
19401W        W92469  21.632  22.004  10.906
19402W        W92470  27.543  24.916   3.637
19403W        W92471  44.243   5.802  13.175
19404W        W92472  11.394   1.366   0.394
19405W        W92473  25.662  24.133   4.747
19406W        W92474   5.948  37.395  13.063
19407W        W92475   4.389  26.478   4.619
19408W        W92476  27.032  44.899   3.763
19409W        W92477  10.488  11.589  14.254
19410W        W92478  13.764  13.781  12.104
19411W        W92479  28.593  10.586   9.652
19412W        W92480  37.357  39.839  14.935
19413W        W92481  40.220  17.677   0.678
19414W        W92482  21.609  29.752  14.377
19415W        W92483  40.846  15.546  11.437
19416W        W92484  41.880  38.589   3.301
19417W        W92485   9.138  12.606   3.232
19418W        W92486  29.247  43.261   3.643
19419W        W92487   4.363  35.571  14.992
19420W        W92488  24.565  12.651  10.973
19421W        W92489  43.689  33.556   4.799
19422W        W92490  33.132  44.086   1.565
19423W        W92491  38.814   6.215   0.768
19424W        W92492  18.685  20.628   2.399
19425W        W92493  36.382  34.686   5.515
19426W        W92494  39.506  17.003   2.298
19427W        W92495   1.564  27.046  14.933
19428W        W92496  35.982  11.787   1.388
19429W        W92497  42.028   2.905   0.731
19430W        W92498   5.786   9.398  12.270
19431W        W92499   2.852  17.947  13.977
19432W        W92500   3.006  23.494   0.289
19433W        W92501  23.443   5.672   1.105
19434W        W92502  31.360  21.768   3.315
19435W        W92503  28.691  12.067  11.340
19436W        W92504  25.599  10.645   5.150
19437W        W92505  28.026  44.497   3.194
19438W        W92506  16.765  22.784   0.693
19439W        W92507  40.015  44.864  12.553
19440W        W92508  17.703  40.815   1.958
19441W        W92509  40.099  10.225   3.624
19442W        W92510  38.462  41.434   1.696
19443W        W92511  27.045  17.386  14.301
19444W        W92512  14.999  18.940   0.784
19445W        W92513  32.609   0.273   3.718
19446W        W92514   3.238  33.885   3.912
19447W        W92515  28.491  36.099  14.667
19448W        W92516  29.094  29.076  14.766
19449W        W92517  13.870  14.307   1.174
19450W        W92518  16.552   1.886   4.058
19451W        W92519  38.918  44.912   3.968
19452W        W92520   7.392  19.667   5.260
19453W        W92521  14.282  29.130  12.020
19454W        W92522   4.677  23.567   1.123
19455W        W92523   3.275  16.877   4.776
19456W        W92524  19.901   1.160  10.515
19457W        W92525  22.669   5.814   1.856
19458W        W92526   0.645   5.492   3.242
19459W        W92527   5.262  17.252  13.381
19460W        W92528   4.421  16.169  13.016
19461W        W92529  17.763  42.194  14.860
19462W        W92530  18.712  42.138   4.132
19463W        W92531   4.316  24.782  13.594
19464W        W92532  39.270  15.243   0.716
19465W        W92533  19.202   3.792   4.555
19466W        W92534  43.297  14.334   4.467
19467W        W92535  26.065  28.761  11.516
19468W        W92536  23.740  39.471   4.062
19469W        W92537  36.180  22.682   2.289
19470W        W92538  28.466  18.483  14.375
19471W        W92539  39.071   9.387   5.493
19472W        W92540  30.132  13.896   3.949
19473W        W92541  35.316  33.384  12.962
19474W        W92542  20.341  16.260  10.769
19475W        W92543  25.465  44.548   0.756
19476W        W92544  15.588   1.249  13.329
19477W        W92545  27.219  29.937  14.270
19478W        W92546  24.697  44.045   1.753
19479W        W92547   7.888   6.588  11.525
19480W        W92548  43.812  34.895   4.030
19481W        W92549   8.370  23.109   4.065
19482W        W92550  12.639  27.477  11.917
19483W        W92551  18.184  37.420  11.695
19484W        W92552  17.540   6.629  14.815
19485W        W92553  23.154  35.100  10.966
19486W        W92554  23.987   4.292  13.976
19487W        W92555  43.424   3.572   5.101
19488W        W92556   2.905   9.963  11.005
19489W        W92557  35.148  21.822  11.127
19490W        W92558  13.597  31.642   2.129
19491W        W92559  13.560  40.087  11.028
19492W        W92560  36.512  30.828  10.277
19493W        W92561   0.054  16.763  12.930
19494W        W92562  26.413  12.794   0.952
19495W        W92563  22.399   9.804  14.594
19496W        W92564  20.091  44.552   3.636
19497W        W92565  31.561  12.640   0.237
19498W        W92566  30.122   5.352   1.447
19499W        W92567  42.455  25.105  11.225
19500W        W92568   6.910  32.936   3.082
19501W        W92569   7.261   9.741   2.858
19502W        W92570  35.842  36.958  12.924
19503W        W92571  22.193   2.231   2.769
19504W        W92572  18.688   0.664  13.392
19505W        W92573  10.954  39.909   1.093
19506W        W92574  31.849   1.817   3.292
19507W        W92575  32.207  10.208   3.104
19508W        W92576  42.603  35.422  14.680
19509W        W92577  12.689  43.414  13.062
19510W        W92578  37.670  16.592  14.769
19511W        W92579   7.199  39.498  11.955
19512W        W92580  20.635  31.600  12.114
19513W        W92581  29.560  10.287  13.276
19514W        W92582   3.214  10.321   1.350
19515W        W92583  12.388  27.604   2.663
19516W        W92584  30.106  31.934   1.874
19517W        W92585  37.550   7.614   3.208
19518W        W92586  40.002   7.708  13.725
19519W        W92587  11.816  39.966   2.215
19520W        W92588  17.725   3.960   0.300
19521W        W92589  21.550  37.625  12.499
19522W        W92590   6.868  11.078  11.125
19523W        W92591  32.456  20.680   4.333
19524W        W92592  26.597  33.373  13.354
19525W        W92593   5.745  24.687  11.178
19526W        W92594  18.195  14.725  13.086
19527W        W92595  13.040   4.766  14.213
19528W        W92596  11.438  11.719   4.764
19529W        W92597   8.643  13.626  11.584
19530W        W92598  24.656   1.902   1.863
19531W        W92599  11.694   0.436  14.015
19532W        W92600  27.341  33.235   2.022
19533W        W92601  33.983   3.512   0.203
19534W        W92602  12.988  25.640   4.241
19535W        W92603  17.696  38.682   1.460
19536W        W92604  17.066  27.735   3.219
19537W        W92605  19.287  32.881   1.849
19538W        W92606  43.810  15.777   2.769
19539W        W92607  40.284   4.161  13.035
19540W        W92608   0.509   8.411   3.214
19541W        W92609  37.029  37.889   0.896
19542W        W92610  36.882  40.446   4.882
19543W        W92611   8.731  43.496   0.958
19544W        W92612   1.602   8.805   4.596
19545W        W92613  16.598  34.875  11.601
19546W        W92614  25.516  10.272   4.197
19547W        W92615  17.862  12.149   2.678
19548W        W92616  11.458  44.770   4.570
19549W        W92617  41.809  44.287  12.491
19550W        W92618  29.328  36.992   3.258
19551W        W92619  26.221  21.223  14.345
19552W        W92620  34.842  18.611   4.103
19553W        W92621   1.011   1.984   2.780
19554W        W92622  22.143   4.973  10.094
19555W        W92623  15.105   9.446   0.661
19556W        W92624   7.260  34.942   4.910
19557W        W92625   6.316  11.701  14.395
19558W        W92626  25.686   6.797  11.749
19559W        W92627  42.308  20.972  11.924
19560W        W92628   5.491  10.254  12.945
19561W        W92629  29.004   2.836  14.914
19562W        W92630  18.278  31.493  12.308
19563W        W92631  36.399  26.545  14.629
19564W        W92632  27.481  28.237   3.756
19565W        W92633  27.915  35.931  12.452
19566W        W92634  17.287  27.649  12.114
19567W        W92635  19.178  36.649  12.904
19568W        W92636  12.619  36.360   1.761
19569W        W92637  32.051  27.491  13.037
19570W        W92638  40.125   0.770  14.318
19571W        W92639  23.756  44.801  13.453
19572W        W92640   2.901  17.173   4.137
19573W        W92641  34.555  41.816  10.784
19574W        W92642   8.264  17.044  11.314
19575W        W92643  30.902  34.123  12.429
19576W        W92644   3.375  30.066  13.379
19577W        W92645  31.832  35.824  13.840
19578W        W92646  28.456   0.406  14.516
19579W        W92647  43.815   5.068  11.432
19580W        W92648  14.631  13.839  11.228
19581W        W92649   7.213  14.289   3.661
19582W        W92650   1.233  33.483  13.417
19583W        W92651  15.022   9.470  14.457
19584W        W92652  31.413  20.558  12.053
19585W        W92653  37.974  29.132   1.259
19586W        W92654   4.391  37.920  14.082
19587W        W92655  40.286  32.099   2.257
19588W        W92656  34.649  32.498  14.817
19589W        W92657   2.661   2.528  14.103
19590W        W92658   8.825  25.221   0.015
19591W        W92659  43.883   6.621   3.286
19592W        W92660  19.253  15.217   2.464
19593W        W92661  21.192  34.946  11.045
19594W        W92662  25.543  34.497  12.371
19595W        W92663  31.911   9.274   0.185
19596W        W92664  13.305  12.882  11.594
19597W        W92665  16.495  36.755   4.134
19598W        W92666  12.440  35.445   4.136
19599W        W92667   1.849  18.335  12.037
19600W        W92668  43.907  29.615  10.790
19601W        W92669  29.079  36.082  12.383
19602W        W92670  25.151  17.639   3.813
19603W        W92671  23.571  17.406   3.613
19604W        W92672  40.452  22.531   4.085
19605W        W92673   2.712  37.498   4.837
19606W        W92674  15.750  25.637   2.603
19607W        W92675   9.072   2.349   3.910
19608W        W92676  21.447  28.188  11.497
19609W        W92677  15.616  31.874   0.183
19610W        W92678  23.426  32.505  14.378
19611W        W92679   1.686  28.557  13.294
19612W        W92680   8.598   8.447   1.157
19613W        W92681  10.082  38.737   2.203
19614W        W92682  27.419  16.054  14.420
19615W        W92683   8.793  20.959  13.014
19616W        W92684  23.202  20.993   0.240
19617W        W92685   0.588  41.582   4.584
19618W        W92686  24.925  17.295  13.474
19619W        W92687  36.405  41.350  10.489
19620W        W92688  28.411  33.130   4.166
19621W        W92689  34.684  44.265  14.334
19622W        W92690  17.053  43.490  14.027
19623W        W92691  29.028  26.572  12.104
19624W        W92692   9.224  23.525  11.587
19625W        W92693  34.701  30.719   2.428
19626W        W92694  26.558  23.722   2.456
19627W        W92695  17.050   6.910  13.855
19628W        W92696  36.954  37.017   4.186
19629W        W92697  37.989   2.660   4.697
19630W        W92698  17.840   2.423   0.001
19631W        W92699   1.247  33.099  14.241
19632W        W92700  37.330  15.513   1.924
19633W        W92701   9.426  42.448  11.532
19634W        W92702  39.157  35.917  13.947
19635W        W92703  32.894  43.652  11.631
19636W        W92704  21.537   4.486   2.739
19637W        W92705  23.683  23.020  12.498
19638W        W92706  33.554  30.753  11.697
19639W        W92707  40.069  39.721   0.422
19640W        W92708  13.582  17.797  10.812
19641W        W92709  18.436   1.209  14.684
19642W        W92710  44.315  36.732   1.277
19643W        W92711  40.535  22.294   3.244
19644W        W92712  16.014  13.473  14.384
19645W        W92713  17.298  30.740  13.138
19646W        W92714  40.903  41.346   1.760
19647W        W92715  31.551  26.257   0.580
19648W        W92716  18.012  19.121  10.775
19649W        W92717  19.066  11.749  13.458
19650W        W92718  13.196  22.101   0.380
19651W        W92719   2.389  36.454   2.435
19652W        W92720  24.558  20.838   3.089
19653W        W92721   4.220  34.070   3.377
19654W        W92722   6.684  12.411   3.349
19655W        W92723  25.078  10.673  14.131
19656W        W92724   0.147  25.982  14.956
19657W        W92725  26.198  30.122  11.657
19658W        W92726   1.271  30.160  14.395
19659W        W92727  18.389   0.266  11.528
19660W        W92728  13.252  19.232  13.060
19661W        W92729  32.141  29.123  11.562
19662W        W92730  43.287  14.235  10.839
19663W        W92731  11.867  31.972   0.715
19664W        W92732  41.365  16.673  10.998
19665W        W92733  18.544  36.976  11.919
19666W        W92734  42.461  42.519   4.624
19667W        W92735  28.941   8.665   5.062
19668W        W92736  27.566  11.860   1.768
19669W        W92737  44.239  37.953  10.542
19670W        W92738  12.590  39.008   3.153
19671W        W92739  11.775  25.570   1.433
19672W        W92740  19.294  26.677   4.539
19673W        W92741  10.756  13.652  12.609
19674W        W92742   5.238   8.322  12.773
19675W        W92743  39.962   2.286   9.928
19676W        W92744  11.550  43.231   0.912
19677W        W92745  13.719  28.457   1.556
19678W        W92746  42.139  23.636  12.998
19679W        W92747  28.403  21.201  12.879
19680W        W92748  27.686  44.233  12.019
19681W        W92749  35.046  26.113  12.405
19682W        W92750  41.352   6.061   5.493
19683W        W92751  16.967  17.486  11.153
19684W        W92752  17.154  18.485  10.961
19685W        W92753  29.566  32.469  10.350
19686W        W92754  21.472   5.490   3.030
19687W        W92755  37.630  26.785   3.329
19688W        W92756  13.199   3.846  12.088
19689W        W92757  14.405  22.270  12.795
19690W        W92758  41.998  27.969  14.220
19691W        W92759  22.623  17.856  11.229
19692W        W92760  19.507   5.268  12.866
19693W        W92761  40.105   5.671   1.432
19694W        W92762  23.972  35.528  11.532
19695W        W92763  36.819  42.201   3.672
19696W        W92764   3.499  25.595  10.645
19697W        W92765  43.837  13.431  12.910
19698W        W92766  13.082  36.386  11.124
19699W        W92767  16.244  17.476  14.432
19700W        W92768  23.372  28.076  13.588
19701W        W92769  12.595   9.312  10.627
19702W        W92770  36.797   8.413   2.866
19703W        W92771  20.283   0.572   4.822
19704W        W92772  30.202   2.242   4.557
19705W        W92773  35.567   9.967   1.862
19706W        W92774  41.391   4.695  11.114
19707W        W92775  44.896  32.974   1.637
19708W        W92776  42.529   5.297  14.418
19709W        W92777  26.681  43.769   2.172
19710W        W92778   2.996   3.358   1.274
19711W        W92779  37.474  43.461  11.128
19712W        W92780  17.335  35.848   1.248
19713W        W92781   3.277  15.450  12.883
19714W        W92782  31.608  37.233  12.534
19715W        W92783   6.401  39.496   3.016
19716W        W92784  38.905  17.288   0.635
19717W        W92785   4.788  35.301  12.517
19718W        W92786  18.211   4.771   2.559
19719W        W92787  16.098  40.074   0.823
19720W        W92788  29.927  13.528   4.282
19721W        W92789  18.964   2.549  14.340
19722W        W92790  13.806  30.695  11.551
19723W        W92791   5.804  17.508  11.699
19724W        W92792   9.081  35.854   1.831
19725W        W92793   0.150  22.942  14.207
19726W        W92794  41.699  19.342   0.380
19727W        W92795  41.730  30.660   1.773
19728W        W92796   9.133  33.764   4.185
19729W        W92797  29.972  24.257   1.944
19730W        W92798   2.761  35.629  13.899
19731W        W92799  31.051  44.779  14.843
19732W        W92800  39.586  39.484  13.038
19733W        W92801  42.119  29.235  13.919
19734W        W92802  22.566  13.538   4.208
19735W        W92803  40.614  29.182   2.741
19736W        W92804  40.376  24.139   3.094
19737W        W92805  36.097  44.845   0.763
19738W        W92806   3.184   8.282   3.945
19739W        W92807  38.900   2.446   4.547
19740W        W92808  38.021  29.719   1.907
19741W        W92809   7.764   2.231   0.539
19742W        W92810  16.899  10.429   3.678
19743W        W92811  43.304  13.333   3.288
19744W        W92812   0.900  38.619   0.521
19745W        W92813  34.940  42.423  14.918
19746W        W92814  12.735   7.718  12.550
19747W        W92815   9.552   2.383   0.181
19748W        W92816  14.107  30.365  10.669
19749W        W92817  26.029  28.171  14.730
19750W        W92818   5.914  16.684  10.794
19751W        W92819  13.353  38.971   3.585
19752W        W92820  20.731  23.716  10.520
19753W        W92821   3.960  14.667   1.880
19754W        W92822  32.382  30.615   5.006
19755W        W92823  17.024  44.787  14.935
19756W        W92824  17.845  43.032   0.189
19757W        W92825   2.299   5.745  12.908
19758W        W92826  30.451   4.222   0.936
19759W        W92827  12.119  44.062  14.294
19760W        W92828   7.440  10.676  14.350
19761W        W92829  31.520  43.799  11.507
19762W        W92830  41.838  17.347   1.285
19763W        W92831  37.769  24.964   3.313
19764W        W92832  37.951  25.081   1.760
19765W        W92833  18.389  28.249  13.908
19766W        W92834   2.087  29.367   3.196
19767W        W92835   1.985  27.633  13.448
19768W        W92836  23.663  21.083  14.311
19769W        W92837  41.031  37.279  13.614
19770W        W92838  13.139  22.300   1.441
19771W        W92839   0.641   6.396   0.626
19772W        W92840   6.800   9.194  11.154
19773W        W92841  18.655  20.321   1.818
19774W        W92842  19.933  33.584  12.416
19775W        W92843  19.923  25.067  10.731
19776W        W92844  15.174  44.880   2.768
19777W        W92845   0.462  33.351  14.985
19778W        W92846  25.515  30.458  12.609
19779W        W92847  31.889  22.540   4.126
19780W        W92848  22.947   2.920   2.641
19781W        W92849  20.458  29.427  10.686
19782W        W92850  20.568  25.054  12.532
19783W        W92851  16.678  27.422  11.059
19784W        W92852  30.412  37.827   0.783
19785W        W92853  15.281   2.178  13.898
19786W        W92854  29.023  16.630   0.890
19787W        W92855  13.232   7.722   4.668
19788W        W92856   8.647  40.641   4.145
19789W        W92857  22.234   9.436   1.340
19790W        W92858   1.645  16.397   3.812
19791W        W92859  33.990  29.803  11.588
19792W        W92860  44.240  28.381  11.178
19793W        W92861  23.304   7.208  11.410
19794W        W92862  12.574  34.906  13.853
19795W        W92863  42.391  42.056  13.066
19796W        W92864  38.394   4.636   2.103
19797W        W92865  40.885   8.223   0.454
19798W        W92866  41.422  11.498   0.892
19799W        W92867  15.293   8.251   4.462
19800W        W92868  18.176   9.316   4.578
19801W        W92869  14.389  36.553   2.943
19802W        W92870  19.867   6.244  11.166
19803W        W92871  29.676   7.409  12.671
19804W        W92872  17.139  11.746  14.762
19805W        W92873  44.455  20.478  13.824
19806W        W92874  14.602  21.167   2.209
19807W        W92875   8.936  37.638   2.691
19808W        W92876  34.076  32.723  12.040
19809W        W92877   1.701   1.822   2.297
19810W        W92878  30.625   6.845  10.717
19811W        W92879  40.791  26.178  10.696
19812W        W92880  33.287  38.089  14.395
19813W        W92881   3.954  18.553   1.803
19814W        W92882   6.260   6.151   4.600
19815W        W92883  21.988  11.759   3.387
19816W        W92884   0.131  34.022   0.438
19817W        W92885   3.649  14.077   0.428
19818W        W92886  21.260   1.015  11.058
19819W        W92887  42.041  36.046  14.360
19820W        W92888  25.964   9.190  12.536
19821W        W92889  15.804  16.097   2.863
19822W        W92890  44.424  22.967  14.784
19823W        W92891  34.005   1.990  13.263
19824W        W92892  13.966  44.662   4.541
19825W        W92893  44.716  16.303   0.422
19826W        W92894  15.584  13.292  12.312
19827W        W92895  31.728  40.343  10.713
19828W        W92896   4.919  18.852  12.900
19829W        W92897  27.479   8.642  11.922
19830W        W92898  38.856  21.803   1.924
19831W        W92899  26.240  39.563  10.140
19832W        W92900  38.484  27.126   1.011
19833W        W92901  11.394  40.382   3.134
19834W        W92902  19.552   3.498   1.486
19835W        W92903  12.069  44.767   3.685
19836W        W92904  14.440  16.679  12.247
19837W        W92905   4.541  32.875   0.244
19838W        W92906  27.275  25.734  10.800
19839W        W92907   2.791  26.886  11.662
19840W        W92908   8.694  23.969   1.248
19841W        W92909   3.168  27.695   0.910
19842W        W92910   8.239   3.165  13.012
19843W        W92911  33.575  16.343   1.751
19844W        W92912  21.308   8.502  12.315
19845W        W92913  33.549   0.494   0.056
19846W        W92914   3.750  33.653  14.579
19847W        W92915  40.949  34.976   4.426
19848W        W92916  36.967   7.761   2.848
19849W        W92917  21.531  22.484  10.788
19850W        W92918  44.924  14.914  13.016
19851W        W92919  23.476  15.329   3.486
19852W        W92920  19.285  31.514  12.549
19853W        W92921  36.959  42.861   1.063
19854W        W92922  25.611  10.785   4.288
19855W        W92923  15.552  36.634  13.470
19856W        W92924  12.197  36.857   4.677
19857W        W92925   3.987  30.917  13.358
19858W        W92926  24.438  29.519   3.727
19859W        W92927  16.860  28.581   4.710
19860W        W92928  39.126  34.096   1.374
19861W        W92929  10.319  42.901   2.868
19862W        W92930  39.521  20.119   4.345
19863W        W92931  16.763  43.362   2.736
19864W        W92932  25.259  13.583  11.497
19865W        W92933  23.920  39.263  14.962
19866W        W92934  21.786  21.444   3.832
19867W        W92935   2.326  21.877  12.686
19868W        W92936   6.932  37.193   4.513
19869W        W92937   2.397  15.141  10.624
19870W        W92938  12.321   8.149  14.989
19871W        W92939   3.351   8.257   2.193
19872W        W92940  36.044  38.272  12.840
19873W        W92941  13.137   4.367   0.500
19874W        W92942   0.964   4.341   1.374
19875W        W92943  40.876  26.855  14.379
19876W        W92944  18.368  15.120  11.359
19877W        W92945   3.866  18.861  13.760
19878W        W92946   1.923  34.660   3.257
19879W        W92947  22.210   4.874  10.679
19880W        W92948   0.204   1.425  13.433
19881W        W92949  13.870  40.470  14.273
19882W        W92950  32.870  36.013  10.840
19883W        W92951  28.613   7.898   1.845
19884W        W92952  43.492  44.265  10.627
19885W        W92953  44.164  23.468   0.816
19886W        W92954  21.220   3.854  11.120
19887W        W92955   9.609   7.902  14.502
19888W        W92956  36.399  28.153   1.974
19889W        W92957  18.733  42.355  14.893
19890W        W92958  41.760  40.934   3.098
19891W        W92959  19.570  31.117   1.436
19892W        W92960   3.837  40.031   1.860
19893W        W92961  16.025  37.416   4.490
19894W        W92962  30.064  23.306  12.408
19895W        W92963  27.151   8.278   0.267
19896W        W92964  19.296  20.638   3.814
19897W        W92965   0.447   5.736   1.786
19898W        W92966  32.584   8.490   3.790
19899W        W92967  25.688  13.193   1.368
19900W        W92968  44.970  37.775  11.498
19901W        W92969  16.567  38.600   3.252
19902W        W92970  24.148  19.507   2.364
19903W        W92971  28.708   7.446   1.231
19904W        W92972  16.309  21.890  14.925
19905W        W92973   8.337  38.535   1.007
19906W        W92974  41.439   1.922   3.140
19907W        W92975  24.028  17.877   1.472
19908W        W92976  21.190  33.521  10.937
19909W        W92977   1.922   7.691  13.304
19910W        W92978  44.346  10.385   1.135
19911W        W92979  38.704  19.728  14.937
19912W        W92980  18.974  11.892  12.523
19913W        W92981   3.244  23.124  13.358
19914W        W92982   6.674  14.292  14.390
19915W        W92983  41.257   0.760   2.972
19916W        W92984  39.079  38.014  10.928
19917W        W92985  33.164  38.958   1.257
19918W        W92986  44.839  44.223  13.253
19919W        W92987  40.381   9.722   3.473
19920W        W92988  32.053  40.038   4.577
19921W        W92989   0.390  37.924  13.116
19922W        W92990  19.022  22.105  12.005
19923W        W92991  38.582   5.791  10.205
19924W        W92992  40.430  25.872  11.010
19925W        W92993   1.278  34.925   1.676
19926W        W92994  32.486   9.957   3.649
19927W        W92995  36.083   5.400   0.442
19928W        W92996  21.771   3.826  11.254
19929W        W92997   8.273  44.442  10.882
19930W        W92998   8.245  14.274  11.825
19931W        W92999  28.945   7.374  11.073
19932W        W93000   1.486   1.470   1.951
19933W        W93001  43.610   0.652   4.866
19934W        W93002  18.264  29.469  11.660
19935W        W93003  19.412  21.052  12.556
19936W        W93004  43.798   5.569  11.485
19937W        W93005  31.911   8.856   3.226
19938W        W93006  38.498  33.554  11.158
19939W        W93007   2.035  42.823   4.176
19940W        W93008  39.368  20.650  11.445
19941W        W93009  23.123  31.578   4.359
19942W        W93010  38.640   1.385  12.416
19943W        W93011  28.149  21.022   4.634
19944W        W93012  44.737  21.659   3.657
19945W        W93013   4.148  37.946  10.681
19946W        W93014  35.959   2.204   3.832
19947W        W93015   1.029  28.562   1.010
19948W        W93016  27.963   1.798   4.263
19949W        W93017   9.413  16.043  14.813
19950W        W93018  14.787  44.775   4.852
19951W        W93019  21.604  31.511   2.416
19952W        W93020  30.400  41.503   2.251
19953W        W93021   5.857   8.087   0.648
19954W        W93022  39.069  32.424  11.057
19955W        W93023  23.941  24.757   3.248
19956W        W93024  36.609  22.307  14.449
19957W        W93025  43.055   9.135  14.446
19958W        W93026  10.827  10.259   2.354
19959W        W93027  19.563  34.087  12.336
19960W        W93028  34.633  42.330   2.789
19961W        W93029   3.397  42.825  11.427
19962W        W93030  10.313   8.943  12.079
19963W        W93031  28.524  33.581   2.746
19964W        W93032   4.157  42.449   1.142
19965W        W93033  40.836  15.664   0.347
19966W        W93034   5.871   3.484   4.336
19967W        W93035  24.486  26.002   4.692
19968W        W93036  38.472  20.813  11.649
19969W        W93037   7.669   1.942  12.012
19970W        W93038  10.665  15.660   2.641
19971W        W93039  29.219  38.383   1.230
19972W        W93040  11.405  16.598  11.927
19973W        W93041  35.961  14.229   1.344
19974W        W93042  20.264   8.239   3.675
19975W        W93043   0.334  38.056   2.587
19976W        W93044  19.041  16.253  13.495
19977W        W93045  14.829   8.095   2.156
19978W        W93046  41.937   0.331  14.378
19979W        W93047   7.746  25.450  10.431
19980W        W93048   9.649  36.582  10.505
19981W        W93049  21.105  37.567   2.727
19982W        W93050  37.750   8.946   4.290
19983W        W93051  23.191  39.667   2.397
19984W        W93052  28.876  28.651   1.379
19985W        W93053   1.525   8.186  14.493
19986W        W93054   6.294  21.316  14.826
19987W        W93055  17.097  40.983   4.209
19988W        W93056   5.786  25.506  10.602
19989W        W93057   5.009  16.513   0.037
19990W        W93058  39.834  12.318   4.539
19991W        W93059  18.122  15.165   1.023
19992W        W93060  11.688   1.935  12.513
19993W        W93061  18.604  18.207  14.004
19994W        W93062  28.100  34.174  11.006
19995W        W93063  11.203  42.839   3.862
19996W        W93064  39.522  14.819   0.564
19997W        W93065  22.996   7.015  10.624
19998W        W93066  23.081  37.890  12.805
19999W        W93067  40.576   5.872  11.175
20000W        W93068   3.302   7.722  14.778
20001W        W93069  18.166  40.927   4.254
20002W        W93070   4.374  20.858  13.254
20003W        W93071  42.979  37.458  13.846
20004W        W93072  33.935  41.721  14.751
20005W        W93073   2.935   2.254  13.435
20006W        W93074  18.006  29.423   3.749
20007W        W93075  26.854  16.949  12.636
20008W        W93076  35.312  41.362   3.539
20009W        W93077  20.725  11.633  12.075
20010W        W93078   5.402  21.005   2.191
20011W        W93079  39.621  40.317   1.696
20012W        W93080   7.072  14.800   4.711
20013W        W93081   0.777   3.450  11.226
20014W        W93082  42.248  37.335  14.580
20015W        W93083   9.908   0.784   3.691
20016W        W93084  40.412   3.387  12.457
20017W        W93085  39.504  42.878   2.236
20018W        W93086  26.728  25.783   4.171
20019W        W93087   9.151  25.931  12.926
20020W        W93088  13.396  34.115   4.013
20021W        W93089  35.602  30.694  14.428
20022W        W93090  35.378  10.496   4.651
20023W        W93091   1.449  26.980  11.978
20024W        W93092  13.564  18.612   4.998
20025W        W93093  17.368  42.832   0.263
20026W        W93094  23.041  15.569   2.295
20027W        W93095  25.174  23.780   3.347
20028W        W93096  37.002  26.558  14.026
20029W        W93097  23.789   6.671  11.927
20030W        W93098  22.667  44.247  14.020
20031W        W93099  26.229  44.830  14.319
20032W        W93100  25.567   0.645   3.228
20033W        W93101  33.459  41.346  10.519
20034W        W93102  21.611  16.049  10.725
20035W        W93103  19.697  41.845  13.020
20036W        W93104  30.805  12.574  11.087
20037W        W93105  21.973  11.661  13.432
20038W        W93106  36.977   3.184  13.451
20039W        W93107  26.588  20.047  13.492
20040W        W93108   8.372  26.347  13.527
20041W        W93109   8.225   2.370   1.676
20042W        W93110  40.350  27.632   1.313
20043W        W93111  30.252  35.831   2.161
20044W        W93112  37.783  38.433  14.953
20045W        W93113  31.595  15.346  11.846
20046W        W93114  25.570   8.055  12.524
20047W        W93115  36.816  44.400   1.120
20048W        W93116  16.533   6.589   0.853
20049W        W93117  35.330  42.602   4.501
20050W        W93118  43.775  17.220  11.624
20051W        W93119  34.034  18.631   0.820
20052W        W93120   0.954  16.807   2.163
20053W        W93121   0.405   9.202  13.428
20054W        W93122  14.841  31.524  11.006
20055W        W93123  20.368  12.415   3.150
20056W        W93124   3.966  35.097   1.881
20057W        W93125   1.193  31.698  11.173
20058W        W93126  24.502  32.190   1.821
20059W        W93127  22.096  13.805  11.198
20060W        W93128  16.554   0.965  12.607
20061W        W93129  37.905  29.063   0.727
20062W        W93130  40.933  27.191   4.178
20063W        W93131  23.303  31.211  13.897
20064W        W93132   1.348  32.902   1.713
20065W        W93133  31.082  12.523  13.498
20066W        W93134   3.269  12.681   1.005
20067W        W93135  23.227  11.640   4.095
20068W        W93136  41.024  40.985   1.392
20069W        W93137  23.195  41.477  14.403
20070W        W93138  17.293  25.458   3.904
20071W        W93139   2.778  35.482  12.925
20072W        W93140   2.626  25.818  13.298
20073W        W93141  39.550  35.887   1.183
20074W        W93142  19.134   3.917  11.851
20075W        W93143   3.945   8.634   3.726
20076W        W93144   8.683  15.167  10.478
20077W        W93145   1.338   6.347  13.408
20078W        W93146   0.053  29.309  13.514
20079W        W93147  25.505  11.424  12.070
20080W        W93148   0.907  43.224   3.198
20081W        W93149  34.954  39.100  12.435
20082W        W93150  24.541  37.217   3.741
20083W        W93151  13.190  38.445  13.530
20084W        W93152  31.161  10.632  11.903
20085W        W93153  29.047  26.330  12.563
20086W        W93154  20.196  38.751   3.838
20087W        W93155  42.245   5.327  13.962
20088W        W93156  32.153   0.357  11.081
20089W        W93157  33.503  36.952  13.472
20090W        W93158  36.436   0.881  11.173
20091W        W93159  33.664  36.021  13.034
20092W        W93160  43.048  16.433   1.803
20093W        W93161  40.535  40.805  13.450
20094W        W93162  30.188  28.543   1.614
20095W        W93163   4.114   3.888   3.780
20096W        W93164   2.919  17.153  13.329
20097W        W93165  35.214   2.847  11.972
20098W        W93166  15.456  18.193  13.627
20099W        W93167   0.428   2.303  11.224
20100W        W93168  20.485   3.127   4.467
20101W        W93169  35.821   1.944  12.971
20102W        W93170  26.003   7.965  14.407
20103W        W93171  22.179   8.850   2.200
20104W        W93172  15.426  43.471   1.676
20105W        W93173  37.349  42.510   2.298
20106W        W93174  39.994  35.463  14.773
20107W        W93175   2.672  41.415   0.680
20108W        W93176   8.745   7.080   2.314
20109W        W93177  44.876  10.421  14.000
20110W        W93178  34.174  33.097  12.382
20111W        W93179  18.759   1.150   0.971
20112W        W93180  33.713  42.832  13.020
20113W        W93181  37.887  21.602   4.149
20114W        W93182  25.174  24.661  10.667
20115W        W93183  30.534   7.431   2.738
20116W        W93184   0.197   4.343   1.652
20117W        W93185  25.724   4.850  12.848
20118W        W93186  13.811  14.015  12.597
20119W        W93187  44.816  19.721  14.195
20120W        W93188  36.795   9.288   2.680
20121W        W93189  39.865  21.237   3.580
20122W        W93190  28.769  35.836   1.759
20123W        W93191  44.583  26.986   4.275
20124W        W93192  15.482  11.794   4.619
20125W        W93193  19.325  22.782  11.777
20126W        W93194  23.757  37.049  13.469
20127W        W93195  19.103   4.820  14.269
20128W        W93196  24.644  39.571  11.749
20129W        W93197   5.395  10.732  11.990
20130W        W93198  38.730  13.729   2.760
20131W        W93199  29.215  28.769   4.188
20132W        W93200  19.780   7.568   2.816
20133W        W93201  40.296  39.334  14.379
20134W        W93202  18.293  31.866  10.479
20135W        W93203  27.494  17.723  11.412
20136W        W93204  17.099   2.031   3.279
20137W        W93205  28.506  14.639  13.978
20138W        W93206  41.570  30.431  14.569
20139W        W93207  39.005  30.578   4.341
20140W        W93208  38.798  19.310   0.257
20141W        W93209  34.613  31.475   3.136
20142W        W93210  32.473   4.105  14.747
20143W        W93211  33.427  15.753   4.980
20144W        W93212  16.731  20.496   1.198
20145W        W93213   6.169  43.565  14.549
20146W        W93214  13.767  43.847   3.237
20147W        W93215  30.902   7.184   4.206
20148W        W93216  30.986  20.134   4.880
20149W        W93217  20.372   0.358   3.849
20150W        W93218  22.773  29.067  14.906
20151W        W93219  14.105  17.757  13.538
20152W        W93220  38.241  31.112  11.732
20153W        W93221  12.881   5.451   0.811
20154W        W93222   7.696  43.909   0.990
20155W        W93223   0.415  43.538  13.121
20156W        W93224  18.796  39.819  14.373
20157W        W93225  19.078  26.048   4.079
20158W        W93226  21.865  30.264   4.177
20159W        W93227  43.559  39.772  11.426
20160W        W93228   4.808  34.796  12.397
20161W        W93229  39.088  31.145  13.723
20162W        W93230  41.321  33.424  11.602
20163W        W93231  37.484  22.996  11.969
20164W        W93232  28.067   8.918   4.079
20165W        W93233  41.760  44.310   2.005
20166W        W93234  15.602  26.071  11.882
20167W        W93235  41.458   1.469  11.147
20168W        W93236  16.804   5.353  14.763
20169W        W93237   8.410  14.665   4.036
20170W        W93238  43.453  15.821  11.388
20171W        W93239   8.049  41.690   2.800
20172W        W93240  29.676  41.332  11.107
20173W        W93241   7.847  35.392   1.688
20174W        W93242  28.572  36.962   1.402
20175W        W93243  12.224  14.812  14.321
20176W        W93244  27.784   7.501   0.911
20177W        W93245   8.252  12.787   1.933
20178W        W93246  17.318  31.837  14.140
20179W        W93247  17.059  17.149   5.042
20180W        W93248  35.352  14.325  12.127
20181W        W93249   5.675  15.790   0.502
20182W        W93250  40.680  42.046  13.582
20183W        W93251  36.658  34.639   4.530
20184W        W93252  28.341  44.833   4.596
20185W        W93253  10.349  17.282  11.214
20186W        W93254  17.105   3.803   1.283
20187W        W93255   9.846  27.757   0.718
20188W        W93256   4.714  33.504   1.768
20189W        W93257   1.807  24.075   4.523
20190W        W93258   2.786  37.586   1.704
20191W        W93259  25.760  18.134   1.815
20192W        W93260  37.535   6.779   2.194
20193W        W93261  18.730  35.979  14.641
20194W        W93262  12.352   2.367  14.924
20195W        W93263  28.821  10.227  12.144
20196W        W93264  30.102   9.743   4.055
20197W        W93265  41.899  34.638  13.788
20198W        W93266  41.548  29.495  13.294
20199W        W93267  19.397  17.170   2.406
20200W        W93268  27.496   7.580   0.449
20201W        W93269  39.921  16.706  12.427
20202W        W93270  25.107  21.133  11.822
20203W        W93271  41.552   4.657  13.946
20204W        W93272  26.017   8.379   2.348
20205W        W93273  42.546  38.824   0.314
20206W        W93274  13.888  17.446  11.894
20207W        W93275   2.915  22.204   3.696
20208W        W93276  16.148  28.545   1.782
20209W        W93277  21.155  41.833   0.931
20210W        W93278   6.326  42.715   2.672
20211W        W93279   3.617  40.496   2.754
20212W        W93280   4.922  27.604   3.287
20213W        W93281  19.100   1.453  10.662
20214W        W93282  29.590   4.337  13.619
20215W        W93283  43.350   1.314   0.829
20216W        W93284  34.951  28.426  10.002
20217W        W93285  35.532  15.311   2.309
20218W        W93286  43.186  44.010  13.913
20219W        W93287  10.222  25.627  13.787
20220W        W93288  14.691  35.668  10.560
20221W        W93289  23.232  13.742  13.094
20222W        W93290  19.469  36.954  13.956
20223W        W93291  26.587  15.758  14.736
20224W        W93292   8.689   2.397   2.471
20225W        W93293  24.604   2.738   2.364
20226W        W93294  16.969  37.334  14.546
20227W        W93295   7.923   1.350   1.406
20228W        W93296  20.211  26.664  10.719
20229W        W93297  22.029  19.455  12.553
20230W        W93298  33.521  13.046  10.796
20231W        W93299  18.885  39.398  12.352
20232W        W93300  31.166  28.348   1.616
20233W        W93301  14.639  13.126  13.881
20234W        W93302  37.401  35.344  11.145
20235W        W93303  11.733  12.133  14.411
20236W        W93304  12.860  36.816   1.640
20237W        W93305   1.743  13.711  11.522
20238W        W93306  38.497   1.961  13.995
20239W        W93307  39.804   6.721  13.339
20240W        W93308  42.656  44.031  13.966
20241W        W93309  42.439   4.492   4.647
20242W        W93310  20.231  36.506   4.908
20243W        W93311   1.461  40.915   0.962
20244W        W93312  12.513  25.680  10.715
20245W        W93313  30.915  22.940  11.892
20246W        W93314   6.845   7.887  14.846
20247W        W93315  40.366  10.686  12.578
20248W        W93316   6.716  38.093  12.066
20249W        W93317   2.302  26.116   2.389
20250W        W93318  25.037  13.549  14.482
20251W        W93319  14.351   5.915   0.927
20252W        W93320  12.670   8.586  11.062
20253W        W93321  25.977  23.800   2.998
20254W        W93322  14.073  33.411   4.162
20255W        W93323  13.193  43.540   1.817
20256W        W93324   4.425   6.877   1.546
20257W        W93325   1.196  31.591   2.829
20258W        W93326  28.610  25.674   0.672
20259W        W93327  31.652   1.780  13.125
20260W        W93328  11.632  13.071  14.289
20261W        W93329   1.099  25.160  10.304
20262W        W93330  20.166  42.739   4.181
20263W        W93331   2.127  42.589  12.863
20264W        W93332  19.997   5.328  13.020
20265W        W93333  24.170   9.739  14.884
20266W        W93334   3.037  19.488  13.810
20267W        W93335   1.281  44.387   4.907
20268W        W93336  30.328  24.320   4.725
20269W        W93337  14.089  38.870   1.455
20270W        W93338  33.258   4.264   3.259
20271W        W93339  20.317   3.186   3.784
20272W        W93340   0.243  31.486   2.468
20273W        W93341  39.646   7.399   0.986
20274W        W93342  20.069  20.171   0.332
20275W        W93343  11.525  19.795   1.792
20276W        W93344  39.299  42.963   3.638
20277W        W93345  19.294   1.659  11.996
20278W        W93346   6.799  38.080   1.336
20279W        W93347   9.787  22.222   1.672
20280W        W93348  20.280  43.559  14.903
20281W        W93349  33.974  15.277   2.206
20282W        W93350   0.308  39.755  11.159
20283W        W93351  20.354  36.605  12.012
20284W        W93352  26.203  24.300  11.338
20285W        W93353  17.665  25.763   4.306
20286W        W93354  31.617  43.278   0.900
20287W        W93355  28.460  39.610   2.676
20288W        W93356  25.860  28.249  12.870
20289W        W93357  22.786  23.468   1.308
20290W        W93358  11.510  14.112  10.584
20291W        W93359   6.589   6.718  13.581
20292W        W93360  25.986  39.566  11.562
20293W        W93361  43.781  12.203   3.892
20294W        W93362   2.033  33.577  10.496
20295W        W93363  37.307   9.780  14.438
20296W        W93364   1.531  40.990   0.419
20297W        W93365  11.183   0.473  13.896
20298W        W93366  38.495  40.818  10.748
20299W        W93367  22.059  12.358   2.747
20300W        W93368   0.725  10.741  13.412
20301W        W93369   4.352  21.516   3.197
20302W        W93370  33.588   3.242   3.077
20303W        W93371  31.924   7.929  14.032
20304W        W93372  23.175   0.717   0.964
20305W        W93373  35.309  12.310  14.832
20306W        W93374  25.465  23.225  12.935
20307W        W93375  37.918  26.562   1.268
20308W        W93376  39.066  42.027  14.411
20309W        W93377  39.023  38.808   3.765
20310W        W93378  16.920   6.652   3.688
20311W        W93379  37.021   3.359  11.189
20312W        W93380  36.118   6.788   1.508
20313W        W93381  29.541  18.093   3.066
20314W        W93382  39.339  44.046   0.516
20315W        W93383  11.633  21.403  12.025
20316W        W93384  10.234  29.256  12.906
20317W        W93385  41.070   6.446   0.041
20318W        W93386  18.194  28.493   2.387
20319W        W93387  24.221   5.789   0.671
20320W        W93388  35.030   0.881   3.382
20321W        W93389  12.942   6.391   3.871
20322W        W93390   0.949  31.313   3.199
20323W        W93391   0.012  37.615  14.013
20324W        W93392  30.185  25.516  13.841
20325W        W93393   0.202   3.871   0.291
20326W        W93394  27.890  37.507   0.205
20327W        W93395  16.822   4.185   3.621
20328W        W93396  42.481   1.835  11.545
20329W        W93397  18.555  29.076  10.770
20330W        W93398  38.979  15.839   1.795
20331W        W93399  35.340  25.237  11.992
20332W        W93400  20.805  31.899  13.851
20333W        W93401  13.232   8.195  14.781
20334W        W93402   7.186  17.807   0.453
20335W        W93403  40.204   9.851   0.328
20336W        W93404   9.435   0.778  13.897
20337W        W93405  35.136   5.970  12.891
20338W        W93406  18.195   2.034  11.533
20339W        W93407  21.292  23.848  11.586
20340W        W93408   3.333  37.963   3.391
20341W        W93409  21.778  38.199   4.189
20342W        W93410   2.875   8.906   4.330
20343W        W93411  39.838  39.243  14.613
20344W        W93412  27.175  31.891   2.805
20345W        W93413  14.250   9.388  12.920
20346W        W93414  22.069  43.352   4.712
20347W        W93415  35.125  31.537   3.175
20348W        W93416  17.710  10.486   2.216
20349W        W93417   2.873  20.189   0.306
20350W        W93418   6.337   7.379   0.438
20351W        W93419  16.177  16.973   3.244
20352W        W93420  13.200  22.605  14.071
20353W        W93421  33.624  43.751  12.119
20354W        W93422  23.229  15.237  14.347
20355W        W93423  35.668  24.582   1.790
20356W        W93424  29.384  11.852  12.116
20357W        W93425   7.506  16.799   1.760
20358W        W93426  15.731  38.641   2.835
20359W        W93427  42.114  38.603  10.967
20360W        W93428  15.675  36.075   4.772
20361W        W93429   9.618  40.261  13.533
20362W        W93430   5.722  33.889   4.641
20363W        W93431  10.833   8.377   0.616
20364W        W93432  39.352  34.469   4.937
20365W        W93433  40.367  38.769  13.442
20366W        W93434  22.290  34.328  11.521
20367W        W93435   6.413  30.080   1.797
20368W        W93436   1.795  29.244   4.122
20369W        W93437  26.239  21.698   2.204
20370W        W93438  37.937   1.087   4.977
20371W        W93439  40.505   8.208   4.509
20372W        W93440  26.554  17.510  14.363
20373W        W93441  18.540  38.477  14.339
20374W        W93442  33.812   1.754  11.909
20375W        W93443  18.231  12.681   1.331
20376W        W93444  21.374  12.667   2.506
20377W        W93445  16.147  13.356  14.893
20378W        W93446   4.649   1.245  12.415
20379W        W93447  23.948  32.851   2.673
20380W        W93448  11.165  20.575   3.647
20381W        W93449  17.056  38.059   0.339
20382W        W93450   5.328  37.081  11.085
20383W        W93451  21.094  37.068   4.270
20384W        W93452  44.521  11.295  13.359
20385W        W93453   7.985  27.474   0.426
20386W        W93454  44.142  10.961  11.310
20387W        W93455  23.328  26.014   1.275
20388W        W93456  31.260  40.972  10.988
20389W        W93457   5.185  30.191   2.258
20390W        W93458  32.315   6.175   3.309
20391W        W93459  21.151  15.122  10.579
20392W        W93460  28.224  41.556  12.670
20393W        W93461   7.083   5.964  11.549
20394W        W93462  27.452  31.013  13.352
20395W        W93463  32.914  30.898   1.327
20396W        W93464   6.482   0.222  11.484
20397W        W93465   7.609  28.436  14.481
20398W        W93466   2.974  20.083   3.813
20399W        W93467  34.330  37.448  11.912
20400W        W93468  38.266  22.370   3.123
20401W        W93469   0.884  39.028   4.022
20402W        W93470  43.839  34.952   4.547
20403W        W93471   0.569  10.792   3.193
20404W        W93472   8.287  43.594  12.140
20405W        W93473   2.672  31.627   0.347
20406W        W93474   9.322  28.176   3.130
20407W        W93475   2.361  23.633  12.028
20408W        W93476  39.501   2.623  13.669
20409W        W93477  11.386  17.252  11.582
20410W        W93478   3.267  15.371   4.316
20411W        W93479   8.071   3.896   3.374
20412W        W93480  29.128  12.017  13.395
20413W        W93481  13.926  42.039   3.195
20414W        W93482  30.661   3.924  12.366
20415W        W93483  33.612  26.162   0.346
20416W        W93484  16.631  36.408   1.958
20417W        W93485  29.224  26.650   3.631
20418W        W93486  38.950  20.197   3.807
20419W        W93487   5.796   3.745  13.846
20420W        W93488  19.880   4.308  10.713
20421W        W93489  28.621  44.008   3.291
20422W        W93490  33.480  26.563   4.112
20423W        W93491  12.829  31.924   0.491
20424W        W93492  14.557  11.351  14.339
20425W        W93493  44.528  42.469   0.787
20426W        W93494  25.416  26.844   3.487
20427W        W93495   7.831  17.516   0.177
20428W        W93496  13.596  20.881   0.284
20429W        W93497  23.098   9.049   3.684
20430W        W93498   1.907  34.374   3.704
20431W        W93499  22.159  15.318   3.121
20432W        W93500  31.743   5.784  12.094
20433W        W93501  37.477  32.072   0.741
20434W        W93502  41.265  16.569   1.483
20435W        W93503  17.145  33.205   3.691
20436W        W93504  11.457   5.367   4.946
20437W        W93505  11.093  41.488  10.702
20438W        W93506  23.983   5.215  14.034
20439W        W93507  31.773  17.615  11.774
20440W        W93508  12.838   0.700  12.696
20441W        W93509  24.668  30.750   1.759
20442W        W93510   0.267   0.502   4.594
20443W        W93511  34.806   3.929   3.694
20444W        W93512  15.050  29.918  13.569
20445W        W93513  40.064  11.549   3.966
20446W        W93514   9.558  32.275  14.317
20447W        W93515  22.873  26.264  12.994
20448W        W93516  30.721  18.083   2.265
20449W        W93517   0.439  22.112  13.901
20450W        W93518   5.247  29.085  14.506
20451W        W93519  36.505  41.723  13.505
20452W        W93520  26.444  14.670  13.863
20453W        W93521  14.333  14.134  14.006
20454W        W93522  29.942   4.010  14.285
20455W        W93523  40.655  41.157   2.208
20456W        W93524  20.589  33.204  12.861
20457W        W93525  20.166  21.598   1.164
20458W        W93526  16.056  28.406   2.798
20459W        W93527  41.048   5.082  11.294
20460W        W93528  12.280  27.402   3.620
20461W        W93529  28.958   3.038   4.635
20462W        W93530  29.694   2.979  10.644
20463W        W93531  33.849  12.110   1.939
20464W        W93532  37.471   2.663   0.326
20465W        W93533  11.219  28.649   4.567
20466W        W93534  39.393  32.978  13.606
20467W        W93535   4.687   5.205   0.401
20468W        W93536  41.875  17.025  12.957
20469W        W93537  26.721  26.896   3.694
20470W        W93538   1.398  10.909   2.148
20471W        W93539   9.195  19.734  13.976
20472W        W93540  29.483  19.608  10.269
20473W        W93541  22.540  34.683   2.823
20474W        W93542   9.529  41.459   3.198
20475W        W93543  17.243   5.569  14.949
20476W        W93544  23.666  31.042   2.861
20477W        W93545  10.170  27.767   2.802
20478W        W93546   8.454  23.884   3.418
20479W        W93547  43.291  12.308   2.621
20480W        W93548  10.201  10.718  11.743
20481W        W93549  17.544  39.067  13.515
20482W        W93550  13.234  24.968  10.167
20483W        W93551  26.498  29.128  13.957
20484W        W93552  21.197  38.302  11.613
20485W        W93553  22.895  23.230   3.507
20486W        W93554  24.525  29.350   4.419
20487W        W93555  31.375  27.140   0.383
20488W        W93556  10.458  42.374   2.202
20489W        W93557   3.712  11.077  11.908
20490W        W93558  15.242  12.267   5.288
20491W        W93559  10.880  20.743  12.468
20492W        W93560  39.888  38.266   4.631
20493W        W93561  21.106  32.567   0.688
20494W        W93562   2.488  34.893  10.780
20495W        W93563   3.989  18.617   0.866
20496W        W93564   1.388  13.877  14.958
20497W        W93565  20.589  33.766  11.110
20498W        W93566   7.758   8.791   4.757
20499W        W93567   9.457  34.586  10.693
20500W        W93568   7.387  41.874   0.320
20501W        W93569  11.302  42.942  12.609
20502W        W93570  23.591  22.550   1.718
20503W        W93571   5.780  33.419   4.078
20504W        W93572   9.281  12.616  14.681
20505W        W93573  43.957  34.720   0.302
20506W        W93574  25.035  30.561   0.923
20507W        W93575  30.396   7.122  13.838
20508W        W93576  17.948   5.962   3.143
20509W        W93577  20.293   2.936  14.114
20510W        W93578  26.270   4.336   3.627
20511W        W93579   0.339  39.069   4.107
20512W        W93580   0.898  21.231   0.524
20513W        W93581   7.788   6.940   2.753
20514W        W93582  11.097  16.034  12.693
20515W        W93583  35.074   8.946  10.250
20516W        W93584  26.491  43.345  14.452
20517W        W93585  23.731  27.944  12.147
20518W        W93586  31.648  40.181  14.419
20519W        W93587  30.174  20.094  14.973
20520W        W93588  17.359  17.622  13.766
20521W        W93589  23.881  24.407   0.842
20522W        W93590  37.336   8.721   0.835
20523W        W93591  11.668  15.327  10.775
20524W        W93592   5.894  37.100   4.359
20525W        W93593  13.245  29.400  12.934
20526W        W93594   9.356  16.602   2.476
20527W        W93595  15.317  35.361   2.888
20528W        W93596   8.225  25.839  11.118
20529W        W93597   7.803  35.323   3.147
20530W        W93598  13.672  17.536  14.375
20531W        W93599   6.611  29.916   1.324
20532W        W93600  24.930   2.009   0.770
20533W        W93601  20.091  44.379  12.996
20534W        W93602  34.100  18.825  14.782
20535W        W93603  34.836   2.447   0.151
20536W        W93604  21.714  36.393  12.080
20537W        W93605  43.930  37.938  11.631
20538W        W93606  43.460  37.851   2.804
20539W        W93607  29.103  21.136   1.315
20540W        W93608  29.179   0.727  14.977
20541W        W93609  16.182  30.222  14.433
20542W        W93610   3.564  38.583  11.520
20543W        W93611  23.652  27.947   3.329
20544W        W93612  31.425  11.734   4.281
20545W        W93613  39.903  24.024   0.845
20546W        W93614  19.056  17.144   1.547
20547W        W93615  26.629  23.650   0.366
20548W        W93616  23.101  12.666   4.425
20549W        W93617  14.640  27.629  10.668
20550W        W93618  36.621  35.588  12.598
20551W        W93619  30.298  12.643  11.110
20552W        W93620  25.950  25.657   3.840
20553W        W93621  23.726   4.628   2.823
20554W        W93622  10.208  12.571   2.814
20555W        W93623  23.459   6.112   0.328
20556W        W93624  23.392  40.839  13.175
20557W        W93625  17.001  37.534   0.439
20558W        W93626  44.487  32.142  12.998
20559W        W93627  41.955  41.996   0.462
20560W        W93628  13.839  38.003  14.343
20561W        W93629   0.131   3.172  12.440
20562W        W93630  16.454  15.700   4.367
20563W        W93631   5.641  10.927  11.564
20564W        W93632  39.406  21.331  11.622
20565W        W93633  40.961  29.991   3.709
20566W        W93634   5.346  39.578  10.725
20567W        W93635  17.954   0.808   3.318
20568W        W93636  14.646   4.358  12.801
20569W        W93637  25.958  33.285   1.326
20570W        W93638  36.518   8.327  11.402
20571W        W93639   4.716  41.448   3.545
20572W        W93640  44.713  26.664   2.700
20573W        W93641  44.931  10.882   0.012
20574W        W93642  30.455  25.644  11.211
20575W        W93643   4.882  25.049   4.348
20576W        W93644  16.088  29.093  12.574
20577W        W93645  42.748   3.396  12.257
20578W        W93646  40.352  20.550   0.384
20579W        W93647  35.574  11.103   3.401
20580W        W93648  41.930  19.342   3.547
20581W        W93649  17.913   3.822   4.712
20582W        W93650   8.099   1.710  10.650
20583W        W93651  30.912  33.252   5.081
20584W        W93652  25.910  22.586  14.978
20585W        W93653  42.526  15.624   2.246
20586W        W93654  24.230   4.182   0.358
20587W        W93655  17.051  40.225  10.861
20588W        W93656  40.995  22.556  12.548
20589W        W93657  31.343  34.591   0.001
20590W        W93658  28.794  13.326   4.001
20591W        W93659  13.734  14.553  14.899
20592W        W93660  29.180  41.519   3.658
20593W        W93661  34.309   4.356   1.825
20594W        W93662   5.098   0.028  14.044
20595W        W93663  41.767  25.529  11.615
20596W        W93664  29.199  27.109   3.841
20597W        W93665  10.359  25.179   0.207
20598W        W93666   3.868  16.396   3.288
20599W        W93667  19.117   7.719   1.425
20600W        W93668  30.393   8.791   1.986
20601W        W93669  17.414  34.182   1.999
20602W        W93670  15.162  21.772   4.744
20603W        W93671  22.202   3.682   0.438
20604W        W93672  24.168  44.235   3.155
20605W        W93673  31.845   9.171  14.311
20606W        W93674   4.899  36.217   2.551
20607W        W93675  18.597  28.209  12.155
20608W        W93676  25.964  12.356  13.844
20609W        W93677   1.288  37.903  10.924
20610W        W93678  19.431   0.768   4.070
20611W        W93679  38.818   4.971  12.022
20612W        W93680  31.086  38.279  12.810
20613W        W93681  37.314  10.851   3.110
20614W        W93682   2.511  15.535   4.508
20615W        W93683  17.258  20.104  13.653
20616W        W93684  44.002   5.948  14.406
20617W        W93685   0.460   2.781  14.965
20618W        W93686  38.945  43.258  10.694
20619W        W93687  19.908  21.488  11.134
20620W        W93688  24.537  31.403   4.712
20621W        W93689   7.204   9.751  13.248
20622W        W93690   9.815  25.450  12.168
20623W        W93691  34.413  15.757   1.882
20624W        W93692   1.339  33.247   3.152
20625W        W93693   3.293  25.036  13.558
20626W        W93694  37.708  15.820  11.649
20627W        W93695   5.483  42.397  10.845
20628W        W93696  20.759  35.328  11.007
20629W        W93697  31.994  43.778   4.199
20630W        W93698   3.199  34.773   4.819
20631W        W93699  41.982  21.448  13.513
20632W        W93700  16.342  12.554  11.092
20633W        W93701   5.611  44.904  14.989
20634W        W93702  12.232  12.586  12.415
20635W        W93703  12.693  23.857  13.838
20636W        W93704  27.523  12.920   2.621
20637W        W93705  41.779  15.774   5.155
20638W        W93706  14.820  33.485   3.043
20639W        W93707  15.405   9.150   2.227
20640W        W93708  36.615   5.260  12.632
20641W        W93709  44.812  23.298  13.975
20642W        W93710  13.029  36.515   4.034
20643W        W93711  37.426   7.384  11.225
20644W        W93712  15.673  11.912  13.028
20645W        W93713  38.497  43.912   1.027
20646W        W93714  15.664  27.887  11.077
20647W        W93715   8.162  38.039  11.840
20648W        W93716   8.763  10.078  10.333
20649W        W93717  27.603  25.947  12.464
20650W        W93718  32.058   2.037   4.596
20651W        W93719  39.475  38.488  13.830
20652W        W93720   2.388  13.505   4.528
20653W        W93721  35.436  35.628  11.755
20654W        W93722  10.194  41.359   1.752
20655W        W93723  33.077  21.570  14.906
20656W        W93724  28.392  20.791  13.727
20657W        W93725  11.729  42.713  12.482
20658W        W93726  42.446   8.019   2.660
20659W        W93727  33.929  14.581  13.582
20660W        W93728  28.480   8.345  12.436
20661W        W93729  38.618  32.354  13.533
20662W        W93730   7.902  19.424   2.723
20663W        W93731  34.856  31.587   9.832
20664W        W93732  23.466  28.943  12.033
20665W        W93733  38.769  22.068  10.591
20666W        W93734  21.297  43.249  10.609
20667W        W93735  28.071  43.891  12.043
20668W        W93736  11.738   3.856   1.923
20669W        W93737  35.492  14.642  10.898
20670W        W93738  23.754  25.645   3.346
20671W        W93739   9.820  10.220  14.711
20672W        W93740  26.914  32.670  12.000
20673W        W93741   8.461  18.727   5.003
20674W        W93742  42.418  18.450  14.945
20675W        W93743  30.181  30.623  12.370
20676W        W93744  28.998  32.781  14.919
20677W        W93745  16.116   4.368  14.431
20678W        W93746  16.301  13.678  13.504
20679W        W93747  26.476  13.616  10.648
20680W        W93748  16.570  21.515  10.784
20681W        W93749  10.867  18.906  14.868
20682W        W93750  32.025  21.150   3.145
20683W        W93751  12.562  36.941  13.831
20684W        W93752  44.937   2.421  14.067
20685W        W93753  23.219  28.597   0.315
20686W        W93754  41.363   2.417   0.917
20687W        W93755  17.576  36.319   3.255
20688W        W93756   1.817  10.814  10.844
20689W        W93757   2.444   3.920  14.594
20690W        W93758  34.025  35.324  11.473
20691W        W93759   9.826  27.609  12.106
20692W        W93760  39.888  26.617   4.726
20693W        W93761  20.483  30.409  12.850
20694W        W93762  28.484  22.042   3.176
20695W        W93763   8.686  20.307   2.102
20696W        W93764  32.555  36.821  11.190
20697W        W93765  44.809  12.791  10.707
20698W        W93766  28.854  37.662  12.965
20699W        W93767  21.679  24.775  14.936
20700W        W93768  18.172  26.229  13.862
20701W        W93769   6.875  17.112   2.365
20702W        W93770  28.895  28.630   0.003
20703W        W93771  21.594  30.918  12.025
20704W        W93772  11.200  25.502   0.288
20705W        W93773   5.180  27.518  14.798
20706W        W93774  23.417  14.099   1.883
20707W        W93775  29.063   3.453   0.964
20708W        W93776  26.212  44.876  13.437
20709W        W93777  33.099  30.849  12.884
20710W        W93778  31.510  15.058  12.907
20711W        W93779  43.325  30.512  12.492
20712W        W93780  31.261   1.802   2.464
20713W        W93781  22.921   2.384  11.525
20714W        W93782  34.844   5.119   0.016
20715W        W93783  10.673  42.493   2.737
20716W        W93784   2.130  12.774   1.867
20717W        W93785  13.780   2.637  14.864
20718W        W93786  38.821   2.021   2.299
20719W        W93787   9.965  33.533  14.861
20720W        W93788  27.585  43.736  11.953
20721W        W93789  25.146  38.210  10.701
20722W        W93790  27.510  17.720  10.906
20723W        W93791  33.089  39.482   4.232
20724W        W93792  34.665  44.783  14.368
20725W        W93793  37.978  39.790  14.032
20726W        W93794  15.674  21.733  14.819
20727W        W93795  27.304  17.730   2.175
20728W        W93796  17.628  27.998  11.948
20729W        W93797  14.225  27.111   2.556
20730W        W93798   1.155   8.912  11.406
20731W        W93799   9.877  35.462  10.444
20732W        W93800  10.143  19.042  14.232
20733W        W93801  18.610  36.594  11.163
20734W        W93802  29.577  16.389   0.401
20735W        W93803  14.606   7.764   4.174
20736W        W93804  36.312  29.621  14.996
20737W        W93805  19.119  18.568   1.029
20738W        W93806  44.785  17.011   0.990
20739W        W93807  37.997  39.009   2.692
20740W        W93808  24.636  36.825   1.844
20741W        W93809   8.372  12.226   0.789
20742W        W93810  25.226  10.345  14.528
20743W        W93811   2.648  11.173  14.628
20744W        W93812  18.347  36.186  13.261
20745W        W93813  39.452   9.369   5.026
20746W        W93814  31.655  15.939   4.472
20747W        W93815  38.957  26.012   3.759
20748W        W93816   5.153  42.053   3.544
20749W        W93817   8.220  38.478   2.860
20750W        W93818  11.869   4.356  14.270
20751W        W93819   6.326  39.476   0.027
20752W        W93820  18.564  30.510   4.513
20753W        W93821  39.123   0.022   4.466
20754W        W93822   2.782  23.689   2.220
20755W        W93823  10.403  14.027   0.128
20756W        W93824   8.257   5.160  14.195
20757W        W93825   2.591  20.417   2.355
20758W        W93826  26.368  41.604  11.968
20759W        W93827  31.640  32.846   3.188
20760W        W93828  35.534  13.517  12.540
20761W        W93829  27.169  17.055  10.738
20762W        W93830  16.766  21.519  13.899
20763W        W93831  21.096   6.942   0.864
20764W        W93832  39.885  40.395   0.302
20765W        W93833  36.371  35.231  13.970
20766W        W93834  43.393  40.009  13.741
20767W        W93835  18.771  42.352  13.904
20768W        W93836  32.630  32.495  12.031
20769W        W93837  22.461  12.386  12.233
20770W        W93838   6.894  19.579  11.654
20771W        W93839  11.433  33.476  14.819
20772W        W93840  21.648  31.223   0.859
20773W        W93841  36.447  31.386   2.972
20774W        W93842  21.688  22.550   4.458
20775W        W93843  40.103  28.489   0.804
20776W        W93844  20.843  29.432   2.479
20777W        W93845  26.154  14.213  13.981
20778W        W93846   5.255   3.845  10.954
20779W        W93847  14.094  11.101   4.562
20780W        W93848  22.809  28.185   9.900
20781W        W93849  39.925   5.423   4.725
20782W        W93850   0.458  33.912   3.546
20783W        W93851  35.053  42.505  14.410
20784W        W93852  16.677  12.923   3.588
20785W        W93853  33.005  31.682   0.471
20786W        W93854  35.099   8.002   1.702
20787W        W93855   6.581  36.617   3.190
20788W        W93856  27.169  32.396   2.022
20789W        W93857  21.428  15.560  10.633
20790W        W93858  11.723   9.225   3.715
20791W        W93859  41.361  19.082   2.379
20792W        W93860   4.771  34.494  10.722
20793W        W93861  34.039  22.101   2.696
20794W        W93862  42.878  41.604   3.664
20795W        W93863   8.965  28.889  13.800
20796W        W93864  26.075  41.838   2.485
20797W        W93865   3.612  28.225   2.225
20798W        W93866  28.103  37.835  12.044
20799W        W93867  21.659  18.519   5.440
20800W        W93868  44.891  20.112  12.990
20801W        W93869   2.788   7.176   3.971
20802W        W93870  17.258   8.791   0.318
20803W        W93871   5.264  20.243   4.599
20804W        W93872  13.723  26.858  13.323
20805W        W93873  23.779  31.622  12.045
20806W        W93874  39.988  21.068  12.615
20807W        W93875  12.924  21.837   4.132
20808W        W93876  43.602  29.638  11.198
20809W        W93877  20.311  44.693  13.364
20810W        W93878  38.107   3.691   0.841
20811W        W93879  17.882   1.491   2.730
20812W        W93880   6.789  21.095  10.473
20813W        W93881  20.541  31.060  12.890
20814W        W93882  23.641  38.207   2.803
20815W        W93883   2.478  14.978  14.571
20816W        W93884   2.859   3.759  14.872
20817W        W93885  41.922   6.185  14.937
20818W        W93886  14.636   4.906   1.842
20819W        W93887  37.831  37.538  10.977
20820W        W93888  11.249   4.452  13.845
20821W        W93889  34.082  10.177  14.330
20822W        W93890  39.898   4.003  14.358
20823W        W93891  24.362  14.689   3.297
20824W        W93892  28.409  38.004  11.611
20825W        W93893  12.367  30.876  13.190
20826W        W93894   0.499  13.584  11.213
20827W        W93895   8.204   9.602   4.039
20828W        W93896  36.595  22.043   0.887
20829W        W93897   5.824  11.889  11.640
20830W        W93898  25.631  17.776  12.032
20831W        W93899  28.548  18.025  11.669
20832W        W93900  43.034  39.840   3.989
20833W        W93901  26.216  21.773   0.820
20834W        W93902  24.314  31.079   0.292
20835W        W93903   9.357  28.506   2.290
20836W        W93904  35.901  42.279   3.780
20837W        W93905   6.643  40.711   3.794
20838W        W93906   8.767   9.311   5.042
20839W        W93907  36.724  32.738  13.369
20840W        W93908  39.922  17.720   1.452
20841W        W93909   4.225  40.065  14.321
20842W        W93910  14.113   0.320   2.242
20843W        W93911  24.274  44.816  13.490
20844W        W93912  30.907  34.673   2.823
20845W        W93913   7.076   5.757   3.131
20846W        W93914  14.211  44.838  10.888
20847W        W93915  32.890  16.699  10.716
20848W        W93916   6.929  42.846   1.505
20849W        W93917  15.833   8.592  13.489
20850W        W93918  26.671  25.055   3.218
20851W        W93919  30.056  38.326   0.203
20852W        W93920  42.267  27.304  14.040
20853W        W93921  32.165  38.574  14.663
20854W        W93922  38.569   3.910   0.740
20855W        W93923  28.217  25.595   4.293
20856W        W93924  43.176  11.876  13.427
20857W        W93925  21.039  28.992   0.615
20858W        W93926  32.451  42.894  14.430
20859W        W93927  26.474  16.831  11.634
20860W        W93928  41.194  40.445   1.655
20861W        W93929  15.754   6.662   4.742
20862W        W93930  11.866   4.980   2.224
20863W        W93931  38.931  22.725  13.282
20864W        W93932   3.648  28.175  10.252
20865W        W93933  33.571  11.866   3.687
20866W        W93934   0.262  13.156  12.660
20867W        W93935   1.945  42.392  12.050
20868W        W93936   8.418  17.887   4.317
20869W        W93937  32.201   3.237   4.490
20870W        W93938  18.629  24.723   0.223
20871W        W93939   2.895   7.933  14.550
20872W        W93940  24.167   2.580   1.566
20873W        W93941   1.344  17.083  12.659
20874W        W93942  20.577   3.646   1.279
20875W        W93943   2.886  10.375   2.813
20876W        W93944  32.996  41.906  12.091
20877W        W93945  32.869  12.287   3.896
20878W        W93946  16.001  40.567   1.530
20879W        W93947  26.118  32.588   1.834
20880W        W93948   6.661  16.292  10.414
20881W        W93949  35.904  30.430  11.828
20882W        W93950  22.955  36.959  11.111
20883W        W93951  39.405  27.149   2.487
20884W        W93952   5.705  27.478  14.757
20885W        W93953  12.090   2.254   2.655
20886W        W93954  31.150  23.538  10.052
20887W        W93955  39.376   4.258   4.142
20888W        W93956  29.484   4.220   0.869
20889W        W93957  29.134   2.221  10.772
20890W        W93958  41.371  33.671   5.039
20891W        W93959   9.649  43.016  11.439
20892W        W93960   3.963  36.115  12.822
20893W        W93961  13.689   9.003   0.047
20894W        W93962  44.970  31.964   2.444
20895W        W93963  29.541  34.919   3.698
20896W        W93964   2.459  39.096  12.269
20897W        W93965  29.001  14.232   2.759
20898W        W93966  11.638  30.641  11.609
20899W        W93967  27.456   3.933  10.930
20900W        W93968  35.399  24.311   3.168
20901W        W93969  31.749  20.578  14.480
20902W        W93970  25.661  10.128  13.416
20903W        W93971  34.048  35.525   0.986
20904W        W93972  20.940  12.508   2.278
20905W        W93973  26.336  19.974   2.000
20906W        W93974   9.220   6.382   1.167
20907W        W93975   3.943   3.444  13.427
20908W        W93976  28.748  24.289   1.297
20909W        W93977  41.750  25.788  12.147
20910W        W93978  29.052  31.554   1.660
20911W        W93979  35.108  44.056  14.541
20912W        W93980   2.039  28.225   3.645
20913W        W93981  35.583  41.770  14.535
20914W        W93982  18.873  36.891  11.493
20915W        W93983  31.664  27.873   3.697
20916W        W93984  15.345   0.942  11.941
20917W        W93985  21.609  15.348   3.244
20918W        W93986   4.999   3.844   2.736
20919W        W93987  17.432   5.749   1.721
20920W        W93988  20.027  36.337   4.064
20921W        W93989  13.845  35.298  12.404
20922W        W93990  12.077  40.260  12.485
20923W        W93991  23.729  11.251   2.150
20924W        W93992   6.276  15.507   1.387
20925W        W93993  18.687  44.710  12.016
20926W        W93994  17.389  14.403  11.458
20927W        W93995  37.515  35.101  12.009
20928W        W93996  33.657  34.948  11.431
20929W        W93997  44.274   7.439   0.224
20930W        W93998   6.149  29.373  11.105
20931W        W93999  23.701   4.181   3.064
20932W        W94000  42.875   3.210  11.815
20933W        W94001  21.649  37.699   4.085
20934W        W94002  29.652  22.489  11.534
20935W        W94003  15.035  44.414  11.034
20936W        W94004  39.152  16.987   5.007
20937W        W94005  43.421  14.344  11.679
20938W        W94006  43.401   9.346   1.364
20939W        W94007  33.715   3.030  11.888
20940W        W94008  36.364  18.614  10.462
20941W        W94009  16.529   3.389  14.054
20942W        W94010  27.674  41.045   3.300
20943W        W94011  34.101  40.891  11.629
20944W        W94012  26.550   0.299   4.909
20945W        W94013  25.984  15.526   3.724
20946W        W94014   3.359  25.467  13.297
20947W        W94015   7.594  40.294   1.732
20948W        W94016  36.341  13.885   4.162
20949W        W94017   9.551   3.303   2.028
20950W        W94018  18.783  44.227   1.895
20951W        W94019  13.550  19.819   3.635
20952W        W94020  20.335  23.177   1.988
20953W        W94021  36.551   7.108  12.525
20954W        W94022   1.032  12.654   4.139
20955W        W94023  43.365  43.236   1.330
20956W        W94024  28.607  26.614  14.871
20957W        W94025  18.551  38.516   3.366
20958W        W94026  32.501  23.056  12.542
20959W        W94027  35.112  23.000  12.378
20960W        W94028  23.582   7.053   2.072
20961W        W94029  14.292  43.865   3.253
20962W        W94030  25.087   4.374  14.735
20963W        W94031  13.563  23.994  14.731
20964W        W94032   3.914   5.747  13.459
20965W        W94033  38.838  13.342   0.889
20966W        W94034  26.170  19.282  13.681
20967W        W94035  28.049   9.881  10.937
20968W        W94036   2.829  22.037   4.185
20969W        W94037  10.740  26.797  12.860
20970W        W94038  15.791   3.803  14.297
20971W        W94039   4.705   0.991  13.965
20972W        W94040   5.146   7.301   3.160
20973W        W94041  33.665   6.899  11.608
20974W        W94042   9.386  24.991  14.305
20975W        W94043   4.011  44.342  10.203
20976W        W94044  20.691  35.549  11.470
20977W        W94045   7.268   5.742   4.480
20978W        W94046  43.632  25.288   2.922
20979W        W94047  28.275  14.168  13.803
20980W        W94048  31.138   8.796   0.359
20981W        W94049  37.787  10.303  13.050
20982W        W94050  18.365  26.078   2.336
20983W        W94051  10.983   2.418  12.265
20984W        W94052  18.635  38.228  12.435
20985W        W94053  10.786  35.917   4.686
20986W        W94054  37.089  30.100   3.250
20987W        W94055   9.690  41.734  14.973
20988W        W94056  23.360  15.506  11.754
20989W        W94057  15.108  16.717   1.322
20990W        W94058  22.439  26.540  13.054
20991W        W94059  26.587  14.278  12.533
20992W        W94060   7.312  35.790  14.342
20993W        W94061   9.771   0.764   1.404
20994W        W94062  29.349  38.494   4.812
20995W        W94063  26.714  25.627   2.020
20996W        W94064   6.891  10.806   3.202
20997W        W94065  32.476  13.327   2.842
20998W        W94066   1.083  37.579  10.212
20999W        W94067  35.549  27.658   3.638
21000W        W94068   7.214   5.428  11.627
21001W        W94069   4.160  17.001   1.668
21002W        W94070   3.582  36.736  12.118
21003W        W94071  39.486  11.918   3.652
21004W        W94072  23.051   1.465   1.407
21005W        W94073  41.947  23.810  12.027
21006W        W94074   2.337  26.383  13.013
21007W        W94075  35.898  30.514   4.642
21008W        W94076  32.161  19.721  11.240
21009W        W94077  34.914   2.953   0.874
21010W        W94078  24.398   5.500  10.759
21011W        W94079  25.124  42.422   4.753
21012W        W94080  23.620  25.952   0.373
21013W        W94081  22.297  31.135   4.660
21014W        W94082  31.816  31.811  10.067
21015W        W94083  44.533   4.303   4.770
21016W        W94084  19.127   9.563   0.704
21017W        W94085  38.008  28.523   4.713
21018W        W94086  41.103  10.934  11.978
21019W        W94087  32.499  41.154   1.308
21020W        W94088  22.974  38.340  12.588
21021W        W94089  38.255  33.409   4.825
21022W        W94090  15.703  29.412   2.293
21023W        W94091  14.423   4.283  13.257
21024W        W94092  26.026  32.596  13.302
21025W        W94093   9.512   3.879   1.505
21026W        W94094  28.927  26.200  11.575
21027W        W94095   9.699   4.097  14.066
21028W        W94096  31.007  13.223  12.884
21029W        W94097  34.650   6.609  11.583
21030W        W94098   7.278  15.415  13.774
21031W        W94099  22.458  42.064   0.453
21032W        W94100  41.112  31.058  10.794
21033W        W94101  24.960  10.824  14.625
21034W        W94102  31.630  22.597  13.408
21035W        W94103  18.317   6.821  10.548
21036W        W94104   2.819  22.559   2.751
21037W        W94105   0.056  26.503  13.237
21038W        W94106  18.135  16.509  13.056
21039W        W94107  40.913  35.124   1.594
21040W        W94108  24.242  34.501  10.438
21041W        W94109  37.912  19.154  12.463
21042W        W94110  18.129  19.625  10.667
21043W        W94111  22.527   0.397  12.201
21044W        W94112  25.781  25.729   2.118
21045W        W94113   2.332   3.003  14.470
21046W        W94114   6.439  33.702   2.278
21047W        W94115   8.873  11.712  12.775
21048W        W94116  37.710  10.064  11.279
21049W        W94117  34.126  22.207  12.730
21050W        W94118  18.496  34.070  12.944
21051W        W94119  30.177  42.836  12.514
21052W        W94120   3.740   1.986   4.594
21053W        W94121  40.819  13.873   4.614
21054W        W94122  40.855  21.291   1.473
21055W        W94123  36.878  32.506   0.722
21056W        W94124  43.282  21.778   1.710
21057W        W94125   1.729   0.070  14.438
21058W        W94126   4.941   0.447  13.779
21059W        W94127  38.145  25.697   4.435
21060W        W94128   2.394   0.917  11.164
21061W        W94129  26.613   9.306   1.291
21062W        W94130  19.545  41.841  14.992
21063W        W94131  27.536  21.862  10.490
21064W        W94132  32.897  14.561   4.106
21065W        W94133  38.743  40.981   2.360
21066W        W94134  40.352  25.607  11.423
21067W        W94135  24.607  22.537   0.498
21068W        W94136  21.188  17.559  10.699
21069W        W94137  14.866   5.912   0.852
21070W        W94138  10.149  30.009   0.077
21071W        W94139  38.666  35.449  12.430
21072W        W94140  14.382  18.198  11.868
21073W        W94141  14.835   2.417   3.385
21074W        W94142  20.787  41.607   1.255
21075W        W94143  22.089  40.294   2.152
21076W        W94144   2.692  21.739   2.429
21077W        W94145  21.793  42.427   1.850
21078W        W94146   1.547  18.696  14.131
21079W        W94147  39.051  15.745   1.288
21080W        W94148  41.075  31.047   0.984
21081W        W94149  10.163  36.797  10.561
21082W        W94150  39.378  29.870   1.772
21083W        W94151  18.328   8.681   3.070
21084W        W94152   7.800  14.852  10.648
21085W        W94153  36.228   0.270  13.461
21086W        W94154  24.793  13.018  10.653
21087W        W94155  34.431  31.379  11.149
21088W        W94156  36.065  43.048  12.061
21089W        W94157   5.252  30.712  13.079
21090W        W94158  16.121  12.501  14.484
21091W        W94159  42.979  10.963  12.032
21092W        W94160  10.910   0.306   2.797
21093W        W94161  24.010  11.756   0.913
21094W        W94162  17.345  21.150  12.635
21095W        W94163  14.692  21.092  11.897
21096W        W94164   1.443   1.974  13.475
21097W        W94165  13.360  28.608   2.919
21098W        W94166   8.207  32.357   0.724
21099W        W94167  42.411   2.175  12.531
21100W        W94168   4.381   2.798  14.247
21101W        W94169  21.598  29.598   1.814
21102W        W94170  37.043   3.861  12.973
21103W        W94171  12.565  39.119  11.924
21104W        W94172  22.970   2.472  12.415
21105W        W94173  22.243   2.907   3.398
21106W        W94174  34.984  44.419   1.502
21107W        W94175  21.651  42.366   2.368
21108W        W94176  37.812   6.896   0.353
21109W        W94177   2.823  38.480   2.183
21110W        W94178   6.026   1.885  12.595
21111W        W94179  12.476  32.886  12.125
21112W        W94180  41.854  16.682  14.886
21113W        W94181  16.224  28.169  10.608
21114W        W94182  42.765  32.032   0.874
21115W        W94183  27.068  43.791  11.167
21116W        W94184   5.669  38.547  11.575
21117W        W94185  16.103  17.453   4.133
21118W        W94186  16.798  27.627   3.765
21119W        W94187  20.141   2.671   1.513
21120W        W94188  37.934  35.015   0.293
21121W        W94189   1.424  21.678  12.345
21122W        W94190  20.519  26.570  13.996
21123W        W94191  41.878  37.048  12.316
21124W        W94192   7.297  42.472   1.348
21125W        W94193   5.261  22.986  11.225
21126W        W94194  42.805  35.801  10.840
21127W        W94195  25.111   2.041   0.259
21128W        W94196  42.263  36.421   0.236
21129W        W94197  39.029  32.039   1.422
21130W        W94198   3.952   8.877   0.764
21131W        W94199   0.944  24.941   4.123
21132W        W94200   2.378   2.226   3.871
21133W        W94201   6.223   5.012  12.235
21134W        W94202  32.249   8.919  14.912
21135W        W94203  29.231  27.176  14.934
21136W        W94204  34.613  44.867   4.542
21137W        W94205  29.091  40.542   3.651
21138W        W94206  38.390  39.815   2.595
21139W        W94207  19.657  42.236  14.288
21140W        W94208   7.944  15.498   4.043
21141W        W94209  27.313  32.520  14.822
21142W        W94210  20.287  25.023  13.425
21143W        W94211  16.104   5.381  13.565
21144W        W94212  26.899  32.042   2.364
21145W        W94213  28.625  31.666  12.518
21146W        W94214  32.553  39.592  11.817
21147W        W94215  42.480  25.668   0.314
21148W        W94216   6.285   6.426   4.159
21149W        W94217  13.555  44.561   3.688
21150W        W94218  25.083  39.598   3.638
21151W        W94219   0.679  14.842   0.505
21152W        W94220   6.631  42.857  14.824
21153W        W94221  17.346  43.473  14.452
21154W        W94222  27.533  13.408   1.726
21155W        W94223  38.137  26.132  14.904
21156W        W94224  12.275  41.082   1.870
21157W        W94225  11.689  44.916  10.729
21158W        W94226  20.822  14.352   3.261
21159W        W94227  40.398  16.139  13.613
21160W        W94228   7.128  38.943  12.651
21161W        W94229  23.220  44.330  12.853
21162W        W94230  17.029  17.010   4.200
21163W        W94231  22.262  29.632  13.838
21164W        W94232  31.631  42.892  14.792
21165W        W94233  25.962  40.961  14.283
21166W        W94234  17.501   3.786   3.705
21167W        W94235  29.650  15.120  14.965
21168W        W94236  36.710  21.823  11.942
21169W        W94237  24.164   4.952   3.563
21170W        W94238  13.794  39.358  12.323
21171W        W94239  43.267  16.130   2.330
21172W        W94240   4.997   0.106  11.934
21173W        W94241  17.316   1.897  13.013
21174W        W94242  11.221  40.790  14.837
21175W        W94243  20.663   3.323   0.888
21176W        W94244   5.304  40.339  12.437
21177W        W94245  14.183  33.640   3.728
21178W        W94246   3.230  36.208   2.760
21179W        W94247  22.438  31.733   2.776
21180W        W94248  34.757  33.418   2.884
21181W        W94249  26.421   2.222   4.187
21182W        W94250   1.547   5.379   2.232
21183W        W94251  44.250   9.655  12.954
21184W        W94252   5.194  17.496   0.896
21185W        W94253  12.089  25.426   4.570
21186W        W94254  31.075  33.603  12.576
21187W        W94255   6.374  13.183  11.547
21188W        W94256  20.804  42.317   2.394
21189W        W94257  40.475  18.015   2.195
21190W        W94258  10.317  41.855   3.351
21191W        W94259  19.535  19.185   0.165
21192W        W94260  32.116  18.196   4.348
21193W        W94261  41.620  20.022  14.975
21194W        W94262  19.040  24.143  14.234
21195W        W94263  29.674   7.100  14.824
21196W        W94264  14.670  18.621  10.696
21197W        W94265  36.646  15.286  11.963
21198W        W94266  11.283  39.556   1.785
21199W        W94267  38.014  36.665  10.740
21200W        W94268  29.948  39.853   4.447
21201W        W94269  30.289   0.753  11.449
21202W        W94270  25.162   5.914  13.911
21203W        W94271  38.240  13.391  10.782
21204W        W94272  35.121  19.212   0.287
21205W        W94273  15.293   8.719  14.039
21206W        W94274  11.638  44.300   4.792
21207W        W94275  43.599  25.653   0.778
21208W        W94276   5.688  10.124   1.816
21209W        W94277  39.380  33.015   0.396
21210W        W94278  32.879  39.585   1.797
21211W        W94279  10.780  25.810   4.707
21212W        W94280  42.207  26.701   0.309
21213W        W94281   1.194  14.459  13.815
21214W        W94282  22.993   2.846  12.831
21215W        W94283  24.037  41.580  13.318
21216W        W94284  10.872  10.936  13.425
21217W        W94285  25.328  39.421  13.352
21218W        W94286  28.781  39.337  10.692
21219W        W94287   4.299  25.563   2.140
21220W        W94288  23.256  17.665  13.857
21221W        W94289  42.061  20.310   1.345
21222W        W94290  26.038  43.296   0.736
21223W        W94291  38.500  15.217  10.472
21224W        W94292  13.369   6.123   3.866
21225W        W94293  40.354  10.202  13.020
21226W        W94294   2.876  10.044  14.271
21227W        W94295  37.548  13.297  14.839
21228W        W94296   9.281  20.185  12.418
21229W        W94297  11.422  27.144  13.492
21230W        W94298  16.725  18.588   3.797
21231W        W94299  22.793  18.830  12.450
21232W        W94300  28.983  23.454  13.533
21233W        W94301   4.238   9.603   2.818
21234W        W94302  41.412  13.926  14.387
21235W        W94303  37.469  27.238  13.950
21236W        W94304  21.305   7.407   4.352
21237W        W94305  22.775  13.204  13.684
21238W        W94306  36.505  12.421   1.435
21239W        W94307  32.438  36.084  10.572
21240W        W94308   1.488  28.258  11.465
21241W        W94309   4.038   3.627  12.502
21242W        W94310   8.192  15.148  12.284
21243W        W94311  19.014  25.542   4.307
21244W        W94312  26.531  31.078   2.618
21245W        W94313   4.339  10.343   0.316
21246W        W94314  37.011  15.264  13.083
21247W        W94315  13.514   4.024  11.687
21248W        W94316  39.730  16.429   3.635
21249W        W94317  25.854  42.097   2.891
21250W        W94318  39.530  22.792  11.508
21251W        W94319  18.169  16.002  13.962
21252W        W94320  18.502  25.706  13.850
21253W        W94321  26.651  43.653  10.143
21254W        W94322  20.291  42.849   4.670
21255W        W94323   6.074  37.043  13.790
21256W        W94324  22.567  21.925   4.464
21257W        W94325  16.832   3.570   0.869
21258W        W94326  24.209  38.044   4.047
21259W        W94327  13.641  11.706  12.265
21260W        W94328  30.331  14.300   0.819
21261W        W94329  21.129  25.673  12.938
21262W        W94330  28.240  33.173  10.215
21263W        W94331   5.083  44.459   2.685
21264W        W94332  32.910   2.819  14.682
21265W        W94333  27.152  34.370  14.568
21266W        W94334  36.882  25.634   4.618
21267W        W94335  29.649   4.862  12.897
21268W        W94336  37.837  38.321   0.925
21269W        W94337  40.715  18.683  12.958
21270W        W94338  13.614   2.112  13.460
21271W        W94339  19.212  37.506   5.338
21272W        W94340  21.834  18.026   3.673
21273W        W94341  15.794  33.199   2.308
21274W        W94342  34.939  18.685   0.284
21275W        W94343  29.465  21.274  12.041
21276W        W94344  25.414  43.881   3.988
21277W        W94345  40.670   2.170   2.342
21278W        W94346  37.573  19.750  13.563
21279W        W94347  24.766  13.701   4.075
21280W        W94348  16.266  24.626  10.720
21281W        W94349   3.990  22.222  13.086
21282W        W94350  11.595  11.130   2.811
21283W        W94351  38.486  10.362   0.776
21284W        W94352  16.310  33.366  14.749
21285W        W94353   9.320  23.427   4.664
21286W        W94354   3.437  27.142   1.234
21287W        W94355  15.304  35.159  11.200
21288W        W94356  12.145   4.395  13.824
21289W        W94357   5.628  40.592   4.023
21290W        W94358  42.927  17.101   5.141
21291W        W94359  33.029   3.179   3.120
21292W        W94360   5.345  32.769   3.420
21293W        W94361  17.175  32.711   2.688
21294W        W94362   2.481   4.874   4.137
21295W        W94363  42.798  41.868   4.123
21296W        W94364  26.000  11.907   2.305
21297W        W94365   1.769  44.428   2.267
21298W        W94366  22.128  20.711  14.051
21299W        W94367  19.270  38.567  13.493
21300W        W94368  28.417   2.864  10.575
21301W        W94369   0.103  28.727  11.031
21302W        W94370  22.534  10.919   1.876
21303W        W94371  22.001  34.049   4.117
21304W        W94372  10.693  19.201   5.081
21305W        W94373  23.519  28.452   0.813
21306W        W94374  13.404  28.637  14.830
21307W        W94375   8.141   8.668   3.147
21308W        W94376  27.079   1.693   4.768
21309W        W94377  35.816   1.745   1.656
21310W        W94378  28.166  44.788   1.362
21311W        W94379  17.023  22.215  12.126
21312W        W94380  30.046  23.121   3.401
21313W        W94381  20.246   9.249   3.493
21314W        W94382  43.504  14.286   4.944
21315W        W94383  39.021  24.670   1.634
21316W        W94384  23.597  43.769   1.594
21317W        W94385  34.437  38.331   2.756
21318W        W94386  37.775  21.691  14.453
21319W        W94387   3.491   4.259  13.259
21320W        W94388  38.313  16.056  10.636
21321W        W94389  26.738  16.966   4.040
21322W        W94390  29.528   7.950   0.090
21323W        W94391  35.950  24.944   4.811
21324W        W94392   5.252   3.215  11.764
21325W        W94393  35.016   8.455  11.624
21326W        W94394   9.146   0.813  12.054
21327W        W94395  17.495  14.852   4.433
21328W        W94396  41.374  21.483  12.891
21329W        W94397   0.556  41.526   2.416
21330W        W94398  11.592  34.526   0.733
21331W        W94399   7.873  40.023   5.008
21332W        W94400  27.834  23.196   9.809
21333W        W94401  30.712  37.623   0.012
21334W        W94402   3.848  15.807   0.282
21335W        W94403  27.948   3.918  11.167
21336W        W94404  39.824  34.566  12.254
21337W        W94405   4.430  41.615   2.459
21338W        W94406  26.438  44.029  13.296
21339W        W94407  20.667  32.825   2.564
21340W        W94408   6.718  10.709  13.823
21341W        W94409  11.896  35.086  14.797
21342W        W94410  32.586  12.863   2.613
21343W        W94411  19.609  14.951  13.715
21344W        W94412  17.018   1.697  13.508
21345W        W94413  39.263  26.286  12.845
21346W        W94414  34.971  16.574  13.341
21347W        W94415  25.939   0.549   1.132
21348W        W94416   4.433   5.370  14.984
21349W        W94417   1.448   7.214  10.857
21350W        W94418   5.915  44.529  14.272
21351W        W94419  31.648   3.689   2.335
21352W        W94420  27.619  40.383  10.615
21353W        W94421  19.645  24.255   2.127
21354W        W94422  29.155   1.194  12.395
21355W        W94423  34.948   7.820  14.689
21356W        W94424  16.283  10.627  11.098
21357W        W94425  21.639  35.843   2.650
21358W        W94426  36.341   2.577   2.268
21359W        W94427  14.404  32.879   3.317
21360W        W94428  22.910  32.549  14.372
21361W        W94429  16.725  18.907   0.407
21362W        W94430   7.677  27.392  11.865
21363W        W94431  28.024  39.778   0.889
21364W        W94432  43.306   7.745   2.526
21365W        W94433   7.869   8.649   1.530
21366W        W94434  38.553  23.005   2.405
21367W        W94435  16.626   0.697   3.553
21368W        W94436   4.829  33.819   4.279
21369W        W94437   2.860  44.537   2.729
21370W        W94438  11.134  24.062   3.736
21371W        W94439  19.510  36.973  12.124
21372W        W94440  22.116   6.241   1.362
21373W        W94441   6.432  21.671   1.702
21374W        W94442  27.609   7.718   3.412
21375W        W94443  42.788  28.477  14.050
21376W        W94444  37.401  41.561   2.702
21377W        W94445   5.296  39.645   3.335
21378W        W94446   2.456  30.864   3.281
21379W        W94447  17.594   1.914   2.661
21380W        W94448  34.570   7.275  14.072
21381W        W94449   1.221   4.302   1.831
21382W        W94450  43.064  11.845   2.521
21383W        W94451  38.461  25.300   0.525
21384W        W94452  37.893  38.984   1.205
21385W        W94453  20.603  25.294   4.254
21386W        W94454  42.374  31.295   3.699
21387W        W94455  12.793  44.755  14.314
21388W        W94456  21.010  11.010   5.167
21389W        W94457  33.203  36.203  13.827
21390W        W94458  31.369  41.783  14.228
21391W        W94459  28.236  41.982   4.042
21392W        W94460   0.856  18.532  11.204
21393W        W94461  38.372   7.482   3.576
21394W        W94462  16.165   2.063   0.344
21395W        W94463  37.625  19.067   4.587
21396W        W94464  42.547  14.171  13.540
21397W        W94465  19.427  21.207  11.096
21398W        W94466   0.407  23.225   1.432
21399W        W94467  19.068  30.900  14.368
21400W        W94468   4.817  17.781   2.439
21401W        W94469  35.903  33.595   4.797
21402W        W94470  20.609  31.752  14.310
21403W        W94471  19.674  40.399  14.440
21404W        W94472  26.999  25.405   0.250
21405W        W94473  16.784  16.811   0.750
21406W        W94474  15.519  15.956   1.114
21407W        W94475  22.580   8.220  12.824
21408W        W94476  37.806   6.268   3.092
21409W        W94477  25.005  36.085   1.244
21410W        W94478   7.582  39.238  13.425
21411W        W94479  37.097  21.473  14.842
21412W        W94480  33.052  13.020  12.095
21413W        W94481  44.082  25.551  11.571
21414W        W94482   0.087   2.672  12.960
21415W        W94483  11.256  14.868  11.935
21416W        W94484   5.302   6.622  13.272
21417W        W94485  14.042  44.303   3.229
21418W        W94486  28.775  36.501  12.352
21419W        W94487  23.711  23.866   0.386
21420W        W94488  21.163   0.783   3.835
21421W        W94489  15.040  34.635  14.550
21422W        W94490  33.856   9.724  12.600
21423W        W94491  37.010  25.585   0.437
21424W        W94492   9.177  34.980   1.922
21425W        W94493  23.004  10.861  13.387
21426W        W94494  36.552   3.239  12.616
21427W        W94495  37.109  34.462   3.041
21428W        W94496   2.804  35.592  12.366
21429W        W94497  31.575  28.878  10.761
21430W        W94498  25.823   2.970   4.526
21431W        W94499  18.654  16.051  14.762
21432W        W94500  37.685  12.743  10.475
21433W        W94501   3.525  43.800  12.948
21434W        W94502  21.686  30.540  11.634
21435W        W94503  23.661   3.719   4.786
21436W        W94504  14.568  33.279   0.960
21437W        W94505   9.813  41.051  11.595
21438W        W94506  18.459  43.489   0.705
21439W        W94507  32.445  28.044  12.528
21440W        W94508  31.129   2.105  13.929
21441W        W94509  40.401  10.087   4.949
21442W        W94510  26.705  26.456  14.799
21443W        W94511  32.090  16.114   4.191
21444W        W94512  23.778  14.417  12.936
21445W        W94513  16.416   2.915  13.881
21446W        W94514  24.973  38.996  13.862
21447W        W94515  30.855  40.932   3.928
21448W        W94516  19.683  15.467  11.582
21449W        W94517  21.620  39.970   4.653
21450W        W94518  19.783  35.314  14.955
21451W        W94519  12.304  34.316  14.538
21452W        W94520  19.191   5.362   0.898
21453W        W94521   1.809  29.509  12.131
21454W        W94522   2.860  35.286  14.841
21455W        W94523   2.702   8.135   3.771
21456W        W94524   3.198  17.038   3.708
21457W        W94525   4.619  23.617   1.642
21458W        W94526  36.405  24.246  12.153
21459W        W94527  19.113  42.022   1.056
21460W        W94528  40.404  21.294  12.426
21461W        W94529  27.521  43.396   3.788
21462W        W94530  16.873  40.621  14.459
21463W        W94531  20.722   9.119   2.301
21464W        W94532  17.200  12.329   3.870
21465W        W94533   2.888  14.335   0.047
21466W        W94534  37.590  43.228  11.571
21467W        W94535  34.149  10.248  11.507
21468W        W94536  28.672  21.585  11.680
21469W        W94537  32.964  24.945   5.060
21470W        W94538  13.304  14.451   2.679
21471W        W94539  18.975  29.428   2.642
21472W        W94540  31.929  13.585   2.638
21473W        W94541  42.991  42.179  13.545
21474W        W94542   1.307  23.216   2.920
21475W        W94543  21.081  13.124   0.710
21476W        W94544  22.200  36.598   0.771
21477W        W94545  41.511  19.026  14.838
21478W        W94546  15.243  13.771  11.689
21479W        W94547  15.214  36.857   0.353
21480W        W94548  19.070  22.044   1.502
21481W        W94549  17.654  38.899  10.293
21482W        W94550  37.974  10.407  10.564
21483W        W94551  19.619  37.893   3.670
21484W        W94552  26.383  41.049   2.754
21485W        W94553  36.505  25.587   1.290
21486W        W94554   0.028  34.400  14.438
21487W        W94555  42.966   2.266   1.826
21488W        W94556  13.572  42.453  10.761
21489W        W94557  11.966  11.626   0.250
21490W        W94558  37.306  11.413   1.560
21491W        W94559  36.868   6.906   4.137
21492W        W94560  36.011  32.358  14.050
21493W        W94561  10.652  27.689   1.522
21494W        W94562  20.078   2.734   3.700
21495W        W94563  42.797   7.652   0.479
21496W        W94564  18.697  18.712   0.768
21497W        W94565  36.550  42.726   4.115
21498W        W94566   3.776  23.686  12.878
21499W        W94567  38.007   3.249  11.226
21500W        W94568  28.144  36.473  14.515
21501W        W94569  12.674  15.855   4.658
21502W        W94570   7.258  13.111   4.482
21503W        W94571  12.704  32.992  11.145
21504W        W94572  11.066  17.672  13.520
21505W        W94573   8.662  19.719   3.215
21506W        W94574  16.122   2.995   0.209
21507W        W94575  30.736  43.006  10.757
21508W        W94576  19.975  16.339  12.592
21509W        W94577  33.470  15.724  13.932
21510W        W94578  13.223  18.119  13.844
21511W        W94579  37.377  17.789  12.498
21512W        W94580  22.787  10.059   0.709
21513W        W94581  42.055  40.295   1.712
21514W        W94582  44.744  41.273  11.961
21515W        W94583  27.549  25.743   2.353
21516W        W94584  16.639  43.505   2.255
21517W        W94585  15.276  17.368  11.745
21518W        W94586   8.662  23.246   3.458
21519W        W94587  28.405   2.419  12.924
21520W        W94588  12.603  14.433   4.789
21521W        W94589  34.164  37.109  14.952
21522W        W94590  15.524   6.057  13.377
21523W        W94591  17.672   4.903   2.747
21524W        W94592  34.707  18.826  11.130
21525W        W94593  35.001   3.077   2.671
21526W        W94594  40.028  24.637   0.478
21527W        W94595  38.602  42.951   2.801
21528W        W94596  30.621   5.321   1.230
21529W        W94597  39.445  27.564  14.037
21530W        W94598  27.928  31.467  11.824
21531W        W94599   7.049  33.468  14.224
21532W        W94600  41.251  28.665  12.943
21533W        W94601   9.796  15.016  13.414
21534W        W94602   2.953  14.585   4.595
21535W        W94603  27.676  32.321   1.559
21536W        W94604  20.180  44.473  14.043
21537W        W94605  42.890  44.522  11.457
21538W        W94606  16.711  17.527   3.762
21539W        W94607  27.112  24.940   2.354
21540W        W94608  23.675   3.380  14.542
21541W        W94609  20.602   9.323  10.633
21542W        W94610  29.214  39.573   4.903
21543W        W94611  14.818  40.457  11.148
21544W        W94612   1.155   2.956  13.390
21545W        W94613  24.751  17.517   2.695
21546W        W94614  25.052  30.965  11.677
21547W        W94615  11.650  39.829   0.770
21548W        W94616  34.142  21.317  10.777
21549W        W94617  17.015  24.017  14.999
21550W        W94618  25.678  13.729   1.394
21551W        W94619  41.587  42.802  11.917
21552W        W94620  17.054  30.926  14.497
21553W        W94621  19.750  37.644   1.971
21554W        W94622  14.117  43.818   4.126
21555W        W94623   3.749   0.997   4.833
21556W        W94624   2.793  32.577  11.579
21557W        W94625  24.654   7.243  11.967
21558W        W94626  42.553  28.653  11.126
21559W        W94627   3.058  29.094   1.222
21560W        W94628  24.799  32.077  12.567
21561W        W94629  21.152  44.578   2.365
21562W        W94630   6.997   5.512  13.617
21563W        W94631   0.259  28.928   3.232
21564W        W94632  37.307  30.646  10.872
21565W        W94633   1.366   2.908   2.647
21566W        W94634  43.712  28.976   4.210
21567W        W94635  41.354  35.404   1.761
21568W        W94636   9.185  11.616  14.984
21569W        W94637   8.189   9.748   0.530
21570W        W94638  27.232  33.384  14.367
21571W        W94639  41.425  41.516   4.263
21572W        W94640  28.055  35.521  10.786
21573W        W94641  42.209  42.979   4.582
21574W        W94642  15.702  23.993   2.724
21575W        W94643  34.431   3.344  13.342
21576W        W94644   7.464  40.768  10.767
21577W        W94645  40.476  27.802  14.844
21578W        W94646   1.015  24.006  14.296
21579W        W94647  15.341  44.420  11.980
21580W        W94648   1.018  41.511   0.162
21581W        W94649  43.439  18.134  11.099
21582W        W94650  35.705  21.709  13.324
21583W        W94651   2.542  32.769   3.232
21584W        W94652  18.786  31.738   2.409
21585W        W94653  19.685  30.965   3.801
21586W        W94654   5.079  41.237  14.351
21587W        W94655  35.994  32.612  10.089
21588W        W94656  36.195  44.925   2.196
21589W        W94657  40.043  20.582   4.826
21590W        W94658  12.545  11.879  11.369
21591W        W94659   8.607   5.954   4.114
21592W        W94660   9.971  22.218   0.726
21593W        W94661  30.144  25.008  11.941
21594W        W94662  17.498  41.030  11.137
21595W        W94663  19.549  34.672   4.231
21596W        W94664  36.279  29.142  12.466
21597W        W94665  17.568  24.509   4.647
21598W        W94666  31.360  30.961   4.197
21599W        W94667  28.927   5.456  11.108
21600W        W94668  32.673  42.061   0.827
21601W        W94669  40.719   2.916   2.434
21602W        W94670   0.983  43.464   3.690
21603W        W94671   5.131  25.569   3.394
21604W        W94672  30.010  36.093  12.997
21605W        W94673  16.556  37.444  14.250
21606W        W94674  44.832   2.715   2.960
21607W        W94675  23.036  18.613  11.133
21608W        W94676  33.045  27.753   4.724
21609W        W94677  44.914  23.691   1.261
21610W        W94678  10.348  10.855   3.736
21611W        W94679  35.430  17.369   1.461
21612W        W94680  32.084  34.041  13.678
21613W        W94681  41.331  40.925   0.353
21614W        W94682  19.599   3.346  13.024
21615W        W94683  26.977   3.274   0.717
21616W        W94684   6.345  30.563   4.598
21617W        W94685  20.220   6.235  13.822
21618W        W94686  27.609  34.585   1.284
21619W        W94687  24.258  41.405   2.646
21620W        W94688  16.882  16.838   3.244
21621W        W94689   2.505   6.780  11.036
21622W        W94690  29.549  16.213   3.411
21623W        W94691  36.332  25.721   1.766
21624W        W94692   2.846  22.842  13.893
21625W        W94693  19.350  27.449   1.372
21626W        W94694  18.976  27.886  13.125
21627W        W94695  41.342  38.450   4.658
21628W        W94696  41.358  41.581   1.518
21629W        W94697   4.746  16.867  14.186
21630W        W94698  21.059   0.724   1.334
21631W        W94699   0.905  35.514  12.025
21632W        W94700  35.927   9.641   3.893
21633W        W94701  30.938   0.155  12.953
21634W        W94702   3.690   2.262   0.735
21635W        W94703  14.556  40.944  14.401
21636W        W94704   5.870  14.699  11.865
21637W        W94705   3.350  34.480   3.462
21638W        W94706  32.683   2.722  10.676
21639W        W94707  43.980  10.808  14.776
21640W        W94708   1.815  21.134  14.383
21641W        W94709  10.795   4.328   3.342
21642W        W94710  19.876  27.365   1.354
21643W        W94711  17.436  35.232  11.487
21644W        W94712   0.193   0.838   0.909
21645W        W94713  28.093   8.096  14.542
21646W        W94714  25.203  44.629  11.987
21647W        W94715  24.693  15.619  13.310
21648W        W94716   8.989  36.886   1.390
21649W        W94717  10.263  27.435   2.397
21650W        W94718  40.956   2.956  14.303
21651W        W94719  38.970  27.927   2.784
21652W        W94720  32.982  41.480  13.399
21653W        W94721  43.839  24.987  14.014
21654W        W94722  29.894  18.752  10.565
21655W        W94723  32.369   1.183   0.886
21656W        W94724  33.989  33.880   1.360
21657W        W94725  15.779   9.189  11.881
21658W        W94726  19.079  44.317   4.651
21659W        W94727  22.135  20.301  10.886
21660W        W94728  37.337  19.488   9.906
21661W        W94729  11.665  12.713  11.579
21662W        W94730  41.577  36.512   1.848
21663W        W94731   5.984  26.986   2.774
21664W        W94732  19.268   2.023   2.870
21665W        W94733  41.259  21.216  10.773
21666W        W94734  30.437   7.405   4.096
21667W        W94735  29.163   2.337  13.489
21668W        W94736  28.642   2.975   4.204
21669W        W94737  28.117   0.992  10.069
21670W        W94738  16.333  30.802  11.616
21671W        W94739  22.473   1.563   0.344
21672W        W94740   0.682  13.342  12.410
21673W        W94741  38.782  23.806  13.906
21674W        W94742  10.295   8.260   0.451
21675W        W94743  38.161  41.803  14.396
21676W        W94744  34.049  28.742  12.677
21677W        W94745  33.497   1.301   3.775
21678W        W94746   5.128  19.077   3.661
21679W        W94747  21.229  42.475   2.653
21680W        W94748  37.789  33.516   5.002
21681W        W94749   1.511  22.935   2.561
21682W        W94750  41.583  40.921  12.930
21683W        W94751  23.704  10.274  13.028
21684W        W94752  19.514  25.066   1.681
21685W        W94753  24.067  28.153   4.123
21686W        W94754  43.525   2.411  11.041
21687W        W94755  17.558  38.412  10.480
21688W        W94756   9.433  42.735   5.217
21689W        W94757  17.782  20.052  13.793
21690W        W94758  16.139   6.926   0.944
21691W        W94759   1.411  38.394   0.593
21692W        W94760  11.560  27.833  12.726
21693W        W94761   7.349  42.494  14.568
21694W        W94762  15.970  31.541   1.041
21695W        W94763  44.650  35.312   2.247
21696W        W94764   7.159  43.753   3.243
21697W        W94765  38.240  27.834   0.936
21698W        W94766  40.332  39.135   3.657
21699W        W94767   1.697   6.672  10.784
21700W        W94768  13.733  32.049  12.511
21701W        W94769   6.679  10.108   0.486
21702W        W94770   2.408  41.507  13.434
21703W        W94771   0.902  20.577   3.823
21704W        W94772  10.120  28.992  14.705
21705W        W94773  44.596  12.840   2.129
21706W        W94774  17.619  20.421   4.495
21707W        W94775  41.041  14.116   3.642
21708W        W94776  41.980  18.513   1.716
21709W        W94777  34.564  34.112   0.688
21710W        W94778  32.744  26.422   0.878
21711W        W94779  25.061   0.838   3.312
21712W        W94780  35.008  18.470  11.997
21713W        W94781  44.668  11.545  12.919
21714W        W94782  43.440  35.881  13.328
21715W        W94783   3.902   4.855  13.325
21716W        W94784  15.366  18.307   0.080
21717W        W94785   4.191  43.862  11.427
21718W        W94786   1.583  17.540  14.529
21719W        W94787  24.427  40.910   4.227
21720W        W94788   8.921  19.248  12.415
21721W        W94789  28.968  17.285  12.911
21722W        W94790  22.594  24.299   2.739
21723W        W94791   0.441  16.264   2.258
21724W        W94792  25.673  16.596  14.947
21725W        W94793  29.991  14.627  11.528
21726W        W94794   6.168  41.359  14.284
21727W        W94795  24.610   7.303   4.486
21728W        W94796  14.042  40.668   2.787
21729W        W94797  27.070  12.643  11.647
21730W        W94798  20.776   3.544   4.601
21731W        W94799  33.935  33.215  10.514
21732W        W94800  31.453  44.795   4.674
21733W        W94801   3.112  25.608  14.838
21734W        W94802   1.872  20.172   3.800
21735W        W94803  22.584  12.258   2.772
21736W        W94804   6.242  36.304   0.349
21737W        W94805  33.090  38.571   1.703
21738W        W94806  12.704  18.585  14.390
21739W        W94807   9.285  10.104   0.836
21740W        W94808  21.955  17.164   4.399
21741W        W94809  13.788  17.763  11.287
21742W        W94810   6.236   5.633   4.602
21743W        W94811  13.569  32.949   0.337
21744W        W94812  36.599  41.960  14.439
21745W        W94813  26.682  39.258  14.326
21746W        W94814  28.121   5.018   4.454
21747W        W94815  10.874  20.002   0.249
21748W        W94816  21.767  36.893   2.694
21749W        W94817  16.669   2.805   2.018
21750W        W94818  23.952  32.407   3.944
21751W        W94819   8.231  39.728  10.179
21752W        W94820   7.698  10.331   1.307
21753W        W94821   5.924   4.757   0.926
21754W        W94822  31.224  37.877  12.062
21755W        W94823  24.999  43.820  12.522
21756W        W94824  13.396   5.644  12.384
21757W        W94825  34.697   6.757   0.397
21758W        W94826   0.190  41.004  10.759
21759W        W94827   9.277  15.762  11.481
21760W        W94828  32.538   2.025  13.212
21761W        W94829  26.157  26.044   2.293
21762W        W94830  32.882  42.381  11.027
21763W        W94831  29.875  27.126  12.362
21764W        W94832  34.231  13.232   4.591
21765W        W94833  42.511  40.284   0.663
21766W        W94834   6.651  16.448  14.945
21767W        W94835  19.844  40.019  13.617
21768W        W94836  16.550  13.234  10.877
21769W        W94837  12.296  35.893   3.679
21770W        W94838  11.392  27.541  10.913
21771W        W94839  21.588  11.005  10.475
21772W        W94840  17.076  18.082  13.008
21773W        W94841  11.811  14.118   4.584
21774W        W94842  33.108   1.190   2.592
21775W        W94843  29.066  20.957  12.140
21776W        W94844   5.676  13.298   2.913
21777W        W94845  20.303  23.646   4.635
21778W        W94846   8.561  13.833   5.110
21779W        W94847  21.470   1.521   0.761
21780W        W94848  24.641  28.673   1.205
21781W        W94849   5.147  29.360  11.184
21782W        W94850  19.807  35.479   1.227
21783W        W94851  16.498   4.445   3.311
21784W        W94852  12.589  28.919   4.824
21785W        W94853  30.300  33.435  11.245
21786W        W94854  38.508  33.969  13.935
21787W        W94855  33.212  11.455  13.116
21788W        W94856  32.896  36.559  14.584
21789W        W94857  29.044  21.318  10.784
21790W        W94858  37.068  39.907  13.142
21791W        W94859  22.075  31.408  12.356
21792W        W94860  26.657  28.927  12.117
21793W        W94861   8.081  37.458   3.051
21794W        W94862  32.536  32.892   2.702
21795W        W94863   2.557   6.195  13.029
21796W        W94864  22.155  18.729   9.815
21797W        W94865   3.065  26.655   0.435
21798W        W94866   7.439   0.324   1.328
21799W        W94867  23.840   2.407  12.942
21800W        W94868  40.881  30.668  11.671
21801W        W94869  34.480  44.526  12.237
21802W        W94870  36.556  12.126   0.715
21803W        W94871  33.441  35.477  11.122
21804W        W94872  24.918  30.577  14.324
21805W        W94873   7.486  13.287  14.900
21806W        W94874  11.624  13.606   3.681
21807W        W94875  43.867   2.087   2.223
21808W        W94876  37.888   5.275   3.637
21809W        W94877  12.041  31.370  14.972
21810W        W94878  39.083  30.085   4.178
21811W        W94879  40.007   1.147   4.677
21812W        W94880  22.443   9.906  11.575
21813W        W94881  35.768   2.416  12.099
21814W        W94882  20.758  11.257  13.479
21815W        W94883  20.597  18.195   3.141
21816W        W94884  17.272  33.844  11.104
21817W        W94885  12.885  23.214   0.180
21818W        W94886   1.229  35.996   2.839
21819W        W94887  10.407  16.893  14.914
21820W        W94888  38.128   2.439   2.008
21821W        W94889   0.903  35.273  13.564
21822W        W94890  38.964  35.817   3.156
21823W        W94891  38.931  10.447  13.847
21824W        W94892  27.600   7.279  10.648
21825W        W94893  37.133  38.532  12.197
21826W        W94894  37.653   0.723  11.865
21827W        W94895  11.599  42.801   1.654
21828W        W94896  24.972   4.405  12.345
21829W        W94897  23.502   5.257  10.603
21830W        W94898  17.646  21.455   2.608
21831W        W94899  11.237   9.887   1.656
21832W        W94900  13.459  15.117  10.919
21833W        W94901  15.567  12.271   4.859
21834W        W94902  18.713  24.269   0.467
21835W        W94903  27.957  40.566   1.773
21836W        W94904  27.862   3.477  13.483
21837W        W94905   2.626  25.617   0.065
21838W        W94906  42.506   3.469   4.633
21839W        W94907  28.287  36.001   1.768
21840W        W94908  14.308  13.548   5.062
21841W        W94909  18.158  20.712  13.101
21842W        W94910  30.565  15.177  13.599
21843W        W94911  33.109  31.632   4.521
21844W        W94912  39.817  17.046   4.454
21845W        W94913  30.942  19.610  11.929
21846W        W94914  20.632  12.192   4.173
21847W        W94915  20.539  16.246  13.485
21848W        W94916  40.418  41.296   0.432
21849W        W94917  21.331  38.297  14.094
21850W        W94918  17.483  12.278   0.226
21851W        W94919  20.386  40.310   2.162
21852W        W94920   1.948   0.723   3.721
21853W        W94921  39.592  39.811   1.497
21854W        W94922  26.772   6.910  14.762
21855W        W94923  11.492   1.615   2.797
21856W        W94924  33.064  34.536   3.161
21857W        W94925   1.397  35.147   1.235
21858W        W94926  17.643  17.345  11.596
21859W        W94927  34.586   8.196  11.518
21860W        W94928  17.581  18.794  12.605
21861W        W94929   1.774   9.460  12.792
21862W        W94930  25.750  37.809  14.426
21863W        W94931   6.847  22.265   3.288
21864W        W94932  35.801  16.603   2.754
21865W        W94933  21.976  39.483   3.544
21866W        W94934   0.421  11.812   2.377
21867W        W94935   2.691  37.995   0.866
21868W        W94936   3.359  34.912   3.965
21869W        W94937  24.009  14.663   1.859
21870W        W94938  38.364  19.501   4.952
21871W        W94939  41.456  26.972   4.238
21872W        W94940  17.124  29.209  14.361
21873W        W94941  41.218  11.211   1.297
21874W        W94942  40.514   7.636   3.740
21875W        W94943   4.485   5.438   0.813
21876W        W94944   4.105  32.010  12.847
21877W        W94945   3.940  17.625  14.293
21878W        W94946  31.002  38.052  14.917
21879W        W94947  15.540   7.801  11.200
21880W        W94948  39.837  31.983  13.364
21881W        W94949  34.090  32.153  13.244
21882W        W94950  39.541  25.373   2.772
21883W        W94951  16.040   4.232  11.490
21884W        W94952  12.264   4.126  11.132
21885W        W94953  41.293   6.833  10.787
21886W        W94954  37.919  12.803   4.004
21887W        W94955  38.900   5.528  11.573
21888W        W94956   1.067  38.833  14.307
21889W        W94957  28.486  15.613  10.305
21890W        W94958   2.948  17.851  12.810
21891W        W94959   7.786  13.558   3.751
21892W        W94960  40.482  30.325  11.528
21893W        W94961  37.390  34.584   0.326
21894W        W94962  10.758  23.559  10.609
21895W        W94963  44.253  28.974  13.863
21896W        W94964  38.392  36.082  13.985
21897W        W94965  28.974  41.048  14.828
21898W        W94966  34.765  10.745  11.853
21899W        W94967  27.678   5.454   3.634
21900W        W94968  44.978  41.570  11.609
21901W        W94969   9.178  34.261   4.043
21902W        W94970  21.146   7.448   1.769
21903W        W94971  38.569  22.488   2.458
21904W        W94972  35.930  37.127   1.236
21905W        W94973   3.191  39.743  13.461
21906W        W94974  26.110   2.722  12.905
21907W        W94975  32.662  24.955  12.098
21908W        W94976   8.964  25.041   3.159
21909W        W94977  16.146   4.389   0.895
21910W        W94978  34.934  38.286   4.632
21911W        W94979   5.747   4.906   4.767
21912W        W94980   0.833  15.016  13.177
21913W        W94981  35.329  16.635  11.222
21914W        W94982   8.005   2.984   4.248
21915W        W94983   5.159   8.121   3.814
21916W        W94984  12.306  43.238   4.132
21917W        W94985   0.948   2.789   0.800
21918W        W94986   2.807  39.975  12.506
21919W        W94987  19.085  27.712   1.736
21920W        W94988   9.281  41.570   3.638
21921W        W94989  14.071  23.105  11.088
21922W        W94990  35.618   7.500   2.870
21923W        W94991  33.450  37.398  12.978
21924W        W94992  35.649  29.667  12.433
21925W        W94993   9.831  33.112   3.669
21926W        W94994  42.479  14.935   0.052
21927W        W94995  33.482  29.495   1.239
21928W        W94996  32.881  31.866   2.344
21929W        W94997  29.240   8.659  11.503
21930W        W94998  39.021  12.656   0.448
21931W        W94999  26.467  42.855  10.812
21932W        W95000  13.286  19.263   1.259
21933W        W95001  17.049  39.479  13.030
21934W        W95002  17.820   0.095   2.766
21935W        W95003  29.920  19.994   2.890
21936W        W95004   6.217  33.613  10.715
21937W        W95005  23.357   3.993  11.754
21938W        W95006  16.332  42.417  13.403
21939W        W95007  38.802  40.465   2.294
21940W        W95008  19.016   6.732   2.770
21941W        W95009  35.886  21.980  11.856
21942W        W95010  15.581  40.492   4.540
21943W        W95011  44.847  20.722   0.454
21944W        W95012  14.369  23.017   1.354
21945W        W95013  18.672  37.957  13.062
21946W        W95014  32.679  30.709  14.363
21947W        W95015   3.963  19.752  10.354
21948W        W95016  36.517   8.872   1.139
21949W        W95017  38.932  36.643  13.614
21950W        W95018  32.300   3.108  14.474
21951W        W95019   6.933  43.839   2.764
21952W        W95020  41.116  34.931   4.928
21953W        W95021   3.853  27.456  12.117
21954W        W95022   2.359  14.537   4.417
21955W        W95023  14.324   0.236   0.301
21956W        W95024  37.612  43.204  10.703
21957W        W95025  18.730  27.448  13.285
21958W        W95026  21.338  40.245  14.879
21959W        W95027  21.077  22.180  14.025
21960W        W95028   3.427   7.630   2.720
21961W        W95029  41.027  38.331   2.782
21962W        W95030   8.622  23.300  13.594
21963W        W95031  12.227  23.207  11.504
21964W        W95032  31.969  36.075   0.858
21965W        W95033  15.209  14.211  12.830
21966W        W95034   7.981  33.160  10.972
21967W        W95035  29.009   0.410   0.944
21968W        W95036   3.929  24.870   2.564
21969W        W95037  39.802   3.502   0.230
21970W        W95038   9.245  39.449   2.806
21971W        W95039  43.917  31.429   1.465
21972W        W95040  32.405  21.199   1.805
21973W        W95041  18.824   1.764   2.790
21974W        W95042  27.955  34.543   3.345
21975W        W95043  14.459   8.603   4.424
21976W        W95044   0.065  41.481  12.519
21977W        W95045  34.926  24.318  11.209
21978W        W95046  21.040  40.748   1.250
21979W        W95047  18.093   9.799  14.033
21980W        W95048  39.514   4.568   2.859
21981W        W95049  34.634  44.920   3.642
21982W        W95050  16.528   6.302   4.330
21983W        W95051  35.754  22.595  14.578
21984W        W95052  36.557  10.210   0.646
21985W        W95053   1.444  26.492  13.179
21986W        W95054   8.374   1.410  14.502
21987W        W95055  28.159  40.609  12.611
21988W        W95056  19.719  41.975  12.489
21989W        W95057  32.060   2.875   0.122
21990W        W95058  25.497  12.288   3.427
21991W        W95059  31.004  17.796   4.698
21992W        W95060   5.783  35.500  14.613
21993W        W95061  10.618   8.636  13.817
21994W        W95062   2.501   0.803   4.256
21995W        W95063  43.219  40.445   2.401
21996W        W95064   6.120  19.081   3.726
21997W        W95065   7.079   9.966  11.772
21998W        W95066  19.891   0.323  14.998
21999W        W95067  35.725  22.017   0.704
22000W        W95068  43.872   0.646   3.822
22001W        W95069  20.564  15.315  14.833
22002W        W95070  17.134  39.968   1.721
22003W        W95071  27.512  18.208   2.316
22004W        W95072  35.797  40.198   3.367
22005W        W95073  22.705   6.468  14.342
22006W        W95074   1.035  16.657   3.761
22007W        W95075  35.636  30.388   0.413
22008W        W95076   8.224  19.017   2.981
22009W        W95077   4.118   5.970  11.613
22010W        W95078   6.766  40.578  10.683
22011W        W95079  33.973  12.267   4.633
22012W        W95080  24.612  23.022  13.761
22013W        W95081   1.800  13.093   0.819
22014W        W95082  29.565  35.239  12.069
22015W        W95083   7.877  24.603   2.248
22016W        W95084  25.828  11.436   2.135
22017W        W95085  29.577  30.031   3.363
22018W        W95086   1.667  32.496  12.081
22019W        W95087  24.148   1.239  10.466
22020W        W95088  41.958  31.959  14.994
22021W        W95089  35.102   0.230  13.337
22022W        W95090   4.817  18.283   2.205
22023W        W95091  15.126  37.842  10.716
22024W        W95092  10.710  43.520   3.606
22025W        W95093   8.695  35.242   1.302
22026W        W95094  10.405  30.637   4.278
22027W        W95095  30.536  12.058  11.862
22028W        W95096  27.038  25.295  11.007
22029W        W95097  28.348  12.688   0.393
22030W        W95098  23.152  22.147   2.742
22031W        W95099  13.669  23.693  14.240
22032W        W95100  20.589  21.890   3.645
22033W        W95101  39.478  23.824   2.650
22034W        W95102  35.037  14.512   0.905
22035W        W95103  30.101   6.527  11.962
22036W        W95104  35.495  37.396   1.358
22037W        W95105  14.062  24.607  13.759
22038W        W95106  25.964   4.105   3.283
22039W        W95107   8.952  20.719   2.355
22040W        W95108  11.340  43.396   1.367
22041W        W95109   1.647  29.974   0.630
22042W        W95110  42.973  27.004   0.953
22043W        W95111  11.137  19.538  12.583
22044W        W95112  40.485  43.381  14.800
22045W        W95113  38.521  34.919  11.066
22046W        W95114  42.705  30.817  13.075
22047W        W95115  22.909   4.068   3.589
22048W        W95116   3.082   6.918   1.666
22049W        W95117  43.202  31.544   3.254
22050W        W95118  41.014  42.951   1.453
22051W        W95119  40.458  27.623   2.363
22052W        W95120  29.366  25.191   2.295
22053W        W95121  34.719   6.711  12.088
22054W        W95122  20.107  25.780  12.950
22055W        W95123  21.793  28.672   0.224
22056W        W95124  12.381  31.678   2.782
22057W        W95125  37.489  23.649   1.706
22058W        W95126  12.718  26.630   2.443
22059W        W95127   3.903   4.246  14.849
22060W        W95128   7.886   3.166   0.597
22061W        W95129  26.232  13.590  11.652
22062W        W95130  17.539  17.796   1.667
22063W        W95131  38.911  43.421   2.793
22064W        W95132  24.532  35.699  12.874
22065W        W95133  20.837  25.599   0.802
22066W        W95134   5.383   5.359  11.550
22067W        W95135  19.104  33.381   1.846
22068W        W95136  17.473   6.448  10.646
22069W        W95137   1.306   3.799   4.677
22070W        W95138  34.089  36.960  12.318
22071W        W95139  17.195  21.221   2.717
22072W        W95140  28.366  29.392   1.822
22073W        W95141   6.516   3.589   3.771
22074W        W95142  35.644  38.309   3.335
22075W        W95143  36.523  30.678  13.822
22076W        W95144   1.494   3.516  10.676
22077W        W95145  11.789  25.194  12.616
22078W        W95146  42.929  30.262   4.208
22079W        W95147   2.310  33.964   0.106
22080W        W95148   3.576  32.832   4.909
22081W        W95149  12.704  20.272  11.310
22082W        W95150  32.300  22.692  11.975
22083W        W95151  43.648  31.015   4.113
22084W        W95152  43.970  22.037  13.397
22085W        W95153  29.788  19.496  14.813
22086W        W95154   9.668  17.077   1.927
22087W        W95155   5.414  17.755   4.690
22088W        W95156  28.000  38.531   3.196
22089W        W95157  33.471  10.741  11.290
22090W        W95158  33.887   7.727   3.173
22091W        W95159   9.311  12.425  10.769
22092W        W95160  37.329  37.095   0.230
22093W        W95161  15.827  32.342   3.883
22094W        W95162  11.172  21.586   0.333
22095W        W95163  36.246  10.784   2.167
22096W        W95164  32.096   3.435   2.598
22097W        W95165  44.954   6.452   4.506
22098W        W95166   5.946  24.447  14.499
22099W        W95167  24.048  29.057  11.125
22100W        W95168  32.977  29.987  10.822
22101W        W95169  17.119   6.393  11.045
22102W        W95170  35.446  26.306   0.883
22103W        W95171   5.497   3.568   5.024
22104W        W95172  25.629  40.067   4.420
22105W        W95173  19.019   1.792   3.272
22106W        W95174  13.167  40.553   2.613
22107W        W95175  30.205  26.954   1.294
22108W        W95176  39.528  32.675  10.340
22109W        W95177  44.420  27.828  11.869
22110W        W95178   2.628  26.565  14.009
22111W        W95179  11.397  11.844  10.652
22112W        W95180   0.078  31.105  13.499
22113W        W95181   8.775   5.753   2.139
22114W        W95182  35.599   8.616  12.000
22115W        W95183  12.273  22.772  10.671
22116W        W95184  21.727  39.438   2.149
22117W        W95185   6.825  32.856   1.795
22118W        W95186  33.471  24.784  13.347
22119W        W95187  38.919  23.419   0.962
22120W        W95188  28.526   7.794   0.396
22121W        W95189  39.686  10.850  12.601
22122W        W95190  23.492  36.695   2.954
22123W        W95191  42.321  25.606  12.325
22124W        W95192  27.595   4.029  11.903
22125W        W95193  44.906  26.449  12.388
22126W        W95194  28.668  28.539  14.428
22127W        W95195  12.318  13.549   0.810
22128W        W95196  41.525  41.675   3.753
22129W        W95197  35.253  39.898  10.858
22130W        W95198  25.479  28.852  14.858
22131W        W95199   4.897   9.682  10.599
22132W        W95200  41.877  28.493  10.447
22133W        W95201  12.560  25.637  13.530
22134W        W95202  36.678  41.454   3.179
22135W        W95203   9.746   0.946  10.522
22136W        W95204  27.467  44.788  12.867
22137W        W95205  28.550  30.574  11.607
22138W        W95206  30.930  31.863  14.101
22139W        W95207  30.504   9.379   4.230
22140W        W95208   2.229  28.076  13.992
22141W        W95209  14.179   8.558   1.490
22142W        W95210  21.738  15.845   3.738
22143W        W95211  28.456  12.187   4.483
22144W        W95212  22.038   6.198  13.002
22145W        W95213  36.558   6.052  12.360
22146W        W95214  37.023  43.310  10.892
22147W        W95215  25.282  44.550  10.265
22148W        W95216  16.221  24.872  13.450
22149W        W95217  13.634   5.947  13.797
22150W        W95218  38.511  23.653   4.604
22151W        W95219  21.973   6.276  13.918
22152W        W95220   9.590  21.257   5.023
22153W        W95221   3.832  18.191   2.271
22154W        W95222   6.901  28.233   3.364
22155W        W95223  14.485   2.071   4.221
22156W        W95224  36.592  38.149   0.727
22157W        W95225  37.193  21.205   1.660
22158W        W95226   6.728  36.106  13.233
22159W        W95227  10.731  38.589  13.085
22160W        W95228   6.337  31.189  10.735
22161W        W95229  25.849  40.212  13.099
22162W        W95230  33.465   0.299   1.879
22163W        W95231   7.852  21.475  11.923
22164W        W95232   8.893  18.843   1.622
22165W        W95233   5.802   2.387  10.632
22166W        W95234  43.959  34.641   2.194
22167W        W95235  28.525   8.693   0.945
22168W        W95236  42.818  13.139   2.399
22169W        W95237   2.667  30.619  12.008
22170W        W95238  22.735  15.824   1.953
22171W        W95239   2.727  18.884   4.105
22172W        W95240  37.436  15.177  13.358
22173W        W95241  34.394  33.094  10.735
22174W        W95242  33.129  24.475  11.329
22175W        W95243  11.168  42.549   1.830
22176W        W95244  38.823  29.636   4.284
22177W        W95245  13.869  19.769  11.902
22178W        W95246  10.209  28.288   2.727
22179W        W95247   4.905  20.628   4.749
22180W        W95248   8.424  33.406  12.554
22181W        W95249  24.485  11.718  14.283
22182W        W95250  25.558  12.145   1.371
22183W        W95251  32.472  29.005  13.392
22184W        W95252  12.340   5.370  11.553
22185W        W95253  18.234  28.652  14.412
22186W        W95254  11.453   5.681  10.729
22187W        W95255  40.597  16.221   4.587
22188W        W95256  42.272  17.137  10.264
22189W        W95257  21.286  28.175  12.436
22190W        W95258  24.640  43.417   4.090
22191W        W95259  38.871  43.189  12.051
22192W        W95260   0.365  34.920  12.849
22193W        W95261  10.588  40.553  10.634
22194W        W95262  22.278  28.572  11.551
22195W        W95263  18.961  13.146  12.916
22196W        W95264   2.922  13.018  12.576
22197W        W95265   3.509  13.379  10.406
22198W        W95266  27.683  27.743  12.455
22199W        W95267   4.128   5.270  13.567
22200W        W95268  36.250  37.897   0.391
22201W        W95269  28.889  33.087   1.895
22202W        W95270   2.733  34.369   0.983
22203W        W95271  10.892  35.405  11.171
22204W        W95272  31.538  24.196  13.960
22205W        W95273  30.598  34.637  13.699
22206W        W95274   6.368  34.453  10.691
22207W        W95275  35.021  29.905   2.797
22208W        W95276   6.701  43.034  11.088
22209W        W95277  31.632  11.120  12.461
22210W        W95278   8.337  24.344   0.860
22211W        W95279  30.567  18.240  12.499
22212W        W95280  30.614  39.750   1.686
22213W        W95281  30.933  17.842  14.124
22214W        W95282  33.061  38.776   0.408
22215W        W95283   5.758  23.223  14.835
22216W        W95284  19.913   0.882   3.154
22217W        W95285   0.245   9.477  13.032
22218W        W95286  33.292   0.695  11.559
22219W        W95287  12.402   1.848   2.557
22220W        W95288   6.874   3.917   2.183
22221W        W95289   1.927  24.617  12.985
22222W        W95290  42.777   2.844   1.232
22223W        W95291  14.835  16.573  10.594
22224W        W95292  34.574  23.196  13.477
22225W        W95293  36.334  27.747   2.329
22226W        W95294  10.533   3.315   3.790
22227W        W95295  21.468   2.566  13.417
22228W        W95296  20.991  43.490   0.727
22229W        W95297  34.506  42.561   1.890
22230W        W95298  25.395  19.297  12.123
22231W        W95299  38.567  26.937  10.577
22232W        W95300  12.081  12.007  11.541
22233W        W95301  20.617   4.838  14.400
22234W        W95302  40.627  10.791  14.538
22235W        W95303  19.187   2.465  14.809
22236W        W95304  24.534  33.851  10.719
22237W        W95305  13.260  12.759   2.834
22238W        W95306  36.840  25.770   1.775
22239W        W95307  23.730  26.667  13.341
22240W        W95308   9.318   6.741   3.937
22241W        W95309   7.201  24.074  14.001
22242W        W95310  16.237   6.198   3.204
22243W        W95311   0.322  37.967   2.075
22244W        W95312  20.657  12.047   2.906
22245W        W95313  33.886  40.632   0.863
22246W        W95314  10.591  44.709  14.610
22247W        W95315  33.431  21.127  12.486
22248W        W95316   8.823  40.835   0.331
22249W        W95317  19.541  42.407  11.144
22250W        W95318  40.908  34.526   1.553
22251W        W95319  44.091  13.181   4.001
22252W        W95320   1.362   8.917  11.885
22253W        W95321   1.875   9.898  10.999
22254W        W95322  12.528  10.831   2.142
22255W        W95323  34.314   9.256  14.262
22256W        W95324  22.543   6.969   4.928
22257W        W95325  31.747  39.581   2.423
22258W        W95326  43.517  39.908   3.714
22259W        W95327  24.136  37.451  14.140
22260W        W95328  26.365  33.427   4.052
22261W        W95329   1.488  10.613  13.397
22262W        W95330  28.447  10.651   3.671
22263W        W95331  35.202  15.244   0.476
22264W        W95332  18.047  18.064  12.625
22265W        W95333  40.369  30.594   0.274
22266W        W95334  25.977  29.105   3.587
22267W        W95335  23.247  16.192  13.932
22268W        W95336   2.048   4.874  14.985
22269W        W95337  43.699  12.022   0.230
22270W        W95338   4.608  28.407  14.406
22271W        W95339  18.106  20.627  12.597
22272W        W95340  15.286   8.750  11.346
22273W        W95341   3.903  38.388  10.502
22274W        W95342  20.557  26.385  14.823
22275W        W95343  29.860  13.106   1.682
22276W        W95344  20.093  28.528   2.126
22277W        W95345   9.216  23.274   2.714
22278W        W95346  34.102  43.566  14.330
22279W        W95347  34.496  18.326  12.025
22280W        W95348  27.473  38.659   3.727
22281W        W95349  37.455   0.264   3.985
22282W        W95350  13.325  10.466   9.971
22283W        W95351   3.041  24.152   0.809
22284W        W95352   3.600  30.151  11.154
22285W        W95353  19.406   1.829  13.107
22286W        W95354  42.538   7.396   1.717
22287W        W95355   0.781   4.660   3.549
22288W        W95356   0.021  11.219   0.433
22289W        W95357  21.705   6.348   1.637
22290W        W95358  32.539  25.044   3.839
22291W        W95359  43.270  35.467   1.152
22292W        W95360  18.802   0.372   2.859
22293W        W95361   8.464  41.916   9.829
22294W        W95362   6.685  35.162  13.662
22295W        W95363  29.113  13.481  11.161
22296W        W95364  32.175  13.829  14.073
22297W        W95365  26.383  12.314   4.682
22298W        W95366  20.265  22.025  12.477
22299W        W95367  40.038  22.947   2.733
22300W        W95368  30.061  38.410  11.899
22301W        W95369  28.400  27.446   3.401
22302W        W95370  21.771  34.638  10.699
22303W        W95371   2.933  15.865   1.883
22304W        W95372   8.471  34.525  13.140
22305W        W95373  18.107  16.971  14.150
22306W        W95374   6.916  26.135  11.036
22307W        W95375  13.366  40.446  12.724
22308W        W95376  39.523  31.174  14.909
22309W        W95377  11.382  29.233   3.728
22310W        W95378  30.126  40.822  14.400
22311W        W95379  21.116  28.538   4.161
22312W        W95380  44.734  16.529   2.149
22313W        W95381  29.117  40.491  13.566
22314W        W95382  26.226  22.530  12.082
22315W        W95383  18.781  15.154   3.318
22316W        W95384   3.761   7.273  12.163
22317W        W95385  42.527  24.036   2.689
22318W        W95386   6.046  14.998   2.176
22319W        W95387  18.473  36.104  11.088
22320W        W95388  27.399  11.151  14.943
22321W        W95389  32.078  24.726  11.573
22322W        W95390   0.450  16.519   3.132
22323W        W95391  37.377  37.415   2.058
22324W        W95392  10.222  41.854  14.905
22325W        W95393  38.816  26.474   2.742
22326W        W95394  38.499  35.199  12.846
22327W        W95395  32.826   0.790   0.886
22328W        W95396  18.936  25.970   2.400
22329W        W95397  37.151   6.401  14.283
22330W        W95398  39.562  33.618  10.658
22331W        W95399   7.822  16.376   1.744
22332W        W95400   9.659  11.332   4.559
22333W        W95401  19.293  10.381  13.458
22334W        W95402  43.473   2.014  14.801
22335W        W95403  44.736  23.211  12.994
22336W        W95404   8.409  29.705   3.406
22337W        W95405  21.051   9.982   0.232
22338W        W95406  10.704  25.571   0.906
22339W        W95407  25.132  16.163  14.472
22340W        W95408   6.770  28.659  12.660
22341W        W95409  18.457  42.796  13.859
22342W        W95410  37.592  28.492   3.238
22343W        W95411  28.017   8.768   1.679
22344W        W95412  22.441  15.295  11.456
22345W        W95413   2.450  10.880  11.924
22346W        W95414   6.940  40.386   3.518
22347W        W95415   3.284  10.067  13.489
22348W        W95416  34.319  40.727  13.414
22349W        W95417   8.197   6.997  11.434
22350W        W95418   5.002  14.385   4.957
22351W        W95419   6.968  30.153  13.887
22352W        W95420  24.235  33.527  14.916
22353W        W95421  12.342   4.439  12.413
22354W        W95422  39.895  28.691   1.994
22355W        W95423  21.727  26.130  11.704
22356W        W95424  40.759  39.007   4.362
22357W        W95425  28.574  11.790   4.797
22358W        W95426  44.393   6.539  13.423
22359W        W95427   3.752  28.278   4.003
22360W        W95428  10.212   0.412   2.314
22361W        W95429  42.304   9.455   2.739
22362W        W95430  37.126  10.826  11.150
22363W        W95431  11.180  38.068   0.914
22364W        W95432  15.795  14.138  11.981
22365W        W95433  38.761  32.198  10.652
22366W        W95434  21.595  35.624  11.577
22367W        W95435  16.286   1.517   4.344
22368W        W95436  35.031  32.169   1.667
22369W        W95437  44.775  43.083   1.672
22370W        W95438  33.966  32.894  11.545
22371W        W95439   4.794   7.204  10.398
22372W        W95440  29.213   6.874   1.305
22373W        W95441   7.211  27.097  12.407
22374W        W95442  29.554   7.491  10.941
22375W        W95443  21.223  17.051   3.282
22376W        W95444  20.096  13.987   0.028
22377W        W95445  26.012  26.187   1.796
22378W        W95446  11.905  30.344  10.952
22379W        W95447  41.987   7.482  14.947
22380W        W95448  20.837  29.126  13.241
22381W        W95449   5.146  25.989   3.744
22382W        W95450  17.523  22.643  12.859
22383W        W95451  13.644  33.622  14.220
22384W        W95452  17.099   5.222   4.345
22385W        W95453  29.072  32.776  11.547
22386W        W95454  38.420  21.026   1.775
22387W        W95455  18.613  27.190  11.556
22388W        W95456  41.348   4.418   0.837
22389W        W95457  36.374  18.081  11.185
22390W        W95458   9.073  27.084   0.804
22391W        W95459  22.272  10.618  10.696
22392W        W95460  38.996  43.856  13.989
22393W        W95461  35.023  37.862   2.739
22394W        W95462  16.573  34.981   2.846
22395W        W95463   8.270   1.196  14.039
22396W        W95464  10.480  34.162  12.979
22397W        W95465  39.450  25.698  14.939
22398W        W95466  19.700  42.896   0.867
22399W        W95467  31.440  27.550  14.850
22400W        W95468  12.122  18.659  12.081
22401W        W95469   7.049   0.947  10.988
22402W        W95470  27.617  13.504  11.630
22403W        W95471  16.351  44.646   4.103
22404W        W95472  17.823  22.309  14.888
22405W        W95473  20.246  10.727   3.595
22406W        W95474  20.659  15.305  12.427
22407W        W95475  37.626  42.372   4.745
22408W        W95476  12.004  27.416   1.379
22409W        W95477   1.436  11.685   0.688
22410W        W95478  11.029  39.105   0.643
22411W        W95479  10.374   6.177  13.094
22412W        W95480   5.265  14.034  13.016
22413W        W95481  11.973  20.801   1.910
22414W        W95482  24.064  31.003   4.053
22415W        W95483  42.305  29.950  11.219
22416W        W95484  38.166   2.214  14.305
22417W        W95485   9.058  31.876  10.872
22418W        W95486  25.685  18.060  14.289
22419W        W95487   7.630  20.496   0.319
22420W        W95488   8.905  14.629  11.637
22421W        W95489  31.787  22.776   2.368
22422W        W95490   5.938  44.433   1.599
22423W        W95491  17.290  34.272  14.833
22424W        W95492  23.723  33.154   0.496
22425W        W95493  21.690  14.840   3.321
22426W        W95494  21.732   6.517   4.684
22427W        W95495  44.568  10.975   0.398
22428W        W95496   9.524  17.045   4.607
22429W        W95497  20.273   8.125   2.788
22430W        W95498  18.797  12.812   4.114
22431W        W95499   6.262   6.596  13.167
22432W        W95500   8.893  21.179  13.967
22433W        W95501  13.901  23.724   2.002
22434W        W95502  23.159   1.247   0.936
22435W        W95503   8.291   9.151   4.819
22436W        W95504  29.164  14.718   0.342
22437W        W95505   9.758  29.390  11.114
22438W        W95506  35.194  12.690  10.444
22439W        W95507   1.222  20.195  10.588
22440W        W95508  19.577   3.413  13.531
22441W        W95509  16.779  10.755  11.941
22442W        W95510  20.630  19.768  14.858
22443W        W95511  19.732  16.843   4.560
22444W        W95512  38.192  14.117  11.997
22445W        W95513  37.032  20.311   1.781
22446W        W95514  41.070  27.163   1.818
22447W        W95515  36.332  30.127   1.729
22448W        W95516   8.136  38.420   1.473
22449W        W95517  17.168  22.036   2.127
22450W        W95518   2.639   0.929   3.056
22451W        W95519  31.069  29.027   4.322
22452W        W95520  27.228  14.154  13.920
22453W        W95521  22.659  30.970  14.713
22454W        W95522  41.041  23.298   4.309
22455W        W95523   3.771  23.098  13.574
22456W        W95524  43.798  42.041   4.633
22457W        W95525  19.231  33.494   0.258
22458W        W95526  20.172  12.096   2.754
22459W        W95527  43.601  24.719  13.368
22460W        W95528   3.547   5.703   2.749
22461W        W95529  34.534   2.313   2.073
22462W        W95530  36.600  33.571  13.068
22463W        W95531   2.494  17.170   1.380
22464W        W95532   7.172  30.063  11.557
22465W        W95533  26.696  13.589  14.712
22466W        W95534  20.116  23.940  11.117
22467W        W95535  12.127  10.447  13.515
22468W        W95536  38.548   8.168   2.242
22469W        W95537  12.683  41.642  13.617
22470W        W95538  25.525  18.135   5.187
22471W        W95539  33.260   8.683  10.085
22472W        W95540   7.142  16.346  13.773
22473W        W95541   1.771  16.193   1.864
22474W        W95542  25.157  29.525  11.015
22475W        W95543  34.431  38.876   3.331
22476W        W95544  24.022  32.130  12.959
22477W        W95545  42.993  30.468  13.858
22478W        W95546  28.074  29.161   0.149
22479W        W95547  41.865  11.656  13.055
22480W        W95548  17.641  39.034  12.134
22481W        W95549  17.359   8.627  13.249
22482W        W95550  24.139  39.369   4.982
22483W        W95551  39.952   0.663  11.184
22484W        W95552  40.420   1.461  12.556
22485W        W95553   2.131  26.902   0.195
22486W        W95554  35.371   5.575   1.682
22487W        W95555   1.353  26.845  12.447
22488W        W95556  23.187  14.814  11.626
22489W        W95557  35.805  26.558   2.875
22490W        W95558  25.319  24.037  11.682
22491W        W95559   2.532  33.710   4.080
22492W        W95560  21.557   6.362   0.636
22493W        W95561  44.312   1.740  11.909
22494W        W95562  17.761  33.830  11.231
22495W        W95563  24.745  12.097  11.596
22496W        W95564  16.782  32.870   1.890
22497W        W95565  40.103   7.339   4.732
22498W        W95566  16.768   1.714   4.503
22499W        W95567  37.648  18.461   3.596
22500W        W95568   0.999  26.881   2.267
22501W        W95569  35.045   2.019  11.066
22502W        W95570  10.784  21.285   2.766
22503W        W95571  13.917  36.366   2.285
22504W        W95572  31.937  15.395   4.487
22505W        W95573  39.521  11.328  12.731
22506W        W95574  39.340  15.822   4.280
22507W        W95575   2.911  41.321  10.668
22508W        W95576  11.629  30.988   4.540
22509W        W95577  34.894  36.361  12.437
22510W        W95578   9.408  24.076   0.020
22511W        W95579   7.793   6.912   4.377
22512W        W95580  37.875  32.212   1.875
22513W        W95581   8.446  23.583   1.564
22514W        W95582  21.388  36.801  12.088
22515W        W95583  10.369  30.155   1.285
22516W        W95584  20.335  27.434  13.369
22517W        W95585  20.562   4.974   1.914
22518W        W95586  18.815   5.946  10.539
22519W        W95587  21.808  16.053   2.735
22520W        W95588   1.512  14.247  11.607
22521W        W95589  40.477  27.484  12.366
22522W        W95590   3.445  15.780   1.795
22523W        W95591  35.604  13.104  14.422
22524W        W95592  21.207  16.377  10.855
22525W        W95593   2.191   3.251   5.041
22526W        W95594  19.820  26.564   1.820
22527W        W95595   0.917  22.323   2.268
22528W        W95596   4.382  20.218  11.000
22529W        W95597  43.452   5.082   1.009
22530W        W95598  14.299  35.680  13.295
22531W        W95599  18.702  12.537   2.228
22532W        W95600  19.209  22.019  12.937
22533W        W95601   9.351  44.019  14.983
22534W        W95602  27.984  13.373   3.742
22535W        W95603  28.574  28.984   3.202
22536W        W95604  38.454  24.436   4.471
22537W        W95605   1.447  11.394  13.780
22538W        W95606  31.378   3.113  13.376
22539W        W95607   3.282   4.395   1.877
22540W        W95608  31.982   8.073   0.887
22541W        W95609  19.557   5.703   1.036
22542W        W95610  27.160  12.621   0.562
22543W        W95611   2.918  29.193   3.705
22544W        W95612  15.279  11.188  11.271
22545W        W95613  23.263  34.107  12.478
22546W        W95614   8.195   1.999  11.998
22547W        W95615  40.479  32.588  11.982
22548W        W95616   0.357  17.822  14.879
22549W        W95617  29.202  10.364   0.831
22550W        W95618  22.237  18.626   1.194
22551W        W95619  39.803  40.460   3.575
22552W        W95620   0.459  12.790  12.957
22553W        W95621  40.281  26.609  12.905
22554W        W95622  26.293  31.019   1.667
22555W        W95623  38.542  31.303   2.267
22556W        W95624  31.405  38.882  10.663
22557W        W95625  38.404  44.884   2.145
22558W        W95626   0.628  42.332   2.262
22559W        W95627  43.531  16.757  13.899
22560W        W95628  27.325  39.842  13.391
22561W        W95629  16.342   4.294  10.708
22562W        W95630  43.966  29.443   3.105
22563W        W95631  37.221  43.228   4.570
22564W        W95632   8.029  24.114   3.663
22565W        W95633  16.871  19.677   2.254
22566W        W95634   7.357  29.768   1.709
22567W        W95635  30.858  34.683   0.056
22568W        W95636  14.630  14.642   2.900
22569W        W95637  14.384  32.102   2.652
22570W        W95638   4.401  11.830   1.215
22571W        W95639  26.190  39.147   2.223
22572W        W95640   7.878  25.432  12.549
22573W        W95641  36.829  12.554  12.465
22574W        W95642   0.088  38.783  12.616
22575W        W95643   1.716  43.618   2.896
22576W        W95644  16.673  44.998  14.278
22577W        W95645   0.253  17.963   2.264
22578W        W95646   2.287  35.415  13.122
22579W        W95647  12.224  29.970   2.932
22580W        W95648   2.465  34.784   3.317
22581W        W95649   1.797  28.922   3.181
22582W        W95650  26.803  31.956  13.510
22583W        W95651  41.781   9.191   4.246
22584W        W95652  27.439   8.612  11.161
22585W        W95653  36.011   9.102  11.198
22586W        W95654  28.237  38.492  12.447
22587W        W95655  24.655  10.700   2.800
22588W        W95656  12.700  21.507   0.763
22589W        W95657  35.061  11.388   2.107
22590W        W95658  10.298  16.803  13.887
22591W        W95659   4.839  21.745   1.910
22592W        W95660  33.535  42.612  12.335
22593W        W95661  15.328  16.066   2.271
22594W        W95662   7.928  40.520  10.705
22595W        W95663  42.557  35.874   1.182
22596W        W95664  22.761  18.778   0.320
22597W        W95665   0.564  14.841  13.600
22598W        W95666  44.544  17.919   2.607
22599W        W95667   8.367  34.633   3.574
22600W        W95668   8.884  29.973  11.139
22601W        W95669  38.880  40.080  13.265
22602W        W95670  37.816  31.772  13.467
22603W        W95671  31.512   8.165  12.353
22604W        W95672   9.878   2.920   4.632
22605W        W95673  34.437  12.881  12.140
22606W        W95674  35.100  35.392   1.918
22607W        W95675   1.831  36.530  11.461
22608W        W95676  38.297   9.361   2.825
22609W        W95677   4.760   0.413   2.714
22610W        W95678  40.972  26.976   1.350
22611W        W95679  38.019  26.532  13.990
22612W        W95680  27.433  37.111   2.362
22613W        W95681  27.130  15.679  11.094
22614W        W95682   9.106  28.352  10.765
22615W        W95683  42.697  18.985   3.179
22616W        W95684  27.583   7.261   4.152
22617W        W95685  27.141  32.688   4.826
22618W        W95686  40.957  33.484   0.256
22619W        W95687  14.780   7.569  11.653
22620W        W95688  37.108  33.924  13.888
22621W        W95689  12.274   2.537   0.402
22622W        W95690  27.099  33.220   0.771
22623W        W95691  41.352   8.922   1.198
22624W        W95692  16.072  26.786  14.518
22625W        W95693  29.220  17.201  14.682
22626W        W95694  20.204  41.603   2.838
22627W        W95695  39.214   6.447  12.106
22628W        W95696   7.773  35.688  14.731
22629W        W95697  20.249   6.341  12.895
22630W        W95698  31.467  27.906  14.070
22631W        W95699   8.252   2.755   2.458
22632W        W95700  27.728   1.588  11.663
22633W        W95701  33.553  29.377   2.703
22634W        W95702  13.839  31.838   3.831
22635W        W95703  36.545   3.542  11.982
22636W        W95704  17.714   7.633   3.690
22637W        W95705  13.312  24.602   1.230
22638W        W95706  15.030  28.960  13.344
22639W        W95707  25.167  16.655  14.876
22640W        W95708  30.595  12.127   2.214
22641W        W95709  33.691  40.469  14.395
22642W        W95710  22.520  11.483  12.089
22643W        W95711  40.738  25.563  13.207
22644W        W95712   1.265  13.673  10.623
22645W        W95713   2.267  33.597  13.469
22646W        W95714   0.671  14.423   0.174
22647W        W95715   2.405  30.713  11.404
22648W        W95716  19.835   7.728  11.130
22649W        W95717   9.284  41.432  12.966
22650W        W95718  33.822  12.284   1.205
22651W        W95719   1.233   3.913   1.435
22652W        W95720   4.361  41.824  14.995
22653W        W95721  24.066  25.948  11.527
22654W        W95722  24.186  29.807   0.566
22655W        W95723  41.182  14.165  11.092
22656W        W95724   3.908  17.785  12.948
22657W        W95725  42.990  17.312  11.188
22658W        W95726  17.427  22.075   3.248
22659W        W95727   2.379   2.738  12.625
22660W        W95728  10.719  42.981   2.133
22661W        W95729  19.689  26.161   3.712
22662W        W95730   7.608  21.649   0.944
22663W        W95731  34.001  31.073   0.568
22664W        W95732  28.787  41.774   0.894
22665W        W95733  17.488  28.066  11.449
22666W        W95734  24.652   2.654  14.874
22667W        W95735  36.394  26.017  11.202
22668W        W95736  43.253  30.163  11.170
22669W        W95737  35.421   7.800  14.954
22670W        W95738  20.479  39.810  12.834
22671W        W95739   0.864  11.367  14.194
22672W        W95740  17.789  34.991   2.242
22673W        W95741  17.737  20.709   2.206
22674W        W95742  23.593   2.179   1.207
22675W        W95743  17.386  33.298  14.752
22676W        W95744  42.251   9.320   1.874
22677W        W95745  31.151   2.262   4.645
22678W        W95746   6.459  21.983   3.554
22679W        W95747  10.050  11.195   1.621
22680W        W95748   0.724  18.325  11.655
22681W        W95749   8.552  16.786   2.836
22682W        W95750   8.971   9.321  12.986
22683W        W95751  23.631   7.603  11.500
22684W        W95752  18.122  42.752  13.412
22685W        W95753  43.426  23.644  13.046
22686W        W95754  27.485  12.902   1.709
22687W        W95755  23.029  30.916   1.132
22688W        W95756   1.514   5.433   4.454
22689W        W95757  33.483  38.832  13.344
22690W        W95758  34.501  19.518  13.055
22691W        W95759  11.706  43.978  11.173
22692W        W95760  39.049  27.156   4.145
22693W        W95761  14.681   0.887   4.781
22694W        W95762   2.019   2.007   2.837
22695W        W95763  12.953  16.071   3.295
22696W        W95764  14.546  26.427  12.465
22697W        W95765  28.709  38.296  13.603
22698W        W95766  19.342  39.348   3.684
22699W        W95767  32.905  12.246  10.972
22700W        W95768  14.353  41.330   4.334
22701W        W95769  20.336  12.552  13.581
22702W        W95770  38.241   9.116   4.239
22703W        W95771  12.850  36.298  10.671
22704W        W95772  35.877  17.669   0.581
22705W        W95773  26.677  31.982   2.856
22706W        W95774  13.131   6.807   3.635
22707W        W95775  19.044   6.704   4.587
22708W        W95776  22.033  21.315  10.656
22709W        W95777  21.764  18.943  12.921
22710W        W95778  11.155  35.140  11.575
22711W        W95779  16.802  37.494   1.778
22712W        W95780  41.687  37.068   3.267
22713W        W95781   7.712  17.979   2.854
22714W        W95782  23.002   8.529   3.239
22715W        W95783   8.840  24.260  12.790
22716W        W95784  20.974   3.419  13.060
22717W        W95785  19.728  21.540  14.203
22718W        W95786   5.090  27.945   3.652
22719W        W95787  32.081  44.834  10.646
22720W        W95788   8.654  28.503   2.791
22721W        W95789  10.789  43.008   3.574
22722W        W95790  26.223  16.567  10.761
22723W        W95791  11.851  28.530  13.982
22724W        W95792  30.095  26.886  11.938
22725W        W95793  41.243  16.036   1.388
22726W        W95794  13.193  40.896   3.410
22727W        W95795  30.877  18.316   3.640
22728W        W95796  38.763  10.123  11.611
22729W        W95797  28.582  36.990   4.536
22730W        W95798  40.329  13.907   1.833
22731W        W95799  44.252  12.547   2.684
22732W        W95800  28.026  16.627   2.151
22733W        W95801   2.379   5.345   4.390
22734W        W95802   1.803  39.491   2.834
22735W        W95803  15.580  25.618  12.615
22736W        W95804  18.731  19.768   0.011
22737W        W95805  37.968  22.643   4.561
22738W        W95806  30.083  13.781   0.726
22739W        W95807  39.975  34.978   2.408
22740W        W95808   4.001  19.233  11.040
22741W        W95809  27.226  29.083   0.816
22742W        W95810   4.248  40.362   1.940
22743W        W95811  24.674  30.392   1.279
22744W        W95812  19.582  13.948  14.543
22745W        W95813  32.319  10.676  14.479
22746W        W95814  12.355   7.105   0.942
22747W        W95815  43.183  32.078   1.813
22748W        W95816  34.092  28.548   0.981
22749W        W95817   4.881  41.838  12.498
22750W        W95818   0.694   3.833   3.904
22751W        W95819   3.358  22.436   2.717
22752W        W95820   9.383   6.623   0.218
22753W        W95821  33.546  33.726  12.447
22754W        W95822   4.749  30.727   1.699
22755W        W95823  43.234  38.815  12.028
22756W        W95824  23.296   8.897  12.928
22757W        W95825  18.068  28.213  10.510
22758W        W95826  44.800  40.366  11.871
22759W        W95827  31.759  36.106   4.837
22760W        W95828   2.265   6.146  14.087
22761W        W95829  10.016  18.122  12.354
22762W        W95830  40.991   2.015   3.399
22763W        W95831  11.356  30.172   2.405
22764W        W95832   6.191  28.908  13.396
22765W        W95833  36.853  13.886  10.376
22766W        W95834   6.233  30.743  12.050
22767W        W95835  11.684  41.294   4.108
22768W        W95836  34.803  39.903   0.726
22769W        W95837  17.000  40.547  10.445
22770W        W95838  35.367  20.795  11.082
22771W        W95839  25.115  43.269   0.769
22772W        W95840   7.637  19.780  14.750
22773W        W95841  20.005  24.137  10.644
22774W        W95842  19.985  22.743   5.194
22775W        W95843  30.518  40.372  14.295
22776W        W95844  30.159  22.330   1.315
22777W        W95845  11.676  36.029  10.219
22778W        W95846  35.537  35.877   1.588
22779W        W95847  24.489  38.616  10.702
22780W        W95848  44.060   5.123   2.220
22781W        W95849  11.340  31.013   0.735
22782W        W95850   6.417  34.570   4.704
22783W        W95851  28.942   8.140  14.859
22784W        W95852  26.485  12.457  12.849
22785W        W95853  16.366  39.344   4.594
22786W        W95854  42.969  37.474  10.743
22787W        W95855   6.970  26.087  13.463
22788W        W95856  36.152   6.182   4.544
22789W        W95857  31.197  36.379   1.323
22790W        W95858  17.113   5.865  10.173
22791W        W95859  12.906  21.657   1.209
22792W        W95860  36.029  34.578   1.572
22793W        W95861  18.099  17.019  12.865
22794W        W95862   5.253  10.822  14.339
22795W        W95863  29.093  35.843  11.470
22796W        W95864   5.376  37.780  11.515
22797W        W95865  26.338  24.960   4.208
22798W        W95866  31.950   8.904  13.865
22799W        W95867  19.109   9.171  12.810
22800W        W95868  28.554  40.008   2.378
22801W        W95869  34.114  39.314   1.452
22802W        W95870  14.117  25.579  12.543
22803W        W95871  38.436  26.474   1.349
22804W        W95872   8.145  37.436  14.294
22805W        W95873   1.020  23.195   3.338
22806W        W95874  35.425  18.065   2.924
22807W        W95875  40.441  42.447  14.405
22808W        W95876   6.664  24.665   2.641
22809W        W95877  33.688   4.813  14.741
22810W        W95878  18.008  31.369  12.981
22811W        W95879  22.081  14.168   4.552
22812W        W95880  25.514  17.630   4.721
22813W        W95881   6.721  13.766   2.664
22814W        W95882  38.566  38.906   0.276
22815W        W95883   9.957  28.768   2.237
22816W        W95884  28.970  19.739  14.046
22817W        W95885  16.444  43.031  10.547
22818W        W95886  30.920   4.264  11.602
22819W        W95887   7.346   6.723   2.848
22820W        W95888  29.372  30.063   1.362
22821W        W95889  39.354  38.504   0.879
22822W        W95890  37.890  13.864   2.425
22823W        W95891  33.703   9.336   4.109
22824W        W95892  41.582  26.116  12.593
22825W        W95893  22.314  13.347  13.935
22826W        W95894  27.235  11.230   3.706
22827W        W95895  22.173  27.587   3.320
22828W        W95896  11.265  16.221  10.698
22829W        W95897  25.836   1.553   2.893
22830W        W95898  27.024  10.618   0.712
22831W        W95899  34.201  12.829   2.194
22832W        W95900  44.564  30.633  11.168
22833W        W95901  35.527  33.807  11.428
22834W        W95902  30.663   1.430  12.742
22835W        W95903  37.884  13.149   3.513
22836W        W95904   7.021  11.927   4.504
22837W        W95905  40.989  12.248  11.189
22838W        W95906  14.657  39.404  14.060
22839W        W95907  33.039  33.425  14.335
22840W        W95908   1.675  26.679  10.732
22841W        W95909  27.454  25.154   0.467
22842W        W95910  23.421   2.456  11.576
22843W        W95911  23.580   1.036   2.141
22844W        W95912  38.094  43.471  11.459
22845W        W95913   7.847   4.444   4.574
22846W        W95914  36.778  31.961   2.439
22847W        W95915  41.024  38.127  14.654
22848W        W95916   5.802   2.350  12.556
22849W        W95917  22.997  18.786   2.867
22850W        W95918  37.044   2.988   1.638
22851W        W95919  32.448  42.281  13.805
22852W        W95920  16.331  12.865  11.483
22853W        W95921  39.873  32.050   4.460
22854W        W95922  15.639  35.584  11.406
22855W        W95923  26.847  27.389  13.837
22856W        W95924  41.515  24.941   1.246
22857W        W95925  37.891   8.453  10.985
22858W        W95926   1.508   2.833   3.130
22859W        W95927  11.485   6.313   4.169
22860W        W95928  14.859  24.121  12.026
22861W        W95929  18.327  31.664   1.812
22862W        W95930  29.996  43.318  14.437
22863W        W95931   1.238  26.136   3.356
22864W        W95932  16.837  38.930  12.873
22865W        W95933  41.483  11.604   4.976
22866W        W95934  34.732  29.689   3.178
22867W        W95935  24.447  36.309   0.790
22868W        W95936   4.226   9.659   4.030
22869W        W95937  37.277   1.514   2.623
22870W        W95938  10.142  21.579   3.940
22871W        W95939  27.669  27.947  11.077
22872W        W95940  26.939  27.504   3.677
22873W        W95941  23.449   0.425   2.796
22874W        W95942   4.790   2.252  14.372
22875W        W95943  24.286   0.002  14.381
22876W        W95944  23.158  43.432  13.606
22877W        W95945  28.686   3.698  13.406
22878W        W95946  20.305  11.217  12.384
22879W        W95947  18.628   6.957  11.654
22880W        W95948  15.247  16.819   3.623
22881W        W95949   0.544  44.284   3.886
22882W        W95950  15.746  31.089  13.917
22883W        W95951  37.061  18.740   2.358
22884W        W95952   5.128  12.758   4.804
22885W        W95953   7.300   9.654  12.727
22886W        W95954  18.530  27.030  13.561
22887W        W95955  23.223  31.692   4.836
22888W        W95956  12.125  12.538  11.608
22889W        W95957  26.694   3.763   2.667
22890W        W95958  34.621   3.456  14.322
22891W        W95959  25.090  10.340   0.033
22892W        W95960   3.826  40.780  13.517
22893W        W95961  11.180   7.019  13.834
22894W        W95962  43.404   2.255   0.981
22895W        W95963   0.129  29.730  10.975
22896W        W95964  30.941  15.241   4.574
22897W        W95965   9.732  23.458   0.293
22898W        W95966  40.851  33.645   4.402
22899W        W95967  43.749  17.120   0.005
22900W        W95968  29.403  22.661  10.187
22901W        W95969  16.564  11.440   2.378
22902W        W95970  44.824  38.117  11.858
22903W        W95971  26.488  15.673   3.636
22904W        W95972  40.986   1.894  14.558
22905W        W95973  11.612   4.814   1.777
22906W        W95974  15.626   5.754   0.400
22907W        W95975  11.845  21.095   5.244
22908W        W95976   8.004  11.151  12.603
22909W        W95977  20.948   8.579  14.030
22910W        W95978   3.116  25.187   4.026
22911W        W95979  43.962  13.301   2.483
22912W        W95980  37.114  44.616   1.888
22913W        W95981  42.291  31.532  13.390
22914W        W95982   7.714  24.644  10.755
22915W        W95983  29.473  35.902   4.701
22916W        W95984  33.385  20.710   2.256
22917W        W95985  25.598   7.423   4.545
22918W        W95986  36.366  20.250   4.116
22919W        W95987   8.262  17.521   2.391
22920W        W95988  29.649  34.664   3.264
22921W        W95989  13.729   8.842   1.380
22922W        W95990  35.985  44.292  12.473
22923W        W95991   7.347   5.907   0.490
22924W        W95992  17.745  22.822  14.817
22925W        W95993  27.437  44.848   1.698
22926W        W95994  33.656  11.735  13.040
22927W        W95995  22.247  14.205  12.172
22928W        W95996  41.853   4.049   3.120
22929W        W95997  40.112  44.870   3.244
22930W        W95998  39.328  39.075   2.855
22931W        W95999   6.391  13.310   3.714
22932W        W96000  30.883  20.011   2.548
22933W        W96001  24.676  41.431   3.383
22934W        W96002  35.649  28.275   5.109
22935W        W96003  39.827  32.867  12.880
22936W        W96004  28.529  38.065  14.470
22937W        W96005   7.297   2.296   1.661
22938W        W96006  26.702  18.837   2.480
22939W        W96007  30.285  34.367   2.207
22940W        W96008  33.140  44.625   1.463
22941W        W96009  44.233  39.880  11.966
22942W        W96010  30.540  35.550  13.626
22943W        W96011   4.637  44.412   4.258
22944W        W96012  12.869  33.032  13.053
22945W        W96013  18.887   8.365  14.851
22946W        W96014  42.630  25.978  12.556
22947W        W96015  19.282   1.754   1.488
22948W        W96016  31.355  11.323  12.854
22949W        W96017  22.120  23.736  12.358
22950W        W96018  36.104  30.155  10.752
22951W        W96019  28.136  18.193   3.749
22952W        W96020   4.726   9.799   2.713
22953W        W96021  44.057   3.378   4.533
22954W        W96022  36.889  23.286  13.686
22955W        W96023  36.651   6.374  11.984
22956W        W96024   8.436  16.866   0.861
22957W        W96025  14.874   4.127  12.400
22958W        W96026  33.532  34.506  10.650
22959W        W96027   6.009  23.149   1.343
22960W        W96028  27.028   2.573  12.442
22961W        W96029  34.838   0.549   3.036
22962W        W96030   5.996  26.655  12.840
22963W        W96031  23.220  27.838   4.016
22964W        W96032  25.450  42.091   4.413
22965W        W96033   8.715  13.673   1.900
22966W        W96034  43.068  14.246  13.528
22967W        W96035  33.677   6.021   3.906
22968W        W96036  38.325  10.220  13.031
22969W        W96037  25.686  19.118   4.159
22970W        W96038  44.498  15.240  14.942
22971W        W96039  42.450  13.861  10.829
22972W        W96040  11.759  19.816  10.071
22973W        W96041  10.346  39.803  12.041
22974W        W96042  12.260  16.945  11.536
22975W        W96043   6.637   8.513  13.994
22976W        W96044  29.423  17.539  12.944
22977W        W96045   1.789  41.784   3.200
22978W        W96046  31.045   0.815  14.775
22979W        W96047  21.851  16.631  13.568
22980W        W96048   7.174  24.207   0.419
22981W        W96049  34.593  20.741   1.460
22982W        W96050   5.303  17.230   0.462
22983W        W96051   8.124  11.377   0.507
22984W        W96052  21.647  37.364  14.464
22985W        W96053   6.442  12.540  10.948
22986W        W96054  40.973  21.725  14.788
22987W        W96055  29.028  13.080  14.880
22988W        W96056  34.870  30.162  12.546
22989W        W96057  18.548  44.626   1.661
22990W        W96058   4.260  37.572  13.080
22991W        W96059   7.511  37.538  12.447
22992W        W96060  33.025  18.069   2.848
22993W        W96061   6.182  30.515   2.075
22994W        W96062  20.307  19.567  12.132
22995W        W96063   8.066   7.985  12.533
22996W        W96064  36.024  26.639  14.118
22997W        W96065  43.379  28.185  13.655
22998W        W96066  41.501   7.640   4.571
22999W        W96067  25.668  25.285  11.140
23000W        W96068   6.218  43.378  13.139
23001W        W96069  30.729  25.285   4.805
23002W        W96070  19.079  34.362   1.332
23003W        W96071  23.099  37.872  13.376
23004W        W96072  43.301  28.201  14.152
23005W        W96073  35.376  40.913   1.259
23006W        W96074   8.463  33.035  10.745
23007W        W96075  28.159  30.306  12.890
23008W        W96076  14.306  39.419  13.598
23009W        W96077  26.417   5.821   2.824
23010W        W96078  25.413  30.205   3.139
23011W        W96079  31.412  32.876  12.297
23012W        W96080  29.134  27.587  11.990
23013W        W96081   0.308  42.586  13.065
23014W        W96082  35.807  30.471  11.043
23015W        W96083   0.410  42.676  12.570
23016W        W96084  32.174  39.543  13.031
23017W        W96085  19.023  11.239  13.710
23018W        W96086   5.561  38.456   4.550
23019W        W96087  30.859  35.564  12.714
23020W        W96088  44.324  22.531  13.954
23021W        W96089  33.376  23.981   4.878
23022W        W96090  18.158  16.232  12.590
23023W        W96091   4.199  32.980  12.471
23024W        W96092  21.731  25.103   3.220
23025W        W96093  24.157   2.830  12.020
23026W        W96094   2.713  43.057   2.112
23027W        W96095  41.556   7.445   2.585
23028W        W96096   0.465   4.532   4.426
23029W        W96097  14.178  16.847   4.608
23030W        W96098  38.317  36.769   1.204
23031W        W96099  14.845  32.463   1.474
23032W        W96100  34.288  22.891   1.766
23033W        W96101  12.701  42.338  12.857
23034W        W96102  15.882  14.637  12.475
23035W        W96103   2.489  28.141  12.350
23036W        W96104  37.482  34.039  11.420
23037W        W96105  30.673  27.599   4.585
23038W        W96106  10.201  12.466  10.752
23039W        W96107  43.006  13.899   4.225
23040W        W96108  17.939  39.513   3.902
23041W        W96109  32.919   2.856  13.924
23042W        W96110  12.790  44.009  13.527
23043W        W96111  25.905  23.617   4.432
23044W        W96112  35.974  22.632  12.451
23045W        W96113  25.270  37.985  14.406
23046W        W96114  28.794   2.208   2.467
23047W        W96115  42.419   8.338   4.183
23048W        W96116  41.165  27.132   2.616
23049W        W96117  32.994  12.581   1.639
23050W        W96118   9.139  44.578  12.955
23051W        W96119  11.553  31.005   1.730
23052W        W96120  30.362  32.986   1.292
23053W        W96121  36.276   1.864  14.746
23054W        W96122  11.474  13.781   0.761
23055W        W96123  14.357  33.028  12.782
23056W        W96124   9.599  39.131   0.468
23057W        W96125  41.634   5.717   1.229
23058W        W96126  43.474   4.136  11.485
23059W        W96127  35.437  34.349  14.276
23060W        W96128  11.710  14.680   1.837
23061W        W96129  17.306  17.625  12.349
23062W        W96130  11.017  18.147   3.368
23063W        W96131  44.457  44.468  10.410
23064W        W96132  32.093   1.453   4.562
23065W        W96133  14.173   4.921  14.913
23066W        W96134  22.862  40.853   1.238
23067W        W96135  43.813  14.278  10.784
23068W        W96136  31.711  14.865  12.064
23069W        W96137   9.601   4.896   3.270
23070W        W96138  12.555  17.250  11.229
23071W        W96139   8.439  13.264  14.791
23072W        W96140  42.073  13.627   4.162
23073W        W96141   5.957  31.867  14.398
23074W        W96142  11.342  15.074  13.839
23075W        W96143  16.671  28.324  12.029
23076W        W96144   5.879  12.099  12.970
23077W        W96145  25.202   1.062  11.588
23078W        W96146  19.603  15.654  14.783
23079W        W96147  25.469  24.114  13.994
23080W        W96148  30.453   3.283  13.526
23081W        W96149  15.409  14.129  11.041
23082W        W96150  27.676   0.299  11.180
23083W        W96151  12.339  23.006  12.016
23084W        W96152  11.627  26.643   3.518
23085W        W96153  38.341  27.477   3.647
23086W        W96154  28.121  40.747   3.272
23087W        W96155   2.311   2.027   1.433
23088W        W96156  16.550  30.101   2.803
23089W        W96157  38.363  11.089   3.333
23090W        W96158  23.454  26.921   0.527
23091W        W96159  29.726  38.028   2.675
23092W        W96160  14.356  11.777  12.633
23093W        W96161  31.938  25.590  14.844
23094W        W96162   0.553  19.553  12.020
23095W        W96163   1.199  30.684   0.828
23096W        W96164  23.722  43.083   0.910
23097W        W96165  12.569  12.746  14.450
23098W        W96166   0.331   3.271   3.295
23099W        W96167  10.643  44.414  14.164
23100W        W96168   2.725  34.128  12.912
23101W        W96169  21.314  37.829   5.053
23102W        W96170  41.280   1.423  13.513
23103W        W96171  19.317  30.298  14.779
23104W        W96172   4.472   2.396  12.078
23105W        W96173   5.605  27.114  11.255
23106W        W96174  35.900  42.859   0.901
23107W        W96175  31.463  39.267  14.417
23108W        W96176   8.889   6.491   0.380
23109W        W96177   1.400   2.841  14.387
23110W        W96178   3.957   9.160   3.676
23111W        W96179  13.643  16.127  12.411
23112W        W96180  38.423  15.119   2.490
23113W        W96181  25.471  14.632  13.803
23114W        W96182  19.690   8.084  10.770
23115W        W96183  39.446  35.564  12.939
23116W        W96184  37.519  31.058  13.015
23117W        W96185  24.542   2.658   3.247
23118W        W96186  16.087  12.222   4.034
23119W        W96187  41.823  43.465  13.072
23120W        W96188  27.407  31.415  11.874
23121W        W96189  33.887  20.446  13.845
23122W        W96190  38.744  17.695   2.164
23123W        W96191  17.202  20.703   1.059
23124W        W96192  11.753  21.889  12.066
23125W        W96193   2.656   0.033  14.929
23126W        W96194  16.118  10.863   4.020
23127W        W96195  14.179  39.476  12.661
23128W        W96196   5.239  39.318   2.097
23129W        W96197  34.573  37.850   4.371
23130W        W96198  18.098  19.654   4.308
23131W        W96199  20.676  25.607   4.803
23132W        W96200   1.754  32.606   1.842
23133W        W96201  14.631  36.382  11.359
23134W        W96202  42.875  21.444   0.424
23135W        W96203  14.535  14.831   0.365
23136W        W96204  41.396  30.600  11.700
23137W        W96205  10.867  39.214  12.463
23138W        W96206  18.795   8.374   0.982
23139W        W96207  12.572  12.168  12.493
23140W        W96208   2.678  30.566   1.251
23141W        W96209  18.000   4.378  13.473
23142W        W96210  15.935  28.031  10.170
23143W        W96211  38.393  23.329  12.340
23144W        W96212   8.450  39.277  10.347
23145W        W96213  13.392   8.746  11.784
23146W        W96214  35.573  44.848   5.009
23147W        W96215  38.332  33.781   2.650
23148W        W96216  26.146   7.468   3.062
23149W        W96217  24.003  24.602  13.154
23150W        W96218   0.972  11.525   0.505
23151W        W96219  34.760   1.652  10.148
23152W        W96220  23.798   7.665  14.642
23153W        W96221  25.981   4.661  11.573
23154W        W96222  28.185  40.781   1.330
23155W        W96223  22.698   3.268  14.339
23156W        W96224  33.353  36.168  14.842
23157W        W96225  28.555   0.801   4.767
23158W        W96226  21.516  37.879  11.563
23159W        W96227   5.163  26.934  11.513
23160W        W96228  33.965  14.302   2.309
23161W        W96229  37.188  42.929  10.583
23162W        W96230  30.754  26.751   3.649
23163W        W96231  43.951   6.402   1.207
23164W        W96232  28.047  20.666   3.768
23165W        W96233  24.124  14.092  11.254
23166W        W96234   4.919  40.794   1.618
23167W        W96235  12.142   4.827   1.755
23168W        W96236  37.469  31.723   2.780
23169W        W96237  27.454  31.933   0.830
23170W        W96238  35.653  40.466   1.412
23171W        W96239   2.889  30.990   3.014
23172W        W96240  43.937  35.388   3.964
23173W        W96241  12.598  12.138   0.933
23174W        W96242  17.595  44.123   3.638
23175W        W96243   7.248  12.212  13.311
23176W        W96244  19.315   5.832   1.669
23177W        W96245  19.688   3.002  11.893
23178W        W96246  32.941  37.566  14.635
23179W        W96247  16.668   7.619   0.561
23180W        W96248   4.402  18.020   2.727
23181W        W96249  24.690  13.538   2.348
23182W        W96250  32.230  22.458   5.129
23183W        W96251   0.490   1.992   0.411
23184W        W96252  16.376  23.299   4.155
23185W        W96253  43.504  29.158   4.653
23186W        W96254   9.834   1.879   1.921
23187W        W96255   4.627  32.112   4.619
23188W        W96256  41.095   2.367  13.415
23189W        W96257   0.306   6.759  12.149
23190W        W96258  26.820   6.167  13.561
23191W        W96259  22.975   8.363  10.769
23192W        W96260  19.112  24.975  11.541
23193W        W96261  17.195  43.548   4.302
23194W        W96262  39.931  27.241  14.461
23195W        W96263  40.623  12.063   2.857
23196W        W96264  37.801  25.997  13.402
23197W        W96265  37.097  25.949   2.200
23198W        W96266  21.051  18.134   4.877
23199W        W96267  27.027   7.103  13.305
23200W        W96268  43.618  36.703   0.691
23201W        W96269  43.744  32.425   4.122
23202W        W96270   1.454   7.308  14.195
23203W        W96271  11.936  17.799   1.968
23204W        W96272  26.601  22.430  14.482
23205W        W96273   1.934  11.260   1.661
23206W        W96274  37.324   7.452   5.019
23207W        W96275  23.095  20.506  11.123
23208W        W96276   5.769  19.342   2.795
23209W        W96277   0.118  32.365  12.236
23210W        W96278  28.117  16.504  14.698
23211W        W96279  43.811  24.502  11.809
23212W        W96280  23.433   3.949  12.517
23213W        W96281  43.442   9.454   4.088
23214W        W96282  35.090   3.880   3.244
23215W        W96283  13.416  36.480   1.258
23216W        W96284  16.250  12.847  12.820
23217W        W96285  24.152  35.210  14.524
23218W        W96286  17.281  27.634  13.580
23219W        W96287  14.551  34.013   3.665
23220W        W96288  37.273  29.211   0.249
23221W        W96289  36.980  18.487  14.068
23222W        W96290  22.674  44.978   4.112
23223W        W96291  31.801  13.727  12.083
23224W        W96292  12.223  42.256  14.957
23225W        W96293  36.071  36.461  12.718
23226W        W96294  37.412  33.037   3.069
23227W        W96295   6.329  42.489   3.154
23228W        W96296  34.172   4.727  14.605
23229W        W96297  29.173  24.084  10.682
23230W        W96298  11.398  26.729  12.072
23231W        W96299  19.563  33.156  14.239
23232W        W96300  11.793   4.000   0.402
23233W        W96301   0.782  31.809  12.454
23234W        W96302  18.259  15.566   5.026
23235W        W96303   1.254  42.047   1.001
23236W        W96304  22.250  12.518   2.275
23237W        W96305  28.227   4.941  13.917
23238W        W96306  29.002  16.753  12.874
23239W        W96307   4.286   7.280   1.871
23240W        W96308  43.728  29.983   4.234
23241W        W96309  40.552  26.013  12.914
23242W        W96310  14.304  17.577   1.241
23243W        W96311  10.179  24.740  14.950
23244W        W96312   7.908  38.445  13.521
23245W        W96313   8.280   8.415  13.460
23246W        W96314  25.493  19.337  12.813
23247W        W96315  19.526  24.630  11.571
23248W        W96316  24.650  11.723  10.955
23249W        W96317   9.162   5.222   1.654
23250W        W96318   8.674  22.906  13.057
23251W        W96319  12.326   3.277  11.611
23252W        W96320  22.175  24.966  14.895
23253W        W96321  44.471  38.993   3.201
23254W        W96322  20.702   7.660   1.592
23255W        W96323  13.957   9.293  13.322
23256W        W96324  16.328  40.066  10.573
23257W        W96325  36.064   6.576   0.129
23258W        W96326  34.472  11.965  12.472
23259W        W96327  13.990   2.791   2.849
23260W        W96328  43.855  20.687   4.062
23261W        W96329   5.584  21.134   3.633
23262W        W96330  27.110  34.079   3.067
23263W        W96331  32.795  36.913  11.987
23264W        W96332  15.743  31.941   1.602
23265W        W96333  24.054  29.165   4.203
23266W        W96334  34.465  20.014   4.247
23267W        W96335  44.877   8.590  11.084
23268W        W96336  19.494  19.974  11.184
23269W        W96337  38.977  20.190  12.859
23270W        W96338   6.349  11.794   1.415
23271W        W96339  41.862  13.832   0.531
23272W        W96340   4.420  18.327  13.525
23273W        W96341  29.146   5.630   3.686
23274W        W96342  36.658  18.861   5.027
23275W        W96343  20.581  30.309   0.423
23276W        W96344  11.383  16.675  10.435
23277W        W96345   2.981  18.688   0.928
23278W        W96346  14.329  44.427   2.780
23279W        W96347   8.863  19.222   1.957
23280W        W96348  34.414  23.630  14.733
23281W        W96349  29.953   4.755   4.987
23282W        W96350  34.744  12.029  11.076
23283W        W96351   1.342  43.472   1.547
23284W        W96352  32.435  35.822  13.404
23285W        W96353  15.239   4.603  14.375
23286W        W96354  26.595  44.454   4.307
23287W        W96355  23.114   2.272   0.974
23288W        W96356  31.968  31.022  10.812
23289W        W96357  14.313   5.637   4.662
23290W        W96358  26.652  34.475   1.797
23291W        W96359  40.895  32.874   3.839
23292W        W96360  16.336  40.500  14.322
23293W        W96361  15.433  38.151   1.234
23294W        W96362  19.524  18.652  11.559
23295W        W96363  10.653  26.422  13.932
23296W        W96364   6.681  42.983   2.394
23297W        W96365   8.193  21.505   3.119
23298W        W96366  18.191  14.435   4.930
23299W        W96367  33.637  39.256  10.524
23300W        W96368   8.968  15.230   4.702
23301W        W96369   4.697  20.846  11.506
23302W        W96370  44.187  10.941   4.314
23303W        W96371  13.544  29.148   0.202
23304W        W96372  14.630  11.568  13.873
23305W        W96373  20.464  30.219  11.781
23306W        W96374  19.837  36.507   2.934
23307W        W96375  41.307  29.124   3.409
23308W        W96376  18.481  17.663   4.523
23309W        W96377  18.761  22.808   1.241
23310W        W96378  34.118   0.541  13.341
23311W        W96379  30.909  30.431   3.121
23312W        W96380   8.435  42.260   5.867
23313W        W96381   8.861   8.919  13.966
23314W        W96382  17.616   4.543   3.402
23315W        W96383  34.971  19.150  13.857
23316W        W96384  14.563   8.172  11.205
23317W        W96385  29.244  19.308  13.146
23318W        W96386  41.366  23.003  14.283
23319W        W96387  15.766  34.896  12.603
23320W        W96388   9.933  38.805   0.670
23321W        W96389   1.337  41.799  11.451
23322W        W96390  44.444  26.697   4.700
23323W        W96391  23.823  28.202   5.105
23324W        W96392  18.839  30.940   0.719
23325W        W96393  22.251  33.653   1.336
23326W        W96394  21.043   0.351  13.816
23327W        W96395   1.554  25.557  13.856
23328W        W96396  13.843   0.191   4.500
23329W        W96397   7.921  10.185  12.204
23330W        W96398   8.381  28.153  10.536
23331W        W96399   5.937  12.806   4.111
23332W        W96400  39.831  21.061  13.507
23333W        W96401  26.158  33.895   2.911
23334W        W96402  17.767   4.346  11.957
23335W        W96403  19.854  44.744   1.287
23336W        W96404  33.509  29.638   5.080
23337W        W96405   8.482  31.650  11.734
23338W        W96406   3.925   6.202   3.598
23339W        W96407  20.607  28.057   1.606
23340W        W96408  20.097  22.160   1.011
23341W        W96409   2.251  35.035   4.203
23342W        W96410   1.535  35.488   0.871
23343W        W96411  19.339  11.051  12.732
23344W        W96412  20.916  42.069   1.421
23345W        W96413  20.557   2.909   0.422
23346W        W96414  36.880  35.560  13.048
23347W        W96415  23.063  10.360   2.728
23348W        W96416  28.026  36.340   0.016
23349W        W96417  32.266  27.016  11.921
23350W        W96418  32.314  36.963   3.791
23351W        W96419  16.352  14.031   4.379
23352W        W96420  13.998  35.020   2.805
23353W        W96421  28.099  21.560  12.454
23354W        W96422  10.918  24.064   4.233
23355W        W96423  44.475  31.487   1.807
23356W        W96424  34.741  26.502   3.881
23357W        W96425  15.593  43.885  12.388
23358W        W96426   5.185  24.626  14.801
23359W        W96427   8.758  37.141   2.700
23360W        W96428  31.415  17.150  11.681
23361W        W96429  23.712  15.808  12.011
23362W        W96430  22.174  23.686   3.861
23363W        W96431   5.038  44.501  10.295
23364W        W96432  42.314  10.845  13.484
23365W        W96433  17.686  21.087  12.005
23366W        W96434  22.714  21.463   2.352
23367W        W96435  26.232  11.120  10.688
23368W        W96436  33.503  41.561  11.156
23369W        W96437  31.679  18.181   0.812
23370W        W96438  26.022  36.872  12.218
23371W        W96439  44.433   1.259  13.934
23372W        W96440  44.998   8.655   2.355
23373W        W96441  20.741  29.690   2.930
23374W        W96442  20.222  12.565   0.388
23375W        W96443   4.573   2.493   2.344
23376W        W96444  11.159  33.516   2.515
23377W        W96445  19.343  21.554  11.560
23378W        W96446   5.173  43.671   1.792
23379W        W96447  44.309  20.708   3.531
23380W        W96448   8.307  33.520  14.984
23381W        W96449   8.251  21.005  12.574
23382W        W96450  27.179  34.462  11.586
23383W        W96451   4.494   3.972   4.130
23384W        W96452   3.450   8.133  14.498
23385W        W96453  12.645   7.724  11.241
23386W        W96454  39.054  29.446  11.784
23387W        W96455  43.790  18.602   1.684
23388W        W96456  24.675   9.984  13.740
23389W        W96457  24.795   8.134  11.616
23390W        W96458  39.244  16.286   2.863
23391W        W96459  15.197  26.441  11.793
23392W        W96460  11.705   6.432   2.675
23393W        W96461  34.392   9.698  12.614
23394W        W96462  38.771  28.235   4.205
23395W        W96463  27.929   0.502   3.391
23396W        W96464   9.404  37.467  11.118
23397W        W96465   6.597  22.768  11.824
23398W        W96466  32.367  25.072   0.736
23399W        W96467   8.285  40.567  10.323
23400W        W96468  19.613  36.166  11.039
23401W        W96469   6.840  18.669   3.909
23402W        W96470  10.352   1.872   3.530
23403W        W96471  15.298  39.963   1.310
23404W        W96472  30.856  34.176  14.872
23405W        W96473   2.876  16.184   1.011
23406W        W96474  30.471   8.458  13.621
23407W        W96475  34.089  14.202   3.755
23408W        W96476  27.181  18.748   0.853
23409W        W96477  11.876  40.819   4.198
23410W        W96478  41.434  42.007   0.483
23411W        W96479  10.543  10.362   3.733
23412W        W96480  18.945  31.426   3.628
23413W        W96481   1.822  38.310  12.286
23414W        W96482  23.492  13.637   2.858
23415W        W96483  34.649  38.980   0.061
23416W        W96484  39.548  25.268  11.440
23417W        W96485   8.577  31.041  12.793
23418W        W96486  42.504  30.685  14.011
23419W        W96487  44.471  14.695   0.739
23420W        W96488  41.244   1.177   1.310
23421W        W96489  39.057  19.337  12.056
23422W        W96490  27.984  30.036  14.792
23423W        W96491  20.539  14.793  12.529
23424W        W96492  17.435  40.635   0.085
23425W        W96493   7.756   1.755  11.550
23426W        W96494  24.103  20.097  12.453
23427W        W96495  15.226  23.715   1.232
23428W        W96496   4.726  44.674   3.059
23429W        W96497  39.938   6.187  14.226
23430W        W96498  37.807  20.481   1.433
23431W        W96499   8.659  22.017   2.826
23432W        W96500  19.925   0.954   1.695
23433W        W96501  41.901  12.431  13.891
23434W        W96502  33.932  27.877  12.566
23435W        W96503  23.751  26.194  11.197
23436W        W96504   7.741  35.882  11.255
23437W        W96505  27.561  18.479   4.198
23438W        W96506  17.545  32.489   4.910
23439W        W96507  26.931  41.416  14.856
23440W        W96508  31.602  25.045  14.426
23441W        W96509  40.510  11.281   0.546
23442W        W96510  22.978  26.180   2.266
23443W        W96511  30.045  20.536  13.177
23444W        W96512  13.154  36.039   3.728
23445W        W96513  40.402   8.141   0.222
23446W        W96514  16.505  41.518  11.438
23447W        W96515  35.041  41.884   4.079
23448W        W96516   9.134  40.344   2.786
23449W        W96517   8.850  23.978  11.136
23450W        W96518  15.304  23.136   0.550
23451W        W96519  26.667  12.790  11.930
23452W        W96520  40.138  26.162   4.951
23453W        W96521  33.421  18.677  11.571
23454W        W96522  16.667   9.698  11.831
23455W        W96523  37.555  23.591   2.246
23456W        W96524  28.125  24.653   2.866
23457W        W96525  15.647  32.915   5.048
23458W        W96526  40.087   6.646  11.209
23459W        W96527  15.569  14.133  11.508
23460W        W96528  10.369  24.678   3.756
23461W        W96529   5.668  13.272   0.831
23462W        W96530  24.714  16.365  12.903
23463W        W96531  42.058  23.123   1.473
23464W        W96532  15.722  36.800   0.265
23465W        W96533  27.445  21.188  14.028
23466W        W96534  34.042  30.860   1.876
23467W        W96535   7.854  24.298  11.484
23468W        W96536   3.409  11.233   1.825
23469W        W96537   4.224  23.618   3.190
23470W        W96538  18.174  20.603   3.408
23471W        W96539  15.822  27.775   0.391
23472W        W96540  28.005  41.012  10.808
23473W        W96541   4.328   9.271  11.706
23474W        W96542  28.896  24.933   4.147
23475W        W96543  38.839  12.485   3.077
23476W        W96544  38.575   9.296   4.764
23477W        W96545  11.193  24.225  11.075
23478W        W96546  44.526  25.724   0.521
23479W        W96547   6.779  13.985  11.784
23480W        W96548  23.210   4.384  11.428
23481W        W96549  29.634  38.991  10.070
23482W        W96550  20.669  40.369   1.742
23483W        W96551   3.192  33.771  11.120
23484W        W96552  25.178  39.482  11.946
23485W        W96553  14.606  33.934  10.447
23486W        W96554  12.994  29.534   2.828
23487W        W96555   4.817  31.819   1.074
23488W        W96556  21.955  16.873   5.322
23489W        W96557  37.007  22.872  12.875
23490W        W96558  12.819  24.205   0.289
23491W        W96559  14.789   6.107  14.540
23492W        W96560  11.967  14.524   1.404
23493W        W96561  34.421  41.319  10.723
23494W        W96562   4.077  34.639  14.914
23495W        W96563  30.121  20.662  14.512
23496W        W96564  41.865   7.727  14.385
23497W        W96565  42.952  18.325  11.197
23498W        W96566  38.095  39.857  12.063
23499W        W96567  15.269  19.282   3.829
23500W        W96568  18.090  23.431   2.223
23501W        W96569  38.047  10.956  14.777
23502W        W96570  22.206  33.129  13.403
23503W        W96571  42.934  35.232  12.986
23504W        W96572   5.691  16.728   3.706
23505W        W96573  24.462  40.152   3.005
23506W        W96574  10.197  14.927  12.943
23507W        W96575  17.068  12.180   0.945
23508W        W96576  40.413  14.030   0.489
23509W        W96577  38.920  36.237   0.783
23510W        W96578  42.483  31.900  10.616
23511W        W96579   7.057   9.199  14.405
23512W        W96580  27.092   8.427  13.021
23513W        W96581  10.770  40.880  13.763
23514W        W96582  33.306  17.056   2.168
23515W        W96583  18.271  24.266  13.438
23516W        W96584   4.663  38.472  12.362
23517W        W96585  32.069   1.272   1.327
23518W        W96586  22.657   1.383   0.786
23519W        W96587   5.453  34.337  12.636
23520W        W96588   4.712  34.387   1.643
23521W        W96589   9.238  16.351   0.195
23522W        W96590  12.393  38.336  14.202
23523W        W96591  24.899  43.752   3.261
23524W        W96592  18.694  40.799  11.456
23525W        W96593  14.321   5.455  12.703
23526W        W96594  28.648  37.133   0.019
23527W        W96595   7.238  36.399  13.585
23528W        W96596  33.633  16.691  10.466
23529W        W96597  20.572  41.168   4.398
23530W        W96598  36.465  36.610  14.015
23531W        W96599  22.048  39.050  14.927
23532W        W96600  44.408  21.551   4.522
23533W        W96601   7.804   0.618  13.086
23534W        W96602  14.698  21.812  12.715
23535W        W96603  13.615   2.156  12.150
23536W        W96604  38.038  41.773   3.629
23537W        W96605   3.948  26.552  12.168
23538W        W96606   6.151  25.285   2.942
23539W        W96607  29.918  31.034  12.522
23540W        W96608  41.984  38.050  14.449
23541W        W96609  21.875  40.509   0.570
23542W        W96610  33.871   5.855   0.633
23543W        W96611  35.858  34.979   0.769
23544W        W96612  21.631  10.118   0.245
23545W        W96613   4.285  19.050  14.464
23546W        W96614  14.580  44.895  10.506
23547W        W96615  22.816  31.010  13.823
23548W        W96616  28.109  25.471  11.365
23549W        W96617  33.619  34.644  13.002
23550W        W96618  24.436  20.240  14.886
23551W        W96619  22.299  24.138   0.470
23552W        W96620  20.334  28.724   0.287
23553W        W96621   6.723   1.362  14.720
23554W        W96622  24.264   4.292  14.414
23555W        W96623  11.591  24.507  14.406
23556W        W96624  40.386  36.686   5.037
23557W        W96625  29.372   7.630  11.893
23558W        W96626  21.061  19.050  11.920
23559W        W96627   9.112   9.156  11.649
23560W        W96628   7.970  26.543  14.427
23561W        W96629  21.157  35.317   3.286
23562W        W96630  27.133  44.871   1.245
23563W        W96631   0.665   6.864   3.332
23564W        W96632  31.504   6.481   4.225
23565W        W96633   3.312  24.514   0.294
23566W        W96634  33.279   5.714  11.973
23567W        W96635  33.911  13.252  13.017
23568W        W96636  23.465  40.000  14.393
23569W        W96637   9.682   1.898  12.621
23570W        W96638  16.232  37.861  12.486
23571W        W96639  24.620  37.969  13.104
23572W        W96640  40.031   6.448  14.676
23573W        W96641  37.649  40.465  11.373
23574W        W96642   5.896  33.092   0.140
23575W        W96643  10.234  42.822   2.372
23576W        W96644   1.979   5.063   2.321
23577W        W96645   4.198  17.600  14.742
23578W        W96646  19.049   3.362   1.465
23579W        W96647   3.372  20.879  10.194
23580W        W96648  32.036   2.701  12.411
23581W        W96649  23.558  29.421  12.818
23582W        W96650  19.194   0.297   0.559
23583W        W96651  31.428  42.947   3.222
23584W        W96652  41.896  36.826   2.733
23585W        W96653  11.576  14.679  14.107
23586W        W96654  14.706  12.738   3.292
23587W        W96655   1.895   6.175  11.680
23588W        W96656  14.171   3.197  11.653
23589W        W96657  29.700  18.881  13.186
23590W        W96658  28.982   9.387   2.809
23591W        W96659  12.192  12.315  11.120
23592W        W96660  39.377  32.635  12.327
23593W        W96661   6.971  40.308  14.377
23594W        W96662  16.153  12.979  14.289
23595W        W96663  22.464   4.327  13.783
23596W        W96664  21.099  15.390   0.064
23597W        W96665   6.805   2.762  14.041
23598W        W96666   5.247  41.570   3.712
23599W        W96667  37.417  21.176  10.589
23600W        W96668  18.357   7.257   4.131
23601W        W96669  20.842  36.403  12.935
23602W        W96670  31.257  34.067  13.099
23603W        W96671  10.405   1.263   0.272
23604W        W96672  14.643  42.636   3.160
23605W        W96673  14.047   0.262   4.022
23606W        W96674  36.811  39.125   0.904
23607W        W96675   5.694  23.015  12.027
23608W        W96676   6.388   4.308   2.685
23609W        W96677  22.043  25.793  11.973
23610W        W96678  41.224  25.645  13.023
23611W        W96679  37.300  15.271   4.542
23612W        W96680  23.276  44.832   2.887
23613W        W96681  30.531  15.309   2.679
23614W        W96682   1.181   4.762  11.059
23615W        W96683  18.358  32.098   1.015
23616W        W96684  43.936  34.338   3.735
23617W        W96685  32.891  10.714  12.561
23618W        W96686  18.198  43.039   2.214
23619W        W96687  18.090  40.289  14.044
23620W        W96688  25.440  14.149   3.850
23621W        W96689   0.008  15.805  14.292
23622W        W96690   6.642  31.139   2.201
23623W        W96691  31.638  13.608   1.968
23624W        W96692   8.129  39.515   3.684
23625W        W96693   5.845   3.755   0.736
23626W        W96694  12.121  42.904  13.272
23627W        W96695  43.970  10.301   0.506
23628W        W96696  17.113  14.103  10.568
23629W        W96697  30.840   6.264   3.693
23630W        W96698  44.458   0.430  11.541
23631W        W96699   5.375  38.948  14.877
23632W        W96700  31.373   5.279  10.996
23633W        W96701  13.745   5.237   0.928
23634W        W96702   8.202  10.330  14.428
23635W        W96703  26.172   5.782   0.352
23636W        W96704  18.629  32.102  10.154
23637W        W96705  29.444  24.121   0.032
23638W        W96706   5.760  28.988   3.293
23639W        W96707   1.945  29.429  14.524
23640W        W96708  35.995  27.180  11.501
23641W        W96709  28.639  31.592   4.123
23642W        W96710   4.268   0.710  12.499
23643W        W96711  35.026  20.576  11.414
23644W        W96712   3.449  41.975   5.370
23645W        W96713   6.010  15.326  14.045
23646W        W96714  10.650  24.533  12.433
23647W        W96715  32.306  34.951   0.936
23648W        W96716  37.041  31.213   5.327
23649W        W96717  23.575  15.372   2.985
23650W        W96718  12.675  30.631   0.953
23651W        W96719  15.708  44.806   2.739
23652W        W96720  15.097  10.297   1.865
23653W        W96721  22.567   1.862  11.303
23654W        W96722  36.835   0.877  11.501
23655W        W96723  19.728  20.719   3.559
23656W        W96724  12.478  29.377   4.570
23657W        W96725  13.393   2.049   2.874
23658W        W96726  43.966  25.248   1.062
23659W        W96727   7.877  43.519  14.876
23660W        W96728  44.720  31.450   4.455
23661W        W96729  13.398  27.894   0.719
23662W        W96730  18.852   4.347   1.329
23663W        W96731  19.674   3.871  12.951
23664W        W96732   4.550  19.466  14.295
23665W        W96733  13.590  28.751   1.139
23666W        W96734  22.478   9.351   4.249
23667W        W96735   1.895  16.285  14.024
23668W        W96736  10.146   6.414   4.941
23669W        W96737   1.990   6.861  11.173
23670W        W96738  19.707  20.178   0.707
23671W        W96739   8.180  41.844   4.951
23672W        W96740   5.200  36.749  14.240
23673W        W96741  19.613  21.729   4.410
23674W        W96742  25.433  15.421   2.133
23675W        W96743  16.424   0.278   4.082
23676W        W96744  37.655  26.885   0.951
23677W        W96745  21.547  18.136   0.793
23678W        W96746  37.302   6.202  14.744
23679W        W96747  31.977   4.032   3.614
23680W        W96748  11.057  31.733  12.421
23681W        W96749  17.398  30.448  10.163
23682W        W96750  27.747  30.171   3.355
23683W        W96751   5.812   5.261   0.809
23684W        W96752  27.162  44.049   2.933
23685W        W96753  43.051  42.898  13.026
23686W        W96754  37.502  23.946  14.162
23687W        W96755  41.428  16.182  11.111
23688W        W96756   8.414  19.817  14.448
23689W        W96757  19.066  18.565   4.632
23690W        W96758   5.817  15.676  13.613
23691W        W96759  11.829  32.481   0.497
23692W        W96760  43.211  12.225   2.101
23693W        W96761  36.255  26.126  13.420
23694W        W96762  33.260  26.628  12.557
23695W        W96763   2.562  27.172   0.316
23696W        W96764  29.411  40.993   2.787
23697W        W96765   7.833  41.799  12.078
23698W        W96766  42.461  29.457   2.146
23699W        W96767  43.031   0.746  14.489
23700W        W96768   6.702  28.501  10.752
23701W        W96769  31.647  10.882  10.529
23702W        W96770  43.513   8.679   2.841
23703W        W96771  41.016  32.390  10.974
23704W        W96772  31.654   3.170   2.303
23705W        W96773  42.188  21.019   4.539
23706W        W96774  21.057   0.678  10.087
23707W        W96775   1.224   8.848  10.538
23708W        W96776  25.252  11.792   4.307
23709W        W96777  21.672  15.639   4.217
23710W        W96778  13.855  29.196   1.293
23711W        W96779  33.912  38.977  13.603
23712W        W96780  16.719  40.952  10.672
23713W        W96781  39.608  37.381   1.312
23714W        W96782  10.181  28.999   1.107
23715W        W96783  23.270  22.335  12.087
23716W        W96784   3.288  10.080   4.215
23717W        W96785   5.474  10.706   3.269
23718W        W96786  40.776  36.031  12.195
23719W        W96787  29.431   9.924   2.273
23720W        W96788  16.877  12.373  10.406
23721W        W96789  44.035  16.352   1.883
23722W        W96790  14.216  42.243  12.092
23723W        W96791  29.263  14.768  14.458
23724W        W96792  35.864  35.591   1.250
23725W        W96793   2.767  31.631  14.463
23726W        W96794   4.905   6.869  11.286
23727W        W96795  35.439  20.234   4.253
23728W        W96796  41.947  12.133  14.298
23729W        W96797  35.386  39.257   1.701
23730W        W96798   9.830  44.556  11.479
23731W        W96799   0.639  11.147  10.906
23732W        W96800   1.946  35.772  12.848
23733W        W96801  14.779  27.634  14.402
23734W        W96802   6.791  39.526   4.024
23735W        W96803  43.965  26.055   2.764
23736W        W96804  40.955  10.299   2.619
23737W        W96805  16.923  39.446   3.773
23738W        W96806  22.265  30.983   3.636
23739W        W96807   3.029  28.476  14.983
23740W        W96808  44.742  18.690   3.555
23741W        W96809  24.083   8.378   5.295
23742W        W96810  33.167  34.011  14.847
23743W        W96811  17.649  34.757   0.360
23744W        W96812  39.415   1.009   2.420
23745W        W96813  37.681   7.910   2.767
23746W        W96814  25.239  24.975   1.258
23747W        W96815   6.595  39.535  14.022
23748W        W96816  27.152  11.269   3.198
23749W        W96817  42.992  31.038   2.875
23750W        W96818  37.333  20.498  12.946
23751W        W96819  20.730   7.545   2.092
23752W        W96820  34.133  19.259  12.788
23753W        W96821  27.196  24.211  12.096
23754W        W96822  35.233  15.110  12.510
23755W        W96823  25.303  16.241   4.090
23756W        W96824  25.539  26.196  13.575
23757W        W96825  18.394  22.610  11.494
23758W        W96826  42.809  24.729  12.054
23759W        W96827  34.389   6.615  14.979
23760W        W96828  19.599  16.567  14.579
23761W        W96829  12.515  43.527  10.786
23762W        W96830  22.966  10.920  14.839
23763W        W96831  41.121  42.212  13.871
23764W        W96832  43.856  28.636   1.205
23765W        W96833  26.632  32.089  12.967
23766W        W96834  26.149  32.815   1.367
23767W        W96835  38.302  28.793  14.370
23768W        W96836  36.130   4.459  12.977
23769W        W96837  25.520  18.769  10.669
23770W        W96838  20.303  33.017   1.751
23771W        W96839   2.078  26.831  12.146
23772W        W96840  38.997   5.973  14.949
23773W        W96841  44.862  39.640   3.112
23774W        W96842  39.988  24.591  11.452
23775W        W96843  36.969   1.903  11.599
23776W        W96844  35.583  24.530   0.412
23777W        W96845  14.601   9.821  14.978
23778W        W96846   6.872  40.802  12.089
23779W        W96847  43.580  38.433   2.176
23780W        W96848  40.283  34.867   0.848
23781W        W96849   1.981  11.675  14.959
23782W        W96850  24.850  14.718   3.149
23783W        W96851  22.900  31.665  11.176
23784W        W96852   4.921  39.758  11.645
23785W        W96853  13.749  33.607   1.049
23786W        W96854  17.836   3.421   0.183
23787W        W96855  35.407  24.561  11.256
23788W        W96856   2.911   8.173  11.889
23789W        W96857  30.946  24.580   0.260
23790W        W96858   7.849  19.319  14.895
23791W        W96859   2.242   3.897   1.303
23792W        W96860  31.513   8.475   2.342
23793W        W96861  38.019  29.608  12.811
23794W        W96862  18.794  10.823   2.803
23795W        W96863  31.129  34.926   0.428
23796W        W96864  39.558  11.734  13.534
23797W        W96865  34.745  11.195  12.460
23798W        W96866  17.424  11.442   1.996
23799W        W96867  20.813   8.430   4.935
23800W        W96868  15.850   4.387  10.860
23801W        W96869  12.232  40.930   1.381
23802W        W96870  16.927  39.016   1.196
23803W        W96871  11.758   1.792  11.070
23804W        W96872   8.068  17.652  10.621
23805W        W96873  24.979  22.316   4.981
23806W        W96874  33.390   3.143   1.211
23807W        W96875   5.290  44.507   3.671
23808W        W96876  36.634   0.212   2.168
23809W        W96877   7.351  43.281   3.338
23810W        W96878  25.714  20.698   0.102
23811W        W96879   1.418  26.969  12.941
23812W        W96880  36.067  28.038  13.794
23813W        W96881   6.392   1.559   0.943
23814W        W96882   8.772  22.649   2.272
23815W        W96883  26.364  34.064   3.375
23816W        W96884  20.029  28.456  11.834
23817W        W96885  44.792  37.436  12.571
23818W        W96886  18.130  31.939  13.077
23819W        W96887  20.172  19.812   1.186
23820W        W96888  25.026  31.206  14.905
23821W        W96889  22.356   0.192   3.649
23822W        W96890  29.604  44.846  13.383
23823W        W96891  18.771  29.915  13.427
23824W        W96892  41.855  16.840  11.134
23825W        W96893   8.855  41.018  14.565
23826W        W96894  35.899  20.266  10.650
23827W        W96895   6.625  23.291  13.547
23828W        W96896   4.390  18.006  12.560
23829W        W96897  43.758   6.709  12.570
23830W        W96898  10.163  10.630   4.187
23831W        W96899  11.096  24.619  14.517
23832W        W96900  10.717  40.623  11.552
23833W        W96901  18.278  14.281  13.351
23834W        W96902  39.826  40.424   2.166
23835W        W96903  39.241   6.200   5.719
23836W        W96904   8.818   7.502  10.686
23837W        W96905  16.524   3.316  13.030
23838W        W96906  35.447  29.606  10.481
23839W        W96907  23.079  21.033  11.162
23840W        W96908  25.098  34.930  13.056
23841W        W96909   1.459  30.579  12.522
23842W        W96910  35.529  27.863   4.817
23843W        W96911  40.268  14.285   2.194
23844W        W96912  14.222  30.237   3.705
23845W        W96913  41.050  14.420  12.952
23846W        W96914  26.967  24.652  10.770
23847W        W96915   9.435  32.144   3.484
23848W        W96916  44.364  11.860  11.609
23849W        W96917   9.207   3.747  13.812
23850W        W96918  17.904  15.864  10.974
23851W        W96919  26.938  22.622  14.853
23852W        W96920  21.665  40.011  11.071
23853W        W96921  36.283  24.022  13.109
23854W        W96922  10.756   1.866  14.762
23855W        W96923  12.280  39.893  10.656
23856W        W96924  40.791  24.445   2.872
23857W        W96925  13.114  31.146  12.056
23858W        W96926  18.773  40.276   1.239
23859W        W96927  22.290  44.272   3.703
23860W        W96928  43.216  13.398  11.390
23861W        W96929  19.010  29.705  10.270
23862W        W96930   9.913   1.249   4.170
23863W        W96931  27.486  30.477   1.813
23864W        W96932   3.708  14.642  12.294
23865W        W96933  34.971  14.326   3.238
23866W        W96934   6.316  14.310   5.212
23867W        W96935  14.107  22.027  14.450
23868W        W96936  13.978  43.100   3.754
23869W        W96937  33.131  14.733  13.986
23870W        W96938  36.663   1.725   2.621
23871W        W96939  26.067  39.598  10.648
23872W        W96940  36.575  19.149   2.926
23873W        W96941  29.659  32.118   0.740
23874W        W96942  12.359  35.977   1.071
23875W        W96943   5.900  32.910   0.656
23876W        W96944  18.082  14.725  13.598
23877W        W96945   3.480  38.057   1.872
23878W        W96946  26.420  13.201  12.078
23879W        W96947  20.401   8.111   1.621
23880W        W96948   0.695  15.636   2.949
23881W        W96949  14.300  40.306  12.993
23882W        W96950  27.414  34.100  11.912
23883W        W96951  11.195  44.692   2.194
23884W        W96952  30.622  13.967  14.809
23885W        W96953  20.566  14.249   2.396
23886W        W96954  32.280  28.358  12.129
23887W        W96955   7.698   8.018  10.841
23888W        W96956  36.055  18.373   4.163
23889W        W96957   1.503  13.317   3.629
23890W        W96958  37.508   9.661  10.457
23891W        W96959  12.840  33.931   0.750
23892W        W96960  12.952  15.201  11.618
23893W        W96961  20.194  24.704   2.850
23894W        W96962  41.920   0.724  14.032
23895W        W96963  32.078  30.420   3.659
23896W        W96964   4.197  34.355   1.715
23897W        W96965  15.762  13.604   2.407
23898W        W96966  36.918  41.933   4.368
23899W        W96967  17.071  44.290  13.401
23900W        W96968  10.411  19.152   0.063
23901W        W96969  11.172  38.225  13.099
23902W        W96970  25.041  42.935   4.903
23903W        W96971  43.249  29.021   3.339
23904W        W96972  44.783  42.259  12.166
23905W        W96973  33.107  11.785   1.358
23906W        W96974   7.762  16.310  11.068
23907W        W96975   7.354  22.328  14.805
23908W        W96976  34.259   7.336  11.137
23909W        W96977  31.206  31.032  11.272
23910W        W96978  35.821   2.465  12.946
23911W        W96979   0.321  30.876   2.789
23912W        W96980  14.875  23.533  13.530
23913W        W96981  31.057  29.101   0.218
23914W        W96982  38.837   1.785   5.133
23915W        W96983   3.202  32.398   1.635
23916W        W96984  25.743  35.135  11.107
23917W        W96985   5.759  13.178  14.822
23918W        W96986  40.713  22.578   5.023
23919W        W96987  15.821  27.084   2.154
23920W        W96988  13.553  31.104   0.352
23921W        W96989  21.146   5.669   1.668
23922W        W96990  24.258  10.273  13.629
23923W        W96991  24.679   6.892  14.777
23924W        W96992  42.928  34.468  13.897
23925W        W96993  26.992  35.977   0.362
23926W        W96994  38.866  15.095  12.902
23927W        W96995  23.642  14.006  14.300
23928W        W96996  28.308   4.097   4.477
23929W        W96997   7.721  42.041   3.529
23930W        W96998  22.581  19.495  12.615
23931W        W96999  40.354  24.291  13.530
23932W        W97000  33.800   8.791  12.403
23933W        W97001  21.230  35.774   2.288
23934W        W97002  21.256  42.305   0.170
23935W        W97003  22.349  44.163   0.230
23936W        W97004  39.880  31.030  13.302
23937W        W97005  15.504  15.933  14.290
23938W        W97006  36.983   0.024  13.686
23939W        W97007   2.332  33.101  13.602
23940W        W97008  41.961  10.223   3.102
23941W        W97009  14.241  27.120   0.007
23942W        W97010  38.195  17.831   4.211
23943W        W97011  17.120  33.839   1.704
23944W        W97012  24.794  33.544   4.679
23945W        W97013   1.394  36.385  11.740
23946W        W97014   2.393  25.494   4.072
23947W        W97015   4.275  23.428   3.714
23948W        W97016  18.142   6.832  14.117
23949W        W97017  34.537   6.251   0.433
23950W        W97018  20.153  25.397  12.510
23951W        W97019  23.559  11.641  14.730
23952W        W97020  22.589   8.743  10.748
23953W        W97021  27.679  29.085  14.805
23954W        W97022  42.310   3.701   1.286
23955W        W97023  43.087  36.980   2.375
23956W        W97024  44.195  37.510   0.805
23957W        W97025  27.712  31.348  11.009
23958W        W97026   9.807  33.067   2.706
23959W        W97027  44.964   1.790  10.668
23960W        W97028  33.621  30.441  13.424
23961W        W97029  31.446  24.313   4.170
23962W        W97030   4.734  30.034  11.500
23963W        W97031  10.704   1.446  13.847
23964W        W97032   5.907  21.319   0.163
23965W        W97033   5.497  21.472   2.402
23966W        W97034  22.513  32.958  12.005
23967W        W97035  17.039   0.003  12.518
23968W        W97036  40.622  24.544  13.884
23969W        W97037   1.766  22.720   2.023
23970W        W97038  21.917  18.212  14.794
23971W        W97039  37.340  26.149  12.260
23972W        W97040   4.950  33.089  10.576
23973W        W97041  44.217   7.848   2.941
23974W        W97042  33.936  31.562   0.257
23975W        W97043  14.586  18.610  12.112
23976W        W97044  30.749  42.987  14.364
23977W        W97045  15.648  14.648   2.359
23978W        W97046  13.372   7.912  11.768
23979W        W97047  15.535  24.049   0.270
23980W        W97048  20.299  33.964  11.595
23981W        W97049  36.572  13.534   2.790
23982W        W97050  43.502  17.727   1.653
23983W        W97051  43.884  27.772   2.431
23984W        W97052  11.684   7.137  13.731
23985W        W97053  24.585  26.042  13.554
23986W        W97054  12.262  17.122   5.419
23987W        W97055   5.979   7.778  11.117
23988W        W97056  15.608  39.544   1.310
23989W        W97057  29.532  38.904  14.532
23990W        W97058  43.752  21.513   1.754
23991W        W97059  17.138  31.389  14.904
23992W        W97060  33.898  16.193  13.887
23993W        W97061   4.972  26.577  12.932
23994W        W97062  11.360  42.028  12.546
23995W        W97063   8.363  35.270   4.228
23996W        W97064  21.257   0.634  13.299
23997W        W97065  16.553  29.853   3.670
23998W        W97066  22.978  19.582   1.869
23999W        W97067  38.336  35.947   2.752
24000W        W97068  31.426  14.302   1.187
24001W        W97069  27.544  13.311  13.025
24002W        W97070  42.012   9.737  13.088
24003W        W97071  22.206   0.186   4.152
24004W        W97072  33.625  27.666   2.309
24005W        W97073   0.359  36.617  13.281
24006W        W97074  11.839  36.944   1.941
24007W        W97075  12.355  10.596  14.319
24008W        W97076  36.423  22.312  12.494
24009W        W97077  28.515  33.087  11.528
24010W        W97078  38.999  17.823  10.182
24011W        W97079  13.805  18.215  11.022
24012W        W97080  29.601   5.991   4.632
24013W        W97081  22.670  19.489  14.071
24014W        W97082  41.046  22.244   0.425
24015W        W97083  27.555  22.864  11.554
24016W        W97084  35.103  29.025   4.717
24017W        W97085  17.005  17.234  11.931
24018W        W97086  18.780  21.694  12.591
24019W        W97087  10.596  31.565  11.537
24020W        W97088  38.903  23.948  10.335
24021W        W97089   0.987   2.885  12.900
24022W        W97090  22.606   3.384   0.312
24023W        W97091  41.193  13.913   0.967
24024W        W97092  21.857  35.520   0.009
24025W        W97093   5.902  21.039   4.598
24026W        W97094  42.872  13.786  11.128
24027W        W97095  10.222  17.699   5.096
24028W        W97096  17.557  10.351   0.472
24029W        W97097  43.951  32.998  14.042
24030W        W97098  20.793  36.924   2.106
24031W        W97099  31.832  26.860   0.556
24032W        W97100  19.568  30.615   3.399
24033W        W97101  23.988  43.269  10.753
24034W        W97102   9.313  30.924   2.753
24035W        W97103  28.846   2.804  11.169
24036W        W97104  38.375  36.587   3.571
24037W        W97105  24.641  13.133   0.367
24038W        W97106  22.727  10.353  10.706
24039W        W97107   9.882   2.221  14.795
24040W        W97108  27.319  42.581  10.764
24041W        W97109  17.551   2.597  11.232
24042W        W97110  28.648  29.995   3.133
24043W        W97111  21.017  38.794   2.225
24044W        W97112   1.245  20.003   2.259
24045W        W97113   2.287   5.266  12.716
24046W        W97114  41.846  25.299   9.828
24047W        W97115  29.123   4.060  14.285
24048W        W97116  39.396  24.747  12.512
24049W        W97117  15.093  43.896  11.567
24050W        W97118  36.548  35.657  11.180
24051W        W97119  26.086  37.925  14.056
24052W        W97120   2.058   3.529  12.812
24053W        W97121  14.822  31.036   3.828
24054W        W97122  41.552  33.405  11.156
24055W        W97123  25.008  17.270   2.224
24056W        W97124   4.290  14.095  12.405
24057W        W97125  21.858  12.591   4.276
24058W        W97126  33.487  24.160  14.774
24059W        W97127  19.167   1.378  13.159
24060W        W97128  41.510  26.707  13.277
24061W        W97129  16.246  40.951  10.911
24062W        W97130  29.934  20.969  11.027
24063W        W97131   6.084   0.243   0.294
24064W        W97132  38.106  28.121   0.288
24065W        W97133   8.090  10.676   4.007
24066W        W97134  42.746  43.331  12.260
24067W        W97135  21.999  19.273   9.718
24068W        W97136  29.478  22.623  11.079
24069W        W97137   8.388  22.277  11.622
24070W        W97138  15.267  26.805  13.094
24071W        W97139   3.010  36.998  12.117
24072W        W97140   7.059  31.989   2.776
24073W        W97141   4.509   7.795   0.865
24074W        W97142   2.300  19.218   2.966
24075W        W97143  20.022  39.334   0.476
24076W        W97144   9.128  32.359  14.025
24077W        W97145  35.409  18.284   1.276
24078W        W97146  21.266   1.120  13.413
24079W        W97147  11.205  39.480  13.090
24080W        W97148  40.958  28.990  10.939
24081W        W97149  18.506  40.429   1.673
24082W        W97150  24.435  18.235   1.477
24083W        W97151  42.119   3.837   4.625
24084W        W97152   0.202  10.795  13.409
24085W        W97153  14.159  14.843   3.806
24086W        W97154  19.118  15.267  13.403
24087W        W97155  25.257   0.019   3.747
24088W        W97156  30.780  26.798  11.124
24089W        W97157  23.246  12.716   0.712
24090W        W97158  36.733   2.615   1.412
24091W        W97159  33.897   4.299  14.747
24092W        W97160  34.464  25.552   0.750
24093W        W97161  36.899  10.946   0.556
24094W        W97162  44.704  22.644   1.473
24095W        W97163  31.978   0.099   0.435
24096W        W97164  10.281  15.155  12.127
24097W        W97165  32.519  42.793  11.163
24098W        W97166  18.059  11.855  11.860
24099W        W97167  19.670  20.622  14.321
24100W        W97168  32.181  27.493  12.529
24101W        W97169  34.055  29.487   0.997
24102W        W97170  31.914  24.227   4.425
24103W        W97171   0.747   5.189  12.442
24104W        W97172  24.444  29.626  14.265
24105W        W97173   1.903  36.008  10.582
24106W        W97174  33.859  28.515  11.156
24107W        W97175  17.223   7.881  13.863
24108W        W97176  22.875  27.867  13.614
24109W        W97177  44.554  16.836   3.250
24110W        W97178  32.890  25.118   2.164
24111W        W97179  17.023  37.021   0.437
24112W        W97180  15.352  27.916   0.596
24113W        W97181  41.340  25.898   1.294
24114W        W97182  29.701  16.765   2.720
24115W        W97183  44.893  43.238  13.985
24116W        W97184  41.835  12.072   3.120
24117W        W97185  18.277  19.588  14.848
24118W        W97186   0.040  19.098   4.255
24119W        W97187  31.179  37.386  13.305
24120W        W97188  42.706   0.831   2.272
24121W        W97189   1.325   8.726   4.168
24122W        W97190  30.641  13.252   4.599
24123W        W97191  32.338  23.459   4.637
24124W        W97192  16.962  31.690   0.280
24125W        W97193  28.999  43.960  12.191
24126W        W97194  23.699  39.562   0.955
24127W        W97195  41.133  12.745  11.204
24128W        W97196  10.154  42.579   4.221
24129W        W97197  10.218  23.660   0.455
24130W        W97198  38.856  40.380   5.081
24131W        W97199  16.169  28.027  13.627
24132W        W97200  40.065  28.236   4.789
24133W        W97201  43.005  30.435  12.929
24134W        W97202  27.594  24.393  12.501
24135W        W97203  44.865  39.275  14.448
24136W        W97204   9.647  27.720  14.820
24137W        W97205  10.228  29.447   1.356
24138W        W97206  18.271  23.047   2.874
24139W        W97207  16.113   1.167  11.137
24140W        W97208  10.162   4.971   1.674
24141W        W97209  26.587  42.315  14.576
24142W        W97210  28.824  18.964   1.564
24143W        W97211  41.280  18.666  13.576
24144W        W97212  29.947  21.826  11.938
24145W        W97213  25.958  36.034   3.163
24146W        W97214  44.362   0.314  10.649
24147W        W97215  38.333  19.585  14.061
24148W        W97216   5.828   8.789   3.395
24149W        W97217  35.366  13.264   2.882
24150W        W97218  27.124  33.174   3.129
24151W        W97219  34.909  12.962   4.069
24152W        W97220  31.633   2.525   2.882
24153W        W97221   8.513  12.259   2.249
24154W        W97222   6.058  31.055   1.363
24155W        W97223   7.110  31.518   1.816
24156W        W97224   8.247  27.729   1.884
24157W        W97225  15.808  36.348   0.836
24158W        W97226  10.574  42.257   4.199
24159W        W97227  43.810  22.929   0.402
24160W        W97228  26.999  30.012   3.786
24161W        W97229   5.251  41.671  14.552
24162W        W97230  34.603  28.216  14.765
24163W        W97231  42.604   2.582   2.606
24164W        W97232  15.666  12.180  10.581
24165W        W97233  22.056  25.812  13.275
24166W        W97234  37.920  14.058  13.361
24167W        W97235  16.348  44.430   1.228
24168W        W97236  39.294  39.797  13.500
24169W        W97237  25.778  43.850   2.694
24170W        W97238  36.390  23.134  14.073
24171W        W97239  37.118   0.369  14.501
24172W        W97240  36.074   9.869   1.879
24173W        W97241   2.463  24.781   1.388
24174W        W97242  37.006  18.743  12.446
24175W        W97243   3.484  42.042  13.509
24176W        W97244  42.415  35.633  11.172
24177W        W97245  32.183   3.749  11.734
24178W        W97246   3.719  25.960   0.345
24179W        W97247  18.070  28.370  14.792
24180W        W97248  37.100  27.476   1.299
24181W        W97249  40.991  13.294   1.740
24182W        W97250   0.205  24.007   1.883
24183W        W97251  22.896   1.089   3.826
24184W        W97252   2.283  32.668  13.258
24185W        W97253  12.643  38.575   4.634
24186W        W97254  31.501  29.045   0.497
24187W        W97255  19.562  41.328   1.184
24188W        W97256  37.960  15.352   2.580
24189W        W97257  18.634  30.863  12.617
24190W        W97258  20.307  22.760  10.395
24191W        W97259  35.372   4.856   2.293
24192W        W97260  17.543  42.077  13.021
24193W        W97261   7.652   0.413  13.895
24194W        W97262   8.673  41.873  13.957
24195W        W97263   2.836  15.182   2.973
24196W        W97264  44.283  18.085  13.052
24197W        W97265  18.222  17.810  14.372
24198W        W97266  33.988   5.454  14.280
24199W        W97267  19.110  16.517  12.115
24200W        W97268  25.494   4.967   3.215
24201W        W97269  39.475  13.133   1.700
24202W        W97270  32.602  31.000  12.930
24203W        W97271   8.814  12.627  11.573
24204W        W97272   8.258  24.545   3.386
24205W        W97273  12.596  41.217   1.168
24206W        W97274  23.737  44.270   2.879
24207W        W97275  25.841   2.520  11.620
24208W        W97276  36.597  29.119   2.810
24209W        W97277  36.542  32.064  11.093
24210W        W97278  40.004  40.037   3.380
24211W        W97279  31.631   3.909   1.333
24212W        W97280  41.911   3.476   0.042
24213W        W97281   7.440   3.287   2.874
24214W        W97282  16.770   7.483   1.059
24215W        W97283  28.103  31.846  12.121
24216W        W97284  44.531   9.271   2.792
24217W        W97285   9.629  21.644  11.595
24218W        W97286   6.188  42.401   4.444
24219W        W97287  33.034  20.294  14.388
24220W        W97288   7.997  41.938   4.470
24221W        W97289  19.063  29.679   1.512
24222W        W97290   7.917  39.329  10.291
24223W        W97291   4.601  42.297   0.922
24224W        W97292  34.151  10.884  13.881
24225W        W97293  35.599   8.446   4.575
24226W        W97294  38.217  13.108   1.627
24227W        W97295  35.912  30.107  12.519
24228W        W97296  21.991  29.174   0.189
24229W        W97297  27.228  30.441  13.887
24230W        W97298  34.593  37.941   1.339
24231W        W97299  43.481  14.631   0.685
24232W        W97300  17.368  19.671  14.755
24233W        W97301  11.241  30.149  12.785
24234W        W97302   4.311  44.919   2.853
24235W        W97303   3.352   2.756  11.478
24236W        W97304  16.047  20.730  12.947
24237W        W97305  25.424  16.018   0.486
24238W        W97306  28.568   8.227  13.331
24239W        W97307  12.341  11.803   4.289
24240W        W97308   9.069  21.967  12.568
24241W        W97309  27.586   9.601   4.532
24242W        W97310  21.031   7.673   2.808
24243W        W97311  11.603   2.266   1.751
24244W        W97312  22.136  44.339   0.657
24245W        W97313  43.036  26.027   4.068
24246W        W97314   3.710  44.865  12.479
24247W        W97315   6.724   0.383  12.085
24248W        W97316  12.665   3.932  11.410
24249W        W97317  21.033  39.102   1.810
24250W        W97318  28.663  35.508  12.125
24251W        W97319  37.843   5.803  12.680
24252W        W97320  21.528  29.428  12.097
24253W        W97321  39.017  11.064  13.612
24254W        W97322  12.885   0.006   4.613
24255W        W97323  32.618  11.596   1.286
24256W        W97324  18.785  26.882   1.833
24257W        W97325  36.484  20.394  12.160
24258W        W97326   2.993  27.995  11.076
24259W        W97327  44.594   2.805  12.041
24260W        W97328  29.693  21.985  14.818
24261W        W97329  23.539  36.373  14.861
24262W        W97330  42.435  28.973   2.416
24263W        W97331  35.663  44.380  12.880
24264W        W97332  37.915   5.402  13.885
24265W        W97333   5.290  27.610   4.045
24266W        W97334   5.517  30.461   3.270
24267W        W97335   4.279  13.818   2.814
24268W        W97336  37.106   5.694   1.580
24269W        W97337  23.252   1.993  12.475
24270W        W97338  36.328  17.031  11.267
24271W        W97339  42.290  13.520  12.376
24272W        W97340  39.353  36.899   1.322
24273W        W97341  34.005  17.646  11.570
24274W        W97342  22.686  23.286   2.747
24275W        W97343  11.793   6.248   1.121
24276W        W97344  10.185   7.727   2.215
24277W        W97345  12.386  26.670  11.515
24278W        W97346  32.482  27.195   1.997
24279W        W97347  23.974  12.856   3.647
24280W        W97348  28.997  19.276  14.991
24281W        W97349  37.606  39.437  11.896
24282W        W97350  20.004  20.675  10.718
24283W        W97351  40.003  43.504  10.989
24284W        W97352   1.792  44.250   4.665
24285W        W97353  12.362   4.165  14.311
24286W        W97354  39.425   9.271   3.036
24287W        W97355  14.859  44.243   1.338
24288W        W97356   5.946  35.985  11.431
24289W        W97357   5.541  37.116  12.872
24290W        W97358  32.922  31.159  13.421
24291W        W97359   9.813   9.450  13.741
24292W        W97360  14.829   0.339  10.712
24293W        W97361  26.076   4.497   1.128
24294W        W97362  12.851   9.070  12.576
24295W        W97363  11.169  24.159   1.721
24296W        W97364  22.063   5.367   3.646
24297W        W97365  28.415  34.545   3.633
24298W        W97366  27.182  29.451   2.293
24299W        W97367   0.819   8.732  13.826
24300W        W97368  27.967  29.588   3.639
24301W        W97369  16.301  13.671  11.631
24302W        W97370  28.716   0.243   3.762
24303W        W97371  20.085  25.370   1.213
24304W        W97372  24.678  13.321  13.453
24305W        W97373   8.657  11.730   0.993
24306W        W97374  20.717  31.875  11.656
24307W        W97375  20.137   3.191   0.254
24308W        W97376  10.286  27.495   1.234
24309W        W97377  21.941  12.651  14.262
24310W        W97378  33.662  18.705  13.869
24311W        W97379   2.005  44.560  12.037
24312W        W97380  40.965  19.167   2.690
24313W        W97381  32.365  44.535   3.319
24314W        W97382   6.810  30.402  10.758
24315W        W97383   1.988  26.582   3.124
24316W        W97384  26.046  17.958  11.233
24317W        W97385  36.538  39.563   0.689
24318W        W97386  35.411  13.663   3.753
24319W        W97387  32.147  12.224  13.468
24320W        W97388  13.183  37.866  11.246
24321W        W97389   8.426   8.123  13.873
24322W        W97390  33.426  41.236  13.444
24323W        W97391  40.225  18.673  13.081
24324W        W97392  34.920  39.645   2.197
24325W        W97393  18.133  13.702   3.235
24326W        W97394  40.826  23.159   3.838
24327W        W97395  40.621  42.896  12.080
24328W        W97396  30.574  21.101   1.028
24329W        W97397  44.678   5.056   0.293
24330W        W97398  39.555   1.418  10.237
24331W        W97399   9.430  33.878  11.181
24332W        W97400  19.646  16.635   2.292
24333W        W97401   2.809  25.317  13.339
24334W        W97402  30.392   8.778  13.182
24335W        W97403  31.669  23.816   0.841
24336W        W97404   5.773  22.704  13.371
24337W        W97405  10.715  12.233   1.916
24338W        W97406  16.361   3.809  10.564
24339W        W97407  38.605  21.152   3.133
24340W        W97408  34.322  17.714   2.148
24341W        W97409  35.270   4.824  13.066
24342W        W97410  24.199  27.949  11.939
24343W        W97411   3.005  34.573   4.156
24344W        W97412  44.823  14.335  14.010
24345W        W97413  40.311  13.683   0.863
24346W        W97414  20.166  18.571  13.118
24347W        W97415   0.065  27.100   4.151
24348W        W97416   4.201   2.406   2.013
24349W        W97417  25.512  29.919   0.224
24350W        W97418  40.363  38.426  12.053
24351W        W97419  14.723   7.230   0.970
24352W        W97420   3.017  18.678  11.718
24353W        W97421  22.601   7.210  14.832
24354W        W97422  26.189  36.970   4.141
24355W        W97423  39.625  17.200   3.292
24356W        W97424  10.834  13.645   3.253
24357W        W97425  42.771  12.146   3.104
24358W        W97426  16.830  33.818  13.458
24359W        W97427  33.497  25.892   0.834
24360W        W97428  31.602  21.835  11.558
24361W        W97429   6.352   5.951  14.008
24362W        W97430  27.508  24.050  10.556
24363W        W97431  21.480   8.882  12.002
24364W        W97432  18.576  23.841  13.430
24365W        W97433  17.173  14.905  14.776
24366W        W97434  10.240  37.434   0.733
24367W        W97435  32.712  19.168  13.981
24368W        W97436  44.492  24.227  12.480
24369W        W97437  31.197  26.861   4.246
24370W        W97438  34.570  25.689   4.561
24371W        W97439   5.401  28.007  14.820
24372W        W97440  14.809  20.397   0.507
24373W        W97441   1.255   7.588   3.306
24374W        W97442  20.562  10.237   0.268
24375W        W97443  39.848   3.238   1.889
24376W        W97444  37.409   0.823   3.783
24377W        W97445  37.410  33.006  10.996
24378W        W97446  31.123  26.451  11.827
24379W        W97447  15.552  41.838  13.471
24380W        W97448  39.924   6.156   0.837
24381W        W97449   5.590  17.287   4.893
24382W        W97450  24.625   3.706   2.245
24383W        W97451  18.531  23.215  12.180
24384W        W97452  38.446   1.276   2.634
24385W        W97453  38.569  23.562  11.515
24386W        W97454  16.421  10.752   0.029
24387W        W97455  32.130   2.003   2.442
24388W        W97456  38.516   0.450   3.313
24389W        W97457  30.076  43.582   1.936
24390W        W97458   8.160  19.702   3.097
24391W        W97459  36.453   0.458   3.615
24392W        W97460   7.875  12.306  10.716
24393W        W97461   1.472   2.727   0.803
24394W        W97462  22.067   9.152  13.965
24395W        W97463  17.589  38.075  12.736
24396W        W97464  20.698  25.144  11.165
24397W        W97465  35.267  29.581  14.993
24398W        W97466  30.811  19.196   1.946
24399W        W97467  17.740   5.773   0.830
24400W        W97468   2.548  29.189   1.149
24401W        W97469  25.647  27.668  12.534
24402W        W97470   4.935  23.920  12.063
24403W        W97471  18.330  17.125  12.399
24404W        W97472  16.235  21.538   0.780
24405W        W97473   0.272  33.742   3.995
24406W        W97474  38.304   4.444   1.612
24407W        W97475  31.714  40.728   1.107
24408W        W97476  42.043  14.414  11.499
24409W        W97477   0.861  16.705  11.039
24410W        W97478  37.845  28.385  11.990
24411W        W97479  25.984  16.739   1.255
24412W        W97480   0.720  15.806  12.603
24413W        W97481   3.010  37.052   4.847
24414W        W97482  19.801  10.181  14.791
24415W        W97483  26.919  26.650  14.370
24416W        W97484  39.998  15.774  12.427
24417W        W97485  10.323  31.203   0.438
24418W        W97486  19.793  20.239   4.395
24419W        W97487  18.704   7.745  11.094
24420W        W97488  12.599  21.190   3.722
24421W        W97489  26.481  17.428   4.012
24422W        W97490   1.962   0.303  14.016
24423W        W97491  42.827  21.597   4.119
24424W        W97492   9.376  15.316  13.334
24425W        W97493   3.995  32.072  12.016
24426W        W97494  37.527  19.308   4.107
24427W        W97495   6.233  32.450   4.485
24428W        W97496  41.593  35.514  14.875
24429W        W97497   7.315  35.475   1.909
24430W        W97498  17.059  34.832   0.765
24431W        W97499   9.759   1.127   1.820
24432W        W97500  38.779   2.292  11.969
24433W        W97501  20.710  26.667  12.923
24434W        W97502   4.257  12.682   2.361
24435W        W97503   3.152   4.867  12.793
24436W        W97504  18.219  12.829  13.790
24437W        W97505  23.454  41.799  10.673
24438W        W97506  44.941   3.624   3.407
24439W        W97507  26.021  33.414   3.597
24440W        W97508  37.813  20.044   0.129
24441W        W97509  12.504  11.734   3.205
24442W        W97510  20.619   4.563   2.811
24443W        W97511  34.490   9.336   1.342
24444W        W97512  42.333  18.536   4.636
24445W        W97513  35.850  41.856  12.483
24446W        W97514  28.092  29.661  13.440
24447W        W97515  28.038   0.508   0.867
24448W        W97516  41.350  42.647  14.098
24449W        W97517  44.241   5.163  14.004
24450W        W97518   5.788  36.730   3.554
24451W        W97519  43.165   2.088  13.799
24452W        W97520  10.264  37.965  12.506
24453W        W97521  15.848  22.468  13.489
24454W        W97522  26.616   6.130  10.314
24455W        W97523  44.518  22.129   2.671
24456W        W97524   6.299   8.856   3.117
24457W        W97525  30.786  10.589   0.468
24458W        W97526  38.839  37.593   0.893
24459W        W97527  37.946  28.620   1.020
24460W        W97528  14.129  22.079   0.342
24461W        W97529  36.279  12.222  14.436
24462W        W97530  20.752  21.722  14.957
24463W        W97531  15.267   0.838  11.427
24464W        W97532   2.481  11.738   4.109
24465W        W97533  20.033  23.184  10.631
24466W        W97534  34.540  27.395   0.227
24467W        W97535  11.896  35.649  13.919
24468W        W97536  21.443  40.954  11.099
24469W        W97537   1.979   7.210   1.441
24470W        W97538  43.007  12.801   4.310
24471W        W97539   3.756   1.866  10.570
24472W        W97540  24.013  36.575   5.205
24473W        W97541  16.659  33.148   1.024
24474W        W97542   4.443  26.649  13.919
24475W        W97543  36.131  31.158  12.961
24476W        W97544  31.712  25.143  14.942
24477W        W97545  40.489  19.249   2.879
24478W        W97546   6.328  10.674  10.645
24479W        W97547   3.201  16.276   1.725
24480W        W97548  21.547   2.720   2.367
24481W        W97549  43.476  40.816   1.506
24482W        W97550  17.658   6.048   0.393
24483W        W97551  31.054   4.165   1.744
24484W        W97552  28.969  17.490  12.111
24485W        W97553   9.336  18.098   1.933
24486W        W97554  13.860  25.376   0.743
24487W        W97555  32.372  31.135   2.206
24488W        W97556   4.682  24.017   2.907
24489W        W97557  39.863  12.875  14.839
24490W        W97558  18.094  30.181   4.045
24491W        W97559  36.822  16.148   1.324
24492W        W97560  15.786  31.066   0.910
24493W        W97561   2.540   8.754   4.972
24494W        W97562  19.061  44.950  12.273
24495W        W97563   7.558   2.464  12.015
24496W        W97564  33.637  28.300   1.735
24497W        W97565   4.942  34.874  14.969
24498W        W97566  31.177  24.291  14.759
24499W        W97567   8.180  10.068   2.807
24500W        W97568  43.752  15.801   4.532
24501W        W97569   7.863  19.950   2.734
24502W        W97570  13.346  32.933  12.316
24503W        W97571  10.612  29.836   2.214
24504W        W97572   8.774   9.499   0.391
24505W        W97573  40.536  11.286   3.248
24506W        W97574  40.214  30.918  12.866
24507W        W97575  16.297  15.190  10.795
24508W        W97576  33.791  22.614  12.682
24509W        W97577  35.512   0.480  13.517
24510W        W97578  16.360   9.966  13.563
24511W        W97579  18.958  12.791  12.154
24512W        W97580  33.333   4.394   1.868
24513W        W97581   7.367  32.909   3.403
24514W        W97582   0.660   6.706  11.645
24515W        W97583  34.997  43.518   3.064
24516W        W97584   0.731   0.372   1.374
24517W        W97585  15.852   0.309   4.229
24518W        W97586   4.213  18.308  11.273
24519W        W97587  37.418   9.840   4.526
24520W        W97588  42.110  18.577   4.077
24521W        W97589  35.993  36.960  13.430
24522W        W97590  37.235   0.597  10.038
24523W        W97591  36.469  37.186  13.365
24524W        W97592   4.807  10.696   3.661
24525W        W97593  37.383   2.713  11.448
24526W        W97594  21.549  27.498   4.841
24527W        W97595  33.495  27.848   5.026
24528W        W97596  22.729   3.695  14.889
24529W        W97597  31.335  20.608   0.934
24530W        W97598  14.778  33.937   2.787
24531W        W97599   2.468  18.639   0.887
24532W        W97600   1.906  40.971   1.191
24533W        W97601  19.035  39.012  13.406
24534W        W97602  41.017  15.634  12.638
24535W        W97603  29.583  20.072  10.524
24536W        W97604  43.957   9.161  11.268
24537W        W97605   1.310  11.557  11.564
24538W        W97606  32.417   8.049  14.738
24539W        W97607  20.042  11.834   4.499
24540W        W97608  21.525  13.544   4.397
24541W        W97609   5.892  32.107  14.860
24542W        W97610  39.841  25.963  10.742
24543W        W97611  42.281  36.833  11.515
24544W        W97612   6.359  37.887  10.666
24545W        W97613  16.200  25.414  13.452
24546W        W97614  18.600  22.697  14.042
24547W        W97615  38.245  42.743   1.860
24548W        W97616  24.481  37.921  14.868
24549W        W97617  11.517  17.808  10.712
24550W        W97618  15.864   6.855   3.373
24551W        W97619  30.434   7.858  10.619
24552W        W97620  25.634  34.301   1.969
24553W        W97621  30.893  22.078   0.436
24554W        W97622  35.326  32.103   0.806
24555W        W97623  20.510  20.066  12.912
24556W        W97624  32.235  44.828   2.292
24557W        W97625  42.378  22.911  11.906
24558W        W97626  16.190  13.352   2.649
24559W        W97627  24.628  25.290   2.895
24560W        W97628  18.254  32.108  11.120
24561W        W97629   0.098  19.339  13.968
24562W        W97630  33.574  28.085  11.146
24563W        W97631  32.405  32.119   2.343
24564W        W97632  29.452   1.729  12.466
24565W        W97633  16.124  23.104   3.756
24566W        W97634  32.035  27.363  13.551
24567W        W97635  34.432  32.566  10.686
24568W        W97636  42.207  21.615  14.002
24569W        W97637  15.775  25.013  14.971
24570W        W97638   6.296  41.779  12.470
24571W        W97639  43.556  30.964  12.431
24572W        W97640  21.566  37.313   0.858
24573W        W97641   0.261  20.783   2.634
24574W        W97642  13.349  19.302   0.371
24575W        W97643  38.272   3.747   3.239
24576W        W97644   2.003  42.901  11.900
24577W        W97645  19.740  26.010   0.476
24578W        W97646  42.464  40.601   1.752
24579W        W97647  15.707  35.515   4.168
24580W        W97648  40.540   1.032   1.168
24581W        W97649  16.172   3.922  12.007
24582W        W97650  20.748  31.153   2.332
24583W        W97651  33.136  32.162  11.174
24584W        W97652  11.528  42.561  10.676
24585W        W97653  42.784  39.117   1.300
24586W        W97654   6.198   2.829   4.500
24587W        W97655  35.714  32.457  14.910
24588W        W97656   8.268  32.008   4.430
24589W        W97657  26.177  37.224  13.577
24590W        W97658  43.799  25.200  10.825
24591W        W97659  28.130  36.371   2.841
24592W        W97660  31.082  24.764   2.188
24593W        W97661  12.301  27.468  11.086
24594W        W97662  28.335  31.877  11.123
24595W        W97663  42.661  41.159  13.805
24596W        W97664  12.679  43.877   0.548
24597W        W97665  20.060  39.592  14.560
24598W        W97666   1.913  38.357   4.263
24599W        W97667   4.844  43.500  14.611
24600W        W97668  15.109  11.673  12.141
24601W        W97669  10.178   7.325  10.678
24602W        W97670  11.821  40.990   3.724
24603W        W97671  21.861  27.007  14.117
24604W        W97672  11.152  40.591  13.545
24605W        W97673  34.335  34.389   0.336
24606W        W97674  13.110  19.039   0.804
24607W        W97675  33.000  25.255  13.512
24608W        W97676  22.269   5.461   1.780
24609W        W97677  29.575  40.022  12.497
24610W        W97678  24.687   1.828  14.511
24611W        W97679  13.302  44.845   3.315
24612W        W97680  39.429  27.818   4.563
24613W        W97681  32.773   6.935   4.231
24614W        W97682  10.168  14.362  10.700
24615W        W97683  15.677  29.898  14.387
24616W        W97684   7.411  11.110   2.863
24617W        W97685  21.074  13.143   3.333
24618W        W97686  26.955  13.011   1.657
24619W        W97687  17.730  28.660   0.762
24620W        W97688  15.595  16.712   4.002
24621W        W97689  40.275   3.700   0.405
24622W        W97690  32.463  43.478   2.629
24623W        W97691  26.927  38.995  14.714
24624W        W97692  37.761   6.307   4.497
24625W        W97693  32.586  19.295   1.709
24626W        W97694  10.418   3.409   4.664
24627W        W97695   4.796  20.162   3.183
24628W        W97696  18.058  44.513   4.490
24629W        W97697  26.942  44.856  12.981
24630W        W97698   3.775  24.208  12.882
24631W        W97699  43.725  38.537   0.927
24632W        W97700  35.595  18.688   1.548
24633W        W97701  44.751  28.110  12.155
24634W        W97702  44.011  29.921   2.877
24635W        W97703  18.554  29.737  13.893
24636W        W97704  20.751   1.425   2.787
24637W        W97705  43.460  19.573   0.772
24638W        W97706   4.177   7.415   0.725
24639W        W97707  19.688   9.326  13.967
24640W        W97708  44.837   0.282   0.344
24641W        W97709  20.096  32.657  13.550
24642W        W97710   3.173  20.210  14.360
24643W        W97711  37.790  19.285   0.288
24644W        W97712   1.219   5.229   1.826
24645W        W97713  22.117  21.059   3.763
24646W        W97714  18.599  43.016  13.409
24647W        W97715  29.786  31.999  12.052
24648W        W97716  36.620  10.837   4.170
24649W        W97717  12.326  13.909  13.180
24650W        W97718  23.310  28.022  10.785
24651W        W97719  17.110  37.023   1.787
24652W        W97720  31.942   0.415  12.973
24653W        W97721  11.346  18.121  11.888
24654W        W97722  26.080  26.513  11.926
24655W        W97723   4.788  24.332  10.756
24656W        W97724  11.400  44.251   2.327
24657W        W97725  41.872  40.666  13.281
24658W        W97726   7.300  17.351  13.830
24659W        W97727  19.437   9.797   3.230
24660W        W97728  20.470   5.185   4.316
24661W        W97729  29.801  38.069   2.127
24662W        W97730  44.174   9.363  12.409
24663W        W97731  16.933  14.620  13.487
24664W        W97732  36.611   1.747   4.171
24665W        W97733   8.865   1.716   0.263
24666W        W97734  43.259  26.820  13.393
24667W        W97735  30.280  27.000   2.338
24668W        W97736  33.595  25.203  14.687
24669W        W97737   1.947  26.613  14.806
24670W        W97738  26.757   3.310   5.026
24671W        W97739   9.265  10.627  13.126
24672W        W97740  40.191  26.963   1.775
24673W        W97741  16.393   7.610  12.106
24674W        W97742  16.893  39.959  11.600
24675W        W97743  19.753  32.751   4.081
24676W        W97744   1.185   8.066  11.172
24677W        W97745  18.213  32.326   4.135
24678W        W97746  34.434  34.383   2.424
24679W        W97747  29.573  22.769  14.427
24680W        W97748  44.896  27.580   4.149
24681W        W97749  34.411  31.451   0.043
24682W        W97750  28.184   1.807   4.739
24683W        W97751   2.477   4.557  11.794
24684W        W97752  37.683  44.983  10.941
24685W        W97753   2.787  23.608   2.754
24686W        W97754  44.682  13.270   1.667
24687W        W97755  44.391  35.514  14.702
24688W        W97756  37.188  19.602  11.121
24689W        W97757  20.191  39.322   1.190
24690W        W97758  18.198  40.784  13.964
24691W        W97759   6.930  23.512  11.993
24692W        W97760  28.386  19.719   0.270
24693W        W97761   6.607   8.707   1.313
24694W        W97762  19.670   5.192   0.939
24695W        W97763  43.219   4.439  11.821
24696W        W97764   6.956  28.531   4.532
24697W        W97765  16.257  13.836   2.445
24698W        W97766   2.205  11.307   4.162
24699W        W97767  16.816  33.238   0.431
24700W        W97768   8.867   8.781  12.760
24701W        W97769   6.376  30.985  11.598
24702W        W97770  13.354  33.642   1.945
24703W        W97771  39.020  20.628   3.049
24704W        W97772  27.588  34.032  12.394
24705W        W97773  17.544   1.939  12.537
24706W        W97774  38.054  10.745  11.978
24707W        W97775  22.750   6.394  10.313
24708W        W97776  37.876  41.845   2.216
24709W        W97777   3.327  28.427   3.766
24710W        W97778   3.902  28.058   0.819
24711W        W97779   9.774  33.570  10.903
24712W        W97780  37.142  26.676   4.111
24713W        W97781   0.546  12.513   5.143
24714W        W97782  37.827   3.520   3.354
24715W        W97783  41.065  23.950  14.578
24716W        W97784  25.749  26.921   3.888
24717W        W97785  44.633  17.591  10.708
24718W        W97786  13.737  30.271  11.267
24719W        W97787   7.426  24.193  10.712
24720W        W97788  35.059  44.884  12.947
24721W        W97789  13.693  24.513  14.709
24722W        W97790  23.501  39.724  12.036
24723W        W97791   4.816  42.486   0.497
24724W        W97792  26.122  26.228   0.922
24725W        W97793  24.213  12.698  11.658
24726W        W97794  33.470  35.492  11.640
24727W        W97795   5.192   6.869  14.832
24728W        W97796  40.940  38.259  11.654
24729W        W97797   2.802  31.067   0.354
24730W        W97798   3.010   2.361  10.889
24731W        W97799  15.800  31.907   3.612
24732W        W97800  42.761   4.928  13.305
24733W        W97801  12.768  19.486  14.080
24734W        W97802  29.168  23.133  13.891
24735W        W97803  42.744  11.701  11.559
24736W        W97804  39.744   6.821   3.638
24737W        W97805   8.709  41.320  11.078
24738W        W97806   6.895  28.376  12.264
24739W        W97807  35.062  10.381  11.565
24740W        W97808  38.171  32.390  11.239
24741W        W97809   5.517  14.871  11.039
24742W        W97810  32.685  34.153  14.850
24743W        W97811  39.980  27.627  12.233
24744W        W97812  39.080  37.394  11.630
24745W        W97813   2.376  44.950  13.038
24746W        W97814  25.076  33.334  13.128
24747W        W97815   6.210  38.121   0.423
24748W        W97816  11.060  19.329   4.155
24749W        W97817  29.705  25.927  11.791
24750W        W97818  42.906   9.425  12.950
24751W        W97819  32.352  11.456   0.291
24752W        W97820  34.162  40.331  13.121
24753W        W97821  31.716  26.562  14.740
24754W        W97822  16.304   5.303   4.823
24755W        W97823   9.008  12.733   5.069
24756W        W97824  15.101  30.283  12.613
24757W        W97825  27.958   7.993   0.871
24758W        W97826  25.596  14.989   3.369
24759W        W97827  32.610   2.535   2.748
24760W        W97828  30.681  14.179   4.478
24761W        W97829  30.653   5.135   4.710
24762W        W97830  34.166  10.270  10.988
24763W        W97831   7.779  43.889   4.862
24764W        W97832  42.199  15.280  10.227
24765W        W97833  11.005  20.061  13.015
24766W        W97834  38.378  10.335  11.946
24767W        W97835  27.793  10.680  10.572
24768W        W97836  20.719  26.525  13.431
24769W        W97837  43.156  37.550  14.324
24770W        W97838  33.645   4.645  13.001
24771W        W97839   3.745  15.573   2.797
24772W        W97840  12.221  21.100  13.765
24773W        W97841  30.392  29.151  11.236
24774W        W97842  23.959  24.194  13.624
24775W        W97843  25.091  31.604  14.540
24776W        W97844  24.262  39.584  14.113
24777W        W97845   3.596   6.352  12.443
24778W        W97846   0.891  36.593  11.063
24779W        W97847  29.421  41.088  10.719
24780W        W97848  39.874  24.665   4.729
24781W        W97849  29.673  28.022   2.389
24782W        W97850  33.543  42.042  14.865
24783W        W97851  13.467  23.424  12.918
24784W        W97852  19.187  17.071   4.559
24785W        W97853  44.209  21.052  10.760
24786W        W97854   7.399  13.278   3.134
24787W        W97855  13.223  25.097   1.336
24788W        W97856  12.292  43.015  10.690
24789W        W97857  34.893  16.112   2.679
24790W        W97858   6.149  37.540   4.093
24791W        W97859  11.931  30.511   2.745
24792W        W97860  22.735  16.518  13.494
24793W        W97861  33.659  21.232   2.323
24794W        W97862  18.017  18.248   2.373
24795W        W97863  41.703  13.399  11.592
24796W        W97864   7.768  34.427   3.245
24797W        W97865  27.727   7.787   1.778
24798W        W97866   3.747  17.771   0.630
24799W        W97867  34.812  15.311   1.260
24800W        W97868   1.869  26.408  11.504
24801W        W97869  12.247   6.091   0.764
24802W        W97870  27.148   6.720  12.973
24803W        W97871  25.539  31.443   3.625
24804W        W97872  31.191  19.292   1.184
24805W        W97873  10.632  25.472   4.333
24806W        W97874  42.608  11.121   0.412
24807W        W97875  37.416  10.732  14.428
24808W        W97876   0.506  25.189   3.997
24809W        W97877  34.214  23.141   2.318
24810W        W97878  44.826   2.751   1.560
24811W        W97879  23.926  29.975  13.681
24812W        W97880  20.650  28.647  13.937
24813W        W97881  20.520  15.673  11.978
24814W        W97882  39.534  31.684   2.932
24815W        W97883  25.692  34.066  12.597
24816W        W97884  36.242  30.340   5.022
24817W        W97885  11.230  10.697  13.721
24818W        W97886  10.783  34.346   1.186
24819W        W97887  44.750  14.585   2.598
24820W        W97888  35.587  35.873   3.470
24821W        W97889   0.864   6.164  13.487
24822W        W97890  30.498  24.306   3.306
24823W        W97891   8.200  33.637   3.200
24824W        W97892  32.503  23.200   1.626
24825W        W97893  37.563  38.505  10.495
24826W        W97894  34.494  18.506  13.579
24827W        W97895  33.857   3.840  14.305
24828W        W97896  10.895  15.681   2.179
24829W        W97897  23.191  26.787  10.745
24830W        W97898  11.609  29.559  10.718
24831W        W97899  15.773  19.220   0.269
24832W        W97900  21.639   0.525  14.493
24833W        W97901  43.874  20.659   4.578
24834W        W97902  11.225  19.077  10.294
24835W        W97903  40.862  18.616   2.939
24836W        W97904  22.629  40.051  12.551
24837W        W97905  34.708  16.375   4.103
24838W        W97906  42.040  42.149   1.408
24839W        W97907   6.111  20.044   0.777
24840W        W97908   8.446  22.067  11.151
24841W        W97909  33.431  10.837   4.600
24842W        W97910   1.266  43.449  13.407
24843W        W97911  33.886  33.821  13.159
24844W        W97912   7.689   0.771   0.741
24845W        W97913   0.148   6.866  14.414
24846W        W97914  31.438   0.292  13.056
24847W        W97915  15.818  10.792  13.498
24848W        W97916  36.456  21.210   4.286
24849W        W97917  32.652   8.442   1.785
24850W        W97918   4.032  16.381   4.203
24851W        W97919  18.794  38.429  12.881
24852W        W97920  41.881   8.135   1.778
24853W        W97921   2.867  33.465   4.679
24854W        W97922  39.356  36.046  13.081
24855W        W97923  17.388   1.892   3.675
24856W        W97924  42.913  32.300   2.348
24857W        W97925  43.580   6.901  11.745
24858W        W97926  42.999  10.145   0.207
24859W        W97927  18.249  23.123  12.997
24860W        W97928  23.061  10.902   2.622
24861W        W97929  28.282  40.451  14.313
24862W        W97930  33.160  12.509  11.973
24863W        W97931  21.761   5.668  13.500
24864W        W97932  11.605  18.110   4.203
24865W        W97933  33.287  36.342  14.326
24866W        W97934   3.912  19.863   0.362
24867W        W97935  33.145   9.174  10.755
24868W        W97936  18.731  33.660  11.481
24869W        W97937  44.716  17.469  14.993
24870W        W97938  26.647   4.904   2.311
24871W        W97939  16.366  37.984  11.442
24872W        W97940  24.747  34.042   0.269
24873W        W97941  24.501   3.156  14.883
24874W        W97942   3.673  41.952   1.888
24875W        W97943   7.636  38.575  13.988
24876W        W97944   6.348  13.668  14.371
24877W        W97945  43.408  40.816  10.494
24878W        W97946  42.397  44.886   1.372
24879W        W97947  21.069  10.976  11.695
24880W        W97948  34.569  26.161   1.836
24881W        W97949   3.371  35.930  13.968
24882W        W97950  12.879  23.572  10.446
24883W        W97951  22.969  34.007   4.184
24884W        W97952  11.581  27.979   0.742
24885W        W97953  23.897  30.835   1.301
24886W        W97954  40.976  38.416   2.268
24887W        W97955  29.661   0.453   9.824
24888W        W97956  43.247  19.027   4.346
24889W        W97957  32.863  10.856  13.427
24890W        W97958   9.090  19.082  14.350
24891W        W97959   7.848  14.052   2.938
24892W        W97960  10.372  17.761  14.949
24893W        W97961  27.432  39.260   4.645
24894W        W97962  14.884  29.898  12.353
24895W        W97963   6.962  35.347  12.004
24896W        W97964  21.284  25.688  11.591
24897W        W97965   9.910  29.821  13.342
24898W        W97966  11.088  10.260   2.826
24899W        W97967  16.809  43.308  11.142
24900W        W97968  38.136  36.684   0.214
24901W        W97969  33.128  16.310  14.596
24902W        W97970  19.232   7.092  12.040
24903W        W97971  22.757  15.808  12.393
24904W        W97972  30.250   6.857   1.259
24905W        W97973   9.734  21.962   0.245
24906W        W97974  17.346  23.676   0.218
24907W        W97975  35.095  37.618   2.121
24908W        W97976   4.461   6.785   2.847
24909W        W97977  24.727  19.711  10.649
24910W        W97978   8.161   0.685   0.229
24911W        W97979  22.245  43.087  13.431
24912W        W97980  17.759  42.495   0.295
24913W        W97981  32.627  30.549   1.664
24914W        W97982   3.658   9.858  10.983
24915W        W97983   4.405  25.237   4.261
24916W        W97984  21.584  22.688  11.619
24917W        W97985  26.078  32.429   3.328
24918W        W97986  28.615  10.638  13.041
24919W        W97987  22.497  27.012   0.480
24920W        W97988   5.694  36.489   2.703
24921W        W97989   8.294  25.206   2.784
24922W        W97990  44.906  29.966   1.443
24923W        W97991   2.084  42.851  10.719
24924W        W97992  28.045  28.495   2.656
24925W        W97993  40.039  22.105  14.269
24926W        W97994  31.952  25.966   0.388
24927W        W97995  38.952  13.923  11.009
24928W        W97996   3.919   0.808  12.085
24929W        W97997   6.618  31.430  11.704
24930W        W97998  15.099  44.856   3.732
24931W        W97999  37.469  15.973  12.631
24932W        W98000  28.168  12.377   1.320
24933W        W98001  39.280  35.894  11.371
24934W        W98002  30.588  10.635  13.062
24935W        W98003  38.036  34.028   4.864
24936W        W98004  16.747  43.987   2.139
24937W        W98005  22.542  30.656   4.652
24938W        W98006  33.109  24.702   1.159
24939W        W98007  35.410  32.026   0.034
24940W        W98008  40.405  23.047  13.118
24941W        W98009   8.807  22.981   0.829
24942W        W98010  36.660  13.342  13.842
24943W        W98011  11.495   8.069   3.588
24944W        W98012  22.130  21.504  13.354
24945W        W98013  19.641  39.122   4.548
24946W        W98014  28.717  28.348   0.416
24947W        W98015  15.896   5.109  10.983
24948W        W98016  19.423  24.038  11.918
24949W        W98017   4.943  31.466   0.722
24950W        W98018  18.062  33.082   0.017
24951W        W98019   2.779   3.467  10.526
24952W        W98020  12.909   2.237   3.213
24953W        W98021  24.635  30.455  13.038
24954W        W98022  27.567  25.495   0.927
24955W        W98023   7.851  41.368  11.808
24956W        W98024  12.914   5.768  12.267
24957W        W98025  43.870  11.821   1.371
24958W        W98026  23.090   3.580   3.631
24959W        W98027  40.843  40.541   0.324
24960W        W98028   9.916  10.582   3.726
24961W        W98029  44.324  26.943   1.423
24962W        W98030  16.021  33.675   0.962
24963W        W98031   7.281  37.803   1.179
24964W        W98032  10.763  19.679   2.858
24965W        W98033   1.149   3.367   2.709
24966W        W98034  36.115  25.886   3.594
24967W        W98035  32.801  29.517  12.971
24968W        W98036  21.299  43.970  12.878
24969W        W98037  28.214  33.172  12.998
24970W        W98038  26.900   6.277  13.067
24971W        W98039  38.313   5.846  10.656
24972W        W98040  29.896  24.347  14.866
24973W        W98041  22.723  19.993  14.285
24974W        W98042  17.953  17.428   4.139
24975W        W98043  13.005   8.800  11.400
24976W        W98044  21.201   7.911  12.977
24977W        W98045  21.239  33.733   4.488
24978W        W98046  33.095  10.971  11.044
24979W        W98047  18.256  31.970  13.570
24980W        W98048  19.619   2.818  11.420
24981W        W98049  12.659  34.417   0.777
24982W        W98050  19.490  32.095   1.398
24983W        W98051  15.231  41.492   4.446
24984W        W98052   4.951  29.589  11.592
24985W        W98053  30.376  22.506   2.242
24986W        W98054  38.015  33.844   3.119
24987W        W98055  35.534  44.863  10.679
24988W        W98056   1.045  13.192  10.609
24989W        W98057  37.568   0.220   2.206
24990W        W98058  15.747  40.216  11.114
24991W        W98059  34.349  16.778   4.092
24992W        W98060  26.621  40.864   1.674
24993W        W98061  19.800  41.478  12.573
24994W        W98062  18.056  32.607   4.529
24995W        W98063  30.464  11.197   4.460
24996W        W98064  13.715   1.277  12.945
24997W        W98065  10.147  35.668  12.863
24998W        W98066  24.940  35.078  10.831
24999W        W98067  14.112  16.291  13.807
25000W        W98068  13.354  30.620  11.305
25001W        W98069  15.616  10.652   1.267
25002W        W98070  36.575   5.620  10.019
25003W        W98071  18.247  20.473  11.297
25004W        W98072  42.440  29.327   1.637
25005W        W98073  27.565   5.773   4.017
25006W        W98074  27.905   5.417  13.405
25007W        W98075  21.988  37.970   3.764
25008W        W98076   9.927  13.433  11.118
25009W        W98077  31.111   4.694  12.979
25010W        W98078  17.749  31.289  10.605
25011W        W98079  11.334   8.659  14.446
25012W        W98080   5.593  40.511   2.670
25013W        W98081  33.861   4.170   2.863
25014W        W98082   2.020  13.716   2.866
25015W        W98083  21.834  25.806  12.806
25016W        W98084  19.021   2.377   1.816
25017W        W98085  13.881  10.272   2.277
25018W        W98086   6.457  10.510   3.160
25019W        W98087  26.008  42.877  13.975
25020W        W98088  19.296  33.505  14.745
25021W        W98089   9.029  13.808   0.949
25022W        W98090  31.004   0.800  11.568
25023W        W98091  34.097  32.571  13.553
25024W        W98092  31.893  13.682   4.601
25025W        W98093  24.917   0.365  11.808
25026W        W98094   8.275  14.174   3.704
25027W        W98095  33.351  11.037  13.419
25028W        W98096  33.073  39.975  10.568
25029W        W98097  13.557  12.258   4.862
25030W        W98098   5.283   8.884  12.877
25031W        W98099  35.031  31.364   1.227
25032W        W98100  19.751   7.244  13.942
25033W        W98101   2.832  44.332  10.672
25034W        W98102  27.173  12.111  14.224
25035W        W98103  32.511   5.268   4.779
25036W        W98104  41.758  35.952   4.570
25037W        W98105  37.658  38.773  11.559
25038W        W98106  44.331  16.742   0.734
25039W        W98107  35.873  15.362  14.414
25040W        W98108   6.076   9.707   3.326
25041W        W98109  15.391   0.260   0.284
25042W        W98110  28.698  37.864  12.057
25043W        W98111  20.870  32.996  13.847
25044W        W98112   7.906  29.168  14.946
25045W        W98113  37.374  15.205   2.668
25046W        W98114  39.818   3.877  13.870
25047W        W98115   9.043  43.707  10.907
25048W        W98116   7.518  35.052  12.586
25049W        W98117   8.866  24.146   3.617
25050W        W98118  40.593  29.120  14.083
25051W        W98119  10.778  44.167   0.140
25052W        W98120  24.727  21.543  14.334
25053W        W98121  21.054   0.022   4.538
25054W        W98122  25.162  35.903  14.257
25055W        W98123  11.674  17.174   5.113
25056W        W98124  31.441  41.378  10.691
25057W        W98125  15.033  42.805  14.838
25058W        W98126  10.426   4.833  10.983
25059W        W98127   8.889   4.661   3.672
25060W        W98128  16.055  29.464   2.670
25061W        W98129  19.067  43.030   2.537
25062W        W98130   3.960  22.586  11.123
25063W        W98131   4.807  34.490   2.767
25064W        W98132  18.256   7.996   1.551
25065W        W98133  41.862  17.201  11.559
25066W        W98134  25.718  40.225  10.207
25067W        W98135   0.622  17.626   2.124
25068W        W98136   5.412  44.021   2.703
25069W        W98137   9.096  19.064   0.930
25070W        W98138  19.262   4.776   1.692
25071W        W98139  34.521  30.462   0.457
25072W        W98140  44.040  28.102  11.576
25073W        W98141  10.399  34.421   4.597
25074W        W98142  35.942   6.079   2.788
25075W        W98143  44.912   1.196   3.192
25076W        W98144  22.525  21.973   3.253
25077W        W98145  13.794   9.227  11.440
25078W        W98146  33.210  29.055  14.553
25079W        W98147   9.155  16.435  10.860
25080W        W98148  24.632  41.946   4.262
25081W        W98149  23.512   0.926   2.627
25082W        W98150  42.864  34.807   0.814
25083W        W98151   5.731  17.559  12.199
25084W        W98152  23.623  29.744   2.019
25085W        W98153  42.620   0.346   0.184
25086W        W98154  19.423  25.913   2.179
25087W        W98155  19.298  18.356   2.077
25088W        W98156   0.948  32.023   1.810
25089W        W98157  19.260  43.243   5.015
25090W        W98158   4.829  19.965  14.905
25091W        W98159  33.389  37.893  11.183
25092W        W98160   1.391  10.634   4.740
25093W        W98161   2.722  19.230  12.994
25094W        W98162   5.057  14.585  13.411
25095W        W98163  14.615  24.994  12.154
25096W        W98164   4.347  32.057   0.199
25097W        W98165   2.858  41.787  13.444
25098W        W98166  20.310   4.734   0.748
25099W        W98167  31.644  33.369   2.699
25100W        W98168   6.373  43.026  12.047
25101W        W98169  10.754   5.472  13.094
25102W        W98170  41.221  36.982  13.993
25103W        W98171   0.374  16.880  10.835
25104W        W98172   7.994  24.664   1.314
25105W        W98173   0.977   3.495   1.179
25106W        W98174   2.654  39.343   0.787
25107W        W98175  19.517  29.122   4.191
25108W        W98176   4.217  36.020  12.388
25109W        W98177   9.789   2.169  13.447
25110W        W98178  32.778  33.869  14.423
25111W        W98179   2.400  41.170  10.835
25112W        W98180  31.606  32.104   1.954
25113W        W98181  14.340  35.917   4.279
25114W        W98182  38.071   6.394   2.094
25115W        W98183  29.008   0.523  14.541
25116W        W98184   8.293   5.814   3.694
25117W        W98185  18.804   5.010  10.266
25118W        W98186  29.634   6.244  14.018
25119W        W98187  11.151  16.340   1.209
25120W        W98188  24.882  19.636   3.318
25121W        W98189   3.235  18.901   1.352
25122W        W98190   1.197  31.973   1.356
25123W        W98191  33.719  25.134  11.218
25124W        W98192  34.968  42.632  10.484
25125W        W98193  41.269   0.423   1.488
25126W        W98194  40.201  15.124   2.135
25127W        W98195   1.893  19.329   4.947
25128W        W98196  11.721  38.959  13.062
25129W        W98197  30.609  15.084  11.521
25130W        W98198  31.455  17.573   0.875
25131W        W98199  43.840  24.943   2.454
25132W        W98200  38.885  29.059   1.847
25133W        W98201  31.644  18.608  11.967
25134W        W98202  24.547  13.093   3.236
25135W        W98203  32.237  30.841  11.242
25136W        W98204  27.578   4.827  11.431
25137W        W98205  20.786  15.622  11.098
25138W        W98206  20.315  20.399   1.340
25139W        W98207  33.155   8.697  12.051
25140W        W98208  26.628  22.751   2.765
25141W        W98209  24.232  42.067  13.325
25142W        W98210  42.717  32.580   0.902
25143W        W98211  40.868   7.137  13.859
25144W        W98212   7.402  21.221   4.111
25145W        W98213  29.644  21.707  13.696
25146W        W98214  40.138  17.594  12.390
25147W        W98215   9.981  26.181   0.394
25148W        W98216  35.543  34.317  11.541
25149W        W98217   9.959  31.488  12.131
25150W        W98218  25.613  22.569  10.906
25151W        W98219   4.219  36.949   1.242
25152W        W98220  14.311  31.148   4.670
25153W        W98221  27.151  15.054  12.031
25154W        W98222   2.718  17.758   0.370
25155W        W98223  10.390  28.453   2.249
25156W        W98224  15.390  22.408  11.262
25157W        W98225  25.813   6.830  11.260
25158W        W98226  15.887  14.902   3.356
25159W        W98227  18.818  24.186   4.070
25160W        W98228  11.124   1.494  14.824
25161W        W98229  35.431  41.841   2.303
25162W        W98230  29.548   6.724   3.121
25163W        W98231   9.667  31.897  12.458
25164W        W98232  31.665  12.380  14.363
25165W        W98233   3.295  19.288  12.943
25166W        W98234  27.077  22.277  14.323
25167W        W98235  39.965  20.506   1.363
25168W        W98236   9.539  30.673  12.109
25169W        W98237  10.257  16.028  14.471
25170W        W98238   8.636  27.754   1.378
25171W        W98239   6.898   4.669   1.612
25172W        W98240  17.556  25.161   3.113
25173W        W98241  32.325  36.741  12.071
25174W        W98242  39.550  25.523   2.216
25175W        W98243   0.217  27.882  10.733
25176W        W98244  31.931  27.965   4.131
25177W        W98245   9.347  27.858  12.858
25178W        W98246   3.002  35.978   4.052
25179W        W98247  43.978   4.254   4.072
25180W        W98248  23.830  27.902  14.543
25181W        W98249  22.994  25.704   2.089
25182W        W98250  37.865  28.426  13.637
25183W        W98251  33.767  13.962   1.800
25184W        W98252   5.512   2.484  12.985
25185W        W98253  22.974  17.206  13.906
25186W        W98254   3.536   7.685  13.358
25187W        W98255  11.805  19.208   5.417
25188W        W98256   6.236  36.040  13.992
25189W        W98257   4.260  25.791  13.395
25190W        W98258  30.057   0.847   0.382
25191W        W98259  22.703  18.362  12.623
25192W        W98260  43.134  38.505   4.030
25193W        W98261  11.295   5.242  12.087
25194W        W98262  34.976  11.308  12.961
25195W        W98263  20.494  44.867   3.708
25196W        W98264   7.995  36.006  10.380
25197W        W98265  31.618  28.562   4.753
25198W        W98266  12.210  15.310   0.713
25199W        W98267  11.257  33.050  14.457
25200W        W98268  14.327  16.603   2.670
25201W        W98269  21.346  14.813   2.744
25202W        W98270  36.780  23.229  10.397
25203W        W98271  21.401  44.801  11.881
25204W        W98272  14.799  42.426  13.808
25205W        W98273  17.473  42.853   1.127
25206W        W98274   9.569  11.806  11.566
25207W        W98275  28.952  37.087   0.892
25208W        W98276  20.307   8.006  11.187
25209W        W98277  40.820   3.058  12.420
25210W        W98278  11.263  36.620   1.332
25211W        W98279  33.555  32.852   0.393
25212W        W98280  35.729  24.590  11.658
25213W        W98281  40.394  13.362   3.277
25214W        W98282  31.930  12.259  14.783
25215W        W98283   7.159  31.094   2.171
25216W        W98284  17.940   5.195   0.345
25217W        W98285  28.633  17.987  14.153
25218W        W98286  38.906   0.309   2.300
25219W        W98287  13.612  21.624   1.804
25220W        W98288  29.380   8.389   1.002
25221W        W98289  41.293   0.448   2.000
25222W        W98290  17.769   7.828   2.819
25223W        W98291  40.919  30.390   2.361
25224W        W98292  39.286  30.921   1.885
25225W        W98293  22.234  29.907  12.444
25226W        W98294  38.977  33.252   3.719
25227W        W98295   7.719  30.881   3.875
25228W        W98296   7.913  41.452  10.354
25229W        W98297  29.595  26.924  12.889
25230W        W98298  18.819  19.372   4.170
25231W        W98299   0.309  25.010  11.578
25232W        W98300  15.827   3.924   0.179
25233W        W98301  17.258   2.723   4.095
25234W        W98302  17.426  42.949  10.386
25235W        W98303  31.993  10.661   3.381
25236W        W98304  19.960  16.496   2.733
25237W        W98305  43.367   1.930  12.851
25238W        W98306  39.526  33.648   9.727
25239W        W98307  43.266   7.199   4.762
25240W        W98308   5.879  40.277   3.057
25241W        W98309  11.829   7.410  13.296
25242W        W98310   9.497  24.006  13.360
25243W        W98311  30.548  38.107  12.824
25244W        W98312  40.147  36.076  14.170
25245W        W98313  18.114  10.463  10.125
25246W        W98314   8.315   2.777   4.624
25247W        W98315   3.201  14.435   3.252
25248W        W98316   6.151  16.859   9.745
25249W        W98317  38.566   6.507   1.917
25250W        W98318  24.142  33.669  12.183
25251W        W98319  23.924  31.689  11.164
25252W        W98320   7.191  28.683  10.677
25253W        W98321   1.384  32.126  11.372
25254W        W98322  43.569   0.971   4.205
25255W        W98323  18.994  42.210  12.380
25256W        W98324  39.377  44.841   0.042
25257W        W98325  15.254  29.885  11.081
25258W        W98326  43.757  42.045  11.234
25259W        W98327  32.667   9.359  12.474
25260W        W98328  17.506  24.159  14.937
25261W        W98329  39.380   7.701  12.387
25262W        W98330  14.750  37.286   4.309
25263W        W98331   1.991   8.333   3.686
25264W        W98332   1.212  24.317  13.943
25265W        W98333   7.041   6.640   3.232
25266W        W98334  15.693  30.342  14.633
25267W        W98335  39.106   6.774  13.970
25268W        W98336  20.008  38.306  14.679
25269W        W98337  28.449  13.071   1.836
25270W        W98338  29.133  23.440   3.264
25271W        W98339  38.628  27.264   4.649
25272W        W98340  35.957   2.312   2.913
25273W        W98341  21.492  31.198   4.195
25274W        W98342   3.599  11.672   2.053
25275W        W98343   4.622  20.879   1.779
25276W        W98344   3.280   6.156   2.823
25277W        W98345   0.663  27.616   2.795
25278W        W98346  23.018  31.039   1.632
25279W        W98347  16.213  24.185  14.620
25280W        W98348  27.024   6.044  11.477
25281W        W98349  28.857  24.202  13.331
25282W        W98350  24.639  37.847   5.310
25283W        W98351   6.958   9.655   1.423
25284W        W98352  25.914  26.577   0.418
25285W        W98353  21.987  31.011  11.070
25286W        W98354  42.265   1.847   0.381
25287W        W98355  38.889  43.916   2.925
25288W        W98356  10.578  11.716   1.702
25289W        W98357  19.182  38.219  13.119
25290W        W98358  15.990  30.885  10.553
25291W        W98359  34.947   4.543  10.659
25292W        W98360  18.570   7.423  12.492
25293W        W98361  24.991  24.544   4.087
25294W        W98362  44.089  11.825   3.759
25295W        W98363  27.566  37.059   2.868
25296W        W98364  10.239   4.945   0.161
25297W        W98365  42.193  44.709  13.253
25298W        W98366   7.365   5.917   0.999
25299W        W98367  23.906  16.134   2.369
25300W        W98368  11.597  25.706  11.614
25301W        W98369  34.988  19.052  14.370
25302W        W98370   5.279  42.768   1.433
25303W        W98371  35.187  10.150   3.613
25304W        W98372  35.500  43.865  10.607
25305W        W98373  23.805  14.883   1.346
25306W        W98374   4.920  39.928   2.033
25307W        W98375  42.487   2.689   0.780
25308W        W98376  27.274   1.027  11.100
25309W        W98377   7.667  37.359   1.889
25310W        W98378   5.415  19.529  13.994
25311W        W98379  33.751  19.043   4.750
25312W        W98380  15.441  28.642  13.329
25313W        W98381  25.197  39.790   3.164
25314W        W98382  27.229  26.958  12.977
25315W        W98383  18.800  41.699  12.413
25316W        W98384  24.594   4.197   3.155
25317W        W98385   9.610  10.244  10.651
25318W        W98386   7.436  28.281  14.989
25319W        W98387  42.089  22.324   5.228
25320W        W98388  21.132  40.916  11.992
25321W        W98389  12.881  42.871  12.928
25322W        W98390   9.708  13.505   4.999
25323W        W98391  19.767  16.076  13.996
25324W        W98392  40.873  43.696  13.902
25325W        W98393  29.447   5.681   0.769
25326W        W98394   7.358  21.956  13.955
25327W        W98395  15.136  19.826   2.258
25328W        W98396  34.469  21.006  12.570
25329W        W98397  37.904   1.132   4.041
25330W        W98398  32.432  10.700   3.090
25331W        W98399  37.563   7.173  10.779
25332W        W98400  24.111  31.643  14.995
25333W        W98401   1.144  26.198  11.699
25334W        W98402  24.092  31.908  14.537
25335W        W98403  40.823   9.065  12.004
25336W        W98404   9.342  42.060   1.295
25337W        W98405   2.341  24.477   1.817
25338W        W98406  22.885  20.042   1.251
25339W        W98407  20.225   8.305  14.779
25340W        W98408   0.676  38.974   1.798
25341W        W98409  33.875  42.039  13.447
25342W        W98410  40.679  37.035  13.918
25343W        W98411  19.294   0.737   2.175
25344W        W98412  34.060   2.525  14.883
25345W        W98413  27.583   3.899   0.788
25346W        W98414   9.651   0.314   3.236
25347W        W98415  27.069   7.483  11.955
25348W        W98416  21.665  36.493   3.886
25349W        W98417  28.072  19.327   0.463
25350W        W98418  36.951  43.784   1.950
25351W        W98419  20.203  25.686  14.455
25352W        W98420  34.881   1.928  10.599
25353W        W98421  38.067  30.888   4.666
25354W        W98422   8.692  29.473  13.044
25355W        W98423  18.732  24.636  11.274
25356W        W98424   9.786   9.486  13.240
25357W        W98425  38.407  35.846  10.698
25358W        W98426   7.821  35.248   2.628
25359W        W98427  28.646  26.498  12.939
25360W        W98428  40.919  14.089  14.313
25361W        W98429  15.149   6.419   4.476
25362W        W98430  10.879  27.355   3.786
25363W        W98431  26.176  32.539   2.344
25364W        W98432  10.666   8.274   3.784
25365W        W98433  27.377  43.319   2.329
25366W        W98434  21.094  18.243   3.400
25367W        W98435  28.390   1.822  14.415
25368W        W98436   2.580  17.704   1.759
25369W        W98437  17.551  30.977   3.918
25370W        W98438  13.758  17.240   4.151
25371W        W98439  43.805  44.820  13.954
25372W        W98440   4.514  28.140   1.764
25373W        W98441  38.588  35.927   0.998
25374W        W98442  39.480   5.037  13.758
25375W        W98443  12.186  38.844   4.697
25376W        W98444  43.338   7.753  12.221
25377W        W98445  24.281  41.311  10.654
25378W        W98446  13.562  42.818  11.111
25379W        W98447  20.536   5.376   2.343
25380W        W98448  16.675  24.223  11.629
25381W        W98449  12.310   5.737   2.798
25382W        W98450  14.079  42.617  14.751
25383W        W98451  27.025  30.730  13.447
25384W        W98452   9.196   1.503   3.831
25385W        W98453  42.057  43.904   2.130
25386W        W98454  13.917  38.363   4.115
25387W        W98455  44.784   9.846   3.308
25388W        W98456  33.495  15.675  12.028
25389W        W98457  27.509   3.432   4.688
25390W        W98458   5.877   7.655   0.985
25391W        W98459  32.579  37.545  10.626
25392W        W98460  38.242  17.578   2.211
25393W        W98461  44.729   5.599  14.809
25394W        W98462  35.176  38.639   1.420
25395W        W98463   8.915  43.170  13.170
25396W        W98464  17.129   9.497   1.583
25397W        W98465  28.720  43.767  11.382
25398W        W98466  28.885  31.558  12.948
25399W        W98467  13.716  43.572   2.781
25400W        W98468  20.723  16.839   3.109
25401W        W98469  14.802   9.425  12.477
25402W        W98470   4.674  35.886  10.843
25403W        W98471   3.157  29.465  11.485
25404W        W98472  16.782   1.347  14.917
25405W        W98473  13.068  22.581   4.568
25406W        W98474   0.893  33.099  14.845
25407W        W98475   0.557  40.803   3.072
25408W        W98476  19.358  34.378  14.765
25409W        W98477   0.085  42.351  13.475
25410W        W98478  19.701  17.900  13.357
25411W        W98479  41.889  10.251   2.596
25412W        W98480   1.292   7.830  10.730
25413W        W98481  14.879  44.783   4.217
25414W        W98482  29.931  21.051  13.265
25415W        W98483  11.627  38.285  11.590
25416W        W98484  25.995  13.938  13.504
25417W        W98485  21.616  43.269  14.349
25418W        W98486  21.551   7.529  12.890
25419W        W98487  18.887  29.083   0.379
25420W        W98488  42.955  30.643  14.348
25421W        W98489  13.397  26.990  12.921
25422W        W98490  16.746  27.003  13.912
25423W        W98491   9.191  37.766  11.923
25424W        W98492  43.743  35.828  12.864
25425W        W98493   8.950  23.579   1.487
25426W        W98494  11.322  32.894  11.079
25427W        W98495  32.746  17.823  11.934
25428W        W98496  40.750  27.020   3.558
25429W        W98497  16.255  39.606  10.803
25430W        W98498   0.556  18.096   1.862
25431W        W98499  37.503   3.310  12.585
25432W        W98500  28.750  10.416   3.306
25433W        W98501  40.604  20.038   2.385
25434W        W98502  42.473   3.789   4.225
25435W        W98503   0.956  35.352   4.006
25436W        W98504  30.206  32.102  13.006
25437W        W98505  10.079  10.099   3.688
25438W        W98506   1.847   0.766   4.603
25439W        W98507  41.871   1.763   3.933
25440W        W98508  25.750  35.176   0.352
25441W        W98509  37.815   6.229  13.159
25442W        W98510  14.877  17.078   2.748
25443W        W98511  17.044  16.776  14.775
25444W        W98512  19.979  15.729  14.334
25445W        W98513  37.958  19.157   1.760
25446W        W98514  28.187  30.363   1.234
25447W        W98515  37.477  38.455   2.757
25448W        W98516   6.341  44.724  13.355
25449W        W98517  23.806  35.609   0.247
25450W        W98518  31.332  30.070   4.930
25451W        W98519  12.284  25.713   2.627
25452W        W98520  17.510  14.811  14.349
25453W        W98521  33.655   7.230   3.133
25454W        W98522  36.706  42.422  12.469
25455W        W98523   6.190  40.974   3.764
25456W        W98524  35.561   5.687  14.016
25457W        W98525  41.848  24.154  13.673
25458W        W98526  25.435   5.731  14.408
25459W        W98527  42.250  20.147   1.802
25460W        W98528  21.752   4.914   4.176
25461W        W98529  37.640  23.814  12.306
25462W        W98530   9.519  33.915   4.752
25463W        W98531   8.815   2.292   0.997
25464W        W98532  39.825  43.537  13.035
25465W        W98533   6.796  33.906   0.017
25466W        W98534   1.164  34.101   4.091
25467W        W98535  13.806  20.275   2.858
25468W        W98536  33.458  22.780   5.087
25469W        W98537   9.650  28.240  14.342
25470W        W98538   5.847  13.140  10.912
25471W        W98539  38.497  42.823  12.583
25472W        W98540   3.886  25.515   3.423
25473W        W98541   8.849  30.865  11.454
25474W        W98542  38.021  40.794  14.376
25475W        W98543   1.354  21.276  13.257
25476W        W98544  27.744  17.577  13.490
25477W        W98545   8.566  13.702   0.031
25478W        W98546  43.956  10.942  12.018
25479W        W98547   8.656  44.044  10.834
25480W        W98548  14.627  28.182   3.613
25481W        W98549  14.335   1.369   0.459
25482W        W98550  12.743  29.768  11.028
25483W        W98551  37.231   4.621   3.807
25484W        W98552  33.270   1.489  12.857
25485W        W98553  36.581  11.675   4.759
25486W        W98554  42.788   9.854   0.938
25487W        W98555   5.909  12.672  11.145
25488W        W98556  16.235  19.093   0.491
25489W        W98557  19.111  23.707  11.512
25490W        W98558   6.777  14.194   3.437
25491W        W98559  41.613  10.264  14.941
25492W        W98560   1.846  44.087   0.622
25493W        W98561   3.189  21.105  11.456
25494W        W98562  44.972  12.508   3.345
25495W        W98563  10.630   1.357  14.796
25496W        W98564  23.036  42.326   1.209
25497W        W98565  14.257   5.251   1.434
25498W        W98566  41.098  16.365   1.004
25499W        W98567  17.624  22.596   3.345
25500W        W98568   4.857   1.958   3.210
25501W        W98569  14.511  37.986   3.866
25502W        W98570   5.737  28.223   0.413
25503W        W98571  42.068  23.296  10.266
25504W        W98572  25.101   8.184  12.366
25505W        W98573   7.902  22.714  10.654
25506W        W98574  28.926  24.123  12.469
25507W        W98575  29.230  24.597  10.611
25508W        W98576  30.939  10.960   1.848
25509W        W98577  35.419  25.511  14.286
25510W        W98578  38.353  27.204   2.348
25511W        W98579  37.481  42.961  12.940
25512W        W98580   7.174  31.048   4.154
25513W        W98581  13.189   4.914  10.688
25514W        W98582  23.490  19.744  11.479
25515W        W98583  19.103  24.043   2.751
25516W        W98584  40.422  41.508   1.894
25517W        W98585  11.549  13.769  13.552
25518W        W98586  43.101  29.539  11.108
25519W        W98587  26.581  29.903  12.621
25520W        W98588  26.092  44.907   3.891
25521W        W98589  32.623  12.801  11.622
25522W        W98590  20.971  21.103   5.070
25523W        W98591  18.130   8.210   0.276
25524W        W98592  10.085   7.225   2.251
25525W        W98593   3.574  12.029  13.528
25526W        W98594  13.513  29.360  14.475
25527W        W98595  34.558   7.931   0.978
25528W        W98596  23.988  37.306  10.538
25529W        W98597  28.440  15.673  10.814
25530W        W98598  44.064   9.534  13.431
25531W        W98599  29.795   7.729   2.434
25532W        W98600  37.950   9.564   2.371
25533W        W98601   3.104  42.711  12.658
25534W        W98602  19.824  37.108   0.236
25535W        W98603  41.051  18.705   1.470
25536W        W98604  16.975  30.072  13.407
25537W        W98605   1.335  30.128   1.500
25538W        W98606  24.302  40.513   2.697
25539W        W98607  32.451  25.684   2.002
25540W        W98608  21.184  43.206  12.578
25541W        W98609  11.313   7.652  14.555
25542W        W98610  21.189  27.683   0.657
25543W        W98611   4.636  36.967  10.110
25544W        W98612  10.362  14.827   2.440
25545W        W98613   3.264  13.332   4.175
25546W        W98614  35.086   3.489  12.113
25547W        W98615  14.655  30.642   2.876
25548W        W98616  37.134  15.763   1.139
25549W        W98617  34.567  40.263  13.437
25550W        W98618   1.818  26.215  12.905
25551W        W98619  42.374  21.874   1.284
25552W        W98620  35.539  29.946  14.060
25553W        W98621  41.928  16.329  11.171
25554W        W98622  15.172  11.431  12.570
25555W        W98623  21.169  44.320   1.079
25556W        W98624  24.009  18.205   0.547
25557W        W98625  39.045  24.267   3.716
25558W        W98626  40.428  42.934   2.862
25559W        W98627  44.821  14.591   3.097
25560W        W98628  38.164  35.466  12.492
25561W        W98629  15.801  40.962  13.386
25562W        W98630   1.997  23.186   0.779
25563W        W98631   0.971   5.482  10.809
25564W        W98632   0.730  19.036  14.882
25565W        W98633  12.370  12.749   2.614
25566W        W98634  34.009  40.733  13.980
25567W        W98635  35.379   9.128  14.277
25568W        W98636  18.753   7.498   0.525
25569W        W98637  21.869  23.545   4.612
25570W        W98638  42.005  37.920  12.230
25571W        W98639  13.222  26.413  14.926
25572W        W98640  36.014   9.181   1.023
25573W        W98641  10.298  44.056  14.920
25574W        W98642  30.561  43.543   3.152
25575W        W98643  43.063  35.005  13.496
25576W        W98644  14.596  33.252  11.953
25577W        W98645  16.125  27.522  13.521
25578W        W98646   7.724   8.020   0.429
25579W        W98647   7.627  16.245  12.043
25580W        W98648   6.188   8.703  10.233
25581W        W98649   1.704   8.338   4.164
25582W        W98650  14.191  37.646  12.016
25583W        W98651  27.820   7.175   0.334
25584W        W98652  28.969  38.174  12.923
25585W        W98653  23.415   5.661  10.947
25586W        W98654  25.111  13.759  10.652
25587W        W98655  43.996   7.269  11.838
25588W        W98656  34.849  33.799   3.287
25589W        W98657  33.462  41.415   0.661
25590W        W98658  22.101  24.558  14.053
25591W        W98659  17.207  28.113  13.781
25592W        W98660  33.485  10.550  14.823
25593W        W98661   0.946   7.785   0.672
25594W        W98662  15.873  36.301  14.363
25595W        W98663  37.244  43.556  13.970
25596W        W98664   2.438  38.546  13.016
25597W        W98665   0.971  14.411   1.865
25598W        W98666  24.153  15.212   4.680
25599W        W98667   0.441  14.872   0.961
25600W        W98668  35.058   0.163   5.222
25601W        W98669  25.163   2.465  14.952
25602W        W98670  32.338  26.930  13.906
25603W        W98671  43.840  40.127   2.421
25604W        W98672   4.839  40.297  11.638
25605W        W98673  33.368  31.011   4.510
25606W        W98674  30.550  34.330  11.186
25607W        W98675  40.672  44.730  13.032
25608W        W98676   7.935  38.899  13.271
25609W        W98677  13.772  12.751   4.766
25610W        W98678  15.886  42.572   2.688
25611W        W98679   4.261   6.360   2.664
25612W        W98680  15.555  36.105  13.971
25613W        W98681  34.560  21.492  12.387
25614W        W98682   5.901  32.901  13.362
25615W        W98683  35.564  16.862   2.353
25616W        W98684   7.783   2.466   4.325
25617W        W98685  11.666  26.407   5.004
25618W        W98686  27.080   0.420   3.728
25619W        W98687   1.084  28.019  11.731
25620W        W98688  27.547   4.461  13.534
25621W        W98689  17.215  23.101  13.472
25622W        W98690  26.403  42.093   5.203
25623W        W98691  19.088  28.390  14.886
25624W        W98692  44.897  33.832   4.647
25625W        W98693  41.525  22.129  14.142
25626W        W98694  31.052  33.507   0.484
25627W        W98695  42.012  12.130  11.152
25628W        W98696  30.697  26.000  12.462
25629W        W98697  25.073  30.116  14.867
25630W        W98698  20.980  39.311  12.433
25631W        W98699  35.888  43.134   2.335
25632W        W98700   3.378   6.157   5.057
25633W        W98701  42.461   2.378  10.705
25634W        W98702  23.148  42.683  14.867
25635W        W98703  17.821   8.107  14.831
25636W        W98704  19.625  23.739  11.552
25637W        W98705  31.241  44.169  11.126
25638W        W98706  28.569   4.787  10.428
25639W        W98707  18.614  24.558   3.603
25640W        W98708  42.887  18.713  12.096
25641W        W98709  29.665  39.960  14.352
25642W        W98710   0.106   0.629  13.094
25643W        W98711  44.328  32.391  14.851
25644W        W98712  16.148  36.845   3.764
25645W        W98713  23.112   9.719   0.935
25646W        W98714  32.961  44.892   3.838
25647W        W98715   1.197  21.426   1.746
25648W        W98716  42.705   0.757  14.889
25649W        W98717  42.714  30.011  13.036
25650W        W98718  13.858  21.711   3.810
25651W        W98719   9.238   0.173  11.654
25652W        W98720   3.912  18.353  13.876
25653W        W98721  33.992  38.984   1.895
25654W        W98722  16.739  32.381   4.988
25655W        W98723   7.610  42.834  14.857
25656W        W98724  26.149  30.590   2.892
25657W        W98725  19.212  12.938   2.858
25658W        W98726  41.025  37.963  11.242
25659W        W98727  42.860  16.075   3.754
25660W        W98728  26.345  25.714  11.539
25661W        W98729   0.512  35.122   4.686
25662W        W98730  33.741  12.760  13.018
25663W        W98731  38.262  20.027  14.822
25664W        W98732  18.828  11.348  11.525
25665W        W98733  39.351  19.662  10.403
25666W        W98734  13.844  21.712  12.561
25667W        W98735  44.855  25.249  11.596
25668W        W98736   7.667  43.306   0.288
25669W        W98737  30.661  34.003   2.272
25670W        W98738   2.295   9.857  14.001
25671W        W98739   5.935  34.513   0.379
25672W        W98740  34.491   5.166   3.103
25673W        W98741  15.415  30.520  12.218
25674W        W98742  18.230  25.943   0.823
25675W        W98743  38.447  23.387   3.242
25676W        W98744  43.568   3.886  11.910
25677W        W98745  44.471  27.703   3.884
25678W        W98746  14.590  39.760   4.213
25679W        W98747  13.209   3.299   4.634
25680W        W98748  14.667  32.558  10.983
25681W        W98749  32.964  17.121   1.000
25682W        W98750   8.046  27.374  12.480
25683W        W98751  13.141  43.709   3.563
25684W        W98752  41.076   9.431  14.470
25685W        W98753  36.629  22.662   2.639
25686W        W98754  17.732  41.999   1.473
25687W        W98755  26.815  38.052   1.189
25688W        W98756   8.941  11.663   1.482
25689W        W98757   3.403  21.998   9.910
25690W        W98758  14.746  16.023   3.167
25691W        W98759  23.042  14.137   0.010
25692W        W98760  22.505  21.200  10.838
25693W        W98761  29.664   3.618   4.227
25694W        W98762  12.284  18.749  14.861
25695W        W98763   1.251  26.001   3.860
25696W        W98764  10.647  15.300   4.606
25697W        W98765  34.268   1.767  14.010
25698W        W98766  41.491  30.151   3.201
25699W        W98767  42.315  41.822  14.537
25700W        W98768  38.338   8.080  10.771
25701W        W98769  34.852  41.314   0.720
25702W        W98770   3.696  33.109   2.748
25703W        W98771  18.583  39.927  12.466
25704W        W98772   0.813   9.497  10.890
25705W        W98773   0.566  23.546   0.965
25706W        W98774   6.421  27.539  13.515
25707W        W98775   8.981  30.473   0.338
25708W        W98776  13.387  14.691  10.631
25709W        W98777  37.301  34.465   3.808
25710W        W98778  34.674  33.464  13.474
25711W        W98779  36.396   4.971   3.475
25712W        W98780   2.239  19.782   4.995
25713W        W98781  40.561  35.169   1.168
25714W        W98782  38.383  39.938  10.455
25715W        W98783  12.594  23.849  14.976
25716W        W98784  40.085  37.481   2.762
25717W        W98785  34.406  22.934   2.747
25718W        W98786  25.748   7.684   3.296
25719W        W98787  38.129  21.165  13.409
25720W        W98788   3.738  27.913  14.861
25721W        W98789  25.024  40.292   2.034
25722W        W98790  18.415  23.484  13.779
25723W        W98791  42.303  40.833   2.285
25724W        W98792  38.918   7.312   2.220
25725W        W98793  17.587  28.565   2.360
25726W        W98794  37.114  27.994   0.455
25727W        W98795  42.834  24.999  11.556
25728W        W98796  42.339  18.892   1.916
25729W        W98797  10.690   2.823  13.720
25730W        W98798   8.612  34.819   4.982
25731W        W98799  26.683   2.219  12.610
25732W        W98800   8.790  23.562   1.972
25733W        W98801  33.893   3.479   1.251
25734W        W98802   1.818  36.987   2.951
25735W        W98803  33.138  41.754  11.590
25736W        W98804  38.635  18.038  14.439
25737W        W98805   4.437  10.099  12.187
25738W        W98806  34.477  26.570   4.348
25739W        W98807  27.240   1.354   1.888
25740W        W98808  15.862   6.243  12.915
25741W        W98809  24.926  11.273  11.043
25742W        W98810   2.922  23.216   2.395
25743W        W98811   3.280  30.574   1.226
25744W        W98812  38.464   5.258  11.414
25745W        W98813   6.382   8.091  14.877
25746W        W98814  18.799  12.007   4.808
25747W        W98815  32.089  30.090  13.076
25748W        W98816   9.951  24.544   2.278
25749W        W98817  41.454  35.638   3.693
25750W        W98818  15.329  14.359   3.679
25751W        W98819  33.595  12.255   0.723
25752W        W98820  20.318   5.717  14.336
25753W        W98821  41.345  11.503  13.069
25754W        W98822  43.926  25.481   2.558
25755W        W98823   4.395  31.727  10.664
25756W        W98824   7.819  28.485   4.356
25757W        W98825  31.292   7.943  12.813
25758W        W98826  13.669  20.023   2.189
25759W        W98827  28.090  20.224  12.623
25760W        W98828  12.154  25.945  11.969
25761W        W98829  31.154  41.812  13.656
25762W        W98830  25.598   3.489  12.955
25763W        W98831  36.339  41.334   4.578
25764W        W98832   4.911  26.694   4.598
25765W        W98833  35.830  13.573   2.024
25766W        W98834   2.473  33.004  11.580
25767W        W98835  14.320  14.073   0.942
25768W        W98836  26.006  44.173  11.795
25769W        W98837  40.407  43.750   0.918
25770W        W98838  33.033  42.511   4.733
25771W        W98839  40.969  41.177  13.541
25772W        W98840  30.148  35.055  12.975
25773W        W98841  11.070   6.759   1.241
25774W        W98842  33.269  37.258  14.930
25775W        W98843   3.312  42.603  14.783
25776W        W98844  28.548   4.898   3.676
25777W        W98845  33.221  10.148  10.557
25778W        W98846   3.201  36.872  11.593
25779W        W98847  24.174  26.426   4.727
25780W        W98848  29.814   3.453  13.945
25781W        W98849  25.536   2.782   4.137
25782W        W98850   5.707   3.312  11.574
25783W        W98851  43.204  24.570  14.328
25784W        W98852   3.744  33.047  13.950
25785W        W98853  23.021   4.441   2.303
25786W        W98854  27.342  19.319  12.829
25787W        W98855  29.410   7.638   2.072
25788W        W98856   4.800  35.593   4.505
25789W        W98857  38.868  37.857  11.771
25790W        W98858  20.803  30.517  14.937
25791W        W98859  39.458  38.132  12.421
25792W        W98860   5.227  20.003  11.548
25793W        W98861  15.088  13.087   4.933
25794W        W98862  33.210   0.888  14.996
25795W        W98863  44.847  44.508  13.672
25796W        W98864  17.313   4.371  14.270
25797W        W98865   7.732   2.071   5.067
25798W        W98866  12.955   0.590  13.196
25799W        W98867  15.925   4.742   1.743
25800W        W98868  21.683  10.370   0.747
25801W        W98869  21.664  28.407   3.082
25802W        W98870   6.262   5.449   2.533
25803W        W98871  28.151   6.684   1.444
25804W        W98872  33.378  14.264   1.916
25805W        W98873   3.735   1.454   4.516
25806W        W98874   9.933  42.455   2.199
25807W        W98875   8.286  21.614  12.855
25808W        W98876  23.933   6.164   2.326
25809W        W98877  22.993  42.287   4.714
25810W        W98878  37.446  18.749   0.833
25811W        W98879  28.231   6.825  11.191
25812W        W98880  29.478  20.662   3.796
25813W        W98881  19.954  17.574   1.907
25814W        W98882  13.276   8.699   3.641
25815W        W98883  20.794  40.879   1.921
25816W        W98884  16.119  36.802   2.605
25817W        W98885  41.193   7.285   5.581
25818W        W98886  17.056  15.798  11.552
25819W        W98887  27.732  27.674   4.146
25820W        W98888  41.758  41.303  13.948
25821W        W98889   9.843  44.782   2.260
25822W        W98890  38.517  37.543  10.528
25823W        W98891  27.080  18.677  14.294
25824W        W98892  21.284  11.059   2.363
25825W        W98893  25.653  33.931  13.547
25826W        W98894  20.112  26.570  11.721
25827W        W98895  34.465   9.138   2.303
25828W        W98896  14.785  33.899  13.036
25829W        W98897  10.749  26.126  10.703
25830W        W98898   8.299   6.778  10.572
25831W        W98899  41.897  34.513   1.269
25832W        W98900  32.484  30.631   1.164
25833W        W98901  21.609  14.847   4.720
25834W        W98902  36.992  12.216   0.003
25835W        W98903   9.353  40.817   4.799
25836W        W98904  23.489   5.275  13.058
25837W        W98905  28.006  21.608  10.602
25838W        W98906  21.349  43.398   1.101
25839W        W98907  21.745  20.412  10.550
25840W        W98908  26.305  27.937   0.537
25841W        W98909   4.004  16.605   3.725
25842W        W98910   8.350   4.528  13.003
25843W        W98911  44.710  37.225   2.050
25844W        W98912   6.911   0.335  14.561
25845W        W98913  21.371  41.118  12.411
25846W        W98914  17.106  36.478  11.205
25847W        W98915  24.431   2.955   2.847
25848W        W98916  13.288  17.449  10.522
25849W        W98917   9.333  34.323   0.711
25850W        W98918  15.071  35.373   1.901
25851W        W98919  44.579  33.342  14.808
25852W        W98920  10.607  10.073   1.040
25853W        W98921  33.875  36.100  14.856
25854W        W98922  40.757  35.431  11.056
25855W        W98923  31.125  39.574  12.396
25856W        W98924  26.168  25.579  12.009
25857W        W98925   7.229   5.312   2.179
25858W        W98926  31.446  27.076  11.462
25859W        W98927  35.900  31.506   3.842
25860W        W98928  18.116   5.430  14.841
25861W        W98929  44.436   0.386   2.676
25862W        W98930   3.764  10.892   2.743
25863W        W98931  11.601  35.079   2.406
25864W        W98932  22.172  17.128   1.906
25865W        W98933  33.551  30.678   4.147
25866W        W98934  42.320  43.938   3.939
25867W        W98935  24.952  36.760   4.178
25868W        W98936  16.883  10.458   2.390
25869W        W98937  24.962  36.492   1.603
25870W        W98938  11.355  28.212  11.324
25871W        W98939  32.566  12.648   1.309
25872W        W98940  14.706  41.970  11.166
25873W        W98941   9.762  31.641  12.963
25874W        W98942  21.698  32.626  12.125
25875W        W98943  15.900  35.360  10.583
25876W        W98944  37.403   7.240   0.894
25877W        W98945  18.727  29.540  12.543
25878W        W98946  32.009  38.618  14.112
25879W        W98947   9.355  44.378   0.374
25880W        W98948  21.045  40.245   2.859
25881W        W98949  10.854  35.088  13.527
25882W        W98950  15.871  11.606  14.655
25883W        W98951  38.944   4.895  10.622
25884W        W98952  23.407  27.010   4.548
25885W        W98953  27.126  35.907  12.911
25886W        W98954  36.288  42.490   2.327
25887W        W98955   4.988  12.847   0.918
25888W        W98956  13.675  22.950   2.715
25889W        W98957  36.550  31.327   1.159
25890W        W98958  23.753  37.096  12.554
25891W        W98959   8.899  14.139   4.334
25892W        W98960  14.575  38.782  11.632
25893W        W98961  41.801  15.755   4.563
25894W        W98962  44.462  36.075  13.385
25895W        W98963   3.262   5.897   2.342
25896W        W98964  23.948  37.474  14.623
25897W        W98965  13.200  11.922  13.941
25898W        W98966  42.729  22.173  12.523
25899W        W98967  15.143  21.242  14.379
25900W        W98968  32.017  24.639   4.125
25901W        W98969  32.047  41.477   0.704
25902W        W98970  28.230  30.622   4.585
25903W        W98971   6.784   3.312   4.089
25904W        W98972   1.605  14.330   4.948
25905W        W98973  11.500   4.266   2.186
25906W        W98974   9.132  40.522   4.162
25907W        W98975  44.476   3.832  12.135
25908W        W98976   0.972   3.681  14.150
25909W        W98977  16.638  44.750   0.310
25910W        W98978  43.771  35.670  12.010
25911W        W98979  22.103  25.221   1.847
25912W        W98980   9.327  40.961   1.419
25913W        W98981   3.052  34.378  11.753
25914W        W98982  39.458   2.425   4.695
25915W        W98983  43.532   8.299  14.061
25916W        W98984  15.633  11.863   2.977
25917W        W98985   5.477  18.503   0.811
25918W        W98986  44.941  25.127  13.092
25919W        W98987  40.857   9.735   3.886
25920W        W98988  33.610   2.423  14.412
25921W        W98989  37.035  37.468  13.043
25922W        W98990  15.750   1.179   0.815
25923W        W98991   0.489   5.681   0.480
25924W        W98992  42.695  40.426  10.951
25925W        W98993  35.300   2.654   0.313
25926W        W98994  37.858   5.294  11.960
25927W        W98995  38.633   9.186  11.590
25928W        W98996  24.148  42.874   4.132
25929W        W98997  44.201  34.185   2.249
25930W        W98998  16.767  18.137  13.418
25931W        W98999  24.906   4.487   2.234
25932W        W99000  34.049   9.203   1.049
25933W        W99001   9.973  32.284   1.834
25934W        W99002   5.695  19.737   0.335
25935W        W99003  39.873   3.490   3.676
25936W        W99004  15.752  14.275   2.741
25937W        W99005  13.061   9.176  11.738
25938W        W99006  12.348   6.276   4.536
25939W        W99007  16.162  12.510  12.396
25940W        W99008  23.977   5.552  11.166
25941W        W99009  41.263  18.160  13.341
25942W        W99010  12.081   3.647  11.150
25943W        W99011  20.680   1.613  13.034
25944W        W99012  37.386  24.559   0.451
25945W        W99013  35.096   1.182  11.775
25946W        W99014  17.367  10.152  11.990
25947W        W99015  25.162  27.775   0.992
25948W        W99016  33.061  33.916   1.805
25949W        W99017  28.536  12.359   2.620
25950W        W99018  11.513  14.444   2.710
25951W        W99019  17.952   3.357  12.994
25952W        W99020   2.462  37.020  11.064
25953W        W99021   8.718  35.674  14.458
25954W        W99022  38.789   7.219  12.473
25955W        W99023   4.379  29.954  12.609
25956W        W99024   1.837  35.407   1.374
25957W        W99025  18.577   2.926  13.033
25958W        W99026   9.618  31.961   1.203
25959W        W99027  26.244  35.853  11.126
25960W        W99028  10.669  36.131   0.788
25961W        W99029  28.568  23.206  13.163
25962W        W99030  21.479  13.060  11.164
25963W        W99031  40.472  33.146   0.346
25964W        W99032  10.880  14.041  14.942
25965W        W99033  39.859  37.861   1.255
25966W        W99034  34.597  27.181  11.226
25967W        W99035  32.450  44.067   4.247
25968W        W99036  29.667  15.165   1.704
25969W        W99037  19.453  30.493   0.251
25970W        W99038   0.110  14.223   1.870
25971W        W99039  34.555  29.976  14.002
25972W        W99040   5.402  37.495  10.239
25973W        W99041  10.949  24.801   2.458
25974W        W99042  26.068  42.012  12.616
25975W        W99043   2.575  13.225  11.538
25976W        W99044  23.042  10.606   0.242
25977W        W99045   4.726   7.014  12.129
25978W        W99046  30.844   9.588  12.380
25979W        W99047  35.612   4.588  14.339
25980W        W99048  34.892  28.258  11.601
25981W        W99049   4.956   1.910   9.917
25982W        W99050   8.461   7.596  11.371
25983W        W99051  31.437   2.220  12.941
25984W        W99052   4.293  33.084  14.832
25985W        W99053  16.340  20.498  13.317
25986W        W99054  44.445  12.282  10.298
25987W        W99055   4.790  39.480   3.310
25988W        W99056  40.518  11.888  13.227
25989W        W99057  13.348  36.889  13.400
25990W        W99058  28.679  24.788   0.254
25991W        W99059   3.836  23.116  14.082
25992W        W99060  14.787  10.379  11.200
25993W        W99061  30.608  24.202  14.083
25994W        W99062  35.082  26.846   0.818
25995W        W99063  41.201   4.862  14.438
25996W        W99064  44.876  19.795   5.070
25997W        W99065  29.705  14.179  10.839
25998W        W99066   9.909   3.103  14.083
25999W        W99067  34.416   7.922  12.429
26000W        W99068   3.802   3.180   4.117
26001W        W99069  13.170  19.268  14.843
26002W        W99070  32.036  31.311  11.240
26003W        W99071  11.834   3.109   2.670
26004W        W99072   9.727  16.226   2.449
26005W        W99073  36.932   3.893  11.277
26006W        W99074   4.994  24.219   5.065
26007W        W99075  18.267  24.936   0.792
26008W        W99076   6.597   0.268   0.302
26009W        W99077  33.748  37.454  13.775
26010W        W99078  22.400  23.023   3.142
26011W        W99079   8.926  28.676   3.768
26012W        W99080  23.256  25.142   1.221
26013W        W99081  33.620  29.171  14.263
26014W        W99082  11.386  19.008  13.049
26015W        W99083   9.381  21.705  14.348
26016W        W99084   8.943  34.868  13.995
26017W        W99085  21.053  35.474   1.856
26018W        W99086  12.816  10.350  14.287
26019W        W99087  23.321  27.735   1.632
26020W        W99088   5.644  33.498  14.857
26021W        W99089   0.803  17.868   4.044
26022W        W99090   8.199  31.167   1.191
26023W        W99091  42.762  20.587   0.275
26024W        W99092   4.378  30.989  12.578
26025W        W99093  19.075   5.233  14.968
26026W        W99094  42.953   7.282   4.189
26027W        W99095  16.763  19.176   3.278
26028W        W99096  42.251  17.508   1.904
26029W        W99097   2.908  20.529  11.421
26030W        W99098  42.764  12.803  12.158
26031W        W99099  32.359   2.341  14.000
26032W        W99100  27.736  33.286   0.158
26033W        W99101   1.804  24.494   0.736
26034W        W99102  21.109   1.849  10.712
26035W        W99103  44.038  18.048   4.135
26036W        W99104  42.172  14.809   1.340
26037W        W99105   3.695   0.556   0.425
26038W        W99106   3.780   3.334   0.767
26039W        W99107  11.138   1.775  13.496
26040W        W99108   7.274  21.257   2.359
26041W        W99109   1.609   3.818  11.100
26042W        W99110  25.664  33.995   2.904
26043W        W99111  37.441  35.294  13.865
26044W        W99112  39.064   2.151  13.475
26045W        W99113  29.196  37.592  11.601
26046W        W99114  37.939  17.724   4.669
26047W        W99115  38.865  16.797  14.666
26048W        W99116   9.886  34.023  12.636
26049W        W99117  29.514   7.599  14.698
26050W        W99118   5.838  34.344  14.339
26051W        W99119  14.654   1.773  12.573
26052W        W99120   3.764  28.630   4.572
26053W        W99121  32.032  31.015   1.851
26054W        W99122  37.785  21.771   0.480
26055W        W99123  23.223  20.992   2.162
26056W        W99124  27.052  41.437   0.822
26057W        W99125  21.240  40.023  14.431
26058W        W99126  28.275  30.720   0.866
26059W        W99127  15.884  11.871   5.003
26060W        W99128  16.721  36.386  12.684
26061W        W99129  22.181   4.382   3.086
26062W        W99130   7.964  42.859   0.228
26063W        W99131  35.964  17.237  14.819
26064W        W99132  42.879  24.621   2.183
26065W        W99133   0.699   7.134  13.453
26066W        W99134  40.305  11.420   1.426
26067W        W99135  25.791  41.080  13.467
26068W        W99136  28.419  12.350   0.781
26069W        W99137  36.152  44.664  11.687
26070W        W99138   6.309  32.176   1.165
26071W        W99139   4.317  31.579   1.310
26072W        W99140  18.282  36.606   2.650
26073W        W99141  31.586  27.080  12.939
26074W        W99142  26.253  26.717   0.015
26075W        W99143  38.340   1.831   0.982
26076W        W99144  14.491  35.934  12.095
26077W        W99145   2.782  12.467   1.883
26078W        W99146  14.320   6.221   2.289
26079W        W99147  17.062  24.974   1.740
26080W        W99148  19.577   9.606   5.036
26081W        W99149  17.732   4.856  13.515
26082W        W99150  38.825  20.696  13.157
26083W        W99151  33.316  26.274   2.323
26084W        W99152  22.107  28.551   3.313
26085W        W99153  26.665   0.393   1.891
26086W        W99154   4.748  34.842   2.383
26087W        W99155   2.000  38.477  10.979
26088W        W99156  15.483  26.931  11.100
26089W        W99157   9.280  12.361  13.318
26090W        W99158  31.530  24.787   1.940
26091W        W99159   9.776  28.149  12.982
26092W        W99160  41.089  29.854   3.084
26093W        W99161   7.724  34.333   0.817
26094W        W99162  16.684   3.910   2.153
26095W        W99163  28.010  41.083   0.440
26096W        W99164   5.771   4.911   3.844
26097W        W99165  25.514  18.479  13.398
26098W        W99166   8.071  16.687   2.624
26099W        W99167  17.092  30.178   1.477
26100W        W99168  17.547  17.666   4.405
26101W        W99169   8.450  42.578   3.698
26102W        W99170  39.820  35.449   1.318
26103W        W99171  25.102   0.914  13.330
26104W        W99172  44.354  18.600   0.717
26105W        W99173  37.433  43.895   1.740
26106W        W99174  10.866   6.915   2.283
26107W        W99175   9.817  39.415  12.490
26108W        W99176   7.493  11.666  13.561
26109W        W99177  37.991  13.118   4.470
26110W        W99178  10.877  12.233  13.361
26111W        W99179  34.425  26.224   2.703
26112W        W99180  42.443   5.784   2.393
26113W        W99181  37.491  21.754   3.801
26114W        W99182  34.044   9.881   3.226
26115W        W99183  18.053   4.082   2.910
26116W        W99184  27.226  38.786  12.024
26117W        W99185   9.948  21.796  14.273
26118W        W99186  42.260  33.400  12.398
26119W        W99187   6.396  40.481   2.268
26120W        W99188  39.275  22.639   1.684
26121W        W99189  20.292  26.710  14.472
26122W        W99190  27.148   6.553  14.703
26123W        W99191  32.928  43.570  13.346
26124W        W99192   2.506  25.700   3.258
26125W        W99193  14.772  24.641   4.531
26126W        W99194  42.691  31.088  14.418
26127W        W99195  10.353  20.697   0.914
26128W        W99196  28.166  37.557  11.587
26129W        W99197   8.808  12.440  13.513
26130W        W99198  43.200   1.970  11.001
26131W        W99199  38.565  36.477   0.440
26132W        W99200  44.970  34.691  11.204
26133W        W99201  17.216  17.191  14.525
26134W        W99202  32.947   3.762   0.474
26135W        W99203  11.253  25.681  13.278
26136W        W99204  13.358  14.267  13.839
26137W        W99205   7.664  34.464   1.766
26138W        W99206  36.579  24.639   3.711
26139W        W99207  35.040   9.893   2.306
26140W        W99208  30.982  27.701   2.107
26141W        W99209  15.731  28.426  13.941
26142W        W99210  11.487  43.933  13.069
26143W        W99211  27.448  33.390  11.244
26144W        W99212  31.092  28.724   1.971
26145W        W99213  31.623  11.029   1.244
26146W        W99214  17.240  40.045   4.041
26147W        W99215   1.761  16.597  12.570
26148W        W99216  16.097   2.748   2.630
26149W        W99217  13.726  21.318   0.539
26150W        W99218  40.364  27.847   1.897
26151W        W99219  26.741  21.738  12.929
26152W        W99220   3.084  22.473   0.544
26153W        W99221  16.641  15.289   2.137
26154W        W99222  12.321   8.795   5.032
26155W        W99223  24.818  37.013   4.611
26156W        W99224  40.162  38.287   0.336
26157W        W99225   9.765  30.844  13.391
26158W        W99226  26.765  20.993  14.605
26159W        W99227  23.297  17.531  12.020
26160W        W99228  13.131  42.062   4.950
26161W        W99229   3.635  10.767   1.730
26162W        W99230  27.599  21.623  12.338
26163W        W99231  43.802  17.183  14.067
26164W        W99232  11.309   6.606  11.075
26165W        W99233  16.189  27.510   1.809
26166W        W99234  38.551  10.853  13.545
26167W        W99235   1.490  41.739  12.439
26168W        W99236  25.192   3.302  11.447
26169W        W99237  22.932   2.165  13.408
26170W        W99238  25.908  29.243  11.650
26171W        W99239  39.799  34.584   3.140
26172W        W99240  40.578  40.986   3.098
26173W        W99241  31.996  21.996   1.817
26174W        W99242   5.433  15.576   0.941
26175W        W99243  20.636  26.440  10.918
26176W        W99244  39.988  26.820   3.166
26177W        W99245  31.482  39.179  12.382
26178W        W99246  43.762  24.284   0.780
26179W        W99247   2.962  31.152  14.383
26180W        W99248  18.584  44.940   4.214
26181W        W99249  21.032  20.605   4.923
26182W        W99250  26.567  44.012  12.434
26183W        W99251  30.230  25.233   2.548
26184W        W99252  27.528  23.509   1.877
26185W        W99253   1.042  40.519   2.019
26186W        W99254  39.801   5.153  11.958
26187W        W99255  33.723   4.496   3.266
26188W        W99256   2.383   1.294   3.894
26189W        W99257  10.333  24.439  11.435
26190W        W99258  37.041  19.605   0.980
26191W        W99259  21.237  24.728   0.446
26192W        W99260  14.640   4.951   1.266
26193W        W99261  31.174  25.103   4.119
26194W        W99262  31.764  18.595  14.815
26195W        W99263  29.593  29.128  14.970
26196W        W99264  39.036  27.798   1.359
26197W        W99265  25.117   1.922  14.225
26198W        W99266   5.027  26.677   0.305
26199W        W99267  26.558  31.497  13.572
26200W        W99268  36.458  24.638   4.229
26201W        W99269   5.721  10.190   3.902
26202W        W99270  19.176  35.876   4.168
26203W        W99271   9.400  40.516   3.196
26204W        W99272  13.264  23.808  12.607
26205W        W99273  12.772  37.392  13.978
26206W        W99274   1.326  22.853  14.957
26207W        W99275  18.279  41.746   2.776
26208W        W99276  22.546  24.937   1.905
26209W        W99277  11.135  35.131   3.146
26210W        W99278   8.705  41.262  12.020
26211W        W99279  28.111  18.153  12.407
26212W        W99280   0.262  26.899  14.851
26213W        W99281  37.664  31.407  13.826
26214W        W99282   5.398  16.836   4.652
26215W        W99283  43.233  22.953   0.845
26216W        W99284  34.520  25.289   4.901
26217W        W99285  37.467  22.688   4.765
26218W        W99286   9.115  15.665  10.166
26219W        W99287   9.695  23.702  11.527
26220W        W99288  37.419  19.041  11.599
26221W        W99289  31.258  43.668  11.075
26222W        W99290  16.262   3.821   3.101
26223W        W99291  25.307  16.715   1.850
26224W        W99292  16.321  32.895  13.173
26225W        W99293  23.213  14.341   1.293
26226W        W99294  12.168  37.241  12.914
26227W        W99295   5.032  15.254   0.832
26228W        W99296  17.159  27.967   1.905
26229W        W99297  17.718  35.078   1.711
26230W        W99298  18.372  30.417  12.787
26231W        W99299   4.764  22.692  13.250
26232W        W99300  26.710  19.094   0.935
26233W        W99301  20.311  25.812   2.092
26234W        W99302  41.949  42.256   1.960
26235W        W99303   9.645  39.609  14.174
26236W        W99304  28.316  23.580   0.422
26237W        W99305  25.299   4.159   1.983
26238W        W99306  15.844  20.138  14.771
26239W        W99307  29.112  42.110  10.660
26240W        W99308  23.819  41.109   1.410
26241W        W99309  10.213  36.551   3.088
26242W        W99310  32.015  15.854   1.697
26243W        W99311   5.747  22.555   2.684
26244W        W99312  38.533  21.268  14.323
26245W        W99313   2.331  34.823  14.230
26246W        W99314  25.476  36.520   1.679
26247W        W99315  36.173  40.835  11.235
26248W        W99316  44.086  12.826   2.240
26249W        W99317   7.706  39.149   1.294
26250W        W99318  43.388  41.361  12.586
26251W        W99319  12.948  28.718   3.244
26252W        W99320  26.714  32.568   1.199
26253W        W99321   4.815  39.752  12.906
26254W        W99322  10.166  10.335   3.153
26255W        W99323  30.073  30.429   2.780
26256W        W99324  36.392  32.911  10.628
26257W        W99325  10.481  17.318  11.717
26258W        W99326  32.247  18.737  14.638
26259W        W99327  25.429  19.684  13.224
26260W        W99328  28.646  39.815  12.140
26261W        W99329   0.015  33.998   2.662
26262W        W99330  28.590  21.715   2.397
26263W        W99331  22.363  40.337  12.076
26264W        W99332  23.939  24.239   4.615
26265W        W99333  33.873  21.156   2.775
26266W        W99334  20.017  13.068  13.492
26267W        W99335   3.443  40.515  10.416
26268W        W99336   9.639  17.330  12.223
26269W        W99337   6.941  21.138   1.991
26270W        W99338  38.980   7.866  11.397
26271W        W99339  23.716  44.329   0.451
26272W        W99340  11.127  17.273  13.850
26273W        W99341  14.181  11.594   0.386
26274W        W99342   7.312  18.514  11.631
26275W        W99343  31.603  38.490  13.136
26276W        W99344  22.226  31.224   1.246
26277W        W99345  13.729  31.940  13.448
26278W        W99346  12.825  26.645   1.238
26279W        W99347   7.352   5.851   3.987
26280W        W99348  19.016  24.843  13.459
26281W        W99349  21.813  27.482   1.916
26282W        W99350   7.872   1.218   1.913
26283W        W99351  16.760  29.522   1.706
26284W        W99352  39.145  33.511  12.878
26285W        W99353   3.019  26.488  11.031
26286W        W99354  19.964  31.501  10.654
26287W        W99355  39.907   4.884   4.640
26288W        W99356  26.287  19.983   3.442
26289W        W99357  16.048   0.416  13.904
26290W        W99358   4.697   3.197  10.561
26291W        W99359  43.879  11.356  14.590
26292W        W99360  26.054  36.444   2.231
26293W        W99361  41.415  27.953   4.328
26294W        W99362  16.058  41.418  11.122
26295W        W99363  22.561  44.412  12.106
26296W        W99364   0.412  33.797   4.775
26297W        W99365  30.702  34.538   3.627
26298W        W99366   2.987  43.927   2.429
26299W        W99367  25.106  43.225   1.829
26300W        W99368  39.735   0.502  10.330
26301W        W99369  21.719  17.020  13.240
26302W        W99370  21.576   2.832  10.541
26303W        W99371  36.136  14.887   4.905
26304W        W99372  19.837  41.772   1.423
26305W        W99373  25.488   0.352   2.789
26306W        W99374  17.357   8.292  12.760
26307W        W99375  33.500   3.233   2.116
26308W        W99376  31.769  26.495   3.531
26309W        W99377  43.382  30.691   4.439
26310W        W99378  16.042  27.524  14.983
26311W        W99379  42.987   7.349   2.459
26312W        W99380  34.970  26.157   2.598
26313W        W99381  21.888  35.795  12.661
26314W        W99382  31.031  43.282   3.185
26315W        W99383  35.294  30.870   1.298
26316W        W99384  23.993  13.100   0.893
26317W        W99385  32.048  29.477   3.609
26318W        W99386  36.317  37.953   3.852
26319W        W99387  39.289  36.612  11.047
26320W        W99388  11.218   6.773  14.823
26321W        W99389  23.463  27.954  11.280
26322W        W99390   8.179  22.483   3.401
26323W        W99391  39.330  28.845   4.551
26324W        W99392  26.747  13.541  11.483
26325W        W99393  28.389  11.716   4.301
26326W        W99394  10.756  15.109   4.133
26327W        W99395  19.618   2.745   4.036
26328W        W99396  23.747   1.547   2.231
26329W        W99397  10.057  39.408   2.284
26330W        W99398  29.686  38.942  11.988
26331W        W99399  30.204  36.680  14.424
26332W        W99400  30.897   8.792  13.294
26333W        W99401  14.372  17.553   2.068
26334W        W99402  21.048   3.138   0.433
26335W        W99403   6.834  41.538  11.029
26336W        W99404  13.864   7.123   1.259
26337W        W99405  23.523  15.292  13.930
26338W        W99406   8.682  38.876   1.282
26339W        W99407  24.657   6.135  11.325
26340W        W99408  44.667  13.028  14.403
26341W        W99409  34.679  31.942   4.161
26342W        W99410  39.999  29.108  14.929
26343W        W99411  21.762   2.367   1.117
26344W        W99412  27.465  29.950  11.130
26345W        W99413  26.620  25.044  10.835
26346W        W99414  27.031  17.589   1.193
26347W        W99415   6.132  10.915   0.519
26348W        W99416  27.603  26.635  13.257
26349W        W99417  17.087  17.982  11.107
26350W        W99418   0.824  14.662   4.694
26351W        W99419  16.239  12.187  11.932
26352W        W99420  39.345  37.543   0.896
26353W        W99421  24.572  16.834  12.113
26354W        W99422  29.310  42.846   0.544
26355W        W99423  33.904   8.670  11.184
26356W        W99424  41.712  38.435  12.371
26357W        W99425  38.384  23.995  13.621
26358W        W99426  33.185  13.315   2.278
26359W        W99427   5.048  22.311   0.370
26360W        W99428  30.739   7.153  11.751
26361W        W99429   9.303  20.897  13.081
26362W        W99430  36.520  31.476  10.695
26363W        W99431  35.268  42.144   0.741
26364W        W99432  20.712   8.700  10.637
26365W        W99433  10.709  21.092  13.425
26366W        W99434  32.711   7.383  14.310
26367W        W99435  27.401  32.002   2.324
26368W        W99436  35.488   6.274   0.189
26369W        W99437  32.901  40.551  14.542
26370W        W99438   6.698  39.735   2.677
26371W        W99439  34.061   3.015   0.041
26372W        W99440  44.971  26.185   3.961
26373W        W99441  22.286  43.573  13.589
26374W        W99442  15.637  42.033  11.134
26375W        W99443  39.596  25.464   4.017
26376W        W99444  36.300  17.831  13.366
26377W        W99445  10.112  23.012  12.812
26378W        W99446  24.483  26.641  11.085
26379W        W99447  30.615  14.302   2.631
26380W        W99448  14.357  31.191  14.833
26381W        W99449  42.796  44.317  12.455
26382W        W99450  11.100   9.208   4.850
26383W        W99451  24.752  40.950  11.545
26384W        W99452   1.880  10.739   3.116
26385W        W99453  17.220  37.831   2.193
26386W        W99454  26.580  29.186   4.184
26387W        W99455  20.772  43.289   5.024
26388W        W99456  30.811  33.493  12.140
26389W        W99457  43.724  43.357  12.567
26390W        W99458   4.321  25.739   4.199
26391W        W99459  41.080   7.334  13.290
26392W        W99460   1.865  29.019   2.324
26393W        W99461  35.114  23.971  13.324
26394W        W99462  13.956  10.648  14.879
26395W        W99463  20.788  44.241  12.405
26396W        W99464  16.168  33.631   3.906
26397W        W99465  21.221  32.514  12.016
26398W        W99466   4.355   4.640   1.270
26399W        W99467  44.832  23.979   3.286
26400W        W99468  21.382  23.945  13.400
26401W        W99469  19.222   2.737  12.626
26402W        W99470  34.900  38.111  12.902
26403W        W99471   8.572  36.108   3.367
26404W        W99472  21.055  30.937  13.148
26405W        W99473  43.917  29.405  12.129
26406W        W99474   7.657  35.858   1.758
26407W        W99475  15.839  12.704   4.696
26408W        W99476  35.967  30.684   2.825
26409W        W99477  21.330  42.814   4.667
26410W        W99478   1.327  39.931  12.086
26411W        W99479  16.238   8.849   3.041
26412W        W99480  20.701  24.429  14.293
26413W        W99481  36.034  41.790   2.607
26414W        W99482  13.931   8.338  13.415
26415W        W99483  38.879  43.817  12.688
26416W        W99484  10.396  34.942   1.168
26417W        W99485  18.636  24.977   2.807
26418W        W99486  42.643  18.020   0.857
26419W        W99487  17.582  25.273  10.736
26420W        W99488  26.038  15.254   2.433
26421W        W99489   9.543  40.552  10.539
26422W        W99490  11.758  32.989   0.058
26423W        W99491   0.332   9.336  11.669
26424W        W99492  34.484  35.347   3.655
26425W        W99493   4.326  40.368  11.643
26426W        W99494  11.589  11.272  14.571
26427W        W99495  44.272  28.432   0.318
26428W        W99496  15.326   0.444  12.126
26429W        W99497  19.689   5.853  14.568
26430W        W99498  11.205  29.070  11.979
26431W        W99499  17.762  40.814  12.609
26432W        W99500  18.176  30.969   2.113
26433W        W99501  19.114  34.873   1.464
26434W        W99502  33.402  44.133   4.411
26435W        W99503  26.069  19.946   2.439
26436W        W99504  42.145   3.766  13.948
26437W        W99505  15.280  38.356  14.833
26438W        W99506  44.416   1.123  10.841
26439W        W99507  25.548  33.483  13.292
26440W        W99508  29.586  15.632  12.442
26441W        W99509  43.726   3.847   2.408
26442W        W99510  28.472  44.810  11.895
26443W        W99511  21.714  30.512   0.274
26444W        W99512  25.574  36.657  12.419
26445W        W99513  34.406  44.435  12.737
26446W        W99514   3.376  21.441   1.367
26447W        W99515   1.818  23.186   2.896
26448W        W99516   3.898  27.114   0.895
26449W        W99517  37.029  35.973  10.630
26450W        W99518  35.105  30.871  14.278
26451W        W99519  25.921   5.259   0.457
26452W        W99520  40.778  39.072  13.065
26453W        W99521  22.143  22.508   2.770
26454W        W99522  24.205  27.762  10.714
26455W        W99523  22.752  16.982  14.369
26456W        W99524   7.237  17.478   3.915
26457W        W99525  15.866  41.813  12.522
26458W        W99526  12.075  43.544  12.232
26459W        W99527  13.805  37.575  11.097
26460W        W99528  30.467  18.933   2.245
26461W        W99529  37.064  20.373   4.529
26462W        W99530   9.106  10.356  10.696
26463W        W99531  18.374   8.192  14.837
26464W        W99532  17.220   8.125   2.140
26465W        W99533  43.304  26.061  10.755
26466W        W99534  28.069  36.107   3.260
26467W        W99535  15.199  32.942  13.875
26468W        W99536   3.907  18.181  12.567
26469W        W99537  36.157  20.252  14.773
26470W        W99538   2.083  25.182   0.815
26471W        W99539  28.790  19.782  14.890
26472W        W99540  16.116  21.106  12.593
26473W        W99541   0.924  11.505  10.646
26474W        W99542  12.202  22.303  10.896
26475W        W99543  23.234   7.843  12.181
26476W        W99544  38.129  33.107   2.766
26477W        W99545  39.831  10.350  10.752
26478W        W99546  13.505  13.194   0.243
26479W        W99547  19.092   9.796  11.442
26480W        W99548  37.950  20.778   1.845
26481W        W99549  39.433  43.308   2.858
26482W        W99550  32.607   0.319   0.674
26483W        W99551   6.946  27.667   4.484
26484W        W99552  28.169   5.625  12.992
26485W        W99553  24.984  32.208   2.822
26486W        W99554  24.173   2.958   1.178
26487W        W99555   6.340   5.923   2.809
26488W        W99556  39.865  27.437   0.457
26489W        W99557   4.971  19.812  14.025
26490W        W99558   5.287  17.815  12.181
26491W        W99559  17.756  33.531  11.665
26492W        W99560   5.397  30.399  14.968
26493W        W99561  24.223  19.126  13.085
26494W        W99562  16.562  29.462  10.671
26495W        W99563  18.061  18.634   1.969
26496W        W99564  35.539  25.633   2.905
26497W        W99565  13.208  14.317   4.078
26498W        W99566   9.657  21.095  13.508
26499W        W99567  11.274  14.809  12.857
26500W        W99568  23.201  35.922  10.560
26501W        W99569  32.480   7.449   2.878
26502W        W99570  32.693  40.552  13.036
26503W        W99571  17.032  21.289  13.369
26504W        W99572   6.625  38.335   1.796
26505W        W99573  36.552  20.439   1.952
26506W        W99574  32.880  41.956   1.654
26507W        W99575  35.024  39.469  10.703
26508W        W99576   4.884  39.486  12.085
26509W        W99577  36.633  16.004   2.994
26510W        W99578   6.306  14.112  10.319
26511W        W99579  16.119  30.449  14.924
26512W        W99580  17.663  29.955   4.811
26513W        W99581  12.136  22.975   0.827
26514W        W99582  35.958  28.398  11.172
26515W        W99583  24.505  26.487  11.943
26516W        W99584  24.120  17.191   3.699
26517W        W99585  15.635  17.754  11.954
26518W        W99586  37.483  14.677  13.012
26519W        W99587  22.801  28.638   4.051
26520W        W99588  12.351  40.928   4.059
26521W        W99589  13.795  24.569   1.652
26522W        W99590   8.719  13.711  13.578
26523W        W99591  34.750  12.233   1.256
26524W        W99592  28.354  31.639  12.993
26525W        W99593  20.780  16.815   2.227
26526W        W99594   7.183  24.796   4.661
26527W        W99595  25.177   0.973   4.726
26528W        W99596  24.954  38.404  12.066
26529W        W99597  28.233  17.038   2.444
26530W        W99598  22.619  24.531   4.610
26531W        W99599  33.086  32.613   0.408
26532W        W99600  20.315  10.339  13.349
26533W        W99601  38.524  26.890  12.526
26534W        W99602   7.778   0.987  14.040
26535W        W99603  36.553  13.694  14.211
26536W        W99604  12.570  19.541   3.480
26537W        W99605  41.907  42.660   4.271
26538W        W99606  16.820  20.318  13.452
26539W        W99607  19.093  16.130   3.626
26540W        W99608  21.797  42.927   4.855
26541W        W99609  34.526  28.733  14.823
26542W        W99610  22.508  14.152   2.401
26543W        W99611   4.758   8.659  10.239
26544W        W99612  35.064  28.832  13.894
26545W        W99613  33.715  18.052  11.423
26546W        W99614  15.546  15.110   3.773
26547W        W99615  36.990  14.850  12.024
26548W        W99616   9.629   9.175  10.564
26549W        W99617  40.689   4.865  14.314
26550W        W99618  27.960  34.126   3.028
26551W        W99619   4.970  42.953  11.400
26552W        W99620  21.653  34.344   1.662
26553W        W99621  39.512  20.210  14.481
26554W        W99622  24.060  10.968   1.766
26555W        W99623  23.232   9.878  14.835
26556W        W99624  37.717  11.730  13.330
26557W        W99625  14.638   6.336   3.704
26558W        W99626  35.033  42.054  13.472
26559W        W99627  13.319   5.964  11.421
26560W        W99628   0.470   2.550  12.101
26561W        W99629  12.186  14.793  13.379
26562W        W99630  43.200  27.605  12.907
26563W        W99631  36.999  20.900  11.585
26564W        W99632  33.402  33.117  14.819
26565W        W99633  43.366  24.940  11.609
26566W        W99634  20.722  29.160  14.456
26567W        W99635  44.240  24.665   2.208
26568W        W99636  14.889  38.525  14.348
26569W        W99637  38.342  30.660  13.590
26570W        W99638  39.520  37.401  11.914
26571W        W99639  29.196   7.326  14.398
26572W        W99640   2.147  13.628  13.147
26573W        W99641  16.575  11.210   0.813
26574W        W99642   6.977  25.034  14.985
26575W        W99643   3.729   6.321   2.641
26576W        W99644   2.782   9.306   0.992
26577W        W99645   1.433  19.186  14.349
26578W        W99646  42.933  28.119  10.712
26579W        W99647  36.774  37.783  11.560
26580W        W99648  16.021  21.736   0.339
26581W        W99649  41.721  32.920  11.155
26582W        W99650  14.720  40.319  13.784
26583W        W99651  22.238  42.323  12.966
26584W        W99652  12.043  21.916   1.630
26585W        W99653   3.442  34.379   3.958
26586W        W99654   6.939  23.216   2.324
26587W        W99655  34.178  43.299   4.775
26588W        W99656  33.403  41.041   2.920
26589W        W99657  14.052  22.194  13.310
26590W        W99658  12.706  14.673  13.389
26591W        W99659  10.372  15.421  10.698
26592W        W99660  29.540  41.488   2.960
26593W        W99661   2.532  13.722  14.416
26594W        W99662  14.569  44.763   0.455
26595W        W99663  27.782  25.755   4.057
26596W        W99664  28.503  13.822  12.056
26597W        W99665  27.435  14.768  14.918
26598W        W99666  31.965  27.590  14.957
26599W        W99667   0.975   1.009  11.072
26600W        W99668  14.725   7.258  13.540
26601W        W99669   7.218  44.836  14.579
26602W        W99670   9.385  16.851  10.639
26603W        W99671   2.918  18.456  12.712
26604W        W99672   7.810   0.517  14.422
26605W        W99673  22.810  12.665   2.198
26606W        W99674  17.288   5.694   2.633
26607W        W99675   5.369  21.479   3.261
26608W        W99676  35.624   9.868  13.654
26609W        W99677   4.773  33.633   1.271
26610W        W99678  44.524  12.149  12.005
26611W        W99679  25.633  11.721   1.704
26612W        W99680   9.199   0.449  12.989
26613W        W99681   8.450  41.798  14.423
26614W        W99682  26.396  10.392   4.542
26615W        W99683   2.986  20.636  13.520
26616W        W99684  41.115   1.523   3.313
26617W        W99685  28.192  23.273   4.639
26618W        W99686  40.110  44.506   0.437
26619W        W99687  39.244   9.275   2.566
26620W        W99688  43.909   1.370  13.069
26621W        W99689  33.926   1.859   4.631
26622W        W99690  43.404  37.776   1.709
26623W        W99691  37.509  11.341  12.994
26624W        W99692  27.193  15.724   2.770
26625W        W99693   5.901   0.732  13.072
26626W        W99694  42.065  20.673  11.579
26627W        W99695   3.039  33.443  10.750
26628W        W99696  23.762  40.272  10.254
26629W        W99697   4.015  28.942  10.682
26630W        W99698   1.247   4.330   2.776
26631W        W99699  16.576   9.336  14.056
26632W        W99700  36.336  25.198   0.973
26633W        W99701  18.773   2.712  11.594
26634W        W99702  31.440  20.365   4.560
26635W        W99703  30.081  39.486  13.143
26636W        W99704  27.120   5.256   1.442
26637W        W99705  28.586  16.022  13.854
26638W        W99706  37.458  11.481   0.576
26639W        W99707  37.510  22.250  13.258
26640W        W99708  30.870  36.172   5.131
26641W        W99709  39.134  11.844   0.823
26642W        W99710  30.141  36.892  13.527
26643W        W99711  23.279  25.159  12.155
26644W        W99712  30.644   5.874  13.623
26645W        W99713  15.566  34.050   3.134
26646W        W99714  12.851   2.351  13.490
26647W        W99715  27.429   5.189   0.469
26648W        W99716  27.350  25.125   4.080
26649W        W99717  44.850  36.619   1.280
26650W        W99718  33.613  32.018  11.017
26651W        W99719  13.440   9.791   3.631
26652W        W99720  35.285  12.177  11.134
26653W        W99721  36.585  44.531  12.115
26654W        W99722   4.226   6.618   3.547
26655W        W99723   6.452  44.875  11.102
26656W        W99724  34.664  18.314  11.112
26657W        W99725  34.901  42.808   2.393
26658W        W99726  22.294  43.779  12.041
26659W        W99727  24.437  42.438   4.205
26660W        W99728  15.659   2.876   4.331
26661W        W99729   3.800  39.124  14.294
26662W        W99730  19.998  33.435   4.599
26663W        W99731  15.792  38.260  13.627
26664W        W99732  17.102   8.502   2.619
26665W        W99733  42.782  40.725  12.101
26666W        W99734   7.114  40.731  13.443
26667W        W99735  21.785  11.778   0.759
26668W        W99736   1.226  26.441  12.155
26669W        W99737  18.518  10.420   0.267
26670W        W99738  19.250  18.557   4.145
26671W        W99739  16.201  42.517  13.896
26672W        W99740  18.488  11.300   0.575
26673W        W99741  14.114  23.205   2.801
26674W        W99742  29.998  23.641  12.004
26675W        W99743   4.963  30.571  14.774
26676W        W99744  30.969  13.755  12.843
26677W        W99745  17.577  35.291   3.120
26678W        W99746  40.784  43.096   4.884
26679W        W99747   0.336  32.664   4.103
26680W        W99748   8.260  44.466  13.023
26681W        W99749  27.010  42.401   0.970
26682W        W99750   0.416  12.071  12.398
26683W        W99751   9.343   5.345  14.910
26684W        W99752  14.948  35.885   0.242
26685W        W99753  11.278  28.887  13.414
26686W        W99754  31.936  33.002   3.776
26687W        W99755  41.045  22.586  14.224
26688W        W99756   3.385  43.716  13.825
26689W        W99757  43.517  43.223   0.325
26690W        W99758   6.472  39.978   2.273
26691W        W99759  38.046  38.951  12.551
26692W        W99760  34.674  25.499  14.803
26693W        W99761   9.119  24.434   0.334
26694W        W99762  43.387   6.238  12.909
26695W        W99763   5.173  34.847  13.492
26696W        W99764  19.203  30.352   3.702
26697W        W99765   2.791  32.883  13.491
26698W        W99766  15.999  36.902  10.351
26699W        W99767  37.115  19.093   4.512
26700W        W99768  16.192  24.734   1.259
26701W        W99769   3.339  20.698  11.191
26702W        W99770  30.908  20.187  14.012
26703W        W99771  30.101  22.721  11.658
26704W        W99772  12.720   7.463  14.588
26705W        W99773   0.201   0.484   1.303
26706W        W99774  24.200  28.264  10.512
26707W        W99775   9.415  37.812   2.870
26708W        W99776  18.588  43.981   3.788
26709W        W99777  12.757  42.038  14.969
26710W        W99778  11.600   1.397   0.872
26711W        W99779  26.084  13.943  12.978
26712W        W99780  28.140  15.995   0.402
26713W        W99781   5.245  16.687  14.111
26714W        W99782  40.716  11.063   1.201
26715W        W99783  27.551  34.999  12.378
26716W        W99784   5.237  27.894  11.717
26717W        W99785  27.154  20.634  14.677
26718W        W99786  38.517  36.416   4.048
26719W        W99787  13.589   9.825   4.529
26720W        W99788  13.798   4.237  12.502
26721W        W99789  25.081  42.046   3.686
26722W        W99790  13.558  20.100  13.277
26723W        W99791  18.688  43.760  12.074
26724W        W99792  20.840  37.644   3.177
26725W        W99793  20.203  11.179   3.875
26726W        W99794  10.330   9.866  12.133
26727W        W99795   9.764   9.603   2.338
26728W        W99796  36.831   4.130  10.818
26729W        W99797   2.324  25.253   1.266
26730W        W99798   7.475   9.121  14.000
26731W        W99799   3.876   7.179  11.255
26732W        W99800  39.262  18.754   4.577
26733W        W99801   7.642  29.646  14.948
26734W        W99802  33.241   5.171  10.041
26735W        W99803  42.855   5.228   3.674
26736W        W99804  39.333  44.408  14.742
26737W        W99805  26.516  10.878  13.972
26738W        W99806   7.612   8.184   2.418
26739W        W99807   8.055  26.515  12.413
26740W        W99808  25.520  35.956  10.454
26741W        W99809  23.200   9.177   0.478
26742W        W99810  25.820  22.189   2.970
26743W        W99811   8.721  27.167  11.218
26744W        W99812  10.167  25.533   4.120
26745W        W99813   2.677  39.730  13.395
26746W        W99814   6.977  43.408  10.624
26747W        W99815  16.322  18.313   3.614
26748W        W99816   7.450   1.693  13.404
26749W        W99817  11.508  13.822   1.726
26750W        W99818   7.986  38.224   4.589
26751W        W99819  39.158  26.866   2.854
26752W        W99820  34.874  28.843  13.397
26753W        W99821  22.557  31.224  12.519
26754W        W99822  28.044  36.906   1.248
26755W        W99823  37.561  40.447   3.753
26756W        W99824   2.972  22.982   1.950
26757W        W99825  20.077  44.873  12.879
26758W        W99826  23.121  27.145  12.011
26759W        W99827  21.447   3.856   3.679
26760W        W99828  19.369  26.085  12.458
26761W        W99829  11.026   9.386  10.685
26762W        W99830   2.477  23.122   1.023
26763W        W99831  32.412   5.685  11.183
26764W        W99832  10.639  41.807  13.951
26765W        W99833   0.288  17.226   1.833
26766W        W99834  15.828   6.229   0.447
26767W        W99835  14.706  13.609  10.772
26768W        W99836   4.200  26.463  12.594
26769W        W99837  20.473  34.283   3.161
26770W        W99838  31.181  23.651   0.795
26771W        W99839  22.118  10.239  14.560
26772W        W99840   9.724  20.304   2.769
26773W        W99841  24.408  40.006  10.018
26774W        W99842  29.445  13.318  12.784
26775W        W99843  40.466   6.765  14.505
26776W        W99844   4.314  16.684  14.422
26777W        W99845  21.286  13.481  13.116
26778W        W99846  43.944   1.350  11.734
26779W        W99847  42.336  37.432   2.214
26780W        W99848   1.467  15.781   1.732
26781W        W99849  11.801  32.154  14.683
26782W        W99850  33.555  29.421   1.758
26783W        W99851   3.535  40.148   0.277
26784W        W99852  40.331   5.498   0.657
26785W        W99853  34.038  33.989   3.695
26786W        W99854  13.726  14.503   4.740
26787W        W99855   5.316  31.459   2.857
26788W        W99856   3.862  12.788  11.554
26789W        W99857  20.659   1.669  11.683
26790W        W99858  13.106  23.558  12.186
26791W        W99859  37.977  27.394  11.061
26792W        W99860   5.347  11.921  11.470
26793W        W99861  20.469  44.331  14.456
26794W        W99862  39.224   6.825   3.491
26795W        W99863  43.293  38.435  13.403
26796W        W99864  38.950  27.070  13.693
26797W        W99865  44.372  20.571   4.037
26798W        W99866  19.349  22.835  13.066
26799W        W99867   0.921  29.435   0.497
26800W        W99868  18.100  15.297  13.441
26801W        W99869   2.220  43.280   1.889
26802W        W99870  10.103  34.021   0.001
26803W        W99871  35.481  14.363   1.421
26804W        W99872  44.055  14.129   2.769
26805W        W99873   1.391   5.704   2.626
26806W        W99874  37.781  27.443   0.054
26807W        W99875  34.050  34.954  10.065
26808W        W99876  17.593  33.101  13.512
26809W        W99877   2.957  20.028   1.640
26810W        W99878  12.758  39.919   4.618
26811W        W99879  15.306   8.163   0.283
26812W        W99880  12.717  42.403   4.904
26813W        W99881  13.678  13.590  13.979
26814W        W99882  13.159  31.111  11.125
26815W        W99883  32.205  35.639   5.398
26816W        W99884   4.494  23.614  13.458
26817W        W99885   3.630  10.305   3.289
26818W        W99886   7.114  13.807   0.442
26819W        W99887   2.778   3.838   1.350
26820W        W99888  32.502  12.417  11.198
26821W        W99889   4.717  27.026  13.076
26822W        W99890  14.018  23.644   0.019
26823W        W99891  32.803   9.198  14.512
26824W        W99892  40.547   7.402   4.185
26825W        W99893  15.703  17.134  13.951
26826W        W99894   1.491  24.919  11.679
26827W        W99895  19.942  17.914   4.916
26828W        W99896  14.393   0.734   3.968
26829W        W99897   8.271  15.651  10.603
26830W        W99898  17.756  25.045  11.686
26831W        W99899  28.623   4.231  13.410
26832W        W99900  39.607  21.197  12.269
26833W        W99901  13.314  22.091  13.901
26834W        W99902  30.055   0.798   1.775
26835W        W99903  18.465  22.323  13.315
26836W        W99904   0.634  41.032  10.483
26837W        W99905  16.806   2.347  12.815
26838W        W99906   7.880  15.882   0.741
26839W        W99907  11.064  35.990   0.027
26840W        W99908  43.074  40.379   4.199
26841W        W99909  40.173   8.230  13.300
26842W        W99910  12.169  37.980  14.507
26843W        W99911  25.056  25.453   1.335
26844W        W99912  37.046  14.271   0.746
26845W        W99913  14.900  30.443  12.151
26846W        W99914   2.150  19.559  11.085
26847W        W99915   9.789  30.017   2.445
26848W        W99916  36.403  40.582   5.084
26849W        W99917   3.245  32.866   1.403
26850W        W99918  32.246  32.538   3.690
26851W        W99919   2.227  22.097  14.135
26852W        W99920  20.404  24.713   3.339
26853W        W99921  19.743  31.991   2.799
26854W        W99922  34.410  29.689  13.303
26855W        W99923  12.999   4.762  11.620
26856W        W99924  39.720  11.845  10.660
26857W        W99925  31.452  39.106  14.962
26858W        W99926  11.683   2.307  13.886
26859W        W99927  25.241   6.896  13.038
26860W        W99928  32.129  28.071   3.629
26861W        W99929  30.671  11.103  11.117
26862W        W99930  37.934  12.712  14.488
26863W        W99931  41.071  36.549  11.845
26864W        W99932   7.876  20.451   2.647
26865W        W99933  31.654  19.141  10.707
26866W        W99934  41.896  31.178  13.381
26867W        W99935  44.446  21.005   0.988
26868W        W99936  13.696  26.144   4.052
26869W        W99937  29.767  37.964  11.968
26870W        W99938  10.119  25.270  14.762
26871W        W99939  24.192   4.324  13.484
26872W        W99940  17.036  29.980   2.872
26873W        W99941   1.454  36.909  14.929
26874W        W99942  40.349  19.768   3.358
26875W        W99943  32.944  31.672  13.440
26876W        W99944  31.956  10.240  13.500
26877W        W99945  18.835   1.926  11.986
26878W        W99946  18.759  14.147  14.222
26879W        W99947   7.626   0.233  10.829
26880W        W99948  26.471  30.005   1.142
26881W        W99949  30.356   9.405  13.918
26882W        W99950  29.454   1.478   2.361
26883W        W99951  20.799  23.961   3.816
26884W        W99952  38.523  10.452  12.574
26885W        W99953  43.805  38.259   4.761
26886W        W99954   2.795  21.001   4.170
26887W        W99955   5.718  37.708  12.749
26888W        W99956  36.111  19.334   3.194
26889W        W99957  30.669  39.095   2.190
26890W        W99958   2.274  27.380   0.914
26891W        W99959  39.962  43.194   2.845
26892W        W99960   9.574  43.727  13.326
26893W        W99961  39.525  44.017  12.929
26894W        W99962  35.311  37.337   4.419
26895W        W99963   6.095  27.854   3.713
26896W        W99964  18.601  31.639  10.826
26897W        W99965  14.731  15.270  12.992
26898W        W99966  16.789  16.765  14.313
26899W        W99967  24.299   6.263   4.599
26900W        W99968  13.600   7.218  11.671
26901W        W99969  25.244   4.243  11.411
26902W        W99970  44.316  22.817  12.317
26903W        W99971  15.164  17.640   3.230
26904W        W99972  20.687   0.983   0.248
26905W        W99973  11.405  34.544  12.549
26906W        W99974  41.559  21.145  10.065
26907W        W99975  35.229  17.247   3.202
26908W        W99976  15.746  28.260   5.015
26909W        W99977  11.314  37.177   1.323
26910W        W99978  43.685  14.073   3.681
26911W        W99979   1.350  22.566  14.161
26912W        W99980  38.310  14.791  11.719
26913W        W99981  18.440  21.792  14.091
26914W        W99982  14.445  29.472  14.260
26915W        W99983   4.258  18.687   4.326
26916W        W99984  31.083  36.083   4.263
26917W        W99985  17.031   0.939  14.524
26918W        W99986  36.074   5.672  14.013
26919W        W99987  20.812  27.472  10.901
26920W        W99988  11.837  27.539  14.908
26921W        W99989  14.806   8.984   2.698
26922W        W99990   1.064   1.730   5.031
26923W        W99991  30.645  20.343  14.432
26924W        W99992   2.708  22.668   0.257
26925W        W99993  29.909  41.106   3.686
26926W        W99994  32.438   1.661   0.721
26927W        W99995   3.470  17.307  13.381
26928W        W99996   1.434  39.778  14.466
26929W        W99997  42.297  16.643  10.452
26930W        W99998  16.632  41.158  13.098
26931W        W99999   0.818  20.283  12.103
26932W        W    0  24.316  32.604  12.939
26933W        W    1  23.548  14.245  13.843
26934W        W    2  25.440   5.318   3.664
26935W        W    3  16.993  11.767   4.577
26936W        W    4  40.589  44.251   3.555
26937W        W    5  13.862  38.528   0.272
26938W        W    6  43.027  43.839   0.256
26939W        W    7  23.567  25.382  10.988
26940W        W    8  38.029  39.333  14.278
26941W        W    9  29.482  19.092  14.913
26942W        W   10  41.197  42.823  14.566
26943W        W   11  23.970   1.520   1.301
26944W        W   12  17.630  18.059   4.734
26945W        W   13   3.976  18.223   0.440
26946W        W   14  10.240   6.180   1.274
26947W        W   15   2.879  22.184   1.505
26948W        W   16  21.708   2.449   2.779
26949W        W   17   4.438  25.592  10.713
26950W        W   18  43.399  37.115  13.107
26951W        W   19  18.322  11.402  14.196
26952W        W   20  11.159   0.238  10.703
26953W        W   21   1.131  35.961   1.774
26954W        W   22  28.220   4.307  14.386
26955W        W   23  21.712  23.655   0.032
26956W        W   24  13.347  42.278   3.636
26957W        W   25   0.317  42.021  13.827
26958W        W   26  16.099   0.565   1.852
26959W        W   27  19.160  19.287  14.460
26960W        W   28  12.309  13.244   3.244
26961W        W   29  28.585  34.503   1.350
26962W        W   30  18.795  40.417  12.761
26963W        W   31  41.360   0.329  12.985
26964W        W   32  19.761  20.089  12.484
26965W        W   33   8.205  24.609  10.965
26966W        W   34  35.944  30.154  13.441
26967W        W   35  25.656  21.122   1.314
26968W        W   36  29.420  23.292   4.887
26969W        W   37  25.219  16.325  11.547
26970W        W   38  16.099   1.939  12.352
26971W        W   39  28.995  36.115  13.895
26972W        W   40  11.097  34.634   0.852
26973W        W   41   5.253  10.587  13.883
26974W        W   42  31.398  36.546   3.023
26975W        W   43  38.784  23.658   1.727
26976W        W   44  18.647  21.140  10.603
26977W        W   45   4.485  17.992   4.574
26978W        W   46  38.733  42.736   2.340
26979W        W   47  36.127  38.228   4.254
26980W        W   48  40.164  35.338  12.449
26981W        W   49  30.945  43.303  12.980
26982W        W   50  30.635   1.331  13.396
26983W        W   51   6.336  38.012   4.162
26984W        W   52  12.031  14.817   0.534
26985W        W   53  41.952  40.879   3.574
26986W        W   54   5.906  29.998   1.870
26987W        W   55  43.380  15.078  13.321
26988W        W   56  37.992   2.436   0.308
26989W        W   57  26.668  19.234  13.915
26990W        W   58  17.044   0.891  12.489
26991W        W   59  33.542  19.193  13.543
26992W        W   60   4.614  26.763   1.705
26993W        W   61  15.292  35.872  11.663
26994W        W   62  16.850  39.574   1.916
26995W        W   63  26.017  36.847   3.647
26996W        W   64   1.175  12.731  12.264
26997W        W   65  40.422  15.356   0.432
26998W        W   66  26.495  41.232  11.637
26999W        W   67  16.184   5.664   1.416
27000W        W   68  18.561  26.797   3.533
27001W        W   69  28.471  33.486   0.196
27002W        W   70  33.980  34.993   3.434
27003W        W   71  33.188  28.498   3.705
27004W        W   72  41.355  18.047   2.445
27005W        W   73  38.173  35.388   1.566
27006W        W   74  41.599  37.338   3.759
27007W        W   75  36.035  12.263  12.173
27008W        W   76  43.977   0.005  11.586
27009W        W   77  43.488   4.191  10.648
27010W        W   78   4.013  43.017  12.004
27011W        W   79   6.478  35.521  11.930
27012W        W   80  12.687   6.207   3.457
27013W        W   81  11.267  40.342   2.215
27014W        W   82   9.691  18.178  10.040
27015W        W   83  18.011   2.854   1.900
27016W        W   84  38.023  42.013  11.210
27017W        W   85  38.557  12.382  10.723
27018W        W   86  12.097  28.023   0.788
27019W        W   87  11.805   8.633   2.909
27020W        W   88  19.906  16.071  14.921
27021W        W   89  40.983  22.005   3.193
27022W        W   90   7.784  23.807  13.420
27023W        W   91  36.817  23.260  14.803
27024W        W   92  11.845  22.445  11.285
27025W        W   93  32.633  12.338  12.551
27026W        W   94  16.566  15.805   1.218
27027W        W   95  33.028   4.009  11.538
27028W        W   96  36.997  42.493  14.786
27029W        W   97  32.324  28.475   3.336
27030W        W   98   2.729  31.402  13.073
27031W        W   99   0.162  25.518   4.255
27032W        W  100  25.639   3.488   4.518
27033W        W  101  30.013  42.269  14.186
27034W        W  102  20.259  43.947  12.049
27035W        W  103  35.402  28.674   3.594
27036W        W  104  10.779   2.996   4.679
27037W        W  105  15.774  23.358  11.990
27038W        W  106  37.594  21.245   3.516
27039W        W  107  40.299  11.966   3.233
27040W        W  108  24.000  16.609   4.495
27041W        W  109  42.869  20.697   1.841
27042W        W  110   2.277  38.555  11.573
27043W        W  111  12.649   1.750  10.774
27044W        W  112  27.237  38.796  13.339
27045W        W  113  42.835   2.947  13.440
27046W        W  114   6.174  40.805  12.608
27047W        W  115  18.290  29.028   2.457
27048W        W  116   1.213   9.384  11.186
27049W        W  117  12.073  17.873   4.214
27050W        W  118  13.898   7.338  13.098
27051W        W  119  24.514  21.608  10.506
27052W        W  120  24.125  14.961  12.966
27053W        W  121   9.768   1.559   1.514
27054W        W  122  28.517   3.651   4.598
27055W        W  123   8.262   1.867   3.102
27056W        W  124  40.697  43.555   1.342
27057W        W  125  22.762   0.912  11.031
27058W        W  126   0.767  32.343  12.557
27059W        W  127  19.215   3.018  11.677
27060W        W  128  36.059  21.752  12.940
27061W        W  129  14.680  29.689  10.668
27062W        W  130  30.232  36.392  11.021
27063W        W  131  28.138  14.125  13.280
27064W        W  132  25.493  44.704  10.720
27065W        W  133  32.831  16.820   3.225
27066W        W  134  19.182  40.051   2.691
27067W        W  135  39.938   9.419  12.429
27068W        W  136   2.958   1.074   2.684
27069W        W  137  24.812   2.243  13.194
27070W        W  138  14.647  10.955   3.008
27071W        W  139   1.867  21.550   4.535
27072W        W  140  35.952   4.413   4.088
27073W        W  141  27.479  39.733   3.718
27074W        W  142  36.624   6.993  11.150
27075W        W  143  41.966  20.228  10.785
27076W        W  144   0.902  13.088   2.353
27077W        W  145  28.466  23.853  12.456
27078W        W  146   5.515  14.199   2.565
27079W        W  147   5.483  33.137  10.617
27080W        W  148   2.422  41.502  11.775
27081W        W  149  10.530  30.600   4.778
27082W        W  150  18.078  37.676   2.473
27083W        W  151   1.500  17.067   1.234
27084W        W  152  38.097  33.523   1.835
27085W        W  153  26.523  18.939   1.975
27086W        W  154  24.197  21.761   1.025
27087W        W  155  15.316  12.178   3.986
27088W        W  156  35.175  40.907  12.167
27089W        W  157  31.127  15.369   1.830
27090W        W  158  13.648   9.728  14.526
27091W        W  159  25.579  35.635   0.048
27092W        W  160  29.830  34.155  12.881
27093W        W  161   5.758  32.244  12.533
27094W        W  162   6.009   2.786  12.385
27095W        W  163  37.857  41.788   0.664
27096W        W  164   9.405   8.862   2.739
27097W        W  165  41.270   7.848  11.576
27098W        W  166  33.643  43.379  11.735
27099W        W  167  18.095  10.736  10.572
27100W        W  168   7.872  24.198  10.986
27101W        W  169  15.584   5.159  10.577
27102W        W  170  25.221   6.637   1.310
27103W        W  171   6.001   6.692  12.559
27104W        W  172  31.447  40.797   3.235
27105W        W  173   5.900  40.338  10.656
27106W        W  174  41.275  13.245  12.921
27107W        W  175   7.079  17.580  14.626
27108W        W  176  38.168   8.881  11.159
27109W        W  177  31.593  39.358   0.870
27110W        W  178  28.204  11.227  12.553
27111W        W  179  19.670  40.272   2.807
27112W        W  180  32.550   9.971   2.725
27113W        W  181  14.578  10.837   2.531
27114W        W  182  41.662  42.112   0.004
27115W        W  183  31.621   2.145   4.842
27116W        W  184  36.039  13.229  12.598
27117W        W  185  16.711  33.963   3.066
27118W        W  186  24.107  22.945  12.780
27119W        W  187  35.909  31.227  11.555
27120W        W  188  15.910  25.418   4.717
27121W        W  189   6.365  12.228  11.778
27122W        W  190  19.173  22.139   3.978
27123W        W  191  11.684  40.131  11.846
27124W        W  192  14.790   8.893  12.438
27125W        W  193  22.658   3.275   1.302
27126W        W  194  22.175  17.637   1.168
27127W        W  195   3.707  37.097  11.501
27128W        W  196  10.636  30.852  13.805
27129W        W  197  44.794   7.210  10.640
27130W        W  198   8.294  40.464   2.384
27131W        W  199  16.351   7.466   3.691
27132W        W  200   9.152  35.596   3.151
27133W        W  201  23.575   3.406   3.513
27134W        W  202  26.455  10.206   2.701
27135W        W  203  29.460  25.622  12.199
27136W        W  204  27.423  33.787  10.440
27137W        W  205  22.453  30.171   1.857
27138W        W  206   2.898  18.963  13.827
27139W        W  207  30.975  29.319  11.890
27140W        W  208   0.764   3.718  10.204
27141W        W  209  14.109  13.273   0.898
27142W        W  210  22.055  27.224   0.703
27143W        W  211  42.926  41.423  11.647
27144W        W  212  42.708  18.084  11.558
27145W        W  213   3.438  28.359  12.376
27146W        W  214  33.151   1.408  14.398
27147W        W  215  36.043  31.041  14.463
27148W        W  216  40.296  12.816   1.119
27149W        W  217  44.549   7.268  14.781
27150W        W  218  23.591  42.912  14.593
27151W        W  219   9.710   1.214   1.119
27152W        W  220  39.737  32.968  11.140
27153W        W  221  24.806  35.002   3.608
27154W        W  222  30.716   4.355   1.367
27155W        W  223  44.269  39.808   4.638
27156W        W  224  25.441  43.961  12.808
27157W        W  225  38.210  21.173   2.741
27158W        W  226  22.311   2.880   1.205
27159W        W  227  39.260   7.183   0.417
27160W        W  228  15.068  29.460   4.281
27161W        W  229   8.945  12.909  13.323
27162W        W  230  33.793  14.584   4.644
27163W        W  231  36.880   3.352   1.954
27164W        W  232   9.293  35.987   2.287
27165W        W  233  36.067  25.907   4.488
27166W        W  234  32.618   0.905   3.342
27167W        W  235   0.777  25.305   4.910
27168W        W  236  16.530  15.278   4.651
27169W        W  237  21.065  32.569   1.322
27170W        W  238  43.362  30.801   3.731
27171W        W  239   0.128  15.428  12.133
27172W        W  240  22.455  35.992   3.140
27173W        W  241  18.224   3.803   4.294
27174W        W  242  28.626  12.301  14.331
27175W        W  243  41.378  33.811   0.302
27176W        W  244  39.106  30.136   0.445
27177W        W  245  41.784   2.265  14.994
27178W        W  246  31.172   8.779   4.997
27179W        W  247  24.451  36.423   4.973
27180W        W  248  34.109   9.875   1.852
27181W        W  249  31.642   2.218  12.444
27182W        W  250  35.862   2.317   1.466
27183W        W  251   2.536  42.970   1.146
27184W        W  252  31.102  23.580  13.501
27185W        W  253   8.347  24.176   3.008
27186W        W  254  23.160  20.850  13.415
27187W        W  255  14.600  32.167   4.033
27188W        W  256  30.261  18.187  14.858
27189W        W  257  29.062  34.137   4.808
27190W        W  258  33.581  24.704  12.441
27191W        W  259  12.103  39.852  13.486
27192W        W  260  32.996  28.621  14.765
27193W        W  261  23.355  16.603   5.120
27194W        W  262  13.608   2.744   0.930
27195W        W  263  43.026  15.204   1.443
27196W        W  264  33.832  17.408  13.908
27197W        W  265  36.509  23.644  14.260
27198W        W  266  34.068  10.970   3.245
27199W        W  267  19.593  29.045   4.713
27200W        W  268  31.663  18.048  11.464
27201W        W  269   1.189  41.761   2.356
27202W        W  270  18.761  23.654  14.171
27203W        W  271  35.372  43.116  12.205
27204W        W  272  13.198  11.845   4.949
27205W        W  273   4.980  29.845  14.398
27206W        W  274  25.449  21.161  13.947
27207W        W  275  11.181   2.483  13.088
27208W        W  276  30.598  17.173  11.155
27209W        W  277  19.076  31.212   1.293
27210W        W  278  33.895  23.459  11.573
27211W        W  279  26.847   2.689   2.877
27212W        W  280  14.052   8.040   0.297
27213W        W  281  39.257   1.228   1.237
27214W        W  282  35.396  40.027   1.456
27215W        W  283   0.264  15.167   3.580
27216W        W  284   2.021  16.708   0.687
27217W        W  285  11.012  40.742  10.274
27218W        W  286  22.270  29.121  14.742
27219W        W  287  36.164  37.046   2.432
27220W        W  288  22.218  27.796   1.968
27221W        W  289   9.157  40.978  12.064
27222W        W  290  44.096   3.942  12.998
27223W        W  291  15.595  30.966  12.915
27224W        W  292  26.610  43.254   0.784
27225W        W  293  26.064  30.872   3.325
27226W        W  294  31.394  21.940   4.619
27227W        W  295  13.070  32.110  10.654
27228W        W  296  19.249   5.671  10.609
27229W        W  297  43.747  43.944  11.602
27230W        W  298  33.947  44.809  13.840
27231W        W  299  40.792   1.926   0.484
27232W        W  300   9.236  26.233   2.671
27233W        W  301  43.487  41.969   2.721
27234W        W  302  36.963   4.018   2.200
27235W        W  303  29.019   9.675  13.024
27236W        W  304  41.976  42.076  12.357
27237W        W  305  40.997  15.886  14.896
27238W        W  306  26.335   9.109  11.173
27239W        W  307  35.185  35.437  13.543
27240W        W  308  37.601  38.922   3.968
27241W        W  309  30.405  23.238  10.720
27242W        W  310  29.699  24.021   1.569
27243W        W  311  27.669   3.483  13.964
27244W        W  312  30.592  41.532   1.249
27245W        W  313  40.561   4.707   4.728
27246W        W  314  25.411  19.347   2.710
27247W        W  315  16.686  24.592  12.888
27248W        W  316  32.414  18.584  11.549
27249W        W  317  17.531   0.891  12.342
27250W        W  318   4.896  10.815   1.889
27251W        W  319  23.874   6.060  11.066
27252W        W  320   0.746  38.284   2.084
27253W        W  321  21.574  34.030  14.055
27254W        W  322  24.082  32.616   4.401
27255W        W  323  39.470   1.276  12.135
27256W        W  324  25.066  11.029   3.713
27257W        W  325  42.806   4.600  11.446
27258W        W  326  32.881  42.775  11.578
27259W        W  327   0.444   8.903   3.314
27260W        W  328  18.517  21.482   2.678
27261W        W  329  26.370  42.273   2.396
27262W        W  330  26.920  23.687   2.839
27263W        W  331  42.567  10.207  11.923
27264W        W  332   0.804  28.152  12.562
27265W        W  333  22.153  37.105  11.689
27266W        W  334  15.904  25.520   0.764
27267W        W  335  30.205  10.278   4.241
27268W        W  336  44.291  26.425  11.156
27269W        W  337  40.696  15.115   4.685
27270W        W  338  29.599   1.144   1.099
27271W        W  339  22.201  18.275  12.027
27272W        W  340  22.832  21.703   0.089
27273W        W  341  28.367  44.810   2.957
27274W        W  342   6.235  11.972  12.612
27275W        W  343  27.026   2.257   2.089
27276W        W  344  35.205  12.275   1.473
27277W        W  345   3.504  16.312   4.186
27278W        W  346  22.242   1.930   3.696
27279W        W  347  20.085   8.508   0.674
27280W        W  348  36.588   2.349   1.841
27281W        W  349  26.727  44.459   3.817
27282W        W  350   0.010  28.982   4.563
27283W        W  351  27.268   7.113   0.413
27284W        W  352  31.162  30.802   3.736
27285W        W  353  34.573  42.411   3.295
27286W        W  354  36.171  39.669   1.491
27287W        W  355  27.519  26.255   2.358
27288W        W  356  27.556  26.120  13.893
27289W        W  357  34.845  40.516  12.336
27290W        W  358  27.526  17.856  13.878
27291W        W  359  27.464  42.770   3.509
27292W        W  360  20.641  33.433   1.370
27293W        W  361  39.375  26.673   0.285
27294W        W  362  39.880  16.387   1.651
27295W        W  363   9.820   4.850   4.038
27296W        W  364  38.541  40.954  14.259
27297W        W  365  22.165  11.201  12.920
27298W        W  366  37.538  26.408   2.398
27299W        W  367  35.157  43.867  10.996
27300W        W  368  21.968  26.293  13.074
27301W        W  369   8.416  10.076  12.900
27302W        W  370   6.736  36.982   0.965
27303W        W  371  28.084   0.008  13.881
27304W        W  372  43.727   7.097  13.275
27305W        W  373  18.066  44.465   0.194
27306W        W  374  31.296  26.067  10.608
27307W        W  375  16.167  28.163  14.128
27308W        W  376  33.365  32.384  10.761
27309W        W  377  35.576  44.256  14.343
27310W        W  378  22.654  20.722  10.957
27311W        W  379  37.100  34.596  13.575
27312W        W  380  31.812   1.753  14.942
27313W        W  381  21.631  17.339   2.650
27314W        W  382  34.819  42.516  13.497
27315W        W  383  11.132  44.487  10.106
27316W        W  384  33.602  37.489   0.267
27317W        W  385  40.361  38.260   3.331
27318W        W  386  16.401  17.529  12.663
27319W        W  387  12.147  25.063   0.744
27320W        W  388  15.835  41.325   3.157
27321W        W  389  13.853   0.791   3.213
27322W        W  390  40.284  44.361   2.258
27323W        W  391   3.316   8.392  12.679
27324W        W  392   6.794  39.945   4.338
27325W        W  393  33.136  28.026   1.729
27326W        W  394   4.667  44.229   3.343
27327W        W  395   3.230  16.501   1.274
27328W        W  396  23.482  15.438  12.557
27329W        W  397   5.365  31.702  12.166
27330W        W  398  14.801   3.295   1.342
27331W        W  399  13.723  25.264  13.348
27332W        W  400  44.265  15.604  11.808
27333W        W  401  41.685  18.835  14.351
27334W        W  402  30.120  36.044   3.923
27335W        W  403   6.815  34.396   3.055
27336W        W  404   7.670   9.219   0.949
27337W        W  405  18.318   1.939  12.017
27338W        W  406  18.626  43.889  14.788
27339W        W  407  31.858  38.771   3.255
27340W        W  408   7.175  42.191  14.957
27341W        W  409  41.705   9.429  10.783
27342W        W  410  40.738  23.497   1.928
27343W        W  411  44.945   0.330   2.648
27344W        W  412  40.021  28.022   0.553
27345W        W  413  32.566  17.701  12.389
27346W        W  414  28.533  41.910  13.001
27347W        W  415  18.345  43.950   1.811
27348W        W  416   2.629  22.660   0.778
27349W        W  417  19.591  35.578  10.711
27350W        W  418  18.293  37.386   4.357
27351W        W  419  39.098  29.969  10.760
27352W        W  420  30.092  19.488   2.912
27353W        W  421   0.505  13.648  12.042
27354W        W  422   9.153   7.862   0.012
27355W        W  423   4.292  34.793  12.272
27356W        W  424   6.464  26.900  14.984
27357W        W  425  27.609  17.659  12.396
27358W        W  426   8.945   2.803  13.188
27359W        W  427  18.053  44.114  10.743
27360W        W  428   9.813  25.287  13.833
27361W        W  429  29.959  20.615   2.858
27362W        W  430  33.892  23.748   2.127
27363W        W  431  27.745  39.159  12.862
27364W        W  432  15.722  10.145  11.686
27365W        W  433  42.345  40.331   2.161
27366W        W  434  10.657  44.107  13.765
27367W        W  435  36.405  34.648   3.755
27368W        W  436  39.068  30.142   3.310
27369W        W  437  40.750   1.777  14.073
27370W        W  438  37.426  28.186  13.511
27371W        W  439  30.669  25.570  14.058
27372W        W  440  37.857  11.578   3.301
27373W        W  441   3.420  10.900   4.157
27374W        W  442  40.138  40.780   3.297
27375W        W  443   3.930   5.944  12.472
27376W        W  444  44.775  22.160  14.538
27377W        W  445  35.382  21.425   3.590
27378W        W  446  44.922  29.663  13.857
27379W        W  447   0.990  41.370  11.570
27380W        W  448  36.330  23.575   2.226
27381W        W  449  38.349  41.856   1.993
27382W        W  450  41.111  31.471   1.290
27383W        W  451  15.739  36.563  10.670
27384W        W  452  25.459  17.322   0.860
27385W        W  453  15.207  32.113  13.332
27386W        W  454  32.132  38.655   3.693
27387W        W  455  32.309  42.780   0.457
27388W        W  456  41.268  28.878  12.076
27389W        W  457   8.062  10.827  13.373
27390W        W  458  12.281  10.372   1.487
27391W        W  459  17.730  29.992   3.250
27392W        W  460   8.409   2.901   3.325
27393W        W  461  28.566  21.630   4.922
27394W        W  462  26.391  16.068  11.159
27395W        W  463  23.596   3.476  13.294
27396W        W  464   6.062  31.417   1.758
27397W        W  465  25.204  12.770   4.343
27398W        W  466  12.433  26.872   3.707
27399W        W  467  36.033  20.130  11.117
27400W        W  468  40.503  17.963  12.521
27401W        W  469   9.881   0.410   0.418
27402W        W  470  44.870  21.998   4.448
27403W        W  471   5.037  10.893   4.079
27404W        W  472  35.908  27.183  10.509
27405W        W  473   9.380  35.816   4.587
27406W        W  474  36.375  23.144  11.665
27407W        W  475  18.446   0.441   4.135
27408W        W  476  27.908  38.069   0.216
27409W        W  477  38.632   5.010  10.210
27410W        W  478  41.472  11.462  11.236
27411W        W  479  31.938  35.939  14.840
27412W        W  480  35.490  16.016   2.807
27413W        W  481   0.503  18.534  10.410
27414W        W  482  15.052  36.466  13.486
27415W        W  483  23.753  28.364  11.240
27416W        W  484  27.621  21.714  13.346
27417W        W  485  35.648  17.150  13.402
27418W        W  486  26.991  36.890  12.023
27419W        W  487  11.121  16.648   4.600
27420W        W  488  13.469   1.539  11.613
27421W        W  489   0.094   2.911  11.983
27422W        W  490  20.239  14.910  12.982
27423W        W  491  30.658  40.030  11.956
27424W        W  492  38.997  20.105   4.338
27425W        W  493  25.191  27.998  10.669
27426W        W  494   2.246  43.653  14.883
27427W        W  495  14.240  15.537   0.873
27428W        W  496  40.045  42.532   0.804
27429W        W  497  38.542  24.584   1.357
27430W        W  498  39.419  24.721  14.851
27431W        W  499   5.328  29.475   1.177
27432W        W  500   3.285  23.160   4.693
27433W        W  501   0.468  24.700   0.288
27434W        W  502   2.351  17.848  10.917
27435W        W  503  40.729  39.446   0.668
27436W        W  504  41.013   4.230   3.526
27437W        W  505  23.051  28.275   3.748
27438W        W  506  31.135  24.876  14.307
27439W        W  507  14.290  38.341   0.769
27440W        W  508   7.077  28.456   2.132
27441W        W  509  42.400   8.905  14.575
27442W        W  510   7.330  32.137   4.996
27443W        W  511   0.740  30.025   4.798
27444W        W  512  40.390  26.160  13.456
27445W        W  513  32.311   7.540  14.872
27446W        W  514  30.711   0.005  11.910
27447W        W  515  11.267   0.560  14.936
27448W        W  516  30.201  11.387   0.912
27449W        W  517  24.691  35.874   0.576
27450W        W  518  27.748  19.741   1.806
27451W        W  519  40.512  29.157  14.985
27452W        W  520   5.467  10.826   1.200
27453W        W  521  43.062  38.107   3.036
27454W        W  522  30.365  27.951   4.147
27455W        W  523  43.363   5.941   4.131
27456W        W  524  34.352  22.261   0.575
27457W        W  525  24.223  22.030  12.098
27458W        W  526   2.487  39.498  14.907
27459W        W  527  20.287  14.070   1.872
27460W        W  528  19.166   4.292   3.802
27461W        W  529   2.410  10.799  12.418
27462W        W  530  39.800  28.100   3.268
27463W        W  531  36.747   0.250  12.828
27464W        W  532   4.440   8.846   2.365
27465W        W  533   9.961  21.210  14.843
27466W        W  534  34.049  18.392  12.300
27467W        W  535  14.646  23.183  10.916
27468W        W  536  22.964  43.265   0.549
27469W        W  537  21.204  25.241  14.325
27470W        W  538  25.702  25.937   0.821
27471W        W  539  28.922  41.558  14.780
27472W        W  540  16.126  10.658   1.364
27473W        W  541  14.052  28.669  13.624
27474W        W  542  38.888   5.787   0.498
27475W        W  543  11.841  31.122  14.044
27476W        W  544  17.050  25.480  11.550
27477W        W  545  38.880   5.889  12.694
27478W        W  546  41.294  10.252  10.789
27479W        W  547  24.144   9.658   1.387
27480W        W  548  38.923  13.442   4.883
27481W        W  549  13.192   0.185   2.679
27482W        W  550  18.669  15.357   4.111
27483W        W  551  18.660  28.220   0.690
27484W        W  552  41.329  31.854  13.482
27485W        W  553  22.662  25.749  11.599
27486W        W  554  39.004  41.749  10.753
27487W        W  555  30.364  39.599   4.242
27488W        W  556  34.589   5.798  10.366
27489W        W  557  15.559  16.094  12.463
27490W        W  558  19.429  17.325  12.938
27491W        W  559  24.968  35.232  13.465
27492W        W  560  27.730  34.465  12.166
27493W        W  561  26.433  11.529   2.435
27494W        W  562  42.959  11.441  14.336
27495W        W  563  19.119  16.784   3.898
27496W        W  564   5.899  34.846  11.108
27497W        W  565   6.228  18.099   2.678
27498W        W  566  17.718  33.938   3.361
27499W        W  567  30.862  29.537   0.476
27500W        W  568  44.775  29.144  13.917
27501W        W  569  30.158  40.806  12.360
27502W        W  570  39.420  24.539   1.302
27503W        W  571  21.193  30.906  10.662
27504W        W  572  17.371   7.144   2.161
27505W        W  573   3.980  42.324  13.398
27506W        W  574  10.213  35.816   1.074
27507W        W  575  16.016  32.646   0.409
27508W        W  576  12.325   5.716   4.605
27509W        W  577  31.061   1.609  13.407
27510W        W  578  17.079  21.700   0.773
27511W        W  579  43.199  41.286  10.653
27512W        W  580  12.134  28.200  11.641
27513W        W  581  31.191  14.162   4.692
27514W        W  582  37.175  29.486  12.415
27515W        W  583   7.487   0.710   5.273
27516W        W  584  23.648  21.335   3.386
27517W        W  585   8.407   8.648  13.911
27518W        W  586  37.656  20.649   2.282
27519W        W  587   9.708   6.708  13.813
27520W        W  588  24.394  14.636  14.912
27521W        W  589  20.559  20.010  12.007
27522W        W  590  37.269  43.112   0.741
27523W        W  591  16.065  34.674   0.910
27524W        W  592  42.481   3.877  14.359
27525W        W  593  31.554  44.898  13.832
27526W        W  594  36.429   9.466  12.102
27527W        W  595   7.743  15.140  13.930
27528W        W  596  39.016  41.929   4.289
27529W        W  597  21.961  15.678  10.608
27530W        W  598  39.093  27.127  10.455
27531W        W  599  26.068  23.527  14.549
27532W        W  600   5.338   9.302  12.567
27533W        W  601   1.860  28.525   2.201
27534W        W  602   2.870  24.588   1.142
27535W        W  603  35.899   6.661   3.640
27536W        W  604  21.209  12.464   3.364
27537W        W  605  38.323  32.036   3.287
27538W        W  606   7.282  20.172   4.467
27539W        W  607  18.082  37.304   2.107
27540W        W  608  21.782  25.635  11.579
27541W        W  609  40.530  42.375  12.013
27542W        W  610   4.442  42.033  14.387
27543W        W  611  32.592  21.139   3.816
27544W        W  612  31.553  21.087  12.105
27545W        W  613  26.625   7.766  14.235
27546W        W  614  18.362  39.916  11.406
27547W        W  615  27.558  12.619   5.112
27548W        W  616  28.472   1.992   1.093
27549W        W  617  14.757  33.040   2.211
27550W        W  618  36.209  29.628  13.911
27551W        W  619  34.447  38.779  11.151
27552W        W  620  26.984  37.580  12.949
27553W        W  621  32.057  41.970  14.966
27554W        W  622  42.367  13.603  12.865
27555W        W  623   0.578  20.168   1.344
27556W        W  624   5.731  39.250   3.707
27557W        W  625  23.201  10.228  12.884
27558W        W  626   8.331  31.716  14.346
27559W        W  627  34.863  35.032  14.227
27560W        W  628   0.898  39.079   0.240
27561W        W  629  35.142  14.013   0.872
27562W        W  630  24.047  41.393   5.384
27563W        W  631  28.597   1.142   1.036
27564W        W  632  28.061   4.439  13.903
27565W        W  633  41.616  11.186   4.688
27566W        W  634  28.746  21.611  13.563
27567W        W  635  21.174  21.804   2.643
27568W        W  636   5.024  21.336  10.484
27569W        W  637  42.739  41.879   3.239
27570W        W  638  38.185   6.367  10.726
27571W        W  639  12.125  43.481  14.144
27572W        W  640   8.940  36.411   0.584
27573W        W  641  22.544  13.527   3.122
27574W        W  642  30.418   0.342   2.819
27575W        W  643  25.987   2.335  10.742
27576W        W  644   0.875  18.515  13.524
27577W        W  645  12.838  13.817  13.242
27578W        W  646  28.723  11.476   0.334
27579W        W  647  30.326  41.920   0.429
27580W        W  648  35.240  11.137  11.090
27581W        W  649  42.463  42.247  12.231
27582W        W  650   9.622  16.104   1.457
27583W        W  651  13.418  13.915   2.781
27584W        W  652  24.654  31.571  11.092
27585W        W  653   1.405  10.734   3.864
27586W        W  654  18.586  21.672   2.185
27587W        W  655  32.122  11.571   3.763
27588W        W  656  25.109  19.163   1.210
27589W        W  657  24.027  12.822  13.865
27590W        W  658   8.132  28.657  13.329
27591W        W  659  28.611  13.779  14.588
27592W        W  660  10.430  17.798  12.945
27593W        W  661  20.133   7.164   4.552
27594W        W  662   3.932  16.816  11.954
27595W        W  663  21.211  43.812   1.998
27596W        W  664  22.780  31.995   3.870
27597W        W  665  23.572  38.858   9.919
27598W        W  666   0.646  42.481   9.836
27599W        W  667  25.159  19.386   4.062
27600W        W  668  18.147  40.884  12.292
27601W        W  669  17.140  31.111  13.993
27602W        W  670   5.914  10.706  12.021
27603W        W  671   0.953  24.667   4.554
27604W        W  672   1.951  35.989  14.883
27605W        W  673   0.853  39.365  11.635
27606W        W  674   1.810   6.024  12.508
27607W        W  675   3.191  31.635  11.383
27608W        W  676  34.881  31.211  11.331
27609W        W  677   7.419   6.414   0.449
27610W        W  678   9.581  23.048  13.435
27611W        W  679  41.976  33.482   2.329
27612W        W  680   4.717   0.980   4.057
27613W        W  681  33.522  26.081   4.354
27614W        W  682  22.388  44.577  11.157
27615W        W  683  39.796  16.319  11.199
27616W        W  684  23.012  22.168   1.270
27617W        W  685  13.317  42.910  10.669
27618W        W  686   7.385   0.215  11.326
27619W        W  687  26.971  10.182  11.561
27620W        W  688  12.248  24.061  14.100
27621W        W  689  25.553  29.141   3.278
27622W        W  690   5.010  12.760   0.010
27623W        W  691   8.663  11.577   3.971
27624W        W  692  43.922  26.615  13.565
27625W        W  693   2.222   0.102   3.297
27626W        W  694  20.069   6.873   0.897
27627W        W  695  22.719  18.823   1.267
27628W        W  696   4.501  34.900  13.364
27629W        W  697   0.997  19.593  12.344
27630W        W  698  39.870  16.632   4.741
27631W        W  699  29.484  14.735   3.871
27632W        W  700  40.014  35.060   4.427
27633W        W  701  11.221   7.884   1.941
27634W        W  702   2.508  14.210  14.212
27635W        W  703   0.348  27.505   0.757
27636W        W  704   2.464  11.125   0.876
27637W        W  705  18.890  28.982  11.553
27638W        W  706  29.720  44.539  12.957
27639W        W  707  38.053  27.431  11.988
27640W        W  708  26.737  21.716   1.732
27641W        W  709   3.681  11.234   2.322
27642W        W  710  41.651  30.203   0.504
27643W        W  711  10.165  37.058   2.877
27644W        W  712   3.378   0.324   4.518
27645W        W  713  12.107  37.717  12.115
27646W        W  714   4.175  37.555  11.035
27647W        W  715  30.662  43.591   2.647
27648W        W  716  17.100  13.790  13.107
27649W        W  717   1.427  43.485  12.871
27650W        W  718  10.385  27.514   4.517
27651W        W  719  10.459  32.332  11.824
27652W        W  720   0.997   1.032   4.285
27653W        W  721  18.911  38.565  13.874
27654W        W  722   0.075  24.923  10.688
27655W        W  723  43.508  15.941   0.206
27656W        W  724  29.418  23.704   3.617
27657W        W  725  39.543  28.930  12.334
27658W        W  726  37.869   6.618   1.269
27659W        W  727  28.295  18.447  14.890
27660W        W  728   7.634   3.576   4.686
27661W        W  729   7.146  43.498  14.495
27662W        W  730   4.764   8.271  11.891
27663W        W  731   9.192  32.493   2.248
27664W        W  732  43.763  21.291  11.145
27665W        W  733  34.667   1.009  13.534
27666W        W  734  15.549   2.306  13.211
27667W        W  735  16.398  17.266  13.568
27668W        W  736  21.966  25.260   4.549
27669W        W  737  11.475   6.671  13.445
27670W        W  738  34.620  17.738   4.566
27671W        W  739  14.847  22.097  10.779
27672W        W  740  17.037  18.150  13.867
27673W        W  741   6.440  38.588   2.367
27674W        W  742  26.981  30.191  12.439
27675W        W  743  22.667  22.782   4.941
27676W        W  744  27.417   6.260  13.027
27677W        W  745  39.350  11.098  12.301
27678W        W  746  33.534  14.426  12.236
27679W        W  747   5.862   3.991   4.235
27680W        W  748   1.383  41.202   2.720
27681W        W  749   1.477  34.614   4.901
27682W        W  750  11.773   5.578   1.394
27683W        W  751  35.352   6.761  13.353
27684W        W  752  19.639  27.581   1.805
27685W        W  753  15.841  21.181  13.034
27686W        W  754  17.349  10.163  13.622
27687W        W  755  26.195   8.427  13.629
27688W        W  756  10.749  19.984  14.083
27689W        W  757   3.824  38.993  11.650
27690W        W  758  15.903  29.388   4.569
27691W        W  759  33.942  35.099   1.967
27692W        W  760   6.466  22.758  12.328
27693W        W  761  10.528   7.219   3.705
27694W        W  762  35.911   0.330   2.409
27695W        W  763  32.908   5.490   3.585
27696W        W  764   2.158  18.854   4.741
27697W        W  765  13.864  36.125   4.928
27698W        W  766  35.818  24.143  12.862
27699W        W  767   2.453  44.209  13.907
27700W        W  768  29.434  21.147   3.615
27701W        W  769  28.476   5.687  12.512
27702W        W  770  30.952  22.736  14.966
27703W        W  771   8.125  18.567   2.219
27704W        W  772   5.254  25.599   2.037
27705W        W  773   9.703  42.530  10.617
27706W        W  774  35.331   0.381  11.879
27707W        W  775   3.233  25.125  14.044
27708W        W  776  41.455  11.985   2.700
27709W        W  777   6.011  37.094   4.841
27710W        W  778  14.527  19.937   3.204
27711W        W  779  29.436  34.129   2.260
27712W        W  780   0.010  43.349   4.742
27713W        W  781  19.551   9.774   0.955
27714W        W  782   0.294  22.110   4.705
27715W        W  783  23.071   5.239  11.045
27716W        W  784   5.647  33.280  11.555
27717W        W  785   6.709   7.143  11.095
27718W        W  786  22.640  26.435   0.872
27719W        W  787  21.475  30.176  12.540
27720W        W  788  37.039  12.144  11.610
27721W        W  789   7.754   0.278  11.655
27722W        W  790   8.859  18.500  13.535
27723W        W  791  32.580  32.579   3.192
27724W        W  792   4.897  11.119  13.121
27725W        W  793  42.006   1.928   0.843
27726W        W  794   0.391  14.139  14.818
27727W        W  795  18.585  43.008  12.542
27728W        W  796  43.912  30.958  12.854
27729W        W  797  44.900   9.504   2.477
27730W        W  798  12.759  43.424  14.532
27731W        W  799  20.289   4.226  10.405
27732W        W  800  38.849  10.218   0.180
27733W        W  801  36.484  20.214  13.610
27734W        W  802  19.919  39.133   4.110
27735W        W  803  10.429   8.347   0.954
27736W        W  804   3.186  36.971   2.616
27737W        W  805  31.211  27.555  14.379
27738W        W  806  11.010  32.344   4.707
27739W        W  807   4.735   4.420   2.279
27740W        W  808  31.532  17.846   0.438
27741W        W  809  34.279  11.964  11.968
27742W        W  810  15.172   3.810   0.926
27743W        W  811  34.666  22.886   4.635
27744W        W  812  26.720  43.356  12.986
27745W        W  813  32.551  16.360   2.857
27746W        W  814  23.136  42.968  13.348
27747W        W  815  33.635  24.738   2.008
27748W        W  816  42.509  28.366   3.606
27749W        W  817   8.922  10.345   0.118
27750W        W  818  31.520  26.173  11.976
27751W        W  819  15.248  37.053   4.228
27752W        W  820  40.443  15.210   3.430
27753W        W  821   8.692  16.175  10.693
27754W        W  822   1.444   7.399   3.832
27755W        W  823  24.148   0.286   3.286
27756W        W  824  39.542  37.297  14.529
27757W        W  825  22.474   5.434  11.125
27758W        W  826  18.317  44.307  14.755
27759W        W  827   4.919  37.007   4.377
27760W        W  828  26.012  19.624   4.943
27761W        W  829  11.696  37.300  10.260
27762W        W  830  37.333   6.028  13.523
27763W        W  831   2.696  44.049   2.833
27764W        W  832  33.378  26.096  14.885
27765W        W  833  12.671  18.288   1.814
27766W        W  834  24.138  21.990  13.112
27767W        W  835  33.094  43.974  11.285
27768W        W  836  25.403   9.654   1.717
27769W        W  837   7.893  11.835   0.477
27770W        W  838  44.176  18.568  13.688
27771W        W  839  24.526  37.089  14.021
27772W        W  840  13.734  26.339  13.353
27773W        W  841  29.839   0.705   1.233
27774W        W  842  27.390  15.632   3.487
27775W        W  843  23.712  11.349   1.644
27776W        W  844  26.389  24.122   0.216
27777W        W  845  29.583  35.938  10.221
27778W        W  846   2.883   1.670   0.421
27779W        W  847  27.693  31.422   1.737
27780W        W  848   3.835  21.573  11.036
27781W        W  849   1.000  41.808  12.597
27782W        W  850  11.090  25.206   1.729
27783W        W  851  15.571  19.224  10.685
27784W        W  852  13.836  14.155   5.126
27785W        W  853  28.293  16.069  14.324
27786W        W  854  20.247   2.417  10.653
27787W        W  855  23.898   5.708  10.687
27788W        W  856  41.362   1.514  12.094
27789W        W  857   7.378  23.231  14.995
27790W        W  858  31.126  21.087  13.586
27791W        W  859  32.585  34.567  10.386
27792W        W  860  12.256  16.073  13.723
27793W        W  861  40.486  43.398   3.020
27794W        W  862  13.944  40.213   3.769
27795W        W  863  33.931  13.701   3.747
27796W        W  864  43.743  18.259   2.372
27797W        W  865  34.623  37.627  10.987
27798W        W  866  39.733  16.224   3.156
27799W        W  867  18.246  13.428   4.645
27800W        W  868  13.085  21.845  11.989
27801W        W  869   8.606  33.880  14.803
27802W        W  870  41.703  22.454   2.814
27803W        W  871  10.165  11.179  14.090
27804W        W  872  10.439  27.217   4.036
27805W        W  873  31.042  40.898   2.926
27806W        W  874   2.467  13.772  12.587
27807W        W  875  30.119  28.355  12.992
27808W        W  876  25.657  44.723   3.625
27809W        W  877   0.139  43.565   1.032
27810W        W  878  22.669   4.942  11.160
27811W        W  879  38.806  44.256   3.838
27812W        W  880  35.841  41.428   3.593
27813W        W  881  28.346  12.709  14.518
27814W        W  882  15.346  10.146   1.395
27815W        W  883  18.080  23.177  13.495
27816W        W  884  42.024  26.106  14.790
27817W        W  885   4.952  31.901  14.359
27818W        W  886   7.281  30.044   4.594
27819W        W  887  12.401  14.289  13.531
27820W        W  888  41.553  24.573   4.168
27821W        W  889  42.457  33.966   4.319
27822W        W  890  13.142   5.986   0.884
27823W        W  891   2.031  41.802  11.608
27824W        W  892  18.166  40.000   4.418
27825W        W  893  27.988  11.934  11.211
27826W        W  894  43.146  28.693  14.347
27827W        W  895   8.473  24.010   3.937
27828W        W  896  23.436  40.599   0.858
27829W        W  897  28.419   2.045   2.114
27830W        W  898  23.023  12.742  12.022
27831W        W  899   6.461  28.742  12.050
27832W        W  900   2.568  23.615  12.531
27833W        W  901  29.409   1.861  13.572
27834W        W  902  19.086  36.165   3.748
27835W        W  903  35.444  22.751   3.330
27836W        W  904  42.816   5.752  14.892
27837W        W  905  24.441   4.903  11.610
27838W        W  906  15.405  32.846   3.140
27839W        W  907   9.967   9.908  13.474
27840W        W  908   9.579   1.991   0.712
27841W        W  909   9.210   3.495  11.998
27842W        W  910  44.050  16.232  12.435
27843W        W  911  41.643   4.818   0.474
27844W        W  912  21.793  42.482  13.174
27845W        W  913  37.062  27.796  10.901
27846W        W  914  28.127  32.555  12.440
27847W        W  915  11.851  14.110  10.961
27848W        W  916  19.732  42.979   4.329
27849W        W  917  27.554  21.365  10.353
27850W        W  918  32.872  12.458   2.127
27851W        W  919  23.479   4.269  14.903
27852W        W  920  16.522   1.534  13.431
27853W        W  921  11.590  17.421   3.433
27854W        W  922  43.531   3.375   3.281
27855W        W  923  15.405  30.494   3.245
27856W        W  924  27.524  17.251   0.731
27857W        W  925  18.681   9.312   0.846
27858W        W  926  22.464   6.363   0.714
27859W        W  927   3.486  20.931   1.223
27860W        W  928  20.283  44.960  13.826
27861W        W  929  21.141  29.871   1.174
27862W        W  930   9.164  14.576  12.096
27863W        W  931  35.926  16.057   2.092
27864W        W  932   6.162  39.037  12.806
27865W        W  933  19.184   5.936  14.746
27866W        W  934  43.092   9.708  13.336
27867W        W  935  36.467   3.146  13.923
27868W        W  936   4.111  38.503  11.483
27869W        W  937   4.395  43.830  13.964
27870W        W  938  15.285  26.686  13.958
27871W        W  939  23.257  14.556  13.537
27872W        W  940   8.332  37.141  11.009
27873W        W  941  38.806   4.450  12.111
27874W        W  942  39.905  25.267  14.245
27875W        W  943  15.938  22.692  12.618
27876W        W  944  44.085  27.089   4.295
27877W        W  945  12.771  37.347   0.302
27878W        W  946  42.249  33.640  11.950
27879W        W  947  42.243  28.953   1.941
27880W        W  948  24.650  14.832  14.303
27881W        W  949  21.131  23.733   2.350
27882W        W  950  43.858  32.622  14.969
27883W        W  951  24.447   6.363  12.154
27884W        W  952  20.430  28.305  13.620
27885W        W  953  22.703  36.373   4.343
27886W        W  954  20.148   5.512   3.124
27887W        W  955   1.349  11.963  13.760
27888W        W  956  33.291  41.775  10.238
27889W        W  957  16.562   8.360   1.821
27890W        W  958  26.996  13.362   3.568
27891W        W  959   8.763  43.782  12.276
27892W        W  960  10.605   8.701  12.704
27893W        W  961  29.914   7.825   0.424
27894W        W  962  26.658  32.678  11.558
27895W        W  963  38.557  10.671  13.062
27896W        W  964   1.074  41.059   0.665
27897W        W  965  11.141  31.531  14.987
27898W        W  966  36.918  24.314   0.806
27899W        W  967  29.163  28.394   1.755
27900W        W  968   8.899  43.381  12.622
27901W        W  969   3.939   2.308  10.387
27902W        W  970   6.826  38.598   3.930
27903W        W  971  36.421  41.339   0.894
27904W        W  972  30.403  11.578  12.911
27905W        W  973  20.998  35.458   3.749
27906W        W  974  40.477   1.534   0.362
27907W        W  975   2.538  17.493  11.294
27908W        W  976  18.746  22.885  13.024
27909W        W  977  37.629  14.727  14.878
27910W        W  978   6.720  42.429   0.160
27911W        W  979  16.056  19.437  11.396
27912W        W  980  23.715   4.720  14.780
27913W        W  981   6.806   0.393  13.127
27914W        W  982   9.734  18.379   2.158
27915W        W  983  38.096   2.934   3.879
27916W        W  984  38.900  33.971  12.989
27917W        W  985  36.566  15.291   0.390
27918W        W  986  13.520   7.846   1.364
27919W        W  987  16.007   7.932  12.063
27920W        W  988  30.642  29.450  13.424
27921W        W  989  44.904   3.489   4.653
27922W        W  990  24.526   0.775   2.431
27923W        W  991   7.866   7.670   0.784
27924W        W  992   8.420   7.680  12.056
27925W        W  993  30.942  10.597  13.431
27926W        W  994   5.076  27.753  12.188
27927W        W  995  22.876  44.895   0.456
27928W        W  996  24.651  34.091   2.125
27929W        W  997  24.687  16.575   2.531
27930W        W  998   4.012  32.903  12.986
27931W        W  999  34.267  34.344   1.335
27932W        W 1000  33.040  18.027   0.933
27933W        W 1001  14.797  32.528  13.143
27934W        W 1002   5.207  42.296  12.891
27935W        W 1003  23.172  37.938   2.798
27936W        W 1004  13.222  40.717  12.027
27937W        W 1005  27.972   4.398   3.229
27938W        W 1006   3.429  44.851  10.707
27939W        W 1007  30.127  42.325  13.448
27940W        W 1008   6.791  14.207   1.411
27941W        W 1009   0.568   7.269  11.143
27942W        W 1010  13.836  27.216  11.153
27943W        W 1011  12.285  17.799   2.389
27944W        W 1012  42.834  13.623   1.269
27945W        W 1013  28.065  16.968  12.242
27946W        W 1014  20.056  17.429   5.094
27947W        W 1015   0.050  35.941  11.634
27948W        W 1016  34.576  15.684  14.021
27949W        W 1017  12.739   6.484   4.912
27950W        W 1018  13.221  20.303  13.871
27951W        W 1019  37.821  22.636   1.245
27952W        W 1020  37.599  13.849   1.972
27953W        W 1021   6.837  36.661   4.587
27954W        W 1022  30.473  42.062  10.646
27955W        W 1023   9.740  39.352  13.503
27956W        W 1024  23.577  34.013  10.817
27957W        W 1025  39.895  13.149   4.058
27958W        W 1026  41.820  27.452   1.410
27959W        W 1027   2.984  36.479   4.774
27960W        W 1028   9.677  30.717  11.628
27961W        W 1029  15.412  22.628   0.401
27962W        W 1030  29.294  22.081  11.626
27963W        W 1031   0.652   3.404  14.467
27964W        W 1032  13.113   6.793  10.926
27965W        W 1033   3.802  27.213  14.452
27966W        W 1034  16.222  27.125  13.937
27967W        W 1035  19.249   4.939   1.202
27968W        W 1036   1.074  39.881  11.614
27969W        W 1037  11.278  27.486  14.391
27970W        W 1038  34.585  22.714  13.779
27971W        W 1039   9.635  26.609   1.276
27972W        W 1040  15.648  41.385  14.203
27973W        W 1041  43.514   7.849   1.201
27974W        W 1042  28.188  11.442   4.674
27975W        W 1043   7.716  23.719  11.554
27976W        W 1044  36.335  17.615  13.835
27977W        W 1045  38.686  24.290   3.319
27978W        W 1046  35.277  35.559   4.695
27979W        W 1047  17.510  37.865  12.257
27980W        W 1048  17.843   3.784  12.672
27981W        W 1049  25.029   5.995  13.380
27982W        W 1050  38.517  38.895  11.015
27983W        W 1051   8.670  27.178  13.455
27984W        W 1052  15.673  27.606  14.327
27985W        W 1053  44.991   3.894  12.172
27986W        W 1054  34.614   4.244  13.008
27987W        W 1055  26.518  16.767   4.483
27988W        W 1056  22.292  36.102   0.827
27989W        W 1057  16.119  14.552   4.203
27990W        W 1058  20.972  22.148  10.877
27991W        W 1059  43.289  27.151  11.105
27992W        W 1060   7.091   6.119  12.403
27993W        W 1061  30.567  38.271   1.019
27994W        W 1062  19.736  26.667   3.216
27995W        W 1063  18.579   4.916  10.721
27996W        W 1064  31.537   9.464  13.102
27997W        W 1065  12.676  33.297   0.403
27998W        W 1066  38.344   6.495   3.328
27999W        W 1067  31.624  27.249   3.604
28000W        W 1068  38.742  33.873  12.038
28001W        W 1069  19.631   2.315  11.377
28002W        W 1070  33.879  28.798  13.523
28003W        W 1071  34.603  14.234   3.724
28004W        W 1072  17.074  26.024   1.786
28005W        W 1073  14.170   5.316  14.170
28006W        W 1074  31.954  17.731   3.123
28007W        W 1075  30.689  23.809  11.387
28008W        W 1076   0.704   4.570  13.798
28009W        W 1077  24.776  13.384  12.562
28010W        W 1078  18.679   0.232  11.938
28011W        W 1079  41.039  27.677   1.792
28012W        W 1080  39.523  23.473   2.269
28013W        W 1081   5.764  23.247  13.340
28014W        W 1082  32.950  38.497  14.428
28015W        W 1083  20.393  21.475  10.933
28016W        W 1084  23.119  29.725  13.983
28017W        W 1085  14.845  20.691  11.606
28018W        W 1086  25.500   7.857  13.030
28019W        W 1087  16.044  43.862  12.165
28020W        W 1088   9.427  11.167  12.442
28021W        W 1089  31.156   1.862  11.663
28022W        W 1090   1.368   3.935  13.902
28023W        W 1091  35.445  15.113  14.242
28024W        W 1092  40.696  29.048   2.250
28025W        W 1093   1.533  21.533  10.668
28026W        W 1094  11.694  14.983   2.697
28027W        W 1095  24.537   8.912  10.683
28028W        W 1096  37.539   5.431  13.507
28029W        W 1097  41.898   3.103  14.677
28030W        W 1098  39.331  11.747  12.952
28031W        W 1099  15.792  40.372  12.075
28032W        W 1100  37.471  44.237  10.661
28033W        W 1101   9.826  42.810  11.018
28034W        W 1102  44.031  28.990   2.877
28035W        W 1103  23.561  29.637  10.755
28036W        W 1104  41.948  21.759  14.871
28037W        W 1105   9.962   0.730  13.946
28038W        W 1106  37.354   5.287  12.040
28039W        W 1107   8.288  20.689  13.430
28040W        W 1108  43.811  15.356   0.947
28041W        W 1109  42.947   0.544   1.354
28042W        W 1110  30.442  30.922   0.347
28043W        W 1111   3.170   8.720   5.365
28044W        W 1112  41.091  15.119  11.590
28045W        W 1113  29.111  35.445   1.816
28046W        W 1114  33.098  41.274   3.895
28047W        W 1115   9.032   7.179  13.274
28048W        W 1116   4.708   3.904   2.319
28049W        W 1117  19.744   1.462  11.859
28050W        W 1118  30.229   2.776  11.965
28051W        W 1119  15.993  44.951   3.898
28052W        W 1120   2.674   3.302  11.450
28053W        W 1121  29.397  22.659   2.301
28054W        W 1122   2.720   3.516   0.838
28055W        W 1123   7.211  41.693  13.513
28056W        W 1124   4.805  14.595   2.254
28057W        W 1125  29.505   6.646   1.693
28058W        W 1126  40.713  25.085   0.527
28059W        W 1127  44.279  31.732  11.978
28060W        W 1128  36.391  15.797   0.424
28061W        W 1129  25.617   1.564  10.754
28062W        W 1130   0.385  42.757   2.992
28063W        W 1131  18.835  13.181   3.740
28064W        W 1132  35.810  24.055  14.012
28065W        W 1133  17.827  26.433  12.622
28066W        W 1134   8.677  41.979  12.543
28067W        W 1135  13.175  19.512   2.800
28068W        W 1136  23.975  32.626   1.373
28069W        W 1137   2.955   9.695   0.707
28070W        W 1138  28.003   1.508   3.103
28071W        W 1139  35.880  35.101   3.909
28072W        W 1140   3.772  27.111   3.341
28073W        W 1141   5.162  30.637   0.918
28074W        W 1142  39.354  37.881  10.508
28075W        W 1143  39.155  39.495   4.553
28076W        W 1144  12.252  28.406   2.105
28077W        W 1145   4.176  40.070  11.264
28078W        W 1146  13.143   4.906  12.866
28079W        W 1147  40.939  33.842   0.977
28080W        W 1148  19.907  35.167  10.797
28081W        W 1149  27.798  28.222   4.162
28082W        W 1150  15.272  34.179  14.395
28083W        W 1151  21.536  11.336  14.099
28084W        W 1152   7.872   0.780  11.697
28085W        W 1153   8.881   6.112   1.781
28086W        W 1154  31.939  13.052  10.690
28087W        W 1155  25.111  16.219   3.611
28088W        W 1156  36.318  37.533  14.601
28089W        W 1157   9.318  22.771   1.934
28090W        W 1158  32.454  11.353   1.721
28091W        W 1159  18.227  36.637  14.527
28092W        W 1160  22.795   3.465   4.628
28093W        W 1161  15.067  29.946   1.323
28094W        W 1162  40.018  14.268  14.656
28095W        W 1163  37.989   9.293  13.059
28096W        W 1164  44.814  12.330   1.329
28097W        W 1165   6.417  34.222  13.408
28098W        W 1166  22.512   2.223   2.360
28099W        W 1167  22.796  13.346  12.371
28100W        W 1168   4.873  43.091   4.931
28101W        W 1169  22.675   2.534   1.628
28102W        W 1170   7.405   3.267   0.435
28103W        W 1171  25.292  43.979  14.027
28104W        W 1172  28.560  13.685  11.166
28105W        W 1173  44.541  36.465   3.754
28106W        W 1174  24.147   3.674   0.179
28107W        W 1175  18.205   0.164   3.744
28108W        W 1176   5.945  23.227   2.203
28109W        W 1177  27.090  34.145   4.327
28110W        W 1178  33.598  26.793   0.805
28111W        W 1179  22.139  34.399   1.884
28112W        W 1180  34.638  24.066  11.550
28113W        W 1181  33.444  34.916  13.412
28114W        W 1182  40.438  20.277   0.811
28115W        W 1183  29.086  13.202   0.406
28116W        W 1184  17.280  15.544   4.114
28117W        W 1185  37.165  25.731   2.653
28118W        W 1186  35.569  31.721  11.506
28119W        W 1187  18.618   0.802  14.353
28120W        W 1188  43.392  20.776  14.710
28121W        W 1189   7.958  32.110   3.254
28122W        W 1190  26.192  22.471   2.707
28123W        W 1191  44.872  13.828  13.911
28124W        W 1192  26.612  28.606  14.105
28125W        W 1193  12.764  10.312   2.243
28126W        W 1194  26.687  37.509  12.535
28127W        W 1195  28.653  24.808   1.393
28128W        W 1196   1.822  13.659  14.039
28129W        W 1197  30.421  13.603  12.562
28130W        W 1198  33.552   3.840  13.361
28131W        W 1199   7.817  29.326  10.023
28132W        W 1200  42.476  41.884   1.353
28133W        W 1201  33.582  18.317   0.831
28134W        W 1202  22.752  28.924  14.423
28135W        W 1203  30.906   8.965   2.662
28136W        W 1204  42.951  39.780  13.904
28137W        W 1205  32.929  13.996   1.801
28138W        W 1206  32.635  17.935   1.295
28139W        W 1207  15.110  37.823   0.429
28140W        W 1208  12.439  37.349   4.597
28141W        W 1209  41.753  37.836  14.051
28142W        W 1210  13.729  39.885   1.388
28143W        W 1211  25.109  30.668  14.805
28144W        W 1212   5.199  24.212   3.780
28145W        W 1213  33.341  24.436   5.156
28146W        W 1214  21.182  23.746  14.378
28147W        W 1215  29.684   4.206   2.916
28148W        W 1216  42.040   7.023  11.159
28149W        W 1217  35.348  26.184   4.456
28150W        W 1218  27.334   4.333   1.670
28151W        W 1219  19.550  11.682   1.800
28152W        W 1220  33.943  33.749  11.801
28153W        W 1221  11.188  13.052   2.352
28154W        W 1222  43.261  43.782   4.906
28155W        W 1223  39.254  37.337   2.278
28156W        W 1224  20.784  34.058  11.489
28157W        W 1225  34.594  17.767  12.898
28158W        W 1226   7.300  39.473   0.151
28159W        W 1227   3.931  31.582  11.202
28160W        W 1228   1.743  35.005   5.089
28161W        W 1229  41.866  43.910  13.809
28162W        W 1230   5.136  36.887  11.530
28163W        W 1231   8.140  13.746   3.439
28164W        W 1232   6.855   6.930  11.545
28165W        W 1233  42.354   0.876   1.875
28166W        W 1234  13.365  13.839  11.509
28167W        W 1235   7.348  19.493  10.536
28168W        W 1236  39.588  27.532   2.199
28169W        W 1237  11.700  37.792  12.531
28170W        W 1238   3.426  11.806  10.900
28171W        W 1239  42.928  29.441   1.578
28172W        W 1240  26.933  38.402  13.469
28173W        W 1241  39.586  22.320   3.142
28174W        W 1242  28.223  17.743   0.766
28175W        W 1243  21.692   1.487  10.437
28176W        W 1244  29.490  28.845  14.533
28177W        W 1245   6.408  31.456   1.271
28178W        W 1246   0.365  15.616  13.085
28179W        W 1247  38.951   3.980   3.661
28180W        W 1248  11.045  39.800  11.206
28181W        W 1249   1.866  32.861   2.467
28182W        W 1250  14.175  25.271   4.781
28183W        W 1251  15.460  42.056   4.020
28184W        W 1252  21.072  41.081   4.211
28185W        W 1253  44.243  16.997   3.645
28186W        W 1254  44.084  20.227   1.343
28187W        W 1255  10.653  20.590  11.675
28188W        W 1256  29.595  30.579  13.202
28189W        W 1257  25.456   7.273  14.947
28190W        W 1258  23.087   3.518  12.531
28191W        W 1259  41.396   7.827   4.086
28192W        W 1260  38.910   4.173  13.157
28193W        W 1261  39.145  40.800  12.985
28194W        W 1262  44.743  26.143   1.388
28195W        W 1263  42.003  43.929   1.200
28196W        W 1264   7.595  37.753   0.272
28197W        W 1265   6.071  37.614   0.358
28198W        W 1266  32.468   0.324   2.174
28199W        W 1267  30.073  11.154   4.101
28200W        W 1268  32.164  31.483   3.244
28201W        W 1269  23.845  24.093  12.399
28202W        W 1270  38.131   5.449  12.403
28203W        W 1271  19.499   5.336   2.292
28204W        W 1272  33.132   3.894  12.138
28205W        W 1273  44.836  37.965   0.966
28206W        W 1274  33.010  34.150   0.338
28207W        W 1275  14.067   2.945  11.118
28208W        W 1276  28.737  36.365   4.790
28209W        W 1277  29.509  24.700  12.316
28210W        W 1278   5.791  35.600  12.483
28211W        W 1279  16.638  41.833  14.134
28212W        W 1280  21.700  20.993   0.792
28213W        W 1281  29.803  19.829  12.749
28214W        W 1282   2.438   9.702   0.015
28215W        W 1283  11.862   0.933  12.341
28216W        W 1284  30.448  21.737  12.023
28217W        W 1285  29.478  35.394  10.867
28218W        W 1286  38.843   3.121  14.570
28219W        W 1287  11.904  31.091  11.644
28220W        W 1288  12.247  16.369   5.015
28221W        W 1289  34.925  21.883  14.337
28222W        W 1290  27.939  43.995  14.328
28223W        W 1291   1.660   3.364   2.772
28224W        W 1292  36.391  14.296   2.369
28225W        W 1293   5.658  22.129   3.888
28226W        W 1294  15.935  24.693  11.100
28227W        W 1295  32.144  33.397  12.931
28228W        W 1296  22.747  13.716  13.312
28229W        W 1297  33.351   8.958  11.597
28230W        W 1298  39.319  27.045  14.072
28231W        W 1299   6.923  44.340   0.437
28232W        W 1300  23.000  41.563   4.037
28233W        W 1301  41.940  44.542   0.088
28234W        W 1302   2.089  17.229  13.079
28235W        W 1303  11.646  13.550  12.143
28236W        W 1304   4.680   8.220  10.981
28237W        W 1305  40.284  17.270   4.529
28238W        W 1306   1.128  12.843   1.592
28239W        W 1307  20.809   9.638   2.270
28240W        W 1308   1.715  35.050  13.425
28241W        W 1309  27.402   1.933  14.110
28242W        W 1310  20.721   3.792   2.147
28243W        W 1311   0.709  36.191  10.175
28244W        W 1312  14.605  18.595  14.831
28245W        W 1313  17.295  23.688  12.047
28246W        W 1314   2.945  44.966   4.541
28247W        W 1315   8.981  39.047  14.604
28248W        W 1316   4.351  41.523  13.406
28249W        W 1317  22.408   1.715  12.156
28250W        W 1318  17.933  28.370   2.832
28251W        W 1319   4.713   9.410  13.905
28252W        W 1320  17.644   4.440  10.486
28253W        W 1321   4.096  37.178   5.066
28254W        W 1322  44.287  34.308  10.698
28255W        W 1323  32.154   7.615   4.603
28256W        W 1324  23.476  38.578   4.126
28257W        W 1325   6.773  15.499   2.235
28258W        W 1326  22.641  24.408  13.347
28259W        W 1327  43.324   4.163   2.827
28260W        W 1328  17.168  14.822   3.649
28261W        W 1329  30.130   6.171  11.097
28262W        W 1330   2.515   0.247  10.938
28263W        W 1331  23.098   8.870   1.359
28264W        W 1332  37.554   8.265   2.348
28265W        W 1333   9.692  38.922   3.725
28266W        W 1334  15.263  31.128   2.199
28267W        W 1335  10.812  18.006  13.210
28268W        W 1336  31.047   5.726  12.851
28269W        W 1337  17.305  16.199  14.148
28270W        W 1338   5.253   2.511  14.444
28271W        W 1339  35.671  41.563  14.086
28272W        W 1340  17.746  29.441   2.278
28273W        W 1341  31.542  41.986   0.142
28274W        W 1342   9.846  40.537  11.527
28275W        W 1343  26.895  21.685  14.968
28276W        W 1344  18.834  42.927   4.810
28277W        W 1345   1.243  34.504   0.821
28278W        W 1346   1.453  14.304   2.600
28279W        W 1347   7.951  42.564   2.331
28280W        W 1348  12.762   0.253   3.362
28281W        W 1349  17.313  21.879  10.339
28282W        W 1350  12.880  32.414  13.292
28283W        W 1351  10.245   9.662  13.105
28284W        W 1352  40.451  29.655  12.440
28285W        W 1353  22.271  26.059   4.722
28286W        W 1354  36.422  32.348  13.302
28287W        W 1355  13.517  12.580   1.892
28288W        W 1356  15.126  17.806  13.527
28289W        W 1357   4.188   1.939  12.053
28290W        W 1358  20.972  17.611   1.790
28291W        W 1359  34.551  40.775  11.436
28292W        W 1360  34.379  24.190   1.506
28293W        W 1361  40.327  21.666  14.313
28294W        W 1362   6.971  23.728  11.122
28295W        W 1363  11.076  30.197  14.945
28296W        W 1364  14.989  32.139  12.858
28297W        W 1365  28.468   8.153   0.818
28298W        W 1366  12.369  23.883   0.444
28299W        W 1367  38.349   3.168  10.804
28300W        W 1368  32.500  35.078   2.267
28301W        W 1369  23.050  16.691   1.025
28302W        W 1370  41.569  14.658   2.176
28303W        W 1371  10.151  31.672   0.577
28304W        W 1372   6.895   9.170  11.668
28305W        W 1373  34.970   9.415   3.222
28306W        W 1374  29.020  32.567  14.268
28307W        W 1375  38.356   6.127   3.677
28308W        W 1376  28.560   6.119   2.101
28309W        W 1377  23.908  29.067   0.777
28310W        W 1378  17.194  20.863   1.875
28311W        W 1379  26.217  13.828   1.444
28312W        W 1380  42.118  41.301  12.079
28313W        W 1381  31.961  38.491  10.798
28314W        W 1382  15.102  33.366  10.994
28315W        W 1383  30.487  38.881  11.512
28316W        W 1384   3.801  20.229  13.702
28317W        W 1385  27.207  28.524   2.757
28318W        W 1386   9.740  24.054   1.580
28319W        W 1387  38.912  43.730   2.316
28320W        W 1388  33.107  29.598   0.782
28321W        W 1389   1.757   9.276   1.335
28322W        W 1390  25.036  12.234   2.141
28323W        W 1391  32.575  29.687   5.070
28324W        W 1392  29.083   9.850   3.076
28325W        W 1393   9.197   2.122  11.799
28326W        W 1394  43.096  24.577   3.164
28327W        W 1395  20.334  33.448   0.248
28328W        W 1396  10.790  10.195   3.276
28329W        W 1397  25.450  34.425   1.479
28330W        W 1398  13.427  17.274   2.784
28331W        W 1399  44.710  27.582  12.612
28332W        W 1400  23.750  21.787  12.844
28333W        W 1401  37.423  24.132   1.873
28334W        W 1402  44.013   8.530   2.735
28335W        W 1403  25.964  25.698   2.686
28336W        W 1404  24.548  44.920  13.079
28337W        W 1405  26.711  12.200  12.463
28338W        W 1406  16.178  23.708   1.302
28339W        W 1407  11.380  32.164  11.557
28340W        W 1408  19.342  12.770  11.186
28341W        W 1409  19.021   3.821   2.735
28342W        W 1410  20.775  38.061  11.912
28343W        W 1411  31.397  28.037   4.163
28344W        W 1412  27.289   9.613   4.128
28345W        W 1413  35.204  29.081  14.779
28346W        W 1414  12.661  40.458   0.718
28347W        W 1415  21.564  25.652  14.270
28348W        W 1416  36.382  40.731   2.482
28349W        W 1417  21.199  23.000  11.000
28350W        W 1418  38.709  29.440   1.278
28351W        W 1419  14.888  28.535  12.496
28352W        W 1420   1.121  13.202  13.634
28353W        W 1421  40.858  40.323  10.698
28354W        W 1422  35.584  19.815  11.005
28355W        W 1423  40.874   0.916  11.531
28356W        W 1424   9.237  44.486   1.707
28357W        W 1425  13.030  41.430   0.939
28358W        W 1426   4.223  23.961   4.632
28359W        W 1427  24.434  22.708  11.558
28360W        W 1428   5.762   7.341   2.639
28361W        W 1429  36.560  39.562  13.941
28362W        W 1430  23.918  16.855  14.206
28363W        W 1431  28.882   0.641  11.552
28364W        W 1432  16.754  33.246  11.713
28365W        W 1433  28.798  31.075   4.180
28366W        W 1434  28.963  24.534  11.975
28367W        W 1435  36.873  21.601   0.797
28368W        W 1436  28.935   6.436   4.201
28369W        W 1437  38.281  28.599  13.041
28370W        W 1438  18.264  10.384   3.274
28371W        W 1439  43.303  18.612  11.460
28372W        W 1440  41.363  23.478  11.031
28373W        W 1441  32.635   0.287   4.612
28374W        W 1442  26.948  37.401  10.787
28375W        W 1443  27.258  41.947   0.830
28376W        W 1444  37.721  36.332   4.558
28377W        W 1445  26.653  18.605   0.719
28378W        W 1446  19.001  29.466  12.107
28379W        W 1447  27.919   8.373  12.570
28380W        W 1448  19.789  10.919   3.462
28381W        W 1449  39.175  25.241   3.742
28382W        W 1450  32.663   5.808   1.197
28383W        W 1451  39.834  23.515  13.633
28384W        W 1452  17.620  44.771   4.633
28385W        W 1453  33.999  40.267   3.604
28386W        W 1454  43.359  14.542  14.753
28387W        W 1455  32.548  43.527   3.138
28388W        W 1456   3.044  26.024  11.272
28389W        W 1457  11.893  20.505   4.045
28390W        W 1458   8.747  24.522   4.624
28391W        W 1459  33.463   1.970   4.899
28392W        W 1460   9.179  31.721  12.510
28393W        W 1461  17.731  24.216   0.788
28394W        W 1462  30.203   7.729  11.065
28395W        W 1463  25.652  12.318  10.057
28396W        W 1464  33.610   5.847  10.727
28397W        W 1465  24.887  28.057  13.003
28398W        W 1466  27.579  21.471  10.855
28399W        W 1467   8.691  38.085  13.981
28400W        W 1468  23.273  40.930  14.001
28401W        W 1469  18.866  34.416   0.719
28402W        W 1470   1.258  43.243  11.552
28403W        W 1471  12.269   6.425  13.920
28404W        W 1472  37.115  33.529   3.698
28405W        W 1473  12.220   6.770  14.894
28406W        W 1474  15.090   6.512   2.606
28407W        W 1475  31.846  11.311   0.212
28408W        W 1476   5.629  25.607   3.575
28409W        W 1477   4.099   4.227  12.002
28410W        W 1478  42.727   8.323   2.317
28411W        W 1479  12.408  10.996   4.731
28412W        W 1480  38.484   7.017   2.104
28413W        W 1481  31.178  36.983   3.150
28414W        W 1482  14.848   6.325   4.900
28415W        W 1483  43.427  32.837  10.604
28416W        W 1484  42.715   6.403   0.920
28417W        W 1485  31.055  20.517  12.908
28418W        W 1486  20.208  34.509  11.837
28419W        W 1487  44.541  37.024  13.867
28420W        W 1488  40.218  41.481   3.720
28421W        W 1489  23.810  18.818  12.374
28422W        W 1490  22.745  29.951  12.991
28423W        W 1491  35.744  31.839   0.980
28424W        W 1492  26.395   3.930  14.053
28425W        W 1493   7.278  19.647   1.437
28426W        W 1494  31.902   7.822  11.542
28427W        W 1495  40.929   7.918   9.754
28428W        W 1496  23.324  12.733   2.208
28429W        W 1497  38.679  34.080  10.515
28430W        W 1498  25.463  41.803  12.329
28431W        W 1499  31.955  22.515  13.039
28432W        W 1500   4.244  18.510   2.808
28433W        W 1501  25.459   5.786  11.608
28434W        W 1502  27.962   1.324   4.034
28435W        W 1503  20.903  10.269  10.362
28436W        W 1504  15.999  18.043   2.259
28437W        W 1505  17.609  36.597  14.964
28438W        W 1506  12.963  35.145   2.883
28439W        W 1507   9.140  20.241  13.819
28440W        W 1508  16.379  13.703   2.966
28441W        W 1509  19.135  32.857  10.591
28442W        W 1510  41.951  18.385  14.375
28443W        W 1511   9.846   2.905   0.909
28444W        W 1512  13.220  14.122  13.058
28445W        W 1513  38.501  28.074   1.347
28446W        W 1514  10.285  25.519   2.749
28447W        W 1515  19.732  19.025   2.107
28448W        W 1516  11.042  11.257   0.980
28449W        W 1517  17.226  43.358  12.972
28450W        W 1518   9.267  39.091   0.037
28451W        W 1519   1.845  16.305   3.350
28452W        W 1520  35.516  30.780   1.774
28453W        W 1521  22.670  19.024   3.226
28454W        W 1522  41.374  10.730   4.668
28455W        W 1523   0.573  41.358  14.894
28456W        W 1524  26.207  10.921   0.399
28457W        W 1525  14.706  42.287   2.218
28458W        W 1526  38.094  31.126   5.638
28459W        W 1527  34.002  41.339   2.313
28460W        W 1528  39.329  28.160  11.081
28461W        W 1529  37.780  36.332   3.673
28462W        W 1530  22.054  31.149   4.171
28463W        W 1531  21.339   5.026   3.221
28464W        W 1532  39.821   1.824   2.188
28465W        W 1533  29.472  16.978  13.761
28466W        W 1534  30.881  23.276   1.285
28467W        W 1535  40.141  17.025  13.426
28468W        W 1536  15.057  12.173  12.188
28469W        W 1537  13.122   5.925  13.931
28470W        W 1538  13.749  11.840  14.150
28471W        W 1539   9.692  29.781  11.472
28472W        W 1540  18.725   6.294   3.029
28473W        W 1541  13.853   3.631  11.654
28474W        W 1542  43.804  30.354   4.617
28475W        W 1543  34.450  17.291  11.961
28476W        W 1544  29.064   4.750  14.979
28477W        W 1545  42.355  30.412  10.765
28478W        W 1546  27.623  43.144  13.091
28479W        W 1547  40.579   1.981  11.642
28480W        W 1548  32.598  41.625  12.262
28481W        W 1549  13.611  39.020  11.860
28482W        W 1550  26.993  18.547  11.582
28483W        W 1551  41.522   2.526  12.185
28484W        W 1552  13.108  36.181  12.961
28485W        W 1553  36.986   1.397  11.552
28486W        W 1554  40.607  14.205  13.084
28487W        W 1555  41.452  40.089   2.346
28488W        W 1556   8.753   0.468   4.972
28489W        W 1557  35.809  27.907   2.332
28490W        W 1558  32.433  44.750  14.898
28491W        W 1559  17.077  19.475  12.381
28492W        W 1560  21.662  16.933  12.729
28493W        W 1561  28.824  20.033  11.004
28494W        W 1562  22.982  11.763   0.695
28495W        W 1563  30.906  17.156  11.579
28496W        W 1564  12.091   1.820  12.795
28497W        W 1565   1.437  15.061   0.963
28498W        W 1566  31.214  40.516   0.437
28499W        W 1567  16.140  32.652   3.563
28500W        W 1568  14.054  33.076   0.394
28501W        W 1569  41.720  11.375   1.315
28502W        W 1570  31.468  14.913  11.609
28503W        W 1571   6.868  17.034  13.935
28504W        W 1572   7.223  41.978   5.039
28505W        W 1573  12.302  19.100  11.900
28506W        W 1574  10.131  30.011  11.469
28507W        W 1575  14.162  27.452   2.142
28508W        W 1576   4.507  33.043   1.811
28509W        W 1577   7.783  15.119  12.564
28510W        W 1578  16.210  28.450  12.852
28511W        W 1579  11.866  24.324   2.633
28512W        W 1580  13.603  36.345   3.215
28513W        W 1581  33.570  12.700   1.005
28514W        W 1582  41.251   8.248   2.317
28515W        W 1583   7.730  12.861   2.096
28516W        W 1584  17.079  44.924   1.880
28517W        W 1585  27.500   3.871  11.425
28518W        W 1586   3.972  15.089  12.521
28519W        W 1587  15.623  21.610  10.466
28520W        W 1588  38.771  18.912  11.451
28521W        W 1589  28.282  22.122   3.651
28522W        W 1590   1.715   8.665  10.660
28523W        W 1591  15.379   9.903   2.687
28524W        W 1592  34.384   1.854   1.479
28525W        W 1593   3.318  15.978  13.808
28526W        W 1594   0.397  32.429   4.551
28527W        W 1595  38.632  17.726  11.499
28528W        W 1596  44.364  37.507  13.040
28529W        W 1597   8.340  18.256  13.479
28530W        W 1598  20.534   9.896   4.033
28531W        W 1599  18.298  14.899   2.217
28532W        W 1600  36.464   7.991   2.802
28533W        W 1601  40.101  26.598  11.006
28534W        W 1602  18.724  19.953  12.022
28535W        W 1603  38.555  19.974  13.469
28536W        W 1604  41.475  26.869   1.229
28537W        W 1605  24.501  25.998  12.037
28538W        W 1606  12.181  15.346  14.410
28539W        W 1607  32.140  34.960   2.657
28540W        W 1608   4.704  33.520  12.087
28541W        W 1609  39.972  17.733  10.355
28542W        W 1610   0.486   7.381  13.844
28543W        W 1611  25.697  36.506  13.774
28544W        W 1612  37.781   6.592   4.049
28545W        W 1613  23.545  35.065  13.314
28546W        W 1614  10.727  44.467   1.866
28547W        W 1615   6.499  37.260  12.489
28548W        W 1616   8.852  19.270   1.330
28549W        W 1617   1.014   1.386   4.651
28550W        W 1618   2.383  39.116   4.180
28551W        W 1619  22.540  18.503   2.837
28552W        W 1620  37.516  22.001   0.877
28553W        W 1621  13.026   2.374   4.276
28554W        W 1622  22.115  34.681   0.557
28555W        W 1623   5.182  18.520   4.415
28556W        W 1624  38.944  30.396   2.809
28557W        W 1625  31.148  40.859  13.504
28558W        W 1626  28.782  43.836   4.736
28559W        W 1627  38.255  40.644  12.914
28560W        W 1628   7.950  27.444   2.557
28561W        W 1629   7.221   3.856  12.607
28562W        W 1630  13.609  38.273   3.707
28563W        W 1631  39.414   0.569   3.212
28564W        W 1632  24.027  24.430  14.547
28565W        W 1633   4.394  18.242  10.804
28566W        W 1634  44.790  15.901  12.845
28567W        W 1635   4.290   6.327   0.820
28568W        W 1636  41.549  28.825   3.775
28569W        W 1637  36.610  39.996   3.799
28570W        W 1638  30.044  35.154   3.784
28571W        W 1639  12.601  39.330   1.855
28572W        W 1640  15.591   4.267  10.419
28573W        W 1641  16.269  27.705   3.072
28574W        W 1642  44.266  40.451  13.628
28575W        W 1643  11.305  43.466  14.581
28576W        W 1644  17.073  16.083   1.737
28577W        W 1645  28.572  39.795  12.653
28578W        W 1646  41.430   8.799   4.228
28579W        W 1647  34.617   4.318   2.257
28580W        W 1648  37.714  31.634   3.711
28581W        W 1649  12.641   8.310   2.894
28582W        W 1650  12.462   5.581  11.006
28583W        W 1651  12.879  16.855  11.187
28584W        W 1652  30.385  35.516   0.011
28585W        W 1653  42.357  18.998   0.885
28586W        W 1654  43.164  35.984   3.272
28587W        W 1655  44.076  25.953  14.989
28588W        W 1656  13.309  14.934   2.455
28589W        W 1657  33.626  17.544   0.272
28590W        W 1658  27.204  25.302  10.508
28591W        W 1659  17.473  30.733   4.748
28592W        W 1660   9.445  41.752  14.315
28593W        W 1661  13.069  10.355   0.825
28594W        W 1662  41.246  25.249   1.879
28595W        W 1663  27.584   3.420  14.878
28596W        W 1664  31.918  38.977  10.641
28597W        W 1665  19.062  26.528  11.637
28598W        W 1666  16.331  36.581  12.374
28599W        W 1667   7.156  23.476   1.301
28600W        W 1668  10.853  28.329  12.206
28601W        W 1669  12.134  44.321   1.746
28602W        W 1670  25.267  16.137   2.680
28603W        W 1671  25.394   1.435   4.688
28604W        W 1672  30.793  29.532   3.574
28605W        W 1673   3.472  33.421  10.423
28606W        W 1674   1.057  38.887  12.510
28607W        W 1675  29.481   5.430  12.512
28608W        W 1676  43.459   2.462  14.557
28609W        W 1677   2.749  37.004   0.470
28610W        W 1678   3.135   7.638  13.721
28611W        W 1679   6.704   9.908  14.722
28612W        W 1680  15.509  20.043   4.457
28613W        W 1681  27.435  34.046   1.719
28614W        W 1682  10.169  16.900  11.557
28615W        W 1683  27.430  41.341   2.076
28616W        W 1684  39.848  42.063  13.851
28617W        W 1685   4.415  18.662   0.009
28618W        W 1686  36.385  12.659   4.726
28619W        W 1687  28.620   2.304  10.787
28620W        W 1688  15.147   2.019  13.413
28621W        W 1689   5.272   0.465   4.667
28622W        W 1690  43.859  31.962   0.430
28623W        W 1691  15.832   6.063  12.043
28624W        W 1692   7.644  38.825  12.486
28625W        W 1693  35.675  25.121   2.786
28626W        W 1694   9.104  33.467   3.743
28627W        W 1695  24.016  28.615   4.362
28628W        W 1696   8.235  34.264  12.348
28629W        W 1697  25.790  32.671  11.681
28630W        W 1698  37.036  32.031  13.413
28631W        W 1699  42.475   9.435  13.882
28632W        W 1700  42.258  11.643   0.452
28633W        W 1701  11.954   0.925  14.133
28634W        W 1702   5.139  44.508   4.456
28635W        W 1703  41.039   1.064  12.982
28636W        W 1704  25.576  37.445   2.096
28637W        W 1705  41.465  23.973  11.944
28638W        W 1706  44.804  43.910   0.792
28639W        W 1707   8.655  36.686  12.584
28640W        W 1708  13.161  32.862   1.732
28641W        W 1709   9.667  25.958   0.039
28642W        W 1710  27.909  17.474  11.128
28643W        W 1711   9.768  21.025   3.658
28644W        W 1712  40.542   6.101  12.939
28645W        W 1713  36.965  28.380  13.616
28646W        W 1714  42.277   2.211   2.771
28647W        W 1715  26.405  29.368   3.634
28648W        W 1716  12.442  41.878  10.507
28649W        W 1717  12.098  19.239  13.602
28650W        W 1718  29.579  34.423   2.818
28651W        W 1719  37.326   7.115   1.822
28652W        W 1720  21.155  19.199  14.480
28653W        W 1721  24.549  30.212  12.560
28654W        W 1722  22.291  39.705   4.549
28655W        W 1723  40.491  25.816  14.871
28656W        W 1724  26.608  39.725   0.755
28657W        W 1725  16.334  14.784   3.161
28658W        W 1726   4.176  29.197  13.065
28659W        W 1727   8.511  13.253  11.228
28660W        W 1728   8.947   0.834  14.820
28661W        W 1729   0.838  10.103  13.631
28662W        W 1730  25.582   6.680  12.733
28663W        W 1731  28.610  42.884  14.321
28664W        W 1732  20.557  21.218   3.375
28665W        W 1733  32.943   6.602  13.974
28666W        W 1734  40.765  10.817   0.575
28667W        W 1735  36.103  14.610  14.796
28668W        W 1736   7.263  34.020   4.751
28669W        W 1737  13.851  34.033  12.173
28670W        W 1738  29.720   1.617  11.186
28671W        W 1739  42.091  29.590   1.364
28672W        W 1740  42.983  32.419   0.369
28673W        W 1741  12.591  11.234   0.974
28674W        W 1742  40.448  12.046   0.908
28675W        W 1743  40.951  26.827   2.214
28676W        W 1744  18.042   7.261  13.823
28677W        W 1745  25.828  17.539   1.179
28678W        W 1746  34.111  20.628   1.754
28679W        W 1747  38.418  25.175   3.732
28680W        W 1748  38.839   9.808   0.500
28681W        W 1749  28.148   9.745   4.102
28682W        W 1750   0.742  13.853   3.627
28683W        W 1751   4.899  13.717  11.542
28684W        W 1752  41.348  20.638  14.340
28685W        W 1753  21.230  14.336   1.781
28686W        W 1754   9.646  13.766   2.703
28687W        W 1755  29.128   9.808   0.067
28688W        W 1756  38.364  39.349  11.198
28689W        W 1757  43.023  14.627   0.430
28690W        W 1758  26.101  14.443   0.782
28691W        W 1759  16.662   0.885   1.376
28692W        W 1760  14.766  35.483   4.669
28693W        W 1761  31.607  43.204   3.892
28694W        W 1762  17.784  35.820   2.659
28695W        W 1763   7.471   3.989   4.971
28696W        W 1764  26.116  25.116   4.708
28697W        W 1765  36.950  24.980  10.438
28698W        W 1766  12.316   9.889   1.300
28699W        W 1767  28.532  16.411  11.543
28700W        W 1768  22.549  41.471  10.978
28701W        W 1769   5.363   4.542   4.812
28702W        W 1770  14.205  35.851  10.809
28703W        W 1771  32.627  26.681  11.747
28704W        W 1772  39.116  40.874   3.374
28705W        W 1773  19.120  29.107   4.907
28706W        W 1774  36.035  43.641  13.294
28707W        W 1775  42.400  12.683  14.734
28708W        W 1776  11.899  44.384  10.637
28709W        W 1777  31.709  38.810  14.550
28710W        W 1778  43.754  34.986  12.048
28711W        W 1779  31.551  44.475   2.283
28712W        W 1780  23.738  14.101   2.910
28713W        W 1781  17.100  27.994  13.271
28714W        W 1782  14.642  16.840   2.342
28715W        W 1783  22.817  28.871   3.596
28716W        W 1784  33.034  42.722   2.023
28717W        W 1785  19.551  30.984  11.262
28718W        W 1786  39.014  44.460   1.737
28719W        W 1787  31.644   5.356   2.157
28720W        W 1788  36.873  35.445  12.129
28721W        W 1789  43.734  41.975  13.342
28722W        W 1790  34.192  23.087   4.545
28723W        W 1791  34.485  28.524  12.535
28724W        W 1792   0.512  31.008  13.751
28725W        W 1793   3.630  10.258   2.350
28726W        W 1794  10.257   3.226   0.824
28727W        W 1795  34.014  10.720   1.343
28728W        W 1796  40.763  29.140  11.911
28729W        W 1797   6.296  22.103  10.752
28730W        W 1798  24.890  19.736   4.926
28731W        W 1799  35.355  18.364   4.687
28732W        W 1800   7.180  35.240  13.562
28733W        W 1801  24.301  16.193  14.804
28734W        W 1802   4.651  27.534  14.824
28735W        W 1803  44.475  29.663   1.364
28736W        W 1804  41.890  28.030   3.003
28737W        W 1805   8.344  38.987  13.983
28738W        W 1806  29.106  42.862   1.020
28739W        W 1807   4.888  19.235   0.924
28740W        W 1808  38.843  35.619  11.985
28741W        W 1809  44.871   7.669  12.669
28742W        W 1810  21.708  38.872   3.901
28743W        W 1811   7.677  40.629   4.077
28744W        W 1812  36.489  23.055   4.886
28745W        W 1813  32.871   4.242   1.737
28746W        W 1814  33.955  35.797  11.292
28747W        W 1815  17.497  27.407  14.467
28748W        W 1816  29.781  30.189   1.647
28749W        W 1817   4.001  43.888  12.365
28750W        W 1818  41.532  17.479  12.147
28751W        W 1819  42.080   4.455   3.303
28752W        W 1820   5.344   8.435   0.808
28753W        W 1821  28.117  26.220  11.193
28754W        W 1822  16.682  34.814   0.391
28755W        W 1823   2.918  39.175  12.048
28756W        W 1824  18.073  36.816   2.213
28757W        W 1825   6.492  26.426  12.955
28758W        W 1826   8.736  23.089  14.441
28759W        W 1827   8.260  38.682   4.970
28760W        W 1828  38.340  26.714   2.784
28761W        W 1829  29.154  12.702   1.316
28762W        W 1830   3.479  31.297   4.146
28763W        W 1831   6.463  23.391   2.869
28764W        W 1832  19.514  32.545   4.478
28765W        W 1833   8.669   4.911  13.295
28766W        W 1834   7.801  21.167   1.412
28767W        W 1835   3.716  12.548  13.025
28768W        W 1836  38.406  18.612   4.821
28769W        W 1837  28.153   8.801   3.064
28770W        W 1838  18.308   6.703   1.340
28771W        W 1839  40.091  32.919   4.097
28772W        W 1840  18.184  23.927   2.283
28773W        W 1841  32.163  15.096   3.543
28774W        W 1842  31.541  44.391  13.991
28775W        W 1843  35.686  40.499   3.901
28776W        W 1844  15.247  22.033   1.444
28777W        W 1845  18.961  37.112  14.055
28778W        W 1846  25.170  37.501   2.412
28779W        W 1847   5.034  34.958  10.769
28780W        W 1848  43.867  32.608  10.763
28781W        W 1849   1.455   0.760   1.173
28782W        W 1850  35.851   5.435  11.187
28783W        W 1851  18.250  43.515  12.973
28784W        W 1852  40.363   1.034  11.585
28785W        W 1853  39.284  24.492  14.290
28786W        W 1854   1.318   0.060   4.512
28787W        W 1855  14.334  27.947  11.048
28788W        W 1856  21.167  39.594   1.992
28789W        W 1857  37.803   7.139  12.406
28790W        W 1858  41.793  13.707   2.878
28791W        W 1859  42.488  32.177  11.933
28792W        W 1860  35.462  38.786   4.246
28793W        W 1861  41.646   0.015  10.284
28794W        W 1862   3.958  34.588  11.951
28795W        W 1863  11.558  25.295  14.955
28796W        W 1864   0.733  39.809   0.874
28797W        W 1865  39.662  16.195  12.642
28798W        W 1866  30.633  31.188   1.745
28799W        W 1867  35.015  44.709   0.299
28800W        W 1868  34.927  12.622   0.964
28801W        W 1869  22.498  34.047   2.036
28802W        W 1870  17.674  31.371  11.097
28803W        W 1871  41.146  28.169   5.255
28804W        W 1872   3.622  14.762   1.494
28805W        W 1873  44.277  41.274  12.673
28806W        W 1874   8.972  24.223  12.291
28807W        W 1875  35.038  16.054  13.391
28808W        W 1876   6.400  34.010  10.947
28809W        W 1877  27.126  32.059  13.105
28810W        W 1878  18.045  32.614   3.195
28811W        W 1879  21.627  34.987  13.181
28812W        W 1880  20.112  29.434   3.624
28813W        W 1881   9.836   9.879   1.395
28814W        W 1882  35.567  34.857   0.343
28815W        W 1883  20.981  17.622  13.717
28816W        W 1884  14.648  36.891  13.501
28817W        W 1885   3.768  16.231  11.305
28818W        W 1886  16.525  27.028   0.336
28819W        W 1887  37.546  10.070   1.832
28820W        W 1888   9.592  42.846   4.727
28821W        W 1889  33.395  39.713   4.931
28822W        W 1890  37.268  16.255  10.374
28823W        W 1891  37.596   6.195   2.233
28824W        W 1892   8.306  19.141  10.706
28825W        W 1893  11.628   1.658  12.947
28826W        W 1894   9.198   9.141   1.871
28827W        W 1895  12.718  21.502   3.052
28828W        W 1896  42.809   7.479   4.710
28829W        W 1897  22.442  36.274  10.834
28830W        W 1898  14.110   5.112  10.844
28831W        W 1899   7.798  37.853  11.510
28832W        W 1900   2.840   7.457   1.270
28833W        W 1901  38.253  13.594  13.322
28834W        W 1902   3.410  27.880   2.639
28835W        W 1903   7.272   4.430  14.805
28836W        W 1904  17.551  23.278  14.905
28837W        W 1905  29.849  22.390   2.324
28838W        W 1906  36.470  12.061  12.355
28839W        W 1907  41.691   2.217  11.363
28840W        W 1908  22.963  43.828  13.339
28841W        W 1909  11.381  32.764  13.410
28842W        W 1910  38.342  29.653  13.563
28843W        W 1911  31.269  29.909  12.442
28844W        W 1912  19.059  38.924   3.775
28845W        W 1913  22.110  13.784   3.111
28846W        W 1914  12.963  17.129   3.670
28847W        W 1915  42.975  28.258  12.470
28848W        W 1916  13.252   0.619   1.774
28849W        W 1917  39.562   0.271  14.337
28850W        W 1918  35.810  40.038   4.096
28851W        W 1919   2.768   4.369   1.863
28852W        W 1920  36.728   4.786   3.805
28853W        W 1921  44.588   8.558  13.662
28854W        W 1922   1.652  21.739  13.361
28855W        W 1923   6.291  37.706  11.181
28856W        W 1924  44.464  32.395   3.672
28857W        W 1925  43.530  39.800   0.086
28858W        W 1926  41.935  21.666   1.483
28859W        W 1927  36.048  40.775   2.867
28860W        W 1928   6.120  25.784  12.335
28861W        W 1929  11.466  18.126   3.640
28862W        W 1930  21.083   3.039   4.184
28863W        W 1931  23.626  25.471  13.879
28864W        W 1932  39.343   7.793  14.453
28865W        W 1933  39.639  12.078  13.171
28866W        W 1934  13.280  31.200  12.547
28867W        W 1935  35.005  34.759  12.068
28868W        W 1936   0.526  21.192   5.008
28869W        W 1937  37.142  37.351  12.551
28870W        W 1938   8.151  44.712  14.483
28871W        W 1939  41.093   7.342   3.387
28872W        W 1940  36.283   1.235   4.725
28873W        W 1941  35.560  18.575  14.966
28874W        W 1942  28.698  35.141   4.018
28875W        W 1943  21.081   2.956   2.350
28876W        W 1944  17.958  18.506  12.917
28877W        W 1945  15.236  13.334   0.935
28878W        W 1946  23.673   0.699  13.471
28879W        W 1947   6.752  24.161   2.573
28880W        W 1948  12.583   8.563   0.674
28881W        W 1949  28.159  23.892  13.009
28882W        W 1950  35.015   3.481   1.988
28883W        W 1951  10.412  26.481   4.278
28884W        W 1952  13.764  29.601  11.669
28885W        W 1953  12.681  15.301  14.186
28886W        W 1954  30.047  39.285  12.637
28887W        W 1955  21.760   1.668   0.320
28888W        W 1956  33.462  15.733  10.693
28889W        W 1957   7.292  38.950  11.165
28890W        W 1958   7.225  32.011   1.678
28891W        W 1959  26.925  18.219  11.992
28892W        W 1960  20.087  42.217   4.020
28893W        W 1961  29.628  44.557   1.130
28894W        W 1962  29.146  31.557   2.875
28895W        W 1963   7.824  30.970  11.599
28896W        W 1964  41.552  22.741  10.549
28897W        W 1965   9.398  40.945   4.290
28898W        W 1966  33.326   1.924  11.814
28899W        W 1967   0.178  19.534  12.385
28900W        W 1968  22.488  22.705  14.213
28901W        W 1969  40.160  22.932  10.615
28902W        W 1970  16.976  25.022   3.083
28903W        W 1971   5.273   4.234   4.409
28904W        W 1972  23.794   5.274  13.538
28905W        W 1973  37.073   9.755   0.451
28906W        W 1974  25.514  19.367   4.990
28907W        W 1975  25.209  40.134  11.134
28908W        W 1976  15.130  12.252  10.537
28909W        W 1977  30.291  18.575  11.921
28910W        W 1978  14.208  17.078  12.044
28911W        W 1979  17.088  28.481   0.496
28912W        W 1980   9.801  15.157   2.541
28913W        W 1981  14.556  26.079   2.790
28914W        W 1982  14.253  17.143   3.351
28915W        W 1983   1.063  29.602  14.434
28916W        W 1984   9.281  38.502   4.574
28917W        W 1985  22.781  12.220  13.124
28918W        W 1986  30.524  35.189  11.503
28919W        W 1987  18.623  41.437   1.725
28920W        W 1988  15.523  18.413  12.675
28921W        W 1989  22.687  29.671  11.100
28922W        W 1990  38.901  43.187   1.442
28923W        W 1991  42.221  11.492   1.334
28924W        W 1992  14.771  35.847   5.061
28925W        W 1993   7.849  10.440  14.940
28926W        W 1994   3.505  13.068   3.789
28927W        W 1995  14.374  30.256   0.763
28928W        W 1996  12.136  34.046   0.013
28929W        W 1997  37.276  22.632  13.579
28930W        W 1998  34.097  40.327   0.448
28931W        W 1999  22.449   9.706   0.871
28932W        W 2000  12.633  23.101  11.182
28933W        W 2001   1.736   4.822   3.373
28934W        W 2002  22.550   3.038   1.751
28935W        W 2003  32.306  39.922   5.055
28936W        W 2004   0.452  15.870  11.095
28937W        W 2005  40.311  40.493   3.728
28938W        W 2006  44.576  18.243   5.079
28939W        W 2007  13.916   7.113   0.350
28940W        W 2008  11.815   2.971  12.609
28941W        W 2009  22.955  38.942  13.999
28942W        W 2010  31.388  22.997   4.618
28943W        W 2011  26.261  30.915  12.831
28944W        W 2012  43.676  34.735   3.557
28945W        W 2013  30.228  26.779   3.652
28946W        W 2014   6.219  41.879  13.486
28947W        W 2015   9.467  24.216   3.003
28948W        W 2016   2.137  28.051  12.717
28949W        W 2017  21.289  17.052   2.414
28950W        W 2018  20.071   0.804  14.966
28951W        W 2019  12.730   7.092  10.679
28952W        W 2020  21.497   4.722   1.693
28953W        W 2021  23.659   7.598   1.171
28954W        W 2022  10.139  40.343  10.444
28955W        W 2023  17.276   0.382  10.449
28956W        W 2024   5.715   6.652  12.022
28957W        W 2025  15.423  31.554   4.157
28958W        W 2026   5.452   2.738   4.053
28959W        W 2027   4.960  26.491   3.227
28960W        W 2028  39.605   2.488   3.772
28961W        W 2029   1.927  24.911   0.405
28962W        W 2030  24.646  16.644   1.156
28963W        W 2031  23.386  41.205  14.850
28964W        W 2032  28.667  39.973   0.575
28965W        W 2033  14.665  35.006   3.682
28966W        W 2034   5.235   2.638  13.438
28967W        W 2035   3.635  13.958  13.782
28968W        W 2036  43.458  27.195  14.877
28969W        W 2037  41.511  35.120  11.661
28970W        W 2038  17.580  33.621   1.840
28971W        W 2039   7.230   1.747   2.047
28972W        W 2040   6.476  44.531  12.155
28973W        W 2041   1.541  12.459   2.435
28974W        W 2042   8.939  22.455   3.702
28975W        W 2043  11.865  21.644   3.366
28976W        W 2044   5.051  43.485   1.292
28977W        W 2045  17.597  31.759  10.753
28978W        W 2046  21.653  28.614   3.550
28979W        W 2047  15.308  20.155   1.360
28980W        W 2048  30.478   9.264   4.749
28981W        W 2049  17.298  29.436  10.359
28982W        W 2050  11.920  44.346   1.210
28983W        W 2051  22.493   4.595  13.347
28984W        W 2052   5.620  27.014   1.777
28985W        W 2053   6.120  20.999  12.871
28986W        W 2054  19.022  42.780   0.105
28987W        W 2055  14.695  13.441  12.585
28988W        W 2056  29.928  29.099  14.537
28989W        W 2057  40.513  15.556   3.808
28990W        W 2058  37.327   3.488  12.143
28991W        W 2059  13.610  17.160  14.900
28992W        W 2060  40.292  12.112  12.335
28993W        W 2061  14.202  14.063  11.983
28994W        W 2062  25.446  10.258   2.874
28995W        W 2063   4.467  28.535   3.245
28996W        W 2064  16.059   4.245   2.399
28997W        W 2065  31.642  28.577  11.922
28998W        W 2066  34.664  37.322   2.151
28999W        W 2067  27.379   8.246  14.363
29000W        W 2068  31.576  32.382  13.675
29001W        W 2069   1.478  10.175  14.307
29002W        W 2070  24.412  41.882  13.809
29003W        W 2071  38.215  15.174   2.975
29004W        W 2072  32.916  33.633  12.195
29005W        W 2073  31.166  19.500  11.500
29006W        W 2074  38.071  29.862   3.177
29007W        W 2075  11.692  23.154  10.816
29008W        W 2076   2.278  18.629  12.079
29009W        W 2077   2.354  36.952  11.961
29010W        W 2078  18.201  35.122   3.217
29011W        W 2079   8.969  29.189   3.887
29012W        W 2080  38.955  30.662   0.666
29013W        W 2081  15.252  25.711   2.546
29014W        W 2082  40.953  27.546  14.922
29015W        W 2083   4.374  15.203  13.486
29016W        W 2084   0.519   3.344  13.966
29017W        W 2085   3.314  38.906  14.423
29018W        W 2086  27.575  13.344   0.813
29019W        W 2087  25.311  13.073  14.276
29020W        W 2088  33.985  19.013  13.246
29021W        W 2089  22.634  44.546  10.700
29022W        W 2090  39.436  10.462   0.899
29023W        W 2091  30.390   9.981   1.874
29024W        W 2092  17.993  38.458   4.221
29025W        W 2093  10.476  25.100  10.692
29026W        W 2094  34.234  41.810   4.570
29027W        W 2095   9.100  29.375  10.826
29028W        W 2096  13.687   1.204   4.273
29029W        W 2097   3.898  20.252  11.225
29030W        W 2098  34.800  31.424   5.006
29031W        W 2099   4.639   0.881  11.560
29032W        W 2100  10.880  22.122   2.249
29033W        W 2101   2.380  30.036  14.830
29034W        W 2102  10.832   0.468   0.212
29035W        W 2103  41.441  43.814   3.884
29036W        W 2104   8.156  29.464   0.785
29037W        W 2105  10.388  36.432  14.828
29038W        W 2106  27.042  40.047  14.524
29039W        W 2107  43.570  35.354  12.419
29040W        W 2108  11.555   4.902  14.793
29041W        W 2109  28.686   5.995  12.115
29042W        W 2110  13.173  23.641  13.960
29043W        W 2111  14.190  21.664  14.945
29044W        W 2112  34.002  19.501  10.564
29045W        W 2113  32.599  35.420   0.844
29046W        W 2114  19.723  37.088  13.501
29047W        W 2115  42.057  17.180  13.435
29048W        W 2116  41.425  31.871  11.296
29049W        W 2117   8.596  14.054   2.225
29050W        W 2118  29.467  26.362  12.282
29051W        W 2119  10.242  39.979   0.347
29052W        W 2120  17.068  44.165   3.434
29053W        W 2121  35.984  33.738   2.963
29054W        W 2122  22.668  14.637   2.345
29055W        W 2123  42.000  21.197   9.777
29056W        W 2124  29.202   1.412   0.920
29057W        W 2125  32.687  15.394  12.644
29058W        W 2126   6.293  11.199  10.807
29059W        W 2127  33.840  21.632  13.849
29060W        W 2128  37.247  33.389  13.822
29061W        W 2129  40.381  32.130  12.225
29062W        W 2130  25.792  42.366  10.652
29063W        W 2131  38.095  13.125  13.086
29064W        W 2132  18.957  15.672  14.220
29065W        W 2133  12.427  23.912   1.194
29066W        W 2134  21.823  40.515   1.283
29067W        W 2135  33.945  19.297   1.528
29068W        W 2136  19.706  25.426   3.084
29069W        W 2137   7.756   5.969   4.396
29070W        W 2138  15.678  22.451  11.679
29071W        W 2139   9.256  38.393  13.046
29072W        W 2140   5.678  32.061   3.698
29073W        W 2141   3.195  11.027   2.266
29074W        W 2142  44.378   1.887   1.234
29075W        W 2143   1.470   3.863   2.777
29076W        W 2144  23.836  34.408  13.077
29077W        W 2145  24.235  44.260   0.047
29078W        W 2146  21.678  34.428  12.325
29079W        W 2147  20.770  38.130   1.873
29080W        W 2148  12.861   1.454  12.842
29081W        W 2149  16.360  15.075  12.604
29082W        W 2150  32.568  11.933   0.453
29083W        W 2151   7.829  17.237  12.577
29084W        W 2152  24.536  44.600  11.472
29085W        W 2153  14.691  16.286  12.872
29086W        W 2154  39.000  21.021  11.524
29087W        W 2155  20.988  22.409   5.042
29088W        W 2156   4.209  13.580  14.908
29089W        W 2157  27.549  41.994  14.280
29090W        W 2158  15.668  19.100  13.424
29091W        W 2159   7.052  10.458  12.911
29092W        W 2160   7.386  14.108   2.687
29093W        W 2161  15.071  28.976   4.488
29094W        W 2162  27.094   6.766  12.087
29095W        W 2163  44.093  18.178   0.899
29096W        W 2164   7.548  33.600   1.868
29097W        W 2165  17.147  43.344  10.571
29098W        W 2166  34.106  39.229  14.049
29099W        W 2167  29.386  26.412  10.314
29100W        W 2168   8.248   7.238   4.037
29101W        W 2169   2.792   4.877   3.207
29102W        W 2170   1.104  19.284  13.169
29103W        W 2171  30.666  22.581   0.447
29104W        W 2172  14.453   5.231   4.059
29105W        W 2173  31.684  44.981   1.309
29106W        W 2174  35.834  12.702  12.018
29107W        W 2175  14.616  39.565  10.611
29108W        W 2176  29.434  24.969   1.834
29109W        W 2177  26.627  36.997  10.797
29110W        W 2178  10.376  28.942  14.251
29111W        W 2179  29.841  14.273  14.964
29112W        W 2180  30.516   1.788   1.817
29113W        W 2181  39.390  18.821  14.239
29114W        W 2182  19.569  37.151   4.191
29115W        W 2183  31.441  12.849   3.623
29116W        W 2184   2.230   6.628  11.885
29117W        W 2185  43.517  11.837  13.820
29118W        W 2186  38.540  24.177  12.548
29119W        W 2187  25.627  10.735   2.804
29120W        W 2188  39.358  12.870   0.008
29121W        W 2189  41.755  24.333  11.158
29122W        W 2190  16.080  41.852   0.599
29123W        W 2191   6.622   5.480  13.256
29124W        W 2192  15.257   1.307  13.898
29125W        W 2193  10.266  25.267   1.798
29126W        W 2194   7.961  32.404   3.679
29127W        W 2195  40.448  33.650   0.349
29128W        W 2196  27.902  28.925   4.327
29129W        W 2197  12.172  29.978  13.064
29130W        W 2198  16.304   4.505   0.390
29131W        W 2199  34.689  11.071   3.509
29132W        W 2200   4.866  43.483  13.590
29133W        W 2201   9.714   6.823  12.682
29134W        W 2202   4.019   0.409   2.139
29135W        W 2203  23.423  10.710  14.862
29136W        W 2204   6.683  27.105   1.416
29137W        W 2205  43.993  29.345   4.847
29138W        W 2206  40.036  32.326   2.661
29139W        W 2207  27.479  40.669  11.983
29140W        W 2208  43.984  41.915   0.293
29141W        W 2209  25.816  15.681   4.505
29142W        W 2210  16.800  42.741  10.156
29143W        W 2211  32.502  30.612  12.521
29144W        W 2212  39.267  16.008   2.332
29145W        W 2213   2.427  18.374  12.565
29146W        W 2214  27.376   1.020  13.061
29147W        W 2215   0.483  44.055  11.193
29148W        W 2216  37.772   4.423  11.018
29149W        W 2217  25.201   3.922   0.000
29150W        W 2218  41.828   1.181   2.354
29151W        W 2219  24.734  18.608  11.157
29152W        W 2220   1.234  28.720  13.085
29153W        W 2221  44.987  29.892  11.805
29154W        W 2222  29.510  24.722  14.695
29155W        W 2223   9.590  23.872   4.651
29156W        W 2224   8.188  11.439  12.211
29157W        W 2225  16.345  40.396  12.104
29158W        W 2226  15.759  38.283  11.921
29159W        W 2227  41.938  26.497  11.561
29160W        W 2228  24.197  44.445   2.680
29161W        W 2229  14.996  28.648  14.398
29162W        W 2230  16.258  22.960   0.788
29163W        W 2231  35.715  38.053   0.798
29164W        W 2232  32.953  42.788  14.304
29165W        W 2233  10.745   4.447   4.229
29166W        W 2234   7.111   4.765  13.540
29167W        W 2235  23.776  31.283   3.318
29168W        W 2236  19.698   9.334   0.308
29169W        W 2237  33.118   8.277  10.376
29170W        W 2238  25.441  15.443   3.190
29171W        W 2239  19.144  44.910  10.441
29172W        W 2240   9.137  17.058   2.734
29173W        W 2241  32.134  35.617   0.682
29174W        W 2242  34.405  42.496   4.275
29175W        W 2243  20.751   2.560  13.914
29176W        W 2244  29.239  25.701  13.721
29177W        W 2245   0.313  13.720  12.996
29178W        W 2246  18.132   8.655  11.611
29179W        W 2247  26.474   7.388   4.217
29180W        W 2248  30.976  39.956   3.433
29181W        W 2249  22.674  44.427   0.529
29182W        W 2250  19.010   0.876   1.746
29183W        W 2251  21.717  42.132  11.686
29184W        W 2252  32.345  35.882  13.961
29185W        W 2253  39.543  32.520   1.908
29186W        W 2254  43.735  35.690  11.279
29187W        W 2255  20.285  25.293  12.979
29188W        W 2256   7.731  26.193   2.281
29189W        W 2257  19.281  33.430  13.837
29190W        W 2258  11.598  10.265  10.817
29191W        W 2259  38.284  21.713  13.582
29192W        W 2260  33.044  33.936   4.745
29193W        W 2261  34.475  37.960  13.187
29194W        W 2262  28.671  33.865   3.728
29195W        W 2263  13.110  27.701   4.588
29196W        W 2264   6.785  14.098  12.292
29197W        W 2265  18.138  37.084  13.548
29198W        W 2266  13.094   5.481   4.110
29199W        W 2267  33.004  35.886  11.322
29200W        W 2268  33.876  23.907  14.978
29201W        W 2269  40.910  36.968   1.203
29202W        W 2270   0.728  41.554  10.271
29203W        W 2271  22.127  39.760  14.324
29204W        W 2272  32.060  25.292  14.391
29205W        W 2273   4.030  35.492  13.487
29206W        W 2274   8.474   2.899  13.375
29207W        W 2275  19.633  34.009  13.367
29208W        W 2276  22.581  15.311  14.210
29209W        W 2277  13.003  31.994  13.986
29210W        W 2278   8.915   3.883   5.055
29211W        W 2279  20.995   4.188  13.595
29212W        W 2280   7.454   9.728  10.510
29213W        W 2281  15.151  24.390   4.249
29214W        W 2282  32.452  17.040   2.254
29215W        W 2283   8.843  17.633   4.528
29216W        W 2284  25.833   6.351  11.984
29217W        W 2285  35.510  33.372   0.354
29218W        W 2286  16.632   1.286   1.804
29219W        W 2287  28.970  25.691  11.520
29220W        W 2288  15.583  20.505   4.206
29221W        W 2289  22.690  23.981   1.411
29222W        W 2290  11.735  20.342  12.600
29223W        W 2291  12.211  16.805   3.149
29224W        W 2292   2.030  10.403  14.059
29225W        W 2293  18.146  26.107   1.844
29226W        W 2294  32.666  19.121   4.042
29227W        W 2295  35.168  44.089  11.452
29228W        W 2296  27.335  26.469  10.220
29229W        W 2297  23.527  15.294   3.986
29230W        W 2298   3.135  40.851  14.362
29231W        W 2299  18.478   4.666   4.254
29232W        W 2300  19.054  44.346  12.140
29233W        W 2301  12.938  27.257  14.422
29234W        W 2302  42.411  20.118   4.855
29235W        W 2303   4.653  42.269   1.783
29236W        W 2304  16.058  28.678  14.355
29237W        W 2305  22.578   0.724   3.557
29238W        W 2306   4.436  19.529   0.826
29239W        W 2307  36.453   1.702  12.794
29240W        W 2308  14.152  27.473  13.007
29241W        W 2309  42.593  12.975  10.414
29242W        W 2310  17.653  21.717  10.692
29243W        W 2311  44.420  35.005  13.791
29244W        W 2312  28.742  36.078   4.046
29245W        W 2313  18.170  35.431   1.689
29246W        W 2314  38.752   0.967  13.009
29247W        W 2315  40.970  23.661  12.403
29248W        W 2316  20.113  29.098   4.827
29249W        W 2317   4.700  44.645  14.901
29250W        W 2318  26.879   3.783   0.073
29251W        W 2319  27.390  37.992  11.525
29252W        W 2320  10.630  22.432  12.113
29253W        W 2321  25.178  26.688  11.940
29254W        W 2322  17.772  30.430  11.586
29255W        W 2323   8.399  36.978   3.042
29256W        W 2324   0.538  16.176   4.571
29257W        W 2325  24.996  40.429  12.865
29258W        W 2326   0.993  23.603  14.959
29259W        W 2327   5.952  26.710  11.920
29260W        W 2328  12.904   1.242  11.939
29261W        W 2329  25.359  37.328  10.468
29262W        W 2330  18.982  37.754   2.197
29263W        W 2331  38.383  31.649  12.080
29264W        W 2332  38.267  32.569   2.760
29265W        W 2333  31.149  39.295  12.866
29266W        W 2334  15.678   0.837   1.694
29267W        W 2335  37.378  40.561  10.940
29268W        W 2336  10.147  16.567   3.656
29269W        W 2337  31.014   7.069   0.870
29270W        W 2338  38.408   0.959   3.302
29271W        W 2339   4.934   1.339  12.866
29272W        W 2340  12.066  13.728  13.606
29273W        W 2341  36.423  15.161  13.827
29274W        W 2342  12.430  22.172  12.465
29275W        W 2343  22.630  16.029   4.266
29276W        W 2344  26.556  44.754  13.821
29277W        W 2345   6.894  18.842  12.921
29278W        W 2346  28.059  34.105   0.700
29279W        W 2347  41.755  24.070   3.093
29280W        W 2348  18.124  42.016   3.198
29281W        W 2349  39.760  24.574  12.101
29282W        W 2350  28.427   3.076  11.030
29283W        W 2351  41.186  40.282   0.847
29284W        W 2352  37.301  43.247   3.082
29285W        W 2353   7.360  35.425   4.274
29286W        W 2354  38.303   9.784   1.559
29287W        W 2355   3.308  43.253   1.306
29288W        W 2356  39.854  39.871  12.435
29289W        W 2357   7.247   9.765   1.846
29290W        W 2358  41.517  17.273   2.007
29291W        W 2359  24.755  13.823  13.538
29292W        W 2360  40.393   8.751   3.133
29293W        W 2361  12.669   6.922  12.176
29294W        W 2362  26.171   6.190   4.637
29295W        W 2363  37.061  31.017  11.192
29296W        W 2364  13.186   2.430  12.119
29297W        W 2365   0.005  40.259  14.292
29298W        W 2366   7.773  29.851   0.983
29299W        W 2367  39.997  40.910   3.782
29300W        W 2368  22.435  35.532   3.718
29301W        W 2369  33.934  12.056   2.441
29302W        W 2370  10.832  15.907   0.465
29303W        W 2371  42.339  37.385   4.147
29304W        W 2372  27.398  19.653   4.661
29305W        W 2373   8.756  27.927   0.340
29306W        W 2374  22.666  19.644   0.940
29307W        W 2375   4.296   3.919   0.060
29308W        W 2376  44.760  19.001  14.873
29309W        W 2377  39.570   9.636  11.196
29310W        W 2378  31.349  14.717  11.143
29311W        W 2379   1.155  40.314  12.355
29312W        W 2380   0.243   7.400   3.406
29313W        W 2381  20.056  44.474   0.240
29314W        W 2382  38.459  24.055  10.605
29315W        W 2383  22.696  39.065  13.563
29316W        W 2384   5.939   8.889   4.321
29317W        W 2385  31.803  43.860   5.065
29318W        W 2386  20.555  14.847   3.544
29319W        W 2387   0.817  29.519   2.627
29320W        W 2388  12.941   1.949  14.868
29321W        W 2389  20.786   7.609   3.508
29322W        W 2390   5.972  41.980   2.268
29323W        W 2391   3.419   5.908  13.620
29324W        W 2392  44.827  33.952   1.652
29325W        W 2393  13.023  16.542   5.316
29326W        W 2394  28.554  11.561   1.518
29327W        W 2395  10.653  37.718   0.876
29328W        W 2396  15.867  42.737   0.386
29329W        W 2397  37.413  32.950   2.035
29330W        W 2398  36.027   9.618   1.373
29331W        W 2399  27.160  22.503  12.437
29332W        W 2400  19.593   1.693  10.709
29333W        W 2401  41.938  11.756   2.702
29334W        W 2402  32.936   4.824  12.729
29335W        W 2403  37.549  25.499  11.652
29336W        W 2404  30.553   1.708   0.714
29337W        W 2405  40.711   1.625   5.581
29338W        W 2406  29.183  19.685   2.896
29339W        W 2407   0.883  44.834  11.677
29340W        W 2408  31.224   2.661  14.115
29341W        W 2409  17.061  42.499   0.992
29342W        W 2410  38.635  30.813   2.115
29343W        W 2411  20.986  25.204  11.595
29344W        W 2412  32.609   1.210   2.432
29345W        W 2413  10.741  21.038   2.312
29346W        W 2414  33.170  16.577  14.125
29347W        W 2415  26.403  33.882  11.119
29348W        W 2416  10.240  26.740   3.864
29349W        W 2417  20.817   7.164  14.929
29350W        W 2418   3.949  12.956  10.656
29351W        W 2419  41.902  35.886  11.960
29352W        W 2420  17.399  39.795   0.239
29353W        W 2421   0.873  36.040   0.315
29354W        W 2422  32.522  38.036  12.841
29355W        W 2423  18.005  35.970  14.406
29356W        W 2424  24.526  30.406  11.088
29357W        W 2425  20.147   2.294   0.500
29358W        W 2426  39.310   2.828   0.489
29359W        W 2427  16.742  25.304  11.144
29360W        W 2428  38.876  32.839   1.914
29361W        W 2429  16.286  10.913  14.501
29362W        W 2430  15.209  35.856  10.353
29363W        W 2431  42.428   5.675  11.892
29364W        W 2432  33.440  22.144   0.012
29365W        W 2433   7.336  42.458  11.790
29366W        W 2434  17.727  38.442  11.489
29367W        W 2435  20.052  18.477   4.708
29368W        W 2436  37.451  40.833   0.212
29369W        W 2437  37.856  43.462   4.051
29370W        W 2438  28.786   7.304   3.667
29371W        W 2439  35.600   3.730  12.546
29372W        W 2440  33.650   7.737  11.977
29373W        W 2441   1.782  21.839  13.875
29374W        W 2442  16.338  29.189   0.960
29375W        W 2443  21.227  30.794  11.505
29376W        W 2444  18.952  25.552   2.718
29377W        W 2445  42.874  34.444   3.244
29378W        W 2446   6.345  31.031   3.816
29379W        W 2447   2.238  18.220  14.017
29380W        W 2448   5.192  15.447   2.070
29381W        W 2449   8.672  17.107  11.901
29382W        W 2450  41.260  18.655  14.096
29383W        W 2451  20.943  16.245  14.831
29384W        W 2452   8.639  15.467  12.293
29385W        W 2453   3.015  23.729  13.518
29386W        W 2454  16.697  22.327   0.386
29387W        W 2455  36.701  21.148  13.106
29388W        W 2456   7.281   8.397   4.349
29389W        W 2457  43.402   0.821   1.932
29390W        W 2458   7.174  38.964   2.902
29391W        W 2459  22.144  24.143  11.572
29392W        W 2460   0.104  30.835   2.258
29393W        W 2461  22.316  33.011   1.782
29394W        W 2462   4.815  31.037   0.967
29395W        W 2463  23.694  13.643   1.700
29396W        W 2464  21.898  23.910  13.503
29397W        W 2465  38.300  17.486  12.340
29398W        W 2466  25.027  20.227   3.702
29399W        W 2467   0.345  16.795  14.100
29400W        W 2468  26.163  41.214  10.834
29401W        W 2469   9.913  16.801   3.236
29402W        W 2470   0.994  21.185   4.456
29403W        W 2471  11.391  37.457  10.663
29404W        W 2472  43.584  18.530  13.460
29405W        W 2473  26.954   7.795   1.018
29406W        W 2474   6.142  14.304  12.639
29407W        W 2475  32.821  25.856  11.611
29408W        W 2476  16.487  37.639  13.468
29409W        W 2477   9.361  33.040   2.960
29410W        W 2478  12.282  42.673   4.928
29411W        W 2479   0.205  18.981  11.129
29412W        W 2480  21.999  33.025  11.962
29413W        W 2481  34.463  10.775   4.303
29414W        W 2482   9.015  29.735   0.831
29415W        W 2483  25.749  20.737  10.722
29416W        W 2484   1.950  40.635  11.940
29417W        W 2485   0.057   9.827  13.376
29418W        W 2486  17.710  16.907   0.688
29419W        W 2487  15.122   7.718  13.810
29420W        W 2488  14.555  15.725  12.137
29421W        W 2489  30.903   1.347   3.692
29422W        W 2490  25.031  44.707   0.024
29423W        W 2491  18.530  40.549  10.862
29424W        W 2492  24.179  34.044  13.287
29425W        W 2493  19.307  30.826  14.835
29426W        W 2494  18.672  28.709   0.885
29427W        W 2495   8.074  31.195   4.089
29428W        W 2496  18.752  35.866   2.795
29429W        W 2497  35.586   0.321   1.932
29430W        W 2498  37.492  34.064  10.872
29431W        W 2499  27.088  29.917   0.527
29432W        W 2500  30.362   2.404  12.989
29433W        W 2501  13.625  16.117   1.676
29434W        W 2502  26.216  20.589   0.136
29435W        W 2503   6.069  25.954  13.371
29436W        W 2504  34.290   5.943   2.325
29437W        W 2505   9.628  22.522   4.618
29438W        W 2506  38.989  44.274  11.563
29439W        W 2507  34.936  13.182   0.011
29440W        W 2508  22.265  41.299   0.962
29441W        W 2509  20.229  41.029  14.774
29442W        W 2510  43.836   2.531   0.884
29443W        W 2511  16.506  36.150  12.111
29444W        W 2512  26.604  33.394   0.328
29445W        W 2513   6.181   0.537   4.837
29446W        W 2514  24.690  40.005   1.483
29447W        W 2515  29.381  37.132   2.741
29448W        W 2516  44.070  44.305   3.899
29449W        W 2517  17.151   2.327  11.024
29450W        W 2518  16.051   1.927   4.058
29451W        W 2519   4.443  33.974  10.776
29452W        W 2520  37.901  10.344   2.861
29453W        W 2521  16.040   0.210  14.733
29454W        W 2522  40.879  33.562  10.536
29455W        W 2523   8.698   8.971   2.871
29456W        W 2524  34.029  25.570   1.406
29457W        W 2525   5.244  19.617  12.860
29458W        W 2526  23.256   3.930  10.692
29459W        W 2527  23.668   7.601  12.018
29460W        W 2528  19.162  43.871  11.922
29461W        W 2529  30.832  16.720   3.686
29462W        W 2530  13.890  27.463   3.608
29463W        W 2531  31.590  25.597   0.800
29464W        W 2532  17.935  17.937   4.191
29465W        W 2533  24.683  14.085   2.989
29466W        W 2534   9.101  25.167  13.304
29467W        W 2535  11.780  14.147  12.839
29468W        W 2536  22.686   2.205  13.902
29469W        W 2537  40.248  26.620   0.514
29470W        W 2538  24.312  22.128   4.253
29471W        W 2539  27.759   9.403  12.813
29472W        W 2540  29.196  19.015   1.000
29473W        W 2541  34.043   5.293  11.380
29474W        W 2542   9.859  28.555   4.154
29475W        W 2543  15.789   0.197  12.106
29476W        W 2544  28.983  31.874   2.064
29477W        W 2545  25.900  20.850   1.681
29478W        W 2546   8.320   1.727  14.094
29479W        W 2547   5.748  23.285  12.456
29480W        W 2548  17.807   8.118   3.769
29481W        W 2549  41.200  34.709  11.631
29482W        W 2550  15.529  33.191  13.545
29483W        W 2551  27.438  43.728   0.872
29484W        W 2552  13.502   5.121  12.430
29485W        W 2553  18.196  26.489  12.972
29486W        W 2554   6.683  43.862  10.632
29487W        W 2555  28.394   7.093   9.883
29488W        W 2556  36.477  24.469   0.488
29489W        W 2557  28.210   9.799  11.513
29490W        W 2558  34.961   3.831   0.217
29491W        W 2559   6.814  42.758  12.073
29492W        W 2560  43.504  11.707  11.970
29493W        W 2561  13.102  41.303  13.545
29494W        W 2562   1.832   7.354   0.509
29495W        W 2563  40.219  24.186  14.878
29496W        W 2564  37.003  10.765  14.120
29497W        W 2565  27.952  19.632   5.140
29498W        W 2566  38.196  24.706   2.616
29499W        W 2567  28.619  33.524  10.355
29500W        W 2568  17.496  16.263   0.454
29501W        W 2569  23.819  28.939   0.096
29502W        W 2570  28.098   7.331  10.469
29503W        W 2571  25.224  22.979   1.095
29504W        W 2572  12.771  20.417  13.583
29505W        W 2573  11.946  44.376  13.904
29506W        W 2574   7.907  32.767  11.311
29507W        W 2575  32.537   2.685   3.689
29508W        W 2576  39.157  22.654   3.122
29509W        W 2577  10.617  29.575   2.765
29510W        W 2578  43.039  36.585  13.907
29511W        W 2579  15.207  22.503  10.798
29512W        W 2580  39.420  39.902   4.191
29513W        W 2581  21.355  25.604   0.758
29514W        W 2582  15.229  27.943   4.241
29515W        W 2583  17.951  14.694   0.839
29516W        W 2584  44.766  16.484   0.912
29517W        W 2585  24.114  35.996   0.417
29518W        W 2586  17.192   4.585  13.746
29519W        W 2587  42.036  24.773   4.615
29520W        W 2588  21.127   9.267  14.185
29521W        W 2589  17.681  38.577  13.311
29522W        W 2590  39.187  21.956  12.061
29523W        W 2591   3.883  41.408  14.329
29524W        W 2592  10.663  25.256  11.591
29525W        W 2593  44.480  11.655   1.701
29526W        W 2594  11.699   0.991  10.678
29527W        W 2595  12.852  34.715  13.438
29528W        W 2596   7.825  24.043  11.940
29529W        W 2597   5.362  43.470  14.777
29530W        W 2598  20.451   2.396   1.841
29531W        W 2599   9.708   0.412  12.782
29532W        W 2600  23.510  20.571   3.810
29533W        W 2601  21.514  18.236  10.888
29534W        W 2602  36.095   3.665  14.857
29535W        W 2603  14.457   2.655   2.724
29536W        W 2604   7.745  25.353  11.639
29537W        W 2605  38.578  38.404   1.411
29538W        W 2606   5.467  26.605   3.147
29539W        W 2607  33.113  37.726   1.456
29540W        W 2608  14.077  30.011   0.417
29541W        W 2609  42.214  27.291  11.135
29542W        W 2610   0.940   7.766  12.638
29543W        W 2611  36.383  26.239   1.758
29544W        W 2612  40.622  41.346  13.987
29545W        W 2613  28.069  32.466   4.516
29546W        W 2614  11.449   5.238   1.016
29547W        W 2615  12.813   6.336  13.960
29548W        W 2616   4.690  44.816   2.404
29549W        W 2617  14.945  29.382  14.152
29550W        W 2618  22.955  39.018   0.893
29551W        W 2619  27.147  20.040  12.414
29552W        W 2620  17.859   3.453  13.502
29553W        W 2621  40.010  11.950   3.648
29554W        W 2622  30.429  20.726   1.936
29555W        W 2623  25.543  25.388   4.068
29556W        W 2624  14.659   6.429  13.602
29557W        W 2625   4.295   5.040   2.615
29558W        W 2626  23.563   1.851   3.908
29559W        W 2627  34.387  25.858  10.683
29560W        W 2628  36.587  40.445   3.555
29561W        W 2629  17.202   0.003  14.413
29562W        W 2630   6.460  40.388  14.450
29563W        W 2631  30.179  40.131   1.877
29564W        W 2632  36.848  27.035  12.000
29565W        W 2633   3.514   5.483   2.146
29566W        W 2634   0.340  10.376  10.642
29567W        W 2635   5.958  33.025   1.562
29568W        W 2636  31.023  16.040   2.424
29569W        W 2637  20.812  42.315   2.917
29570W        W 2638   7.795  11.245  13.490
29571W        W 2639  20.537  17.356   4.889
29572W        W 2640   0.549   8.177   2.774
29573W        W 2641  43.258  34.460   4.493
29574W        W 2642  19.709  28.081  12.025
29575W        W 2643  35.648  33.499  13.349
29576W        W 2644  25.361  34.784  13.533
29577W        W 2645   1.934  14.802   4.230
29578W        W 2646  19.816  42.587   4.665
29579W        W 2647  32.922  25.495  13.075
29580W        W 2648  24.277  28.173  11.013
29581W        W 2649   9.617   8.128  10.492
29582W        W 2650  23.070   1.037   4.678
29583W        W 2651  16.572  28.952  10.628
29584W        W 2652  15.298  15.042   2.240
29585W        W 2653  21.312   9.328  14.680
29586W        W 2654  15.573  19.225   4.694
29587W        W 2655  18.487  33.571   2.945
29588W        W 2656  11.137  10.625  10.139
29589W        W 2657  41.962  31.157   0.122
29590W        W 2658  41.560  37.647   2.923
29591W        W 2659  31.380  43.363   4.318
29592W        W 2660  42.570  35.322   4.511
29593W        W 2661  27.988   2.395  12.099
29594W        W 2662  11.747   4.802  13.001
29595W        W 2663  14.363  20.241   0.710
29596W        W 2664   4.411  30.935  13.645
29597W        W 2665  11.767  14.755   3.732
29598W        W 2666  37.549   8.586  14.976
29599W        W 2667  18.589  36.333   4.818
29600W        W 2668  12.897   2.458  15.000
29601W        W 2669  10.634   3.175  11.037
29602W        W 2670  38.414  24.936  10.518
29603W        W 2671  33.892  11.150   1.598
29604W        W 2672   2.895  16.071  11.621
29605W        W 2673  32.953  43.503   2.800
29606W        W 2674  19.760  44.082  12.081
29607W        W 2675  15.641  32.403   4.993
29608W        W 2676  10.286  28.111  11.376
29609W        W 2677  28.510  44.850  12.415
29610W        W 2678  10.868   1.075   3.328
29611W        W 2679   7.680  24.286  13.104
29612W        W 2680  29.743   8.641  10.280
29613W        W 2681  30.560  21.299   1.990
29614W        W 2682   6.180  35.371   3.661
29615W        W 2683  30.477  27.266   0.178
29616W        W 2684  32.363  20.684   0.872
29617W        W 2685  39.744  36.653  12.378
29618W        W 2686  22.719  24.230  10.830
29619W        W 2687  18.183  44.209   2.628
29620W        W 2688  15.701  13.983   0.580
29621W        W 2689  37.350  42.224  11.678
29622W        W 2690  32.453  22.531  12.430
29623W        W 2691  11.923  37.377  13.364
29624W        W 2692  26.709   8.402  11.601
29625W        W 2693  43.243  14.892   1.073
29626W        W 2694  24.563  25.675   1.298
29627W        W 2695  18.514  13.949  10.288
29628W        W 2696  31.862  12.180  13.019
29629W        W 2697  26.485   6.331   1.421
29630W        W 2698  16.572  44.432   3.295
29631W        W 2699  21.717  43.025  14.831
29632W        W 2700  22.432  24.796   2.747
29633W        W 2701  15.307  19.524   1.785
29634W        W 2702  25.256  11.832   3.394
29635W        W 2703  18.807   6.560   5.028
29636W        W 2704  20.734   0.503  13.034
29637W        W 2705   3.417  36.367  10.832
29638W        W 2706  17.874  25.501   2.623
29639W        W 2707  10.829   0.004   0.429
29640W        W 2708  34.611  43.796   2.885
29641W        W 2709  30.182  18.963  14.042
29642W        W 2710  12.841   7.331  13.554
29643W        W 2711   2.296   5.274  11.457
29644W        W 2712  23.550   0.809   1.658
29645W        W 2713  16.614  19.933   0.345
29646W        W 2714   3.350  26.418   0.063
29647W        W 2715  42.532  37.935  13.442
29648W        W 2716  33.654  31.707  13.890
29649W        W 2717  18.512  27.991  10.712
29650W        W 2718  32.583  16.787   3.725
29651W        W 2719  22.057  43.374  13.042
29652W        W 2720  28.325   4.429   1.814
29653W        W 2721  18.800  25.597   0.782
29654W        W 2722  29.405  31.646  12.963
29655W        W 2723   7.999  13.754   4.766
29656W        W 2724   9.316  44.946  12.098
29657W        W 2725  26.640  16.275  13.873
29658W        W 2726  15.641   6.727  11.570
29659W        W 2727   4.433  40.583  12.897
29660W        W 2728  17.289  22.664   0.842
29661W        W 2729  15.348  13.788   1.847
29662W        W 2730   8.755  19.539  12.031
29663W        W 2731   7.477  37.779  11.090
29664W        W 2732  37.544  40.866   0.723
29665W        W 2733   0.942   3.406   4.087
29666W        W 2734  24.491   0.300   4.499
29667W        W 2735  10.861  22.456  12.957
29668W        W 2736  14.126  39.219   5.059
29669W        W 2737   7.384   5.793  14.443
29670W        W 2738  17.568  28.945  12.404
29671W        W 2739  22.244   9.340   3.105
29672W        W 2740  24.184  31.474   4.253
29673W        W 2741  22.601   9.427  11.474
29674W        W 2742   2.863  28.857  14.397
29675W        W 2743  10.229  22.145   0.271
29676W        W 2744  11.780  22.756   2.809
29677W        W 2745  41.435   3.724   3.245
29678W        W 2746  14.574  28.521   4.928
29679W        W 2747  18.132   9.145   4.098
29680W        W 2748  35.618  23.708   4.551
29681W        W 2749  43.777  20.325  11.146
29682W        W 2750   8.404   3.196   2.677
29683W        W 2751  22.691  37.450  11.839
29684W        W 2752  27.841  23.686   1.200
29685W        W 2753  44.312   8.351   1.853
29686W        W 2754  33.068   8.773  14.284
29687W        W 2755  34.664  36.991   0.840
29688W        W 2756  14.319  15.302  14.052
29689W        W 2757  33.101  30.165   0.485
29690W        W 2758  13.672  35.053   2.392
29691W        W 2759   5.018  35.792   4.936
29692W        W 2760  13.800  44.339  10.276
29693W        W 2761   6.380  41.012  13.031
29694W        W 2762  34.585   6.228  12.012
29695W        W 2763  25.076  44.360  12.470
29696W        W 2764  38.729  22.993  12.582
29697W        W 2765  29.607  40.550   3.454
29698W        W 2766   9.461  35.435  11.408
29699W        W 2767  22.435  11.789   3.692
29700W        W 2768  38.576  18.140  10.640
29701W        W 2769   6.067   5.281   4.940
29702W        W 2770  16.701  40.818   2.176
29703W        W 2771   3.364  28.167  11.881
29704W        W 2772  31.548  23.090  14.604
29705W        W 2773   1.745  37.625  12.082
29706W        W 2774  15.087  29.871   4.614
29707W        W 2775   3.702  34.941   2.301
29708W        W 2776   7.795  29.923  14.512
29709W        W 2777  10.914  27.029  12.401
29710W        W 2778  36.407   4.386   4.467
29711W        W 2779  21.669  23.008  10.776
29712W        W 2780  14.594  14.225   4.212
29713W        W 2781  13.260  30.132  11.023
29714W        W 2782   8.878   6.254  11.924
29715W        W 2783  37.918  43.672   1.893
29716W        W 2784  19.340  31.018  13.938
29717W        W 2785   5.272  21.823   3.638
29718W        W 2786  32.926  27.535   1.799
29719W        W 2787  23.720  38.360   4.925
29720W        W 2788  11.805  29.968   2.149
29721W        W 2789   5.671  22.980   4.015
29722W        W 2790   9.162  19.693   4.178
29723W        W 2791   9.734   0.283   0.934
29724W        W 2792  26.519  32.384  13.390
29725W        W 2793  17.064   7.589   2.204
29726W        W 2794  28.032  39.735  14.831
29727W        W 2795  19.035  38.242   1.228
29728W        W 2796  22.769   5.270  11.538
29729W        W 2797  39.936   5.207   4.216
29730W        W 2798   9.430   7.790  11.963
29731W        W 2799  35.042  14.282   0.423
29732W        W 2800  33.916  24.480  13.434
29733W        W 2801  40.097  22.483   1.152
29734W        W 2802  32.904   2.301   3.417
29735W        W 2803   1.996  20.780  11.399
29736W        W 2804   2.525  30.925  12.520
29737W        W 2805  21.709  10.782   3.746
29738W        W 2806  17.227  20.638  13.545
29739W        W 2807  29.463  15.084  10.851
29740W        W 2808  22.243  39.280   2.204
29741W        W 2809  33.427  42.091   3.839
29742W        W 2810  31.090  21.989   1.767
29743W        W 2811  34.416  32.605   3.708
29744W        W 2812  11.421   0.855  12.632
29745W        W 2813  38.915  13.624   4.064
29746W        W 2814  31.759  34.386  10.633
29747W        W 2815  44.562  44.939  12.266
29748W        W 2816   1.525   4.819  14.067
29749W        W 2817  11.728   4.436  12.424
29750W        W 2818  39.431  38.918  13.393
29751W        W 2819  42.583  34.977  14.413
29752W        W 2820  23.550  34.017  12.933
29753W        W 2821  28.424   5.412  11.186
29754W        W 2822  16.299   3.869  14.168
29755W        W 2823   5.011  22.214  10.317
29756W        W 2824  17.757  41.049  13.080
29757W        W 2825  43.603  25.394  11.644
29758W        W 2826  19.720  44.923  14.697
29759W        W 2827  40.221   4.675  14.405
29760W        W 2828   9.698   8.954  12.579
29761W        W 2829  42.424  20.046  14.810
29762W        W 2830   1.543  37.739   4.354
29763W        W 2831   4.706  20.690  14.097
29764W        W 2832  26.189  27.026   0.465
29765W        W 2833  33.074   8.697   4.622
29766W        W 2834   8.927  23.678   3.393
29767W        W 2835  16.994   4.152  13.522
29768W        W 2836  30.093  33.064   0.834
29769W        W 2837  36.001  34.144  12.958
29770W        W 2838  34.408  32.087   5.046
29771W        W 2839  21.313  12.151  13.618
29772W        W 2840   9.337   4.297   0.250
29773W        W 2841  16.777   2.303   0.610
29774W        W 2842  37.123  31.464  13.811
29775W        W 2843  13.087  15.233   4.254
29776W        W 2844  20.205  21.952   0.014
29777W        W 2845  28.248  22.702  11.119
29778W        W 2846  12.604  32.402   0.774
29779W        W 2847  15.520  42.407   3.017
29780W        W 2848  13.961  16.587  12.089
29781W        W 2849  28.975  11.589   1.235
29782W        W 2850  18.249   8.480  14.418
29783W        W 2851  28.512  43.801   2.748
29784W        W 2852   3.655  32.944  11.103
29785W        W 2853   6.317  12.822  13.773
29786W        W 2854  24.138  42.184  14.165
29787W        W 2855  24.630  17.559   5.043
29788W        W 2856  33.910  37.619  11.103
29789W        W 2857   9.857  18.237   3.968
29790W        W 2858  37.906  33.049  13.311
29791W        W 2859   6.613  23.710   3.251
29792W        W 2860  41.971  15.671   3.153
29793W        W 2861  33.385  28.170   2.165
29794W        W 2862  44.233   0.693   2.325
29795W        W 2863  28.140  23.520   2.319
29796W        W 2864  24.587  19.239   2.327
29797W        W 2865  27.731  28.523  12.168
29798W        W 2866   1.019  43.984  10.567
29799W        W 2867  23.681  27.981   3.841
29800W        W 2868  27.109  28.919  11.125
29801W        W 2869  32.582  19.563   0.314
29802W        W 2870   4.432  42.648  12.023
29803W        W 2871  41.363  22.548   4.219
29804W        W 2872  29.067  12.516  13.507
29805W        W 2873   5.291   2.972   0.370
29806W        W 2874  30.471  34.058   3.612
29807W        W 2875  38.465  23.513   2.670
29808W        W 2876  18.182  32.931  12.166
29809W        W 2877  11.286  23.012   2.347
29810W        W 2878  12.818  44.203  12.108
29811W        W 2879  33.303  33.930  14.335
29812W        W 2880  14.169  36.147  11.254
29813W        W 2881  10.387  11.590  12.254
29814W        W 2882  41.447  10.050   3.200
29815W        W 2883  41.392  31.355  13.410
29816W        W 2884  17.562  14.287  11.934
29817W        W 2885  20.985  35.340  14.017
29818W        W 2886  41.850  20.469  13.443
29819W        W 2887   9.700  31.373  12.546
29820W        W 2888   3.505  17.843  13.334
29821W        W 2889  30.042  19.774   1.947
29822W        W 2890   6.752  39.087   3.743
29823W        W 2891   6.338  10.191  14.431
29824W        W 2892  25.512  35.261   4.113
29825W        W 2893  29.174   6.312   2.785
29826W        W 2894  11.463  29.944  14.316
29827W        W 2895   7.273  43.691  13.859
29828W        W 2896  17.592  43.735   4.593
29829W        W 2897  21.483   2.056   4.544
29830W        W 2898  40.562  26.644  11.924
29831W        W 2899  26.611  11.695  13.673
29832W        W 2900   6.503  26.743  11.968
29833W        W 2901  11.746  15.014  12.192
29834W        W 2902  23.655  44.392  10.995
29835W        W 2903   2.485  32.411  10.860
29836W        W 2904  10.906  16.337   3.196
29837W        W 2905  32.978  25.943   0.755
29838W        W 2906   1.699   3.431  14.536
29839W        W 2907  12.846  41.756   4.233
29840W        W 2908  42.297  11.248   0.836
29841W        W 2909  42.916   2.358  12.129
29842W        W 2910  32.651  11.868  13.819
29843W        W 2911  21.759  44.354   2.821
29844W        W 2912  34.941  23.493  10.332
29845W        W 2913  44.933  21.247  14.065
29846W        W 2914  43.242   7.199  11.512
29847W        W 2915  28.523   9.148   3.797
29848W        W 2916   7.905  38.729   4.555
29849W        W 2917  39.030  17.786  13.445
29850W        W 2918   4.285  29.877  11.725
29851W        W 2919  28.566  41.568  14.098
29852W        W 2920  16.580  33.357   1.700
29853W        W 2921  10.550  30.128  14.745
29854W        W 2922   1.413  13.136   4.508
29855W        W 2923  24.731  33.505  13.937
29856W        W 2924  17.230  29.725   4.105
29857W        W 2925  13.771  20.724   1.482
29858W        W 2926  37.071  16.744   1.684
29859W        W 2927  30.212  34.537  12.888
29860W        W 2928  40.049   0.841   1.595
29861W        W 2929  33.414  40.703  11.972
29862W        W 2930  24.759  37.029   1.315
29863W        W 2931  38.356  38.561  12.940
29864W        W 2932  29.512  41.473   5.077
29865W        W 2933   1.754  26.335  14.320
29866W        W 2934   6.697   0.874  11.913
29867W        W 2935  37.839  18.322  13.242
29868W        W 2936  41.284  36.297  13.511
29869W        W 2937   5.910  20.833  11.181
29870W        W 2938  36.793  39.469   4.638
29871W        W 2939  11.359  27.220   4.549
29872W        W 2940  21.661  17.712   0.344
29873W        W 2941  15.263  40.590  14.458
29874W        W 2942  27.987  41.822  13.511
29875W        W 2943   2.748  29.640   3.877
29876W        W 2944  39.602  39.693  14.453
29877W        W 2945  42.063   0.354   2.752
29878W        W 2946  40.704  38.213   0.511
29879W        W 2947   7.187  36.292  12.038
29880W        W 2948  27.531   2.457  12.297
29881W        W 2949  13.175  11.664  13.475
29882W        W 2950  36.110  43.570  10.803
29883W        W 2951  14.601  30.098  11.381
29884W        W 2952   6.021  37.650  11.648
29885W        W 2953  25.661  35.010   3.667
29886W        W 2954  10.859  44.574   3.274
29887W        W 2955  21.766  15.269   1.821
29888W        W 2956  14.142  13.964   4.164
29889W        W 2957  44.329  23.158   1.288
29890W        W 2958  19.392  24.887   3.765
29891W        W 2959  35.562  32.415  10.912
29892W        W 2960  15.329  24.425   2.502
29893W        W 2961  25.263  35.257   0.309
29894W        W 2962   3.438  15.742   9.863
29895W        W 2963   4.853  41.443   2.185
29896W        W 2964   9.045  27.516  13.326
29897W        W 2965  24.266  13.661  11.551
29898W        W 2966  14.220  18.607   1.287
29899W        W 2967  23.513  14.257   2.393
29900W        W 2968  43.437  32.277   2.219
29901W        W 2969  16.790  34.472   1.717
29902W        W 2970  10.148   6.975   3.385
29903W        W 2971  30.025  32.917   1.730
29904W        W 2972  41.894  32.534  14.479
29905W        W 2973  30.552  39.946   2.160
29906W        W 2974  43.386  14.764   1.568
29907W        W 2975  26.004   4.937  14.403
29908W        W 2976  24.065   6.757   2.190
29909W        W 2977   0.449  21.110   4.508
29910W        W 2978  34.391  31.412   0.551
29911W        W 2979  12.710   9.104  13.817
29912W        W 2980  42.979   3.815   4.382
29913W        W 2981  18.709   3.768  12.120
29914W        W 2982  12.699  15.625  13.071
29915W        W 2983  23.160  13.311   3.684
29916W        W 2984  20.468  10.387   2.585
29917W        W 2985  16.720   0.347   0.248
29918W        W 2986  32.209  10.560  13.077
29919W        W 2987  27.084  34.439  14.063
29920W        W 2988  24.096  36.492   3.724
29921W        W 2989   1.755  33.909  11.884
29922W        W 2990   6.406  44.267   3.811
29923W        W 2991  24.518  10.611   0.773
29924W        W 2992  35.320  43.889  13.599
29925W        W 2993  12.169  32.484  11.049
29926W        W 2994  43.849  30.572  13.610
29927W        W 2995  20.740  18.564   4.411
29928W        W 2996   7.245  41.703  12.546
29929W        W 2997  24.129  32.521   1.872
29930W        W 2998  19.932  33.387   2.028
29931W        W 2999  18.757  31.463   0.953
29932W        W 3000   2.066  17.664  10.521
29933W        W 3001  40.436   7.848  13.996
29934W        W 3002  37.832  25.259   4.534
29935W        W 3003   3.810  28.381  13.971
29936W        W 3004  32.533  22.754   1.879
29937W        W 3005  35.776   1.760  14.861
29938W        W 3006  15.302  28.641   0.271
29939W        W 3007   2.448  35.889  12.931
29940W        W 3008   0.084  18.724  12.421
29941W        W 3009  37.907  17.263   2.515
29942W        W 3010   6.135  14.639   2.768
29943W        W 3011  43.302  42.462  12.847
29944W        W 3012  18.540  30.677  11.138
29945W        W 3013  12.776  25.439  14.886
29946W        W 3014  25.211  38.917  13.344
29947W        W 3015  34.577  26.280   1.302
29948W        W 3016  35.831   8.863  14.351
29949W        W 3017  29.354  15.038   2.299
29950W        W 3018  11.839  13.717  13.131
29951W        W 3019  37.251  11.234  14.049
29952W        W 3020  17.694  35.935   2.153
29953W        W 3021  36.989   1.216   1.352
29954W        W 3022   6.873  41.970   4.237
29955W        W 3023   0.794   6.119   4.761
29956W        W 3024  10.398  10.600   2.351
29957W        W 3025  10.252  14.994  14.404
29958W        W 3026  18.125  21.510   1.874
29959W        W 3027  16.716   2.486  13.299
29960W        W 3028  31.224  18.472   4.026
29961W        W 3029  12.655  30.643  14.493
29962W        W 3030  31.916  39.718   2.889
29963W        W 3031  32.396  41.751   3.599
29964W        W 3032  32.596  11.608   2.170
29965W        W 3033   1.818  43.426   1.378
29966W        W 3034  39.173  34.496  11.544
29967W        W 3035  11.966  17.783  11.689
29968W        W 3036  25.581  30.114   0.796
29969W        W 3037  14.733   8.117   0.992
29970W        W 3038  39.026  36.208  10.264
29971W        W 3039  28.472  12.670   4.691
29972W        W 3040  17.555  29.172   3.590
29973W        W 3041  13.186  25.122  10.711
29974W        W 3042  28.438   7.597  13.003
29975W        W 3043   1.892   3.254  14.976
29976W        W 3044  35.637  25.655  13.825
29977W        W 3045  12.487  44.542   4.560
29978W        W 3046   5.188  42.900  10.932
29979W        W 3047  16.381  19.708  13.399
29980W        W 3048   6.638   9.881   3.689
29981W        W 3049  38.325  27.723  13.548
29982W        W 3050   9.686  19.543   1.479
29983W        W 3051  42.451  24.636   4.881
29984W        W 3052  13.703  42.160   0.074
29985W        W 3053  37.250  13.420   0.233
29986W        W 3054  12.730   3.437  11.347
29987W        W 3055  28.556  25.512   2.102
29988W        W 3056  33.699  28.167   0.868
29989W        W 3057  34.085  28.069  11.935
29990W        W 3058  28.079  21.745   1.694
29991W        W 3059   7.370  22.287   2.377
29992W        W 3060  36.045  19.477   1.262
29993W        W 3061   8.898   2.341   2.995
29994W        W 3062  22.162   3.945   4.538
29995W        W 3063  35.925  23.947   2.777
29996W        W 3064  41.026  26.709   0.923
29997W        W 3065  12.273  43.960   0.938
29998W        W 3066  16.743  42.480  14.965
29999W        W 3067  33.658  34.131  10.307
30000W        W 3068  16.724  24.689   4.010
30001W        W 3069  30.629   6.941   2.635
30002W        W 3070  41.815  27.767  14.708
30003W        W 3071  21.112  40.000   3.657
30004W        W 3072  41.492  26.419   4.893
30005W        W 3073  30.413  19.117   3.667
30006W        W 3074  10.137   5.324  13.914
30007W        W 3075  10.130  33.993   1.840
30008W        W 3076  23.905  33.182  10.430
30009W        W 3077  38.282  44.533  13.859
30010W        W 3078  12.706   9.617  11.024
30011W        W 3079  33.423  43.839  11.657
30012W        W 3080  36.846   4.451  11.244
30013W        W 3081  40.538  42.932   0.159
30014W        W 3082  23.495   6.744   4.610
30015W        W 3083  10.714  25.774  11.657
30016W        W 3084   6.438  32.817  11.621
30017W        W 3085   2.407  14.627   0.921
30018W        W 3086  24.623  22.601  10.745
30019W        W 3087  29.512  30.967  11.533
30020W        W 3088  22.998   6.567   2.860
30021W        W 3089  35.122   0.442  14.836
30022W        W 3090  31.245  11.639  11.262
30023W        W 3091  31.959  17.611   0.236
30024W        W 3092   8.645   0.445   4.234
30025W        W 3093   1.205  30.443  13.503
30026W        W 3094  14.150  12.123   3.383
30027W        W 3095  24.280   2.051   4.337
30028W        W 3096  16.165  28.927  13.068
30029W        W 3097   0.321  32.877   3.642
30030W        W 3098  22.150  33.682   4.507
30031W        W 3099  26.938  43.340  11.969
30032W        W 3100  42.494   5.165  12.512
30033W        W 3101   1.862  41.487  12.054
30034W        W 3102  26.903   3.081  12.370
30035W        W 3103   9.922  36.784   0.359
30036W        W 3104  31.023  36.645   2.687
30037W        W 3105  11.078  41.461  14.514
30038W        W 3106  24.419  38.809   3.768
30039W        W 3107  33.115  28.107   3.092
30040W        W 3108  39.728  29.357   2.594
30041W        W 3109   0.875  25.237  11.143
30042W        W 3110  44.036  43.954  14.260
30043W        W 3111  26.199  19.084   0.167
30044W        W 3112   8.430  16.770  14.951
30045W        W 3113  31.076  26.883  12.100
30046W        W 3114  19.199  14.191  11.556
30047W        W 3115  18.272  41.878   4.031
30048W        W 3116  17.815  23.064   3.153
30049W        W 3117  38.886  34.549   2.149
30050W        W 3118   8.568  27.143   0.839
30051W        W 3119  13.636   4.319   4.631
30052W        W 3120  20.224   3.341  10.756
30053W        W 3121  37.886   5.344   1.641
30054W        W 3122   8.306  14.323   0.801
30055W        W 3123  11.138  36.589  14.305
30056W        W 3124  36.621  23.691   3.673
30057W        W 3125  14.607  22.140  14.396
30058W        W 3126  18.731  13.496   0.556
30059W        W 3127  24.591  38.770  12.058
30060W        W 3128  25.368  30.035  12.043
30061W        W 3129   1.247   7.720  12.055
30062W        W 3130   3.371  24.043   4.594
30063W        W 3131  42.305  11.829   3.055
30064W        W 3132  36.698  19.033   1.491
30065W        W 3133  39.007  42.515  11.215
30066W        W 3134  39.084  28.069  13.032
30067W        W 3135  28.623  32.250   2.056
30068W        W 3136  19.830  23.983   3.871
30069W        W 3137  41.323  28.150   1.225
30070W        W 3138  14.857  44.364   2.750
30071W        W 3139  32.893   6.064   2.165
30072W        W 3140  25.810  36.905   1.463
30073W        W 3141  33.546  34.018   0.214
30074W        W 3142  21.545  14.581  14.831
30075W        W 3143  27.968  33.149   4.695
30076W        W 3144   2.301  40.382  14.444
30077W        W 3145   7.163   7.614   3.261
30078W        W 3146  24.059  34.696   2.323
30079W        W 3147  29.578  13.644   0.762
30080W        W 3148  21.943  15.264   1.324
30081W        W 3149  19.656  27.567   4.615
30082W        W 3150  41.047  37.578  12.115
30083W        W 3151  19.026  25.549  14.387
30084W        W 3152  33.464  37.874  11.696
30085W        W 3153  42.985  20.966   0.526
30086W        W 3154  39.090  31.328  12.510
30087W        W 3155  25.222   9.802   4.174
30088W        W 3156   3.269  10.791  11.880
30089W        W 3157  24.902  42.080  13.894
30090W        W 3158  15.789  37.282   1.853
30091W        W 3159   8.368   1.425   1.889
30092W        W 3160   2.980  13.470  14.454
30093W        W 3161   2.841  24.111  11.224
30094W        W 3162  36.405  15.790   3.480
30095W        W 3163  34.887  31.025   1.626
30096W        W 3164   3.494   2.373  14.787
30097W        W 3165  13.214   4.533   1.000
30098W        W 3166  39.248  28.924  14.434
30099W        W 3167  25.941   0.661  13.149
30100W        W 3168   5.792  29.527   1.404
30101W        W 3169  22.785  29.642   0.331
30102W        W 3170   9.265  21.180   2.864
30103W        W 3171  33.423  19.533   2.378
30104W        W 3172  24.941   5.446   4.652
30105W        W 3173  29.210  25.154  12.365
30106W        W 3174  28.941   0.706   2.187
30107W        W 3175  22.305  29.193   4.762
30108W        W 3176  11.315  14.231   4.583
30109W        W 3177  10.172  13.067   4.359
30110W        W 3178   9.903  28.318  11.077
30111W        W 3179   8.166   8.201   0.194
30112W        W 3180   0.902  44.027   0.888
30113W        W 3181   3.963  35.185   2.749
30114W        W 3182  12.328  24.987  12.054
30115W        W 3183  16.913  11.760   2.599
30116W        W 3184  11.233  42.431   1.340
30117W        W 3185  13.223  40.051   2.622
30118W        W 3186  11.969  14.290  12.361
30119W        W 3187  28.481   5.186  14.757
30120W        W 3188  24.876  35.895   2.233
30121W        W 3189   2.305  19.640   2.175
30122W        W 3190  44.792  41.253   1.809
30123W        W 3191  39.550   6.159  10.294
30124W        W 3192  24.156   7.705   2.335
30125W        W 3193  33.488  34.439  14.299
30126W        W 3194  24.738  27.918  12.034
30127W        W 3195   6.139  39.040   3.102
30128W        W 3196  29.467  42.801  11.100
30129W        W 3197   5.597  32.028  11.160
30130W        W 3198  34.611   2.332  13.364
30131W        W 3199  12.746  10.401  11.500
30132W        W 3200  43.459  39.503   4.040
30133W        W 3201  13.851  16.534   0.903
30134W        W 3202  36.436   4.125   2.302
30135W        W 3203  12.567  33.646   2.270
30136W        W 3204  32.130  42.837  12.054
30137W        W 3205  11.877  33.169  12.720
30138W        W 3206   8.320  31.865   2.390
30139W        W 3207  32.436  13.202  10.774
30140W        W 3208  20.469  13.348  14.467
30141W        W 3209  18.684  33.819  13.352
30142W        W 3210   0.422  34.563   2.470
30143W        W 3211   3.849  20.230   4.102
30144W        W 3212  30.217  24.254   2.446
30145W        W 3213   9.376  16.774   3.269
30146W        W 3214  24.000  12.462   1.955
30147W        W 3215   3.487  41.450   2.148
30148W        W 3216   9.824  37.594   5.180
30149W        W 3217   6.659  25.192   4.206
30150W        W 3218   0.319   8.735   4.154
30151W        W 3219  20.707  20.201   2.293
30152W        W 3220  20.531  40.067   4.849
30153W        W 3221  13.866  20.077  14.300
30154W        W 3222   6.269   0.716   0.446
30155W        W 3223  34.812  24.265   0.062
30156W        W 3224  35.001  11.135   0.320
30157W        W 3225  38.077  22.214   4.856
30158W        W 3226  24.005  38.566   3.589
30159W        W 3227  31.116  35.619  10.555
30160W        W 3228   0.783  27.378  14.520
30161W        W 3229   8.151  37.200  11.852
30162W        W 3230   2.249   3.264   0.893
30163W        W 3231  24.544   6.905  12.534
30164W        W 3232  42.581  27.212   0.664
30165W        W 3233  40.952  17.297   4.223
30166W        W 3234  40.294   4.683  10.446
30167W        W 3235  36.004  25.706  11.267
30168W        W 3236  11.305  23.576  14.431
30169W        W 3237  38.738  27.985   0.859
30170W        W 3238   5.034  15.623  14.731
30171W        W 3239  20.762  21.537  11.757
30172W        W 3240  12.267  12.759  14.017
30173W        W 3241  19.399   4.794   0.739
30174W        W 3242   1.962  21.025   4.037
30175W        W 3243  10.609   8.751  13.270
30176W        W 3244  37.886  40.895   3.132
30177W        W 3245  42.000  30.338   5.030
30178W        W 3246  32.318  18.135  12.474
30179W        W 3247  27.512   0.236   1.279
30180W        W 3248  24.537  13.100  12.970
30181W        W 3249  35.207   4.316   4.512
30182W        W 3250  21.675   3.279   1.293
30183W        W 3251  14.640  34.496  14.220
30184W        W 3252  37.849  35.045  12.495
30185W        W 3253  22.386   8.161  12.315
30186W        W 3254  36.876  20.526   2.777
30187W        W 3255  40.525  15.178  10.267
30188W        W 3256   4.262  26.513  14.764
30189W        W 3257  30.789  42.362   3.377
30190W        W 3258  12.643  36.481  11.971
30191W        W 3259  33.964  37.421  14.359
30192W        W 3260  34.629  22.651  10.696
30193W        W 3261  42.462  13.306  14.049
30194W        W 3262   1.939   6.591  14.574
30195W        W 3263  20.797  25.253  12.987
30196W        W 3264  24.336  42.703  13.442
30197W        W 3265  33.371  11.689   4.133
30198W        W 3266  38.969  17.085  11.959
30199W        W 3267   7.254  24.631  13.405
30200W        W 3268  34.301  38.917  11.641
30201W        W 3269  28.417   2.688  12.353
30202W        W 3270  31.390  41.915  12.548
30203W        W 3271   7.684   1.956   1.620
30204W        W 3272  40.004  23.623   4.893
30205W        W 3273   4.167  33.084   4.322
30206W        W 3274   8.309  40.292   5.041
30207W        W 3275  23.036  16.612  11.568
30208W        W 3276  22.298  13.546   2.145
30209W        W 3277  13.655  22.269   1.304
30210W        W 3278   4.259   9.838   2.359
30211W        W 3279  22.371  25.733   3.409
30212W        W 3280  25.474  22.705  11.519
30213W        W 3281  11.164  33.126  11.507
30214W        W 3282  11.104  16.388   0.295
30215W        W 3283  29.252  43.498   2.744
30216W        W 3284  17.338  37.264  14.160
30217W        W 3285  17.729  17.198   4.608
30218W        W 3286  19.871  33.477  11.557
30219W        W 3287  30.788  10.690  12.308
30220W        W 3288   7.204  20.071  14.592
30221W        W 3289  13.685  28.391  11.677
30222W        W 3290   6.180   9.257  14.210
30223W        W 3291  25.971   7.014   2.917
30224W        W 3292  31.965  11.734   0.480
30225W        W 3293   6.140  31.090  14.768
30226W        W 3294  32.607  39.024   1.310
30227W        W 3295   9.520  19.824   1.892
30228W        W 3296  35.699  25.176  12.408
30229W        W 3297  27.080  25.642  14.245
30230W        W 3298  25.687  33.414   1.767
30231W        W 3299  42.157   1.471  13.759
30232W        W 3300   0.421  21.094  13.263
30233W        W 3301  20.179  20.581  13.396
30234W        W 3302  27.483   1.977   2.285
30235W        W 3303  31.723  36.017  11.827
30236W        W 3304  27.205  37.425   3.265
30237W        W 3305  18.108  22.339  11.820
30238W        W 3306  32.871  41.589  14.475
30239W        W 3307  30.206  31.436  13.401
30240W        W 3308  10.413  39.911  10.564
30241W        W 3309  42.385  16.776   1.160
30242W        W 3310   1.644   6.766  13.485
30243W        W 3311   1.745  22.483   0.549
30244W        W 3312   4.305  31.227   4.237
30245W        W 3313  25.403  37.138  11.203
30246W        W 3314  27.492  34.698   2.173
30247W        W 3315  43.252   3.292  13.484
30248W        W 3316  11.097  21.340  11.318
30249W        W 3317   2.463  27.504  10.586
30250W        W 3318  38.241  27.643  14.922
30251W        W 3319  35.084   4.232   1.296
30252W        W 3320  26.198   3.746   1.860
30253W        W 3321  36.276   1.733   3.790
30254W        W 3322  23.072  13.115   1.981
30255W        W 3323  41.907  34.103  12.589
30256W        W 3324  18.086  15.125   2.799
30257W        W 3325  37.837   5.535   0.442
30258W        W 3326  27.461  20.000   4.185
30259W        W 3327  21.291  11.473   0.038
30260W        W 3328  43.002   1.454  10.731
30261W        W 3329   8.831  38.488  10.830
30262W        W 3330   9.709   2.477   0.652
30263W        W 3331  17.201  12.981  14.201
30264W        W 3332  27.017  44.805  14.918
30265W        W 3333  36.179  23.775   0.191
30266W        W 3334   1.759  43.274  11.601
30267W        W 3335  25.118  25.927  14.468
30268W        W 3336  31.544   4.965   4.299
30269W        W 3337  30.972   6.679  11.526
30270W        W 3338  15.103  34.802   0.159
30271W        W 3339  34.853   4.834   1.152
30272W        W 3340  44.281  39.085   3.677
30273W        W 3341  16.777  35.339   0.436
30274W        W 3342  30.618  25.675  12.057
30275W        W 3343   9.259   5.803   3.540
30276W        W 3344  28.569   8.983   3.322
30277W        W 3345  18.014   6.566   2.781
30278W        W 3346   0.140  36.810  11.564
30279W        W 3347  43.510   9.752  14.495
30280W        W 3348   3.346  26.562   4.181
30281W        W 3349  39.127   2.435   2.329
30282W        W 3350  32.794  21.719   4.548
30283W        W 3351  20.237  42.445   0.893
30284W        W 3352   8.315  19.727   2.593
30285W        W 3353  17.863  19.085   3.882
30286W        W 3354  11.212  44.409   3.703
30287W        W 3355  11.387   2.402   0.659
30288W        W 3356  14.991  35.303   0.341
30289W        W 3357   8.648  36.171  14.298
30290W        W 3358  10.597  18.748  12.117
30291W        W 3359  38.847  42.849  12.975
30292W        W 3360  23.114  12.322   1.921
30293W        W 3361  28.945  26.483  13.404
30294W        W 3362  11.649  12.258  12.330
30295W        W 3363   9.340  31.094  12.331
30296W        W 3364  29.016  36.791  11.964
30297W        W 3365  40.512   7.184   1.205
30298W        W 3366  12.335   6.694  13.001
30299W        W 3367  26.594  10.669  10.153
30300W        W 3368  28.041  34.064   2.483
30301W        W 3369  11.351  26.393   3.132
30302W        W 3370  22.282  29.887  11.569
30303W        W 3371  43.996  28.666   2.155
30304W        W 3372   8.240  12.890   3.313
30305W        W 3373  10.065  30.399   4.580
30306W        W 3374  27.688   8.393   1.826
30307W        W 3375  40.131  37.389   0.443
30308W        W 3376  19.856  38.044   3.234
30309W        W 3377  30.037   7.779  12.602
30310W        W 3378  36.786  36.316  13.456
30311W        W 3379  26.179  32.120   2.895
30312W        W 3380   5.844  20.769   0.771
30313W        W 3381  18.172  32.623  11.421
30314W        W 3382  20.229   5.036  14.848
30315W        W 3383   7.420  38.855  14.383
30316W        W 3384   8.300  27.213   1.829
30317W        W 3385  34.387   2.752   1.809
30318W        W 3386  41.998   9.190  14.417
30319W        W 3387  22.921  26.556  11.193
30320W        W 3388  23.640  42.000   0.587
30321W        W 3389  32.618   6.925  11.526
30322W        W 3390  25.015  44.339   5.070
30323W        W 3391  16.712  41.026  12.120
30324W        W 3392  37.390  26.240  14.226
30325W        W 3393  37.026   7.763  12.059
30326W        W 3394  17.313  36.402  12.298
30327W        W 3395  13.437  30.432   2.045
30328W        W 3396   4.799  31.179  11.522
30329W        W 3397   6.128  20.775   2.721
30330W        W 3398  13.697  24.552   2.177
30331W        W 3399  26.700  25.572   1.519
30332W        W 3400  22.217  24.633  12.394
30333W        W 3401   5.913  24.662   4.111
30334W        W 3402   7.229  33.580  12.060
30335W        W 3403  40.314  14.347  12.698
30336W        W 3404   8.331  10.702  13.802
30337W        W 3405   8.884   6.007   3.228
30338W        W 3406  21.187   0.863  13.865
30339W        W 3407  40.292  28.419  11.250
30340W        W 3408  31.317  20.263   0.199
30341W        W 3409  14.896   7.784  14.768
30342W        W 3410  31.707  11.342  11.248
30343W        W 3411  32.935   5.619  13.345
30344W        W 3412  33.869  43.844   3.658
30345W        W 3413  12.247  13.122   1.751
30346W        W 3414  17.660  20.581  12.904
30347W        W 3415  22.946  11.709   4.552
30348W        W 3416  15.672  24.351  11.435
30349W        W 3417  24.719  11.520   0.435
30350W        W 3418  14.778  38.863   4.197
30351W        W 3419   9.901  36.845   1.250
30352W        W 3420  31.092   6.830   3.507
30353W        W 3421  25.597  27.916  14.841
30354W        W 3422  43.075  16.604  11.626
30355W        W 3423  42.275  14.726   3.628
30356W        W 3424  32.727   9.289   3.228
30357W        W 3425  41.641  36.621  12.609
30358W        W 3426  15.652  17.272  13.024
30359W        W 3427  44.255  39.072   1.798
30360W        W 3428  20.947  35.167  13.514
30361W        W 3429  13.810   6.183   2.172
30362W        W 3430  34.726   7.863   2.842
30363W        W 3431  34.499  17.779   0.710
30364W        W 3432  22.717  39.857  14.881
30365W        W 3433  38.380  16.799  13.093
30366W        W 3434   0.490  33.547  11.651
30367W        W 3435  22.736  11.854  12.485
30368W        W 3436  40.466  28.026  11.550
30369W        W 3437  37.407  36.765  11.004
30370W        W 3438   0.355  31.973  13.396
30371W        W 3439  30.574  35.975   0.187
30372W        W 3440  22.139   6.721  13.013
30373W        W 3441  17.504   2.570  13.550
30374W        W 3442  16.746  30.861  11.939
30375W        W 3443  18.343  39.835   0.606
30376W        W 3444  43.545  18.000  13.951
30377W        W 3445  27.630   6.395  14.839
30378W        W 3446  12.336   5.206  14.941
30379W        W 3447   4.997  43.354   3.523
30380W        W 3448  35.796   9.210  13.973
30381W        W 3449  25.665  22.671   2.809
30382W        W 3450  33.812  40.274   2.709
30383W        W 3451  16.784   4.910   0.459
30384W        W 3452  10.283  44.070   2.851
30385W        W 3453  13.786  20.315   3.721
30386W        W 3454  10.729  44.855  11.461
30387W        W 3455  12.914   3.138  11.695
30388W        W 3456  25.525   2.137   1.718
30389W        W 3457  28.319   9.813  14.366
30390W        W 3458  41.822  21.897   2.000
30391W        W 3459   2.278   8.227  11.367
30392W        W 3460  27.073  43.321   4.247
30393W        W 3461   0.486  44.230  10.055
30394W        W 3462  32.989  43.330   1.376
30395W        W 3463  42.706  23.642   3.877
30396W        W 3464  10.661  28.159   1.302
30397W        W 3465   1.501  19.332  11.079
30398W        W 3466  35.196  23.611  10.781
30399W        W 3467  42.383   4.486   3.720
30400W        W 3468  18.913  35.373   2.777
30401W        W 3469  32.417  44.892   0.898
30402W        W 3470   5.412   5.337  12.067
30403W        W 3471  20.132  13.242  10.326
30404W        W 3472  34.992   6.437   1.803
30405W        W 3473  41.371  33.536   4.551
30406W        W 3474  40.709   2.100  10.429
30407W        W 3475  34.794   2.369  11.867
30408W        W 3476  23.053   0.688   1.871
30409W        W 3477  14.141  43.843  12.357
30410W        W 3478   4.688  35.091   1.291
30411W        W 3479  15.100   6.981  12.539
30412W        W 3480  41.377  23.117   2.588
30413W        W 3481   6.927  15.144   1.874
30414W        W 3482  41.917  27.700  12.361
30415W        W 3483   6.865  22.322  14.990
30416W        W 3484  31.937  33.841  14.669
30417W        W 3485   4.845  17.918  10.905
30418W        W 3486  28.866  38.890   3.576
30419W        W 3487  23.741  15.334  11.443
30420W        W 3488  41.229  16.844   1.956
30421W        W 3489  39.332  39.326  14.884
30422W        W 3490  43.319  28.304   2.637
30423W        W 3491   9.695  28.470   1.911
30424W        W 3492   8.406  14.709  11.565
30425W        W 3493  42.506   9.768  14.728
30426W        W 3494  33.516  18.755   2.846
30427W        W 3495  32.197   5.406   2.147
30428W        W 3496  19.520   7.924   4.076
30429W        W 3497  17.029  41.885   2.749
30430W        W 3498  38.602  13.196  11.097
30431W        W 3499  14.084  37.251   3.310
30432W        W 3500  17.151  17.673   2.801
30433W        W 3501   7.699  37.229   2.781
30434W        W 3502  17.570   9.329   1.841
30435W        W 3503  36.990   8.819  12.339
30436W        W 3504  41.590   8.813  12.195
30437W        W 3505  24.635  10.863   4.333
30438W        W 3506  38.876   4.964   5.226
30439W        W 3507  35.400  42.950  14.113
30440W        W 3508  30.721  32.061  12.906
30441W        W 3509  11.952  10.334  12.600
30442W        W 3510   4.027  31.944   0.737
30443W        W 3511  25.455  11.119  13.415
30444W        W 3512  35.393  18.869   4.846
30445W        W 3513  13.194  10.109   4.902
30446W        W 3514  42.242  36.101   4.528
30447W        W 3515  33.763  28.324  12.704
30448W        W 3516  40.923  20.765   2.269
30449W        W 3517   1.257  10.366  12.988
30450W        W 3518  13.115   7.769   1.055
30451W        W 3519  24.169   6.030  12.539
30452W        W 3520  13.205  43.751  13.410
30453W        W 3521  16.022   3.361   1.870
30454W        W 3522   6.298  32.272   0.272
30455W        W 3523  11.810   5.335   4.267
30456W        W 3524  10.705  20.375   0.584
30457W        W 3525   3.149  27.047   4.123
30458W        W 3526   9.749  12.315   2.795
30459W        W 3527   5.723  36.508  12.080
30460W        W 3528  10.275  32.176  13.455
30461W        W 3529   9.119  35.605   1.389
30462W        W 3530  40.343  10.679   3.779
30463W        W 3531   2.882  15.241   2.443
30464W        W 3532  26.129  13.274   3.139
30465W        W 3533   4.489  37.421  14.415
30466W        W 3534   3.191   2.788  14.886
30467W        W 3535  31.564  25.194   5.014
30468W        W 3536  44.831   1.986  14.424
30469W        W 3537  34.838   3.246  10.233
30470W        W 3538  35.281  30.418  11.065
30471W        W 3539  40.441   3.229   1.302
30472W        W 3540  22.564  10.220  13.104
30473W        W 3541  28.572   5.649  10.755
30474W        W 3542  41.237  33.618   3.543
30475W        W 3543  32.619  36.040  12.504
30476W        W 3544  22.737  13.077   4.412
30477W        W 3545   4.885  37.889  11.704
30478W        W 3546  22.458  19.269   5.039
30479W        W 3547  22.477  29.648  13.348
30480W        W 3548  22.449   9.891  14.088
30481W        W 3549  18.664  20.020  14.210
30482W        W 3550  13.708  13.177   4.131
30483W        W 3551   0.848  17.372   4.175
30484W        W 3552  27.887  35.085   2.328
30485W        W 3553   3.338  29.019  14.367
30486W        W 3554  23.008  22.216  10.704
30487W        W 3555  10.443   7.745  10.895
30488W        W 3556  20.640  12.087  14.081
30489W        W 3557  11.372  44.290  10.555
30490W        W 3558  10.211  20.281   4.660
30491W        W 3559  39.397   5.191   1.421
30492W        W 3560  40.298  38.947  12.955
30493W        W 3561  19.137  28.960   3.875
30494W        W 3562  13.123  38.413   3.691
30495W        W 3563  23.712  36.640  12.306
30496W        W 3564   2.686  28.661   4.919
30497W        W 3565   5.995  12.342  10.769
30498W        W 3566  17.577  32.377   2.479
30499W        W 3567  35.307  32.298  12.769
30500W        W 3568  32.645  18.035  13.324
30501W        W 3569  15.756   4.850   0.187
30502W        W 3570  13.309  32.981  10.504
30503W        W 3571  31.256  30.680  12.138
30504W        W 3572  16.562  42.558   3.772
30505W        W 3573  22.742   9.272  11.933
30506W        W 3574  43.998  39.366   4.008
30507W        W 3575  31.117  36.006  11.080
30508W        W 3576  42.837  13.150   1.015
30509W        W 3577   6.699   3.626   3.271
30510W        W 3578   8.581  36.924  11.742
30511W        W 3579  18.311   3.199  14.850
30512W        W 3580  29.354   6.499   3.752
30513W        W 3581   2.033  34.866   1.391
30514W        W 3582  15.715  17.122   4.345
30515W        W 3583   8.102  21.831  11.629
30516W        W 3584  35.578   5.261   3.680
30517W        W 3585   5.190  11.081   1.563
30518W        W 3586  25.922   9.213   3.096
30519W        W 3587  19.771   1.729   1.707
30520W        W 3588  13.818  40.327   2.349
30521W        W 3589  37.691  33.336  14.078
30522W        W 3590  17.343  22.481  11.635
30523W        W 3591  27.672  31.096  14.299
30524W        W 3592   3.458   1.056   2.859
30525W        W 3593  12.355  18.847  13.417
30526W        W 3594  29.549  27.574   2.158
30527W        W 3595  42.280  37.129  11.084
30528W        W 3596  30.423  40.918   3.647
30529W        W 3597  33.148  37.872   2.695
30530W        W 3598  29.050  13.806   2.402
30531W        W 3599  16.471   9.942   0.906
30532W        W 3600  26.511   5.822   1.649
30533W        W 3601  19.758  14.756   1.348
30534W        W 3602   2.923  26.305  10.345
30535W        W 3603  26.705  14.645  14.351
30536W        W 3604  26.748  10.371  11.137
30537W        W 3605  12.110  16.312   9.842
30538W        W 3606  34.587  30.511   4.114
30539W        W 3607  12.857   0.954  13.605
30540W        W 3608  43.626  32.643   0.811
30541W        W 3609  34.609  44.990  10.721
30542W        W 3610  23.678  11.818  10.784
30543W        W 3611  33.932  18.539  10.602
30544W        W 3612   3.392   5.078   5.145
30545W        W 3613  21.289   3.077  14.956
30546W        W 3614  31.544  32.960  14.351
30547W        W 3615  37.180   5.559  14.365
30548W        W 3616  38.215  40.889   4.582
30549W        W 3617   0.988  44.797   3.309
30550W        W 3618  28.621   1.913   1.652
30551W        W 3619  33.513  34.565   1.482
30552W        W 3620  21.585  21.747  11.460
30553W        W 3621  31.662   0.027  14.336
30554W        W 3622  11.851  32.370  14.216
30555W        W 3623   9.737  11.022   2.803
30556W        W 3624  33.347  34.629  11.110
30557W        W 3625  31.499  42.354   4.731
30558W        W 3626  44.286   3.274  11.979
30559W        W 3627  33.534  21.300   1.441
30560W        W 3628  27.393   9.844   4.933
30561W        W 3629   2.046  34.339  11.925
30562W        W 3630   5.843   0.258   2.227
30563W        W 3631  26.393  16.731  12.584
30564W        W 3632   1.746  39.831  14.937
30565W        W 3633  38.082  23.067  14.981
30566W        W 3634  13.934  12.267   1.265
30567W        W 3635  12.204   2.940  10.598
30568W        W 3636  13.527  34.079   2.166
30569W        W 3637  26.479  31.451  12.701
30570W        W 3638  27.741  41.480  12.967
30571W        W 3639   4.015   6.386   3.113
30572W        W 3640  36.542  12.673   3.691
30573W        W 3641  26.566  32.135   0.928
30574W        W 3642  42.917  40.652  12.608
30575W        W 3643  26.607  18.229  14.821
30576W        W 3644   1.764   2.354  11.025
30577W        W 3645  40.309  42.250   2.478
30578W        W 3646  23.743  23.189   1.474
30579W        W 3647  31.404  11.093   0.091
30580W        W 3648  13.036  12.267  10.307
30581W        W 3649  32.038  35.144   0.521
30582W        W 3650  36.428  24.974   0.519
30583W        W 3651  34.552  18.057  12.462
30584W        W 3652  11.365   2.690   1.440
30585W        W 3653  39.547  31.152  12.359
30586W        W 3654  31.377  35.442   4.226
30587W        W 3655  30.996   8.921  13.839
30588W        W 3656   3.087  37.966  12.057
30589W        W 3657  29.119  23.647   1.915
30590W        W 3658  19.028  10.412   0.223
30591W        W 3659  11.809   3.687  11.936
30592W        W 3660  25.981  43.966  10.628
30593W        W 3661  28.566  19.213   0.263
30594W        W 3662  24.138  15.560   0.872
30595W        W 3663  32.490  38.286   4.614
30596W        W 3664  43.815   4.509   1.649
30597W        W 3665  24.902   2.712   2.832
30598W        W 3666  39.314  21.969  12.962
30599W        W 3667  32.897   7.114  13.906
30600W        W 3668  21.039  41.243  13.790
30601W        W 3669  19.075   3.907  13.810
30602W        W 3670  44.445   3.775  11.130
30603W        W 3671   5.331  10.079  14.851
30604W        W 3672  11.185  40.307  11.687
30605W        W 3673   7.886   2.914   2.143
30606W        W 3674  13.342  25.823  11.165
30607W        W 3675  39.421  13.703   4.159
30608W        W 3676   5.168   8.228   4.861
30609W        W 3677  13.512  28.169  12.578
30610W        W 3678  33.624  43.592  13.893
30611W        W 3679  13.009  15.713  11.581
30612W        W 3680  44.975  34.385   2.215
30613W        W 3681   4.722  25.687   3.711
30614W        W 3682  22.766  21.017   1.412
30615W        W 3683  37.614   0.702   0.495
30616W        W 3684  40.961  32.973   0.365
30617W        W 3685  28.529  40.272  12.507
30618W        W 3686  38.656   9.818  12.123
30619W        W 3687  19.020  10.165   4.954
30620W        W 3688  36.602  12.570  13.111
30621W        W 3689  39.667   1.006   1.916
30622W        W 3690  33.151  18.642  12.064
30623W        W 3691  11.451   3.790   2.404
30624W        W 3692  17.779  22.301  13.128
30625W        W 3693   8.833   1.329  14.715
30626W        W 3694   9.353   1.467   2.732
30627W        W 3695   8.286  35.261   2.364
30628W        W 3696  29.042  17.251  13.824
30629W        W 3697  28.141  12.792   2.199
30630W        W 3698  19.079  41.253   1.479
30631W        W 3699  13.873  42.807  12.904
30632W        W 3700  30.453  38.004   0.281
30633W        W 3701  24.407   0.435   0.277
30634W        W 3702  42.027  42.247  10.919
30635W        W 3703  33.069  39.272  11.142
30636W        W 3704  15.712   8.691  12.675
30637W        W 3705  44.003   0.231   0.456
30638W        W 3706  27.190  40.776  13.447
30639W        W 3707  34.103   9.127   4.364
30640W        W 3708  35.121  23.176   0.411
30641W        W 3709   2.509  26.386   3.698
30642W        W 3710  10.288  30.080  12.451
30643W        W 3711   2.611  36.884  13.463
30644W        W 3712   6.283   5.346   3.236
30645W        W 3713  14.093  29.150  12.509
30646W        W 3714  17.547  23.370  11.176
30647W        W 3715   2.806  38.647  11.436
30648W        W 3716  27.236  43.447  13.994
30649W        W 3717   8.605  37.471   3.057
30650W        W 3718  15.346  20.047   2.729
30651W        W 3719  38.505  25.305  14.206
30652W        W 3720  20.063  28.908   3.836
30653W        W 3721   8.274   2.406  14.296
30654W        W 3722  10.662  42.860   1.121
30655W        W 3723  10.642  17.910  10.670
30656W        W 3724  36.046  32.883   1.889
30657W        W 3725   4.474  11.772   0.702
30658W        W 3726  22.341  24.491  10.575
30659W        W 3727  18.133   5.119   2.934
30660W        W 3728  41.407  35.665   2.213
30661W        W 3729  11.818  44.283   4.332
30662W        W 3730   4.283  40.935  14.660
30663W        W 3731  14.139   5.722  11.937
30664W        W 3732  28.610  23.126   0.844
30665W        W 3733  33.362  21.712   3.273
30666W        W 3734   1.713  21.671   4.046
30667W        W 3735   2.480  25.220  14.532
30668W        W 3736  31.495  31.641   1.636
30669W        W 3737  29.652  16.105   0.868
30670W        W 3738   4.487  19.319  11.137
30671W        W 3739  17.081  12.716   1.652
30672W        W 3740  42.907  37.756   2.706
30673W        W 3741  12.361  35.935   3.079
30674W        W 3742  14.994  43.060  14.373
30675W        W 3743  32.477  19.668  10.838
30676W        W 3744  33.109  20.295  13.437
30677W        W 3745  25.001  15.271   4.092
30678W        W 3746   0.378  10.735   3.793
30679W        W 3747   8.224  38.542   0.491
30680W        W 3748  38.763  15.150  14.499
30681W        W 3749  36.832  10.220   2.879
30682W        W 3750  22.342  36.267   1.852
30683W        W 3751  38.327  29.156  13.429
30684W        W 3752  22.311  29.383  11.587
30685W        W 3753  44.932  43.480  11.243
30686W        W 3754  29.626  14.027   1.619
30687W        W 3755   6.239  24.930   4.498
30688W        W 3756  28.493  40.867  14.836
30689W        W 3757  15.735   4.528   5.349
30690W        W 3758  22.719  32.509  12.206
30691W        W 3759  12.717  17.541  12.562
30692W        W 3760  24.239  21.161  11.253
30693W        W 3761  39.000  28.394   3.052
30694W        W 3762  15.965  16.161  14.480
30695W        W 3763  31.617   5.170  14.022
30696W        W 3764  43.131   1.385   0.257
30697W        W 3765  14.246  44.386  11.191
30698W        W 3766   1.266   2.903   0.350
30699W        W 3767   9.853  10.723  10.642
30700W        W 3768  39.085  41.462   4.555
30701W        W 3769  19.099  34.869   4.117
30702W        W 3770  36.036  25.369   3.621
30703W        W 3771  34.974  30.442   5.060
30704W        W 3772   4.714  27.202   3.522
30705W        W 3773  32.362  44.665  12.233
30706W        W 3774   3.733   2.502   0.272
30707W        W 3775   4.123  40.361   2.795
30708W        W 3776  43.444  38.533   4.469
30709W        W 3777  22.774   6.724  13.914
30710W        W 3778  38.455  21.281  14.836
30711W        W 3779  42.049  17.492  12.002
30712W        W 3780  32.440   3.328  14.013
30713W        W 3781  39.748   1.365   0.928
30714W        W 3782  13.843  41.368   4.256
30715W        W 3783   1.713  23.451  11.594
30716W        W 3784  16.755  32.348   3.812
30717W        W 3785  21.623  11.299  13.560
30718W        W 3786  10.247  37.988   1.966
30719W        W 3787  11.211  25.687   1.841
30720W        W 3788  44.341   9.329  10.490
30721W        W 3789  32.153  33.843  12.168
30722W        W 3790  10.854  24.758   4.763
30723W        W 3791  19.769  33.044  13.377
30724W        W 3792  42.359  40.721   0.880
30725W        W 3793   6.408  26.101   1.854
30726W        W 3794   7.271  26.992   0.261
30727W        W 3795   7.797   8.814  12.028
30728W        W 3796  40.015  39.070   3.216
30729W        W 3797  15.083  40.772  10.774
30730W        W 3798  19.076   1.695  14.113
30731W        W 3799  27.132  14.770   4.532
30732W        W 3800  39.879   9.982   3.201
30733W        W 3801  22.315  34.916  13.817
30734W        W 3802  39.700  44.932   1.587
30735W        W 3803  38.998  23.422  14.512
30736W        W 3804  26.681  12.605   2.132
30737W        W 3805  33.959  10.686   4.505
30738W        W 3806  14.406  10.205  13.477
30739W        W 3807  18.215  42.397   1.370
30740W        W 3808  20.671  24.213   4.273
30741W        W 3809   5.694  33.606  10.687
30742W        W 3810  25.276  35.763   4.161
30743W        W 3811  33.109  35.486  12.640
30744W        W 3812  26.596  15.622  12.005
30745W        W 3813  17.032  15.633  10.740
30746W        W 3814  27.664  11.004  13.053
30747W        W 3815   3.863  28.197  11.135
30748W        W 3816  16.681  41.458   4.296
30749W        W 3817  11.090  27.169  11.702
30750W        W 3818  24.439  23.606   1.058
30751W        W 3819  24.290  36.580   3.225
30752W        W 3820  23.950   4.024   4.009
30753W        W 3821  30.652  30.333  14.319
30754W        W 3822  43.135   8.070   0.450
30755W        W 3823   7.834   8.444   2.817
30756W        W 3824   6.205  23.503  13.340
30757W        W 3825  10.266  36.106   3.347
30758W        W 3826  32.660  19.717   2.042
30759W        W 3827  30.941  34.628  12.490
30760W        W 3828  15.325  27.359  10.836
30761W        W 3829  36.495   0.356   3.102
30762W        W 3830  37.511  38.033  13.344
30763W        W 3831   9.355  21.746  12.013
30764W        W 3832  28.940  12.708   3.806
30765W        W 3833   7.171  34.928   3.650
30766W        W 3834  17.457  21.643  11.165
30767W        W 3835   2.295  29.562   0.317
30768W        W 3836  18.603  15.198   2.822
30769W        W 3837  19.930  35.797  14.927
30770W        W 3838  10.596  42.316   0.371
30771W        W 3839   0.005  17.010   4.093
30772W        W 3840  39.464   5.944   3.062
30773W        W 3841  11.492  10.956  11.523
30774W        W 3842  28.543  44.565   2.504
30775W        W 3843  40.864   9.752   2.468
30776W        W 3844  23.188  41.318  13.079
30777W        W 3845  26.346   0.634  13.835
30778W        W 3846  14.607   5.729  13.069
30779W        W 3847  23.400   0.178  12.192
30780W        W 3848  18.792  24.103   1.819
30781W        W 3849  10.700  23.402   1.190
30782W        W 3850   2.315  39.863   3.162
30783W        W 3851  40.526  41.779   4.574
30784W        W 3852  25.272  25.158  12.826
30785W        W 3853  39.350   7.024   2.315
30786W        W 3854  21.036  25.439   4.476
30787W        W 3855  35.903   3.993  12.896
30788W        W 3856  30.070  31.929   3.812
30789W        W 3857  30.315  21.494  10.979
30790W        W 3858  15.741  24.709   4.438
30791W        W 3859   6.346   6.881   0.330
30792W        W 3860   2.787  31.327  11.610
30793W        W 3861  20.129   5.214   1.720
30794W        W 3862   3.400  43.409  14.258
30795W        W 3863   8.770  42.625   4.946
30796W        W 3864  13.759  13.079  11.196
30797W        W 3865  10.875  36.900   0.496
30798W        W 3866  20.781  24.927  14.470
30799W        W 3867  28.710   2.079   0.648
30800W        W 3868  19.285  28.568  14.448
30801W        W 3869  20.699  44.883  10.669
30802W        W 3870   0.906  39.643  12.061
30803W        W 3871  18.329   9.857   3.735
30804W        W 3872   0.330   0.506   3.321
30805W        W 3873  34.161  37.487   5.064
30806W        W 3874  39.478  20.639  12.337
30807W        W 3875  20.076  30.446   2.083
30808W        W 3876  27.558  34.435  13.552
30809W        W 3877  25.169  11.357   0.249
30810W        W 3878  29.353  39.138   3.678
30811W        W 3879  17.293  42.556   4.152
30812W        W 3880  25.477  11.918   0.739
30813W        W 3881  41.587   8.162   3.165
30814W        W 3882  33.041   5.875   2.660
30815W        W 3883  39.592   8.306  13.986
30816W        W 3884  18.393  39.507  12.212
30817W        W 3885  12.069  23.788   3.458
30818W        W 3886   2.687  17.078   3.660
30819W        W 3887   0.514  33.590   0.473
30820W        W 3888  10.379  19.274   4.653
30821W        W 3889  27.891  15.046   3.410
30822W        W 3890  26.582  15.423   4.100
30823W        W 3891   9.991  38.735  11.384
30824W        W 3892  36.552   9.890   1.055
30825W        W 3893  12.884  14.085  12.631
30826W        W 3894  34.264  38.811   2.859
30827W        W 3895  44.872   6.958   0.317
30828W        W 3896  30.539  17.669  12.303
30829W        W 3897  13.763  33.162  12.131
30830W        W 3898   9.746  30.094   0.776
30831W        W 3899  31.639  32.380   2.894
30832W        W 3900   2.595   5.770  13.312
30833W        W 3901  34.796  20.786   0.668
30834W        W 3902  27.477   3.284   3.693
30835W        W 3903  24.560  12.572  10.471
30836W        W 3904  26.040  12.530   9.776
30837W        W 3905   8.112   1.032   0.600
30838W        W 3906   5.650   3.873  14.325
30839W        W 3907  34.852  37.416  12.376
30840W        W 3908  25.426  16.074  12.434
30841W        W 3909  43.010  29.325   0.338
30842W        W 3910   4.984  27.204   0.865
30843W        W 3911  33.399  16.235  13.755
30844W        W 3912  44.753  30.952  14.551
30845W        W 3913  28.737  24.073  11.988
30846W        W 3914   3.710  35.615   1.824
30847W        W 3915   8.305   4.677   1.861
30848W        W 3916  44.638  39.016  13.987
30849W        W 3917   7.905   8.695  11.425
30850W        W 3918  13.980  35.322  13.484
30851W        W 3919  29.500  28.390  13.432
30852W        W 3920  17.078   0.924   3.541
30853W        W 3921  33.909  30.961   4.413
30854W        W 3922  18.238  10.453  13.992
30855W        W 3923  32.616  15.125   2.342
30856W        W 3924   9.178  39.442   3.747
30857W        W 3925  34.722  38.491   3.155
30858W        W 3926  34.801  43.253  11.063
30859W        W 3927  43.335  11.722  14.626
30860W        W 3928   2.638   9.361   4.200
30861W        W 3929   1.324  10.123  13.433
30862W        W 3930  16.141  35.116   1.156
30863W        W 3931  26.068  23.055  14.797
30864W        W 3932  36.341  33.797  13.895
30865W        W 3933  25.550  33.207   0.889
30866W        W 3934   0.759  34.037   3.146
30867W        W 3935  33.714  29.660  14.493
30868W        W 3936  25.153  40.006   1.214
30869W        W 3937  40.362  41.670  10.633
30870W        W 3938  36.706  14.143   1.908
30871W        W 3939  27.458  19.306   3.713
30872W        W 3940  11.715  44.163   0.213
30873W        W 3941  28.934  20.297  13.805
30874W        W 3942  10.187  43.182  13.123
30875W        W 3943   1.850   3.069  14.179
30876W        W 3944  40.919   3.166   4.696
30877W        W 3945  35.552  26.944  11.712
30878W        W 3946   6.302   8.510   4.092
30879W        W 3947  12.205  28.424  14.394
30880W        W 3948  37.565  27.715   1.342
30881W        W 3949   4.736   7.872  11.589
30882W        W 3950  35.174   7.628   2.664
30883W        W 3951   6.250   7.076  14.867
30884W        W 3952  31.127  41.494  12.636
30885W        W 3953   2.453  20.739  14.510
30886W        W 3954  33.063  24.456  13.121
30887W        W 3955  12.201  20.480   3.645
30888W        W 3956   9.178   0.491   1.827
30889W        W 3957  32.618  18.774   1.904
30890W        W 3958  15.939  34.535  10.250
30891W        W 3959  30.380  11.750   3.308
30892W        W 3960  20.791  29.508  14.095
30893W        W 3961  29.113   7.269   0.943
30894W        W 3962   4.115  26.344  14.262
30895W        W 3963  13.077  35.748  12.031
30896W        W 3964  40.735   8.472   2.280
30897W        W 3965  36.301   9.441   3.582
30898W        W 3966  24.090  18.502  13.751
30899W        W 3967  43.055  14.790   3.224
30900W        W 3968  19.583  37.891  13.998
30901W        W 3969   5.683  16.076   0.992
30902W        W 3970   0.031  11.756   0.376
30903W        W 3971  25.448  41.010  13.015
30904W        W 3972  14.637  42.028  11.686
30905W        W 3973  25.949  11.239  13.420
30906W        W 3974  35.111  10.849  12.245
30907W        W 3975  13.725  31.969   0.460
30908W        W 3976   7.646  33.821  13.901
30909W        W 3977   9.773   1.785   3.456
30910W        W 3978  27.867  25.644   3.324
30911W        W 3979   7.176  40.577   1.887
30912W        W 3980  16.752  42.408  10.576
30913W        W 3981  23.991   4.303   1.918
30914W        W 3982  34.767  27.479   4.789
30915W        W 3983  12.203  34.148   1.806
30916W        W 3984  17.178  19.930  12.190
30917W        W 3985   6.712  10.001  10.209
30918W        W 3986  28.506  44.359   1.013
30919W        W 3987  12.828  13.529   0.950
30920W        W 3988  37.875   6.379  11.195
30921W        W 3989   6.669  12.249   4.257
30922W        W 3990  37.195  29.597   4.285
30923W        W 3991   4.455  30.157   1.011
30924W        W 3992  35.507  44.243   0.810
30925W        W 3993  21.068  15.762   2.673
30926W        W 3994  37.424  43.791  13.535
30927W        W 3995  18.338  39.480   2.626
30928W        W 3996  14.863  43.717  14.304
30929W        W 3997   9.304  12.582   4.129
30930W        W 3998  37.499  12.183  13.176
30931W        W 3999  10.286  41.506   1.242
30932W        W 4000  30.357  11.388  13.559
30933W        W 4001  28.584  11.129   2.289
30934W        W 4002   8.257  23.727   2.757
30935W        W 4003  11.904  17.311  11.517
30936W        W 4004  34.836  38.921  12.901
30937W        W 4005  30.982  27.721  13.941
30938W        W 4006  37.165  31.824  12.508
30939W        W 4007   5.697  36.744   1.702
30940W        W 4008  13.774  34.850   0.435
30941W        W 4009  19.191   7.188   4.520
30942W        W 4010   1.724  41.818   0.910
30943W        W 4011  37.726  36.830  12.982
30944W        W 4012  41.624  15.361   4.862
30945W        W 4013  25.646  37.952  13.049
30946W        W 4014   5.385  14.449  11.322
30947W        W 4015  43.853  28.629  14.679
30948W        W 4016  18.135   8.680   4.365
30949W        W 4017  23.656  33.053   3.676
30950W        W 4018  21.724   9.198   0.400
30951W        W 4019   5.571  24.815  14.476
30952W        W 4020  40.538  25.217   4.642
30953W        W 4021  26.666   0.932   2.706
30954W        W 4022  12.416  15.012   2.292
30955W        W 4023   0.305   7.539  12.941
30956W        W 4024  35.768  44.509   3.313
30957W        W 4025  17.483  24.174  12.003
30958W        W 4026   6.342  33.880   3.787
30959W        W 4027  17.133  25.757  14.044
30960W        W 4028   5.087  14.395  14.314
30961W        W 4029  37.978  11.475  14.822
30962W        W 4030  42.736  18.672   2.713
30963W        W 4031  43.472   1.165  10.882
30964W        W 4032  35.514  35.277   2.206
30965W        W 4033   5.361  11.548   1.696
30966W        W 4034  39.099   9.957   3.618
30967W        W 4035  36.852  35.489   3.777
30968W        W 4036  12.853  38.603  12.050
30969W        W 4037  35.042  36.962   2.211
30970W        W 4038  21.306  42.489  12.461
30971W        W 4039  33.531  32.601   4.675
30972W        W 4040  28.522   6.715  12.586
30973W        W 4041  42.035  25.222   3.819
30974W        W 4042  24.698  26.714  14.767
30975W        W 4043   7.192  31.630  11.536
30976W        W 4044  23.694  34.086  13.456
30977W        W 4045  28.706  27.866   2.267
30978W        W 4046   5.040  43.547   0.568
30979W        W 4047  27.864  10.755  11.545
30980W        W 4048   5.950  34.131   1.435
30981W        W 4049  33.834  26.927   2.691
30982W        W 4050  30.663  26.667  14.799
30983W        W 4051  14.740  39.123  13.507
30984W        W 4052  33.447  29.407   0.297
30985W        W 4053  18.506   4.212  12.777
30986W        W 4054  44.348  30.512  12.446
30987W        W 4055  29.471  20.755  11.180
30988W        W 4056  25.577  34.717   4.180
30989W        W 4057  40.388  20.747   3.006
30990W        W 4058  41.873  37.562  13.620
30991W        W 4059   3.951  14.260   2.626
30992W        W 4060   0.072  43.723   3.236
30993W        W 4061  31.682   5.287   2.666
30994W        W 4062  38.250  44.409   2.326
30995W        W 4063  34.644  35.476  14.404
30996W        W 4064  37.281  37.807  11.618
30997W        W 4065  42.769  13.407  10.771
30998W        W 4066  31.326  14.313   5.388
30999W        W 4067  25.942   4.789   0.720
31000W        W 4068  33.635  34.965   2.795
31001W        W 4069  15.229  36.498  12.126
31002W        W 4070  13.638  35.578   0.684
31003W        W 4071   7.187  28.971   4.689
31004W        W 4072  11.150  34.067   3.277
31005W        W 4073   5.585  34.961  10.726
31006W        W 4074   5.078  18.996   4.315
31007W        W 4075  33.642   1.347  13.255
31008W        W 4076  31.551  38.609   2.464
31009W        W 4077  30.785  28.797  11.192
31010W        W 4078   9.464  20.628   1.492
31011W        W 4079  37.619  20.941  11.104
31012W        W 4080  44.817  40.137   3.300
31013W        W 4081  27.936  32.886   4.249
31014W        W 4082  35.103   3.311  14.051
31015W        W 4083  19.107  24.469   3.645
31016W        W 4084   8.397  19.079   1.476
31017W        W 4085   2.568   2.203  11.112
31018W        W 4086  33.247   4.143   1.396
31019W        W 4087  17.682   1.899  11.691
31020W        W 4088  40.546  27.461   3.366
31021W        W 4089  39.350  30.183   3.746
31022W        W 4090  39.465  12.291   2.272
31023W        W 4091  15.218   2.286  11.504
31024W        W 4092  43.634  16.762   3.808
31025W        W 4093  20.459  30.000   0.002
31026W        W 4094  33.687   4.391  11.035
31027W        W 4095  25.586  44.350  13.132
31028W        W 4096   9.849  12.925   0.782
31029W        W 4097  27.070  25.486   0.747
31030W        W 4098  40.512   3.010  13.769
31031W        W 4099   2.373  31.148   0.929
31032W        W 4100  38.612   8.181  11.574
31033W        W 4101  37.303   8.754  14.549
31034W        W 4102  36.778  11.393  14.440
31035W        W 4103  28.173  35.222   4.091
31036W        W 4104  31.617  41.243   1.764
31037W        W 4105  22.026  12.804  12.953
31038W        W 4106   6.675  12.641  12.619
31039W        W 4107  41.468  19.102  13.954
31040W        W 4108  15.289  39.762  12.857
31041W        W 4109   0.507  26.185  11.222
31042W        W 4110  37.607  22.880  14.901
31043W        W 4111  30.076  44.478   1.948
31044W        W 4112   2.510  31.440  12.561
31045W        W 4113  33.843  23.421  12.571
31046W        W 4114   6.265   6.118   0.957
31047W        W 4115  30.268  42.300  12.535
31048W        W 4116   3.033  30.131   1.350
31049W        W 4117   9.575  26.540   3.256
31050W        W 4118   6.902  23.230   4.177
31051W        W 4119   7.851  43.816   1.485
31052W        W 4120  35.563  29.843   0.343
31053W        W 4121  20.090  17.021   0.846
31054W        W 4122   2.372  19.786   4.163
31055W        W 4123  27.521   6.558   4.803
31056W        W 4124  19.778   5.923   1.441
31057W        W 4125  39.498  15.755  13.840
31058W        W 4126  10.576  31.351  13.849
31059W        W 4127   7.293  35.128   3.108
31060W        W 4128  34.446  15.221  11.022
31061W        W 4129  16.383  40.849   3.710
31062W        W 4130   7.387  15.267  14.803
31063W        W 4131  40.451  17.009  14.421
31064W        W 4132  14.314  28.936  13.987
31065W        W 4133   4.312   4.750   3.556
31066W        W 4134  23.502  16.216  14.974
31067W        W 4135  26.700  24.560   0.248
31068W        W 4136  30.447   1.624   2.758
31069W        W 4137  15.852  27.605   1.327
31070W        W 4138  13.878   3.814   1.728
31071W        W 4139  15.804  12.613   2.832
31072W        W 4140   2.972  17.392  14.468
31073W        W 4141   1.054   7.460   2.812
31074W        W 4142  10.063  39.913  14.269
31075W        W 4143  34.836  44.852   1.831
31076W        W 4144  28.929  42.249  12.844
31077W        W 4145  43.301   0.807   0.962
31078W        W 4146  35.287  44.773  13.643
31079W        W 4147  44.506  33.580   0.256
31080W        W 4148  29.215  38.843  11.087
31081W        W 4149  38.638  17.019  11.123
31082W        W 4150  10.300  17.199  10.316
31083W        W 4151   7.793  15.379  10.659
31084W        W 4152   2.677   4.286  11.112
31085W        W 4153   9.952  40.300   4.564
31086W        W 4154  41.326  30.445   4.577
31087W        W 4155  36.915  10.667   4.766
31088W        W 4156  26.689  28.445   4.546
31089W        W 4157   0.969  12.694  13.058
31090W        W 4158  12.823  30.410   1.408
31091W        W 4159  15.682  16.568  11.634
31092W        W 4160  40.910   3.875  14.527
31093W        W 4161  40.940  18.707   2.436
31094W        W 4162  36.312  31.769  10.309
31095W        W 4163  14.036  20.037  13.461
31096W        W 4164  12.626  27.699   3.140
31097W        W 4165  30.257   6.124  12.431
31098W        W 4166  30.705  38.460   3.278
31099W        W 4167  22.502  14.158  12.670
31100W        W 4168   3.869  14.774   2.388
31101W        W 4169  14.305  43.028  13.069
31102W        W 4170  15.796  42.358   4.982
31103W        W 4171  38.229   7.817   0.907
31104W        W 4172  30.934  32.998  12.144
31105W        W 4173  23.593   7.801   3.137
31106W        W 4174  16.609  14.099  12.508
31107W        W 4175  41.828  42.958  11.465
31108W        W 4176  25.319   6.261   0.186
31109W        W 4177  34.204  17.106  13.584
31110W        W 4178  15.657  17.444   3.174
31111W        W 4179   5.186  26.405  11.568
31112W        W 4180   2.924  27.114   1.306
31113W        W 4181  26.809   9.172   0.230
31114W        W 4182   9.828  29.340  13.531
31115W        W 4183  41.411  28.952  12.554
31116W        W 4184  37.593  28.095   1.769
31117W        W 4185   5.941  13.696  10.426
31118W        W 4186  24.585  28.198   2.362
31119W        W 4187   4.465  18.430   0.471
31120W        W 4188  17.302   6.394   1.349
31121W        W 4189  20.161  19.879  10.259
31122W        W 4190  41.929  28.462  14.422
31123W        W 4191  38.382  19.782  11.649
31124W        W 4192  37.170   4.376  13.797
31125W        W 4193  39.773  19.702   4.559
31126W        W 4194  28.954  42.025  11.131
31127W        W 4195  22.605  35.943  13.756
31128W        W 4196  14.298  36.919  10.748
31129W        W 4197  40.338   3.962  14.942
31130W        W 4198  14.348  24.973  11.382
31131W        W 4199  24.964  23.473  12.012
31132W        W 4200  19.587  40.529  12.651
31133W        W 4201  42.524  39.531  13.793
31134W        W 4202  10.479  16.068   3.916
31135W        W 4203  27.159  40.039  12.948
31136W        W 4204  23.987  39.099   3.643
31137W        W 4205  18.913  34.625  13.874
31138W        W 4206   6.243  38.384   3.801
31139W        W 4207   4.820  30.936  11.992
31140W        W 4208  41.525  19.162   1.264
31141W        W 4209  35.946   8.539  14.826
31142W        W 4210  38.984   3.222  10.291
31143W        W 4211  16.808  17.079   1.511
31144W        W 4212  34.030   5.774  11.564
31145W        W 4213  33.537  17.275   3.085
31146W        W 4214   1.055  34.410  13.423
31147W        W 4215  26.220   9.640   1.321
31148W        W 4216  30.099  28.584   0.265
31149W        W 4217  32.730   6.132   2.982
31150W        W 4218   8.192   2.846   0.334
31151W        W 4219  24.962  34.013  12.012
31152W        W 4220  33.937  16.957   4.885
31153W        W 4221  31.725   8.281   2.781
31154W        W 4222   3.478  18.679  14.520
31155W        W 4223  25.422  20.999   1.788
31156W        W 4224   0.750  27.180  14.986
31157W        W 4225  26.351  26.550  13.517
31158W        W 4226  36.655  43.352  14.392
31159W        W 4227  33.816  22.841   2.002
31160W        W 4228  13.376  22.751  11.178
31161W        W 4229   4.609  17.216  13.836
31162W        W 4230  33.476  42.839   4.614
31163W        W 4231  15.266  35.858   1.739
31164W        W 4232  16.178  28.216  11.589
31165W        W 4233  44.268  32.680   3.244
31166W        W 4234   8.130  17.687  12.426
31167W        W 4235  44.786   6.800  14.011
31168W        W 4236  12.069  27.849   3.922
31169W        W 4237  16.795  29.064   4.282
31170W        W 4238  24.673   4.663  11.138
31171W        W 4239   6.849  22.903  10.849
31172W        W 4240  38.545  37.957   1.742
31173W        W 4241  32.670  35.857   4.524
31174W        W 4242   6.741  22.533  14.553
31175W        W 4243  36.638   7.787   4.060
31176W        W 4244   4.481  10.644   1.156
31177W        W 4245   2.189  21.839   3.164
31178W        W 4246   0.612  17.816  11.667
31179W        W 4247  21.247  39.426  10.992
31180W        W 4248  11.847  16.333   0.830
31181W        W 4249  37.173   1.421  14.824
31182W        W 4250  39.268  44.023   3.689
31183W        W 4251  19.312  27.959  12.739
31184W        W 4252  22.447  28.066  12.994
31185W        W 4253  33.960  43.218   2.321
31186W        W 4254  33.429   7.691  10.018
31187W        W 4255  19.335   1.997   3.631
31188W        W 4256  18.761  32.663  14.664
31189W        W 4257   4.481  26.072  13.978
31190W        W 4258  24.369   6.425  11.645
31191W        W 4259  24.879  18.851  14.825
31192W        W 4260  12.605  32.485   3.698
31193W        W 4261  13.250  32.449   4.512
31194W        W 4262  33.357  36.783   3.715
31195W        W 4263  30.814   6.186  11.612
31196W        W 4264  21.064  12.007  12.552
31197W        W 4265  15.950   7.790   3.230
31198W        W 4266  44.054  43.101  14.580
31199W        W 4267  18.719  35.763  13.647
31200W        W 4268  37.410  23.665   0.170
31201W        W 4269  34.766  28.497  14.359
31202W        W 4270  36.335  19.262  13.428
31203W        W 4271  25.209  27.383  12.591
31204W        W 4272  18.020  22.156  13.556
31205W        W 4273  39.900  18.988   0.066
31206W        W 4274   8.765  28.936  11.537
31207W        W 4275  33.587   0.990   1.310
31208W        W 4276  22.344   8.599   4.668
31209W        W 4277  43.896  21.358   0.384
31210W        W 4278   6.740  40.542   5.064
31211W        W 4279   4.018  23.783   0.420
31212W        W 4280  33.441  33.317  13.362
31213W        W 4281  23.202  17.242   0.790
31214W        W 4282   3.224   4.398  14.211
31215W        W 4283  25.828  18.503   2.648
31216W        W 4284   7.864   0.759   3.437
31217W        W 4285  11.458  19.522   2.222
31218W        W 4286  27.618   6.828   3.904
31219W        W 4287  26.150  11.866   4.804
31220W        W 4288  25.715  24.515  11.637
31221W        W 4289  15.666  22.737  10.973
31222W        W 4290  24.256  44.883   3.682
31223W        W 4291  22.059   5.129  11.115
31224W        W 4292  28.112  11.144   0.407
31225W        W 4293   9.822  32.441   2.316
31226W        W 4294  13.140  26.416   2.188
31227W        W 4295   6.468  26.189   4.248
31228W        W 4296  19.104  43.727  12.433
31229W        W 4297  12.602  18.022  10.574
31230W        W 4298  42.488   2.554  14.276
31231W        W 4299   7.195  24.003   1.333
31232W        W 4300  27.194   9.269  11.608
31233W        W 4301  42.326  23.507   0.784
31234W        W 4302  14.687  24.717  10.723
31235W        W 4303  22.491  34.845  14.369
31236W        W 4304   7.059  39.495  13.840
31237W        W 4305  39.957  43.851  12.079
31238W        W 4306  21.671  26.357   3.584
31239W        W 4307   5.031   1.862  12.960
31240W        W 4308   6.987  24.953   2.336
31241W        W 4309  38.031  20.617  12.440
31242W        W 4310  36.158  25.439  12.222
31243W        W 4311  15.840  23.228   3.322
31244W        W 4312   0.395  17.919   4.361
31245W        W 4313  13.970  27.258  14.546
31246W        W 4314  14.367  21.290  13.949
31247W        W 4315  21.509   3.233   2.287
31248W        W 4316  21.688   4.856   3.657
31249W        W 4317  13.512  34.499   1.860
31250W        W 4318  37.027   3.486  11.717
31251W        W 4319   3.383  13.668  14.139
31252W        W 4320   6.896  31.029  11.564
31253W        W 4321   6.715   0.257  10.772
31254W        W 4322  28.927  20.664   1.505
31255W        W 4323  19.936  18.566   3.271
31256W        W 4324   6.630   2.968  13.017
31257W        W 4325   9.889  20.632  12.502
31258W        W 4326  38.450  11.804  14.765
31259W        W 4327  42.272  26.036   3.143
31260W        W 4328  36.471   1.782   0.616
31261W        W 4329  20.018  13.623  14.610
31262W        W 4330  35.801  19.252  13.550
31263W        W 4331  30.284   1.518  13.080
31264W        W 4332   0.653  21.532  13.476
31265W        W 4333  43.437  43.401   4.584
31266W        W 4334  36.520   8.242  10.412
31267W        W 4335  15.303  42.853   3.104
31268W        W 4336  27.785  19.254  11.730
31269W        W 4337  17.083  33.696   2.751
31270W        W 4338   0.231  32.335   2.781
31271W        W 4339  18.691  30.146   3.725
31272W        W 4340  39.363   1.929  14.824
31273W        W 4341  41.518   9.138   2.434
31274W        W 4342   5.777  15.113  13.071
31275W        W 4343   2.764  30.557   2.636
31276W        W 4344  39.400  13.385   4.625
31277W        W 4345   5.658  24.957   1.698
31278W        W 4346  40.884  13.224   3.080
31279W        W 4347  35.920  32.127  10.254
31280W        W 4348  43.877   7.607  13.065
31281W        W 4349   8.267  23.213   2.656
31282W        W 4350   2.504  38.390  11.113
31283W        W 4351  36.499  27.035  12.592
31284W        W 4352  10.277  18.019  13.373
31285W        W 4353  23.685   2.976  12.286
31286W        W 4354   6.693  26.113  11.539
31287W        W 4355   4.694  33.090  12.399
31288W        W 4356   4.110   8.344  13.365
31289W        W 4357  33.602  23.961  14.294
31290W        W 4358  34.500  34.595  11.235
31291W        W 4359  19.184  20.387   1.829
31292W        W 4360  17.819   9.856   3.726
31293W        W 4361  42.279   3.692   3.257
31294W        W 4362  42.409   8.686   2.119
31295W        W 4363  14.258  27.674  14.449
31296W        W 4364   7.678   3.841   1.157
31297W        W 4365   1.428  32.058   3.437
31298W        W 4366   9.836  18.643  10.177
31299W        W 4367  26.571  19.174   2.850
31300W        W 4368  12.617  44.526  11.168
31301W        W 4369   0.572  23.856   4.910
31302W        W 4370  43.943  15.743  14.125
31303W        W 4371  34.472  14.394  11.187
31304W        W 4372  14.734  10.486  12.685
31305W        W 4373   9.264  37.896  10.555
31306W        W 4374  15.622   0.781   2.861
31307W        W 4375  18.082  31.862   1.397
31308W        W 4376  14.489  26.253  14.889
31309W        W 4377   9.664  25.814  13.093
31310W        W 4378   9.794  35.957   4.267
31311W        W 4379  30.548  16.523   1.785
31312W        W 4380   1.349  11.156   4.631
31313W        W 4381  29.573   9.343  10.746
31314W        W 4382   1.476  15.475   1.312
31315W        W 4383  26.425   5.273  11.188
31316W        W 4384  25.735  40.969  12.560
31317W        W 4385   5.823   8.806   2.889
31318W        W 4386  26.407   7.864  10.670
31319W        W 4387   3.275  21.252   1.875
31320W        W 4388   3.533   0.258  13.163
31321W        W 4389  30.235  10.338  13.822
31322W        W 4390  44.240  31.759   4.379
31323W        W 4391  23.441  33.635  13.513
31324W        W 4392  42.696   2.697  11.034
31325W        W 4393  11.265  22.069   1.231
31326W        W 4394  21.050  38.938   2.743
31327W        W 4395   6.216  14.531  14.801
31328W        W 4396  14.040  28.073  11.459
31329W        W 4397  22.578  35.354   9.953
31330W        W 4398  18.162  39.385  14.700
31331W        W 4399  34.439  11.604  14.259
31332W        W 4400   3.642  43.540  11.038
31333W        W 4401  11.664  35.457  10.638
31334W        W 4402  13.195  37.142  12.961
31335W        W 4403  43.484  21.307   2.350
31336W        W 4404  37.093  21.117  14.458
31337W        W 4405   3.353  10.128   2.856
31338W        W 4406  35.952  37.266   4.098
31339W        W 4407  20.960   3.455  14.069
31340W        W 4408  44.935  43.112   1.169
31341W        W 4409   6.938  42.490  11.047
31342W        W 4410  35.251  10.835  11.727
31343W        W 4411  16.172   9.873   4.328
31344W        W 4412  34.305  15.876  13.013
31345W        W 4413  31.055  28.494  12.978
31346W        W 4414  27.544   2.854  11.222
31347W        W 4415  27.500  22.990   1.943
31348W        W 4416  44.861   3.508  11.280
31349W        W 4417  12.678  34.869   1.688
31350W        W 4418   1.686  35.373  10.888
31351W        W 4419   7.173   7.935  10.788
31352W        W 4420  26.948  28.027  11.037
31353W        W 4421  21.578   9.407   1.761
31354W        W 4422   4.847   9.050   0.346
31355W        W 4423  25.551  31.383  11.210
31356W        W 4424  14.234  35.796  12.515
31357W        W 4425  19.565  38.092  14.472
31358W        W 4426  34.031   7.280   4.201
31359W        W 4427   9.241  21.117  10.577
31360W        W 4428   5.315   5.497  14.994
31361W        W 4429   2.646  18.164  13.075
31362W        W 4430   7.097   9.574   3.676
31363W        W 4431  40.891  17.751  11.446
31364W        W 4432  29.143  43.847  13.089
31365W        W 4433  15.694  29.952   0.950
31366W        W 4434  44.575  19.193  10.761
31367W        W 4435   1.489  37.046   1.834
31368W        W 4436  42.365  24.508   0.936
31369W        W 4437  22.642  21.607  14.626
31370W        W 4438  38.796  23.194   4.469
31371W        W 4439  23.114  18.147   2.212
31372W        W 4440  19.006  17.658  14.706
31373W        W 4441  38.404  22.244  14.830
31374W        W 4442  44.466  10.232   2.237
31375W        W 4443  33.078   4.858   2.766
31376W        W 4444  13.526  20.547  14.396
31377W        W 4445   6.725  17.348  14.321
31378W        W 4446  40.002  34.355  10.499
31379W        W 4447   8.581   2.429  12.182
31380W        W 4448  35.555  25.635   4.303
31381W        W 4449  14.344  24.254  13.482
31382W        W 4450  22.169  38.177  13.477
31383W        W 4451  31.015  36.101  14.919
31384W        W 4452  31.246  28.417  10.667
31385W        W 4453  29.380  13.674  13.539
31386W        W 4454  28.536  20.621  14.693
31387W        W 4455   7.751  15.871  10.808
31388W        W 4456  25.776  18.151   3.044
31389W        W 4457  18.526  13.268   4.185
31390W        W 4458   4.276  19.600  10.745
31391W        W 4459  13.666   2.501  14.378
31392W        W 4460  37.377  18.533  11.628
31393W        W 4461  37.061  10.151   4.838
31394W        W 4462  41.980  37.236   4.720
31395W        W 4463  10.657  34.903   3.231
31396W        W 4464  19.764  11.397  14.362
31397W        W 4465  42.799  18.006  12.500
31398W        W 4466  29.519  23.731   0.384
31399W        W 4467  32.936  32.399   2.378
31400W        W 4468  35.348   2.977  12.916
31401W        W 4469   8.102  29.640   2.430
31402W        W 4470  14.613  29.002   1.732
31403W        W 4471  15.135   5.373  13.796
31404W        W 4472   3.360  44.670   1.147
31405W        W 4473  38.537  20.393  14.283
31406W        W 4474  29.055  20.147  11.896
31407W        W 4475  15.233   0.811  12.489
31408W        W 4476  39.048  19.997   1.258
31409W        W 4477  38.469  22.025   0.766
31410W        W 4478  42.264   9.733   0.215
31411W        W 4479  20.030   0.859  13.953
31412W        W 4480  20.546  19.642   1.762
31413W        W 4481  14.283  19.910  10.698
31414W        W 4482   2.111  36.091   0.820
31415W        W 4483  43.795   8.053   2.717
31416W        W 4484  30.157   4.759   4.031
31417W        W 4485  26.500  31.776   5.214
31418W        W 4486  11.177   5.830   3.225
31419W        W 4487  34.815  26.035  10.891
31420W        W 4488  25.187  23.322  12.463
31421W        W 4489  32.642  18.946  10.290
31422W        W 4490  15.085   7.945   2.622
31423W        W 4491   3.581  12.354  11.432
31424W        W 4492  35.465   1.489  14.529
31425W        W 4493  25.040   0.935  12.439
31426W        W 4494  40.114  38.091  11.059
31427W        W 4495  32.809  41.360  14.013
31428W        W 4496   2.796  32.438   2.133
31429W        W 4497  19.216   1.819  13.620
31430W        W 4498  24.238  30.107  14.653
31431W        W 4499  33.400  18.993   0.080
31432W        W 4500   9.761  41.598   0.476
31433W        W 4501  38.169  32.777   5.477
31434W        W 4502  30.608  36.801  11.809
31435W        W 4503  42.871  27.992   1.792
31436W        W 4504  19.806  40.840   0.014
31437W        W 4505  22.623  23.991   4.097
31438W        W 4506   6.309   3.766   1.914
31439W        W 4507   3.036  17.348  11.935
31440W        W 4508  14.093  15.805   1.942
31441W        W 4509  43.366  14.820  11.502
31442W        W 4510  23.268  32.565   0.779
31443W        W 4511  30.431  22.277   1.770
31444W        W 4512  35.106  40.227   0.352
31445W        W 4513  33.108  33.226  11.958
31446W        W 4514  30.035  28.013  11.232
31447W        W 4515  31.888   9.691  10.665
31448W        W 4516  10.669  34.366   3.292
31449W        W 4517  12.826  24.272   4.092
31450W        W 4518  18.144   7.766   0.552
31451W        W 4519   8.938  33.046   0.681
31452W        W 4520  21.477  42.650  13.543
31453W        W 4521   0.397  23.464  10.763
31454W        W 4522  27.945  43.092  13.545
31455W        W 4523  30.631  22.042  11.313
31456W        W 4524   9.759   5.994  14.477
31457W        W 4525  39.595  33.156   1.236
31458W        W 4526  13.536  36.544  12.077
31459W        W 4527   4.185  36.086  11.891
31460W        W 4528  14.412  34.951  10.111
31461W        W 4529   0.151   6.377   4.040
31462W        W 4530   7.760  30.972  14.464
31463W        W 4531  30.223   9.272  12.950
31464W        W 4532  19.047  44.857   2.801
31465W        W 4533   5.143   2.266   1.232
31466W        W 4534  42.914  11.234  11.438
31467W        W 4535   7.395  39.911   0.451
31468W        W 4536  38.278   2.043   0.510
31469W        W 4537   2.667   1.329  11.015
31470W        W 4538   8.170   4.590  10.939
31471W        W 4539  39.997  38.553   3.141
31472W        W 4540  37.858  23.085  11.628
31473W        W 4541  43.335  41.778   4.803
31474W        W 4542  44.982  27.127   2.289
31475W        W 4543  44.982  23.351   2.675
31476W        W 4544  13.888  42.732   4.785
31477W        W 4545  29.282  32.083  12.119
31478W        W 4546   5.604   8.960  11.287
31479W        W 4547  17.882   8.058  12.104
31480W        W 4548  44.531  13.803  12.520
31481W        W 4549  21.730  27.174  12.123
31482W        W 4550  28.067  32.696   0.915
31483W        W 4551   4.225  12.416  13.929
31484W        W 4552  24.436  38.338  11.859
31485W        W 4553   8.707   5.934   1.252
31486W        W 4554  27.732   7.133   1.274
31487W        W 4555  38.868  32.861   0.203
31488W        W 4556  38.346  11.795   4.478
31489W        W 4557  39.466  44.369  11.141
31490W        W 4558   0.752  15.894   2.477
31491W        W 4559   3.204   7.348  10.735
31492W        W 4560  44.884  22.235  12.904
31493W        W 4561  38.623  34.388   4.592
31494W        W 4562  10.120   8.321  10.736
31495W        W 4563  37.369  12.378   4.652
31496W        W 4564   9.288   4.315   2.923
31497W        W 4565  20.143  33.964   2.790
31498W        W 4566  11.603  19.737   0.428
31499W        W 4567  29.662  19.986  14.893
31500W        W 4568  30.479  25.043  13.599
31501W        W 4569  25.769   9.266   0.398
31502W        W 4570   4.179   4.781  13.775
31503W        W 4571  21.699  25.752  10.764
31504W        W 4572  38.426  39.302   2.652
31505W        W 4573  16.384  28.930   0.343
31506W        W 4574  13.798  25.619   4.942
31507W        W 4575  25.440  16.614  14.433
31508W        W 4576  14.065  41.268  12.123
31509W        W 4577  33.951  12.655  14.266
31510W        W 4578  29.890  27.126   2.685
31511W        W 4579  12.098  14.688  11.975
31512W        W 4580  33.648  20.219  10.912
31513W        W 4581  38.077   6.847  11.347
31514W        W 4582  11.053  36.314   2.559
31515W        W 4583  20.580  10.693   4.374
31516W        W 4584  11.586  33.139   1.185
31517W        W 4585  16.191   7.274   3.240
31518W        W 4586  38.486   0.655  10.584
31519W        W 4587  14.484   1.062  12.013
31520W        W 4588   3.651   2.050   3.733
31521W        W 4589  12.551  35.920   4.310
31522W        W 4590  34.820  39.133  11.026
31523W        W 4591  11.110  30.457   0.901
31524W        W 4592  11.167  13.085  13.999
31525W        W 4593  43.639  33.103  14.973
31526W        W 4594  37.680  43.029  14.795
31527W        W 4595   1.500  19.340  13.515
31528W        W 4596  27.478  13.628   4.142
31529W        W 4597   6.744   1.214   0.714
31530W        W 4598  23.537  10.869   1.651
31531W        W 4599  42.780  25.980   3.170
31532W        W 4600  32.061  36.443   4.551
31533W        W 4601  11.590   4.175  11.920
31534W        W 4602  32.706  35.831  12.042
31535W        W 4603  42.787  29.616  14.952
31536W        W 4604  35.923  14.738   0.663
31537W        W 4605   7.094  23.681   0.792
31538W        W 4606  44.804  37.916   1.471
31539W        W 4607  10.374  39.782  13.047
31540W        W 4608  34.824   9.106  11.108
31541W        W 4609  32.504   1.492   4.206
31542W        W 4610  35.748  13.623  11.884
31543W        W 4611  17.156   6.177   2.794
31544W        W 4612  22.683  24.963   3.153
31545W        W 4613  38.632  24.721   3.015
31546W        W 4614  40.295  23.041  14.450
31547W        W 4615  15.711  23.454   1.200
31548W        W 4616  40.116   7.909   2.851
31549W        W 4617   8.381   6.315   0.402
31550W        W 4618  14.725  23.402   1.221
31551W        W 4619   9.317  41.592   0.776
31552W        W 4620  28.534  44.961  10.858
31553W        W 4621   6.850  21.097   0.566
31554W        W 4622   3.253  17.837  12.406
31555W        W 4623   8.789  20.042   0.051
31556W        W 4624  36.027  35.972  13.373
31557W        W 4625  18.280  18.222   3.927
31558W        W 4626  17.220   3.761  10.495
31559W        W 4627   1.348  28.473  10.763
31560W        W 4628   2.996  13.374   2.743
31561W        W 4629  16.650  33.050   4.611
31562W        W 4630   1.339  21.488  11.890
31563W        W 4631  13.837  22.001  11.303
31564W        W 4632  40.589  43.503  13.455
31565W        W 4633  25.242  42.719   3.282
31566W        W 4634  21.135  35.446  11.696
31567W        W 4635  37.529  30.022  10.730
31568W        W 4636  35.541  12.658  11.600
31569W        W 4637  13.840   4.798   3.640
31570W        W 4638  37.999   4.108  12.035
31571W        W 4639  23.254  19.673  14.886
31572W        W 4640  22.482  38.288  14.332
31573W        W 4641  29.470   9.253  12.608
31574W        W 4642  31.331  22.485   2.411
31575W        W 4643  34.873   6.003   4.657
31576W        W 4644  30.485  32.505   2.891
31577W        W 4645  10.630  26.138  14.391
31578W        W 4646   9.795  37.876   0.698
31579W        W 4647   9.798  10.411  12.824
31580W        W 4648  42.772  13.811   4.658
31581W        W 4649  22.990   8.253   2.792
31582W        W 4650  34.507   7.121  12.904
31583W        W 4651  13.383   9.854  12.960
31584W        W 4652   7.302  33.113  14.511
31585W        W 4653  11.821  37.823  11.653
31586W        W 4654  33.594   5.378   2.278
31587W        W 4655  33.430   2.047  13.982
31588W        W 4656   6.731  26.573   1.312
31589W        W 4657   4.838  18.273  13.827
31590W        W 4658  42.038  31.925  13.057
31591W        W 4659   2.218  14.863  11.573
31592W        W 4660   7.747  32.086  12.062
31593W        W 4661  13.914  12.276   4.491
31594W        W 4662  14.525  30.274  12.448
31595W        W 4663  20.478  29.163   1.009
31596W        W 4664  40.990  21.249  12.010
31597W        W 4665  16.163  36.562   0.216
31598W        W 4666   1.203  12.055   3.376
31599W        W 4667  10.224   6.838   3.873
31600W        W 4668   6.791  31.854   1.400
31601W        W 4669   5.702  25.610  14.858
31602W        W 4670   4.126  35.212  11.978
31603W        W 4671   2.767  36.153  12.633
31604W        W 4672  37.057   0.058   4.245
31605W        W 4673  17.764  23.415   0.374
31606W        W 4674  14.577   2.901  11.174
31607W        W 4675  10.594   5.794   1.446
31608W        W 4676  30.012  10.579  14.850
31609W        W 4677  36.968  25.946   0.053
31610W        W 4678  37.289   7.216   4.523
31611W        W 4679  16.741  28.268   1.830
31612W        W 4680  31.812  28.407  12.357
31613W        W 4681  39.887   8.465   3.160
31614W        W 4682  33.604  27.510   2.796
31615W        W 4683  24.678  17.461   3.660
31616W        W 4684  29.127  32.373  10.624
31617W        W 4685  26.792   6.764   3.233
31618W        W 4686  16.279  20.722   3.637
31619W        W 4687  23.532  11.582  13.860
31620W        W 4688  12.138  34.522   3.350
31621W        W 4689   3.374   5.906   4.050
31622W        W 4690   5.487  33.066  14.162
31623W        W 4691  38.896  17.264   1.903
31624W        W 4692  38.917  24.211  10.774
31625W        W 4693   2.686   7.930  13.737
31626W        W 4694  12.998  41.968   3.391
31627W        W 4695  44.295   3.066   3.889
31628W        W 4696  20.517  26.242   4.177
31629W        W 4697  34.829   9.296  14.816
31630W        W 4698  33.326   8.243   1.377
31631W        W 4699   1.639  42.731  12.836
31632W        W 4700  31.946  11.352   4.266
31633W        W 4701  42.893  23.533   0.995
31634W        W 4702  17.709  22.125  11.573
31635W        W 4703   1.451  24.677   0.368
31636W        W 4704   9.239  38.034  12.381
31637W        W 4705  29.234  39.491   1.240
31638W        W 4706  15.167   9.225  10.595
31639W        W 4707   0.339  22.003  12.891
31640W        W 4708  20.287  16.873   0.358
31641W        W 4709  37.317  39.711   3.232
31642W        W 4710  39.333  21.450  12.899
31643W        W 4711  32.918  32.938  14.823
31644W        W 4712  44.738  19.781  11.466
31645W        W 4713  32.545  40.887  10.865
31646W        W 4714  23.043  44.600  13.969
31647W        W 4715  33.982  39.075   3.224
31648W        W 4716   6.141  27.982  12.254
31649W        W 4717  17.818   6.520   0.276
31650W        W 4718   1.437  32.950  11.932
31651W        W 4719  33.194  40.080  12.269
31652W        W 4720  25.171  23.926  13.057
31653W        W 4721  18.577  16.283  12.326
31654W        W 4722  43.673  13.209   3.654
31655W        W 4723  42.955   6.483  11.151
31656W        W 4724  24.771   4.837  14.015
31657W        W 4725  13.331  23.489  10.158
31658W        W 4726  11.950  34.878  11.449
31659W        W 4727   5.176  31.982   4.996
31660W        W 4728  39.441  18.684   2.745
31661W        W 4729  19.347  42.487   3.200
31662W        W 4730  11.713  40.596  11.048
31663W        W 4731   4.503   2.797  13.745
31664W        W 4732  33.506   2.416   4.123
31665W        W 4733  12.727  32.379   0.267
31666W        W 4734  22.242  23.701  12.859
31667W        W 4735  15.388  22.518   2.816
31668W        W 4736  39.056  30.509   2.284
31669W        W 4737   9.070  29.495   2.681
31670W        W 4738  19.167   0.256  11.855
31671W        W 4739  33.704  27.700   1.294
31672W        W 4740  40.913   6.714  14.201
31673W        W 4741   4.688  36.607   4.641
31674W        W 4742   1.897  37.018   3.484
31675W        W 4743  36.855  16.115  13.842
31676W        W 4744  44.731   4.903   1.239
31677W        W 4745   0.522   3.039   4.164
31678W        W 4746  10.939  13.608  13.089
31679W        W 4747  29.085  19.640  11.578
31680W        W 4748  37.014  12.587   2.863
31681W        W 4749  37.658  32.822  14.018
31682W        W 4750  36.938  29.350  13.368
31683W        W 4751  23.547  18.152  13.878
31684W        W 4752  42.235  35.941  11.568
31685W        W 4753  41.912   3.262  13.655
31686W        W 4754  33.702  18.648  11.976
31687W        W 4755  31.218   4.032  14.491
31688W        W 4756  27.114   3.598   2.912
31689W        W 4757  32.429  37.804  13.861
31690W        W 4758  41.022  13.187   0.901
31691W        W 4759  16.610  44.651   4.568
31692W        W 4760  25.539  11.101   2.441
31693W        W 4761   9.898  38.311  11.112
31694W        W 4762  41.966  15.728  14.097
31695W        W 4763  12.663  31.293  11.126
31696W        W 4764  41.987  27.814  11.243
31697W        W 4765   3.559  15.636   1.249
31698W        W 4766  37.665  22.501   0.760
31699W        W 4767  25.693  17.630  13.347
31700W        W 4768  24.656   7.900  12.446
31701W        W 4769  25.412  29.723   1.756
31702W        W 4770  43.435  27.127  12.912
31703W        W 4771  21.054  24.427   1.358
31704W        W 4772  12.818  16.605  10.749
31705W        W 4773  37.004  10.179   3.847
31706W        W 4774  15.590  36.380  13.013
31707W        W 4775  34.893  35.383  10.952
31708W        W 4776  41.081  26.907  11.572
31709W        W 4777  36.776  44.039   0.720
31710W        W 4778  28.103  26.980   1.394
31711W        W 4779  15.231  15.414   4.931
31712W        W 4780  41.822  32.469  12.916
31713W        W 4781  19.712  12.182   2.535
31714W        W 4782  24.119  38.859  11.880
31715W        W 4783   8.435  40.957  14.226
31716W        W 4784   8.745  42.553  10.492
31717W        W 4785  22.612  16.494  14.281
31718W        W 4786   6.410  34.781  11.097
31719W        W 4787  15.554  11.187  14.615
31720W        W 4788  24.088  16.807   0.432
31721W        W 4789  39.113  17.069   4.246
31722W        W 4790  18.651  25.623   3.931
31723W        W 4791   7.861  15.453   1.625
31724W        W 4792  13.801  28.543  10.758
31725W        W 4793  25.591  41.820  11.813
31726W        W 4794  32.134  23.084  12.921
31727W        W 4795  29.421  40.443  14.955
31728W        W 4796  10.723  41.870  11.385
31729W        W 4797  23.194   8.726   4.849
31730W        W 4798  41.471  42.441   4.477
31731W        W 4799  21.230  42.297   0.704
31732W        W 4800  41.314  35.093  14.944
31733W        W 4801  13.410  20.273   1.434
31734W        W 4802  10.041   8.105   2.671
31735W        W 4803  39.804  12.627   0.991
31736W        W 4804  11.257  24.444  10.618
31737W        W 4805  17.090  23.205   4.894
31738W        W 4806  30.954  42.752   3.092
31739W        W 4807  30.152  30.719   2.365
31740W        W 4808  36.420  17.697   0.698
31741W        W 4809  39.504  23.052   1.468
31742W        W 4810  31.970  44.141  10.623
31743W        W 4811  44.525   0.190  14.000
31744W        W 4812  30.607  16.287   2.614
31745W        W 4813  23.672  23.982  14.050
31746W        W 4814  11.164  14.537  13.759
31747W        W 4815  32.070  38.099   3.637
31748W        W 4816  37.603  20.679  10.668
31749W        W 4817  13.908  21.496  14.107
31750W        W 4818  23.900  20.798  12.430
31751W        W 4819  15.624  32.670  13.533
31752W        W 4820  42.833  31.322   2.065
31753W        W 4821  22.413  32.599  12.678
31754W        W 4822  35.755  19.558  14.869
31755W        W 4823  14.106   3.308  12.932
31756W        W 4824  39.371   9.733   2.363
31757W        W 4825  38.571  37.396   1.477
31758W        W 4826  38.690  15.582   0.011
31759W        W 4827  24.656   2.865  13.876
31760W        W 4828  18.859   9.622  12.938
31761W        W 4829   8.976  32.515   2.771
31762W        W 4830  23.453  39.067   0.972
31763W        W 4831  14.306  23.249  11.534
31764W        W 4832  32.128  32.118   0.442
31765W        W 4833  31.188  10.169  13.099
31766W        W 4834  34.526  41.904   3.357
31767W        W 4835  25.620   4.354  10.629
31768W        W 4836  42.007   5.757  13.736
31769W        W 4837  33.023  14.819   2.265
31770W        W 4838  34.939   5.904  14.024
31771W        W 4839  26.450   4.919  10.822
31772W        W 4840  36.506  27.955   2.813
31773W        W 4841  19.299  44.771  10.916
31774W        W 4842  20.308  15.521  10.331
31775W        W 4843  31.059  22.506  11.656
31776W        W 4844  24.224  13.792   1.719
31777W        W 4845  42.862  21.596   4.670
31778W        W 4846   1.458  39.925   2.206
31779W        W 4847  36.201  14.815   2.620
31780W        W 4848  44.225   7.699   2.450
31781W        W 4849   2.225  23.016   0.311
31782W        W 4850  14.696  29.462  11.592
31783W        W 4851  15.505   5.882   3.122
31784W        W 4852  31.219   7.216   3.806
31785W        W 4853  29.970  28.397   4.792
31786W        W 4854  40.824  17.773  13.357
31787W        W 4855  12.254  27.858   1.245
31788W        W 4856  20.196  12.617   2.720
31789W        W 4857  43.044  24.655  13.423
31790W        W 4858  30.512  24.863   0.365
31791W        W 4859  39.454  20.202  10.645
31792W        W 4860  44.926  12.870  12.393
31793W        W 4861   2.006   8.210  14.255
31794W        W 4862  19.775   4.784  10.903
31795W        W 4863  34.202  11.248   3.663
31796W        W 4864  25.547   4.764   0.376
31797W        W 4865  27.907  19.495  14.992
31798W        W 4866  35.169  32.641  11.192
31799W        W 4867  30.629  40.777   2.626
31800W        W 4868  22.935   4.347  14.016
31801W        W 4869  29.757   6.007   1.004
31802W        W 4870   3.393  19.633  13.419
31803W        W 4871  17.680  43.337   4.205
31804W        W 4872  38.393  36.344  10.572
31805W        W 4873   3.400   0.866  12.055
31806W        W 4874   7.302  17.812  11.241
31807W        W 4875   7.347  19.090  13.061
31808W        W 4876  36.083  39.611   0.978
31809W        W 4877  23.512  25.730  11.367
31810W        W 4878   9.198  23.945  13.853
31811W        W 4879   3.963   3.669   1.917
31812W        W 4880  33.086   6.394  13.524
31813W        W 4881  12.773  29.020  13.853
31814W        W 4882  44.625  44.805  12.772
31815W        W 4883  20.224  23.564   1.211
31816W        W 4884  32.497   8.963   2.870
31817W        W 4885  41.690  38.194   0.239
31818W        W 4886   5.716   9.214  11.749
31819W        W 4887  21.042  19.530   3.441
31820W        W 4888  33.599  11.046   3.674
31821W        W 4889  27.016  35.563  10.551
31822W        W 4890  12.524   9.167   1.853
31823W        W 4891  31.134   8.674  10.690
31824W        W 4892   0.975  13.633   0.892
31825W        W 4893   9.416  22.275   3.579
31826W        W 4894  41.321  11.718   1.341
31827W        W 4895   3.048  43.049  13.972
31828W        W 4896  21.677  39.102  13.594
31829W        W 4897  20.679   1.441   0.020
31830W        W 4898  34.089  17.881  12.366
31831W        W 4899  19.074   2.155   4.051
31832W        W 4900   2.861  26.941   0.814
31833W        W 4901  39.512  41.920  12.461
31834W        W 4902  15.194   8.311   3.366
31835W        W 4903  18.633  32.496   1.182
31836W        W 4904  17.551  32.067   4.588
31837W        W 4905  33.129   1.736   4.097
31838W        W 4906  25.706  35.871   4.922
31839W        W 4907  24.557   6.505  10.744
31840W        W 4908  12.449  41.807   2.379
31841W        W 4909  37.604  28.103   3.624
31842W        W 4910  40.938  29.618  12.624
31843W        W 4911  26.168  23.635  12.618
31844W        W 4912  34.938   1.281   4.223
31845W        W 4913  32.082   5.680   0.986
31846W        W 4914  26.217  20.736  12.097
31847W        W 4915  24.264  31.082   1.629
31848W        W 4916  42.814  26.819   4.478
31849W        W 4917   6.233  24.697  13.378
31850W        W 4918  30.783  16.332   4.707
31851W        W 4919  35.065   1.802  14.370
31852W        W 4920  21.137  18.665   3.117
31853W        W 4921   5.268  39.690   1.735
31854W        W 4922  34.362  42.318   4.760
31855W        W 4923  37.621  20.282  13.350
31856W        W 4924   2.829   0.963  13.897
31857W        W 4925  41.693   0.377  11.638
31858W        W 4926  38.060  20.709  10.931
31859W        W 4927  10.747  41.546   3.767
31860W        W 4928  38.340  22.836  12.268
31861W        W 4929  15.025  21.113   4.136
31862W        W 4930  31.480  16.560   0.876
31863W        W 4931   1.515  26.931  13.943
31864W        W 4932  34.359  18.167   2.914
31865W        W 4933   7.123  16.157  11.878
31866W        W 4934  20.277  21.619  11.886
31867W        W 4935  13.522   0.281  13.843
31868W        W 4936   7.282  28.033   0.419
31869W        W 4937  18.334  14.050   0.280
31870W        W 4938  40.853  24.511  10.878
31871W        W 4939  30.482  10.203  11.147
31872W        W 4940  40.884  25.023  11.618
31873W        W 4941  20.040  21.672   0.683
31874W        W 4942   8.436   7.413   0.735
31875W        W 4943   2.141   7.948   1.335
31876W        W 4944  41.998  24.781  11.305
31877W        W 4945  30.404  24.484   0.984
31878W        W 4946  14.680  14.273   1.260
31879W        W 4947   8.306  29.658   0.291
31880W        W 4948  36.872  29.345   2.312
31881W        W 4949  27.428  23.917   2.921
31882W        W 4950  21.460  21.304  14.451
31883W        W 4951  33.782  11.374  10.621
31884W        W 4952  21.243  32.099  11.657
31885W        W 4953  38.513  42.829   1.427
31886W        W 4954  44.417  19.583  11.076
31887W        W 4955  21.379   1.153   1.391
31888W        W 4956  25.050  39.783  11.514
31889W        W 4957  41.453  43.837   3.371
31890W        W 4958  32.035  25.514  13.920
31891W        W 4959  41.146  10.344  11.930
31892W        W 4960  22.192  25.710   1.915
31893W        W 4961  14.334  23.410   2.198
31894W        W 4962  35.397  16.027   5.008
31895W        W 4963  22.667   1.161   1.246
31896W        W 4964  44.305   7.212   1.240
31897W        W 4965  25.581  40.471  12.354
31898W        W 4966   9.259  29.967   2.537
31899W        W 4967  25.554  16.064   1.377
31900W        W 4968  27.133  23.014  13.842
31901W        W 4969  38.612  21.141  12.472
31902W        W 4970  16.506   1.776  13.963
31903W        W 4971  37.289  36.805   3.853
31904W        W 4972   8.241  43.192   1.805
31905W        W 4973  35.483  24.759   4.427
31906W        W 4974  26.966  39.893   3.146
31907W        W 4975  41.349  41.951   1.883
31908W        W 4976   2.170   3.383  11.433
31909W        W 4977  18.208  26.709   3.156
31910W        W 4978  41.363   0.208  10.705
31911W        W 4979  36.977  35.997   0.483
31912W        W 4980  43.010   5.207   4.608
31913W        W 4981  15.731  17.986  14.013
31914W        W 4982  13.594  42.935   2.145
31915W        W 4983   0.077   8.415   1.354
31916W        W 4984  24.204  13.416  11.097
31917W        W 4985  37.338   5.218   1.667
31918W        W 4986  35.893  24.016   1.871
31919W        W 4987   3.700  39.599   1.618
31920W        W 4988  28.060  12.695   4.099
31921W        W 4989  37.358  15.804  10.647
31922W        W 4990  42.463  15.923   1.393
31923W        W 4991   0.592  23.011   1.868
31924W        W 4992  21.242  42.046   2.372
31925W        W 4993   3.958   0.351  12.878
31926W        W 4994  11.131  30.694  13.867
31927W        W 4995  17.145   8.868   9.639
31928W        W 4996  35.185   3.791  14.740
31929W        W 4997   8.217  41.007  11.949
31930W        W 4998   9.844  12.452   3.386
31931W        W 4999   3.854  13.760  14.422
31932W        W 5000   5.125  26.073  12.532
31933W        W 5001  33.107  37.098   5.033
31934W        W 5002  23.750  37.775   4.128
31935W        W 5003   4.381  11.640  14.736
31936W        W 5004  32.373  17.689  14.297
31937W        W 5005  38.138  30.420   0.263
31938W        W 5006   0.982   7.216   3.538
31939W        W 5007   3.285  35.088   0.731
31940W        W 5008  37.015   3.486  12.607
31941W        W 5009  37.970  36.483  13.945
31942W        W 5010   3.014  30.755   3.531
31943W        W 5011   5.374  19.024   3.104
31944W        W 5012   1.887  11.124  13.013
31945W        W 5013   5.775  32.196  13.948
31946W        W 5014   4.168   8.369   0.627
31947W        W 5015  24.684  11.060   2.436
31948W        W 5016  25.450  14.035  14.412
31949W        W 5017  10.953  13.502   2.329
31950W        W 5018  38.604  38.463   4.677
31951W        W 5019  19.557   7.785   3.257
31952W        W 5020   3.297   4.618  10.671
31953W        W 5021  40.531   2.085   1.844
31954W        W 5022  11.874  31.047   0.781
31955W        W 5023   3.734  25.952  10.919
31956W        W 5024  34.163  21.828   4.273
31957W        W 5025  11.720   1.831  13.459
31958W        W 5026  44.326   2.372  14.866
31959W        W 5027  10.219  28.452   1.281
31960W        W 5028  38.061  27.188   4.028
31961W        W 5029  22.422  40.082  13.541
31962W        W 5030  32.971  18.299   0.443
31963W        W 5031   3.788  37.600   0.748
31964W        W 5032  12.855  37.656   4.715
31965W        W 5033  31.633   7.273  13.451
31966W        W 5034  17.803  13.398   0.698
31967W        W 5035   1.767   7.201   3.232
31968W        W 5036  41.599   8.333   1.367
31969W        W 5037  11.243  33.295   4.696
31970W        W 5038   7.431  31.615  14.299
31971W        W 5039  16.653  31.701  14.373
31972W        W 5040  20.135  27.253   4.593
31973W        W 5041  15.826  35.936   3.854
31974W        W 5042   1.401   9.088  14.242
31975W        W 5043  20.742   3.324  10.516
31976W        W 5044  15.669  43.061  11.206
31977W        W 5045  39.972  32.874  13.755
31978W        W 5046  33.467  26.153   3.327
31979W        W 5047   2.327  21.952  11.308
31980W        W 5048  44.726  42.891   4.657
31981W        W 5049  35.031  39.108   1.326
31982W        W 5050  24.931  35.044  11.388
31983W        W 5051  20.688  18.115   3.684
31984W        W 5052   4.790  35.107  13.741
31985W        W 5053   7.196  11.543   1.956
31986W        W 5054  38.236  15.310   1.583
31987W        W 5055  28.030  24.056   0.442
31988W        W 5056  15.867   9.405  14.840
31989W        W 5057  32.962  42.560  13.416
31990W        W 5058  36.441  37.491  10.826
31991W        W 5059  34.334  15.114   2.629
31992W        W 5060  11.328  20.832  14.844
31993W        W 5061  16.599  11.058  11.511
31994W        W 5062  41.078  23.453  14.422
31995W        W 5063  23.774  16.844   4.892
31996W        W 5064   9.304  14.252   4.636
31997W        W 5065   1.102  40.884  10.684
31998W        W 5066  26.055  28.696  13.415
31999W        W 5067  39.987  35.295  11.564
32000W        W 5068  19.965  12.129  12.498
32001W        W 5069   6.140  33.453  11.630
32002W        W 5070   4.192  33.158   3.808
32003W        W 5071  27.107  30.315   2.875
32004W        W 5072  44.285  30.442   3.731
32005W        W 5073  17.550  29.605   2.738
32006W        W 5074   6.668  27.608   2.331
32007W        W 5075  27.912   3.015  12.663
32008W        W 5076   2.047  27.202   2.737
32009W        W 5077  11.752  40.154   3.555
32010W        W 5078  31.108   4.836   4.045
32011W        W 5079  12.390  24.673  11.654
32012W        W 5080   0.706   1.567  14.455
32013W        W 5081  23.128   2.185  11.988
32014W        W 5082  13.778  30.025  13.794
32015W        W 5083  38.390  44.808   2.678
32016W        W 5084  42.938  40.272  12.275
32017W        W 5085  13.502  34.327  12.388
32018W        W 5086  22.984  38.054   0.199
32019W        W 5087  30.052   9.095  13.433
32020W        W 5088  31.437  37.976  13.061
32021W        W 5089  25.018  22.055  11.737
32022W        W 5090  18.329  35.841   0.877
32023W        W 5091  43.261   6.548  12.506
32024W        W 5092  27.091  21.668  10.748
32025W        W 5093  29.886  43.454  12.060
32026W        W 5094  13.233  33.352   3.791
32027W        W 5095  33.882  10.301  12.229
32028W        W 5096  36.027  31.559   4.553
32029W        W 5097  22.882  22.886  11.271
32030W        W 5098  29.081  40.550  14.068
32031W        W 5099  10.733  26.419   2.015
32032W        W 5100  10.570  36.352   1.818
32033W        W 5101   3.343  18.298  14.856
32034W        W 5102  16.345  26.306  12.400
32035W        W 5103  29.526  10.785   0.916
32036W        W 5104  10.325  10.297  14.675
32037W        W 5105  41.790   0.548  13.461
32038W        W 5106   9.276   4.689   1.495
32039W        W 5107   3.299  23.610  11.463
32040W        W 5108  44.742   6.926  13.473
32041W        W 5109  22.264  21.151   1.228
32042W        W 5110  40.911  39.828  14.830
32043W        W 5111   5.661  21.557   4.814
32044W        W 5112  35.048   3.303  14.566
32045W        W 5113  43.913  11.847  14.782
32046W        W 5114  32.149  17.163   0.450
32047W        W 5115   8.643  35.729   3.023
32048W        W 5116  43.154  12.398  13.308
32049W        W 5117   5.150  17.193   1.859
32050W        W 5118  19.892  38.058   1.475
32051W        W 5119  35.355  13.060   0.312
32052W        W 5120   0.911  36.902  12.504
32053W        W 5121  32.201  29.389   3.122
32054W        W 5122  18.748  33.714   0.258
32055W        W 5123  13.405   7.145   0.292
32056W        W 5124  42.726  32.949  12.911
32057W        W 5125  30.683  18.506  13.304
32058W        W 5126  13.597  15.677  12.087
32059W        W 5127  39.355  32.568   3.869
32060W        W 5128  32.648   5.173   2.277
32061W        W 5129   3.877   9.557   1.247
32062W        W 5130  20.771  23.033   2.898
32063W        W 5131  16.712  29.517  11.524
32064W        W 5132  42.245  32.090   4.329
32065W        W 5133   3.393  21.760  12.638
32066W        W 5134  23.451  29.399   1.684
32067W        W 5135  42.868  24.264  12.926
32068W        W 5136  37.049  33.083   3.424
32069W        W 5137  13.412  24.736   2.779
32070W        W 5138  14.721  23.978  14.780
32071W        W 5139  37.298   9.250   2.668
32072W        W 5140  44.437  22.354  13.113
32073W        W 5141  43.392  23.641  10.769
32074W        W 5142  31.155  11.499  13.305
32075W        W 5143  43.436  42.448  14.213
32076W        W 5144  26.977  10.312  10.189
32077W        W 5145  11.120   3.749  13.387
32078W        W 5146  43.710  28.007   2.867
32079W        W 5147   8.870   1.860  14.735
32080W        W 5148   0.455  25.035  13.158
32081W        W 5149  29.709  32.368  13.486
32082W        W 5150  15.511  13.681  13.951
32083W        W 5151  19.758  43.759  14.700
32084W        W 5152  24.265  13.109  14.360
32085W        W 5153   9.884  13.843   3.202
32086W        W 5154  27.620   9.214   4.170
32087W        W 5155  28.081  12.426  11.124
32088W        W 5156  20.126  33.932   3.334
32089W        W 5157   6.376  13.224   1.147
32090W        W 5158   2.499  34.595   4.081
32091W        W 5159  30.975  42.294  10.760
32092W        W 5160  32.037   6.819   1.172
32093W        W 5161  14.054   8.250   4.538
32094W        W 5162  21.061  21.988   4.722
32095W        W 5163   7.262  15.428   2.324
32096W        W 5164  20.622  32.154  13.034
32097W        W 5165  23.436  13.632   0.709
32098W        W 5166  23.712  17.289  14.432
32099W        W 5167  34.357  32.150  12.132
32100W        W 5168   0.948  16.242  13.549
32101W        W 5169  12.201  28.846  11.121
32102W        W 5170  38.939  32.114   4.524
32103W        W 5171  39.294  35.858   2.757
32104W        W 5172   8.241   7.245  10.987
32105W        W 5173  40.483  33.220  11.819
32106W        W 5174  41.738   2.117  10.178
32107W        W 5175   8.785  38.001  12.103
32108W        W 5176  42.279  40.478   3.552
32109W        W 5177  34.308  13.446  11.103
32110W        W 5178  39.815  43.234   0.374
32111W        W 5179  16.331  17.976  14.340
32112W        W 5180  18.393   6.224  11.678
32113W        W 5181  33.824   5.168  12.975
32114W        W 5182  21.709  11.895  12.328
32115W        W 5183  28.396  41.299   1.298
32116W        W 5184  33.610  31.063  11.247
32117W        W 5185  10.617  31.681  14.244
32118W        W 5186  13.353  25.478   0.871
32119W        W 5187  10.313  37.041  10.993
32120W        W 5188   0.942  37.081  10.188
32121W        W 5189   1.027  36.265   3.661
32122W        W 5190  38.096  32.766   9.723
32123W        W 5191  31.651  12.109   0.275
32124W        W 5192   1.379  41.315   3.875
32125W        W 5193  28.147  14.322   2.339
32126W        W 5194   7.966  21.787  10.703
32127W        W 5195  24.730  26.171   1.184
32128W        W 5196  35.929  27.404   2.431
32129W        W 5197  39.759  30.140  12.801
32130W        W 5198   2.832  25.072  11.970
32131W        W 5199  17.662  36.082  14.914
32132W        W 5200  16.947  39.049   0.182
32133W        W 5201  18.375  17.141  14.990
32134W        W 5202  40.048  24.138  10.568
32135W        W 5203  33.901  36.374  10.615
32136W        W 5204   8.746  18.795  10.691
32137W        W 5205   9.467   9.315   3.798
32138W        W 5206  43.305  44.484  12.502
32139W        W 5207  20.342   9.914   2.253
32140W        W 5208  19.196  22.479   4.715
32141W        W 5209  10.909  29.988   2.625
32142W        W 5210   1.024  33.645  11.672
32143W        W 5211  44.677   9.695  10.254
32144W        W 5212  39.795   8.748   3.639
32145W        W 5213  30.941  43.709  13.743
32146W        W 5214  18.597  35.180   0.278
32147W        W 5215  21.516   2.718  11.476
32148W        W 5216  35.385  39.240   3.312
32149W        W 5217  41.889  42.111  14.539
32150W        W 5218  17.406   1.377   1.360
32151W        W 5219  22.536  15.290   3.746
32152W        W 5220  29.947   5.823   2.881
32153W        W 5221  38.380  22.089   2.176
32154W        W 5222  39.524  21.790   3.178
32155W        W 5223   3.362  11.134   4.630
32156W        W 5224  33.715  19.838  12.262
32157W        W 5225  11.300  17.114  10.679
32158W        W 5226   7.694  20.739   3.427
32159W        W 5227   2.014  29.034  12.023
32160W        W 5228  19.584  36.240   3.835
32161W        W 5229  31.022  20.324  14.778
32162W        W 5230  27.164  28.189  12.437
32163W        W 5231  28.182  41.458  14.432
32164W        W 5232  12.334  31.586  12.013
32165W        W 5233  37.270   0.299  10.885
32166W        W 5234  13.254   8.400  13.922
32167W        W 5235  35.842  35.097  14.336
32168W        W 5236  14.711  31.647  11.500
32169W        W 5237   9.820  10.833  13.514
32170W        W 5238  29.819  15.459   4.548
32171W        W 5239  19.996  15.639  11.987
32172W        W 5240  29.747  39.891   1.814
32173W        W 5241  34.809  10.695   2.782
32174W        W 5242  19.015   6.937  14.973
32175W        W 5243  37.741  28.602   3.734
32176W        W 5244  38.089  40.390  11.639
32177W        W 5245   0.328   3.262  14.849
32178W        W 5246  31.047   8.330  13.051
32179W        W 5247  13.813  32.830  14.889
32180W        W 5248   1.028  24.545   3.398
32181W        W 5249   0.247  26.070   1.333
32182W        W 5250  37.311  26.782  11.066
32183W        W 5251  24.202  11.089  12.015
32184W        W 5252  14.172  21.554   1.745
32185W        W 5253  24.932  13.877   0.469
32186W        W 5254  30.029  17.829   4.181
32187W        W 5255  34.008  34.644   3.039
32188W        W 5256  14.089  36.816   2.023
32189W        W 5257  19.729  39.495  11.086
32190W        W 5258  31.048  24.806   4.934
32191W        W 5259  35.107  19.169  11.065
32192W        W 5260  40.919  19.294  11.706
32193W        W 5261  24.913  39.995   9.887
32194W        W 5262  43.437  26.645  14.783
32195W        W 5263  42.112   9.695  14.374
32196W        W 5264  10.197  19.565   5.048
32197W        W 5265  35.023   3.252   4.638
32198W        W 5266   8.469  10.714  11.062
32199W        W 5267  25.026  25.003  11.448
32200W        W 5268  33.018  15.126   1.855
32201W        W 5269  17.323  32.633  12.904
32202W        W 5270  33.577   9.155  10.467
32203W        W 5271  11.237  10.182  13.496
32204W        W 5272  30.143  13.396  11.082
32205W        W 5273  37.831   0.861  12.359
32206W        W 5274  35.558  15.656   4.662
32207W        W 5275  36.428  40.857  10.763
32208W        W 5276  18.274  33.412   1.259
32209W        W 5277   6.685  20.678   1.875
32210W        W 5278  39.006   5.929   5.111
32211W        W 5279  13.324   6.157  12.436
32212W        W 5280  44.475  39.415  14.754
32213W        W 5281  12.363  10.481   4.691
32214W        W 5282   9.628  41.305  11.175
32215W        W 5283  35.333  30.984  10.549
32216W        W 5284  33.269  19.269  12.614
32217W        W 5285  11.886  37.332   2.299
32218W        W 5286   4.592  43.715   3.499
32219W        W 5287  29.374  15.598  11.973
32220W        W 5288   3.871   1.361   0.685
32221W        W 5289  39.678  39.620   4.526
32222W        W 5290  24.521  40.379   1.824
32223W        W 5291  39.339  32.003   0.295
32224W        W 5292  42.002   4.590  13.041
32225W        W 5293  15.395  40.357  11.663
32226W        W 5294  10.680  19.283   1.548
32227W        W 5295  17.108  20.195   0.995
32228W        W 5296  32.620  24.038  10.770
32229W        W 5297   6.714  25.029   4.702
32230W        W 5298  15.508  23.063   2.910
32231W        W 5299  17.177  42.274   2.449
32232W        W 5300  35.594   7.879   4.025
32233W        W 5301  24.985  12.335  11.141
32234W        W 5302   8.700  21.970  12.956
32235W        W 5303  44.493  33.753   4.985
32236W        W 5304  18.636   6.418   3.577
32237W        W 5305  36.337  12.497  12.630
32238W        W 5306   0.238  24.162   4.620
32239W        W 5307  38.581   2.870  14.940
32240W        W 5308  20.359   3.205   1.589
32241W        W 5309  39.915  33.773   4.394
32242W        W 5310  10.856  14.102   2.951
32243W        W 5311   0.686   9.779   1.763
32244W        W 5312  12.584   1.310   2.117
32245W        W 5313  32.535  37.814  13.327
32246W        W 5314  23.715   0.127   0.849
32247W        W 5315  27.599  27.575  11.483
32248W        W 5316  38.921   6.767   2.201
32249W        W 5317  21.884  33.587  13.354
32250W        W 5318  16.145  36.338   2.889
32251W        W 5319  40.780  27.827   0.344
32252W        W 5320   6.070   0.360   3.793
32253W        W 5321   6.108   7.234   1.195
32254W        W 5322  13.853  15.528   4.609
32255W        W 5323  11.384  31.861   2.678
32256W        W 5324   9.505  30.362  10.089
32257W        W 5325   0.505  15.844  14.156
32258W        W 5326  17.189  29.985   4.552
32259W        W 5327  12.232   7.728   3.724
32260W        W 5328  17.603  24.158  11.510
32261W        W 5329   4.324  29.530   2.158
32262W        W 5330  31.242  15.731   1.447
32263W        W 5331  36.875  39.843  10.472
32264W        W 5332  16.705  11.295   1.408
32265W        W 5333   9.269  37.257   2.719
32266W        W 5334  27.700  22.549   1.724
32267W        W 5335  21.265  18.639   5.130
32268W        W 5336  10.766  40.549  14.333
32269W        W 5337  34.361  26.065   4.192
32270W        W 5338  17.838   0.738  14.806
32271W        W 5339   8.324  25.736  13.055
32272W        W 5340  24.524  44.768  12.558
32273W        W 5341   1.759  14.817   3.170
32274W        W 5342  19.041  38.267   2.247
32275W        W 5343  32.439   3.426  10.240
32276W        W 5344  44.712  13.665  13.437
32277W        W 5345  10.791  40.441  11.082
32278W        W 5346  24.694   7.816   0.802
32279W        W 5347  21.747  19.628  14.371
32280W        W 5348  39.953  18.142   4.416
32281W        W 5349  17.668  34.367  13.245
32282W        W 5350  44.875  20.997   1.783
32283W        W 5351  30.178  15.338   3.625
32284W        W 5352  38.660  20.377   2.127
32285W        W 5353  29.222   5.210  12.066
32286W        W 5354  44.821  16.490  12.088
32287W        W 5355  13.705   7.365  14.122
32288W        W 5356   1.778  20.699  12.460
32289W        W 5357  13.108  33.521   0.574
32290W        W 5358   7.351  19.791   3.827
32291W        W 5359  17.071   5.650  10.670
32292W        W 5360  29.091  11.603   2.847
32293W        W 5361  34.120  38.777   1.440
32294W        W 5362  34.421  39.779   1.640
32295W        W 5363   4.963  12.072   0.479
32296W        W 5364  14.103  22.566  14.048
32297W        W 5365  15.617   9.937   0.017
32298W        W 5366   6.492  42.067   2.382
32299W        W 5367  12.692  24.496   4.559
32300W        W 5368  36.896  22.539  12.487
32301W        W 5369  20.953  14.778   1.933
32302W        W 5370  24.694  40.870   0.887
32303W        W 5371  27.560  33.411   0.628
32304W        W 5372  24.522  36.588  12.173
32305W        W 5373  13.135  41.008  13.070
32306W        W 5374  41.073  10.764  11.030
32307W        W 5375  38.752  33.564  11.651
32308W        W 5376  38.103  27.598   3.197
32309W        W 5377   8.438  36.540  13.870
32310W        W 5378   3.260  42.996   2.292
32311W        W 5379  40.950  43.982   4.594
32312W        W 5380  20.612   1.636   3.219
32313W        W 5381   7.451  21.587   1.458
32314W        W 5382  17.626  28.918  14.457
32315W        W 5383  22.552   2.846   4.437
32316W        W 5384   5.693  28.157   4.595
32317W        W 5385  18.744   4.803  13.346
32318W        W 5386  37.108  13.855  14.038
32319W        W 5387   5.852  43.277   3.158
32320W        W 5388  32.009   9.613  13.375
32321W        W 5389   0.251  16.782  13.582
32322W        W 5390  17.723  27.591  14.908
32323W        W 5391  37.749   9.446  13.996
32324W        W 5392  34.024  37.533   0.916
32325W        W 5393  41.482  36.755  12.117
32326W        W 5394  42.976  14.592  11.760
32327W        W 5395  18.130  37.932   4.278
32328W        W 5396  18.298  31.086  13.946
32329W        W 5397  41.777  29.936  11.188
32330W        W 5398  19.561  22.806   3.239
32331W        W 5399   3.123  41.920  11.677
32332W        W 5400  21.128  20.985  11.548
32333W        W 5401  22.322   0.293   1.387
32334W        W 5402  37.481  12.874   3.394
32335W        W 5403  26.464  35.192  11.648
32336W        W 5404  37.686  40.888   1.662
32337W        W 5405  13.816  37.100   4.746
32338W        W 5406  15.052  20.648  11.111
32339W        W 5407  28.555  22.202  14.281
32340W        W 5408  33.374  17.947  11.018
32341W        W 5409  24.403  11.743  11.417
32342W        W 5410  17.054  18.784   4.909
32343W        W 5411  38.461  43.442   0.226
32344W        W 5412  34.883   1.661   4.600
32345W        W 5413  31.748  25.984   1.475
32346W        W 5414  18.913  41.014   2.895
32347W        W 5415  40.788  41.984  11.153
32348W        W 5416  39.496  18.995  11.994
32349W        W 5417  12.891  34.480  13.880
32350W        W 5418   1.342  34.140   2.337
32351W        W 5419  24.168  44.505   1.365
32352W        W 5420  14.766  20.643  12.155
32353W        W 5421  41.174   1.293   4.589
32354W        W 5422  29.976   3.808   2.138
32355W        W 5423  14.247  25.695   2.963
32356W        W 5424  19.204   5.187  12.454
32357W        W 5425  31.843  12.367  12.098
32358W        W 5426  38.933  41.814   3.200
32359W        W 5427   7.121  29.645   2.130
32360W        W 5428  28.440  39.223  11.965
32361W        W 5429  42.320   3.226  12.011
32362W        W 5430  22.064  33.092   1.339
32363W        W 5431  11.826  34.658  10.994
32364W        W 5432  17.505   3.877  11.176
32365W        W 5433  25.508   3.310   0.544
32366W        W 5434  28.911  43.749   2.432
32367W        W 5435  13.236  22.619  14.584
32368W        W 5436   1.326   8.202   0.949
32369W        W 5437  34.481   6.228   4.159
32370W        W 5438   4.181  17.394   4.542
32371W        W 5439   7.599  39.057  14.975
32372W        W 5440  21.942  21.032  13.294
32373W        W 5441  35.331   4.213   1.751
32374W        W 5442  19.280  15.345   3.423
32375W        W 5443  24.512  21.454   1.345
32376W        W 5444  42.022  13.191  10.314
32377W        W 5445  39.362   8.141   3.992
32378W        W 5446   6.846  44.850   0.508
32379W        W 5447  25.503  40.623   3.668
32380W        W 5448  10.495  30.479  10.679
32381W        W 5449   3.247  18.398   0.596
32382W        W 5450   2.817  30.306  14.939
32383W        W 5451   9.955   2.976   1.755
32384W        W 5452  16.466  22.029   4.533
32385W        W 5453   5.392  15.838   1.388
32386W        W 5454  33.466  39.507   2.247
32387W        W 5455  21.532   9.292   3.813
32388W        W 5456  20.309  22.260   1.880
32389W        W 5457  18.241   0.527   4.618
32390W        W 5458  38.547  33.201   1.044
32391W        W 5459   3.654   8.191   0.354
32392W        W 5460  16.315   1.343  10.695
32393W        W 5461  29.396   4.330  11.732
32394W        W 5462  29.958  34.046  14.737
32395W        W 5463  23.194  37.040  14.304
32396W        W 5464  37.490  21.032   0.470
32397W        W 5465  35.135  15.527  13.359
32398W        W 5466  36.581  32.399   2.212
32399W        W 5467   5.311  21.624  11.475
32400W        W 5468  20.401  42.304  13.590
32401W        W 5469  36.718  18.606   1.784
32402W        W 5470   8.802   4.612   1.711
32403W        W 5471   6.863  29.532   3.418
32404W        W 5472  27.234  35.002   4.734
32405W        W 5473  14.185   2.272  11.681
32406W        W 5474  27.295   2.569   1.417
32407W        W 5475  24.090  28.184   2.187
32408W        W 5476   3.739  30.691   2.680
32409W        W 5477   2.818  16.604  13.409
32410W        W 5478  18.987   4.718   4.158
32411W        W 5479  21.444   8.958   2.982
32412W        W 5480  11.436  38.473  13.505
32413W        W 5481  29.567  43.598   1.403
32414W        W 5482  11.233  25.202   3.664
32415W        W 5483  26.556   5.535  14.793
32416W        W 5484   5.245  31.421  13.957
32417W        W 5485  22.823  15.116  12.887
32418W        W 5486   0.730  34.440  12.007
32419W        W 5487  39.941   3.115  11.623
32420W        W 5488  15.468  10.729  14.798
32421W        W 5489  44.130  24.901   1.454
32422W        W 5490  37.049  11.633   4.951
32423W        W 5491  24.125  33.877   2.799
32424W        W 5492  37.188  20.822   4.816
32425W        W 5493  11.839  26.231   3.221
32426W        W 5494  13.858  29.405   3.684
32427W        W 5495  34.906  11.898   3.288
32428W        W 5496  38.093   8.513  13.883
32429W        W 5497  34.435  37.559   0.172
32430W        W 5498  37.492  34.848  11.173
32431W        W 5499  18.808  42.807  11.011
32432W        W 5500  31.870   5.719  11.144
32433W        W 5501  17.367  13.863  11.379
32434W        W 5502  19.220   2.694  12.105
32435W        W 5503  41.777  34.393   2.200
32436W        W 5504  24.270   3.834  12.037
32437W        W 5505   9.815  18.646   3.058
32438W        W 5506  36.102  12.262   0.304
32439W        W 5507  27.140   2.770  11.527
32440W        W 5508  30.195  38.899  11.934
32441W        W 5509  28.918  20.629   2.037
32442W        W 5510  27.527  32.412   0.470
32443W        W 5511  35.496  41.582  11.054
32444W        W 5512   5.395  28.361  11.589
32445W        W 5513  41.721   9.270  13.064
32446W        W 5514  35.070   2.458  14.672
32447W        W 5515  12.218  23.992   3.936
32448W        W 5516  22.515  33.961  14.564
32449W        W 5517  21.352  36.941  14.317
32450W        W 5518   2.535  38.980  11.748
32451W        W 5519  41.265  34.590  10.457
32452W        W 5520   9.054   5.710   4.016
32453W        W 5521  22.291  41.964  12.014
32454W        W 5522  21.477  17.304   1.272
32455W        W 5523  13.535  24.370   3.781
32456W        W 5524  20.136  43.843   0.836
32457W        W 5525   3.404   2.978   3.185
32458W        W 5526  44.399   6.177   0.490
32459W        W 5527  14.515  15.752   0.335
32460W        W 5528  42.995  17.574  14.247
32461W        W 5529  16.231   3.752  13.070
32462W        W 5530  20.872  17.328   2.316
32463W        W 5531  22.211  21.379  11.985
32464W        W 5532   1.059  44.312  12.919
32465W        W 5533  40.515  32.866  14.439
32466W        W 5534  32.168   2.426   2.131
32467W        W 5535  39.018  12.437   4.681
32468W        W 5536   8.705  18.511  11.149
32469W        W 5537  35.995  22.829  11.521
32470W        W 5538   3.703   7.560   0.795
32471W        W 5539  15.065  42.365  11.152
32472W        W 5540  40.018  18.081  14.578
32473W        W 5541  22.219  19.746  13.415
32474W        W 5542  25.219  36.733   0.261
32475W        W 5543  13.290  35.326   0.980
32476W        W 5544  31.361  39.464  13.476
32477W        W 5545  13.305  37.368  11.232
32478W        W 5546  12.492  35.423   3.525
32479W        W 5547  31.917  17.748  13.321
32480W        W 5548  24.677  26.053  12.522
32481W        W 5549   7.833  36.019  12.284
32482W        W 5550   4.396  41.091   2.445
32483W        W 5551  36.109   8.719  13.963
32484W        W 5552  33.204  16.229  13.194
32485W        W 5553  38.288   8.482   5.025
32486W        W 5554   8.300  40.666   3.746
32487W        W 5555  38.982   2.414   0.447
32488W        W 5556  10.877  12.221   3.277
32489W        W 5557  44.305  41.920   2.149
32490W        W 5558  25.998  27.968   2.333
32491W        W 5559   5.778   0.789  11.631
32492W        W 5560  28.222  40.684   9.900
32493W        W 5561   2.785  32.853  11.991
32494W        W 5562  36.130  38.531   3.270
32495W        W 5563   1.368  33.973   4.544
32496W        W 5564  17.782  21.112  13.836
32497W        W 5565  36.905  29.859   2.290
32498W        W 5566  44.426  34.755  12.877
32499W        W 5567  44.814  23.525   4.506
32500W        W 5568  44.702  42.169  13.071
32501W        W 5569  12.293  23.191   4.611
32502W        W 5570  16.562   0.433  11.668
32503W        W 5571  13.768  41.239  10.689
32504W        W 5572   7.265  14.584   2.380
32505W        W 5573  39.130  37.816   4.414
32506W        W 5574  32.854  41.921   3.163
32507W        W 5575  26.503  44.391  14.179
32508W        W 5576  13.857  32.448  11.138
32509W        W 5577  30.065  26.302   3.892
32510W        W 5578  44.841  18.663   4.454
32511W        W 5579  15.687  42.273  12.383
32512W        W 5580  33.509  10.747   2.232
32513W        W 5581   1.822  11.093   3.900
32514W        W 5582   1.771   3.846   3.314
32515W        W 5583   1.252  22.538  10.833
32516W        W 5584  37.911  17.264   0.463
32517W        W 5585   5.454   0.386  13.849
32518W        W 5586  33.911  34.917  14.367
32519W        W 5587  30.374  37.225  12.002
32520W        W 5588   9.751  28.662  13.007
32521W        W 5589  29.330  11.834  14.513
32522W        W 5590  35.500  25.402   1.277
32523W        W 5591  36.960  34.260   1.217
32524W        W 5592  29.983  10.573  13.431
32525W        W 5593  33.955  39.416   4.567
32526W        W 5594  19.349  29.436  14.534
32527W        W 5595  14.639  44.011  12.384
32528W        W 5596  29.233  16.284  12.903
32529W        W 5597  22.858  15.864   0.420
32530W        W 5598  38.623  37.149  14.725
32531W        W 5599  14.162  13.442   4.165
32532W        W 5600   0.184  12.759  13.387
32533W        W 5601  25.344  39.600   4.380
32534W        W 5602  39.825  11.580  13.969
32535W        W 5603  33.693   7.243   1.823
32536W        W 5604  36.599  18.194  10.623
32537W        W 5605  12.639  12.677  13.163
32538W        W 5606  20.232  38.312   3.457
32539W        W 5607  24.119  18.167  11.040
32540W        W 5608   8.595  27.683  11.227
32541W        W 5609  40.770  21.035  10.714
32542W        W 5610   7.851   9.865   4.315
32543W        W 5611   2.008  21.236  11.172
32544W        W 5612  42.516   1.743   0.811
32545W        W 5613  40.421   4.807   3.773
32546W        W 5614  34.956  25.024   2.021
32547W        W 5615  29.832  40.762  10.637
32548W        W 5616   3.236   1.459  14.489
32549W        W 5617  11.704  13.174  11.366
32550W        W 5618  20.990   1.004   4.277
32551W        W 5619  28.896  38.085  14.887
32552W        W 5620   7.938  11.058   2.898
32553W        W 5621  39.858  10.488   3.203
32554W        W 5622   6.767  34.061   0.494
32555W        W 5623  15.332  30.012   2.180
32556W        W 5624  38.375   1.280  11.959
32557W        W 5625  35.405  18.773  14.237
32558W        W 5626  40.134  13.476   9.537
32559W        W 5627  39.292  21.499   2.734
32560W        W 5628   3.944  12.142   1.246
32561W        W 5629   7.655   5.563   0.244
32562W        W 5630  28.104  42.511   0.358
32563W        W 5631  38.496  16.070   0.704
32564W        W 5632  18.545  16.394  13.382
32565W        W 5633  20.600   6.371  14.698
32566W        W 5634  21.212  13.281   2.740
32567W        W 5635  10.396   7.847   0.145
32568W        W 5636  20.997  15.649  14.023
32569W        W 5637  19.668  26.704  11.070
32570W        W 5638  44.539  34.574  11.620
32571W        W 5639  25.130   0.167  14.802
32572W        W 5640  13.579  28.319  14.456
32573W        W 5641  19.185   2.329   4.669
32574W        W 5642   0.679  32.087  14.833
32575W        W 5643  18.509  21.143   2.282
32576W        W 5644   2.635   5.362  14.058
32577W        W 5645  11.112  11.356  13.051
32578W        W 5646   7.903  41.988   0.279
32579W        W 5647   4.392  31.147  11.207
32580W        W 5648  37.615  44.017   2.690
32581W        W 5649   5.130  11.506  11.293
32582W        W 5650  22.152   7.458  14.948
32583W        W 5651  26.718   8.596   3.703
32584W        W 5652   9.123   7.344   2.136
32585W        W 5653  30.537  21.713  12.574
32586W        W 5654  15.168   4.973  12.399
32587W        W 5655   8.661  20.247  14.616
32588W        W 5656  39.976   6.747   1.610
32589W        W 5657  23.760  14.373   1.210
32590W        W 5658  33.182  35.511   2.908
32591W        W 5659   3.954   9.231  14.322
32592W        W 5660  23.650  20.167  11.204
32593W        W 5661  44.250  33.660  14.350
32594W        W 5662  31.006  39.077  13.335
32595W        W 5663  16.441  20.104  13.718
32596W        W 5664  31.696  21.483  11.167
32597W        W 5665  43.336  26.365  12.445
32598W        W 5666  30.057  29.912  10.962
32599W        W 5667  40.549  11.068   2.771
32600W        W 5668  41.404  41.491  10.778
32601W        W 5669  36.730  14.330  10.097
32602W        W 5670  15.912  43.353  13.570
32603W        W 5671  31.280  39.722   4.186
32604W        W 5672  44.241  15.850   1.735
32605W        W 5673  12.140  20.562   2.757
32606W        W 5674  34.277   9.651  13.157
32607W        W 5675  24.010  24.161   0.032
32608W        W 5676  17.068  16.945   1.981
32609W        W 5677  44.956  29.045  14.380
32610W        W 5678  38.464  39.512   2.176
32611W        W 5679  38.544  10.301   1.703
32612W        W 5680  43.513  31.190   0.747
32613W        W 5681  19.270   6.214  10.537
32614W        W 5682  44.284  29.407  11.655
32615W        W 5683  17.299   7.355   1.288
32616W        W 5684  14.070  12.446   3.949
32617W        W 5685  42.474   0.044   4.416
32618W        W 5686   6.254  19.087  11.512
32619W        W 5687  25.069  14.685  13.477
32620W        W 5688  42.967   4.115  11.533
32621W        W 5689  28.129  13.765   1.426
32622W        W 5690  17.013  26.926  11.105
32623W        W 5691   8.133  18.207   0.304
32624W        W 5692   3.310   0.963   4.047
32625W        W 5693   5.799  38.840   2.765
32626W        W 5694  25.055  21.961  14.457
32627W        W 5695  31.361  17.652  14.390
32628W        W 5696  10.376  26.417  13.081
32629W        W 5697   7.629  34.540   4.166
32630W        W 5698  30.372   9.292   0.356
32631W        W 5699   8.346  38.761  13.533
32632W        W 5700  37.013  20.793   0.346
32633W        W 5701  13.375   9.040   3.238
32634W        W 5702  17.569  17.329   1.925
32635W        W 5703   0.844  30.310   0.805
32636W        W 5704  27.061  44.221  12.535
32637W        W 5705  32.349  36.630   1.320
32638W        W 5706  32.173  36.136   1.356
32639W        W 5707  37.923  16.609   2.261
32640W        W 5708   6.068   9.909   1.333
32641W        W 5709  43.306  35.533   2.641
32642W        W 5710   6.336  30.955   1.800
32643W        W 5711   3.831  12.545   3.086
32644W        W 5712  18.480  22.213   2.225
32645W        W 5713  24.414  11.258  13.992
32646W        W 5714  15.618  38.807   0.432
32647W        W 5715  12.186   4.909  13.947
32648W        W 5716   2.406  34.018  10.659
32649W        W 5717   1.528  40.104   4.320
32650W        W 5718  39.595   5.364  10.721
32651W        W 5719  42.262  14.788  10.804
32652W        W 5720  20.294  43.014  12.149
32653W        W 5721  41.255   6.414   2.703
32654W        W 5722   0.532  14.710   3.794
32655W        W 5723  13.335  28.589  10.960
32656W        W 5724  42.784   3.005   2.834
32657W        W 5725   9.493  15.561   2.596
32658W        W 5726  22.034   8.202   3.416
32659W        W 5727   4.083  43.357  11.269
32660W        W 5728  26.241  39.169   3.099
32661W        W 5729  44.440  14.312   3.298
32662W        W 5730  14.217  31.984   1.180
32663W        W 5731  22.765  14.132   0.475
32664W        W 5732   8.984   7.689  11.469
32665W        W 5733   4.629  33.140   4.545
32666W        W 5734  36.109  26.679   1.780
32667W        W 5735  12.296  32.128   1.833
32668W        W 5736  27.507  18.155  14.314
32669W        W 5737  22.590  14.258   1.388
32670W        W 5738  43.822  23.677  10.465
32671W        W 5739  37.542  14.520  11.646
32672W        W 5740  22.964  31.384  14.789
32673W        W 5741  24.712  12.321   2.790
32674W        W 5742  35.492  34.916  11.384
32675W        W 5743  11.372  30.973  14.275
32676W        W 5744   6.359   3.294  10.640
32677W        W 5745  14.217   9.136  11.085
32678W        W 5746  22.394  35.453  14.995
32679W        W 5747  22.572  32.994   3.178
32680W        W 5748  14.800   2.802  14.502
32681W        W 5749  17.735   5.828  13.256
32682W        W 5750  20.543  38.625   1.224
32683W        W 5751  32.700  44.486   2.585
32684W        W 5752   3.391  31.523  13.592
32685W        W 5753  16.088  35.042   2.645
32686W        W 5754  13.944   6.368  13.040
32687W        W 5755  27.068  41.534  10.767
32688W        W 5756  15.037  39.013   4.613
32689W        W 5757  33.839  34.462  12.573
32690W        W 5758  40.919  18.232  11.663
32691W        W 5759   0.914  42.161   1.468
32692W        W 5760  27.174   3.390  13.859
32693W        W 5761  37.065  21.478  12.821
32694W        W 5762  32.534  30.131  12.743
32695W        W 5763  38.375  10.070   0.351
32696W        W 5764  41.254  13.062   3.698
32697W        W 5765   0.351   9.709   2.685
32698W        W 5766  40.452  29.817   5.205
32699W        W 5767  20.987  19.946  13.385
32700W        W 5768  24.533  24.277   4.076
32701W        W 5769  25.278  13.637   3.986
32702W        W 5770  42.249  44.571   3.126
32703W        W 5771  33.556  17.685  14.788
32704W        W 5772  35.147  14.245   4.571
32705W        W 5773  10.699  28.718   0.609
32706W        W 5774  21.502  14.695  10.603
32707W        W 5775  38.154  18.674   3.212
32708W        W 5776   0.985  44.367  11.905
32709W        W 5777   3.431  20.560   3.176
32710W        W 5778   0.408  44.185  13.925
32711W        W 5779  25.772  35.648  11.202
32712W        W 5780  14.304   7.872  14.276
32713W        W 5781  14.753  23.112  12.848
32714W        W 5782   0.824  40.137  11.991
32715W        W 5783  36.127  18.775  13.520
32716W        W 5784  40.915  35.755   2.313
32717W        W 5785  10.116  37.639   1.197
32718W        W 5786  38.110  17.785  11.463
32719W        W 5787  42.175  34.527   2.501
32720W        W 5788  32.203  17.369   4.928
32721W        W 5789   7.121   1.500   3.212
32722W        W 5790  38.465  42.542  10.580
32723W        W 5791  34.682  20.971  13.040
32724W        W 5792  34.006  27.538   0.307
32725W        W 5793   7.874   0.308   1.653
32726W        W 5794  29.181   5.869  11.209
32727W        W 5795  18.881  15.595   1.097
32728W        W 5796  42.233   5.759   0.511
32729W        W 5797  34.520   7.190  12.010
32730W        W 5798  42.673  29.199   1.172
32731W        W 5799   1.474  38.905   4.692
32732W        W 5800  28.582   9.969   0.251
32733W        W 5801  25.518  15.742   3.594
32734W        W 5802  12.333   4.755   2.286
32735W        W 5803  19.832  14.909   0.403
32736W        W 5804  34.323  36.859  10.644
32737W        W 5805  17.585  18.300  12.570
32738W        W 5806   1.470   7.204   2.305
32739W        W 5807   5.733  26.693   2.306
32740W        W 5808  14.878  12.359   1.790
32741W        W 5809  44.956  36.395  12.508
32742W        W 5810  27.410  18.189  11.127
32743W        W 5811  22.434   6.358   3.565
32744W        W 5812  44.421  29.170  14.306
32745W        W 5813  38.851  10.164  13.017
32746W        W 5814  18.306   9.693  12.086
32747W        W 5815  31.863   8.175  14.524
32748W        W 5816  39.614  32.592   2.426
32749W        W 5817  26.101   8.000   0.903
32750W        W 5818   2.502  44.232  11.088
32751W        W 5819   7.000   5.584   1.254
32752W        W 5820  37.998  27.496   4.914
32753W        W 5821  35.071  23.588   0.729
32754W        W 5822  37.013  17.830   1.878
32755W        W 5823   9.587  33.495   3.917
32756W        W 5824  19.726   7.817   0.349
32757W        W 5825  29.903  16.321  14.984
32758W        W 5826  40.549  21.003   0.289
32759W        W 5827  39.439  38.529   2.868
32760W        W 5828  21.566   1.730  11.526
32761W        W 5829   1.234  16.129  13.070
32762W        W 5830  27.784  32.817   1.396
32763W        W 5831  26.836   9.669  11.420
32764W        W 5832  13.772   1.154  13.475
32765W        W 5833   7.898  32.063  11.235
32766W        W 5834  19.251   4.270   2.764
32767W        W 5835   8.670  25.954  12.736
32768W        W 5836  34.134  44.502   2.747
32769W        W 5837   6.323  29.641  13.876
32770W        W 5838  10.937  34.219  13.279
32771W        W 5839   5.290  25.939   1.209
32772W        W 5840  12.167  42.591  12.199
32773W        W 5841  43.927  24.455   1.718
32774W        W 5842  38.235  23.106   2.865
32775W        W 5843  11.274  13.777   0.247
32776W        W 5844   3.020  43.259   0.307
32777W        W 5845  17.179  42.083   0.686
32778W        W 5846  17.633  15.352  14.242
32779W        W 5847   3.342   1.461  13.577
32780W        W 5848  30.093   2.250   1.906
32781W        W 5849  37.096  38.842  14.731
32782W        W 5850  23.037  32.446  11.717
32783W        W 5851  17.700   4.499  13.900
32784W        W 5852  23.652  22.173   4.594
32785W        W 5853   4.287  15.579   3.859
32786W        W 5854  17.319  14.764   1.936
32787W        W 5855  26.522  10.700  12.344
32788W        W 5856   2.418  44.765   1.691
32789W        W 5857  22.828  44.884   3.169
32790W        W 5858  32.659  38.326   1.949
32791W        W 5859  13.266  22.827  12.234
32792W        W 5860   5.919   0.896   3.330
32793W        W 5861  19.169  21.983   4.492
32794W        W 5862  30.474   6.718  11.637
32795W        W 5863  41.789  30.097   2.782
32796W        W 5864  27.810  43.986  11.583
32797W        W 5865  31.471   0.513   2.843
32798W        W 5866  30.588  26.458   0.697
32799W        W 5867  26.545   4.496  13.639
32800W        W 5868  21.121  18.094   2.387
32801W        W 5869  17.114  26.211  13.769
32802W        W 5870   3.018   0.557  12.522
32803W        W 5871   6.340  21.448   3.522
32804W        W 5872   1.880  16.728   1.197
32805W        W 5873  37.677  27.406  13.498
32806W        W 5874  35.476  34.321   4.081
32807W        W 5875  36.060  36.663   3.245
32808W        W 5876   8.124  31.955   1.925
32809W        W 5877   8.750  27.620  13.743
32810W        W 5878   4.302   3.942   3.295
32811W        W 5879  41.816  33.653   1.607
32812W        W 5880  36.579   9.142  13.447
32813W        W 5881  13.515   4.088   2.852
32814W        W 5882  30.720  16.146  14.842
32815W        W 5883  37.444  21.851  14.822
32816W        W 5884  35.862  30.988   0.419
32817W        W 5885  16.556  26.534   0.494
32818W        W 5886   7.294  21.979   3.295
32819W        W 5887  29.111   3.223   2.400
32820W        W 5888  38.760  25.575   1.693
32821W        W 5889  32.901  24.775   0.321
32822W        W 5890  27.042  17.102  12.168
32823W        W 5891  20.223  32.571  12.190
32824W        W 5892  14.358  26.368  13.847
32825W        W 5893  29.513   3.696  14.306
32826W        W 5894  15.435  22.359   4.548
32827W        W 5895  29.442   7.778  13.282
32828W        W 5896  40.158  12.332   1.251
32829W        W 5897  41.440  37.684   1.131
32830W        W 5898  31.193   4.419  11.166
32831W        W 5899  13.238  42.474  12.950
32832W        W 5900  28.566  22.706  14.418
32833W        W 5901  40.856  33.977   3.622
32834W        W 5902  10.228  40.737   4.826
32835W        W 5903   4.449  23.148   3.024
32836W        W 5904  16.669  44.092   3.733
32837W        W 5905  33.836  13.853   2.773
32838W        W 5906   4.386  36.608  10.948
32839W        W 5907  28.047  11.369   3.310
32840W        W 5908   0.859  42.972  10.830
32841W        W 5909  32.431  35.698  12.861
32842W        W 5910  40.627  24.695   1.374
32843W        W 5911   2.342  44.428   0.274
32844W        W 5912  29.853  42.477  12.258
32845W        W 5913  32.800  15.137  13.912
32846W        W 5914  28.634  10.423  10.677
32847W        W 5915  42.439   4.245  14.001
32848W        W 5916  10.903  18.391  11.887
32849W        W 5917  38.276   4.139   4.119
32850W        W 5918  24.696  34.528   0.983
32851W        W 5919  17.153  43.733   1.144
32852W        W 5920   4.212  30.223  13.011
32853W        W 5921   4.362  36.332   2.428
32854W        W 5922  30.917  15.550  12.090
32855W        W 5923   8.336   7.267   2.054
32856W        W 5924  16.122  37.091  14.345
32857W        W 5925  17.159  43.827  13.180
32858W        W 5926  24.715  28.421  11.194
32859W        W 5927  14.005   4.962   2.708
32860W        W 5928   0.396   0.350  11.420
32861W        W 5929  32.564  39.551   1.318
32862W        W 5930  43.778   3.542   1.674
32863W        W 5931   7.750  25.779   3.184
32864W        W 5932  22.023  26.782   0.389
32865W        W 5933   5.671  14.612   4.689
32866W        W 5934  12.025  13.818   1.472
32867W        W 5935  24.740  29.138   1.043
32868W        W 5936  32.065   2.760  14.157
32869W        W 5937  11.191  14.508   3.113
32870W        W 5938  22.014  26.105  10.563
32871W        W 5939   4.155  13.403  13.042
32872W        W 5940  44.472  36.057  11.623
32873W        W 5941  14.082  30.117   1.156
32874W        W 5942  39.912  44.996   0.715
32875W        W 5943  13.185  30.684   4.787
32876W        W 5944  39.054  29.207   3.729
32877W        W 5945  32.325  41.884   0.462
32878W        W 5946  29.671  25.479   0.479
32879W        W 5947  26.562  17.688  10.588
32880W        W 5948  27.840  15.722   1.743
32881W        W 5949  22.207  44.245  10.606
32882W        W 5950  41.509  43.442  11.656
32883W        W 5951   8.494  18.012  13.928
32884W        W 5952   6.745  14.656  12.392
32885W        W 5953  39.104  11.805   4.184
32886W        W 5954  14.079  26.608   3.276
32887W        W 5955  10.133  11.172   1.108
32888W        W 5956  32.630  31.992  11.128
32889W        W 5957  21.459   4.342  13.770
32890W        W 5958   8.872  39.524  10.533
32891W        W 5959   2.412  43.775   1.840
32892W        W 5960   0.474  29.382   0.760
32893W        W 5961  35.595  25.301   3.312
32894W        W 5962   8.989   9.233   1.360
32895W        W 5963  16.163  44.559   1.706
32896W        W 5964   6.562  38.487   4.917
32897W        W 5965  16.753  36.535   0.938
32898W        W 5966  38.541  11.159   4.341
32899W        W 5967   7.310  34.524   4.577
32900W        W 5968   7.909  37.844  12.391
32901W        W 5969  34.827  38.391   0.012
32902W        W 5970  43.299  29.060   2.238
32903W        W 5971  10.270  17.174   3.271
32904W        W 5972  16.655  30.824  14.125
32905W        W 5973  44.888   1.791   1.381
32906W        W 5974  37.889  27.597  12.527
32907W        W 5975  12.719  11.351   4.531
32908W        W 5976   0.233  17.333   0.888
32909W        W 5977  30.434   2.856  12.429
32910W        W 5978  19.156  40.117   0.908
32911W        W 5979  25.793  12.791  13.050
32912W        W 5980  14.770  27.163  13.929
32913W        W 5981  15.036  43.367   0.719
32914W        W 5982   6.236  31.958   2.662
32915W        W 5983   2.006  26.375  11.016
32916W        W 5984   1.208   7.864   3.753
32917W        W 5985   0.258   8.450  11.482
32918W        W 5986   3.996  23.516  12.451
32919W        W 5987  29.163  40.801   0.786
32920W        W 5988  20.025  20.623  13.897
32921W        W 5989  30.312  30.192  13.263
32922W        W 5990  38.783   5.483  13.862
32923W        W 5991   1.873  36.927  12.205
32924W        W 5992   6.476  22.695  13.810
32925W        W 5993   3.924  31.927   1.327
32926W        W 5994  25.609  14.989   2.349
32927W        W 5995  21.521   1.663   2.187
32928W        W 5996  17.397  17.832   0.741
32929W        W 5997  10.390  41.345   4.842
32930W        W 5998   1.919  38.431   0.829
32931W        W 5999   4.380  18.851  13.538
32932W        W 6000  44.439   8.221  14.033
32933W        W 6001   1.289   0.321   0.348
32934W        W 6002  38.497  21.279   4.758
32935W        W 6003  19.660  29.114   0.864
32936W        W 6004  24.423  42.870   2.233
32937W        W 6005  41.361  13.229   4.184
32938W        W 6006  40.853  18.174   2.631
32939W        W 6007  22.222  27.286  11.971
32940W        W 6008   8.646  33.537   4.007
32941W        W 6009  32.823   8.669   1.334
32942W        W 6010  12.064  23.204  10.459
32943W        W 6011  17.946   3.292  12.492
32944W        W 6012  44.195  42.966   4.633
32945W        W 6013  11.258  33.309   3.831
32946W        W 6014  18.192  24.710   2.740
32947W        W 6015  43.678   9.071  11.700
32948W        W 6016  13.588  25.556   3.220
32949W        W 6017  21.492  12.262  10.788
32950W        W 6018  44.898  30.926  12.956
32951W        W 6019  32.976   9.859   0.948
32952W        W 6020  31.428  43.612  14.283
32953W        W 6021  22.518  15.384   2.140
32954W        W 6022  36.395  25.106   4.002
32955W        W 6023  39.048  23.274   1.440
32956W        W 6024  27.213  10.478  11.004
32957W        W 6025  41.482  33.514   2.584
32958W        W 6026  26.394  25.487   2.927
32959W        W 6027  22.590  31.407   0.886
32960W        W 6028  14.750  18.787   9.846
32961W        W 6029  13.182   7.932   4.115
32962W        W 6030  13.119   4.796  14.737
32963W        W 6031   8.363  28.617   0.279
32964W        W 6032  43.666   2.240   3.206
32965W        W 6033  42.183  43.128   2.489
32966W        W 6034  39.489  35.517  13.974
32967W        W 6035   8.259  40.017  11.040
32968W        W 6036  27.002  12.633  12.541
32969W        W 6037  43.958  23.782   1.672
32970W        W 6038  11.154  32.187   1.302
32971W        W 6039  39.731  11.900   3.193
32972W        W 6040  29.418  30.729  11.963
32973W        W 6041  38.584  41.421  10.649
32974W        W 6042  27.099  30.622   3.768
32975W        W 6043  36.370  39.450  14.795
32976W        W 6044  39.899   2.801  10.804
32977W        W 6045  39.968   3.095   4.490
32978W        W 6046  25.560   4.882  10.592
32979W        W 6047  27.618  18.924   3.406
32980W        W 6048  14.987   9.345  13.477
32981W        W 6049   1.333  38.454  14.588
32982W        W 6050  29.272   5.324  10.743
32983W        W 6051   6.604  37.441  10.826
32984W        W 6052  29.050  12.122   2.157
32985W        W 6053  22.381  12.755  12.558
32986W        W 6054  17.593  28.941   0.000
32987W        W 6055  34.504  19.273   4.817
32988W        W 6056  16.038  15.394   4.505
32989W        W 6057  18.004  15.630   4.552
32990W        W 6058   9.771  31.145   1.749
32991W        W 6059  40.396  14.215  12.191
32992W        W 6060  34.104   3.373  14.284
32993W        W 6061  36.417  37.345   1.219
32994W        W 6062  26.666  22.999  11.751
32995W        W 6063  21.202   1.325  14.955
32996W        W 6064  12.041  36.129  13.751
32997W        W 6065  43.437  13.680  13.109
32998W        W 6066  44.722   6.289   1.851
32999W        W 6067   6.777  15.007  11.964
33000W        W 6068  13.273  27.215   4.661
33001W        W 6069  20.327  36.374   2.696
33002W        W 6070  11.292  34.133   1.861
33003W        W 6071  43.221   8.181  11.538
33004W        W 6072  17.565  19.573   1.346
33005W        W 6073   7.255  13.534   0.885
33006W        W 6074   8.939   3.404   4.869
33007W        W 6075  13.815  34.875  12.856
33008W        W 6076  42.536  38.859  13.333
33009W        W 6077  20.005  36.849   4.108
33010W        W 6078  10.317  43.079   1.446
33011W        W 6079  30.887  44.933   2.899
33012W        W 6080   8.870  22.545   1.758
33013W        W 6081  35.935  10.338  12.008
33014W        W 6082  27.652  20.159  13.065
33015W        W 6083  29.113  25.934   4.290
33016W        W 6084  24.200  36.348  10.984
33017W        W 6085  34.005  12.735   1.342
33018W        W 6086  24.796  17.831  12.948
33019W        W 6087   3.294  37.403   3.531
33020W        W 6088  23.157  28.997   1.859
33021W        W 6089  32.094   2.692  11.580
33022W        W 6090  22.075  17.340  10.773
33023W        W 6091   0.278  32.885  13.080
33024W        W 6092  39.597  32.503  13.521
33025W        W 6093   9.258  21.448   2.403
33026W        W 6094  40.900  18.783  11.678
33027W        W 6095  22.190  32.397  11.309
33028W        W 6096  42.456  41.013   0.085
33029W        W 6097  19.746  27.272   0.594
33030W        W 6098   3.470  44.862  12.021
33031W        W 6099   2.746  22.796  10.997
33032W        W 6100  11.411   3.428   0.962
33033W        W 6101  40.856  38.079   1.831
33034W        W 6102  33.367  17.759  14.322
33035W        W 6103   2.239  22.439   2.537
33036W        W 6104  12.283   4.924  12.123
33037W        W 6105  14.872  16.679  14.016
33038W        W 6106  26.701  20.576   2.225
33039W        W 6107   9.173  38.924  12.854
33040W        W 6108   9.630   2.271   2.191
33041W        W 6109  33.396  29.561  10.708
33042W        W 6110  44.098  11.024   0.564
33043W        W 6111   7.011  17.111   0.972
33044W        W 6112  23.399  32.035   2.435
33045W        W 6113  35.463   7.237   1.868
33046W        W 6114   5.414  14.133   4.233
33047W        W 6115  21.922  40.317   2.645
33048W        W 6116  44.869  27.153   2.791
33049W        W 6117  22.573  27.231  12.398
33050W        W 6118   2.274   6.783   2.273
33051W        W 6119  22.648  20.591   0.627
33052W        W 6120   8.366   1.954   3.598
33053W        W 6121  39.419   5.399   9.841
33054W        W 6122   2.826  33.987   0.042
33055W        W 6123  16.758  43.824   4.164
33056W        W 6124  44.321  37.548  11.148
33057W        W 6125  36.533   6.226  13.822
33058W        W 6126  35.180  40.949  11.080
33059W        W 6127  16.232  42.362   0.483
33060W        W 6128   4.839   1.555   2.883
33061W        W 6129   4.654  40.229   4.133
33062W        W 6130  22.454   2.844   3.929
33063W        W 6131   3.040   4.460  13.115
33064W        W 6132  27.122  19.065   2.699
33065W        W 6133  20.978  17.132   4.735
33066W        W 6134  27.654  37.513  11.594
33067W        W 6135  19.776  15.140   0.992
33068W        W 6136  41.001   0.953  13.497
33069W        W 6137  40.766   4.216  11.917
33070W        W 6138  39.111   1.722   1.798
33071W        W 6139   4.703  43.864   2.003
33072W        W 6140  28.644  11.318   4.506
33073W        W 6141  18.138  32.814   2.711
33074W        W 6142   7.885   1.984   4.579
33075W        W 6143  21.023   5.161   1.663
33076W        W 6144   3.505  27.674  10.339
33077W        W 6145  30.161  37.343   2.226
33078W        W 6146  44.881  30.890   4.491
33079W        W 6147  17.766  44.798  11.995
33080W        W 6148  26.744  36.847   0.828
33081W        W 6149  33.872  22.952  11.532
33082W        W 6150  37.752  32.588   5.167
33083W        W 6151  40.018  24.077   4.014
33084W        W 6152  44.512   8.137  11.984
33085W        W 6153  40.841  22.239  14.906
33086W        W 6154  23.651   9.478   4.475
33087W        W 6155   0.269   4.913  14.418
33088W        W 6156   9.874   6.514  14.526
33089W        W 6157  17.102  10.859  12.836
33090W        W 6158  35.623  27.796  14.250
33091W        W 6159  15.636   4.743  12.286
33092W        W 6160  27.118   4.666  12.488
33093W        W 6161  33.494   3.599   0.425
33094W        W 6162  37.637  20.740   3.321
33095W        W 6163  39.292  32.223  10.590
33096W        W 6164  29.588   7.334  13.514
33097W        W 6165  18.724  23.515  14.672
33098W        W 6166  14.262  28.412  14.024
33099W        W 6167  39.048   5.417  12.609
33100W        W 6168  11.323  34.185  12.172
33101W        W 6169  35.511  39.543   3.780
33102W        W 6170  11.083   2.540   3.959
33103W        W 6171  30.006  23.813   1.221
33104W        W 6172  17.813  17.127  12.463
33105W        W 6173  14.123   1.977  13.493
33106W        W 6174   9.721  34.422   4.140
33107W        W 6175  25.963   6.777  10.762
33108W        W 6176  15.665   2.726  14.299
33109W        W 6177  28.898  23.701   2.837
33110W        W 6178  41.875  39.907  14.987
33111W        W 6179  24.640  18.825  12.984
33112W        W 6180  22.409  10.865  14.437
33113W        W 6181  21.605   9.914   1.744
33114W        W 6182  44.236  11.386   4.063
33115W        W 6183  13.468   9.538  12.531
33116W        W 6184  36.142  27.013   2.179
33117W        W 6185  39.226   7.329   3.659
33118W        W 6186  41.556   7.311  14.400
33119W        W 6187  36.328  22.482   1.816
33120W        W 6188  42.939  33.464   1.265
33121W        W 6189  27.773  35.969   0.933
33122W        W 6190  29.654  23.509   1.788
33123W        W 6191  21.675  25.183  14.070
33124W        W 6192  25.915  14.908  12.870
33125W        W 6193  35.858  18.150  14.281
33126W        W 6194  34.531  23.083   3.226
33127W        W 6195  10.998  33.818  10.143
33128W        W 6196   8.704  15.702   0.159
33129W        W 6197   6.724   5.388  14.350
33130W        W 6198  18.946  26.939   0.935
33131W        W 6199  18.536  41.486  11.189
33132W        W 6200  42.609   6.887   1.794
33133W        W 6201  17.571  38.575  13.810
33134W        W 6202   7.382  14.226   3.181
33135W        W 6203   4.869  18.718  14.681
33136W        W 6204  37.365   3.853  12.502
33137W        W 6205  22.035   4.481   0.044
33138W        W 6206   0.543  16.690   3.619
33139W        W 6207   6.486  20.729  14.249
33140W        W 6208  13.986   6.413  12.064
33141W        W 6209   2.745   7.729  11.274
33142W        W 6210  44.360  23.652   0.342
33143W        W 6211  15.000  38.374  13.865
33144W        W 6212  16.338  25.896  13.594
33145W        W 6213  42.993  43.564  14.076
33146W        W 6214   7.978  44.273   1.254
33147W        W 6215  31.258  20.422  14.331
33148W        W 6216  16.117  24.138   4.814
33149W        W 6217  30.063  14.419  13.922
33150W        W 6218  41.968  40.774   1.910
33151W        W 6219   0.228  25.535  13.287
33152W        W 6220  12.485  41.097   2.749
33153W        W 6221   4.966  16.142   1.328
33154W        W 6222  11.548  39.091  12.092
33155W        W 6223   3.510  13.885  13.260
33156W        W 6224  33.588   1.841   3.866
33157W        W 6225  30.703  26.030  10.623
33158W        W 6226  40.472   0.821  13.438
33159W        W 6227  29.897   1.844  12.201
33160W        W 6228  21.398   2.334  11.163
33161W        W 6229  41.304  29.326  11.215
33162W        W 6230   7.582   5.882   2.672
33163W        W 6231   6.729  21.590   3.819
33164W        W 6232   9.265  37.279   1.670
33165W        W 6233   1.794  34.373   2.193
33166W        W 6234  20.256  18.611   4.243
33167W        W 6235  44.255  24.592  11.525
33168W        W 6236  42.134  26.732  13.979
33169W        W 6237  43.561  21.034   2.786
33170W        W 6238  34.088  43.750  10.536
33171W        W 6239   6.911  30.375  12.968
33172W        W 6240  28.929  22.262   0.781
33173W        W 6241  44.220  27.404  12.101
33174W        W 6242  18.723  19.961  13.701
33175W        W 6243   5.797  44.022   1.295
33176W        W 6244  17.636  39.148   0.838
33177W        W 6245   9.777  36.125  13.984
33178W        W 6246  37.438  36.729   0.677
33179W        W 6247  19.437  16.582   0.880
33180W        W 6248  34.309  24.416  13.029
33181W        W 6249  14.230  40.204   2.651
33182W        W 6250  15.193  41.725   1.830
33183W        W 6251  12.761  43.702   4.175
33184W        W 6252  15.577  17.239   0.849
33185W        W 6253   7.434  37.550   0.750
33186W        W 6254  39.418  32.492  11.837
33187W        W 6255  37.432  12.584   3.850
33188W        W 6256  25.580   3.214  14.537
33189W        W 6257   7.611  11.517   0.792
33190W        W 6258  15.112  19.684   1.329
33191W        W 6259  38.083  33.303   5.408
33192W        W 6260  34.063  23.996   1.136
33193W        W 6261  19.207   0.741   0.284
33194W        W 6262   2.232  42.433   3.870
33195W        W 6263   9.685  24.504  10.810
33196W        W 6264  14.196  43.032  13.756
33197W        W 6265   4.459  19.589   4.027
33198W        W 6266   1.487   9.402   1.902
33199W        W 6267  13.274  40.537   4.168
33200W        W 6268  15.269  23.120   0.035
33201W        W 6269   0.654  14.850  12.389
33202W        W 6270  40.464  37.784  14.502
33203W        W 6271  20.759  11.379  11.612
33204W        W 6272  30.771  15.546   1.435
33205W        W 6273  23.173   6.407  14.083
33206W        W 6274  41.125  37.300   0.257
33207W        W 6275   2.273  10.674   3.446
33208W        W 6276   2.351  27.176  11.861
33209W        W 6277   7.197   4.256   4.101
33210W        W 6278  21.669  36.097   2.170
33211W        W 6279  14.132  22.901   2.348
33212W        W 6280  17.327  16.066   2.192
33213W        W 6281  14.487  24.916   1.465
33214W        W 6282   7.265  25.159  11.578
33215W        W 6283  15.634  14.911   1.848
33216W        W 6284   8.456  32.237   0.274
33217W        W 6285  14.105   4.585  10.800
33218W        W 6286  31.931  12.610  10.366
33219W        W 6287  25.561  35.494  11.642
33220W        W 6288  31.186  12.599  11.800
33221W        W 6289  12.272   2.967   3.888
33222W        W 6290   7.685  21.318  10.638
33223W        W 6291  30.995  40.981  11.414
33224W        W 6292   6.251   3.382   3.121
33225W        W 6293  35.408  33.350  13.781
33226W        W 6294  33.847  22.954   0.053
33227W        W 6295  25.439  34.458  14.304
33228W        W 6296  13.513  30.094   3.358
33229W        W 6297   6.780  12.292  14.945
33230W        W 6298   3.025   6.812  11.086
33231W        W 6299  32.869  13.188   3.308
33232W        W 6300  27.227  11.027  14.490
33233W        W 6301  39.057  17.716  14.459
33234W        W 6302  36.956  32.888  11.284
33235W        W 6303  12.254  26.190   2.817
33236W        W 6304  25.440  13.936  12.322
33237W        W 6305  34.577  11.665  13.756
33238W        W 6306  42.595  37.482   1.765
33239W        W 6307   7.762  20.248  12.512
33240W        W 6308  15.588  26.976   2.649
33241W        W 6309  18.330  25.426  12.030
33242W        W 6310   1.804  25.179   1.270
33243W        W 6311   8.968  41.863  14.423
33244W        W 6312  24.242  29.114   0.340
33245W        W 6313  11.210  14.254  11.999
33246W        W 6314  29.423  17.224   4.471
33247W        W 6315  31.736  11.411  12.054
33248W        W 6316  23.631  14.646  10.713
33249W        W 6317  38.097  36.208   2.299
33250W        W 6318  40.432  16.720  13.890
33251W        W 6319  20.855  34.583   0.374
33252W        W 6320  37.155  40.970  11.236
33253W        W 6321  36.946  35.961  12.372
33254W        W 6322  13.351  19.140   2.303
33255W        W 6323  39.560   6.398   3.341
33256W        W 6324   1.547   9.624   3.154
33257W        W 6325  32.627  42.047   4.140
33258W        W 6326  39.410  24.108   1.611
33259W        W 6327   7.142  12.779   4.872
33260W        W 6328  22.154  35.825   2.313
33261W        W 6329   2.171  31.859   0.324
33262W        W 6330  36.118  36.823   0.799
33263W        W 6331  22.101  29.158   0.699
33264W        W 6332  17.831  14.047   3.652
33265W        W 6333   7.708  12.396  13.054
33266W        W 6334  23.018  42.078   2.848
33267W        W 6335  20.511  28.916   3.352
33268W        W 6336   4.029   0.851  13.039
33269W        W 6337  43.001  14.797   4.496
33270W        W 6338   1.756  26.152   2.400
33271W        W 6339  20.584  41.758   3.655
33272W        W 6340  40.406   8.661  12.399
33273W        W 6341  19.166  32.873   2.733
33274W        W 6342  13.017  16.412   2.100
33275W        W 6343  30.162   9.581  13.484
33276W        W 6344  26.923  13.804  13.128
33277W        W 6345  24.102  38.775   0.045
33278W        W 6346  12.232   8.350  12.919
33279W        W 6347  36.889  18.797   3.260
33280W        W 6348  23.178  38.440  14.826
33281W        W 6349   5.972  29.727   0.433
33282W        W 6350  30.555  21.707   0.306
33283W        W 6351   2.274   9.379   3.827
33284W        W 6352  33.995  43.929  14.743
33285W        W 6353  40.936  11.867   4.367
33286W        W 6354  22.120   3.268   1.566
33287W        W 6355  44.733   8.459  11.563
33288W        W 6356  22.992  28.086   1.447
33289W        W 6357  42.774  23.178   2.750
33290W        W 6358   6.113  11.641  13.924
33291W        W 6359  19.130  43.424   2.173
33292W        W 6360  28.746  37.040  11.626
33293W        W 6361  20.466  28.461  14.849
33294W        W 6362  36.978  30.626  10.476
33295W        W 6363   4.383  40.075  12.965
33296W        W 6364  10.902  14.773   2.261
33297W        W 6365  34.030   0.379   4.697
33298W        W 6366   0.451   5.529  14.172
33299W        W 6367  30.680   1.455   0.268
33300W        W 6368  19.744  36.066   3.203
33301W        W 6369  35.865  41.719  13.014
33302W        W 6370  38.107   9.825   3.729
33303W        W 6371  32.908  24.246   0.386
33304W        W 6372  41.798  39.295   1.766
33305W        W 6373  29.935  19.684  10.532
33306W        W 6374  26.050  25.636  11.122
33307W        W 6375   9.898  15.483  12.023
33308W        W 6376  31.559  34.850   3.626
33309W        W 6377   2.426  15.826  11.648
33310W        W 6378  23.020  10.736   4.278
33311W        W 6379  18.093  22.118   2.573
33312W        W 6380   6.891  35.495   0.463
33313W        W 6381  37.198  23.770  12.076
33314W        W 6382  42.495  23.757   0.340
33315W        W 6383  28.132  40.772  13.938
33316W        W 6384  18.977  22.427  13.148
33317W        W 6385   6.389   4.305   3.254
33318W        W 6386   9.592  29.346   0.305
33319W        W 6387  36.045   4.157   2.699
33320W        W 6388   6.987  10.801   1.244
33321W        W 6389  40.358   5.740   0.174
33322W        W 6390  38.066  22.753   2.240
33323W        W 6391  18.967  28.889  14.893
33324W        W 6392  26.570  13.354  13.118
33325W        W 6393  23.321  35.968   4.783
33326W        W 6394   3.323  37.933  13.987
33327W        W 6395  14.932  41.085  13.464
33328W        W 6396   9.930  39.629   3.129
33329W        W 6397  38.005  17.355  12.985
33330W        W 6398  39.243   7.449  13.088
33331W        W 6399   6.981   8.623   0.316
33332W        W 6400  44.196  20.172   3.762
33333W        W 6401  40.815  36.066   1.874
33334W        W 6402  13.046  25.622  10.776
33335W        W 6403  19.874  32.444  12.542
33336W        W 6404  31.867   4.734   4.757
33337W        W 6405  13.593   6.307  13.419
33338W        W 6406  17.055  42.527  10.995
33339W        W 6407  40.516   6.920  10.216
33340W        W 6408  41.011  39.111  11.976
33341W        W 6409  19.533  19.121   0.694
33342W        W 6410  38.090  41.222  10.725
33343W        W 6411  22.977  32.961  12.965
33344W        W 6412  44.972   8.026  11.747
33345W        W 6413  42.500  19.288   2.815
33346W        W 6414  27.484  29.109  13.832
33347W        W 6415  31.108  21.196  13.078
33348W        W 6416  44.203   5.286   0.347
33349W        W 6417  29.855  17.857  12.952
33350W        W 6418  36.188  10.823  13.457
33351W        W 6419   0.435  28.080  11.144
33352W        W 6420  26.208  37.414   3.211
33353W        W 6421   9.638  13.732   0.301
33354W        W 6422   0.860  28.255  10.896
33355W        W 6423  25.885   3.276   0.886
33356W        W 6424  11.262   7.924  13.892
33357W        W 6425  35.989   5.330   1.978
33358W        W 6426  38.595  27.514   0.669
33359W        W 6427  12.891  16.602   3.626
33360W        W 6428  12.973  29.211   4.578
33361W        W 6429  36.109   3.872   1.175
33362W        W 6430  21.623  22.622  13.541
33363W        W 6431   2.507  29.421  12.562
33364W        W 6432  34.744  21.983   1.905
33365W        W 6433  31.073  33.598  10.816
33366W        W 6434  17.578   5.448   3.397
33367W        W 6435  24.225  37.583  13.118
33368W        W 6436  25.434  32.560   2.810
33369W        W 6437   0.923  27.857  14.329
33370W        W 6438  22.912   3.357  12.994
33371W        W 6439  24.192   3.223   0.543
33372W        W 6440  15.571  12.886   4.220
33373W        W 6441   0.935  21.626   3.332
33374W        W 6442  42.858   3.300  13.829
33375W        W 6443  11.320   3.730  11.989
33376W        W 6444  44.686  12.861   2.692
33377W        W 6445  13.229  14.301  10.932
33378W        W 6446   8.720  39.014   4.170
33379W        W 6447   1.101   6.533  14.762
33380W        W 6448  26.514  26.071   1.885
33381W        W 6449  25.126  42.014  11.949
33382W        W 6450  10.652  12.157   3.719
33383W        W 6451  15.512  15.015  14.401
33384W        W 6452  39.517  23.547   1.291
33385W        W 6453  28.159  13.528  13.402
33386W        W 6454  26.039   7.595  11.567
33387W        W 6455   2.749  43.399   1.722
33388W        W 6456  40.966  19.975   0.365
33389W        W 6457  32.069   6.850   5.180
33390W        W 6458  19.825  44.187  11.560
33391W        W 6459  31.937   2.420  11.999
33392W        W 6460   4.400   4.426   3.150
33393W        W 6461  44.341  43.314   1.909
33394W        W 6462  39.665  12.205   1.330
33395W        W 6463  16.791  34.015  14.911
33396W        W 6464  40.032  11.583   1.892
33397W        W 6465  17.112  36.781  14.953
33398W        W 6466   5.848  15.201  14.552
33399W        W 6467  31.402  20.833  11.633
33400W        W 6468  26.998  19.099   3.625
33401W        W 6469  36.307  20.631  14.319
33402W        W 6470  41.905  20.037  13.820
33403W        W 6471  13.216   2.109   0.282
33404W        W 6472  24.020  30.049   1.838
33405W        W 6473  33.495   7.970  13.862
33406W        W 6474  32.631   3.152   0.903
33407W        W 6475   4.400  25.630  12.879
33408W        W 6476  15.523  40.537   2.855
33409W        W 6477  15.781  10.419  11.149
33410W        W 6478  24.200   5.263   0.805
33411W        W 6479  34.657   4.851   9.946
33412W        W 6480  21.739  11.785  14.315
33413W        W 6481  11.254  30.097  10.403
33414W        W 6482  32.048  15.327  12.114
33415W        W 6483  26.756   1.386  14.053
33416W        W 6484  38.014  35.558   2.949
33417W        W 6485  31.500  10.369   3.649
33418W        W 6486  37.965  17.448   3.853
33419W        W 6487  35.875  42.536  11.621
33420W        W 6488  33.409  34.531   0.790
33421W        W 6489  43.271  12.834  13.591
33422W        W 6490  16.881  19.239   4.186
33423W        W 6491  19.158   9.163   2.578
33424W        W 6492  41.459  34.816  12.103
33425W        W 6493  35.034   0.966   0.441
33426W        W 6494  13.474  42.694   2.836
33427W        W 6495  29.606  27.941   0.267
33428W        W 6496  18.438   4.384   3.129
33429W        W 6497  33.129  30.479   0.951
33430W        W 6498  34.078  40.065   3.130
33431W        W 6499  36.465  33.620   9.981
33432W        W 6500  36.974   0.864   4.132
33433W        W 6501   8.709  35.691  11.105
33434W        W 6502  40.296  16.172  11.709
33435W        W 6503   9.013  23.141   2.242
33436W        W 6504  39.971   9.667  13.419
33437W        W 6505  31.220   3.854  11.690
33438W        W 6506  41.207  16.274  13.970
33439W        W 6507  36.080  44.152  11.580
33440W        W 6508   8.656  24.629  12.440
33441W        W 6509   2.933  39.273  13.520
33442W        W 6510  26.827   4.441   0.821
33443W        W 6511  16.814  22.406   4.579
33444W        W 6512  16.895  41.871   4.499
33445W        W 6513  11.114  25.076   0.783
33446W        W 6514  16.353  19.680   2.252
33447W        W 6515  27.029   2.193   3.351
33448W        W 6516  35.653  39.755  14.312
33449W        W 6517   9.358  10.877   4.552
33450W        W 6518  24.247  36.612   2.147
33451W        W 6519   0.856  43.276  11.235
33452W        W 6520   8.664  14.577  12.970
33453W        W 6521   9.726   0.780  13.461
33454W        W 6522  25.699  34.163  14.830
33455W        W 6523  22.217  44.200  12.453
33456W        W 6524  16.532  12.200   4.283
33457W        W 6525  18.754  14.838   4.148
33458W        W 6526  24.901  17.676  11.683
33459W        W 6527  11.823  36.031   3.489
33460W        W 6528  23.051   1.736  12.939
33461W        W 6529  36.123  22.281  11.523
33462W        W 6530  31.993  38.405  12.017
33463W        W 6531  12.470  27.417  14.193
33464W        W 6532  17.325  10.170   1.493
33465W        W 6533  42.852   7.929   0.010
33466W        W 6534   5.881  27.690   1.511
33467W        W 6535   5.414   5.403   2.674
33468W        W 6536   4.469  40.039   2.319
33469W        W 6537   7.372  13.737  11.839
33470W        W 6538  20.988  20.286  12.940
33471W        W 6539  37.073  29.949  14.901
33472W        W 6540   0.905   8.388  13.108
33473W        W 6541  24.136  14.066  14.442
33474W        W 6542  28.051  18.326   1.296
33475W        W 6543  43.523  16.711  13.030
33476W        W 6544  12.981   3.522  10.446
33477W        W 6545  15.298  35.785   1.226
33478W        W 6546   4.026  27.987   1.987
33479W        W 6547   7.645  19.717   2.316
33480W        W 6548   5.725  10.363   1.331
33481W        W 6549  34.409  31.173  11.640
33482W        W 6550  44.368  13.174  12.845
33483W        W 6551  14.852  19.962   2.812
33484W        W 6552  21.477   3.730   4.600
33485W        W 6553  44.947   5.898   2.704
33486W        W 6554  26.186  28.204  13.361
33487W        W 6555  16.099  11.731   2.736
33488W        W 6556  35.915  33.391   1.965
33489W        W 6557  19.524  33.031   0.336
33490W        W 6558  30.614  12.225  12.349
33491W        W 6559  41.622  41.341  12.197
33492W        W 6560   7.502  43.966   1.854
33493W        W 6561  29.897   6.306   1.854
33494W        W 6562   9.740  27.583  10.631
33495W        W 6563  33.969  37.079  11.828
33496W        W 6564  13.002  34.978  10.575
33497W        W 6565  44.259   0.421  13.485
33498W        W 6566  13.619  39.952  13.471
33499W        W 6567  29.372  23.930  10.212
33500W        W 6568  18.269  44.871   0.480
33501W        W 6569  19.704  24.264   0.668
33502W        W 6570  23.538  40.156   2.935
33503W        W 6571  20.975  28.375  14.887
33504W        W 6572   6.648  21.882  13.317
33505W        W 6573  28.076  40.549   2.630
33506W        W 6574  16.168  42.858  11.222
33507W        W 6575  19.816  25.222  13.541
33508W        W 6576   9.909   4.556   2.596
33509W        W 6577   5.921  10.142   4.812
33510W        W 6578  36.872  29.047   0.573
33511W        W 6579   8.777  44.747   2.227
33512W        W 6580  30.089  13.838  14.796
33513W        W 6581  28.691  20.242  11.525
33514W        W 6582  31.413  33.207   0.720
33515W        W 6583   4.794  13.109  10.759
33516W        W 6584  17.807  28.386  11.689
33517W        W 6585  33.210  26.696  13.518
33518W        W 6586  37.590  33.030   4.057
33519W        W 6587   3.815   9.391   1.750
33520W        W 6588  39.296  13.810  14.813
33521W        W 6589  44.313   6.336  12.492
33522W        W 6590  17.492  29.869  11.594
33523W        W 6591  42.759   2.404   3.085
33524W        W 6592  15.573  25.661  11.061
33525W        W 6593  28.128  27.182  10.944
33526W        W 6594  23.681  23.835   2.138
33527W        W 6595  30.900   4.929  12.558
33528W        W 6596   6.640  44.949   3.640
33529W        W 6597  32.885  30.049   2.964
33530W        W 6598  14.779  32.038   3.091
33531W        W 6599  41.609  31.647  14.739
33532W        W 6600  10.241  22.633  14.845
33533W        W 6601  29.611  38.529  11.659
33534W        W 6602  29.639  19.365   4.183
33535W        W 6603  15.636  15.122   4.713
33536W        W 6604  26.431  18.113  11.910
33537W        W 6605  35.091   0.287   1.648
33538W        W 6606  20.052   6.949   1.887
33539W        W 6607  37.005   5.790   2.728
33540W        W 6608  26.555   7.386  11.624
33541W        W 6609  41.053   7.472   4.302
33542W        W 6610   0.957  40.649  11.118
33543W        W 6611   4.010  32.912   0.409
33544W        W 6612  28.281  39.516  12.349
33545W        W 6613  25.003  34.805  14.487
33546W        W 6614  29.884  20.641   0.526
33547W        W 6615  27.002   2.287  14.292
33548W        W 6616  23.449   6.145   2.171
33549W        W 6617  28.908  10.737   2.142
33550W        W 6618  34.040  36.185  11.669
33551W        W 6619   7.459  18.516   2.826
33552W        W 6620  13.167  28.621  13.413
33553W        W 6621   0.979  16.532   4.590
33554W        W 6622  36.495   1.278  11.518
33555W        W 6623   8.727  24.910   2.725
33556W        W 6624   6.812  37.195  14.736
33557W        W 6625  44.014  19.787  10.323
33558W        W 6626  24.270  10.726   3.156
33559W        W 6627  26.525   8.811  13.428
33560W        W 6628  22.030   3.786   2.924
33561W        W 6629   6.865  24.638  12.739
33562W        W 6630   7.280  27.929   2.190
33563W        W 6631  35.530   5.105   1.829
33564W        W 6632  17.053  26.108   2.690
33565W        W 6633  26.882  12.106  13.799
33566W        W 6634   4.179  40.491   4.149
33567W        W 6635  30.925  26.700   2.277
33568W        W 6636  26.861  25.562   3.136
33569W        W 6637  11.604  13.313  13.819
33570W        W 6638  36.480  41.856   0.965
33571W        W 6639   3.715  23.991   2.717
33572W        W 6640   4.247  10.397   4.115
33573W        W 6641   5.001   3.387   0.296
33574W        W 6642  35.578   7.965   2.574
33575W        W 6643  37.837  43.906  11.434
33576W        W 6644  41.104  10.113   3.592
33577W        W 6645   7.849  23.447  11.973
33578W        W 6646  37.969  40.517  13.386
33579W        W 6647  20.024  21.715  10.665
33580W        W 6648   0.370  28.397  10.741
33581W        W 6649  37.057  34.966   3.211
33582W        W 6650   9.612  16.052   0.453
33583W        W 6651   1.536  31.598  14.024
33584W        W 6652   0.865  18.099   4.522
33585W        W 6653  16.288  35.874  11.723
33586W        W 6654  16.695  37.258  11.690
33587W        W 6655   7.837  21.472   1.839
33588W        W 6656  23.764  14.572  13.432
33589W        W 6657  22.697  32.451  10.837
33590W        W 6658  33.635   1.696  11.432
33591W        W 6659  34.385  44.928   4.086
33592W        W 6660   9.228   1.265  14.006
33593W        W 6661   2.342  14.345  10.320
33594W        W 6662   3.007  30.229   3.635
33595W        W 6663   8.578  19.069   0.907
33596W        W 6664  41.794  21.469  12.553
33597W        W 6665   4.407  23.916  12.157
33598W        W 6666   0.085  13.740   0.899
33599W        W 6667  27.933  28.730   1.289
33600W        W 6668   9.612  31.130  13.793
33601W        W 6669   0.306  40.930   1.189
33602W        W 6670  38.063   2.859   1.679
33603W        W 6671  26.667  44.452   4.814
33604W        W 6672  21.639  39.543   2.653
33605W        W 6673  37.671  16.198   2.799
33606W        W 6674  13.887  14.847   0.455
33607W        W 6675  37.230  13.344   2.782
33608W        W 6676   7.843  28.638  12.694
33609W        W 6677  38.496  16.383   4.104
33610W        W 6678  14.590  33.048  11.124
33611W        W 6679   2.536  24.121   4.036
33612W        W 6680  35.643  18.841  11.193
33613W        W 6681  36.694  41.320   0.402
33614W        W 6682  42.994  20.146   0.471
33615W        W 6683  32.183  44.941   1.366
33616W        W 6684   5.312  36.717  13.733
33617W        W 6685  22.127   0.191   0.890
33618W        W 6686  21.465  27.202  10.681
33619W        W 6687  39.320  12.294   4.274
33620W        W 6688  20.231  44.900   3.250
33621W        W 6689   4.266  36.116  11.056
33622W        W 6690   3.673  10.847  13.357
33623W        W 6691  10.396  28.469  14.814
33624W        W 6692   0.489   3.889  14.425
33625W        W 6693  41.330  44.965   1.277
33626W        W 6694  33.044  23.996   4.449
33627W        W 6695  13.186  42.224  12.036
33628W        W 6696  10.187  34.843  11.603
33629W        W 6697  21.262   4.526   3.209
33630W        W 6698  31.019  17.075   2.393
33631W        W 6699  15.726  39.097   0.005
33632W        W 6700  27.555  21.252   0.266
33633W        W 6701  42.002  28.195  12.544
33634W        W 6702  29.082  30.358  12.930
33635W        W 6703  19.998   7.316  11.422
33636W        W 6704  19.442  37.863   0.366
33637W        W 6705  39.251  17.721   3.882
33638W        W 6706  26.357  37.663  12.157
33639W        W 6707  24.875  31.550   0.855
33640W        W 6708  23.660  36.555  13.335
33641W        W 6709   3.727  21.051   0.706
33642W        W 6710  30.181  12.250   3.300
33643W        W 6711  20.828  19.418   4.239
33644W        W 6712   9.377  17.959  13.360
33645W        W 6713  19.499  16.309   2.821
33646W        W 6714  31.564  10.414  10.843
33647W        W 6715   8.769  24.022   0.230
33648W        W 6716  32.398  22.636   4.155
33649W        W 6717  10.536  27.736  11.112
33650W        W 6718  42.593  20.227  13.904
33651W        W 6719  44.776  18.149   3.614
33652W        W 6720  29.116  44.535   0.297
33653W        W 6721  29.421   1.759   1.918
33654W        W 6722  13.082   8.669   0.795
33655W        W 6723  14.788   3.942   3.115
33656W        W 6724  18.052   8.307  13.939
33657W        W 6725  38.628  26.104   0.173
33658W        W 6726  13.659  36.792   2.296
33659W        W 6727  13.012  41.448  10.176
33660W        W 6728   2.186  22.974  14.417
33661W        W 6729  41.245  11.692  12.590
33662W        W 6730   3.997  30.386  10.882
33663W        W 6731  23.623  18.025  11.149
33664W        W 6732   5.524  20.307  13.542
33665W        W 6733  13.753  27.660   0.399
33666W        W 6734  33.563  32.965  11.952
33667W        W 6735  43.035  24.631   0.302
33668W        W 6736   6.751  41.910   0.961
33669W        W 6737   7.804  42.257  11.890
33670W        W 6738  32.974  19.627   3.290
33671W        W 6739   4.726   7.449  11.870
33672W        W 6740   3.951  43.701   2.235
33673W        W 6741  29.844  32.840   1.239
33674W        W 6742  30.388  22.767   3.188
33675W        W 6743  28.538  35.172  10.729
33676W        W 6744  38.697  29.498  12.123
33677W        W 6745  30.614  33.376   4.151
33678W        W 6746  13.607  18.181   4.294
33679W        W 6747  25.004   7.008  11.130
33680W        W 6748  34.629  37.478  13.346
33681W        W 6749  23.967  26.700   1.412
33682W        W 6750  22.459  20.697   3.715
33683W        W 6751  20.983   6.676  14.885
33684W        W 6752  11.055  41.542   1.933
33685W        W 6753  31.481  17.402  10.775
33686W        W 6754  42.204  28.931   4.288
33687W        W 6755  11.787  19.449   9.697
33688W        W 6756  25.846   9.371  14.332
33689W        W 6757  41.291  18.594  14.597
33690W        W 6758  35.897  13.831  10.595
33691W        W 6759  10.846  15.090   1.161
33692W        W 6760  33.143  33.057   1.745
33693W        W 6761  38.294   2.867   0.456
33694W        W 6762   9.871  17.774  14.988
33695W        W 6763  34.573   2.428  10.754
33696W        W 6764   8.522   1.624  12.062
33697W        W 6765  14.115  38.362  13.502
33698W        W 6766  13.263   2.826   4.401
33699W        W 6767   8.258  24.018  11.655
33700W        W 6768  34.121   3.822  14.788
33701W        W 6769  25.031  37.960   9.723
33702W        W 6770   0.864  34.549  14.959
33703W        W 6771  43.853   7.231  12.310
33704W        W 6772  36.316   2.591   3.172
33705W        W 6773   9.010  41.470   3.157
33706W        W 6774  26.365  14.860   2.388
33707W        W 6775   9.568  44.332   0.869
33708W        W 6776   7.203  25.217   2.873
33709W        W 6777  42.495  12.495   1.316
33710W        W 6778  36.303  43.331  13.709
33711W        W 6779  24.315  33.705  11.253
33712W        W 6780  32.975  11.703  11.695
33713W        W 6781   0.492  10.729  11.631
33714W        W 6782  13.139  27.476   2.226
33715W        W 6783   1.924  21.244  14.899
33716W        W 6784  24.636  21.030   0.326
33717W        W 6785  25.805  32.203   2.498
33718W        W 6786  26.965  35.536  12.426
33719W        W 6787  33.453   9.386   2.704
33720W        W 6788   3.527  16.687   1.794
33721W        W 6789   1.754  25.206  12.898
33722W        W 6790  39.678  28.151  14.704
33723W        W 6791  40.915  36.289   0.154
33724W        W 6792  31.366  39.434  11.512
33725W        W 6793  18.337   1.434   1.136
33726W        W 6794  25.143   6.158   2.198
33727W        W 6795  15.171  22.005   1.950
33728W        W 6796   7.127  11.461   3.132
33729W        W 6797   1.786   2.879   0.387
33730W        W 6798  29.911  29.700   1.776
33731W        W 6799  35.964  29.594   4.504
33732W        W 6800  13.318  30.652   2.496
33733W        W 6801  17.732  41.562   1.785
33734W        W 6802  30.912  11.826  14.851
33735W        W 6803  42.940  29.634  11.960
33736W        W 6804  40.085   2.270  13.054
33737W        W 6805  20.618  32.669  12.912
33738W        W 6806  24.908   0.808   1.781
33739W        W 6807  27.832  22.488   4.304
33740W        W 6808  43.469   2.719   3.094
33741W        W 6809  20.787  39.089   0.276
33742W        W 6810  27.982  13.680   4.147
33743W        W 6811   2.872  42.893  14.898
33744W        W 6812  13.322  35.868   2.236
33745W        W 6813  38.764   3.391  14.986
33746W        W 6814  10.449  33.896   0.375
33747W        W 6815   2.293   3.022   4.589
33748W        W 6816  27.408  27.907   0.524
33749W        W 6817  34.382  28.438  11.676
33750W        W 6818  43.964  43.275   2.799
33751W        W 6819   3.163   4.168   0.158
33752W        W 6820  38.447  11.777   2.147
33753W        W 6821   3.900  31.364  10.715
33754W        W 6822  13.725  17.090   1.437
33755W        W 6823  44.820   5.498  13.485
33756W        W 6824  21.626   3.522  14.340
33757W        W 6825  35.938  31.992   1.420
33758W        W 6826   5.288   5.519  10.859
33759W        W 6827  40.725  34.948  12.601
33760W        W 6828  39.009  36.878   3.678
33761W        W 6829  36.501  14.713   4.548
33762W        W 6830  18.144  17.787  11.973
33763W        W 6831  40.116  13.226  10.611
33764W        W 6832  35.966  43.127   0.451
33765W        W 6833  34.639  16.774   1.889
33766W        W 6834   4.938   4.236  10.738
33767W        W 6835   4.771  39.366   3.816
33768W        W 6836  26.515  21.731  11.615
33769W        W 6837  16.511  17.253   0.834
33770W        W 6838   7.874  40.979  10.959
33771W        W 6839  29.191  34.334   4.039
33772W        W 6840  25.968  38.526  13.074
33773W        W 6841  33.173  35.127  11.405
33774W        W 6842  13.500  25.000   2.355
33775W        W 6843  12.380  14.019   5.228
33776W        W 6844  38.899  22.703   4.559
33777W        W 6845  17.312   3.311   3.808
33778W        W 6846  44.306  27.767  14.413
33779W        W 6847   0.733  19.868   2.509
33780W        W 6848  28.543  33.093  12.049
33781W        W 6849  31.117   7.665   2.403
33782W        W 6850  43.749  13.952   0.321
33783W        W 6851   4.616  33.451   3.647
33784W        W 6852   9.788  33.551  11.407
33785W        W 6853   9.515  16.513   4.622
33786W        W 6854   9.072   5.110  11.922
33787W        W 6855  40.541   9.840  14.278
33788W        W 6856  44.036  19.959  11.773
33789W        W 6857  26.156  17.018  12.947
33790W        W 6858  25.451   6.078   2.603
33791W        W 6859  22.604  19.293   2.754
33792W        W 6860   2.221   5.686  12.412
33793W        W 6861  42.295   6.778   2.258
33794W        W 6862  17.553   2.905  13.041
33795W        W 6863  27.551  12.632  12.366
33796W        W 6864   3.654  13.074  12.963
33797W        W 6865  16.290  32.684   1.859
33798W        W 6866  18.654  34.346   3.428
33799W        W 6867  43.234  35.990   2.327
33800W        W 6868   8.187  34.984   0.371
33801W        W 6869   5.769  20.103   1.354
33802W        W 6870   7.380  30.085   0.724
33803W        W 6871  11.615  44.932  11.752
33804W        W 6872  14.318  15.611  11.083
33805W        W 6873   5.679  23.486   4.221
33806W        W 6874   2.080  23.254   4.193
33807W        W 6875  26.969  39.408   1.383
33808W        W 6876  26.643  24.126   3.270
33809W        W 6877  23.086   7.190  12.184
33810W        W 6878  18.231  13.560   1.214
33811W        W 6879  32.292  26.164  13.066
33812W        W 6880  21.572   6.418   4.222
33813W        W 6881  24.984  10.637   0.556
33814W        W 6882  30.331  28.365   2.858
33815W        W 6883  10.844  39.534  14.334
33816W        W 6884   9.035  13.736   2.305
33817W        W 6885  23.030  34.233   1.245
33818W        W 6886  21.814  22.690  11.154
33819W        W 6887  42.000  39.433  12.024
33820W        W 6888  25.617  27.587   2.223
33821W        W 6889   8.798  31.536  14.431
33822W        W 6890   0.742  17.173  10.657
33823W        W 6891  36.159  10.079   3.647
33824W        W 6892   1.895  12.592   0.969
33825W        W 6893  12.980  19.031  14.304
33826W        W 6894  36.077  37.343   0.008
33827W        W 6895  33.724   6.865   0.350
33828W        W 6896  44.832  16.306  11.237
33829W        W 6897   5.786  39.019  11.135
33830W        W 6898   1.486   6.778  14.998
33831W        W 6899  42.294  16.420  14.766
33832W        W 6900  17.481  40.342   1.867
33833W        W 6901  10.025  19.472  12.594
33834W        W 6902  27.085  43.757  14.873
33835W        W 6903   7.766  36.899   4.406
33836W        W 6904  31.616  38.726  11.116
33837W        W 6905  25.445  36.866  13.019
33838W        W 6906  17.556  34.490  14.426
33839W        W 6907  36.892  24.985  13.919
33840W        W 6908  34.118  32.252  12.712
33841W        W 6909  10.330   9.627   1.926
33842W        W 6910   4.047  40.605  11.210
33843W        W 6911   2.005  34.482  11.067
33844W        W 6912  26.461  36.912   3.352
33845W        W 6913   0.443  42.981   1.029
33846W        W 6914  27.219  19.297   0.867
33847W        W 6915  30.738  43.431   3.628
33848W        W 6916  37.193  27.142   3.874
33849W        W 6917  13.737  10.804  12.066
33850W        W 6918  36.281  19.597   3.614
33851W        W 6919  32.944   4.379  12.972
33852W        W 6920  26.675  30.533   4.646
33853W        W 6921   9.821  31.952  13.374
33854W        W 6922  35.150  38.121   2.305
33855W        W 6923   9.909   7.615   1.320
33856W        W 6924  18.004  11.680   4.670
33857W        W 6925  10.790  26.314  11.643
33858W        W 6926   3.908  28.217   5.012
33859W        W 6927  10.383  33.954   1.349
33860W        W 6928  23.141   4.428  12.485
33861W        W 6929   8.244   2.660  13.796
33862W        W 6930   3.049  15.073   3.860
33863W        W 6931  13.971  11.027  11.200
33864W        W 6932  24.502  40.286  10.673
33865W        W 6933  19.796  26.612  14.531
33866W        W 6934  22.759  39.457   0.208
33867W        W 6935   4.980  23.597  13.631
33868W        W 6936  39.807  19.030  12.428
33869W        W 6937  19.128   7.363  12.444
33870W        W 6938   6.858  21.046  11.011
33871W        W 6939  36.091  32.516   2.302
33872W        W 6940   5.000   7.820  11.145
33873W        W 6941  23.674  29.202   1.256
33874W        W 6942  17.233  17.564   1.315
33875W        W 6943  29.594  36.101   5.162
33876W        W 6944  30.529  41.060  10.510
33877W        W 6945  37.849   8.171   1.370
33878W        W 6946  24.370  32.028   5.134
33879W        W 6947  37.061  23.670  11.589
33880W        W 6948  32.529   1.424   1.952
33881W        W 6949  35.610   8.739  13.825
33882W        W 6950  21.230  25.063  11.164
33883W        W 6951  21.482  40.584  12.381
33884W        W 6952  27.121  37.496  11.615
33885W        W 6953  39.895  22.551  13.999
33886W        W 6954  12.891   4.376  13.535
33887W        W 6955   0.054  40.300   1.836
33888W        W 6956  26.158  41.035  13.821
33889W        W 6957  19.839  13.287   5.018
33890W        W 6958   1.506  37.603  10.545
33891W        W 6959   9.239  20.101   2.778
33892W        W 6960  37.852  28.043   3.154
33893W        W 6961  12.737   1.798   0.330
33894W        W 6962  16.115  29.498   4.098
33895W        W 6963   4.181  27.312   4.171
33896W        W 6964   6.788   2.268   1.467
33897W        W 6965   6.694  37.889  12.569
33898W        W 6966  26.788  35.249  12.048
33899W        W 6967  39.999  37.756   4.582
33900W        W 6968  39.673  39.254  11.684
33901W        W 6969  20.495  10.356  11.606
33902W        W 6970  25.539  27.979   0.727
33903W        W 6971  13.189  20.226   2.335
33904W        W 6972  25.352   0.167  12.128
33905W        W 6973  35.025  28.103   1.651
33906W        W 6974  20.281  30.723  13.202
33907W        W 6975   9.161  41.098  12.590
33908W        W 6976  41.913  40.108  14.359
33909W        W 6977  32.992  23.096  13.431
33910W        W 6978  31.726  19.298   0.230
33911W        W 6979   2.233   5.416   3.893
33912W        W 6980  27.065   2.345  12.943
33913W        W 6981   9.131  37.833   4.552
33914W        W 6982  35.240  13.520   0.792
33915W        W 6983  18.511  36.966  14.911
33916W        W 6984  28.744  43.292   3.566
33917W        W 6985  35.473  22.257  11.992
33918W        W 6986  16.802  22.453  13.748
33919W        W 6987  34.978  30.609   0.716
33920W        W 6988  39.171  13.914   3.712
33921W        W 6989   5.694  11.253   2.456
33922W        W 6990  24.677  36.181  14.696
33923W        W 6991  24.215  27.671   1.286
33924W        W 6992  16.606  43.056   3.646
33925W        W 6993  16.330   7.184  11.204
33926W        W 6994  20.689  29.886   1.416
33927W        W 6995  29.526  35.288   4.647
33928W        W 6996   8.668  39.428   2.878
33929W        W 6997  29.533   0.021  12.896
33930W        W 6998  20.113  37.321   1.817
33931W        W 6999  33.556   3.153   5.142
33932W        W 7000  34.677  25.165  12.605
33933W        W 7001  40.797  42.271  12.457
33934W        W 7002   7.549  10.040   2.165
33935W        W 7003  13.801  41.858  13.358
33936W        W 7004  42.527  42.559   3.682
33937W        W 7005  43.717  10.856   3.682
33938W        W 7006   4.131   6.494  12.473
33939W        W 7007  41.595  36.598  14.053
33940W        W 7008   9.919   7.783   4.286
33941W        W 7009  18.740   6.947   1.490
33942W        W 7010  24.082  13.273  14.856
33943W        W 7011  44.990   0.159  14.250
33944W        W 7012  19.159  28.919   0.786
33945W        W 7013   8.183   6.633  12.991
33946W        W 7014  21.977  22.952   0.756
33947W        W 7015  17.271  39.230  14.416
33948W        W 7016  14.578  43.769  13.383
33949W        W 7017  23.935  15.226   0.132
33950W        W 7018  31.408   9.225  11.186
33951W        W 7019  11.757   3.848  12.912
33952W        W 7020  24.997  28.470  10.775
33953W        W 7021  12.171  43.984  12.480
33954W        W 7022  13.814  24.471   1.129
33955W        W 7023  32.471  33.404  12.155
33956W        W 7024  43.808   8.421  13.282
33957W        W 7025  38.273   7.297  12.589
33958W        W 7026   2.455  42.051   3.574
33959W        W 7027   8.859  20.015   3.577
33960W        W 7028  10.164  25.484  10.560
33961W        W 7029   7.310   4.338  12.408
33962W        W 7030  10.383   1.395   2.688
33963W        W 7031  43.264  20.587   3.657
33964W        W 7032  18.599  40.760   2.269
33965W        W 7033  28.127  43.353  13.102
33966W        W 7034  40.194  28.243  10.718
33967W        W 7035   8.759   0.136   3.856
33968W        W 7036   4.442  40.946  11.079
33969W        W 7037  16.792  17.549  12.311
33970W        W 7038  12.262  33.385  10.490
33971W        W 7039  40.884  39.311   2.255
33972W        W 7040  40.077  11.892   4.364
33973W        W 7041  27.351  24.052  13.253
33974W        W 7042  32.010  22.329  12.194
33975W        W 7043  33.457  12.626   2.785
33976W        W 7044  21.322  11.423  12.599
33977W        W 7045  26.360  33.655  12.936
33978W        W 7046  23.857  32.057   4.958
33979W        W 7047  16.764   2.242   1.398
33980W        W 7048  16.702  36.076  11.455
33981W        W 7049  14.740  36.146  12.497
33982W        W 7050  36.381  28.169   1.470
33983W        W 7051  42.926   5.799   0.907
33984W        W 7052  20.019   0.397  10.689
33985W        W 7053  27.125  23.105  11.545
33986W        W 7054   2.737  36.893  10.638
33987W        W 7055  44.489   0.936  12.589
33988W        W 7056  23.688  19.803   2.377
33989W        W 7057  10.151  37.222   9.617
33990W        W 7058  13.503   9.671   2.917
33991W        W 7059   9.891  35.653   4.656
33992W        W 7060  11.969  16.457   1.817
33993W        W 7061   0.406   6.630   1.355
33994W        W 7062  12.269  32.225   0.428
33995W        W 7063  42.279   1.220  13.273
33996W        W 7064  40.892  29.092   3.750
33997W        W 7065  42.563  24.758   1.356
33998W        W 7066  16.730  40.978  12.634
33999W        W 7067  30.895  28.001  10.682
34000W        W 7068  23.980   2.609   4.128
34001W        W 7069  32.642   3.437   4.707
34002W        W 7070  36.365  30.281   4.523
34003W        W 7071  30.570   9.592  11.929
34004W        W 7072  43.755   3.962   0.420
34005W        W 7073  40.916  10.212   4.077
34006W        W 7074  40.291  10.726  10.769
34007W        W 7075   6.144  21.873   4.800
34008W        W 7076  11.945  10.807   4.598
34009W        W 7077  36.960   8.600  14.899
34010W        W 7078  28.370  32.101  12.465
34011W        W 7079  22.310  32.560  13.469
34012W        W 7080  15.608  21.816   1.744
34013W        W 7081  16.046  32.097  11.380
34014W        W 7082  41.374  31.954   1.163
34015W        W 7083  36.930  23.253   3.781
34016W        W 7084  27.890  42.008   3.674
34017W        W 7085  16.963  25.512   1.757
34018W        W 7086  18.448  35.577  11.889
34019W        W 7087   4.852  23.750  12.551
34020W        W 7088   3.718  19.124   1.132
34021W        W 7089  31.482  18.684   4.467
34022W        W 7090  24.554  31.230  11.989
34023W        W 7091  32.098   1.967  12.902
34024W        W 7092  17.135  33.798  13.892
34025W        W 7093  39.582  22.157   2.364
34026W        W 7094   0.057  26.872   1.853
34027W        W 7095  26.677  16.571   1.718
34028W        W 7096  33.577  19.382  10.209
34029W        W 7097   1.343  22.577   4.032
34030W        W 7098  34.835  10.812  14.330
34031W        W 7099  21.358  30.607   2.136
34032W        W 7100   1.036   1.251  11.587
34033W        W 7101  13.346  26.048  13.480
34034W        W 7102  40.148  10.379   0.314
34035W        W 7103  42.934   5.700  13.615
34036W        W 7104  18.659  42.904   2.849
34037W        W 7105  25.377  26.232  14.097
34038W        W 7106  30.032  19.768  11.433
34039W        W 7107  43.234  16.415   3.693
34040W        W 7108  36.895   9.826   4.459
34041W        W 7109  13.267   8.623   1.297
34042W        W 7110   9.389  44.711  12.530
34043W        W 7111   3.194   7.502  13.021
34044W        W 7112  33.017  28.949  11.948
34045W        W 7113  44.242  17.259  14.965
34046W        W 7114  31.388  10.726   0.875
34047W        W 7115  12.088   0.010   2.275
34048W        W 7116  38.046   9.896   1.990
34049W        W 7117  40.446  30.462  12.996
34050W        W 7118  30.216   3.145  14.096
34051W        W 7119  20.526  21.091  14.494
34052W        W 7120  24.976   8.426  14.417
34053W        W 7121  34.749   6.384   3.191
34054W        W 7122  16.241  32.956  10.795
34055W        W 7123  10.516   1.251  11.125
34056W        W 7124  30.165  11.460   3.711
34057W        W 7125  41.326  18.983  11.931
34058W        W 7126   4.440  23.149   2.334
34059W        W 7127  17.957   8.666   2.623
34060W        W 7128  11.038   3.698  14.837
34061W        W 7129   4.621  38.406   2.555
34062W        W 7130  16.427  34.065  11.308
34063W        W 7131   3.641  38.941  10.707
34064W        W 7132  26.471  39.846   1.877
34065W        W 7133  14.179  30.089  12.091
34066W        W 7134  36.109   1.717   0.252
34067W        W 7135   4.274  14.474   2.245
34068W        W 7136  43.715   7.862   2.233
34069W        W 7137  17.767  39.444  11.552
34070W        W 7138   5.886  42.581  11.607
34071W        W 7139  40.889   1.931  10.863
34072W        W 7140  18.518  19.312   2.702
34073W        W 7141  31.630  30.779  14.560
34074W        W 7142  35.017  13.442   2.264
34075W        W 7143  16.965  20.058  11.750
34076W        W 7144  22.731   2.723   3.507
34077W        W 7145  21.541  19.280  12.414
34078W        W 7146  43.914   4.421   0.233
34079W        W 7147  42.898  31.416   4.585
34080W        W 7148  43.800  39.897  14.051
34081W        W 7149  19.056  24.036   1.280
34082W        W 7150  28.254  24.969   0.003
34083W        W 7151   9.175  41.531  12.007
34084W        W 7152   9.379  23.425   1.255
34085W        W 7153  11.306  12.165  14.798
34086W        W 7154  29.196  11.288   0.420
34087W        W 7155  35.763  30.633   4.137
34088W        W 7156  34.998  24.653   3.086
34089W        W 7157  17.081  10.924   3.656
34090W        W 7158   3.344  20.717  10.685
34091W        W 7159  21.669   7.816   0.431
34092W        W 7160  19.528  26.187  14.599
34093W        W 7161  32.054  10.910  11.292
34094W        W 7162   8.694  34.998   4.505
34095W        W 7163  16.101  40.378   3.661
34096W        W 7164  24.453   7.284   1.205
34097W        W 7165  11.026  31.087  14.712
34098W        W 7166   0.695  23.431   4.154
34099W        W 7167  40.835  41.589   0.357
34100W        W 7168   0.262   1.927  14.946
34101W        W 7169  21.522  23.685   0.843
34102W        W 7170  29.736  26.108   2.286
34103W        W 7171  22.633   0.444   4.951
34104W        W 7172  19.290   9.831   2.351
34105W        W 7173   6.812   4.621   0.211
34106W        W 7174   7.231  42.246  12.648
34107W        W 7175   2.268  19.935  13.438
34108W        W 7176  32.188  15.485  12.587
34109W        W 7177  21.333  42.933   2.853
34110W        W 7178  31.072  33.619   4.128
34111W        W 7179  33.982  13.925  14.906
34112W        W 7180  16.544  16.069   1.681
34113W        W 7181  36.696  10.873  13.244
34114W        W 7182  40.701  44.912   3.655
34115W        W 7183  35.776  37.953  12.460
34116W        W 7184  17.191  14.591   1.451
34117W        W 7185  21.103   3.712   2.841
34118W        W 7186  11.755  24.493  10.478
34119W        W 7187  35.314  30.015   0.748
34120W        W 7188  21.637  12.213  14.051
34121W        W 7189  31.676  17.388   1.355
34122W        W 7190   9.223  16.158  12.800
34123W        W 7191  41.458  35.703  11.232
34124W        W 7192  43.022  21.173   4.933
34125W        W 7193  28.213  14.183   3.255
34126W        W 7194  19.243  34.493  12.416
34127W        W 7195  32.586  41.914   0.007
34128W        W 7196  39.378  17.862  13.064
34129W        W 7197   4.389  29.989  10.827
34130W        W 7198   8.859  36.445   3.609
34131W        W 7199  30.012  21.711   3.649
34132W        W 7200  27.857  10.224   0.219
34133W        W 7201  31.227  23.453  10.790
34134W        W 7202  11.851  29.159   2.460
34135W        W 7203  41.944  32.210  13.493
34136W        W 7204  44.451  38.013  12.885
34137W        W 7205  11.630  31.691  14.870
34138W        W 7206  44.698  29.034  11.031
34139W        W 7207  25.915  41.499  12.502
34140W        W 7208  43.994   0.413  12.944
34141W        W 7209   9.287  44.665   1.204
34142W        W 7210   8.393  42.155   0.924
34143W        W 7211   4.750  40.985  10.654
34144W        W 7212  37.002  30.138  10.679
34145W        W 7213  29.941  22.675   4.194
34146W        W 7214  13.098  12.283   0.961
34147W        W 7215  29.747  32.907   2.740
34148W        W 7216  13.765  34.835  13.374
34149W        W 7217  29.573   6.561   0.355
34150W        W 7218  25.277  19.284  14.219
34151W        W 7219  33.396   5.187  14.490
34152W        W 7220   7.647  41.799  14.869
34153W        W 7221  17.093   7.353  11.660
34154W        W 7222  12.096   4.403   0.289
34155W        W 7223  37.493  16.350   3.253
34156W        W 7224  10.185  21.282  10.914
34157W        W 7225  23.444  17.756  14.338
34158W        W 7226  41.090   9.889  14.239
34159W        W 7227  22.135  22.280  12.516
34160W        W 7228  31.614  21.990   3.746
34161W        W 7229   9.407  42.021   4.658
34162W        W 7230  41.948  14.163  14.381
34163W        W 7231  18.519  23.503   3.740
34164W        W 7232  21.276  44.881  12.992
34165W        W 7233   5.729  39.049  14.510
34166W        W 7234   1.333  13.695  13.520
34167W        W 7235   0.089  28.523   1.456
34168W        W 7236   1.282  40.281   1.657
34169W        W 7237  22.149  41.477   0.303
34170W        W 7238  34.113   0.978  12.425
34171W        W 7239   6.820   7.268  12.944
34172W        W 7240  14.791   5.855   4.685
34173W        W 7241  40.024   1.742   4.335
34174W        W 7242  38.492  42.325   2.173
34175W        W 7243   5.355  42.917   4.053
34176W        W 7244  40.361  20.761  12.426
34177W        W 7245  23.137  33.169  11.232
34178W        W 7246  30.603  13.035  11.001
34179W        W 7247  29.482  23.743  14.464
34180W        W 7248  43.351  24.783   4.923
34181W        W 7249   2.807  43.413   1.190
34182W        W 7250  12.597  10.106   2.854
34183W        W 7251  29.496  41.357  13.908
34184W        W 7252  39.952   2.587   4.629
34185W        W 7253  11.583  22.580   3.289
34186W        W 7254  19.020  38.048  13.999
34187W        W 7255  28.229  17.276  10.792
34188W        W 7256  24.078   9.199   4.626
34189W        W 7257  36.578  36.703   4.389
34190W        W 7258  38.873  30.184   4.662
34191W        W 7259  43.067  17.603  12.720
34192W        W 7260  15.890  30.572   3.372
34193W        W 7261  21.117   9.741  12.063
34194W        W 7262   8.135   3.358   2.239
34195W        W 7263   0.295  22.691   2.162
34196W        W 7264   9.678  35.076   0.858
34197W        W 7265   0.523  28.707  14.507
34198W        W 7266  25.507  25.616  14.259
34199W        W 7267   0.216   2.650   4.326
34200W        W 7268  30.402  32.356   0.611
34201W        W 7269  12.773  11.464   1.457
34202W        W 7270  36.565  30.609  14.773
34203W        W 7271  12.218  13.665   2.446
34204W        W 7272  17.601  29.772   1.850
34205W        W 7273  37.463   9.743   0.826
34206W        W 7274  16.844   6.197  12.931
34207W        W 7275  39.971  11.678  11.747
34208W        W 7276  24.092  30.591   2.338
34209W        W 7277  30.343  27.447  12.999
34210W        W 7278  24.659  14.041  10.705
34211W        W 7279   1.886  32.835  13.643
34212W        W 7280  22.049  36.835   3.203
34213W        W 7281   0.503  25.199  10.756
34214W        W 7282  16.630  12.448  14.625
34215W        W 7283  25.946  17.685  11.649
34216W        W 7284   1.320   0.433  12.678
34217W        W 7285  13.272  41.203   5.338
34218W        W 7286  22.135  19.489  13.980
34219W        W 7287   4.784   5.433   1.521
34220W        W 7288  42.384   0.448   4.110
34221W        W 7289  11.697  34.046   0.932
34222W        W 7290  17.711  28.064  12.518
34223W        W 7291  11.080  21.606   1.392
34224W        W 7292   5.399  25.448   0.333
34225W        W 7293  39.743   5.453  13.661
34226W        W 7294  31.529  19.724   3.536
34227W        W 7295   4.892  15.947  13.105
34228W        W 7296  25.169  11.099   0.692
34229W        W 7297  42.020  23.501   0.323
34230W        W 7298  13.368  13.309  11.860
34231W        W 7299  40.810  29.596  13.999
34232W        W 7300  35.541  35.609  12.309
34233W        W 7301  30.472   9.096  11.776
34234W        W 7302   2.273  26.913   1.829
34235W        W 7303   7.751   5.159  11.703
34236W        W 7304  31.714  30.385  14.252
34237W        W 7305  25.874  39.083   0.973
34238W        W 7306  32.150  31.239  12.039
34239W        W 7307  20.009  18.052   4.409
34240W        W 7308  11.334  31.906   0.828
34241W        W 7309   1.349   5.744  13.927
34242W        W 7310  12.111  32.390   2.325
34243W        W 7311  26.013  29.100   1.316
34244W        W 7312   3.897  38.316   0.293
34245W        W 7313  23.989  27.214   1.383
34246W        W 7314   7.045  28.194  13.293
34247W        W 7315   1.276  12.155   1.507
34248W        W 7316  12.514   6.306   2.213
34249W        W 7317  25.529   8.959  12.119
34250W        W 7318   5.137  13.995  11.173
34251W        W 7319  38.567   8.846  12.418
34252W        W 7320  20.872  27.107  13.179
34253W        W 7321  22.453  32.323  14.446
34254W        W 7322  32.693  32.516  11.157
34255W        W 7323  24.618   1.376  12.877
34256W        W 7324  39.474  31.507  13.441
34257W        W 7325   6.502  26.506   0.349
34258W        W 7326   2.798   2.195   2.200
34259W        W 7327   8.276  43.241   0.937
34260W        W 7328  36.866  35.066  13.241
34261W        W 7329  39.350  36.374   1.966
34262W        W 7330  44.228  17.048   4.831
34263W        W 7331  10.605  40.039  13.438
34264W        W 7332  23.188  39.282  12.893
34265W        W 7333  11.654  32.824   2.080
34266W        W 7334  37.792  42.291  13.870
34267W        W 7335  41.984   2.434  10.505
34268W        W 7336   5.780  16.596  13.378
34269W        W 7337  32.931  34.933   1.745
34270W        W 7338   7.304  26.725   0.713
34271W        W 7339  43.526  38.146  11.277
34272W        W 7340  37.616  36.853  13.884
34273W        W 7341  30.615   6.720   2.172
34274W        W 7342  24.955  38.885   1.879
34275W        W 7343  44.985  22.885   4.180
34276W        W 7344   4.034  29.676   2.749
34277W        W 7345  16.935  13.831  14.339
34278W        W 7346   4.791  30.600   3.747
34279W        W 7347  40.283  36.481  13.403
34280W        W 7348  27.439  26.100   3.882
34281W        W 7349   8.919  37.637  14.243
34282W        W 7350  19.218  27.084   2.733
34283W        W 7351  23.754  28.453  14.420
34284W        W 7352  24.491  25.002   0.542
34285W        W 7353  23.598  10.154   1.019
34286W        W 7354  12.777  13.765  14.260
34287W        W 7355  16.585  40.983   4.171
34288W        W 7356  37.096  31.912  11.159
34289W        W 7357  23.087  42.784   0.411
34290W        W 7358   7.852   4.646  12.985
34291W        W 7359  33.938  38.295   1.420
34292W        W 7360  32.408  38.243  10.711
34293W        W 7361  44.272  42.026   0.737
34294W        W 7362  39.424   5.970   3.615
34295W        W 7363  40.299  35.852   1.878
34296W        W 7364  25.479  32.524   3.413
34297W        W 7365  30.976  42.433  13.742
34298W        W 7366   8.247  10.189   4.132
34299W        W 7367  20.160  22.512   2.344
34300W        W 7368  38.421   9.098  10.729
34301W        W 7369  37.764  23.837  10.004
34302W        W 7370   6.686  28.992   4.571
34303W        W 7371   2.749  25.543   2.831
34304W        W 7372   1.329  40.526   0.661
34305W        W 7373  23.632  36.842   4.113
34306W        W 7374  13.723  27.011   3.877
34307W        W 7375  22.667  40.047   3.717
34308W        W 7376   3.603   7.925   5.167
34309W        W 7377  12.365  18.107  11.011
34310W        W 7378  11.419   1.856  13.929
34311W        W 7379  40.389   6.630  10.630
34312W        W 7380   8.188  36.293   2.598
34313W        W 7381  44.752  11.183  12.544
34314W        W 7382  10.967   6.402   0.841
34315W        W 7383  13.623  16.813   4.453
34316W        W 7384   1.766   7.624  10.718
34317W        W 7385  37.472  44.225  11.620
34318W        W 7386  18.853  19.325   3.111
34319W        W 7387  24.491  28.132   0.331
34320W        W 7388  23.021  31.169   0.674
34321W        W 7389  13.010   8.187   3.683
34322W        W 7390   5.872  27.124  12.225
34323W        W 7391  25.247   7.799   4.586
34324W        W 7392  38.706  15.887   3.613
34325W        W 7393  40.377  16.562  12.015
34326W        W 7394  23.478  26.710  12.475
34327W        W 7395   7.136  21.042   2.800
34328W        W 7396   4.760  44.261  10.666
34329W        W 7397  39.566  21.538  14.719
34330W        W 7398  27.629  16.447   2.442
34331W        W 7399  27.201  34.075   0.388
34332W        W 7400  35.079  22.679   0.904
34333W        W 7401  13.219  24.566   4.596
34334W        W 7402  26.737  21.108   4.463
34335W        W 7403  19.534  19.822   4.589
34336W        W 7404  41.812  36.603   0.486
34337W        W 7405   9.727  23.100   3.446
34338W        W 7406  38.939  30.941  10.996
34339W        W 7407   9.740  22.146   4.957
34340W        W 7408  23.380  39.097   4.053
34341W        W 7409   9.902   9.916   1.926
34342W        W 7410  26.643   5.633   4.136
34343W        W 7411  13.305  16.806   5.713
34344W        W 7412   0.717  13.783  12.680
34345W        W 7413  31.209   8.843  11.867
34346W        W 7414  29.885  34.025  11.546
34347W        W 7415  18.695  39.519  11.357
34348W        W 7416   0.420  25.458  13.766
34349W        W 7417  33.115   4.383  11.978
34350W        W 7418  11.824  14.764   0.068
34351W        W 7419   9.190   4.853  14.960
34352W        W 7420  33.080  18.298   3.319
34353W        W 7421  14.195  29.457   3.268
34354W        W 7422  27.007  13.248   4.787
34355W        W 7423  20.665  39.983   0.857
34356W        W 7424   8.676   4.712   4.491
34357W        W 7425  43.376  43.347   1.848
34358W        W 7426   2.272  39.238   2.804
34359W        W 7427   3.232  33.049  14.040
34360W        W 7428  22.105   3.793  14.314
34361W        W 7429  25.934   0.888  13.596
34362W        W 7430  40.263  19.743  11.033
34363W        W 7431  36.896  19.510   1.547
34364W        W 7432  14.061  42.324   1.394
34365W        W 7433  30.147  20.262   2.504
34366W        W 7434  18.661  16.064   3.387
34367W        W 7435  29.661   5.865   3.851
34368W        W 7436  38.905  23.300   3.716
34369W        W 7437  21.621  29.910   1.404
34370W        W 7438  15.779  15.670   0.770
34371W        W 7439  38.991  14.817  14.836
34372W        W 7440  14.148  33.161   2.964
34373W        W 7441   3.666  19.742   2.232
34374W        W 7442  35.414  39.630  14.773
34375W        W 7443  35.685  31.464  13.040
34376W        W 7444   6.957  14.664   1.153
34377W        W 7445   9.395  42.744  12.478
34378W        W 7446  38.457  24.770   0.426
34379W        W 7447  16.291  21.751  13.997
34380W        W 7448   3.000  14.919  11.060
34381W        W 7449  44.243  28.170  13.471
34382W        W 7450   5.608  43.063  12.984
34383W        W 7451   8.883  20.788   2.869
34384W        W 7452  20.004  31.143   4.160
34385W        W 7453  11.299  42.328   4.715
34386W        W 7454  26.615  20.045  10.797
34387W        W 7455  29.909  39.063   0.924
34388W        W 7456  20.662  31.424  11.224
34389W        W 7457  25.414  12.110  12.162
34390W        W 7458  20.812   0.798  13.469
34391W        W 7459  11.825  20.207   0.492
34392W        W 7460  17.023  17.780  11.914
34393W        W 7461   6.889  15.175  14.954
34394W        W 7462  21.484  27.617  11.986
34395W        W 7463  14.731  44.057  14.669
34396W        W 7464   6.705  28.167   1.199
34397W        W 7465  33.786   4.935  11.697
34398W        W 7466  27.609  14.558   1.425
34399W        W 7467  32.083   2.494   0.914
34400W        W 7468  22.057  31.559  14.490
34401W        W 7469  19.567  13.740   3.637
34402W        W 7470  31.495   5.780  10.801
34403W        W 7471  23.556   7.686  10.998
34404W        W 7472   1.989  16.784  14.760
34405W        W 7473  40.502  13.836   2.377
34406W        W 7474  41.394  29.850   0.861
34407W        W 7475  26.209   1.890  10.479
34408W        W 7476  18.217   6.153   1.336
34409W        W 7477   9.657  13.629  13.434
34410W        W 7478  23.655  14.864   0.450
34411W        W 7479  23.715  12.658   0.921
34412W        W 7480   0.352  21.929   4.200
34413W        W 7481  32.431  34.095   4.140
34414W        W 7482  24.478  28.478   4.629
34415W        W 7483   4.765  26.560  14.859
34416W        W 7484  20.088  22.306  12.049
34417W        W 7485  40.062  20.120  13.476
34418W        W 7486  11.223   5.213  13.059
34419W        W 7487  22.873  20.500  14.363
34420W        W 7488   8.218  28.693   3.032
34421W        W 7489  36.659  25.375  13.037
34422W        W 7490  15.668  18.576  14.612
34423W        W 7491   5.151  26.729  10.639
34424W        W 7492  33.938  12.918   4.068
34425W        W 7493  23.299  11.860   1.664
34426W        W 7494  15.301  38.356  13.436
34427W        W 7495  29.118  19.529   3.908
34428W        W 7496  40.426   8.318  14.236
34429W        W 7497  19.089   4.353  14.058
34430W        W 7498  17.080   5.877  11.148
34431W        W 7499  33.822  25.061   4.109
34432W        W 7500  29.564  28.116   4.595
34433W        W 7501   2.642  16.339  11.258
34434W        W 7502  11.344  33.954  14.558
34435W        W 7503   3.906  31.010   3.989
34436W        W 7504  20.629  38.711  14.331
34437W        W 7505   7.910  14.774  14.250
34438W        W 7506   6.935   7.284   1.787
34439W        W 7507   8.390   7.718  10.852
34440W        W 7508  16.361   9.575  11.117
34441W        W 7509  37.578  38.765   0.849
34442W        W 7510  37.634  23.550   4.382
34443W        W 7511  28.717  27.121   3.675
34444W        W 7512  25.447  18.924   1.986
34445W        W 7513   7.205  28.750  14.971
34446W        W 7514  39.562  42.820  12.469
34447W        W 7515  21.081   5.983   1.175
34448W        W 7516  27.926   1.361   4.552
34449W        W 7517  26.721  16.564   0.771
34450W        W 7518  22.594   1.444   3.028
34451W        W 7519  38.077  30.950  11.274
34452W        W 7520  36.838   3.908   0.460
34453W        W 7521  25.279   4.882  14.938
34454W        W 7522  15.295  43.048  12.045
34455W        W 7523  36.308   5.699  12.645
34456W        W 7524  10.718  11.833  12.573
34457W        W 7525   4.167  37.819   0.449
34458W        W 7526  39.373  16.230   3.949
34459W        W 7527  35.023   2.230   3.797
34460W        W 7528  33.081  38.406   0.815
34461W        W 7529  12.765  44.272  13.989
34462W        W 7530   3.755   5.247   4.508
34463W        W 7531   2.478  39.937  10.426
34464W        W 7532  26.097  24.718  13.502
34465W        W 7533  12.395  43.530   1.224
34466W        W 7534  35.471   5.312  10.894
34467W        W 7535  20.239  29.724   1.161
34468W        W 7536  44.218   8.739   3.619
34469W        W 7537  24.495  12.795   2.801
34470W        W 7538   5.883  21.596   3.345
34471W        W 7539  15.527  21.723  12.305
34472W        W 7540  34.805  20.215   2.324
34473W        W 7541  18.176  24.292   3.540
34474W        W 7542   0.777   7.622   1.140
34475W        W 7543  34.877   8.460  13.572
34476W        W 7544   1.812  24.782   3.983
34477W        W 7545   1.855  13.395   4.588
34478W        W 7546  28.450   7.216   4.637
34479W        W 7547  38.571  38.794   1.767
34480W        W 7548  44.309  28.435  14.805
34481W        W 7549  10.928   8.852   0.405
34482W        W 7550   6.750  28.924  14.204
34483W        W 7551  24.366  30.565   4.140
34484W        W 7552  35.124  42.281  12.141
34485W        W 7553  19.628  42.681   1.347
34486W        W 7554  42.608  42.379   0.681
34487W        W 7555  25.933   4.934  10.224
34488W        W 7556   3.241  11.190  12.665
34489W        W 7557   9.581  34.004  13.083
34490W        W 7558  38.004  34.926  12.013
34491W        W 7559  14.751  25.425  14.873
34492W        W 7560  25.064  21.044  12.825
34493W        W 7561  13.479  40.929  13.480
34494W        W 7562  16.201   5.624   4.018
34495W        W 7563  29.670   0.924   0.038
34496W        W 7564   7.198  10.132  14.552
34497W        W 7565  41.013  27.862   4.731
34498W        W 7566  21.438   5.563   4.471
34499W        W 7567  29.734  17.237  14.727
34500W        W 7568   8.652  33.651  12.944
34501W        W 7569  18.034  22.648  12.831
34502W        W 7570  33.922  22.684   4.331
34503W        W 7571  25.432  41.256   5.346
34504W        W 7572  18.825   3.476   0.561
34505W        W 7573  37.530  31.121   0.352
34506W        W 7574  34.643  16.098  11.361
34507W        W 7575  37.886   8.896  12.006
34508W        W 7576  21.716   4.809  12.051
34509W        W 7577  13.631  31.053  12.054
34510W        W 7578  28.830   0.749   1.310
34511W        W 7579  11.871  24.088   0.376
34512W        W 7580  29.165  11.247   3.810
34513W        W 7581  30.399  19.191  12.629
34514W        W 7582   8.342  19.835  11.241
34515W        W 7583  21.043  12.624   0.827
34516W        W 7584   1.430  26.999   1.576
34517W        W 7585  26.708   9.097   3.584
34518W        W 7586  24.155  35.776  12.522
34519W        W 7587  15.714   8.686   2.893
34520W        W 7588   3.376  23.847   3.643
34521W        W 7589  28.076  15.275  13.019
34522W        W 7590  21.997   3.376  11.176
34523W        W 7591  28.887  43.456  10.999
34524W        W 7592  37.573  22.570   2.163
34525W        W 7593  19.196  14.759  14.039
34526W        W 7594  17.051  32.631  14.264
34527W        W 7595  24.751  39.374   1.863
34528W        W 7596  14.250  12.656   4.585
34529W        W 7597  40.284  11.386  11.406
34530W        W 7598  23.933  10.635  14.789
34531W        W 7599  10.832  33.100  14.152
34532W        W 7600  25.696   8.423  10.681
34533W        W 7601   8.379   3.904   3.810
34534W        W 7602  12.349  11.920   4.809
34535W        W 7603  39.827  20.211   1.762
34536W        W 7604  14.612   0.534   1.599
34537W        W 7605  17.784  43.345  12.085
34538W        W 7606  16.469   9.682   0.451
34539W        W 7607   8.620  17.861   2.487
34540W        W 7608   2.303   3.775   0.589
34541W        W 7609  30.989  34.157  10.864
34542W        W 7610  14.169  19.919  11.520
34543W        W 7611  38.385  26.551   0.308
34544W        W 7612  17.274  14.303  13.745
34545W        W 7613   3.705   3.169  11.531
34546W        W 7614  25.993   1.552  14.700
34547W        W 7615   4.457   3.987   2.794
34548W        W 7616  14.467  43.900  12.885
34549W        W 7617  12.745  16.503  14.812
34550W        W 7618  42.367  35.521   3.597
34551W        W 7619  11.718  35.176   3.006
34552W        W 7620  32.613  27.372   3.629
34553W        W 7621  17.964  39.401  13.362
34554W        W 7622  30.809  35.846  11.903
34555W        W 7623  41.385  19.209  12.382
34556W        W 7624  35.906  10.758   0.730
34557W        W 7625   9.314  38.427  10.643
34558W        W 7626  37.826   6.966  14.304
34559W        W 7627  13.621  33.512   0.544
34560W        W 7628  42.741   0.997  12.003
34561W        W 7629  13.228  22.133  12.988
34562W        W 7630  21.624  11.386  12.155
34563W        W 7631  11.618  11.805   2.389
34564W        W 7632   2.349  11.331   2.520
34565W        W 7633  36.408   8.281   4.094
34566W        W 7634  25.251   5.253  14.277
34567W        W 7635  10.713  14.833   1.755
34568W        W 7636   3.952  14.710  12.849
34569W        W 7637  11.963   5.235   0.911
34570W        W 7638  41.841  42.279   3.083
34571W        W 7639   8.345  30.907  11.519
34572W        W 7640   5.244  28.672   2.091
34573W        W 7641  24.617  28.231  14.807
34574W        W 7642  42.541  20.947   0.821
34575W        W 7643  35.831  33.085   4.600
34576W        W 7644  40.274  36.110   2.758
34577W        W 7645  29.558  27.613   4.543
34578W        W 7646  29.204  37.400   2.288
34579W        W 7647  29.203  37.323  14.265
34580W        W 7648  18.214  32.932  10.535
34581W        W 7649  34.402   6.739   4.913
34582W        W 7650  10.887  17.255  14.317
34583W        W 7651  21.971  15.620  12.546
34584W        W 7652  39.975  40.970  12.599
34585W        W 7653  21.147   8.653   1.715
34586W        W 7654   5.002  15.182   2.920
34587W        W 7655  26.259  30.419  13.000
34588W        W 7656  11.286  15.634   0.755
34589W        W 7657  22.145  32.526   1.671
34590W        W 7658  42.373  38.617   2.765
34591W        W 7659  41.810  15.351  11.143
34592W        W 7660  31.025  21.954  10.998
34593W        W 7661  32.156   8.782   0.397
34594W        W 7662  33.543  11.176   2.568
34595W        W 7663   4.191  22.899   1.425
34596W        W 7664  27.939  20.395   2.712
34597W        W 7665  29.470  15.638   1.713
34598W        W 7666   1.366  37.384  13.740
34599W        W 7667   9.197  41.443  10.912
34600W        W 7668  11.561  35.958   0.006
34601W        W 7669  12.619  29.018   0.002
34602W        W 7670   8.963   4.373   2.157
34603W        W 7671  40.023  34.453  12.735
34604W        W 7672   0.359  33.379   2.754
34605W        W 7673  12.186  37.556   4.186
34606W        W 7674  14.601  39.818  13.737
34607W        W 7675  10.764   2.139  12.997
34608W        W 7676  16.215  33.837  14.904
34609W        W 7677  32.610   7.262  13.472
34610W        W 7678  23.499  22.794   1.262
34611W        W 7679  42.050  13.631   0.980
34612W        W 7680   6.213  25.857   4.549
34613W        W 7681  39.525  27.815   0.601
34614W        W 7682  27.625   0.250  13.808
34615W        W 7683  27.914   2.716   2.510
34616W        W 7684  39.948  22.805  13.087
34617W        W 7685  39.367  19.247  14.709
34618W        W 7686  12.185  33.845  11.312
34619W        W 7687  23.268   9.989  12.422
34620W        W 7688  26.157  17.998  10.734
34621W        W 7689  19.782  26.516   4.589
34622W        W 7690  10.194  26.471   1.103
34623W        W 7691  41.447  39.524   2.413
34624W        W 7692  42.564  33.576   0.217
34625W        W 7693  40.787  16.616   4.863
34626W        W 7694  41.028   4.325   4.035
34627W        W 7695  24.678  14.585  10.697
34628W        W 7696  35.830  37.839  12.980
34629W        W 7697  39.291   1.979   4.469
34630W        W 7698   4.299   7.923  10.700
34631W        W 7699  37.260  17.981   2.870
34632W        W 7700  27.929  14.331   2.825
34633W        W 7701  16.854  25.088  12.873
34634W        W 7702  21.634  42.607   0.849
34635W        W 7703  15.299   1.670   1.970
34636W        W 7704   4.750   4.781  11.965
34637W        W 7705  17.316  25.997   0.910
34638W        W 7706   9.360  15.599  10.634
34639W        W 7707  26.801  39.960   2.284
34640W        W 7708   1.412  10.487   3.184
34641W        W 7709  30.223   6.150  14.868
34642W        W 7710  12.841  32.634   4.144
34643W        W 7711   5.087  43.037  14.686
34644W        W 7712  33.516  35.597  12.163
34645W        W 7713  42.842  26.400  11.791
34646W        W 7714  32.440   5.341   0.850
34647W        W 7715  15.029  21.016   0.294
34648W        W 7716  39.806   0.761  12.424
34649W        W 7717  10.854  25.557   1.415
34650W        W 7718  40.591  30.685   2.674
34651W        W 7719  44.413  41.389  14.153
34652W        W 7720  42.035  35.062  13.460
34653W        W 7721   2.022  21.593  14.251
34654W        W 7722  31.195  34.385   1.937
34655W        W 7723  33.662  22.496   0.817
34656W        W 7724  30.159  19.947   4.709
34657W        W 7725   2.450  28.427   4.016
34658W        W 7726   4.778  30.813  11.112
34659W        W 7727  31.141  18.098  14.530
34660W        W 7728   2.793  12.806  14.997
34661W        W 7729  24.078  25.138   2.933
34662W        W 7730  33.962   5.245   2.863
34663W        W 7731  36.753  38.379  14.780
34664W        W 7732   5.488  27.417  13.056
34665W        W 7733  33.196  24.562   0.668
34666W        W 7734  40.098  19.707  14.769
34667W        W 7735  18.623  28.717  12.159
34668W        W 7736  39.001  11.614   1.279
34669W        W 7737  29.176  39.122  12.976
34670W        W 7738   5.848   9.400   1.361
34671W        W 7739  18.811  19.197  12.623
34672W        W 7740  16.106  35.031  11.834
34673W        W 7741   4.917  32.975  12.868
34674W        W 7742   1.883   1.727   1.307
34675W        W 7743   8.629  26.523  10.739
34676W        W 7744  35.609  39.387   0.853
34677W        W 7745   0.547  35.515  11.648
34678W        W 7746  11.781  39.577   0.311
34679W        W 7747   6.655  43.407  12.843
34680W        W 7748  24.707  11.177  11.510
34681W        W 7749  12.884   8.790   0.313
34682W        W 7750  24.433   0.900   0.502
34683W        W 7751  10.944  15.835   3.050
34684W        W 7752  28.400  28.475   1.301
34685W        W 7753  18.246  36.024   0.399
34686W        W 7754   5.849   6.346   2.434
34687W        W 7755   6.571  30.880   1.331
34688W        W 7756   8.890  25.656  14.469
34689W        W 7757  32.511  26.153  12.601
34690W        W 7758  26.002  27.520   1.442
34691W        W 7759   6.146  21.117  14.338
34692W        W 7760   8.653  39.597  13.460
34693W        W 7761  43.299  24.409   2.700
34694W        W 7762  38.183  39.333  12.066
34695W        W 7763  22.126  16.496  11.063
34696W        W 7764  33.636  11.625   2.891
34697W        W 7765  12.810  23.040   4.639
34698W        W 7766  15.097  37.037   1.938
34699W        W 7767  28.604  35.692  11.660
34700W        W 7768   3.735  19.538   4.565
34701W        W 7769  13.418  19.599  13.530
34702W        W 7770  19.286   8.246  11.521
34703W        W 7771   5.972  25.243  14.010
34704W        W 7772   7.433   8.442   0.444
34705W        W 7773  35.650  39.471  11.509
34706W        W 7774  17.172  25.144   5.096
34707W        W 7775  37.000  31.911  10.204
34708W        W 7776  33.736  17.915  10.129
34709W        W 7777  27.046   0.559   2.821
34710W        W 7778  43.833   5.964  13.928
34711W        W 7779  33.983  43.788  12.502
34712W        W 7780  15.873  41.773   1.464
34713W        W 7781  39.086   5.651  11.100
34714W        W 7782   6.797  20.897  13.398
34715W        W 7783  17.586  28.495  13.660
34716W        W 7784  16.700  21.313   0.756
34717W        W 7785  10.076  31.866   4.112
34718W        W 7786  22.534  36.927   1.418
34719W        W 7787   1.321  20.484   2.047
34720W        W 7788  44.047  38.186  11.195
34721W        W 7789  13.186   1.588   0.183
34722W        W 7790  23.180  19.762   0.946
34723W        W 7791  41.969  18.323  11.125
34724W        W 7792  16.884  22.701   3.676
34725W        W 7793  26.422  23.425   4.252
34726W        W 7794  33.721  25.373   3.437
34727W        W 7795  41.920  18.239  14.888
34728W        W 7796  40.639  37.276   0.430
34729W        W 7797  37.923   1.058   1.981
34730W        W 7798  23.022  14.651  10.776
34731W        W 7799  15.992   5.283   4.346
34732W        W 7800  29.422  19.826   1.118
34733W        W 7801  35.451  15.985  12.477
34734W        W 7802   5.726   1.886  13.468
34735W        W 7803   6.208  40.839  14.398
34736W        W 7804  12.420  44.355   1.296
34737W        W 7805   5.807  34.648  13.936
34738W        W 7806  18.267  12.686   0.737
34739W        W 7807  38.018  26.487  11.759
34740W        W 7808   3.712  40.761   1.396
34741W        W 7809  32.145   6.384   1.788
34742W        W 7810  20.732  41.797  12.974
34743W        W 7811  30.389  13.471   2.305
34744W        W 7812  17.684   9.393   3.931
34745W        W 7813  31.357   2.210   3.796
34746W        W 7814   2.486   9.821  13.028
34747W        W 7815   0.386  24.666   1.259
34748W        W 7816   6.968  24.125  14.930
34749W        W 7817  20.764  30.411  12.157
34750W        W 7818  20.723   2.362  14.809
34751W        W 7819   2.566  33.115   4.932
34752W        W 7820  10.855   8.148   0.151
34753W        W 7821  43.282  39.429   3.560
34754W        W 7822  44.752  20.661  13.399
34755W        W 7823  23.721  15.098  10.969
34756W        W 7824   3.343  25.539   1.938
34757W        W 7825  10.117   3.295  11.015
34758W        W 7826  26.626  12.661  11.423
34759W        W 7827  32.560  33.823   3.711
34760W        W 7828  38.377  15.323   4.105
34761W        W 7829   5.119  31.256   1.726
34762W        W 7830  31.964   2.994   0.998
34763W        W 7831  24.564  26.066  11.540
34764W        W 7832  29.896   2.746  11.064
34765W        W 7833  36.371  14.166  14.058
34766W        W 7834  24.457  13.771  12.553
34767W        W 7835   2.869   2.303  12.925
34768W        W 7836  36.363  32.031   3.357
34769W        W 7837  27.991  12.459   4.551
34770W        W 7838  24.696  16.207  11.513
34771W        W 7839   7.998  24.025  14.941
34772W        W 7840  42.818  40.832  13.415
34773W        W 7841  37.229  14.659  10.815
34774W        W 7842  19.030  32.077   4.859
34775W        W 7843  20.539  16.207   1.636
34776W        W 7844  38.865  23.645   0.503
34777W        W 7845  11.487  22.262   0.751
34778W        W 7846  23.948  18.234   0.009
34779W        W 7847   4.167   9.494  13.901
34780W        W 7848  13.788  43.963   1.657
34781W        W 7849  27.523  19.776  12.613
34782W        W 7850  28.575  35.280   0.989
34783W        W 7851  33.275  36.161   9.991
34784W        W 7852  31.685   5.367   0.271
34785W        W 7853  17.804   8.655   3.125
34786W        W 7854   2.457  16.175  13.305
34787W        W 7855  41.995  22.517  11.613
34788W        W 7856   1.531  25.019  14.482
34789W        W 7857  13.231  39.208   4.029
34790W        W 7858  42.516  10.513   3.700
34791W        W 7859   4.949  32.110   1.980
34792W        W 7860  21.912   2.518   3.277
34793W        W 7861  21.232  40.129   2.115
34794W        W 7862  10.428  37.038  14.468
34795W        W 7863  22.102  10.220   1.861
34796W        W 7864  17.955  39.721   4.884
34797W        W 7865   1.726  23.305  12.531
34798W        W 7866   9.390  43.250  12.627
34799W        W 7867   0.922  35.891   3.285
34800W        W 7868   4.644  38.467   3.105
34801W        W 7869  44.381  35.606   0.621
34802W        W 7870  30.548   1.968   3.714
34803W        W 7871  11.812  16.620   3.758
34804W        W 7872  15.177  37.297   2.911
34805W        W 7873  28.771  30.875   0.791
34806W        W 7874  26.162   9.334  10.510
34807W        W 7875  40.845  42.848  14.201
34808W        W 7876  41.535  23.053   1.606
34809W        W 7877  20.339  15.612   0.715
34810W        W 7878  22.528  20.493   3.208
34811W        W 7879   7.219   7.951   4.103
34812W        W 7880  15.570  13.884   3.312
34813W        W 7881  37.442   6.531  13.414
34814W        W 7882   6.863  38.538  14.999
34815W        W 7883  35.320  23.667   2.337
34816W        W 7884  29.402   9.368  14.998
34817W        W 7885  42.032  13.024  11.668
34818W        W 7886  31.980  14.571  10.806
34819W        W 7887  13.630  11.597   0.337
34820W        W 7888  32.753  19.192   3.203
34821W        W 7889  44.015   9.538   0.659
34822W        W 7890  33.928  38.554   4.124
34823W        W 7891  14.503  35.374   0.127
34824W        W 7892  22.981   2.973   4.135
34825W        W 7893  40.529  19.794   2.889
34826W        W 7894  12.004  27.968  12.470
34827W        W 7895  38.388  44.040  12.709
34828W        W 7896  44.471  21.345   1.802
34829W        W 7897   9.386  25.505  14.466
34830W        W 7898  26.153  36.115  14.463
34831W        W 7899  21.034   1.309   0.478
34832W        W 7900   8.241  41.893   3.235
34833W        W 7901  30.434   0.440   2.304
34834W        W 7902  25.979   1.874  10.960
34835W        W 7903  43.552   4.281   4.374
34836W        W 7904  35.567  25.088   0.281
34837W        W 7905   4.494   6.544  11.354
34838W        W 7906  15.360  19.134  12.835
34839W        W 7907  16.309  11.591  10.200
34840W        W 7908   2.696   7.523   2.889
34841W        W 7909  23.506   0.759   4.721
34842W        W 7910  19.100  39.537   4.111
34843W        W 7911  35.769  11.031  11.035
34844W        W 7912  34.785  43.393   0.693
34845W        W 7913  44.466  42.384  12.573
34846W        W 7914  17.743  11.858  11.098
34847W        W 7915  21.261  13.329  10.777
34848W        W 7916  28.670   5.264   1.436
34849W        W 7917  12.747  20.548  14.988
34850W        W 7918  31.156  32.596  13.459
34851W        W 7919   3.943  37.065  13.729
34852W        W 7920  10.715  18.688  14.424
34853W        W 7921  20.629   9.396   2.736
34854W        W 7922  22.860  44.008   0.258
34855W        W 7923  29.648  21.106   2.110
34856W        W 7924  27.258  20.713  10.432
34857W        W 7925  16.737   3.292  10.267
34858W        W 7926   1.304   5.859   4.203
34859W        W 7927  13.561  36.104  13.824
34860W        W 7928  25.449  20.466   1.831
34861W        W 7929  27.800  11.150  10.781
34862W        W 7930  44.177  38.940   2.774
34863W        W 7931   7.140  23.627  14.238
34864W        W 7932  19.732  33.366   1.124
34865W        W 7933  42.874  26.204  12.955
34866W        W 7934  25.666  38.117  12.560
34867W        W 7935  28.275  27.179   0.804
34868W        W 7936   1.472  25.187   0.326
34869W        W 7937   3.284  25.788   2.400
34870W        W 7938  10.492   6.184   0.789
34871W        W 7939  18.072   4.214  14.962
34872W        W 7940   6.235   9.271   4.734
34873W        W 7941  29.032  24.450  11.070
34874W        W 7942  42.367  18.301   2.808
34875W        W 7943  29.165  28.441  14.598
34876W        W 7944  22.562  31.158   1.910
34877W        W 7945  18.775  42.700  12.002
34878W        W 7946  34.806  36.194   5.073
34879W        W 7947   5.965  18.650  11.668
34880W        W 7948   4.001  32.112   2.742
34881W        W 7949   3.962  43.779   0.784
34882W        W 7950  28.796  38.396  12.332
34883W        W 7951   1.736  44.427  11.531
34884W        W 7952   1.325  38.317  13.559
34885W        W 7953   7.970   9.498   3.455
34886W        W 7954  27.034  38.026   3.313
34887W        W 7955   7.818  23.486   0.244
34888W        W 7956  13.500  18.399  10.653
34889W        W 7957   8.841  37.371   1.374
34890W        W 7958  42.963  38.960  11.607
34891W        W 7959   0.978   4.791  11.543
34892W        W 7960   0.170  33.390  12.948
34893W        W 7961  44.759  38.972  14.896
34894W        W 7962   2.402  42.994  11.098
34895W        W 7963  22.597  10.657   3.407
34896W        W 7964  27.579  21.059   3.239
34897W        W 7965  15.820   0.706  12.036
34898W        W 7966  13.247   1.764   3.824
34899W        W 7967  25.267   8.362   1.854
34900W        W 7968  29.612  26.951   3.368
34901W        W 7969  33.854   7.196   0.742
34902W        W 7970  23.978   9.336  12.459
34903W        W 7971  30.141  17.078   2.794
34904W        W 7972  15.307  11.461  11.719
34905W        W 7973   9.567  22.522  13.571
34906W        W 7974  26.715  21.179   3.697
34907W        W 7975   6.032   5.812   3.227
34908W        W 7976   6.383  16.644  11.594
34909W        W 7977   2.762  19.073   1.211
34910W        W 7978   5.293  34.509  10.714
34911W        W 7979  42.282  39.315  13.391
34912W        W 7980  17.878  41.689  14.878
34913W        W 7981  32.468   4.221   3.704
34914W        W 7982   2.238  20.638  12.249
34915W        W 7983  17.060  20.081   1.884
34916W        W 7984  20.689  23.978   2.931
34917W        W 7985  40.679   4.909   3.298
34918W        W 7986   2.488   6.210  11.724
34919W        W 7987  21.052   0.412   0.080
34920W        W 7988  27.726  27.250  13.073
34921W        W 7989   3.566  28.479   0.760
34922W        W 7990  21.270   9.924   2.325
34923W        W 7991  33.588   4.972   3.128
34924W        W 7992  34.454   4.668   0.797
34925W        W 7993  38.947  12.945   4.820
34926W        W 7994   8.044  40.401   0.238
34927W        W 7995  13.287  16.979   4.077
34928W        W 7996  20.726  30.990  13.961
34929W        W 7997   2.717   2.723  14.695
34930W        W 7998  29.961   1.498  10.664
34931W        W 7999   1.539  32.624  10.750
34932W        W 8000  33.018  41.367  12.354
34933W        W 8001  10.964  15.028  12.487
34934W        W 8002  18.666   5.115   4.062
34935W        W 8003  17.247  22.960   2.348
34936W        W 8004   7.264  20.981   3.286
34937W        W 8005  17.713  15.181  11.530
34938W        W 8006  10.329  35.886   2.463
34939W        W 8007  34.523  17.739   0.187
34940W        W 8008  13.750  13.311   2.341
34941W        W 8009   3.350   1.394   1.869
34942W        W 8010  32.384  40.299  13.349
34943W        W 8011  13.060  14.675  13.773
34944W        W 8012  24.513  24.735  12.666
34945W        W 8013  13.213  19.286  11.553
34946W        W 8014   9.254  29.481  13.023
34947W        W 8015  32.379  22.701   3.242
34948W        W 8016  17.269  34.775  14.085
34949W        W 8017   7.910  12.385   1.905
34950W        W 8018  28.250  11.627   0.435
34951W        W 8019  31.369  34.331  12.523
34952W        W 8020  40.807  10.029  13.792
34953W        W 8021   5.635  35.790  11.025
34954W        W 8022   4.383   6.073  12.252
34955W        W 8023  31.089   5.475  10.628
34956W        W 8024  20.279  37.802  10.757
34957W        W 8025  44.771  43.829  12.886
34958W        W 8026   3.884  32.100   4.121
34959W        W 8027  31.946  10.927  14.864
34960W        W 8028  12.946  21.666   0.277
34961W        W 8029  28.493  27.585  10.546
34962W        W 8030   1.982  30.628   1.803
34963W        W 8031  15.675  31.412   1.850
34964W        W 8032  33.126  10.683   4.205
34965W        W 8033   8.723  17.526  13.831
34966W        W 8034  22.068  38.121  11.628
34967W        W 8035  30.919  29.493  12.410
34968W        W 8036  35.864   9.207  12.962
34969W        W 8037  26.909  10.846   4.564
34970W        W 8038  13.077  14.555   2.180
34971W        W 8039  27.086  12.647   4.298
34972W        W 8040  31.072  42.920   4.574
34973W        W 8041   6.406  34.761   4.220
34974W        W 8042  10.573  33.024   1.485
34975W        W 8043  42.977  31.691   4.142
34976W        W 8044  40.279  11.272  11.902
34977W        W 8045  20.450  35.898  14.994
34978W        W 8046  41.346  15.879   4.769
34979W        W 8047  20.030  38.099   1.980
34980W        W 8048   7.239  13.661  13.771
34981W        W 8049  28.246  29.858  14.377
34982W        W 8050  23.225  23.629   2.220
34983W        W 8051  31.637  44.263   0.416
34984W        W 8052   2.784  38.799  10.936
34985W        W 8053  40.484  41.565  14.482
34986W        W 8054  28.621  32.047  14.909
34987W        W 8055  22.013   6.167   0.454
34988W        W 8056   6.016   2.594  11.900
34989W        W 8057  24.291  25.945  14.001
34990W        W 8058  26.136   2.631   3.634
34991W        W 8059  27.878  42.334   4.196
34992W        W 8060  30.931  13.181   0.402
34993W        W 8061   9.862  36.287  11.440
34994W        W 8062  44.164   4.273  14.774
34995W        W 8063  35.755   8.115  13.909
34996W        W 8064  39.934  14.147   4.108
34997W        W 8065  16.335  24.583   2.673
34998W        W 8066   6.344   8.165   0.868
34999W        W 8067  24.431  20.742  12.412
35000W        W 8068  20.799   1.333  13.475
35001W        W 8069  11.959  24.622   1.578
35002W        W 8070   6.546   5.786   3.306
35003W        W 8071  35.577  29.753   2.119
35004W        W 8072  43.489  40.246  11.604
35005W        W 8073  20.959  32.088  12.097
35006W        W 8074   7.351   4.092   2.811
35007W        W 8075  20.417   9.222  12.341
35008W        W 8076  23.452  12.079   0.048
35009W        W 8077  31.000  29.996   3.408
35010W        W 8078  20.588  34.560  11.500
35011W        W 8079   6.626   5.872   0.008
35012W        W 8080  40.353  37.941   2.675
35013W        W 8081   7.278  20.224  13.606
35014W        W 8082  17.175  12.754  12.997
35015W        W 8083  21.532  39.197   3.557
35016W        W 8084  37.642  25.069  13.338
35017W        W 8085  40.010  27.430  13.156
35018W        W 8086  40.763  42.509   0.332
35019W        W 8087   9.612  30.147  10.591
35020W        W 8088  18.166   8.125   4.156
35021W        W 8089   3.377  24.714   3.194
35022W        W 8090  17.527  42.967   3.700
35023W        W 8091  42.080  19.721  10.679
35024W        W 8092  40.364  28.688  14.849
35025W        W 8093  20.508   8.692  12.203
35026W        W 8094  43.269  27.318  13.548
35027W        W 8095   1.714  30.377  11.703
35028W        W 8096   3.363  24.555  13.358
35029W        W 8097  42.582  35.568  12.439
35030W        W 8098  11.888   9.100  13.370
35031W        W 8099   9.634  34.426  13.376
35032W        W 8100  19.232  42.834   0.566
35033W        W 8101  12.852   3.178  13.856
35034W        W 8102  18.990  34.933  11.537
35035W        W 8103  35.299  38.409  12.146
35036W        W 8104  17.823  14.719   2.019
35037W        W 8105  42.018  11.895  13.857
35038W        W 8106  35.655   4.312  13.893
35039W        W 8107  35.837  44.461   2.040
35040W        W 8108  10.109  26.577   4.680
35041W        W 8109  29.218  33.475  10.492
35042W        W 8110  44.031   7.766  11.614
35043W        W 8111  25.001  28.891   3.200
35044W        W 8112  26.125  29.088  14.331
35045W        W 8113   9.357  19.262  14.756
35046W        W 8114  39.806  44.771  11.616
35047W        W 8115  34.760  16.816   4.393
35048W        W 8116   1.674  28.713  13.783
35049W        W 8117  17.272  35.960   4.680
35050W        W 8118  32.376   2.997   2.731
35051W        W 8119  22.483  32.841  14.436
35052W        W 8120  36.303  11.334  13.650
35053W        W 8121  39.905  20.210  10.957
35054W        W 8122   3.300   0.413   1.701
35055W        W 8123   4.220   2.859   3.804
35056W        W 8124  19.088  15.297  10.771
35057W        W 8125  29.959  26.576   2.330
35058W        W 8126  28.083   3.781  10.695
35059W        W 8127  12.775  34.469  14.390
35060W        W 8128   5.170  21.947   0.751
35061W        W 8129  32.470  14.149   2.197
35062W        W 8130  24.072  26.940  14.264
35063W        W 8131  25.730  34.645  10.502
35064W        W 8132  29.468  28.053  10.780
35065W        W 8133  36.043  39.186   1.288
35066W        W 8134  35.752  26.086   4.109
35067W        W 8135   2.150  12.105  11.580
35068W        W 8136  27.142  16.495  13.947
35069W        W 8137   9.573  32.637  13.950
35070W        W 8138  18.971  11.913  11.624
35071W        W 8139  42.455  32.085   0.460
35072W        W 8140   4.900  13.533  13.392
35073W        W 8141  15.273  43.556  11.912
35074W        W 8142  39.333  11.499   2.780
35075W        W 8143  13.526  37.632   1.719
35076W        W 8144  21.698  42.537   2.879
35077W        W 8145  23.039  39.845   0.327
35078W        W 8146   5.728  25.169   1.228
35079W        W 8147  16.748  36.099   3.612
35080W        W 8148  37.522  37.495   3.161
35081W        W 8149   3.363   1.968  13.536
35082W        W 8150  42.868   3.492   0.651
35083W        W 8151  16.172  10.322  10.721
35084W        W 8152   1.219   5.262   0.936
35085W        W 8153  30.131  34.910  11.691
35086W        W 8154  15.135   0.732  10.944
35087W        W 8155  31.706   5.340  10.610
35088W        W 8156  21.546  31.149   1.642
35089W        W 8157  35.078  22.575   4.522
35090W        W 8158  23.009  35.426  10.582
35091W        W 8159  41.332   3.366   2.746
35092W        W 8160   9.774  42.026  10.634
35093W        W 8161  44.526  11.658  13.880
35094W        W 8162  26.672  19.199  14.916
35095W        W 8163  36.299  10.237  14.867
35096W        W 8164  21.490  42.833  12.820
35097W        W 8165   7.146  17.209   1.906
35098W        W 8166   6.924   3.937   4.911
35099W        W 8167  20.558  12.390   1.937
35100W        W 8168  12.247  28.676   1.657
35101W        W 8169  33.341  20.099   2.052
35102W        W 8170  23.362   7.786   1.791
35103W        W 8171  27.518  36.239  12.040
35104W        W 8172  18.735   4.232  12.311
35105W        W 8173  22.060  40.153  13.946
35106W        W 8174  32.146  14.127  14.803
35107W        W 8175  18.229  19.830  12.035
35108W        W 8176  33.224  20.747  11.513
35109W        W 8177  42.028  31.372  12.054
35110W        W 8178  44.908  36.934  12.620
35111W        W 8179  44.133   5.591   3.691
35112W        W 8180  31.368  13.187   1.870
35113W        W 8181  41.866  21.790  14.363
35114W        W 8182   4.234   7.863  12.495
35115W        W 8183   8.290   8.767  10.686
35116W        W 8184  19.341  21.185  11.969
35117W        W 8185  32.038  43.473  12.637
35118W        W 8186  38.563  25.903  14.705
35119W        W 8187  36.137  43.391  14.355
35120W        W 8188  29.126  22.284  12.355
35121W        W 8189  38.152  42.541   0.463
35122W        W 8190  39.004  33.031  14.740
35123W        W 8191  26.047  16.607  11.230
35124W        W 8192  15.262   8.333  10.606
35125W        W 8193  19.783   6.815   0.384
35126W        W 8194   7.133  27.359   1.299
35127W        W 8195  22.576  36.582   2.320
35128W        W 8196  34.522  43.253  14.406
35129W        W 8197  37.770   2.501   3.315
35130W        W 8198  34.833  31.588   0.756
35131W        W 8199   5.456  15.237   0.533
35132W        W 8200  44.987   5.460   0.407
35133W        W 8201  19.419  36.018   1.794
35134W        W 8202  26.516  20.487   0.962
35135W        W 8203   2.863  17.753  10.984
35136W        W 8204  37.411  22.176   4.085
35137W        W 8205   4.251  29.740   3.997
35138W        W 8206  44.940  17.908  12.121
35139W        W 8207  16.110   6.715  14.565
35140W        W 8208  17.811   7.756  10.731
35141W        W 8209  27.640  28.801   2.624
35142W        W 8210  33.494  18.565   2.173
35143W        W 8211  35.429  23.500   1.366
35144W        W 8212  27.027  19.055   0.454
35145W        W 8213   2.765  44.997   0.848
35146W        W 8214  12.614  19.749   5.039
35147W        W 8215  23.638  20.687  13.527
35148W        W 8216  17.510  44.282   0.709
35149W        W 8217  17.567  11.574  12.434
35150W        W 8218  29.521  19.686  11.283
35151W        W 8219  22.626   7.420  12.079
35152W        W 8220   4.975  11.950   4.701
35153W        W 8221  27.661   9.119   4.676
35154W        W 8222  10.982  20.723   1.967
35155W        W 8223  21.001  43.526   3.328
35156W        W 8224  18.457  31.866  11.645
35157W        W 8225  18.357  37.474   1.712
35158W        W 8226  16.793  21.580   2.046
35159W        W 8227  22.596  34.528   1.229
35160W        W 8228  21.014  29.441   0.342
35161W        W 8229   1.738  20.999  12.893
35162W        W 8230  25.689  42.963   2.405
35163W        W 8231  30.382  16.534  14.932
35164W        W 8232   9.264  29.594  11.686
35165W        W 8233  32.191  24.654   4.626
35166W        W 8234  39.058  33.123   1.218
35167W        W 8235  29.099   0.872   4.147
35168W        W 8236  11.599   4.715  10.668
35169W        W 8237  32.122  42.976  13.047
35170W        W 8238   9.355  33.957  12.019
35171W        W 8239  33.939  23.419  14.835
35172W        W 8240   9.313   1.454   0.435
35173W        W 8241  31.194   7.136   1.401
35174W        W 8242  32.373   4.738   4.643
35175W        W 8243  37.817  18.992  13.936
35176W        W 8244   8.149  31.682  13.850
35177W        W 8245  15.681   9.242   3.646
35178W        W 8246   3.517   5.532  12.122
35179W        W 8247   1.644  10.386  12.649
35180W        W 8248  42.458  20.092   2.288
35181W        W 8249  36.630  14.381  11.469
35182W        W 8250  41.216   9.145  10.717
35183W        W 8251  39.773  21.115   4.146
35184W        W 8252   4.235   8.119   2.596
35185W        W 8253  20.791  15.283   2.777
35186W        W 8254  26.460  21.800   1.289
35187W        W 8255  35.202  30.066  10.506
35188W        W 8256  20.278   3.720  13.588
35189W        W 8257   4.550  14.653  13.491
35190W        W 8258  34.075  17.524   0.805
35191W        W 8259   1.806  26.037   0.526
35192W        W 8260  15.870  13.091  13.090
35193W        W 8261  28.699  33.467  12.344
35194W        W 8262  44.874   4.030  11.334
35195W        W 8263  23.124  25.952  11.647
35196W        W 8264   5.182  29.126  11.656
35197W        W 8265  18.250  33.823   0.439
35198W        W 8266   6.257   7.791  12.151
35199W        W 8267  26.657  40.944   2.199
35200W        W 8268   9.776  34.993  12.602
35201W        W 8269  11.798   2.735   0.488
35202W        W 8270  22.775  11.641   2.283
35203W        W 8271   5.888  39.558   1.371
35204W        W 8272   0.027  29.187   3.836
35205W        W 8273  28.260  24.405  12.962
35206W        W 8274   8.617  28.621  10.740
35207W        W 8275   1.930  30.937   2.230
35208W        W 8276  23.724   7.124   3.755
35209W        W 8277  34.575  24.312   4.231
35210W        W 8278   9.559  27.352  13.408
35211W        W 8279  35.616  17.168   1.014
35212W        W 8280  33.600  26.509   4.622
35213W        W 8281  28.671  28.704   0.892
35214W        W 8282  32.385  27.964  13.968
35215W        W 8283  29.936  11.165  12.144
35216W        W 8284  35.648  14.309   4.707
35217W        W 8285  23.182   7.689  14.585
35218W        W 8286  29.638  37.464   0.836
35219W        W 8287  33.109  30.285   1.434
35220W        W 8288   7.858   3.574  10.634
35221W        W 8289  41.837  32.587  11.533
35222W        W 8290  32.651   2.059  12.385
35223W        W 8291  11.771  12.726  10.666
35224W        W 8292  35.832  30.944   1.379
35225W        W 8293   3.906   9.696   4.581
35226W        W 8294  38.909  34.045  11.552
35227W        W 8295  21.282  43.426  10.114
35228W        W 8296  37.924  12.683   0.981
35229W        W 8297   0.431  11.475  13.892
35230W        W 8298  38.290  16.078  12.412
35231W        W 8299  40.432  27.440  11.874
35232W        W 8300  18.319  33.543   0.010
35233W        W 8301  29.846  39.711   0.056
35234W        W 8302  13.850  43.048   2.628
35235W        W 8303   8.798  26.623  13.362
35236W        W 8304   7.720  39.722  13.467
35237W        W 8305  35.943  35.517  14.790
35238W        W 8306  11.356  31.924   0.291
35239W        W 8307   9.666  18.676   0.379
35240W        W 8308   2.395  37.922   2.650
35241W        W 8309  15.846  19.136  14.751
35242W        W 8310   5.907   1.616  13.880
35243W        W 8311  18.340  15.651   2.730
35244W        W 8312  38.001  43.273  11.907
35245W        W 8313  32.926  14.242  11.565
35246W        W 8314  29.926  21.436   4.611
35247W        W 8315  19.167  12.335  11.431
35248W        W 8316  42.777  17.291  13.843
35249W        W 8317  20.775   3.474  12.072
35250W        W 8318  38.290  37.937   4.100
35251W        W 8319  38.809   6.226  12.298
35252W        W 8320   0.433  17.036   3.183
35253W        W 8321  26.386  38.793  10.775
35254W        W 8322  24.264  37.632   2.000
35255W        W 8323  26.977  14.624  13.926
35256W        W 8324  15.744   4.304  12.526
35257W        W 8325   5.428   9.770   4.451
35258W        W 8326  14.426  40.213   0.457
35259W        W 8327  43.717  21.575  13.320
35260W        W 8328  27.610  44.198   2.715
35261W        W 8329   2.571  38.097  13.566
35262W        W 8330  25.514  31.122  10.763
35263W        W 8331  40.520  36.671  11.672
35264W        W 8332  11.643   0.808   2.835
35265W        W 8333  22.414   2.411   3.231
35266W        W 8334  20.842   8.373  13.547
35267W        W 8335  17.882  17.790  11.511
35268W        W 8336  10.132  29.947  11.973
35269W        W 8337  13.926  20.672   2.012
35270W        W 8338  39.853   1.300   9.838
35271W        W 8339  19.672   0.916  14.426
35272W        W 8340  38.798  19.608   4.243
35273W        W 8341   5.498  26.499   1.838
35274W        W 8342   7.330  29.175  10.694
35275W        W 8343  25.526  29.508  12.708
35276W        W 8344  15.947  22.022  10.378
35277W        W 8345  33.567  27.584  11.862
35278W        W 8346  15.627  40.607  14.801
35279W        W 8347  34.037  11.488   3.238
35280W        W 8348  40.790  31.483   1.713
35281W        W 8349  16.605  27.430   3.336
35282W        W 8350  40.073  42.531   4.671
35283W        W 8351  21.249  14.877   0.122
35284W        W 8352   1.194  29.004   0.738
35285W        W 8353  23.525  33.337  12.429
35286W        W 8354  19.528  14.155  11.922
35287W        W 8355   1.893  23.030   4.617
35288W        W 8356   2.799  43.935  11.418
35289W        W 8357   8.401   3.298   1.276
35290W        W 8358   6.085  16.263  10.503
35291W        W 8359  26.204  18.748  12.562
35292W        W 8360   4.767  20.148  10.143
35293W        W 8361  17.118  31.393   4.000
35294W        W 8362   5.811  30.471   1.165
35295W        W 8363  21.725   9.112  11.163
35296W        W 8364  34.507  28.658  10.810
35297W        W 8365  23.708  26.470   0.424
35298W        W 8366  12.435  33.878   1.388
35299W        W 8367   2.074   1.961  11.110
35300W        W 8368  22.748   8.178   2.331
35301W        W 8369  28.948  25.473   2.429
35302W        W 8370   3.281   8.291  14.973
35303W        W 8371  36.284  15.789   2.713
35304W        W 8372  36.118  16.067   3.118
35305W        W 8373   4.828  33.218   2.195
35306W        W 8374  22.116  13.104  14.465
35307W        W 8375   4.444  40.859   0.743
35308W        W 8376  34.938   4.872  12.683
35309W        W 8377  14.623  40.662  13.412
35310W        W 8378   1.877  35.844  13.988
35311W        W 8379   8.363  18.690   4.518
35312W        W 8380  38.331   6.910   0.298
35313W        W 8381  44.734   6.707  10.431
35314W        W 8382   5.483  15.130   1.774
35315W        W 8383   0.713  15.808   5.265
35316W        W 8384  34.829  23.594  11.637
35317W        W 8385  15.201  13.716  12.579
35318W        W 8386  24.461   7.882  13.488
35319W        W 8387   9.850  19.978   0.379
35320W        W 8388   5.086   6.830   2.886
35321W        W 8389  20.143  28.533   3.205
35322W        W 8390  28.033  36.944  13.309
35323W        W 8391  36.985   1.362  14.338
35324W        W 8392  19.804  18.057   3.227
35325W        W 8393  22.325  22.740  11.158
35326W        W 8394  24.560   6.104   3.032
35327W        W 8395  15.999   3.768   2.654
35328W        W 8396  21.448  37.391   1.810
35329W        W 8397  14.064  40.282   1.409
35330W        W 8398  42.696   7.152  14.470
35331W        W 8399  43.370   4.271   1.718
35332W        W 8400  28.909  12.459   4.467
35333W        W 8401  31.185   7.613   0.645
35334W        W 8402  39.245  15.604  10.557
35335W        W 8403   2.642   5.196  11.033
35336W        W 8404  40.419  29.928   4.561
35337W        W 8405  30.470  33.527  13.018
35338W        W 8406  29.614  27.779  12.020
35339W        W 8407  21.158   6.816   3.153
35340W        W 8408   8.767  14.114   3.832
35341W        W 8409  42.833  26.194   2.207
35342W        W 8410  22.601  25.459  14.270
35343W        W 8411  16.927  11.914   5.127
35344W        W 8412   6.408   5.126   4.552
35345W        W 8413   9.336  24.939   0.287
35346W        W 8414   5.860  22.298  11.466
35347W        W 8415  42.439   5.953   0.927
35348W        W 8416  30.482   4.716   0.796
35349W        W 8417   6.608  25.753  11.170
35350W        W 8418  24.534   6.941  13.511
35351W        W 8419  36.368  37.400   5.150
35352W        W 8420   8.490  33.987   4.747
35353W        W 8421  19.761  25.732  12.488
35354W        W 8422   1.481   4.768   1.804
35355W        W 8423   7.357  20.279  11.200
35356W        W 8424   5.969  11.719   2.186
35357W        W 8425  37.502  32.521   0.477
35358W        W 8426   5.328   0.738  12.558
35359W        W 8427   9.575  30.869   3.997
35360W        W 8428   2.691  28.866  14.885
35361W        W 8429  19.453  10.868  13.588
35362W        W 8430  21.011   5.723   3.219
35363W        W 8431  16.763  37.365   3.076
35364W        W 8432  27.918  32.193   0.737
35365W        W 8433  24.216  22.524  11.979
35366W        W 8434  20.297  32.850   3.349
35367W        W 8435  28.477   6.615   2.228
35368W        W 8436   6.841  42.045   1.985
35369W        W 8437   9.844   5.148   3.635
35370W        W 8438  16.561  41.276   1.956
35371W        W 8439  27.874  40.280   0.963
35372W        W 8440  25.961  30.079  14.825
35373W        W 8441   0.170  19.498  11.577
35374W        W 8442  16.189  35.639  12.700
35375W        W 8443  32.609  18.264   2.583
35376W        W 8444  18.309  30.041   2.185
35377W        W 8445  31.223  40.865   0.043
35378W        W 8446   2.318  22.631  12.024
35379W        W 8447  20.784  10.824  13.800
35380W        W 8448  12.203   5.975   3.252
35381W        W 8449   1.041  17.326   2.205
35382W        W 8450  30.598  33.469   1.337
35383W        W 8451  32.608  13.900  14.988
35384W        W 8452  17.753   8.701  10.717
35385W        W 8453  19.065  14.309  13.783
35386W        W 8454  22.240   8.725  11.146
35387W        W 8455   7.329   4.321   4.600
35388W        W 8456  41.754  24.480   2.627
35389W        W 8457  37.717   9.465  14.880
35390W        W 8458  40.055  42.633   2.710
35391W        W 8459  14.646  13.741   3.315
35392W        W 8460   9.798   9.142   4.211
35393W        W 8461  14.194  28.663  12.272
35394W        W 8462  32.456  40.376  14.348
35395W        W 8463  12.302  13.000  13.367
35396W        W 8464  15.997  24.568  13.919
35397W        W 8465  14.911  32.843  11.929
35398W        W 8466  10.667  13.170   3.567
35399W        W 8467  24.942   4.768   0.939
35400W        W 8468   8.250  19.590  12.163
35401W        W 8469  12.349  27.507  13.320
35402W        W 8470  44.538  11.418   3.659
35403W        W 8471   0.292  14.709   3.313
35404W        W 8472  11.172  44.878  12.597
35405W        W 8473  30.042  16.330  11.242
35406W        W 8474  20.505  31.577  14.805
35407W        W 8475  18.393  17.574   0.745
35408W        W 8476  40.714  28.288  14.795
35409W        W 8477  15.858   5.363   2.227
35410W        W 8478  31.204  36.387  12.476
35411W        W 8479  44.170  25.567  13.463
35412W        W 8480  36.544  18.124  13.864
35413W        W 8481   9.245  39.271  13.601
35414W        W 8482  10.179  22.839  11.498
35415W        W 8483  22.176   3.976   1.771
35416W        W 8484  15.276  16.652   1.802
35417W        W 8485   6.439  14.456  13.478
35418W        W 8486  41.456   5.274  11.051
35419W        W 8487   4.392   3.359  12.869
35420W        W 8488  22.265   4.457  12.617
35421W        W 8489  22.308  11.314   1.330
35422W        W 8490   9.145  36.789   0.899
35423W        W 8491   9.735   8.645  10.524
35424W        W 8492  33.479   0.335  11.886
35425W        W 8493   4.809   6.918   4.271
35426W        W 8494  43.501  14.351  13.838
35427W        W 8495  18.454  43.762   2.338
35428W        W 8496  10.165  44.251  13.985
35429W        W 8497   8.677  27.436  10.783
35430W        W 8498  40.780  37.995   3.458
35431W        W 8499  12.218  25.578   4.081
35432W        W 8500  23.786  31.400  14.012
35433W        W 8501  39.335  34.660  11.047
35434W        W 8502  32.573  31.571  13.787
35435W        W 8503  40.316  22.483  11.987
35436W        W 8504  19.168  11.267   1.177
35437W        W 8505  25.107  36.708   2.058
35438W        W 8506  43.707   0.960  11.465
35439W        W 8507  21.769  30.027  11.582
35440W        W 8508  24.175   8.270   2.068
35441W        W 8509   6.207   5.081   2.091
35442W        W 8510   5.813  21.926   4.366
35443W        W 8511   2.354  19.313   3.464
35444W        W 8512  10.311  21.645  13.910
35445W        W 8513  14.838   1.143  14.900
35446W        W 8514  25.179  27.671   2.983
35447W        W 8515  22.680  42.786  14.113
35448W        W 8516   4.470  37.072  11.163
35449W        W 8517  12.066  11.253   0.931
35450W        W 8518  33.971  36.365   4.075
35451W        W 8519  36.862  29.561   2.825
35452W        W 8520  19.224   0.432  12.436
35453W        W 8521  44.965  21.558  10.686
35454W        W 8522  15.815  10.712  12.147
35455W        W 8523  38.506  12.289   2.156
35456W        W 8524  20.069  36.385  14.227
35457W        W 8525  16.962   7.427  13.864
35458W        W 8526  19.619  12.792   1.642
35459W        W 8527  34.389  21.200   4.977
35460W        W 8528  34.072  10.738  10.623
35461W        W 8529   5.947   7.883   2.837
35462W        W 8530  14.524  41.349   2.194
35463W        W 8531  20.835  42.318  13.027
35464W        W 8532  22.430  23.945   3.281
35465W        W 8533   2.467  43.581   4.524
35466W        W 8534  15.752   5.152   2.708
35467W        W 8535  33.492   6.913   3.688
35468W        W 8536  12.963  42.215  11.584
35469W        W 8537   2.028  39.751  11.642
35470W        W 8538  33.854  30.458   2.739
35471W        W 8539   8.285  11.470   3.239
35472W        W 8540  11.310  25.250  11.911
35473W        W 8541  39.133  19.816  11.940
35474W        W 8542  20.551  40.677   4.241
35475W        W 8543   0.722  28.546  13.505
35476W        W 8544  14.371  14.924   1.602
35477W        W 8545  18.242   9.248  12.439
35478W        W 8546  24.493  22.068   0.302
35479W        W 8547  41.447  29.121  11.663
35480W        W 8548   7.249  39.842   4.508
35481W        W 8549   8.376  31.499   2.020
35482W        W 8550   5.843  21.115   1.152
35483W        W 8551  34.447  16.702   3.173
35484W        W 8552  34.303  36.370   2.139
35485W        W 8553  21.780  20.999  13.807
35486W        W 8554  34.903  25.058   0.965
35487W        W 8555  24.240  40.937  13.853
35488W        W 8556  15.060  37.532  11.635
35489W        W 8557  44.518  37.392   3.320
35490W        W 8558  43.363  18.262   0.485
35491W        W 8559  39.856  33.069   4.605
35492W        W 8560  26.069  26.184   3.194
35493W        W 8561  29.624  18.532   1.800
35494W        W 8562  34.123  33.135   3.161
35495W        W 8563  13.070  26.456   3.300
35496W        W 8564  33.713  24.991   1.236
35497W        W 8565  38.938  25.776  11.116
35498W        W 8566  30.418   2.404  14.360
35499W        W 8567  44.241  39.811  14.481
35500W        W 8568   7.383  43.683   0.055
35501W        W 8569  39.501  40.817  13.359
35502W        W 8570  25.440  10.455   4.671
35503W        W 8571  36.651  27.439  13.322
35504W        W 8572   4.760  24.099  12.921
35505W        W 8573  18.819  14.131   3.709
35506W        W 8574  36.750  26.084  13.540
35507W        W 8575  18.994  43.430   3.204
35508W        W 8576  30.639  26.998  13.732
35509W        W 8577   1.867  26.895  11.697
35510W        W 8578   8.783  38.502  12.830
35511W        W 8579  22.733  37.261   0.289
35512W        W 8580  36.378  26.987  13.631
35513W        W 8581  11.766   5.678  13.854
35514W        W 8582   0.988  39.903   3.628
35515W        W 8583   7.674  23.316   4.747
35516W        W 8584  19.734  11.904   3.724
35517W        W 8585  13.852  41.467  12.571
35518W        W 8586  29.967  33.593  12.940
35519W        W 8587  11.338  33.365   2.966
35520W        W 8588  37.324   6.449   4.249
35521W        W 8589  40.625  17.507  14.296
35522W        W 8590   2.687  16.086   1.501
35523W        W 8591  21.602   6.578   3.448
35524W        W 8592  36.656   6.215   2.219
35525W        W 8593  10.201  19.511   1.364
35526W        W 8594  10.805  41.772   3.305
35527W        W 8595  27.059  21.828  11.225
35528W        W 8596  27.226  10.176   0.865
35529W        W 8597   8.004   2.864  11.228
35530W        W 8598  35.639  26.435  14.972
35531W        W 8599  42.572  24.519  13.262
35532W        W 8600  42.847  29.248   2.465
35533W        W 8601   6.938  15.609   0.202
35534W        W 8602   9.866  19.321   5.696
35535W        W 8603  11.754   8.699   3.829
35536W        W 8604   4.428   9.212  12.201
35537W        W 8605  44.272   0.157  11.145
35538W        W 8606  36.947  36.233   4.986
35539W        W 8607   7.547  34.157  11.404
35540W        W 8608  12.049  25.155   1.644
35541W        W 8609   0.303  29.423   2.652
35542W        W 8610  35.445  21.739  11.981
35543W        W 8611  41.614  24.964   2.768
35544W        W 8612  31.874  41.159   3.134
35545W        W 8613  12.529  14.960   3.339
35546W        W 8614   2.490   6.831   0.817
35547W        W 8615   1.388   7.291   4.351
35548W        W 8616  27.186  21.509  13.506
35549W        W 8617  12.912  17.913  14.758
35550W        W 8618   6.372  22.237   0.233
35551W        W 8619  39.514  41.881   4.501
35552W        W 8620  18.439  28.711  14.900
35553W        W 8621   6.803  25.957   2.185
35554W        W 8622  15.164   2.450   0.315
35555W        W 8623  15.802  42.190  13.822
35556W        W 8624  38.119  22.132   4.337
35557W        W 8625  39.483  40.384   4.401
35558W        W 8626  14.813  43.913  11.030
35559W        W 8627  38.660  25.460   3.041
35560W        W 8628  28.676  23.920   1.676
35561W        W 8629  15.034  25.126   4.651
35562W        W 8630   2.410  39.456   2.256
35563W        W 8631   5.412   3.404  13.040
35564W        W 8632  15.529  19.089   4.210
35565W        W 8633  37.837  38.162  10.812
35566W        W 8634  36.436  28.479   3.156
35567W        W 8635   4.225  38.056  14.986
35568W        W 8636   6.103  31.965  11.132
35569W        W 8637  20.416  43.451   2.693
35570W        W 8638  27.514  34.386   3.077
35571W        W 8639  38.015  42.224  13.041
35572W        W 8640  27.888  31.671  11.360
35573W        W 8641  35.555  19.542  10.565
35574W        W 8642  10.759   5.457   2.370
35575W        W 8643  23.463  33.941   0.624
35576W        W 8644  44.285  40.878  10.927
35577W        W 8645  28.951  39.554   2.392
35578W        W 8646   6.922  29.937   4.241
35579W        W 8647  43.312  27.784  13.367
35580W        W 8648  38.286   4.262  12.525
35581W        W 8649   5.268  39.315   0.212
35582W        W 8650  16.968  40.930   1.203
35583W        W 8651  35.401  21.656  14.325
35584W        W 8652  11.250   5.837   0.233
35585W        W 8653  30.637  13.715   0.261
35586W        W 8654   7.893  16.257  13.565
35587W        W 8655  34.144  43.212  11.646
35588W        W 8656   0.721  42.790  11.338
35589W        W 8657  11.191  25.629   2.712
35590W        W 8658  17.548   6.969  12.978
35591W        W 8659  26.117  33.116   1.807
35592W        W 8660  33.628  22.580  11.059
35593W        W 8661  23.215  24.168  11.233
35594W        W 8662  10.348  37.174   1.275
35595W        W 8663  38.997   3.899  10.994
35596W        W 8664  41.284  39.492  11.491
35597W        W 8665  26.821  11.244   2.807
35598W        W 8666  31.316   4.542  14.691
35599W        W 8667  11.715  21.860  14.758
35600W        W 8668  31.837  30.144   2.751
35601W        W 8669  37.290   6.193  10.583
35602W        W 8670  29.970  35.079   1.696
35603W        W 8671  36.529  42.995  12.906
35604W        W 8672  43.280  18.611  10.937
35605W        W 8673   3.355  21.565  14.095
35606W        W 8674   2.074  27.735  12.174
35607W        W 8675   4.364   4.353  13.447
35608W        W 8676  32.843  23.172   2.593
35609W        W 8677  19.461  12.004  12.542
35610W        W 8678  40.075  27.953  13.047
35611W        W 8679   2.919  41.382   3.523
35612W        W 8680  11.791  42.538  14.797
35613W        W 8681  27.182  39.445  10.758
35614W        W 8682  33.444   3.055  11.030
35615W        W 8683  44.003  19.535  10.785
35616W        W 8684   7.321  36.479  10.663
35617W        W 8685  39.793  22.467   0.731
35618W        W 8686   5.343  15.821   2.838
35619W        W 8687   7.291  22.630  14.374
35620W        W 8688  28.879  30.118   1.259
35621W        W 8689  41.310  38.483   0.721
35622W        W 8690  16.043   3.257  13.970
35623W        W 8691  18.245  21.545   1.369
35624W        W 8692  38.242  42.395  12.578
35625W        W 8693  40.787   5.996   4.685
35626W        W 8694  40.950  31.431   3.757
35627W        W 8695  39.442  14.038   1.649
35628W        W 8696  11.346  24.211  11.990
35629W        W 8697  20.309   0.903  12.096
35630W        W 8698  36.792  19.517   2.076
35631W        W 8699  13.800  32.157   1.430
35632W        W 8700  21.014  37.831  11.512
35633W        W 8701  27.476  22.283   0.315
35634W        W 8702  17.310  26.169   3.121
35635W        W 8703  29.120  19.752   1.817
35636W        W 8704  21.585   3.679   3.160
35637W        W 8705  40.428  30.022  14.708
35638W        W 8706  29.001  27.681  12.487
35639W        W 8707  31.621  19.743  11.245
35640W        W 8708  24.983  15.827  12.434
35641W        W 8709   8.700  35.253   3.156
35642W        W 8710  34.418  24.830   4.704
35643W        W 8711  25.085  22.414  14.018
35644W        W 8712  11.826  13.420   1.712
35645W        W 8713  43.001   6.230  10.699
35646W        W 8714  25.140  22.948  12.139
35647W        W 8715   0.419  29.944   1.402
35648W        W 8716  20.669  20.489   2.714
35649W        W 8717  14.666  14.493   4.654
35650W        W 8718  29.044  38.807   0.299
35651W        W 8719   3.907  41.507   1.822
35652W        W 8720  29.360   7.292  13.046
35653W        W 8721  27.085   1.847  12.768
35654W        W 8722  23.899  41.388  11.715
35655W        W 8723  32.905   3.708  14.588
35656W        W 8724  16.199  24.823   0.320
35657W        W 8725  18.818   2.865  14.749
35658W        W 8726  32.133  12.152  14.316
35659W        W 8727  23.719   9.258   0.516
35660W        W 8728  14.759  18.794  14.386
35661W        W 8729  29.939  28.457   2.514
35662W        W 8730  27.553   9.122  13.198
35663W        W 8731  32.414  30.298   3.133
35664W        W 8732  19.510  28.514  11.181
35665W        W 8733   3.020   6.360   3.262
35666W        W 8734  40.462  27.563   0.794
35667W        W 8735  27.962  29.337  13.839
35668W        W 8736   3.236  13.033  14.837
35669W        W 8737  22.910  36.544  10.788
35670W        W 8738  17.569  25.475  11.495
35671W        W 8739  32.599  30.144   1.339
35672W        W 8740  27.417  41.955   0.340
35673W        W 8741  17.166  32.520   2.193
35674W        W 8742  18.159  23.463   4.143
35675W        W 8743  44.842   0.992  14.061
35676W        W 8744  13.890  27.972  11.950
35677W        W 8745   8.814  34.203  11.143
35678W        W 8746  20.252  38.573   2.681
35679W        W 8747  20.133   1.655   1.299
35680W        W 8748  29.591  15.209   4.134
35681W        W 8749  10.706  25.172   2.736
35682W        W 8750   7.476  23.661   3.066
35683W        W 8751  27.398  43.329  12.172
35684W        W 8752  36.911  33.431  14.951
35685W        W 8753  37.438  20.758   2.834
35686W        W 8754  31.415  30.552   2.932
35687W        W 8755  18.249  15.173   4.370
35688W        W 8756  32.579  36.460   0.834
35689W        W 8757   5.430  33.836   0.273
35690W        W 8758   1.819   1.711  14.858
35691W        W 8759   6.412  40.195  10.664
35692W        W 8760  25.188  37.289   0.342
35693W        W 8761  36.167  13.680  13.857
35694W        W 8762  11.822   8.883  14.333
35695W        W 8763  20.527   7.207   3.751
35696W        W 8764  33.460   1.204   0.812
35697W        W 8765  24.245  40.465  10.233
35698W        W 8766  25.597  36.393   1.196
35699W        W 8767   4.802  18.821  13.808
35700W        W 8768   2.460  23.503   0.262
35701W        W 8769  27.625  30.826  12.433
35702W        W 8770   3.902  15.796  11.035
35703W        W 8771  22.162  19.085  10.188
35704W        W 8772   3.217   6.785   2.152
35705W        W 8773  23.771   2.997   0.843
35706W        W 8774   2.342   7.390   2.041
35707W        W 8775  18.071  29.460  13.058
35708W        W 8776  11.222  29.931   0.894
35709W        W 8777  11.392  41.905  14.428
35710W        W 8778  23.036  26.129  13.572
35711W        W 8779  36.344  29.898   4.085
35712W        W 8780  21.741   3.412   3.784
35713W        W 8781  15.471  40.295   5.040
35714W        W 8782   1.001  43.025  14.283
35715W        W 8783   2.257  30.495   3.713
35716W        W 8784   3.777  44.312  14.620
35717W        W 8785  30.405  33.126  13.863
35718W        W 8786  28.984  36.908  13.441
35719W        W 8787  14.126  23.500  14.505
35720W        W 8788   9.262   5.270   4.743
35721W        W 8789   4.339  24.510  14.977
35722W        W 8790  27.737  30.166  11.591
35723W        W 8791  34.928  27.025  14.029
35724W        W 8792   0.186   5.894  11.237
35725W        W 8793   5.162   4.128   1.169
35726W        W 8794   0.419   3.466  12.885
35727W        W 8795  38.698  14.180  12.028
35728W        W 8796  43.951  38.644  13.529
35729W        W 8797  16.394  41.993  13.709
35730W        W 8798  21.205  18.467  13.697
35731W        W 8799   0.373   8.489  13.006
35732W        W 8800  26.306  40.063   2.343
35733W        W 8801  40.651  22.942  10.428
35734W        W 8802  14.262  33.637  14.729
35735W        W 8803  19.887  34.371  14.906
35736W        W 8804  39.643  14.737  10.688
35737W        W 8805   3.177  44.833   2.372
35738W        W 8806   8.848  33.761  13.439
35739W        W 8807   0.720  12.622   2.862
35740W        W 8808  33.961   1.391   3.141
35741W        W 8809  39.022   5.971  11.896
35742W        W 8810  34.486  28.651   2.704
35743W        W 8811  33.564  35.662  14.856
35744W        W 8812  32.636  43.520   1.061
35745W        W 8813  31.784  42.885  11.666
35746W        W 8814  42.717  37.095  11.404
35747W        W 8815   0.891  41.003   2.721
35748W        W 8816  40.110  30.485  13.412
35749W        W 8817  34.869   0.727   1.880
35750W        W 8818  22.336   7.315   4.605
35751W        W 8819  22.980  32.049   2.118
35752W        W 8820   6.270  17.572  14.384
35753W        W 8821   8.143   8.717  13.009
35754W        W 8822  19.638  13.023   0.757
35755W        W 8823  17.574   0.243   1.885
35756W        W 8824  40.591  31.565   1.229
35757W        W 8825  11.474  40.158   2.662
35758W        W 8826  20.181  32.070   3.812
35759W        W 8827  16.386  25.639   3.230
35760W        W 8828   1.733  31.520   2.577
35761W        W 8829  25.841  24.214   3.747
35762W        W 8830  37.894  28.108  12.427
35763W        W 8831  33.168  21.289   2.244
35764W        W 8832  36.678  22.658   2.136
35765W        W 8833  14.093   0.412  12.510
35766W        W 8834  24.554   9.460   3.360
35767W        W 8835  32.004  11.655  14.390
35768W        W 8836  38.492  43.964   2.099
35769W        W 8837  39.528  21.189  14.263
35770W        W 8838  25.091  11.819  11.886
35771W        W 8839  12.256  14.968  12.378
35772W        W 8840  31.714  32.660  11.955
35773W        W 8841  13.281   3.260   3.313
35774W        W 8842  29.459  38.275  14.097
35775W        W 8843  38.692   1.348   1.715
35776W        W 8844  11.352   8.189   4.069
35777W        W 8845   3.636  25.287  12.904
35778W        W 8846  44.757  17.429  12.217
35779W        W 8847  18.908  43.733  13.899
35780W        W 8848  15.269  40.745   1.883
35781W        W 8849   9.208  19.540   2.165
35782W        W 8850  17.632  10.285  10.271
35783W        W 8851   5.669  28.638   4.378
35784W        W 8852  29.330  21.610   1.281
35785W        W 8853   8.811  26.390  12.066
35786W        W 8854  11.901  16.606  10.224
35787W        W 8855  40.336  31.830   4.303
35788W        W 8856   3.161  27.221  13.029
35789W        W 8857   7.381   2.222   2.175
35790W        W 8858   5.213   0.432   0.217
35791W        W 8859  25.656  26.715   1.316
35792W        W 8860   8.095  23.329   5.063
35793W        W 8861  28.085  15.282  11.996
35794W        W 8862  41.335  31.150   4.023
35795W        W 8863  40.898  25.775   2.119
35796W        W 8864  28.183   7.878  13.824
35797W        W 8865  32.116  24.247  10.722
35798W        W 8866   8.244  29.586  12.770
35799W        W 8867   4.340  29.641  12.205
35800W        W 8868  21.751  14.332  12.258
35801W        W 8869   1.413  32.625  13.818
35802W        W 8870  16.604  33.555  10.538
35803W        W 8871  34.990   5.484  11.024
35804W        W 8872  35.340   8.866  12.475
35805W        W 8873  10.845  26.712  10.584
35806W        W 8874  30.600  17.291   2.629
35807W        W 8875  25.042   4.877   0.445
35808W        W 8876   3.213  18.305  12.010
35809W        W 8877  12.425  23.452   0.922
35810W        W 8878   5.487  33.401  13.750
35811W        W 8879  28.206  32.527  10.500
35812W        W 8880   9.800   4.336  12.948
35813W        W 8881  33.616  29.579   0.746
35814W        W 8882  38.923   6.748   0.449
35815W        W 8883  12.860  41.906  12.351
35816W        W 8884   0.712  21.694  14.792
35817W        W 8885  24.796  27.466  11.427
35818W        W 8886  22.487   7.237  13.981
35819W        W 8887  25.765   8.712  14.926
35820W        W 8888  23.933  21.079  10.821
35821W        W 8889   4.910  30.473   5.115
35822W        W 8890  32.446  16.373  10.674
35823W        W 8891  15.524  27.605  12.412
35824W        W 8892   3.353  34.559   2.399
35825W        W 8893  23.980  10.205   2.208
35826W        W 8894   1.785  31.573  14.516
35827W        W 8895  25.040  26.680   3.174
35828W        W 8896  12.139   9.338   4.555
35829W        W 8897   1.269  16.744  13.472
35830W        W 8898   9.111  37.078  12.561
35831W        W 8899  10.651  38.776   4.373
35832W        W 8900  39.250  19.751  12.748
35833W        W 8901   2.226  44.469  14.315
35834W        W 8902  18.443  10.647  13.553
35835W        W 8903   3.267  20.662  12.220
35836W        W 8904   4.757  11.117   2.311
35837W        W 8905   9.415  37.275   5.043
35838W        W 8906  43.428  35.540  14.713
35839W        W 8907  31.211  28.374  11.767
35840W        W 8908  34.384  10.720   4.820
35841W        W 8909  32.258  23.527   3.625
35842W        W 8910   1.503  34.553   3.964
35843W        W 8911   1.924  38.120   0.266
35844W        W 8912  32.721   1.393   3.412
35845W        W 8913  11.375  15.615   4.638
35846W        W 8914  11.217  44.727  13.115
35847W        W 8915  20.573  23.681   4.204
35848W        W 8916  44.545  24.145  11.593
35849W        W 8917  31.680  21.094  10.774
35850W        W 8918  26.025  41.344   1.222
35851W        W 8919  25.485  19.600  14.587
35852W        W 8920   8.187  43.823   4.236
35853W        W 8921  29.125  20.520   2.502
35854W        W 8922  42.048  44.942   4.660
35855W        W 8923  25.713   8.403   0.329
35856W        W 8924  11.144   9.900   2.154
35857W        W 8925   6.431  35.697  14.307
35858W        W 8926   1.391  26.047  13.888
35859W        W 8927  16.723   0.128  13.501
35860W        W 8928  26.491  28.235  10.872
35861W        W 8929  11.724  26.100   1.315
35862W        W 8930  31.568  44.796   0.314
35863W        W 8931   1.716  44.550  14.380
35864W        W 8932  14.566  40.483   4.571
35865W        W 8933   7.947  14.557   0.457
35866W        W 8934  37.740  40.329   2.322
35867W        W 8935   4.997  10.786  10.859
35868W        W 8936  17.250   3.707  13.456
35869W        W 8937  32.720  35.231   4.090
35870W        W 8938  39.317   5.736  13.519
35871W        W 8939  37.095  23.237   0.256
35872W        W 8940  17.802  31.017  14.966
35873W        W 8941  37.853  38.213   2.405
35874W        W 8942  33.351  40.539   2.729
35875W        W 8943  30.613  19.678   4.165
35876W        W 8944  40.315  22.536  11.140
35877W        W 8945  11.226   9.856  13.899
35878W        W 8946  35.979  32.804   0.846
35879W        W 8947  20.722  44.903   2.232
35880W        W 8948  16.019  32.907   2.837
35881W        W 8949  29.973   1.369  12.028
35882W        W 8950  15.919   5.321   0.504
35883W        W 8951   1.562   9.685   0.485
35884W        W 8952   0.853  26.789   4.425
35885W        W 8953  13.597   8.652  13.648
35886W        W 8954   2.754  34.134  11.405
35887W        W 8955  24.220  31.049  12.646
35888W        W 8956  22.966  22.290  12.548
35889W        W 8957  13.188  18.284   1.988
35890W        W 8958  14.872  15.068  11.622
35891W        W 8959  28.413  38.817   5.056
35892W        W 8960  36.000  22.667   1.257
35893W        W 8961  40.873  19.134  12.193
35894W        W 8962  18.671  44.225   4.921
35895W        W 8963  33.066  30.219  13.512
35896W        W 8964   5.680  18.965  10.804
35897W        W 8965  31.607  44.532  11.990
35898W        W 8966   1.343  11.821   1.916
35899W        W 8967  39.704  42.260   3.532
35900W        W 8968  13.799  12.226  10.935
35901W        W 8969  30.623  38.411   1.520
35902W        W 8970  24.950  25.618  12.488
35903W        W 8971  43.501  27.793   1.748
35904W        W 8972  13.868  24.104   2.357
35905W        W 8973   8.745  36.411  13.080
35906W        W 8974  23.973  13.616   0.754
35907W        W 8975   1.724  24.139   1.429
35908W        W 8976  43.817   4.949   0.315
35909W        W 8977  27.260  28.758   3.223
35910W        W 8978  38.938   2.457  10.672
35911W        W 8979  44.344  27.198   3.858
35912W        W 8980  44.539  38.308   1.229
35913W        W 8981  39.839  37.829  10.675
35914W        W 8982  20.705  30.057  13.687
35915W        W 8983  35.455   1.185  10.784
35916W        W 8984   5.856  36.124   2.227
35917W        W 8985  28.579  33.399  13.317
35918W        W 8986  44.293  23.434   4.335
35919W        W 8987  11.420  30.582   4.280
35920W        W 8988  19.173  23.718  14.521
35921W        W 8989   4.988  30.117   3.848
35922W        W 8990  42.978   4.064   2.003
35923W        W 8991   8.881  41.882   2.008
35924W        W 8992  32.126   2.345  14.449
35925W        W 8993   7.385   4.880   1.878
35926W        W 8994  26.326  13.764  12.349
35927W        W 8995  29.298  19.636  14.814
35928W        W 8996  26.624  12.241   4.231
35929W        W 8997  38.921  24.537   4.243
35930W        W 8998  10.140  42.527   0.433
35931W        W 8999  24.017  20.737   1.848
35932W        W 9000  43.379  31.024  10.881
35933W        W 9001   0.437  17.606  10.810
35934W        W 9002  22.994  26.140  12.113
35935W        W 9003   8.107  39.979  12.055
35936W        W 9004  12.829  17.404   4.559
35937W        W 9005  36.670  30.417  11.465
35938W        W 9006  43.379  23.688   0.317
35939W        W 9007  18.257  11.624   0.997
35940W        W 9008  29.567   7.568  10.256
35941W        W 9009  44.068  16.228  14.225
35942W        W 9010  15.182  37.462  14.555
35943W        W 9011  25.638  41.838  12.809
35944W        W 9012  18.992   2.954   4.580
35945W        W 9013  31.002  12.102  11.129
35946W        W 9014  22.357   7.819  14.498
35947W        W 9015   9.475  40.447  14.803
35948W        W 9016  42.879   0.263   4.121
35949W        W 9017  18.189  35.249  14.879
35950W        W 9018  14.649   0.248  14.308
35951W        W 9019   7.103   1.019  14.826
35952W        W 9020  21.346   0.413   3.354
35953W        W 9021  35.656  40.781  11.219
35954W        W 9022  30.187  18.326   0.624
35955W        W 9023  12.872  34.353  11.187
35956W        W 9024  11.279  28.423   3.255
35957W        W 9025  37.860  40.218  13.783
35958W        W 9026  44.371   2.794   3.190
35959W        W 9027  18.348  41.541   0.959
35960W        W 9028  15.541  41.339  13.689
35961W        W 9029   0.217  31.079   0.735
35962W        W 9030  37.875  32.883  12.070
35963W        W 9031  17.571  28.559   1.261
35964W        W 9032  25.384  44.568  13.972
35965W        W 9033  11.614  37.404   1.782
35966W        W 9034  31.694  10.827   0.437
35967W        W 9035  11.269  32.782   4.656
35968W        W 9036   2.224  14.577  12.942
35969W        W 9037   0.323   7.507   1.354
35970W        W 9038  35.384  39.887  11.683
35971W        W 9039   6.670  30.617   0.777
35972W        W 9040  13.094  13.313   2.819
35973W        W 9041  22.246   1.040   1.968
35974W        W 9042  43.011  39.826  13.391
35975W        W 9043  42.391   8.638   1.280
35976W        W 9044  16.228  18.315   4.605
35977W        W 9045  11.713  35.436  13.471
35978W        W 9046   7.411   3.864  10.668
35979W        W 9047   0.240  28.439  14.892
35980W        W 9048  33.520   8.081   2.183
35981W        W 9049   8.300   0.688   4.817
35982W        W 9050  40.294   9.604  13.840
35983W        W 9051  10.750  39.511   0.455
35984W        W 9052   3.761  23.089   1.591
35985W        W 9053   5.167   6.720   3.891
35986W        W 9054  33.412  25.087   1.662
35987W        W 9055  27.939  41.381   0.852
35988W        W 9056  39.577  22.447  10.653
35989W        W 9057  30.283  43.064  14.086
35990W        W 9058  44.695   2.927   3.567
35991W        W 9059  37.864   4.957  14.153
35992W        W 9060  32.987  32.501   0.909
35993W        W 9061  35.464  34.012  12.469
35994W        W 9062  23.663  27.044  12.083
35995W        W 9063  19.146  35.251  11.163
35996W        W 9064  39.437  39.319   2.405
35997W        W 9065  32.421  17.360   2.689
35998W        W 9066   4.508  36.056  11.504
35999W        W 9067  44.279  10.587   2.874
36000W        W 9068  41.036  30.193  11.581
36001W        W 9069  23.050  35.364   0.510
36002W        W 9070  30.004  10.405  11.171
36003W        W 9071  29.657  13.098   4.230
36004W        W 9072   4.836  13.403   4.602
36005W        W 9073   1.889  44.243  12.422
36006W        W 9074  25.989  33.791   1.255
36007W        W 9075  43.881  29.147  12.601
36008W        W 9076  36.495   8.637  13.531
36009W        W 9077  11.040  14.500  11.087
36010W        W 9078   9.243  18.397   0.373
36011W        W 9079   6.233  16.149  12.096
36012W        W 9080  19.207   7.667   0.321
36013W        W 9081  29.667  35.144   4.165
36014W        W 9082   8.290  18.786  11.089
36015W        W 9083  31.295  33.335  12.038
36016W        W 9084  27.976  39.061   3.750
36017W        W 9085  20.970  23.456   3.126
36018W        W 9086  43.939  27.622   1.930
36019W        W 9087  39.281  36.452   4.558
36020W        W 9088  14.244  19.150  12.552
36021W        W 9089   2.863  43.447  12.566
36022W        W 9090  22.248   9.380  12.950
36023W        W 9091  39.485  29.071  14.868
36024W        W 9092   9.309  15.556  14.403
36025W        W 9093  18.764  43.272  12.987
36026W        W 9094  19.616   6.761  11.954
36027W        W 9095  31.776  39.823   4.141
36028W        W 9096   0.509  36.433   4.557
36029W        W 9097  36.650   0.010  13.297
36030W        W 9098   1.504  39.842   4.769
36031W        W 9099  43.012  41.610   2.315
36032W        W 9100  18.561   8.732  11.865
36033W        W 9101  16.008  36.120  12.072
36034W        W 9102  28.872  16.061   3.701
36035W        W 9103  43.721  23.564  13.866
36036W        W 9104  25.999   8.939  13.475
36037W        W 9105  35.028  35.885   1.748
36038W        W 9106   3.843  11.637   3.262
36039W        W 9107   6.355  19.957  12.512
36040W        W 9108   0.235  42.974  14.728
36041W        W 9109  18.059  17.030   2.753
36042W        W 9110  28.338  18.404   0.617
36043W        W 9111  20.228   2.420  12.967
36044W        W 9112   3.737  21.141   2.179
36045W        W 9113  26.167  12.571  11.641
36046W        W 9114  22.192  41.300  13.003
36047W        W 9115   5.344  26.323   0.888
36048W        W 9116  25.047   8.285   3.713
36049W        W 9117  29.575  14.493  14.079
36050W        W 9118  19.699   5.411  13.740
36051W        W 9119  24.947   7.907  11.172
36052W        W 9120  31.145  31.516   2.539
36053W        W 9121  15.520  33.658  14.435
36054W        W 9122   3.711  11.170   1.400
36055W        W 9123  42.820  25.405  14.955
36056W        W 9124  10.172  34.122   2.400
36057W        W 9125   3.760  19.067  12.813
36058W        W 9126   9.210  35.066   0.022
36059W        W 9127   0.404   1.827   3.843
36060W        W 9128   3.506  20.026   3.746
36061W        W 9129  41.233  21.131   2.873
36062W        W 9130  21.343  32.844  13.951
36063W        W 9131  41.763  14.648   3.698
36064W        W 9132  41.311  27.698  11.388
36065W        W 9133  42.828   1.067   2.699
36066W        W 9134  42.443   0.379   1.561
36067W        W 9135  24.149  34.379   2.728
36068W        W 9136  23.668  40.470   2.185
36069W        W 9137  36.140  14.672  10.431
36070W        W 9138  21.832  17.783   4.299
36071W        W 9139  35.392  20.704   2.450
36072W        W 9140  39.943  33.347   3.624
36073W        W 9141  13.829   3.315   2.288
36074W        W 9142  18.042  11.834  10.656
36075W        W 9143  29.195  31.602   4.767
36076W        W 9144   2.779  41.308   1.658
36077W        W 9145  33.060  32.521   4.877
36078W        W 9146  24.130  14.869  10.747
36079W        W 9147  40.975  14.874  13.817
36080W        W 9148  13.281  30.156  13.631
36081W        W 9149  29.158  28.181   0.060
36082W        W 9150   8.766  29.234   2.341
36083W        W 9151  15.647  32.088   2.081
36084W        W 9152  23.730   0.908  10.570
36085W        W 9153  28.961  12.266  12.961
36086W        W 9154  36.434  44.850   4.880
36087W        W 9155  29.497  44.016  10.668
36088W        W 9156  40.993  34.294   2.395
36089W        W 9157  43.316  39.881  14.267
36090W        W 9158  25.552  38.630   2.773
36091W        W 9159  36.348  36.206  13.700
36092W        W 9160  13.432   5.291  10.976
36093W        W 9161  17.145  32.436   1.682
36094W        W 9162  40.610  19.211   1.718
36095W        W 9163  31.032  20.707  13.935
36096W        W 9164  18.321  27.704   1.208
36097W        W 9165  39.635  13.012  14.409
36098W        W 9166  17.221  13.142   1.361
36099W        W 9167  30.550  31.677  14.997
36100W        W 9168   0.043  15.125   1.415
36101W        W 9169   5.884  40.135   4.006
36102W        W 9170   7.932  28.903   0.433
36103W        W 9171  31.402  18.835   1.341
36104W        W 9172  40.965  37.463   0.990
36105W        W 9173  43.468  37.928   1.226
36106W        W 9174  26.055  28.119   2.843
36107W        W 9175  10.770  17.117   4.232
36108W        W 9176   6.318  36.317  12.505
36109W        W 9177   5.116  43.000   9.858
36110W        W 9178  30.048   1.654  14.057
36111W        W 9179  18.456  39.110  12.516
36112W        W 9180  20.007  39.704  13.029
36113W        W 9181   1.463  20.252  13.455
36114W        W 9182   5.354  32.841  11.512
36115W        W 9183  11.416  28.167  14.054
36116W        W 9184   6.387  12.187  13.088
36117W        W 9185  18.071  23.963  13.813
36118W        W 9186   9.044   5.127   0.359
36119W        W 9187  38.131  44.936   4.571
36120W        W 9188  42.502  19.739   0.536
36121W        W 9189   8.443  43.379   4.329
36122W        W 9190   5.331  20.486   2.125
36123W        W 9191  27.954  23.078  12.425
36124W        W 9192  11.891  21.522   2.397
36125W        W 9193   5.706  38.002   0.388
36126W        W 9194   8.463  27.377  14.533
36127W        W 9195  25.726  19.805  11.573
36128W        W 9196  31.198   2.618   3.160
36129W        W 9197   8.336  29.106  13.077
36130W        W 9198  28.640  32.626  12.279
36131W        W 9199  34.000  13.761  12.344
36132W        W 9200  15.828  10.618   2.205
36133W        W 9201  11.305  43.010  10.327
36134W        W 9202  39.451  19.539   0.461
36135W        W 9203  19.715  26.614  13.642
36136W        W 9204  12.035  33.518  13.917
36137W        W 9205  28.042  36.757  11.130
36138W        W 9206  33.896  37.455  12.171
36139W        W 9207  36.233  16.724   0.739
36140W        W 9208  41.423  22.006   2.291
36141W        W 9209  36.465  37.032   3.420
36142W        W 9210  33.189  38.762  12.466
36143W        W 9211  24.552  30.902   4.845
36144W        W 9212   6.852  23.027   1.435
36145W        W 9213  12.886  30.131   0.923
36146W        W 9214  13.776  34.412   4.209
36147W        W 9215  18.621   3.729   3.212
36148W        W 9216  10.648  17.176   1.207
36149W        W 9217  29.561  38.655   3.784
36150W        W 9218   5.391  17.778  14.419
36151W        W 9219   4.785  33.891  12.444
36152W        W 9220  10.093  19.302   4.163
36153W        W 9221  44.907  13.397   4.204
36154W        W 9222  32.864  35.552   3.323
36155W        W 9223   2.835  37.122   3.371
36156W        W 9224  15.660  15.267  12.082
36157W        W 9225   9.927  24.087  14.105
36158W        W 9226  23.093  20.616  13.903
36159W        W 9227  37.940  34.127  11.652
36160W        W 9228  18.924  29.238  11.118
36161W        W 9229  15.861  33.194  14.413
36162W        W 9230  41.052  20.514  12.442
36163W        W 9231  43.029   9.733   1.393
36164W        W 9232  32.061  28.031   3.115
36165W        W 9233  39.499   4.716  11.955
36166W        W 9234  38.847  14.767  11.621
36167W        W 9235  38.068  43.763  13.033
36168W        W 9236   3.956  32.533   0.875
36169W        W 9237  20.400  16.120  14.777
36170W        W 9238  10.677   6.457   2.185
36171W        W 9239  25.260   6.681   3.190
36172W        W 9240  32.787  32.209  12.868
36173W        W 9241  31.603  34.168   0.902
36174W        W 9242  17.111  28.008   3.654
36175W        W 9243   8.292   5.143   2.267
36176W        W 9244   9.916  28.052   4.305
36177W        W 9245  40.705   4.478  13.452
36178W        W 9246  27.141  21.334   1.885
36179W        W 9247   0.990   3.541  10.764
36180W        W 9248  34.042   5.924   4.709
36181W        W 9249  14.404  33.538   4.534
36182W        W 9250  12.549  14.630  13.924
36183W        W 9251  13.411  17.640  13.912
36184W        W 9252  10.496  43.894  11.513
36185W        W 9253  18.773   5.054   0.819
36186W        W 9254  39.631  32.379  13.020
36187W        W 9255  24.127  39.132   2.295
36188W        W 9256  27.426   8.351  12.349
36189W        W 9257   0.976  33.009  12.130
36190W        W 9258  30.279   8.101   1.741
36191W        W 9259  22.170   5.383  13.341
36192W        W 9260   8.602  40.038  14.870
36193W        W 9261  20.742  38.006  14.767
36194W        W 9262   6.219  39.896  14.335
36195W        W 9263   8.738  23.905   2.729
36196W        W 9264  26.148   4.452   2.923
36197W        W 9265  32.730  17.429  11.523
36198W        W 9266   0.497  11.399   0.334
36199W        W 9267  36.399  29.889  13.480
36200W        W 9268   6.422   0.285   2.849
36201W        W 9269  40.567   7.916  10.515
36202W        W 9270  43.579  34.819  11.148
36203W        W 9271  11.318  32.973   1.714
36204W        W 9272  38.089  38.589  10.550
36205W        W 9273  34.314   6.843  13.292
36206W        W 9274  13.393  15.751   3.573
36207W        W 9275  13.511  25.659   4.166
36208W        W 9276  24.020   1.553   3.186
36209W        W 9277  41.952   5.701   3.921
36210W        W 9278  25.730  38.447   0.027
36211W        W 9279  16.540  38.466  14.008
36212W        W 9280   1.172  34.079   0.482
36213W        W 9281  14.701  28.087  11.916
36214W        W 9282  10.379  42.421   0.872
36215W        W 9283  19.066  21.057   3.174
36216W        W 9284   2.208   4.258  10.515
36217W        W 9285  22.978  37.026   3.250
36218W        W 9286  14.709   3.444   5.405
36219W        W 9287  21.161  29.940  13.490
36220W        W 9288  36.806   4.457   1.643
36221W        W 9289   7.256  13.289   0.390
36222W        W 9290  14.769  34.246   4.125
36223W        W 9291  29.834  33.807   0.695
36224W        W 9292  17.357  19.034  12.123
36225W        W 9293  12.639  27.654   2.218
36226W        W 9294   4.248   3.163  12.411
36227W        W 9295   2.352   5.168  10.607
36228W        W 9296  16.557  22.814  11.491
36229W        W 9297  24.677   6.376   1.303
36230W        W 9298  20.782   3.731  13.632
36231W        W 9299  41.731  12.836   2.767
36232W        W 9300  30.621   8.386   0.412
36233W        W 9301  34.597   9.260  13.298
36234W        W 9302  44.434  26.559   0.743
36235W        W 9303  18.682  26.611  12.799
36236W        W 9304  42.312   7.662   4.950
36237W        W 9305  40.737   4.794   4.203
36238W        W 9306  18.509  22.469  12.820
36239W        W 9307  37.580  10.549  11.084
36240W        W 9308  32.373  24.208  13.599
36241W        W 9309  24.483   1.977  12.000
36242W        W 9310  22.995  17.515  13.419
36243W        W 9311  11.309  10.885  10.563
36244W        W 9312  33.539  30.869   2.612
36245W        W 9313  35.775  31.734   4.962
36246W        W 9314  24.024  15.621   4.994
36247W        W 9315  20.351  44.465   4.101
36248W        W 9316  20.029  38.778  14.871
36249W        W 9317  28.569  37.498  10.616
36250W        W 9318  24.504  25.610  12.763
36251W        W 9319  11.755  25.523  14.526
36252W        W 9320  26.135  25.418  13.887
36253W        W 9321  40.326  42.666  10.750
36254W        W 9322   8.789   3.768   4.104
36255W        W 9323  30.069  41.506  14.110
36256W        W 9324  32.151  15.856   4.628
36257W        W 9325  19.852  26.297  12.388
36258W        W 9326  12.690  22.139   1.209
36259W        W 9327   4.423  12.633  13.381
36260W        W 9328  28.068  33.839   1.478
36261W        W 9329   2.854  18.705  10.818
36262W        W 9330  15.219  34.935   0.648
36263W        W 9331  38.514  26.076   4.528
36264W        W 9332  12.719  13.261   4.127
36265W        W 9333  27.118   9.734   2.792
36266W        W 9334  23.846   9.427   2.557
36267W        W 9335  29.957   7.399  13.901
36268W        W 9336  35.502  20.713   1.176
36269W        W 9337  25.258  32.354   2.369
36270W        W 9338  29.386   1.737   4.141
36271W        W 9339  22.281  29.398  12.485
36272W        W 9340  22.490  13.264  13.251
36273W        W 9341  24.484  23.967   3.204
36274W        W 9342  37.015  39.334  11.177
36275W        W 9343   7.342  34.609  11.581
36276W        W 9344  35.405  22.972   1.843
36277W        W 9345   7.696  24.178   1.372
36278W        W 9346  35.894  35.127  12.756
36279W        W 9347   5.397  40.342   0.369
36280W        W 9348  30.997  44.902   3.909
36281W        W 9349  44.705   7.718  10.966
36282W        W 9350   5.183  38.771  11.636
36283W        W 9351  40.017   4.702  12.097
36284W        W 9352  11.857   2.399  14.774
36285W        W 9353   1.288  22.962  12.830
36286W        W 9354  26.941   1.780  14.323
36287W        W 9355  11.397  42.836   2.231
36288W        W 9356  28.149  24.292   4.607
36289W        W 9357  44.788  32.597   2.949
36290W        W 9358  22.003  16.708  14.074
36291W        W 9359  30.422  29.544   1.788
36292W        W 9360  31.386  11.260   1.721
36293W        W 9361  16.983  37.814  13.427
36294W        W 9362  26.844  38.461  12.006
36295W        W 9363  39.594   5.700  11.106
36296W        W 9364  16.595  27.046   2.884
36297W        W 9365   2.222  15.205   1.720
36298W        W 9366  37.021  25.437  10.705
36299W        W 9367  12.634  38.027  14.766
36300W        W 9368  29.881  24.121   0.342
36301W        W 9369  30.976  39.973   2.459
36302W        W 9370  32.861  33.437   4.618
36303W        W 9371  26.555  34.222  12.948
36304W        W 9372  41.538  13.918   5.005
36305W        W 9373   0.908  20.619   4.329
36306W        W 9374  27.900  21.228  14.251
36307W        W 9375   7.139  17.730  12.154
36308W        W 9376  27.549  21.599  11.832
36309W        W 9377  15.595  24.482   4.019
36310W        W 9378  27.021  18.052   2.900
36311W        W 9379   5.192  19.705  11.980
36312W        W 9380  41.335  41.463   0.468
36313W        W 9381   4.678  33.042   3.952
36314W        W 9382  36.571  31.013   5.475
36315W        W 9383  26.871  23.684  14.044
36316W        W 9384  28.546  24.557   0.724
36317W        W 9385  17.196  26.071  12.751
36318W        W 9386  34.843  28.315  13.357
36319W        W 9387  28.947  19.801   1.304
36320W        W 9388  21.276   0.940   3.349
36321W        W 9389  12.746  27.406   4.408
36322W        W 9390  35.234  22.618   3.790
36323W        W 9391  33.147  44.430  12.517
36324W        W 9392   9.762  42.347   3.951
36325W        W 9393  12.628  32.847   0.044
36326W        W 9394  26.251  19.489   3.599
36327W        W 9395  30.219  27.332   4.530
36328W        W 9396  34.396  35.379   4.617
36329W        W 9397  35.791   3.232   0.838
36330W        W 9398  36.119  26.659   0.902
36331W        W 9399   1.449   2.669  14.892
36332W        W 9400  13.804  15.520  11.082
36333W        W 9401   4.737  37.360  13.116
36334W        W 9402  12.309   9.660   2.139
36335W        W 9403  18.569  35.252   1.966
36336W        W 9404  40.565  28.963   4.125
36337W        W 9405  11.293  21.299   2.946
36338W        W 9406  24.702  26.360   5.014
36339W        W 9407   0.485  33.134  12.407
36340W        W 9408  28.432  37.542   0.264
36341W        W 9409  22.733  16.792   2.242
36342W        W 9410  42.287  40.353  10.656
36343W        W 9411  39.188   3.239  11.997
36344W        W 9412  22.820  20.085   1.752
36345W        W 9413  27.478  43.363  13.546
36346W        W 9414  13.124  12.427   4.116
36347W        W 9415  39.206  42.337   3.596
36348W        W 9416  39.530  12.621  11.383
36349W        W 9417  10.940  42.886   0.329
36350W        W 9418  22.745  12.158   2.288
36351W        W 9419   3.438  18.491   3.767
36352W        W 9420   3.964  37.316   2.980
36353W        W 9421  13.208   9.757   2.179
36354W        W 9422   6.368  14.041  14.763
36355W        W 9423  27.507  41.386   1.587
36356W        W 9424  27.928  20.491   1.356
36357W        W 9425  36.867  36.659   3.597
36358W        W 9426  25.995  16.017   2.805
36359W        W 9427  37.563  21.332  12.727
36360W        W 9428  22.579  42.239  11.567
36361W        W 9429  24.614  20.074   1.642
36362W        W 9430  25.528   9.096   5.021
36363W        W 9431  13.770  34.540  13.939
36364W        W 9432   9.869  37.866   3.206
36365W        W 9433  35.058  31.618   4.034
36366W        W 9434  37.546  21.636  13.947
36367W        W 9435  32.029   6.202  11.948
36368W        W 9436  14.173  28.446   0.299
36369W        W 9437  13.663  26.031  12.901
36370W        W 9438  10.785  13.610   4.274
36371W        W 9439  13.318   3.527   0.760
36372W        W 9440  22.622   7.837  10.595
36373W        W 9441  15.637  42.414   2.235
36374W        W 9442   1.507  28.479   3.245
36375W        W 9443  23.279  15.263  13.068
36376W        W 9444  33.096  14.384  10.577
36377W        W 9445  14.889  23.511   4.710
36378W        W 9446   0.904  24.083   3.223
36379W        W 9447  14.228  13.075  11.010
36380W        W 9448  25.705   7.424   3.721
36381W        W 9449  36.407  21.387  12.099
36382W        W 9450  14.567  13.053  14.831
36383W        W 9451  28.639  14.052   1.385
36384W        W 9452   2.631  10.636   1.665
36385W        W 9453  14.653   5.876   0.246
36386W        W 9454  12.376   9.321  14.979
36387W        W 9455  40.738  19.661   4.211
36388W        W 9456  27.084  21.248   3.244
36389W        W 9457  23.575  35.980   1.191
36390W        W 9458  36.553  26.259   0.044
36391W        W 9459  16.087  40.644  11.746
36392W        W 9460  30.474  27.207   2.780
36393W        W 9461  11.285  30.682   2.367
36394W        W 9462   2.949  16.333  12.094
36395W        W 9463   7.269  25.393   2.362
36396W        W 9464  27.224  30.177  10.720
36397W        W 9465   9.739  13.795   4.146
36398W        W 9466  27.038  34.073  10.623
36399W        W 9467  31.960  41.484  11.480
36400W        W 9468   6.705  22.291  11.646
36401W        W 9469  22.790  41.121   1.909
36402W        W 9470   6.307  39.967   3.254
36403W        W 9471  26.284  20.741  10.676
36404W        W 9472  44.868  19.651   2.539
36405W        W 9473   4.245   6.532   0.352
36406W        W 9474  23.944  22.097   3.224
36407W        W 9475  41.304  24.709   1.739
36408W        W 9476  21.672  16.255   1.216
36409W        W 9477  14.906  26.515  14.802
36410W        W 9478  32.698  39.041  10.805
36411W        W 9479  38.974   7.421  10.197
36412W        W 9480  41.896  17.752  12.435
36413W        W 9481  28.010   2.583   0.166
36414W        W 9482  41.959  29.413   0.380
36415W        W 9483  15.599  44.263   4.441
36416W        W 9484  11.711  36.995  10.702
36417W        W 9485  43.421  36.657  12.879
36418W        W 9486  10.251  42.393  14.922
36419W        W 9487  23.748  34.677   0.316
36420W        W 9488  38.290  36.456  14.798
36421W        W 9489   3.982  21.223   0.220
36422W        W 9490  16.774  28.994   0.762
36423W        W 9491  44.261  36.463  14.944
36424W        W 9492   1.438  25.523  14.391
36425W        W 9493  35.084  19.111   2.870
36426W        W 9494  32.370  40.438  13.846
36427W        W 9495  35.687  39.951  13.384
36428W        W 9496  18.771  39.980  14.868
36429W        W 9497  28.182  28.399   0.347
36430W        W 9498  28.017  26.465   1.389
36431W        W 9499  36.774  40.533  14.855
36432W        W 9500  24.422  21.198  14.052
36433W        W 9501   9.276  21.282  11.089
36434W        W 9502  34.130  31.224  13.039
36435W        W 9503   7.701  10.251  14.483
36436W        W 9504  26.461  19.783   0.395
36437W        W 9505  25.179  14.813  10.648
36438W        W 9506  30.827  16.464  13.595
36439W        W 9507   1.422  36.699   2.247
36440W        W 9508  22.608  39.476  11.227
36441W        W 9509  21.640   1.426   9.899
36442W        W 9510  20.033  27.108  11.141
36443W        W 9511   0.252  33.339   1.935
36444W        W 9512   1.152  37.412   4.479
36445W        W 9513   0.720  20.711   2.857
36446W        W 9514  18.114   1.598  13.113
36447W        W 9515   8.040   1.822   1.231
36448W        W 9516   2.416   3.903   0.113
36449W        W 9517  33.822  31.766   2.310
36450W        W 9518  25.038  14.730   4.973
36451W        W 9519  15.839  13.878   1.968
36452W        W 9520  25.954  40.909  13.020
36453W        W 9521   9.319  22.301  11.103
36454W        W 9522  10.878  22.350   0.024
36455W        W 9523  44.397  38.029   0.732
36456W        W 9524   8.552  26.693   4.571
36457W        W 9525  14.601   3.691  12.438
36458W        W 9526   3.265  36.865   3.545
36459W        W 9527  10.806  35.544   2.327
36460W        W 9528   3.159  35.599   1.803
36461W        W 9529  20.253   1.911  12.892
36462W        W 9530  25.664  41.414  10.574
36463W        W 9531   2.469  35.238   3.612
36464W        W 9532  34.537  40.255   4.631
36465W        W 9533  36.645  29.492   0.966
36466W        W 9534  29.451  17.238   1.395
36467W        W 9535  24.076   2.676  13.312
36468W        W 9536  11.364   2.999   1.857
36469W        W 9537   6.498   5.879   1.370
36470W        W 9538  24.090  22.594   0.399
36471W        W 9539  11.663  28.207  10.543
36472W        W 9540  25.792  40.431   4.084
36473W        W 9541  19.610  35.586   2.045
36474W        W 9542  38.305   8.331  11.222
36475W        W 9543  30.348  35.660  11.435
36476W        W 9544  13.644  35.838  14.831
36477W        W 9545  36.098  28.662  10.750
36478W        W 9546  24.605  44.172   2.871
36479W        W 9547   3.953   7.298   0.273
36480W        W 9548  12.726  44.844  11.584
36481W        W 9549  22.033   8.267  11.022
36482W        W 9550   2.752   6.538  11.430
36483W        W 9551  33.807  10.792   2.828
36484W        W 9552  33.809  42.431   0.793
36485W        W 9553  30.596   3.562  14.919
36486W        W 9554  15.182  26.522  11.286
36487W        W 9555  36.569  10.380  14.415
36488W        W 9556  33.095   5.779   3.187
36489W        W 9557  26.009  31.901   5.048
36490W        W 9558  40.791   3.869   2.439
36491W        W 9559   8.098   6.852   1.849
36492W        W 9560  37.435  33.850  13.062
36493W        W 9561  40.294  37.945  11.880
36494W        W 9562  25.159   7.379   2.706
36495W        W 9563  13.369  12.538   2.378
36496W        W 9564  18.127  35.837  14.927
36497W        W 9565   1.291  35.279  13.115
36498W        W 9566  41.479   0.399   5.061
36499W        W 9567   7.852  44.214  12.071
36500W        W 9568  24.240  32.120  10.477
36501W        W 9569  36.050  33.309   0.897
36502W        W 9570  32.987   2.561  12.120
36503W        W 9571  26.702  16.758   2.261
36504W        W 9572  14.515  41.542  11.942
36505W        W 9573  40.078  37.005   0.821
36506W        W 9574  37.744  30.468   2.267
36507W        W 9575  34.543   8.853   0.070
36508W        W 9576   2.165  25.992   4.195
36509W        W 9577  36.412  38.395   1.174
36510W        W 9578  36.116  23.161   1.425
36511W        W 9579   9.676  12.941  14.870
36512W        W 9580  21.737   0.771   0.348
36513W        W 9581  41.937   0.238  13.857
36514W        W 9582   4.974   7.623  14.216
36515W        W 9583  11.192  17.839   4.125
36516W        W 9584   8.195  30.399  12.210
36517W        W 9585  25.123  40.973   4.565
36518W        W 9586  27.238  40.234  12.189
36519W        W 9587  36.865  27.205   0.878
36520W        W 9588  42.523  36.373  11.549
36521W        W 9589  39.981  21.167  11.153
36522W        W 9590  38.933  26.035   1.860
36523W        W 9591  15.651  38.242  10.330
36524W        W 9592  27.376  13.505  10.792
36525W        W 9593  37.059  24.551  10.710
36526W        W 9594  18.092  38.260  12.345
36527W        W 9595  14.218  15.379  11.550
36528W        W 9596  16.364   5.470   0.039
36529W        W 9597  21.695  11.383  13.051
36530W        W 9598  40.520  36.057   1.433
36531W        W 9599   7.912  36.998   3.200
36532W        W 9600  10.146  15.265   4.823
36533W        W 9601  40.776  37.913   2.953
36534W        W 9602   2.486  40.718   3.389
36535W        W 9603  30.444  33.138   4.590
36536W        W 9604  19.508   0.071   2.723
36537W        W 9605  34.865  14.789   0.444
36538W        W 9606  43.226  35.550   1.642
36539W        W 9607  33.216   6.745   2.666
36540W        W 9608  20.175  36.035   2.299
36541W        W 9609  40.319  34.330   4.120
36542W        W 9610   4.404  44.225  12.364
36543W        W 9611  32.611   1.615  12.066
36544W        W 9612   9.343  33.363  11.158
36545W        W 9613  36.173  13.582   2.400
36546W        W 9614   4.284   8.763   1.549
36547W        W 9615  40.673  33.703  14.862
36548W        W 9616  22.442  35.623   1.925
36549W        W 9617  14.088  41.531   0.794
36550W        W 9618   5.411  24.790  12.944
36551W        W 9619  39.313   6.305   9.857
36552W        W 9620  15.994  19.187   4.019
36553W        W 9621   7.720  22.457   0.422
36554W        W 9622  15.844  25.807  13.438
36555W        W 9623  18.327   6.741   0.462
36556W        W 9624   9.251  35.083   0.537
36557W        W 9625   4.911   5.682   4.216
36558W        W 9626  17.289   0.063   3.305
36559W        W 9627  12.200  16.335   2.871
36560W        W 9628  34.130  11.149  14.314
36561W        W 9629  20.597   6.705   4.349
36562W        W 9630  23.132   8.580  11.569
36563W        W 9631  17.055  25.661   2.449
36564W        W 9632   2.541  43.947  13.129
36565W        W 9633  22.726  31.732   5.522
36566W        W 9634  31.498  31.310  12.592
36567W        W 9635  14.623  40.325   1.691
36568W        W 9636  16.737  42.210   0.415
36569W        W 9637  22.088  24.102  14.517
36570W        W 9638  36.183  37.896   0.915
36571W        W 9639  21.596  10.125  13.095
36572W        W 9640  33.091  43.037   2.962
36573W        W 9641  22.995  44.421   2.223
36574W        W 9642  28.651   3.818   0.170
36575W        W 9643  23.909  35.864   1.979
36576W        W 9644  27.843   0.183  12.867
36577W        W 9645  21.614  20.053   2.975
36578W        W 9646  20.341  43.058  14.756
36579W        W 9647  38.093  13.872   0.289
36580W        W 9648  18.127   6.687   2.302
36581W        W 9649   0.029   5.884  14.423
36582W        W 9650  11.341  25.344   1.258
36583W        W 9651  34.416   9.812  11.741
36584W        W 9652  25.420  16.742   3.716
36585W        W 9653   0.361   4.029   4.303
36586W        W 9654  16.018  32.007  12.890
36587W        W 9655  37.096  31.852  11.658
36588W        W 9656   0.304  31.342  12.053
36589W        W 9657  40.907   4.246   0.637
36590W        W 9658  43.603  25.581   3.347
36591W        W 9659  26.327  11.585  12.466
36592W        W 9660  42.719  18.822  13.040
36593W        W 9661  16.358  15.574   1.649
36594W        W 9662  33.063  32.622  13.605
36595W        W 9663  37.625  34.093   0.186
36596W        W 9664  24.066   7.200  10.497
36597W        W 9665  44.692  26.669  11.972
36598W        W 9666  18.827  31.654   1.447
36599W        W 9667  21.560  15.875  11.430
36600W        W 9668  35.315  11.812  10.769
36601W        W 9669  16.853   0.343  12.079
36602W        W 9670   9.431  17.632   1.440
36603W        W 9671  29.430  40.032  12.976
36604W        W 9672  35.590  18.041  10.673
36605W        W 9673  19.030   0.896  11.512
36606W        W 9674   7.515  12.590  13.510
36607W        W 9675  33.563  44.843   0.520
36608W        W 9676  33.098  42.267   4.234
36609W        W 9677   3.376  17.411   1.221
36610W        W 9678  19.452  25.529   4.590
36611W        W 9679  21.120  25.750   1.207
36612W        W 9680  32.154  16.232  11.911
36613W        W 9681   8.268  15.716   2.823
36614W        W 9682  37.889  29.101  14.315
36615W        W 9683  15.572  15.457   1.225
36616W        W 9684  34.783  22.636   1.318
36617W        W 9685  25.401  17.025   3.233
36618W        W 9686  21.532  27.102   4.509
36619W        W 9687   4.901  19.081  13.368
36620W        W 9688  19.347  15.581  11.187
36621W        W 9689  44.636  12.813   3.579
36622W        W 9690  43.400   0.924   0.445
36623W        W 9691  19.134  18.118   3.860
36624W        W 9692  18.552  11.595  12.448
36625W        W 9693   2.051  44.225   5.111
36626W        W 9694   8.332  44.092  11.245
36627W        W 9695  23.615  37.999  12.051
36628W        W 9696   1.965   9.707   3.581
36629W        W 9697  42.482  34.824  11.653
36630W        W 9698  18.804  28.275  11.052
36631W        W 9699   3.950  31.439   0.942
36632W        W 9700   3.213  11.147   1.289
36633W        W 9701  21.234   7.792   3.278
36634W        W 9702  27.317  32.477   2.527
36635W        W 9703  10.390  36.499  13.559
36636W        W 9704  35.558  14.279   0.343
36637W        W 9705  22.553  40.933  14.814
36638W        W 9706  15.219  41.227   1.696
36639W        W 9707  13.413   1.631  10.254
36640W        W 9708  42.625  22.965   3.227
36641W        W 9709  29.072  27.363  11.205
36642W        W 9710  29.174  21.548  11.626
36643W        W 9711   0.459   5.283   0.178
36644W        W 9712  10.279  16.670   4.143
36645W        W 9713   4.533  29.547  13.782
36646W        W 9714  31.243   8.470  11.491
36647W        W 9715  27.152   8.370   3.859
36648W        W 9716  32.804  12.593   3.449
36649W        W 9717  15.530  23.588   1.670
36650W        W 9718   2.489  31.746   4.854
36651W        W 9719  31.334   1.394  11.420
36652W        W 9720  29.041   6.813   2.917
36653W        W 9721   3.840   7.632  10.710
36654W        W 9722  43.772  26.011   0.433
36655W        W 9723   1.261  42.447  14.294
36656W        W 9724   0.802  41.983   2.628
36657W        W 9725  32.213   5.805  14.470
36658W        W 9726  44.456   0.207  13.038
36659W        W 9727  17.675  35.555  14.892
36660W        W 9728  19.143  34.251  11.016
36661W        W 9729  18.779   9.943   4.585
36662W        W 9730  25.159   7.927   5.166
36663W        W 9731   6.895  26.225  12.045
36664W        W 9732  31.643  33.746   2.308
36665W        W 9733  35.300   2.607   3.388
36666W        W 9734  13.611  11.371   3.686
36667W        W 9735   8.695   9.231  14.382
36668W        W 9736  20.691  41.910  14.931
36669W        W 9737   1.682   5.660  11.062
36670W        W 9738  18.723  35.922  11.531
36671W        W 9739  37.590  34.479   2.884
36672W        W 9740  29.123  39.785  12.367
36673W        W 9741  13.266  10.633   1.828
36674W        W 9742  16.551  14.651   0.780
36675W        W 9743  32.421  34.185   2.227
36676W        W 9744  28.640  29.005   1.633
36677W        W 9745  26.270  21.716  14.071
36678W        W 9746  12.393  44.616   2.126
36679W        W 9747  44.341  12.815  11.621
36680W        W 9748  28.760   5.783   1.298
36681W        W 9749   0.865  26.004  10.663
36682W        W 9750  41.045   5.515   0.407
36683W        W 9751  16.352  13.834   1.879
36684W        W 9752  33.532  37.783   0.674
36685W        W 9753  20.938  18.092  12.888
36686W        W 9754  11.227   1.946  13.029
36687W        W 9755   5.298  36.979   2.822
36688W        W 9756  28.735  43.859  14.826
36689W        W 9757   6.406  16.414   4.094
36690W        W 9758  28.259  29.618  12.072
36691W        W 9759  28.791   3.255  14.645
36692W        W 9760  34.544  43.444   4.034
36693W        W 9761  44.803  25.005   3.429
36694W        W 9762  40.918   2.884  13.396
36695W        W 9763  36.767  12.024  13.638
36696W        W 9764  17.090   5.728  14.478
36697W        W 9765  16.535  11.060  12.368
36698W        W 9766  25.342  43.061  14.913
36699W        W 9767  10.241  15.148   4.292
36700W        W 9768  37.747  17.725   2.243
36701W        W 9769  17.006  19.378   3.667
36702W        W 9770   2.705   3.314  12.414
36703W        W 9771  40.834  20.985  12.442
36704W        W 9772  30.710  43.735   1.475
36705W        W 9773   1.317  39.177   4.282
36706W        W 9774  20.634  34.365   4.160
36707W        W 9775  42.681  19.312  12.941
36708W        W 9776  44.452  24.534   1.746
36709W        W 9777   0.428   5.147  11.202
36710W        W 9778  23.334   2.724   0.234
36711W        W 9779  32.123  33.661   4.195
36712W        W 9780  39.913  25.408   3.165
36713W        W 9781  15.757  13.885  13.552
36714W        W 9782  40.423  40.659  11.539
36715W        W 9783   8.444  15.498   1.460
36716W        W 9784  18.808  24.534  12.127
36717W        W 9785  24.644  19.208   3.191
36718W        W 9786  38.871  35.956  14.397
36719W        W 9787  28.643  40.468   1.334
36720W        W 9788  44.398  40.504   0.224
36721W        W 9789  12.011  32.915  11.744
36722W        W 9790  26.446  22.159  12.964
36723W        W 9791  33.834  15.356   4.214
36724W        W 9792  34.309  44.302  11.106
36725W        W 9793  19.788  17.641   4.164
36726W        W 9794  26.157  11.875   3.851
36727W        W 9795   9.152  15.701  13.037
36728W        W 9796   2.349  41.153  14.681
36729W        W 9797  41.689  34.011  10.711
36730W        W 9798  40.916  32.549   2.663
36731W        W 9799  12.820   1.471   2.690
36732W        W 9800  19.643  19.272  12.874
36733W        W 9801  29.692  14.229   4.060
36734W        W 9802  21.442  15.817  12.392
36735W        W 9803  13.120  10.078  11.701
36736W        W 9804   6.251   9.664  14.564
36737W        W 9805  30.125  15.179   4.245
36738W        W 9806  44.762   4.959  10.763
36739W        W 9807  10.754  37.061  13.040
36740W        W 9808  10.452   9.428  14.826
36741W        W 9809  25.642  42.475   0.712
36742W        W 9810  24.517  25.196  14.612
36743W        W 9811  24.305  19.045   0.949
36744W        W 9812  36.469  21.553  10.724
36745W        W 9813  35.234  37.781  11.585
36746W        W 9814  31.148  36.335  13.431
36747W        W 9815  34.752  10.405   4.116
36748W        W 9816  23.651  42.918  11.163
36749W        W 9817  22.143   6.614  12.089
36750W        W 9818  28.650  12.005   1.115
36751W        W 9819  26.522  40.083   9.994
36752W        W 9820   7.170  35.851   4.536
36753W        W 9821  14.243  44.848  13.823
36754W        W 9822  19.154  43.947  14.929
36755W        W 9823  39.563  34.536   1.444
36756W        W 9824   2.167  11.193  11.095
36757W        W 9825  34.918  38.639  10.896
36758W        W 9826  25.163  36.861  10.349
36759W        W 9827  43.432   1.780   2.202
36760W        W 9828   5.686  41.478  13.822
36761W        W 9829  24.212  25.516   2.607
36762W        W 9830  28.486   0.627  13.463
36763W        W 9831  22.489  28.129  11.381
36764W        W 9832  39.338  16.203   1.311
36765W        W 9833   8.094  28.208   2.010
36766W        W 9834  21.544  35.436   0.951
36767W        W 9835  14.584  18.195   4.123
36768W        W 9836  43.518   0.232  12.954
36769W        W 9837   2.471  33.942   4.542
36770W        W 9838  26.215  35.355  11.136
36771W        W 9839  44.220  22.044  14.549
36772W        W 9840   7.009  32.008   0.665
36773W        W 9841   7.291  38.326   1.221
36774W        W 9842  41.774   1.690   2.178
36775W        W 9843   2.997  18.449  13.877
36776W        W 9844  18.661  34.615  11.783
36777W        W 9845  42.761  28.812  10.672
36778W        W 9846  44.574  38.833  12.500
36779W        W 9847  38.738   9.308   4.275
36780W        W 9848  24.703   5.768   3.846
36781W        W 9849  21.095  19.691   5.367
36782W        W 9850   7.761  18.331  14.933
36783W        W 9851  22.170  37.285   4.907
36784W        W 9852  42.723  22.636  12.150
36785W        W 9853  20.705  26.729  12.415
36786W        W 9854  31.570   7.247  12.633
36787W        W 9855  13.768  34.577   3.708
36788W        W 9856  20.753   2.855  12.429
36789W        W 9857  22.160  27.743   0.534
36790W        W 9858  36.887  23.753   2.893
36791W        W 9859  37.895   8.943   3.794
36792W        W 9860  17.707  30.331  10.588
36793W        W 9861   9.838   7.820  12.311
36794W        W 9862  43.371  32.443  11.460
36795W        W 9863  14.631  21.220  13.466
36796W        W 9864  18.111  14.771   3.198
36797W        W 9865   8.685  20.588  15.000
36798W        W 9866  39.090  29.247  12.339
36799W        W 9867   4.323  31.697   3.541
36800W        W 9868  11.433   6.091  12.405
36801W        W 9869  30.469  40.948  11.384
36802W        W 9870  43.669  42.937   4.535
36803W        W 9871  21.145  19.809   3.012
36804W        W 9872  22.038  36.270  12.442
36805W        W 9873  39.513   0.735  13.457
36806W        W 9874   4.889   4.649  12.439
36807W        W 9875  32.082   9.827   0.637
36808W        W 9876  41.526  42.490  13.626
36809W        W 9877  25.774  34.538   2.713
36810W        W 9878  37.833   9.522   3.130
36811W        W 9879  26.159  10.442   5.057
36812W        W 9880  41.120  41.426  11.195
36813W        W 9881  30.179  23.970   0.770
36814W        W 9882  35.351  37.291   3.345
36815W        W 9883  29.423  17.607   2.719
36816W        W 9884  30.541  32.316  12.506
36817W        W 9885  18.770   1.178  13.412
36818W        W 9886  44.739  36.055  12.040
36819W        W 9887   4.321  16.352   1.227
36820W        W 9888  11.571  36.400   3.166
36821W        W 9889  19.056   3.481   3.191
36822W        W 9890  17.342  18.045  13.471
36823W        W 9891  25.848  11.750  13.295
36824W        W 9892  44.847  13.433  12.947
36825W        W 9893  34.604  23.123   0.475
36826W        W 9894  23.282  19.496  11.930
36827W        W 9895  38.218  39.419  13.206
36828W        W 9896   2.877  36.660  13.846
36829W        W 9897   4.508   2.745  11.647
36830W        W 9898   4.607  36.038   0.445
36831W        W 9899  37.495  28.360   0.464
36832W        W 9900  16.205  29.121  14.000
36833W        W 9901  12.621  33.755  12.551
36834W        W 9902  28.944  14.487   0.781
36835W        W 9903  32.348  27.229   0.000
36836W        W 9904  21.517   5.259   1.516
36837W        W 9905  16.117  24.651  14.811
36838W        W 9906  42.777  14.744  10.680
36839W        W 9907  36.597  28.026   0.468
36840W        W 9908  16.205  20.262  12.862
36841W        W 9909  30.000   2.854   4.795
36842W        W 9910   3.355  29.524   2.335
36843W        W 9911  27.537  40.038   0.270
36844W        W 9912   9.238   6.693  10.648
36845W        W 9913   2.243  39.875   0.168
36846W        W 9914   9.415  43.646   1.451
36847W        W 9915  22.592  35.581  11.555
36848W        W 9916  14.052   7.286   4.860
36849W        W 9917  27.622  32.340  12.214
36850W        W 9918  35.395   8.824   4.927
36851W        W 9919  44.414  41.743  12.961
36852W        W 9920  21.969  25.144   5.042
36853W        W 9921  25.929   9.719   1.741
36854W        W 9922   3.742  12.476  10.573
36855W        W 9923  43.637  39.064  13.792
36856W        W 9924  31.569   6.256  13.493
36857W        W 9925  16.405  15.416   0.872
36858W        W 9926  19.664  18.285  10.633
36859W        W 9927  20.077  13.656   3.662
36860W        W 9928  29.727   6.687   4.075
36861W        W 9929   2.812  32.973  10.664
36862W        W 9930   3.838  20.160   1.938
36863W        W 9931   4.245  15.672   2.875
36864W        W 9932  28.412   3.624  14.702
36865W        W 9933  30.600  29.724   4.134
36866W        W 9934  34.650  17.140  11.522
36867W        W 9935  26.362  19.998   0.854
36868W        W 9936  11.287  36.354  12.507
36869W        W 9937  34.386  32.245   4.564
36870W        W 9938  40.487  32.555   2.926
36871W        W 9939   8.919  11.825   4.346
36872W        W 9940  24.216  12.237  12.578
36873W        W 9941   8.181  25.714   0.031
36874W        W 9942  24.758  35.678  14.532
36875W        W 9943  25.554  14.161  13.343
36876W        W 9944  19.233   8.569  12.074
36877W        W 9945  36.127  37.065  10.679
36878W        W 9946  24.572  29.621  14.746
36879W        W 9947   7.666  36.395  11.068
36880W        W 9948  26.569  41.453  10.650
36881W        W 9949  13.314   8.045  14.274
36882W        W 9950  25.374   1.556   0.004
36883W        W 9951  40.390   5.422  14.758
36884W        W 9952  27.962  29.731   2.752
36885W        W 9953  40.575  22.038  11.993
36886W        W 9954   7.695  18.499   0.427
36887W        W 9955  34.868   6.425   0.042
36888W        W 9956  14.936  14.805   2.507
36889W        W 9957  17.060  42.715  11.814
36890W        W 9958  18.491  41.293  13.162
36891W        W 9959  23.619   8.828  10.716
36892W        W 9960  38.768  13.619  13.347
36893W        W 9961  39.398   4.327   3.307
36894W        W 9962  14.534  23.468   2.886
36895W        W 9963  28.159   6.203   3.659
36896W        W 9964  41.283  13.588   3.735
36897W        W 9965  10.618  18.375  12.917
36898W        W 9966  12.100   5.343   2.531
36899W        W 9967   1.858   9.806   0.931
36900W        W 9968  35.170  25.979   0.542
36901W        W 9969  12.878  33.377   1.892
36902W        W 9970  15.989  40.926  10.473
36903W        W 9971  42.324  21.013   1.845
36904W        W 9972  24.672  24.891   4.911
36905W        W 9973  44.226  13.764  13.605
36906W        W 9974   0.313  22.000  14.400
36907W        W 9975  41.157  32.496   4.697
36908W        W 9976   2.404  22.913  12.992
36909W        W 9977  33.362  35.127  13.883
36910W        W 9978  38.455  35.737   3.219
36911W        W 9979  43.251  12.448  12.797
36912W        W 9980  16.394  33.964   2.182
36913W        W 9981  41.354   6.474   3.762
36914W        W 9982  44.912   2.757  14.996
36915W        W 9983   7.336   7.688   2.292
36916W        W 9984   2.096  25.893  10.834
36917W        W 9985   7.811  21.973  12.031
36918W        W 9986   0.449   9.683  12.447
36919W        W 9987  32.070  29.680   2.081
36920W        W 9988  24.591  29.409  12.114
36921W        W 9989  28.062  38.071  14.233
36922W        W 9990   4.586   3.471   0.575
36923W        W 9991  23.779  11.887  12.506
36924W        W 9992  39.182  29.196   0.286
36925W        W 9993  41.980   6.022   2.446
36926W        W 9994  13.289  31.193  13.449
36927W        W 9995  13.211  44.536  13.874
36928W        W 9996   5.239  40.961   4.812
36929W        W 9997  11.776  16.187   1.342
36930W        W 9998  23.066   1.764   4.089
36931W        W 9999   1.944  39.896   3.561
36932W        W10000  37.778  34.408  11.209
36933W        W10001  26.232  12.824  11.145
36934W        W10002  28.266  35.991  10.712
36935W        W10003   3.929   9.910   1.637
36936W        W10004   2.795  39.798   1.428
36937W        W10005  37.408  35.388  14.848
36938W        W10006   3.564  17.551   0.210
36939W        W10007  10.191  29.451   3.355
36940W        W10008  19.278  42.577  13.813
36941W        W10009  34.574  42.743  14.417
36942W        W10010  29.232  11.253  11.489
36943W        W10011  27.973  11.893   3.702
36944W        W10012  44.927   1.970   3.599
36945W        W10013  23.821  30.310   1.394
36946W        W10014   6.859  30.373   4.634
36947W        W10015   2.440  25.386   0.495
36948W        W10016  13.957   2.491  13.462
36949W        W10017  11.919  40.152  13.881
36950W        W10018  42.345  35.549   0.706
36951W        W10019  24.657   2.939  12.484
36952W        W10020  29.255  32.941   2.575
36953W        W10021  23.516  25.231   4.171
36954W        W10022   9.624  19.731  12.396
36955W        W10023  24.432  13.718   2.745
36956W        W10024  38.971  39.182   0.491
36957W        W10025  24.418   3.981   4.232
36958W        W10026  29.230  16.759   1.360
36959W        W10027   0.400  27.479   4.292
36960W        W10028   1.442  35.976   3.312
36961W        W10029   6.867  41.951   0.422
36962W        W10030   5.957  17.215   1.105
36963W        W10031  18.088  44.780  11.591
36964W        W10032  42.777  26.150  14.492
36965W        W10033  17.614  13.965  13.037
36966W        W10034  26.564  25.611  14.440
36967W        W10035  26.637  27.964  14.946
36968W        W10036  18.608  20.471  13.887
36969W        W10037  23.935   3.437  13.707
36970W        W10038  18.884  29.656   1.024
36971W        W10039  27.601  16.820  13.975
36972W        W10040  20.424  38.206  14.338
36973W        W10041   3.493  32.970   0.339
36974W        W10042  26.569  35.163  12.983
36975W        W10043  15.053  33.919   3.249
36976W        W10044  15.438  33.521   4.488
36977W        W10045  30.445  43.635   4.006
36978W        W10046  22.209  31.613   4.359
36979W        W10047  33.577  28.703  12.973
36980W        W10048  13.870   1.949  12.999
36981W        W10049  28.859  27.908   2.786
36982W        W10050  37.111  18.207  13.078
36983W        W10051  40.868   8.787   3.435
36984W        W10052  22.164  18.310   0.785
36985W        W10053  16.061  15.641   1.218
36986W        W10054  10.247  41.431   0.704
36987W        W10055  32.731  10.218   4.310
36988W        W10056  34.996   3.342   1.489
36989W        W10057  32.070  23.418   0.917
36990W        W10058  11.393  42.286   2.218
36991W        W10059  37.409  14.952   0.301
36992W        W10060  11.178  13.326  13.480
36993W        W10061  43.818   1.166   3.778
36994W        W10062  29.984  37.457   1.350
36995W        W10063  24.765  37.825  14.398
36996W        W10064  29.036  44.543   3.671
36997W        W10065  23.344   3.379   4.530
36998W        W10066  10.140  14.936  14.921
36999W        W10067  34.023  15.503  11.890
37000W        W10068   1.454  14.554   3.569
37001W        W10069  41.569   1.838  14.776
37002W        W10070  29.197  21.028   2.350
37003W        W10071  21.192  36.367  11.227
37004W        W10072  15.072  12.973  11.955
37005W        W10073   2.372  34.022  14.122
37006W        W10074  20.641   9.104   3.792
37007W        W10075  20.395   0.213  10.366
37008W        W10076  36.937   6.725   2.840
37009W        W10077   4.759  14.409  10.282
37010W        W10078  18.195  20.152   2.759
37011W        W10079  14.118  37.027  12.368
37012W        W10080  31.676  36.209  12.333
37013W        W10081  24.027  28.350  12.238
37014W        W10082   8.960  31.465  13.585
37015W        W10083  42.769  35.470   1.422
37016W        W10084  26.091  44.419   3.170
37017W        W10085   9.155  30.959  12.786
37018W        W10086   2.574  25.942   1.914
37019W        W10087  31.906  43.293  12.169
37020W        W10088   1.935  22.531  14.395
37021W        W10089  23.681  12.912   0.448
37022W        W10090  12.217  17.663  11.244
37023W        W10091  21.872  42.425  13.807
37024W        W10092  19.783  43.797   3.303
37025W        W10093   1.003  33.904  13.907
37026W        W10094   2.873  13.291   4.562
37027W        W10095  38.956   3.334  13.835
37028W        W10096  43.186  43.855  13.061
37029W        W10097   3.436  41.119  11.163
37030W        W10098  24.115  27.913  12.509
37031W        W10099   0.368  37.752   3.606
37032W        W10100  32.870  42.376  11.911
37033W        W10101   9.217  18.834  10.928
37034W        W10102  16.135   2.783   4.160
37035W        W10103  42.723  17.628   0.236
37036W        W10104  23.203  22.492  11.215
37037W        W10105  40.998  29.579  13.123
37038W        W10106   0.414   6.880   4.801
37039W        W10107  30.243  44.324  12.117
37040W        W10108  38.419  43.355  13.444
37041W        W10109  36.904  27.788  14.997
37042W        W10110  43.667   5.728  14.824
37043W        W10111  33.971  42.731   4.488
37044W        W10112  22.144  23.464  13.321
37045W        W10113  25.790  42.044   3.397
37046W        W10114  10.806   1.428   3.760
37047W        W10115  32.445  23.250  11.153
37048W        W10116  14.143  37.899   4.236
37049W        W10117  37.128  43.278  13.447
37050W        W10118  44.272  26.157   0.444
37051W        W10119   5.324  25.113   3.568
37052W        W10120  15.272  34.046  13.103
37053W        W10121   2.658  22.747   2.303
37054W        W10122   6.735  14.487  11.913
37055W        W10123  33.389  37.567   1.865
37056W        W10124  15.061  33.775  11.657
37057W        W10125  12.180  16.000   2.448
37058W        W10126   5.513  24.712   3.273
37059W        W10127  31.204  41.774   2.331
37060W        W10128  36.055  35.399   1.704
37061W        W10129  30.262  12.854  12.878
37062W        W10130  22.964   3.202   0.870
37063W        W10131   0.300  20.285  12.117
37064W        W10132   4.199  32.807  14.095
37065W        W10133  21.806  15.036   2.832
37066W        W10134  32.428  42.731  13.419
37067W        W10135  38.392   5.046  12.841
37068W        W10136   7.868  30.123  14.035
37069W        W10137  15.887  21.641   2.618
37070W        W10138  15.279  34.831  12.458
37071W        W10139  43.800  18.286   3.752
37072W        W10140  17.727  35.276   0.382
37073W        W10141  11.119  34.680   4.081
37074W        W10142  44.740  14.512   0.328
37075W        W10143  17.206  25.667   2.953
37076W        W10144  10.231  21.984   1.456
37077W        W10145  40.981  40.897  14.852
37078W        W10146  27.133  17.585   3.257
37079W        W10147  38.332  20.791  14.561
37080W        W10148  40.596  34.842   4.966
37081W        W10149  17.743  10.440   1.349
37082W        W10150  44.946  19.639   4.569
37083W        W10151  15.156  28.142   0.172
37084W        W10152  15.806   5.643   1.780
37085W        W10153  41.249  30.061  12.963
37086W        W10154  29.718   3.928  11.604
37087W        W10155  27.346  23.568   4.695
37088W        W10156  26.870   6.710  12.520
37089W        W10157  27.890   3.944  13.832
37090W        W10158   2.962  38.407   0.655
37091W        W10159  17.880  34.152   3.794
37092W        W10160   9.942  43.099   1.810
37093W        W10161   1.991   4.389  12.836
37094W        W10162  11.465  12.963   0.866
37095W        W10163  16.936  34.084  13.022
37096W        W10164   7.242  35.611  14.826
37097W        W10165  36.335   2.239  11.111
37098W        W10166  38.338  21.741   4.956
37099W        W10167  36.612  27.089  11.099
37100W        W10168  17.392  23.562   2.735
37101W        W10169  41.926  41.615  11.554
37102W        W10170  17.638  31.887   3.664
37103W        W10171  44.332  42.029   4.292
37104W        W10172  35.984  32.691   2.783
37105W        W10173  41.108  41.771  11.608
37106W        W10174  13.251  12.520  10.714
37107W        W10175  12.383   9.318  12.519
37108W        W10176  24.237  21.144   4.175
37109W        W10177   3.273  34.855  12.849
37110W        W10178   1.940  32.395  11.652
37111W        W10179  32.451  10.349   1.797
37112W        W10180   6.786  37.340   2.760
37113W        W10181  32.094   5.578   4.687
37114W        W10182  40.314  15.607  14.356
37115W        W10183  38.303  42.170   0.799
37116W        W10184  16.842  22.260  13.263
37117W        W10185  32.638  23.111  13.056
37118W        W10186   9.281  23.408  13.778
37119W        W10187  37.878   3.322   2.411
37120W        W10188   6.433  22.307  12.068
37121W        W10189   8.632  28.120  13.765
37122W        W10190   5.304  42.327  13.940
37123W        W10191  15.327  21.292  12.984
37124W        W10192   0.081  23.127   1.882
37125W        W10193  17.205   5.203   2.817
37126W        W10194  38.024  26.168   4.259
37127W        W10195  43.537  30.402  14.840
37128W        W10196  18.175  32.455   0.269
37129W        W10197  38.324  38.454   4.230
37130W        W10198  30.633  16.143   2.109
37131W        W10199   8.668  37.390   5.091
37132W        W10200  15.756  36.010  14.929
37133W        W10201  14.140  32.599   1.958
37134W        W10202  30.845  14.423  14.913
37135W        W10203  10.441   4.348  10.189
37136W        W10204  20.090  24.482  13.114
37137W        W10205  28.543   8.446  11.122
37138W        W10206  19.819   6.104   0.863
37139W        W10207  36.153  35.470  13.485
37140W        W10208  41.175   3.934  10.639
37141W        W10209  26.025   4.313  11.962
37142W        W10210  15.639   1.990  11.154
37143W        W10211  32.023  22.835  14.353
37144W        W10212   0.510   5.895  11.679
37145W        W10213  30.148  11.251  14.047
37146W        W10214  42.985  10.041  12.187
37147W        W10215   7.575  31.988   2.874
37148W        W10216   3.364  42.489   2.393
37149W        W10217  16.070  37.578   0.484
37150W        W10218  17.224   9.811  11.626
37151W        W10219  10.757  34.857   1.870
37152W        W10220  41.623  34.548  14.985
37153W        W10221  10.642   0.450  10.762
37154W        W10222  26.956  15.290   0.316
37155W        W10223  34.907  37.376   0.285
37156W        W10224   4.294  44.824  14.018
37157W        W10225  31.257  32.708   3.745
37158W        W10226  24.412  10.179  14.991
37159W        W10227  11.863  11.056   4.135
37160W        W10228   4.889   9.602  14.370
37161W        W10229  21.648   0.892   2.616
37162W        W10230  20.750  17.375  12.429
37163W        W10231  39.506  22.950  12.860
37164W        W10232  21.109  34.378  14.031
37165W        W10233  16.350  37.322  14.727
37166W        W10234  41.692  28.670  11.794
37167W        W10235   9.925  30.658   3.055
37168W        W10236  22.151  34.255   1.345
37169W        W10237  25.036  23.684   0.429
37170W        W10238  36.892  22.108   2.152
37171W        W10239   1.755  11.910  13.430
37172W        W10240  38.369  12.445  14.393
37173W        W10241   2.703  42.573  13.938
37174W        W10242  33.822   1.024   1.796
37175W        W10243  23.848  39.579  11.121
37176W        W10244  13.709   9.467   3.339
37177W        W10245   0.894  36.386  12.334
37178W        W10246  44.460   4.880  10.333
37179W        W10247  12.417  37.875   4.588
37180W        W10248   9.265  11.393  11.555
37181W        W10249   3.201  21.002   4.528
37182W        W10250   0.496  26.424  12.940
37183W        W10251  19.123  20.161   4.577
37184W        W10252  37.867  30.767   1.856
37185W        W10253  18.241  36.592  13.606
37186W        W10254   4.800  39.762   2.869
37187W        W10255  38.071  19.628  11.270
37188W        W10256   2.893  27.653  13.347
37189W        W10257  28.644  29.796   1.709
37190W        W10258  25.221  10.184   2.384
37191W        W10259  24.137  11.107  14.409
37192W        W10260  17.166  38.995   3.694
37193W        W10261  19.601   5.921  11.585
37194W        W10262  21.736  18.665  11.552
37195W        W10263   0.298  26.793  12.432
37196W        W10264   7.330  41.195  13.526
37197W        W10265  39.276  16.659   3.657
37198W        W10266   8.046   0.052  12.009
37199W        W10267  30.975  34.562  14.550
37200W        W10268  18.621  16.498  11.879
37201W        W10269  31.445   0.655   0.769
37202W        W10270  35.576  11.373   3.836
37203W        W10271  35.957  11.762   0.871
37204W        W10272   3.431  23.681  11.970
37205W        W10273  22.022  22.236   2.287
37206W        W10274  15.636  37.937   0.795
37207W        W10275  39.498   7.132   2.813
37208W        W10276  30.981   9.834   3.065
37209W        W10277   1.802  35.265  12.901
37210W        W10278  41.245   9.253  12.841
37211W        W10279  39.847   8.695  14.452
37212W        W10280  40.875   5.493  14.909
37213W        W10281  28.526  34.969  13.431
37214W        W10282  44.932  27.862   3.712
37215W        W10283  34.061  29.596   0.490
37216W        W10284  19.450   5.252   0.448
37217W        W10285  33.391  22.193  11.522
37218W        W10286  43.060  39.536   1.396
37219W        W10287  23.797  40.509   2.675
37220W        W10288  29.317  42.466   3.528
37221W        W10289   4.210   0.388   2.644
37222W        W10290   2.984  24.288   3.878
37223W        W10291   9.050  39.536  11.992
37224W        W10292  13.069  12.930  12.068
37225W        W10293  27.608  40.935   4.152
37226W        W10294  31.586  27.610   4.385
37227W        W10295  30.973  37.609   2.773
37228W        W10296  40.246  14.549  13.245
37229W        W10297  34.331  44.531  14.038
37230W        W10298  15.096  32.386  14.522
37231W        W10299  36.501  44.837   3.006
37232W        W10300  37.977  19.167   3.827
37233W        W10301  35.803  30.192  14.432
37234W        W10302  18.620  34.406   5.214
37235W        W10303  39.057  33.421   2.337
37236W        W10304   6.322  42.454  14.800
37237W        W10305  31.332  23.287   0.432
37238W        W10306  13.822   2.795   1.771
37239W        W10307   8.217  41.321   3.156
37240W        W10308  24.656  16.125  13.804
37241W        W10309   0.184  29.479  10.502
37242W        W10310  31.089  29.562   3.993
37243W        W10311  30.231   8.687  12.475
37244W        W10312  36.676  44.027   1.458
37245W        W10313   1.147  31.711  12.072
37246W        W10314  13.872   2.116  14.758
37247W        W10315  20.250  27.483   4.140
37248W        W10316   9.221  21.717   1.936
37249W        W10317  38.496  41.927   3.440
37250W        W10318   9.860  42.802   1.391
37251W        W10319  34.306  25.964   2.245
37252W        W10320  38.075  40.501   4.185
37253W        W10321  21.703  14.202   3.329
37254W        W10322  27.642   1.782   0.497
37255W        W10323  13.300   4.371  14.469
37256W        W10324   6.185  39.894   2.735
37257W        W10325  14.607  22.657  14.938
37258W        W10326  14.432  33.207   5.041
37259W        W10327   4.682   1.960   3.698
37260W        W10328   2.031  42.883   3.638
37261W        W10329  12.834   9.851  14.423
37262W        W10330   0.792   4.748   4.051
37263W        W10331  42.989  19.978  10.759
37264W        W10332   7.257  22.837  11.884
37265W        W10333  34.080   4.403   1.177
37266W        W10334  25.191   3.588   4.755
37267W        W10335   7.824  40.287  12.558
37268W        W10336  23.174   3.025  12.371
37269W        W10337   5.392  10.138   2.905
37270W        W10338   3.878  44.919   3.620
37271W        W10339   5.027   8.834  12.431
37272W        W10340  20.796  25.406  14.922
37273W        W10341  13.179   0.243   3.699
37274W        W10342   7.925   4.831   1.377
37275W        W10343  23.925  21.624  12.398
37276W        W10344   5.492  29.458   0.472
37277W        W10345  17.188   6.598  12.875
37278W        W10346  39.973  33.385   0.365
37279W        W10347  11.733  33.926  12.043
37280W        W10348  13.828  24.112   0.162
37281W        W10349  10.215  20.167  12.370
37282W        W10350   5.931   1.730   1.274
37283W        W10351  31.897  25.756  11.462
37284W        W10352  24.800  16.289  14.862
37285W        W10353  33.902   8.194  11.317
37286W        W10354  36.830  38.020  13.935
37287W        W10355  27.345  26.436   0.879
37288W        W10356  28.590  21.951   1.706
37289W        W10357  41.025   2.444  10.719
37290W        W10358  26.970  30.855   4.268
37291W        W10359   4.251  39.866   2.769
37292W        W10360   5.642  33.576  12.011
37293W        W10361   0.017   9.740   4.733
37294W        W10362  20.136  33.023   3.802
37295W        W10363  40.852  35.062  13.094
37296W        W10364   1.057  29.452   3.195
37297W        W10365   5.754  18.798   2.805
37298W        W10366  30.223  22.754  10.667
37299W        W10367  12.774  42.007  13.267
37300W        W10368  36.516   2.092   2.288
37301W        W10369  22.514  12.692   1.388
37302W        W10370  39.271  10.582  12.372
37303W        W10371  12.225  23.539  13.670
37304W        W10372  16.911  14.283   3.758
37305W        W10373  38.619  20.440  14.841
37306W        W10374   8.666  22.226   3.310
37307W        W10375  40.883  32.056  10.605
37308W        W10376  23.508   6.731  11.483
37309W        W10377  13.757  30.632  10.335
37310W        W10378  27.666  22.976   1.441
37311W        W10379  39.241  38.296   2.198
37312W        W10380  10.644   3.876  13.565
37313W        W10381  25.724  36.085   1.934
37314W        W10382  37.739   0.198  11.794
37315W        W10383  11.714  12.593   1.431
37316W        W10384  39.108  26.523  14.856
37317W        W10385  38.031  10.223   1.599
37318W        W10386   7.930   2.058  12.439
37319W        W10387  42.216  38.901   4.535
37320W        W10388  44.784  26.955  13.334
37321W        W10389  35.168  12.966   2.124
37322W        W10390   8.787  26.654   0.853
37323W        W10391  23.413   9.760   2.740
37324W        W10392  34.819   2.888  10.624
37325W        W10393  25.303   0.442  13.940
37326W        W10394  11.826  44.489  12.332
37327W        W10395  11.565   9.118  12.974
37328W        W10396  40.836  44.438   4.376
37329W        W10397   8.893  22.609  14.275
37330W        W10398  13.199  11.422  13.998
37331W        W10399  25.398  31.501   0.906
37332W        W10400  10.398   1.938  12.037
37333W        W10401  17.638  31.980   2.816
37334W        W10402  12.165   6.432  13.404
37335W        W10403  37.616  10.729   4.437
37336W        W10404  36.362   9.795   4.758
37337W        W10405  39.020  41.554   1.691
37338W        W10406  26.699  32.728  13.747
37339W        W10407   0.972  20.268   2.746
37340W        W10408  39.631  21.631  11.977
37341W        W10409   0.877  16.113   2.915
37342W        W10410  30.723  11.644  11.119
37343W        W10411  30.520  21.083   1.538
37344W        W10412   3.863  25.561  14.247
37345W        W10413  30.492  25.183  14.947
37346W        W10414  30.723  12.933   4.190
37347W        W10415  17.795  14.357   3.217
37348W        W10416  27.043  13.397   0.844
37349W        W10417  35.841   9.754   3.392
37350W        W10418   5.778  40.043  12.437
37351W        W10419  13.345   2.917  14.305
37352W        W10420  36.430  23.841   2.668
37353W        W10421  19.724  18.311  11.983
37354W        W10422  11.703  41.219  12.644
37355W        W10423  30.731  20.744  12.588
37356W        W10424  34.481  19.538  14.466
37357W        W10425   2.982  23.794  10.848
37358W        W10426  17.110   5.686   4.059
37359W        W10427  38.099  21.885   3.185
37360W        W10428   6.279   1.928  11.712
37361W        W10429   5.694   4.857   2.316
37362W        W10430  40.519  22.040  12.913
37363W        W10431  12.892  28.582  14.873
37364W        W10432  40.273  34.801  12.393
37365W        W10433  30.260  33.626   3.836
37366W        W10434  15.823   8.890   4.359
37367W        W10435  29.663  35.926   3.730
37368W        W10436  34.468  33.958   1.665
37369W        W10437  14.721  38.454  12.001
37370W        W10438   7.508  17.988   0.869
37371W        W10439  19.610   3.632   4.101
37372W        W10440  32.096  23.537   1.771
37373W        W10441  22.113  24.174  13.108
37374W        W10442  12.228  21.964  12.880
37375W        W10443  11.692  23.825  11.565
37376W        W10444  19.262  26.491  10.757
37377W        W10445  40.846  13.345   4.557
37378W        W10446  34.567   9.665  14.516
37379W        W10447  15.652   0.501  12.516
37380W        W10448  25.253  29.108  12.009
37381W        W10449  35.180  43.408  13.026
37382W        W10450   8.893  43.388  14.070
37383W        W10451  26.598   6.892   5.065
37384W        W10452  16.280  33.425   2.278
37385W        W10453  30.268  10.841  10.915
37386W        W10454  28.949  41.738   1.756
37387W        W10455  20.777  33.167  13.340
37388W        W10456  25.754  40.957  11.662
37389W        W10457  24.158   9.629   4.333
37390W        W10458   5.375  24.904   2.654
37391W        W10459  15.384  33.687   3.578
37392W        W10460  30.924  39.890   4.519
37393W        W10461   6.364  41.942   4.341
37394W        W10462  24.998   0.910  14.030
37395W        W10463  34.841   1.156   4.727
37396W        W10464  38.153   7.642   2.672
37397W        W10465  35.299  32.801  12.923
37398W        W10466  26.970  32.900  10.707
37399W        W10467   8.756  22.748  10.314
37400W        W10468  17.244  12.018  11.101
37401W        W10469  24.438  25.401   0.197
37402W        W10470  37.593   3.872   1.655
37403W        W10471  35.043  44.819   4.848
37404W        W10472  35.646  32.823   1.255
37405W        W10473  34.447   7.217   3.613
37406W        W10474  23.469   5.615   0.156
37407W        W10475  20.817   8.660  11.140
37408W        W10476  31.113   2.330  14.868
37409W        W10477  23.027  15.741  11.442
37410W        W10478  18.327   7.747  10.710
37411W        W10479   5.955  14.656  13.409
37412W        W10480   5.250  41.854  13.130
37413W        W10481  34.207   7.931   0.326
37414W        W10482  14.250   8.893  14.441
37415W        W10483   9.887  13.552  12.651
37416W        W10484  10.175  12.045   2.850
37417W        W10485  10.020  21.687   2.457
37418W        W10486   0.915  11.758   4.138
37419W        W10487  17.475  15.668   4.580
37420W        W10488  29.060  11.343   3.291
37421W        W10489   1.959  18.464  14.393
37422W        W10490   5.957  26.983  14.983
37423W        W10491   5.421   0.708  14.805
37424W        W10492  17.568  32.492   3.475
37425W        W10493  40.773   6.546   4.593
37426W        W10494  30.020   0.496   0.789
37427W        W10495   9.117  26.994  13.611
37428W        W10496  36.321   9.789   3.222
37429W        W10497  40.561  12.236   0.434
37430W        W10498  13.587   0.388   0.904
37431W        W10499  17.800   4.136   4.313
37432W        W10500  26.263   0.667   2.872
37433W        W10501  35.513  16.816   1.405
37434W        W10502  31.305  39.224  10.219
37435W        W10503  42.970  18.248   1.912
37436W        W10504   7.378  25.548   3.693
37437W        W10505  37.493  39.319   2.218
37438W        W10506  15.575  16.433   0.432
37439W        W10507  10.900  32.124   2.736
37440W        W10508  37.177  26.231   2.815
37441W        W10509  20.093  26.137   0.849
37442W        W10510  30.029  29.926   2.648
37443W        W10511  28.564   4.645  14.868
37444W        W10512  19.519  43.501  13.360
37445W        W10513  42.289  18.078  12.601
37446W        W10514  30.096  17.084   4.721
37447W        W10515  16.316  24.985  12.920
37448W        W10516  17.374  19.800   2.192
37449W        W10517  11.254  33.584  10.525
37450W        W10518  41.045   9.108  14.884
37451W        W10519   9.309  23.474   0.725
37452W        W10520  31.431  16.098  14.393
37453W        W10521   0.401  26.448   4.593
37454W        W10522  41.487   7.176  11.996
37455W        W10523  41.502  11.100   3.196
37456W        W10524  28.952  28.855  12.806
37457W        W10525  42.890  20.115   5.033
37458W        W10526  43.618  41.332   4.098
37459W        W10527  30.492  32.318   3.972
37460W        W10528   0.883  12.177  12.936
37461W        W10529  23.265   2.320   2.818
37462W        W10530   4.326  14.773  14.454
37463W        W10531  14.992  35.577   0.839
37464W        W10532  11.130  29.762   2.240
37465W        W10533   3.058  23.063   4.206
37466W        W10534   6.514  42.306  13.375
37467W        W10535  30.685  32.560   0.234
37468W        W10536  13.373  37.415   1.167
37469W        W10537  18.295   7.446  11.159
37470W        W10538   2.589  31.067   1.420
37471W        W10539  32.414  13.730   2.505
37472W        W10540  29.473  12.450  11.160
37473W        W10541   6.915   8.356  10.601
37474W        W10542   1.888  22.633  13.514
37475W        W10543   8.361   3.331  14.759
37476W        W10544  35.282   1.251  11.308
37477W        W10545  40.920  32.641   3.380
37478W        W10546  18.086  23.043  11.510
37479W        W10547  21.192   7.833   3.790
37480W        W10548   2.767  20.580   3.779
37481W        W10549  10.196   6.917  11.010
37482W        W10550  17.517  34.409   2.920
37483W        W10551  12.264  10.431  13.004
37484W        W10552   1.404  31.504   1.315
37485W        W10553  14.652  16.853  13.352
37486W        W10554  31.624  35.324  13.802
37487W        W10555   0.874  44.857  14.083
37488W        W10556  31.936   4.398  13.373
37489W        W10557  22.067   5.462  14.836
37490W        W10558   2.932  22.616   1.196
37491W        W10559  26.723  39.080  12.950
37492W        W10560  40.296  25.341   4.192
37493W        W10561  41.884  26.540  10.507
37494W        W10562  30.396  28.527  13.882
37495W        W10563  11.328  18.326   4.974
37496W        W10564  24.075  17.137   1.861
37497W        W10565  14.805  15.527  14.934
37498W        W10566  17.910  14.837  12.634
37499W        W10567  25.068   7.163   0.424
37500W        W10568  16.376  23.909   1.759
37501W        W10569  40.469   6.873  11.954
37502W        W10570  29.604  12.242  10.713
37503W        W10571   3.873  36.319   2.181
37504W        W10572   1.588   6.283  14.869
37505W        W10573  23.202  25.253  13.079
37506W        W10574   5.297  35.067   3.826
37507W        W10575  19.071   8.313   2.131
37508W        W10576   5.601  14.392  14.356
37509W        W10577  13.252  24.014  14.307
37510W        W10578   7.230  15.808  13.045
37511W        W10579   3.302  36.909   2.127
37512W        W10580  25.457   1.641   3.247
37513W        W10581  36.149  31.040  13.948
37514W        W10582  34.645  30.142  12.093
37515W        W10583  43.906   6.111   3.319
37516W        W10584  28.200  23.515  11.533
37517W        W10585  10.068  38.290  13.805
37518W        W10586  27.236  21.671   2.264
37519W        W10587  12.252  15.122  13.902
37520W        W10588  14.290   6.961   2.220
37521W        W10589  22.323  16.604   5.032
37522W        W10590  24.406  39.849  13.473
37523W        W10591  42.538  27.687  11.199
37524W        W10592  28.230   0.836   5.170
37525W        W10593  19.108  19.606  11.986
37526W        W10594  17.120  17.938   2.012
37527W        W10595  25.675  44.030  14.768
37528W        W10596  37.765  44.824  11.447
37529W        W10597   1.974  35.915   1.373
37530W        W10598   3.312  12.246  12.865
37531W        W10599  38.968  13.295   1.773
37532W        W10600  10.919  33.007  12.468
37533W        W10601   2.386  19.284  11.666
37534W        W10602  41.733  13.788  10.313
37535W        W10603   9.898   3.409   4.463
37536W        W10604  14.048   3.336   2.759
37537W        W10605  31.117  13.327   0.915
37538W        W10606  13.901   3.408  13.418
37539W        W10607  29.340  28.617   3.704
37540W        W10608   4.904  16.049   2.662
37541W        W10609  42.905  44.347  10.625
37542W        W10610  10.579  23.080   1.627
37543W        W10611  24.031  12.623  14.338
37544W        W10612  41.813   3.435   4.423
37545W        W10613   0.367  21.081   2.212
37546W        W10614   9.435  34.568   2.074
37547W        W10615   0.339   0.064  13.364
37548W        W10616  20.807  40.217   2.422
37549W        W10617  36.862   4.981   0.708
37550W        W10618  26.249  21.628  12.069
37551W        W10619   9.855  42.471  14.394
37552W        W10620   5.092  23.723   3.044
37553W        W10621  37.176  29.390  13.806
37554W        W10622  37.785  16.019   3.671
37555W        W10623  10.257  31.409  11.193
37556W        W10624  27.618  36.815  14.485
37557W        W10625   0.815  17.585  14.840
37558W        W10626  39.306   2.909   3.968
37559W        W10627  43.597  23.026   2.745
37560W        W10628   6.490  32.697  14.480
37561W        W10629   4.249  24.157   3.248
37562W        W10630  33.929  15.665  11.423
37563W        W10631  12.446  36.523  13.537
37564W        W10632  17.582  44.803   0.731
37565W        W10633  22.885   2.700  13.365
37566W        W10634   2.240   8.045  13.498
37567W        W10635   1.793  42.986   1.777
37568W        W10636  32.684  22.257  13.485
37569W        W10637  22.236  30.224   4.559
37570W        W10638  33.605  13.799   4.204
37571W        W10639  31.457  42.374  10.976
37572W        W10640   2.836  15.864  14.565
37573W        W10641  42.423  23.336  10.660
37574W        W10642   0.441  35.148  12.394
37575W        W10643  37.816  28.652  12.553
37576W        W10644  39.984  23.142  14.045
37577W        W10645  10.733  19.699  11.877
37578W        W10646  42.395  14.512  12.529
37579W        W10647   0.816  31.562  14.243
37580W        W10648  36.867   3.644   4.633
37581W        W10649   8.828   9.918  13.801
37582W        W10650  15.350  21.123  13.925
37583W        W10651  23.068   4.323   1.797
37584W        W10652  24.599  15.548   3.120
37585W        W10653  41.492  16.109   4.236
37586W        W10654   1.325  16.117   0.355
37587W        W10655   4.237  32.028   3.179
37588W        W10656  23.022  39.239   3.698
37589W        W10657   1.312  18.409  13.754
37590W        W10658  11.095  22.476  11.460
37591W        W10659  35.882  26.939  13.067
37592W        W10660  26.490  35.917   3.661
37593W        W10661  28.880  20.067   2.711
37594W        W10662  31.071   6.230   4.181
37595W        W10663  33.022   3.473   2.292
37596W        W10664  10.593  25.083   0.666
37597W        W10665   4.219  42.027   2.693
37598W        W10666  13.341  29.564  14.916
37599W        W10667  14.150  17.358   0.771
37600W        W10668   4.380  43.372   3.171
37601W        W10669  31.137  22.525  13.508
37602W        W10670  14.737  39.575   2.390
37603W        W10671   7.055  12.397  12.369
37604W        W10672  25.947   4.048  12.418
37605W        W10673   7.578  16.304   0.762
37606W        W10674  25.593  31.129  11.648
37607W        W10675  16.576   2.966  13.398
37608W        W10676  22.181   1.046  14.116
37609W        W10677  28.352  42.058   0.488
37610W        W10678  30.559  36.603   2.906
37611W        W10679   2.106  42.641   4.674
37612W        W10680   1.662  12.737  14.409
37613W        W10681  12.727  30.364   0.493
37614W        W10682  30.965   6.665  12.448
37615W        W10683  10.804  42.184   4.653
37616W        W10684  22.046  18.754  11.942
37617W        W10685  24.946  17.068   1.708
37618W        W10686   7.918  28.720  11.743
37619W        W10687  23.192   4.747  11.069
37620W        W10688  27.402   7.144   4.636
37621W        W10689  44.013   8.957  12.093
37622W        W10690  25.171  38.859   0.204
37623W        W10691   2.496   3.930   4.488
37624W        W10692  21.436  24.950  12.430
37625W        W10693  29.086   8.252   3.395
37626W        W10694  20.280  37.405  13.091
37627W        W10695  12.158  35.527  10.790
37628W        W10696  38.865  43.713   1.394
37629W        W10697  29.611  31.651   4.143
37630W        W10698  13.202  24.027   0.800
37631W        W10699  42.391   4.990   3.612
37632W        W10700  20.324  28.862  14.288
37633W        W10701  36.261  37.931  10.657
37634W        W10702  24.113   7.330  12.009
37635W        W10703  30.533  29.005  10.746
37636W        W10704  31.295  42.406  14.917
37637W        W10705  19.846  44.624   4.124
37638W        W10706  21.092  42.017  12.657
37639W        W10707  25.404  15.168  12.046
37640W        W10708   5.909  42.079   4.077
37641W        W10709   2.919   1.814   3.154
37642W        W10710  21.589   7.713  13.362
37643W        W10711  22.468  31.970  12.054
37644W        W10712  19.614  17.625   0.498
37645W        W10713  10.247   0.980   1.906
37646W        W10714  20.340   8.516  11.228
37647W        W10715  38.610  37.067  13.758
37648W        W10716  27.051   0.596  13.959
37649W        W10717  10.886  30.585   0.258
37650W        W10718  17.354  15.733   2.765
37651W        W10719  40.739  28.168  10.557
37652W        W10720  36.246  33.996  13.408
37653W        W10721  40.515  19.675   0.393
37654W        W10722  16.247  28.257   0.927
37655W        W10723  31.122   8.179   2.532
37656W        W10724   8.014  21.244   2.288
37657W        W10725  30.775  30.724   4.119
37658W        W10726   8.143  30.663  14.382
37659W        W10727   8.947  38.844  12.060
37660W        W10728   1.977  16.796   3.762
37661W        W10729   2.939  11.590   3.304
37662W        W10730   8.416  23.307   0.770
37663W        W10731  35.857  35.293   0.319
37664W        W10732  12.998  41.554  14.009
37665W        W10733   9.265  21.212   3.717
37666W        W10734  14.707   9.257   1.373
37667W        W10735  33.604  20.685   0.489
37668W        W10736  32.646  33.045  14.385
37669W        W10737  41.677  16.085   5.605
37670W        W10738  11.091   9.709   0.782
37671W        W10739  21.278  37.083   2.714
37672W        W10740  37.771  19.487   1.120
37673W        W10741  42.420  10.947   2.860
37674W        W10742  44.230   8.376  11.541
37675W        W10743  34.821  27.688  11.285
37676W        W10744   7.004   3.419   0.722
37677W        W10745  17.302  22.155  13.018
37678W        W10746  34.891  17.654   3.245
37679W        W10747  26.680  17.864   3.233
37680W        W10748  17.664   2.216   1.556
37681W        W10749  16.486  16.254  11.094
37682W        W10750   1.075  43.530  11.925
37683W        W10751  27.206  21.865   4.135
37684W        W10752   2.792  35.654  11.841
37685W        W10753  42.816  30.893   0.244
37686W        W10754  35.532   0.019   1.469
37687W        W10755  40.828  13.883  14.800
37688W        W10756  14.359  43.980  13.824
37689W        W10757  11.686   2.587   3.583
37690W        W10758   4.946  34.345  12.622
37691W        W10759  42.821  13.573   3.664
37692W        W10760  21.900   8.415   0.743
37693W        W10761  24.380  16.377   5.476
37694W        W10762  41.517  29.518   3.082
37695W        W10763  20.391  19.516  13.938
37696W        W10764  20.192  26.189   4.583
37697W        W10765  44.005  22.643  12.716
37698W        W10766  37.810  35.633   4.206
37699W        W10767  12.803  33.776   0.220
37700W        W10768   0.312   6.826  13.646
37701W        W10769   2.785   8.787   2.208
37702W        W10770  30.435  30.640  13.967
37703W        W10771   9.226   8.825  13.599
37704W        W10772  35.299  43.752   2.685
37705W        W10773  33.329  27.140  12.069
37706W        W10774  44.699  37.065   1.481
37707W        W10775  26.963  29.976  11.980
37708W        W10776  24.902   5.309   2.186
37709W        W10777  22.171  33.512   4.003
37710W        W10778  13.716   9.222   4.588
37711W        W10779  14.150  31.500   4.327
37712W        W10780  18.796   3.302   0.069
37713W        W10781  16.900  32.145  14.241
37714W        W10782  13.833  26.018   3.170
37715W        W10783   4.711   2.187   1.652
37716W        W10784  27.968  29.175  11.599
37717W        W10785  32.070  17.682  13.810
37718W        W10786  28.674   3.902   4.143
37719W        W10787  40.264  20.007  13.007
37720W        W10788  41.424   4.126  11.956
37721W        W10789  11.662  15.171   2.212
37722W        W10790  14.225  44.194   9.959
37723W        W10791   7.927  16.769  12.409
37724W        W10792  25.730  25.099   5.055
37725W        W10793   1.059  34.174   2.763
37726W        W10794  24.526  44.426   2.277
37727W        W10795  23.082  23.529  12.802
37728W        W10796  40.256  30.776   1.727
37729W        W10797   4.019   8.184  14.536
37730W        W10798  38.609  34.046   1.251
37731W        W10799  27.481   7.133   1.762
37732W        W10800  26.063  41.330   3.480
37733W        W10801  35.491  18.296  12.005
37734W        W10802  18.464  38.988   2.454
37735W        W10803  43.521  25.508  14.253
37736W        W10804  35.716  14.813   3.542
37737W        W10805   3.903  24.470  13.443
37738W        W10806  31.620  18.964   1.794
37739W        W10807  40.088  22.425  10.681
37740W        W10808  32.140  21.194  14.025
37741W        W10809  24.499  40.004   2.500
37742W        W10810  34.317   2.232   1.127
37743W        W10811  35.768   1.486   0.797
37744W        W10812   7.827   5.853   1.771
37745W        W10813  32.926   0.463  12.535
37746W        W10814   4.192  21.917  12.408
37747W        W10815  25.086  35.005   2.988
37748W        W10816  43.981  35.979  11.622
37749W        W10817  32.022  27.023  12.685
37750W        W10818  16.052  43.661  14.968
37751W        W10819  29.012   7.624  14.813
37752W        W10820  33.543   4.916   0.226
37753W        W10821   7.201  37.785  13.305
37754W        W10822  22.178  39.069   3.830
37755W        W10823  26.146  25.135   3.279
37756W        W10824  38.951  27.066   0.783
37757W        W10825  13.430  17.444   0.720
37758W        W10826  30.096   8.395  13.994
37759W        W10827   4.716  11.219  11.353
37760W        W10828   4.656   5.253   4.294
37761W        W10829  29.368   4.981   0.338
37762W        W10830  24.545  34.914  13.088
37763W        W10831  40.567  37.012  14.824
37764W        W10832   7.058   7.247  14.558
37765W        W10833   5.174   8.510  13.261
37766W        W10834  43.750  43.067   3.642
37767W        W10835  17.052   7.246   1.766
37768W        W10836  41.540   5.338   0.384
37769W        W10837  18.151  33.566   2.211
37770W        W10838  39.935  32.023   0.863
37771W        W10839   0.727  41.396  14.405
37772W        W10840  22.232  40.265  12.803
37773W        W10841  21.299  36.817   3.688
37774W        W10842  11.264   2.765   4.836
37775W        W10843  20.486  28.402  12.072
37776W        W10844   2.442  27.869  13.555
37777W        W10845  41.824  43.286   2.820
37778W        W10846  40.245  34.398  14.617
37779W        W10847  25.553  27.609  13.956
37780W        W10848  18.156  17.537   0.263
37781W        W10849  30.911  30.006   2.370
37782W        W10850  16.184  18.823  13.859
37783W        W10851  30.165   7.715   4.676
37784W        W10852  21.608  43.909   5.017
37785W        W10853  22.554   5.707  10.680
37786W        W10854  43.564   3.914   3.216
37787W        W10855  35.631   9.004   0.208
37788W        W10856  43.558  38.900  13.317
37789W        W10857   8.585   8.341  14.754
37790W        W10858   3.762  36.435   4.242
37791W        W10859  17.956  37.314  12.784
37792W        W10860   3.005  40.605  11.072
37793W        W10861  44.576   6.126  11.918
37794W        W10862   2.368  23.352   1.483
37795W        W10863  11.066  18.140  11.480
37796W        W10864  21.817  41.757  12.087
37797W        W10865  13.426  37.379   4.027
37798W        W10866  34.220  24.969   1.376
37799W        W10867   8.227  35.904  14.456
37800W        W10868   3.712  35.195   3.699
37801W        W10869  11.483  37.921  11.263
37802W        W10870   5.825  16.614   3.203
37803W        W10871  10.811   7.761   4.581
37804W        W10872  38.902  42.755  10.775
37805W        W10873  42.224  15.778   4.241
37806W        W10874  11.850  23.621   1.869
37807W        W10875   7.694   3.405   4.203
37808W        W10876  13.575  27.476   4.031
37809W        W10877  31.284  13.601  13.626
37810W        W10878   9.828  12.234  12.759
37811W        W10879  20.184  41.935  12.804
37812W        W10880  19.712   7.767  14.085
37813W        W10881  25.684  29.068  13.440
37814W        W10882  43.253   1.340   2.627
37815W        W10883  31.951  31.088  14.205
37816W        W10884  18.414  12.255   0.169
37817W        W10885   6.939  12.060  10.675
37818W        W10886  23.534  16.061  13.511
37819W        W10887  37.402  25.779   3.112
37820W        W10888  32.956   1.611  12.449
37821W        W10889  41.417  42.829  11.031
37822W        W10890   8.440  38.366  14.427
37823W        W10891  34.225   9.701   0.943
37824W        W10892  19.029  34.413  14.335
37825W        W10893  11.897  10.647  11.644
37826W        W10894   6.606  13.877   0.618
37827W        W10895  17.563  30.985   1.874
37828W        W10896  43.407   7.450   1.622
37829W        W10897  37.349  19.011   0.345
37830W        W10898  21.652  12.013   2.831
37831W        W10899   8.795  43.017  13.675
37832W        W10900  23.283  36.922  12.471
37833W        W10901  34.339  20.271   1.458
37834W        W10902  14.668  14.833  11.194
37835W        W10903   4.893  17.017   0.190
37836W        W10904  14.800   6.788  14.362
37837W        W10905  11.325  25.413   3.190
37838W        W10906  29.665  39.354  10.932
37839W        W10907  21.416  24.863  13.326
37840W        W10908  34.400  18.200   0.421
37841W        W10909   8.309  42.656  11.135
37842W        W10910  26.590  18.527  14.372
37843W        W10911  20.502  21.860   0.861
37844W        W10912  44.657   9.300  12.502
37845W        W10913  19.143  25.119   0.840
37846W        W10914  15.541  13.420   4.172
37847W        W10915  31.628   3.680  14.951
37848W        W10916  38.330  38.318   3.731
37849W        W10917  19.795  10.296  13.391
37850W        W10918  22.196  29.540  14.411
37851W        W10919  20.339  17.233   3.117
37852W        W10920  17.088  31.441  14.386
37853W        W10921   5.836   9.899  12.485
37854W        W10922   9.493  17.039  11.449
37855W        W10923  13.488  17.520  12.199
37856W        W10924  15.657   6.711   2.123
37857W        W10925  29.094  29.670   1.489
37858W        W10926  16.777  17.005  13.342
37859W        W10927   2.875  19.963   4.302
37860W        W10928  15.707  24.253  14.790
37861W        W10929  42.342  30.544   4.657
37862W        W10930  21.490  31.888   0.212
37863W        W10931  15.433  41.640   3.386
37864W        W10932  21.805  20.184   3.435
37865W        W10933  19.619  35.468  12.545
37866W        W10934  23.020  10.804  11.492
37867W        W10935  24.962  13.736   0.981
37868W        W10936  17.843  26.701   1.788
37869W        W10937  12.352   1.316  10.692
37870W        W10938  18.663   0.991   4.514
37871W        W10939  22.927  23.018   3.958
37872W        W10940   5.247  35.826   4.370
37873W        W10941   3.827   3.982  13.930
37874W        W10942  18.088  20.762  14.608
37875W        W10943  43.756  39.272   1.812
37876W        W10944  39.504  27.646   2.716
37877W        W10945  29.994  15.139   4.953
37878W        W10946   7.595  10.224   4.599
37879W        W10947   6.610   5.476   3.719
37880W        W10948  34.977  42.533  11.744
37881W        W10949   9.214  10.130   3.148
37882W        W10950  19.581  39.481  14.316
37883W        W10951  42.936  40.423  14.541
37884W        W10952  22.040  11.747  12.896
37885W        W10953   8.112   4.822   3.736
37886W        W10954  39.641  32.199  14.917
37887W        W10955  37.490  14.726   4.989
37888W        W10956  15.295  13.817  10.644
37889W        W10957   0.847   9.293   4.738
37890W        W10958  31.474  25.912  11.078
37891W        W10959   1.799  39.415   3.718
37892W        W10960  21.979  14.313  11.321
37893W        W10961  44.895  23.152   1.373
37894W        W10962  19.711   0.729   4.516
37895W        W10963  37.849   6.555  11.720
37896W        W10964   1.289  34.096   3.212
37897W        W10965   1.526  13.240  11.526
37898W        W10966  12.230  20.846   1.240
37899W        W10967  27.879  37.817   2.707
37900W        W10968  32.313  43.381  14.203
37901W        W10969  43.232  41.982   3.236
37902W        W10970   3.218  14.510   5.054
37903W        W10971  41.199   5.372  12.363
37904W        W10972  32.996  14.538   2.704
37905W        W10973  42.993   1.725  14.276
37906W        W10974  13.078  10.109   1.809
37907W        W10975  32.382  26.662  12.996
37908W        W10976  36.407  12.725  14.431
37909W        W10977  20.156   3.979  11.036
37910W        W10978  11.695  10.349  14.481
37911W        W10979  31.019  37.563   3.746
37912W        W10980   3.287   3.810   1.372
37913W        W10981  13.877  35.144   4.625
37914W        W10982  17.351   3.609   0.368
37915W        W10983  37.882  35.458  12.053
37916W        W10984   5.201  41.282   0.469
37917W        W10985  35.065   8.181   3.705
37918W        W10986  33.175  34.637  11.585
37919W        W10987  13.679  18.914  10.669
37920W        W10988  14.759  43.706   0.378
37921W        W10989  36.662  43.998  12.069
37922W        W10990   9.381  23.890   3.382
37923W        W10991  26.227   9.068  13.034
37924W        W10992   3.525  19.494   0.397
37925W        W10993   6.518  44.024   0.457
37926W        W10994  21.628  40.202  11.559
37927W        W10995  17.375   3.019  13.942
37928W        W10996  38.140   6.002   4.676
37929W        W10997  18.743  36.002   4.450
37930W        W10998  14.441   6.226  13.182
37931W        W10999  28.169   3.863   4.032
37932W        W11000  36.148  44.460   2.962
37933W        W11001  38.243  34.909   4.393
37934W        W11002   3.449   4.304   2.812
37935W        W11003  20.898   7.724  14.418
37936W        W11004  23.204  12.985   4.058
37937W        W11005  24.184   0.613   4.217
37938W        W11006  15.151  20.377  11.882
37939W        W11007  43.731  14.771   1.141
37940W        W11008  23.473  14.559  12.529
37941W        W11009   0.537  31.676  13.002
37942W        W11010   8.386  17.699  12.870
37943W        W11011  27.457  42.404   1.570
37944W        W11012  23.764  16.275  11.808
37945W        W11013  21.348  29.726  11.673
37946W        W11014  15.731  20.876  12.333
37947W        W11015  16.515   7.241   0.218
37948W        W11016  18.841  35.587  12.887
37949W        W11017  14.547  13.622   1.449
37950W        W11018  13.286  34.595  14.176
37951W        W11019  27.260  40.584  10.281
37952W        W11020  22.036  29.644   0.857
37953W        W11021  11.905   9.335  14.784
37954W        W11022  11.858  18.746  12.505
37955W        W11023  13.296  40.059   1.142
37956W        W11024  18.282   4.845   1.540
37957W        W11025   3.462   4.253   1.120
37958W        W11026  25.535  21.004  12.999
37959W        W11027  13.214  13.254  14.834
37960W        W11028  36.015  25.281  10.953
37961W        W11029  40.527   1.027   0.271
37962W        W11030  26.427  39.036   4.265
37963W        W11031   6.701  25.182   0.412
37964W        W11032  16.658  35.604   3.681
37965W        W11033  23.886  39.044  13.011
37966W        W11034   8.771  39.380  11.000
37967W        W11035  22.062  18.790   4.258
37968W        W11036  21.836  12.732   0.283
37969W        W11037   1.849   6.697   1.755
37970W        W11038  30.548  43.369  13.726
37971W        W11039  11.741   6.628  13.921
37972W        W11040  19.081  34.677  12.872
37973W        W11041  19.351   6.383   4.335
37974W        W11042  26.289  22.332   3.239
37975W        W11043  28.164  26.621   2.818
37976W        W11044  14.571   7.905   2.560
37977W        W11045  16.686  33.685   4.018
37978W        W11046  27.589   3.400  11.191
37979W        W11047   6.143  40.805  13.545
37980W        W11048  25.047  10.080  12.800
37981W        W11049  18.535  27.836   0.296
37982W        W11050  18.213  41.113   4.746
37983W        W11051  24.092  23.656  12.099
37984W        W11052   4.646  30.272  10.477
37985W        W11053  25.746   1.929   1.279
37986W        W11054  15.936  18.686   3.388
37987W        W11055  41.936  34.430  12.196
37988W        W11056  39.602  20.259   3.165
37989W        W11057  38.913  17.097  14.220
37990W        W11058  23.547  42.906   1.762
37991W        W11059  17.222   0.296  13.469
37992W        W11060  41.942  27.504   0.914
37993W        W11061  15.043  19.272   4.330
37994W        W11062   9.472  32.885   0.640
37995W        W11063  25.060   7.915   4.091
37996W        W11064  10.180   1.438  12.101
37997W        W11065  39.336  18.244  10.954
37998W        W11066  15.241  32.430  11.590
37999W        W11067  32.076  22.213   3.115
38000W        W11068  40.220  40.355  11.170
38001W        W11069  28.123  42.733  14.864
38002W        W11070   8.385  22.608  12.058
38003W        W11071  12.170   4.405   2.624
38004W        W11072  33.188   7.834   1.090
38005W        W11073  26.052  21.725  14.547
38006W        W11074  37.090  13.321  12.058
38007W        W11075   6.780  12.579  13.897
38008W        W11076  41.494   3.664  12.198
38009W        W11077  19.740  28.032  10.514
38010W        W11078  14.408  17.560   2.582
38011W        W11079   9.051  44.054  11.270
38012W        W11080  11.292  27.649   3.635
38013W        W11081  42.330  32.372  11.450
38014W        W11082   9.994  30.357   0.405
38015W        W11083  37.023  40.123  12.272
38016W        W11084   5.254  39.526  13.866
38017W        W11085  44.027  35.385  13.969
38018W        W11086   5.862   0.353  10.713
38019W        W11087   5.339  13.358   1.251
38020W        W11088   2.870  40.467  13.933
38021W        W11089   0.256   2.402   3.041
38022W        W11090  25.994  21.627  10.668
38023W        W11091  18.460  40.456  10.370
38024W        W11092  33.055  19.375   1.497
38025W        W11093  36.899   7.448   0.710
38026W        W11094   8.730  29.034  14.857
38027W        W11095  27.589   1.826   4.621
38028W        W11096  25.876  17.098  11.159
38029W        W11097  27.887  28.407  11.227
38030W        W11098   8.590  40.913   0.822
38031W        W11099  11.726  38.288   1.974
38032W        W11100  15.998  30.386  13.539
38033W        W11101  23.625  27.968   4.364
38034W        W11102  25.203  34.924   3.893
38035W        W11103  41.860   8.099   0.502
38036W        W11104  28.976  10.671   3.693
38037W        W11105   5.656  10.732   0.383
38038W        W11106  37.863   4.044   3.264
38039W        W11107  17.545   5.337  13.379
38040W        W11108   6.109  14.670   4.377
38041W        W11109  17.664  30.574   0.202
38042W        W11110  39.106  39.283  13.646
38043W        W11111  22.565  31.404  10.650
38044W        W11112   4.823  36.446   0.665
38045W        W11113   3.779  31.401   0.051
38046W        W11114  42.319   5.062  10.815
38047W        W11115  15.023  22.436   1.213
38048W        W11116  23.676  16.322  10.553
38049W        W11117  33.071  29.069   0.054
38050W        W11118  39.042  31.807   2.784
38051W        W11119   3.376  43.314  10.647
38052W        W11120  37.017  20.028   2.822
38053W        W11121  33.233  18.290  10.672
38054W        W11122  39.164  37.830  13.410
38055W        W11123   0.755  35.300   0.552
38056W        W11124  19.060  26.932   2.255
38057W        W11125  33.401  16.233  10.572
38058W        W11126  28.198  27.724   2.213
38059W        W11127  30.908  33.073  14.000
38060W        W11128  17.985  17.662   4.655
38061W        W11129  36.820  11.347  13.444
38062W        W11130  11.161   0.051   1.823
38063W        W11131  36.326   6.833  14.501
38064W        W11132  32.487  25.048  11.616
38065W        W11133  27.717   6.246   1.737
38066W        W11134   6.780  20.646   0.267
38067W        W11135  38.983   1.272   4.719
38068W        W11136  13.583  21.135  14.372
38069W        W11137  40.848  42.531   0.962
38070W        W11138  42.933  33.170  14.361
38071W        W11139  37.455  12.363  11.360
38072W        W11140  24.574   1.171  12.401
38073W        W11141  31.466  28.627  13.725
38074W        W11142   1.908  11.710   0.472
38075W        W11143   0.217  26.545  11.977
38076W        W11144  36.687  35.316   0.890
38077W        W11145  18.161  13.569  10.390
38078W        W11146  43.511  41.591  10.385
38079W        W11147  33.630  29.941   2.739
38080W        W11148  35.326   6.664  13.872
38081W        W11149   1.042  38.130   0.305
38082W        W11150  18.001  40.318   1.802
38083W        W11151   4.239  15.090  13.982
38084W        W11152  10.430  31.653   1.398
38085W        W11153   3.341  11.421  11.697
38086W        W11154  30.237   8.672  11.611
38087W        W11155  26.577  19.106   4.793
38088W        W11156  17.584   7.296  12.537
38089W        W11157  23.724  41.355   2.659
38090W        W11158  38.654  17.622  10.558
38091W        W11159  41.891  16.514  12.969
38092W        W11160  18.618  34.162   1.189
38093W        W11161   4.675  20.581  13.608
38094W        W11162   4.553  42.444   3.077
38095W        W11163  34.413  28.378  13.015
38096W        W11164  31.421  30.328  14.710
38097W        W11165  29.659  14.256   2.536
38098W        W11166  24.823   6.697  11.566
38099W        W11167  27.949   5.853   4.354
38100W        W11168  29.409  42.363  11.918
38101W        W11169  43.078  23.997  11.536
38102W        W11170  21.721   2.540   1.906
38103W        W11171  33.416  43.688   3.464
38104W        W11172  21.093  28.770  10.738
38105W        W11173  14.763   5.777  12.065
38106W        W11174  11.256   0.729  10.677
38107W        W11175  38.675  20.030   2.576
38108W        W11176  21.059  32.580   3.773
38109W        W11177   7.783  40.281   2.299
38110W        W11178  43.531   1.914  12.304
38111W        W11179  27.425   7.205  13.828
38112W        W11180  21.962  13.939   0.239
38113W        W11181  18.005  15.608  12.906
38114W        W11182  27.106  29.660   0.037
38115W        W11183  26.434  28.368  11.511
38116W        W11184  36.869  21.165   4.593
38117W        W11185  29.154  35.734   3.589
38118W        W11186  33.336  30.402  12.985
38119W        W11187  40.053  28.749  10.903
38120W        W11188  18.317  42.514   3.120
38121W        W11189  16.283  41.742   3.859
38122W        W11190  17.766   8.168   1.243
38123W        W11191  17.206  23.168   1.497
38124W        W11192  16.481  13.034   4.072
38125W        W11193  33.222  44.835  11.315
38126W        W11194  22.179  20.926  14.999
38127W        W11195  12.900  41.043  13.948
38128W        W11196  41.476  40.869   1.764
38129W        W11197   2.489  37.080   0.939
38130W        W11198  14.553  34.123   2.363
38131W        W11199  30.581  11.702   4.637
38132W        W11200  24.786  28.516  13.814
38133W        W11201  25.897  38.808  10.964
38134W        W11202   6.979   2.835  11.137
38135W        W11203  20.794  32.645  13.402
38136W        W11204  31.631   3.825  14.054
38137W        W11205  33.321  22.221   3.981
38138W        W11206   4.388  43.239  10.726
38139W        W11207  12.972  21.084  13.789
38140W        W11208  38.362  22.646  13.553
38141W        W11209  36.378  43.555   3.652
38142W        W11210   0.241  21.716   0.015
38143W        W11211  18.209  14.732   4.093
38144W        W11212  32.454   2.416   3.230
38145W        W11213   9.760   0.278  14.737
38146W        W11214  25.558  28.092   2.090
38147W        W11215  40.450  43.895   4.558
38148W        W11216  21.717  27.469  12.982
38149W        W11217  42.293   7.662   2.219
38150W        W11218  19.620  28.608   0.799
38151W        W11219  22.492  44.980   2.723
38152W        W11220   8.259  25.466   2.353
38153W        W11221  29.465  34.486   1.190
38154W        W11222  25.579  21.036  11.111
38155W        W11223  41.878  28.620  12.293
38156W        W11224  37.984  44.376  11.598
38157W        W11225   7.155  10.597   3.611
38158W        W11226  43.938  35.916   4.251
38159W        W11227  28.914  17.482   3.786
38160W        W11228  14.046  12.307  14.249
38161W        W11229   9.818  23.945  12.471
38162W        W11230  33.041  21.625  10.682
38163W        W11231  25.511   1.434   4.143
38164W        W11232  12.151  17.373   4.184
38165W        W11233  41.514  42.439   1.744
38166W        W11234  39.465   3.993   3.708
38167W        W11235   0.839   1.213   3.082
38168W        W11236  25.096  21.213  10.819
38169W        W11237   8.282  41.547   5.373
38170W        W11238  27.192  41.801  12.542
38171W        W11239   2.906  12.039  11.905
38172W        W11240  27.839  38.029  10.752
38173W        W11241  10.940  32.047  12.841
38174W        W11242   3.139  25.045   1.977
38175W        W11243  16.267   8.425  14.510
38176W        W11244   5.880   6.678   0.449
38177W        W11245  12.229  22.518  12.120
38178W        W11246  38.561  23.642  14.373
38179W        W11247   1.494  36.788   4.499
38180W        W11248  20.649  30.115   0.926
38181W        W11249  19.151  18.604   3.640
38182W        W11250  32.951  22.228   4.600
38183W        W11251  25.954   2.488   2.072
38184W        W11252   9.110  31.270   1.475
38185W        W11253   4.746  41.610  14.267
38186W        W11254   0.436  28.587  12.576
38187W        W11255  36.246  39.929  11.168
38188W        W11256  15.818  27.419   2.749
38189W        W11257  26.349  28.335   1.184
38190W        W11258  18.260  15.273   3.273
38191W        W11259   2.597  12.726  12.284
38192W        W11260   5.964  12.795  13.322
38193W        W11261  35.423  21.613   2.375
38194W        W11262   4.288  30.132   3.000
38195W        W11263  25.506  14.687  11.930
38196W        W11264   4.601  14.197  12.024
38197W        W11265  11.328  11.582   2.763
38198W        W11266  15.143  18.400  10.794
38199W        W11267   4.936  39.186   4.747
38200W        W11268  42.522  19.712   4.055
38201W        W11269  17.142   8.782   5.032
38202W        W11270   4.269  16.659  13.145
38203W        W11271  32.708  36.291  13.999
38204W        W11272   7.955  22.289   3.863
38205W        W11273  40.790  28.991   4.910
38206W        W11274   5.973  30.630  11.592
38207W        W11275  30.960  13.235  13.782
38208W        W11276  36.831  33.951  14.985
38209W        W11277  22.998   7.275   1.311
38210W        W11278  34.440  33.954  12.422
38211W        W11279  18.388  29.456  13.479
38212W        W11280  25.075  33.171   1.106
38213W        W11281  39.260  17.207  12.643
38214W        W11282  18.522  11.153   2.506
38215W        W11283  27.220  12.902  13.555
38216W        W11284  43.307   0.325  14.321
38217W        W11285  36.099  37.467  11.728
38218W        W11286  41.141  30.911  12.065
38219W        W11287  44.232  28.249  12.101
38220W        W11288  35.287  36.416   4.827
38221W        W11289  25.241  44.014  11.258
38222W        W11290   7.355  40.978  13.052
38223W        W11291  44.837  38.160   3.306
38224W        W11292  32.356  19.651  14.640
38225W        W11293  23.651  38.604  13.515
38226W        W11294   1.333  20.037  13.933
38227W        W11295  29.918   1.915  13.627
38228W        W11296   5.104  18.825   1.187
38229W        W11297  30.004  41.278   4.236
38230W        W11298   5.853   9.826   0.441
38231W        W11299  33.506  41.972   2.416
38232W        W11300  15.543   0.848  14.510
38233W        W11301  15.142  37.942   3.825
38234W        W11302  11.194  43.482   2.764
38235W        W11303   5.933  21.840  12.969
38236W        W11304   0.088  19.316   2.865
38237W        W11305  14.259  20.888  13.599
38238W        W11306  36.858  20.510   1.325
38239W        W11307  12.909  37.555  12.514
38240W        W11308  35.333  21.550  10.671
38241W        W11309  38.065   1.086  13.562
38242W        W11310  41.690   9.929  10.636
38243W        W11311  26.265   0.349  12.391
38244W        W11312  38.511   6.096  11.900
38245W        W11313  40.834   4.012  11.462
38246W        W11314  10.336  28.485   4.972
38247W        W11315  28.865  23.687  10.912
38248W        W11316  19.821  23.705   1.483
38249W        W11317  12.078  38.902  13.525
38250W        W11318  22.143  38.671  12.552
38251W        W11319  34.242  33.555   4.961
38252W        W11320   3.404  26.983   3.697
38253W        W11321  31.002  16.566  11.831
38254W        W11322  43.303  13.866   4.679
38255W        W11323  21.121  40.212  12.394
38256W        W11324  40.550   4.440   3.430
38257W        W11325  44.913  22.250   0.870
38258W        W11326  41.782  35.383  13.801
38259W        W11327  39.586  20.800   2.187
38260W        W11328  42.104  23.812   5.140
38261W        W11329   3.412  31.608   3.121
38262W        W11330   2.978   0.917  14.859
38263W        W11331  43.281  12.396  10.615
38264W        W11332   9.712  29.539   4.567
38265W        W11333  31.978   6.287   2.546
38266W        W11334   5.682  16.316   1.839
38267W        W11335  20.396  43.053  10.403
38268W        W11336  29.437   9.110   0.454
38269W        W11337  13.686  21.519   4.666
38270W        W11338   4.532  11.622   2.176
38271W        W11339   2.334  15.213  14.042
38272W        W11340  41.796  41.788  11.071
38273W        W11341  32.414   4.980   1.863
38274W        W11342  30.853  17.883  11.967
38275W        W11343   6.913   7.145   4.055
38276W        W11344   9.348  36.213   4.247
38277W        W11345  27.404  42.481   3.995
38278W        W11346  22.269  19.630   0.219
38279W        W11347  22.820  10.248  13.981
38280W        W11348  38.130   1.301  12.433
38281W        W11349   4.891  36.821  11.049
38282W        W11350  42.283  39.092  14.934
38283W        W11351   3.685  37.587  11.389
38284W        W11352  25.884  38.138   1.385
38285W        W11353  30.349  12.076   5.009
38286W        W11354  36.283  11.820  10.712
38287W        W11355  29.088  31.231  12.637
38288W        W11356  32.725  11.117   2.318
38289W        W11357   1.831  33.903   0.996
38290W        W11358  40.969  35.869   4.510
38291W        W11359  28.229  24.134  12.083
38292W        W11360  35.515  26.615  10.956
38293W        W11361  16.029  15.662  12.973
38294W        W11362  38.811  40.525   3.159
38295W        W11363   7.878  39.479  13.944
38296W        W11364  20.220  35.975  14.531
38297W        W11365   9.140  36.536  12.746
38298W        W11366  13.581  11.886   3.594
38299W        W11367  21.497   0.874  14.908
38300W        W11368  19.136  28.482   3.660
38301W        W11369  21.030   6.836  10.957
38302W        W11370  24.157  15.307   2.634
38303W        W11371  37.843  12.189  14.525
38304W        W11372   5.400  19.565  14.901
38305W        W11373  27.870  37.107   3.320
38306W        W11374  20.429  39.069   4.185
38307W        W11375   1.884  28.633   2.718
38308W        W11376  20.385  21.345  13.134
38309W        W11377  23.707   9.888  11.557
38310W        W11378  29.062  20.126  12.825
38311W        W11379   9.143  35.515  14.220
38312W        W11380  42.558  18.366   4.170
38313W        W11381  22.477  28.862   3.120
38314W        W11382  33.509  21.997   2.851
38315W        W11383   4.351  23.667  14.599
38316W        W11384  32.255  26.884   4.744
38317W        W11385   7.205  37.309  13.465
38318W        W11386  20.771  22.801  12.047
38319W        W11387  31.545  24.119  11.344
38320W        W11388  32.910  17.578   1.845
38321W        W11389  37.637   1.877   2.718
38322W        W11390  33.122   9.806   1.988
38323W        W11391  19.555  19.590   2.020
38324W        W11392  24.192   1.272   2.156
38325W        W11393  35.017  34.018  14.256
38326W        W11394  26.411   6.884   3.706
38327W        W11395  15.898  26.504  12.019
38328W        W11396  33.568  17.742  12.876
38329W        W11397   7.633  28.169  12.564
38330W        W11398   9.914   0.567   1.880
38331W        W11399  10.172  16.683  12.031
38332W        W11400  23.464   3.742   2.873
38333W        W11401  15.062  41.062  14.495
38334W        W11402  33.289  42.247  10.724
38335W        W11403  29.644  12.012   3.805
38336W        W11404   8.707  30.190  12.020
38337W        W11405  42.957   5.111  12.297
38338W        W11406   8.955  35.382  11.455
38339W        W11407  30.152  40.292   1.403
38340W        W11408   0.065  37.409   3.883
38341W        W11409   1.269  44.793  14.416
38342W        W11410  34.982  30.185  13.808
38343W        W11411  21.464  39.534  13.738
38344W        W11412  10.823  25.476  14.886
38345W        W11413  31.653   9.323  11.634
38346W        W11414  27.751  44.164  10.369
38347W        W11415  39.023  43.432   0.894
38348W        W11416  20.746  39.490  11.944
38349W        W11417   6.618   1.860   4.598
38350W        W11418   9.994  12.761  13.216
38351W        W11419  20.010  18.291   3.935
38352W        W11420  40.405  27.900  12.067
38353W        W11421  11.242   5.121  10.781
38354W        W11422  16.293  41.086  13.481
38355W        W11423  19.590   2.503   2.292
38356W        W11424   9.590  15.732  11.072
38357W        W11425  31.331  27.882   1.457
38358W        W11426  23.374   6.891  10.982
38359W        W11427   4.349   4.717   4.882
38360W        W11428  24.523  10.354   4.425
38361W        W11429  38.267  35.539  10.291
38362W        W11430  39.894   9.206   1.314
38363W        W11431  23.923  22.531  12.434
38364W        W11432   6.161  43.841  10.597
38365W        W11433   3.607  27.389  14.905
38366W        W11434  15.700  14.269   1.010
38367W        W11435  23.199  34.073  13.328
38368W        W11436   3.923  27.902   2.481
38369W        W11437  12.513  21.666   1.568
38370W        W11438  29.608  24.019  11.602
38371W        W11439  10.382  31.919  10.621
38372W        W11440  36.878  28.979   3.709
38373W        W11441  13.368  33.111  14.794
38374W        W11442   9.685   1.031   0.522
38375W        W11443  24.616  24.100   1.281
38376W        W11444  23.672  37.414  10.933
38377W        W11445  26.396  24.631   3.379
38378W        W11446  37.149  22.252   4.638
38379W        W11447  38.077   6.999  11.908
38380W        W11448  35.500  29.121  13.135
38381W        W11449  22.247  25.629  10.661
38382W        W11450  36.375  39.099   4.763
38383W        W11451   7.627  22.965  11.017
38384W        W11452  33.637  39.766   3.173
38385W        W11453  42.799  40.645   2.133
38386W        W11454  33.994  19.409   0.416
38387W        W11455  36.068  26.956   1.328
38388W        W11456  32.074  39.150   3.591
38389W        W11457  41.427  37.616   4.153
38390W        W11458  40.796  27.702   4.263
38391W        W11459  37.796   3.182  12.168
38392W        W11460   5.224   5.177   1.284
38393W        W11461  27.502  44.049  11.189
38394W        W11462   6.267  23.997  14.577
38395W        W11463   4.547  11.727   4.008
38396W        W11464  25.486  36.638  14.824
38397W        W11465  33.674   4.376   0.242
38398W        W11466  41.986  36.602   3.188
38399W        W11467  27.591  33.347   2.595
38400W        W11468   3.967  23.293   0.573
38401W        W11469  14.365  44.370  13.138
38402W        W11470  18.903   8.285  11.174
38403W        W11471  33.116  21.120  10.684
38404W        W11472   7.845  20.965  11.812
38405W        W11473   7.300  13.085  14.445
38406W        W11474  18.250  13.936   4.772
38407W        W11475  21.099  36.479   4.585
38408W        W11476   8.611  20.572  12.069
38409W        W11477  28.648  43.512  13.967
38410W        W11478  43.816  37.610  13.530
38411W        W11479  11.346  19.209  10.789
38412W        W11480   0.506  20.118   0.471
38413W        W11481  24.911  33.654   0.918
38414W        W11482  24.948   9.232   2.391
38415W        W11483   3.255  22.917  10.960
38416W        W11484  32.465  44.797  13.944
38417W        W11485  42.398   6.231   1.356
38418W        W11486  12.554  16.777   0.592
38419W        W11487  22.499   6.658   2.954
38420W        W11488  35.403  35.006  10.332
38421W        W11489  42.824  35.877  13.786
38422W        W11490   9.298  31.108   0.992
38423W        W11491  23.051  34.791   1.338
38424W        W11492  27.413  34.387   0.829
38425W        W11493   9.853  30.534  14.949
38426W        W11494  17.041  17.153   1.048
38427W        W11495  11.537   9.328  10.723
38428W        W11496   2.992  18.245  11.025
38429W        W11497  23.533  36.159  12.454
38430W        W11498  25.105  41.526   3.712
38431W        W11499  36.882  20.302   0.375
38432W        W11500  18.332  10.425   3.829
38433W        W11501   8.307  27.100  10.650
38434W        W11502  36.788  15.573  11.395
38435W        W11503  14.311  36.497  13.738
38436W        W11504   8.628  37.289   3.585
38437W        W11505  16.199  14.203   1.180
38438W        W11506  34.548  41.857   0.465
38439W        W11507  19.704  18.560  12.424
38440W        W11508  17.469  31.747  14.653
38441W        W11509  23.517  35.750  11.685
38442W        W11510  15.852   3.219   2.876
38443W        W11511  20.983   0.861  14.835
38444W        W11512  22.713  23.525   2.264
38445W        W11513  25.115   7.684   0.251
38446W        W11514   4.626  27.531   2.846
38447W        W11515  16.601   6.283   1.866
38448W        W11516   9.802  14.679   2.732
38449W        W11517  30.259  36.029   0.709
38450W        W11518  18.352  35.129  14.363
38451W        W11519  27.873  42.430  12.400
38452W        W11520   4.322  21.699  13.823
38453W        W11521  27.711  42.490   0.025
38454W        W11522  37.111  44.212   5.033
38455W        W11523   0.031  32.102  11.728
38456W        W11524  27.230  22.814  11.999
38457W        W11525  16.523   1.776   2.691
38458W        W11526   3.359  16.262   3.266
38459W        W11527  17.608  31.525   0.116
38460W        W11528  11.143  39.471   1.303
38461W        W11529  17.057  35.460  12.800
38462W        W11530  22.204  31.977   3.988
38463W        W11531  44.235  23.114  13.159
38464W        W11532  36.381   7.829  11.556
38465W        W11533   7.781  20.139   4.207
38466W        W11534   4.342  39.065   4.532
38467W        W11535   7.654  37.479   3.319
38468W        W11536   0.043  41.839   0.201
38469W        W11537  39.088   4.490   3.752
38470W        W11538  18.223  13.979  14.358
38471W        W11539  29.719  17.643   3.241
38472W        W11540  35.602   3.209   2.765
38473W        W11541  22.034   0.503  11.536
38474W        W11542  32.525  13.114  12.049
38475W        W11543   6.754   5.284   2.404
38476W        W11544  24.749  38.039  11.537
38477W        W11545  15.609  26.301   0.325
38478W        W11546  37.267  28.155   1.364
38479W        W11547  15.640  34.058   4.504
38480W        W11548  25.583  16.906   2.747
38481W        W11549  35.720  35.190  11.763
38482W        W11550  43.071   5.580  11.078
38483W        W11551  10.310  21.310   2.272
38484W        W11552  20.757  44.261   2.852
38485W        W11553  26.010   9.331  13.848
38486W        W11554  42.799  10.217   2.665
38487W        W11555   6.619  38.551  11.157
38488W        W11556  23.164  44.347  10.789
38489W        W11557   0.299  41.416  14.054
38490W        W11558  27.234  14.884  12.535
38491W        W11559  40.376  28.446   1.869
38492W        W11560  28.012  42.990  14.403
38493W        W11561  25.977  11.612  14.269
38494W        W11562   2.669   9.254  14.905
38495W        W11563  20.603  10.536  14.461
38496W        W11564  36.010  37.037   4.993
38497W        W11565  44.780  15.371  14.068
38498W        W11566  44.775   5.157  13.907
38499W        W11567  31.830  26.320   5.025
38500W        W11568  33.574  28.138  10.627
38501W        W11569   9.215   7.452   0.408
38502W        W11570  27.588  42.953   4.068
38503W        W11571  13.100  41.980  12.842
38504W        W11572  10.812  21.771  14.206
38505W        W11573  35.627   8.704  12.898
38506W        W11574   4.847  27.331  12.416
38507W        W11575  37.349  21.724  12.455
38508W        W11576  36.852   5.825  10.663
38509W        W11577  44.014  39.400  12.028
38510W        W11578  18.404  37.982   0.290
38511W        W11579  28.093  17.106  13.941
38512W        W11580  23.562  38.134   0.859
38513W        W11581  13.062  22.495   5.070
38514W        W11582  15.076  26.752  12.180
38515W        W11583  30.726  34.721  11.578
38516W        W11584   9.357  35.936  14.514
38517W        W11585  30.102   4.251   4.170
38518W        W11586  28.526  31.113   1.191
38519W        W11587  35.784  33.865   4.073
38520W        W11588  13.827  31.132  14.867
38521W        W11589  36.069  26.743  12.587
38522W        W11590  19.112  28.784  11.052
38523W        W11591  33.329   0.356  13.883
38524W        W11592  44.557   0.262   2.182
38525W        W11593  37.461  34.784  13.892
38526W        W11594  36.584  10.217   3.372
38527W        W11595  39.508   7.782   3.664
38528W        W11596  10.290  32.595   3.285
38529W        W11597  26.572   2.504  13.066
38530W        W11598   0.507  10.787  14.753
38531W        W11599  21.733  36.100   3.555
38532W        W11600   8.941  18.733   2.543
38533W        W11601  14.282  14.612   2.477
38534W        W11602  12.960  35.267   4.817
38535W        W11603  23.148  34.445   1.718
38536W        W11604  39.758  18.422  11.168
38537W        W11605  33.158   0.401   3.699
38538W        W11606  36.938   9.637   1.304
38539W        W11607  27.868   1.977   0.978
38540W        W11608  37.999  29.944   2.681
38541W        W11609  30.384  10.688   0.806
38542W        W11610  21.712  38.193  11.221
38543W        W11611  23.425  24.284  12.135
38544W        W11612  42.090   3.961  13.022
38545W        W11613   3.886  11.706  11.228
38546W        W11614  20.532   6.404   2.632
38547W        W11615   0.416  18.255   4.769
38548W        W11616  38.497  28.566   2.775
38549W        W11617  44.920   5.793   1.773
38550W        W11618  27.224  22.740   0.317
38551W        W11619  10.659   7.146  10.894
38552W        W11620  33.898  31.100   0.058
38553W        W11621  20.435  27.929  14.467
38554W        W11622   8.904   0.792  11.114
38555W        W11623   1.565  23.189   2.119
38556W        W11624   4.344  26.981  11.891
38557W        W11625  17.672  43.315  10.690
38558W        W11626  31.406   3.201  12.548
38559W        W11627   0.209  16.822   1.403
38560W        W11628  26.912   7.915   1.507
38561W        W11629  36.127  33.497  13.517
38562W        W11630  18.579  33.008  13.816
38563W        W11631   7.890  30.122   2.436
38564W        W11632  33.832  22.931  10.737
38565W        W11633  14.636  37.922   1.561
38566W        W11634  27.151   7.782  14.397
38567W        W11635  39.493  31.833  14.328
38568W        W11636  29.235  17.040  12.036
38569W        W11637  21.573  24.069   3.180
38570W        W11638  30.509  18.737   1.283
38571W        W11639  22.476   8.368   1.930
38572W        W11640   6.151   1.359   3.229
38573W        W11641  38.478   6.596   2.435
38574W        W11642  33.882   6.983  11.141
38575W        W11643  17.228  23.723   4.252
38576W        W11644  25.209   4.017  13.104
38577W        W11645  39.099  41.562  10.286
38578W        W11646  37.369  24.164   0.022
38579W        W11647  37.728   7.146  11.563
38580W        W11648  13.671  29.404  13.578
38581W        W11649  34.959  35.385  14.931
38582W        W11650  33.258  44.997  13.516
38583W        W11651  44.751  22.150  10.651
38584W        W11652  34.025  11.551   2.299
38585W        W11653   9.799  13.010   4.850
38586W        W11654   6.088  39.541   1.870
38587W        W11655  34.663  30.772  11.428
38588W        W11656  25.505  40.288   1.823
38589W        W11657  39.748   8.161   1.691
38590W        W11658  10.619  38.811   4.934
38591W        W11659   7.125  22.571   1.451
38592W        W11660  12.136  39.448  14.903
38593W        W11661  38.147  39.844   3.520
38594W        W11662   6.227  22.739  11.451
38595W        W11663   4.358  36.362   3.439
38596W        W11664  32.465   7.213   2.417
38597W        W11665  11.281   0.164  11.458
38598W        W11666   2.843  42.392  14.803
38599W        W11667  26.100  42.776   0.775
38600W        W11668  10.545  33.404  14.477
38601W        W11669  37.910  36.351  14.442
38602W        W11670  18.671  37.352  11.563
38603W        W11671  43.915   9.600   2.210
38604W        W11672  21.480  44.207   2.226
38605W        W11673  11.697  38.525   0.418
38606W        W11674  16.698  17.735   1.728
38607W        W11675  11.852   5.189   3.126
38608W        W11676  18.968  41.292   3.749
38609W        W11677  18.349   8.572  13.572
38610W        W11678  28.998  35.050   0.289
38611W        W11679  34.579  28.350   3.537
38612W        W11680  26.540  21.085   2.370
38613W        W11681   8.902  11.124   4.066
38614W        W11682  29.029  34.078   0.470
38615W        W11683  23.351  18.682  10.751
38616W        W11684   4.177  32.947  11.009
38617W        W11685  14.404  20.666   2.209
38618W        W11686   7.260  19.743  12.459
38619W        W11687  21.117  25.167   1.802
38620W        W11688   3.655   5.754   4.454
38621W        W11689  25.498  24.542   3.982
38622W        W11690  12.460  27.952   0.414
38623W        W11691  23.456  12.205  12.078
38624W        W11692  17.073  42.421  12.249
38625W        W11693  37.896  31.821   0.043
38626W        W11694  44.493  44.942  13.554
38627W        W11695  44.010  13.327   1.500
38628W        W11696  25.740  33.928   0.278
38629W        W11697  32.967  10.195   3.608
38630W        W11698  44.925   1.724   3.155
38631W        W11699  28.588  20.597   3.371
38632W        W11700   7.765  19.838   1.288
38633W        W11701  19.399   4.708  13.848
38634W        W11702  21.609  23.208   1.008
38635W        W11703  29.898  10.533   0.629
38636W        W11704  12.623   4.806   2.728
38637W        W11705  23.346  36.503   1.933
38638W        W11706  21.385   7.619  14.463
38639W        W11707  16.115   6.394  11.334
38640W        W11708  42.917  30.524  11.912
38641W        W11709  28.557   4.883   1.777
38642W        W11710  26.929  11.402  13.358
38643W        W11711  32.996  19.855   2.402
38644W        W11712  21.928  19.403   1.338
38645W        W11713  20.842  27.222   3.680
38646W        W11714  39.266  41.504  12.629
38647W        W11715  37.499  12.990   0.335
38648W        W11716  43.337  18.703   4.747
38649W        W11717  31.505  17.779  10.417
38650W        W11718   5.949  27.680  14.336
38651W        W11719   4.021  44.606   0.412
38652W        W11720   8.081   9.699  11.993
38653W        W11721  18.137  32.560  10.891
38654W        W11722  20.558   6.841   4.915
38655W        W11723  23.231  18.820   1.306
38656W        W11724  25.933  24.716  11.185
38657W        W11725  33.511   4.759   4.014
38658W        W11726  15.342  40.420   2.322
38659W        W11727  35.661   0.369  14.873
38660W        W11728  44.234  12.440   1.881
38661W        W11729  12.589  38.349   0.355
38662W        W11730  33.679  25.695  14.813
38663W        W11731  12.312  31.266  13.521
38664W        W11732  22.934  12.699   2.701
38665W        W11733  31.511  12.661   4.784
38666W        W11734   7.815  37.923  10.636
38667W        W11735  25.256  39.594  11.081
38668W        W11736   3.940  24.658   5.046
38669W        W11737  22.766  32.745  13.573
38670W        W11738   3.142  14.929   3.369
38671W        W11739  36.975   1.660   0.482
38672W        W11740  44.743  43.018  11.529
38673W        W11741  29.767   1.750  11.694
38674W        W11742  10.742  14.955  12.951
38675W        W11743  33.285  22.942  12.006
38676W        W11744  41.867   2.801  13.866
38677W        W11745   8.227   2.765  10.478
38678W        W11746  41.296   4.836   2.752
38679W        W11747  38.984  36.618   4.149
38680W        W11748  13.725   6.385   1.275
38681W        W11749  39.760   6.421  12.504
38682W        W11750  18.304  26.891   3.994
38683W        W11751  17.203   6.282   3.324
38684W        W11752  39.121  37.753   2.611
38685W        W11753  23.043  37.870   1.748
38686W        W11754  18.350  26.464   2.704
38687W        W11755   3.272   1.419  11.078
38688W        W11756  38.508  35.971   0.494
38689W        W11757  10.082  22.497  13.431
38690W        W11758  44.244   6.984   3.305
38691W        W11759   2.909   7.657  11.757
38692W        W11760  38.521  23.044  13.269
38693W        W11761   0.795  27.654   4.659
38694W        W11762  39.403  39.389   4.123
38695W        W11763  38.642  24.834  11.358
38696W        W11764  36.479  10.329  12.663
38697W        W11765   6.068  20.499  11.559
38698W        W11766   3.728  24.169   0.245
38699W        W11767  38.944  18.153   3.751
38700W        W11768  43.735  23.007  13.024
38701W        W11769  32.533  14.338   1.723
38702W        W11770  29.969  11.068   0.031
38703W        W11771  33.894  29.454  10.679
38704W        W11772   3.926  40.319  10.362
38705W        W11773  22.216  18.489  11.529
38706W        W11774  39.466  23.267  13.325
38707W        W11775  36.876  34.509   3.499
38708W        W11776  33.600  38.464   1.792
38709W        W11777  37.981  30.843   5.192
38710W        W11778  38.497  12.703   4.832
38711W        W11779  36.232  37.501   4.669
38712W        W11780  43.056  38.110   0.522
38713W        W11781  28.552  13.859  13.474
38714W        W11782  25.753  37.310   1.100
38715W        W11783   6.100  32.361   5.008
38716W        W11784  14.726  37.540  10.795
38717W        W11785  44.530  39.006  11.510
38718W        W11786  24.111   3.359  10.714
38719W        W11787  23.678  25.926   1.684
38720W        W11788  11.203   0.066   0.068
38721W        W11789   0.491  44.900   1.379
38722W        W11790  33.537   8.149   3.097
38723W        W11791  28.461  36.637  11.466
38724W        W11792  23.167  17.610  11.133
38725W        W11793   7.193  43.865  10.705
38726W        W11794  23.703   4.404  13.303
38727W        W11795  35.746  11.874  11.972
38728W        W11796   5.281  18.071  12.792
38729W        W11797   7.433  21.492   2.772
38730W        W11798  42.142   0.515   1.115
38731W        W11799  36.644  18.331  10.091
38732W        W11800  30.655  33.825   0.953
38733W        W11801  27.491  13.241  12.081
38734W        W11802  18.745  43.995  11.370
38735W        W11803  17.179  41.021  12.376
38736W        W11804  36.766   1.859   3.702
38737W        W11805  35.015  19.212   4.722
38738W        W11806  31.870  18.577  14.302
38739W        W11807  42.167   2.461   2.297
38740W        W11808  11.815  36.455  10.620
38741W        W11809  25.001  19.207   3.600
38742W        W11810  32.585  15.811   1.029
38743W        W11811  13.171  20.733   2.354
38744W        W11812  14.526  24.517  12.053
38745W        W11813  41.131  29.427  10.731
38746W        W11814   9.705  29.174  11.924
38747W        W11815  43.853   5.449   1.278
38748W        W11816  12.527  15.628   2.603
38749W        W11817  41.015   7.581   3.818
38750W        W11818  36.765   9.193  13.983
38751W        W11819   1.942   4.294   3.655
38752W        W11820  12.251  33.373   3.667
38753W        W11821  10.652  18.513  13.946
38754W        W11822  28.162  44.489  12.175
38755W        W11823   6.145   5.694   3.728
38756W        W11824  23.196  43.440   3.094
38757W        W11825  24.088   6.184  14.482
38758W        W11826  26.548  30.691   2.260
38759W        W11827  11.856  16.621  12.827
38760W        W11828   6.793  38.570   0.896
38761W        W11829  12.839  10.675   3.723
38762W        W11830  15.068  10.473  10.558
38763W        W11831  35.745  10.540   4.286
38764W        W11832  32.449  14.785  11.633
38765W        W11833  34.844  33.515   1.282
38766W        W11834  27.575  35.465   1.789
38767W        W11835  10.818  12.631   4.891
38768W        W11836  13.616  41.857  12.876
38769W        W11837  24.537  30.215   1.830
38770W        W11838  36.344  31.192   0.360
38771W        W11839  44.898  39.763  13.443
38772W        W11840  33.212  35.028  12.858
38773W        W11841   2.720   7.623   3.729
38774W        W11842  12.583   4.558   1.840
38775W        W11843  42.402   8.835   4.406
38776W        W11844  32.643  27.521  12.333
38777W        W11845   3.325  37.424   5.071
38778W        W11846  38.896  10.428   3.597
38779W        W11847  43.948   2.865   1.288
38780W        W11848   8.222  21.722  14.935
38781W        W11849  32.017   4.680  12.940
38782W        W11850  17.801  27.674   3.863
38783W        W11851  25.034  14.564  11.077
38784W        W11852  30.414  42.805   2.543
38785W        W11853  23.026  30.129  14.313
38786W        W11854  41.715  34.097  13.973
38787W        W11855  31.345  12.869   0.715
38788W        W11856  13.757  12.160   1.739
38789W        W11857  10.720   8.408  11.382
38790W        W11858   0.492   5.957   2.712
38791W        W11859  11.317   5.780  12.020
38792W        W11860  19.190  19.570  13.479
38793W        W11861  27.534  44.457  13.356
38794W        W11862  30.095  33.402   4.301
38795W        W11863   2.254  31.147  11.597
38796W        W11864   9.809  41.928   3.287
38797W        W11865  19.607  34.914   1.269
38798W        W11866   1.494   5.699   1.817
38799W        W11867   7.606  20.203   3.584
38800W        W11868  24.111  18.732   1.858
38801W        W11869  21.160  31.655   3.272
38802W        W11870  30.125  43.880  12.439
38803W        W11871  26.121  31.298  12.367
38804W        W11872  16.523   2.464   0.197
38805W        W11873  13.381  26.658  13.699
38806W        W11874   9.233  32.161   4.599
38807W        W11875  30.699  22.279  13.483
38808W        W11876   6.781   3.718  11.809
38809W        W11877  35.374  44.849  12.114
38810W        W11878  11.678   1.233  11.932
38811W        W11879  14.680   3.869   4.488
38812W        W11880  10.965  11.618  14.047
38813W        W11881   8.894  27.055   3.642
38814W        W11882  24.230  24.683   3.663
38815W        W11883   2.072   5.995  11.162
38816W        W11884  24.312  18.187  14.618
38817W        W11885  18.018  30.111   0.032
38818W        W11886   6.898   1.982   3.306
38819W        W11887  22.786  16.174  11.665
38820W        W11888  32.091  14.861   3.074
38821W        W11889  12.332  10.709   3.078
38822W        W11890  27.198  34.058  13.717
38823W        W11891  42.812  37.895  14.100
38824W        W11892  14.127  25.075   4.220
38825W        W11893  17.777  26.477  12.117
38826W        W11894  44.394  19.722   4.494
38827W        W11895  36.085   5.263   3.767
38828W        W11896   5.024  41.926   1.442
38829W        W11897   3.417   8.755   2.431
38830W        W11898  31.360  37.992  14.451
38831W        W11899   4.311  31.046   0.870
38832W        W11900  37.065   7.722   3.762
38833W        W11901  28.197  37.305  14.823
38834W        W11902  26.728  41.697  11.633
38835W        W11903  18.178   0.938   0.226
38836W        W11904   6.876   5.394  14.875
38837W        W11905  14.132   1.400  14.327
38838W        W11906  19.004  17.623   4.559
38839W        W11907  40.260  15.107  14.397
38840W        W11908  33.413   7.565  14.783
38841W        W11909  18.825  18.397   5.107
38842W        W11910  17.705   0.461   0.214
38843W        W11911   2.439  20.911   2.255
38844W        W11912   6.788  43.569  11.064
38845W        W11913  37.970  38.413  13.281
38846W        W11914   2.223  44.010   1.427
38847W        W11915  33.561  13.230   0.257
38848W        W11916   7.284  13.865  12.830
38849W        W11917  37.735  19.635  12.637
38850W        W11918  29.747   7.832  13.702
38851W        W11919   2.328  26.625  14.456
38852W        W11920   3.752   0.180  13.614
38853W        W11921   7.496  17.047   3.736
38854W        W11922  22.472   0.275   0.500
38855W        W11923  26.506  40.369  10.483
38856W        W11924   5.767  35.323   1.877
38857W        W11925  18.177  41.092  14.389
38858W        W11926   1.218  39.838  14.952
38859W        W11927  26.586  22.167   4.664
38860W        W11928  44.227   2.369   4.160
38861W        W11929  29.997   6.806   1.733
38862W        W11930  30.418  24.597  14.931
38863W        W11931  37.021  23.848   1.485
38864W        W11932  42.506  42.482   2.210
38865W        W11933   9.630  35.885  11.193
38866W        W11934  41.377   8.466   2.755
38867W        W11935  28.124  14.243  10.603
38868W        W11936  35.047   6.834  10.932
38869W        W11937   4.179   1.726  11.229
38870W        W11938  12.823  22.307  13.905
38871W        W11939   9.347   3.494  13.374
38872W        W11940  23.213   8.057   3.354
38873W        W11941   2.170  16.212  11.446
38874W        W11942   7.276  13.329  12.387
38875W        W11943  20.980   1.802  14.819
38876W        W11944  23.067  12.265   2.970
38877W        W11945  22.753   1.527  13.337
38878W        W11946   7.328  20.697   4.285
38879W        W11947  11.862   3.484  12.416
38880W        W11948  32.176  16.303   1.964
38881W        W11949  44.017  42.855   4.154
38882W        W11950  37.834  17.270  14.377
38883W        W11951   5.247  22.889   3.713
38884W        W11952  43.304  12.360   0.140
38885W        W11953  31.592  16.664  12.579
38886W        W11954   4.835  44.888  13.575
38887W        W11955  15.715  28.231  13.457
38888W        W11956  23.634  37.329   3.872
38889W        W11957  20.663  18.644   3.383
38890W        W11958   7.066  21.219   4.936
38891W        W11959  34.836   8.157   3.245
38892W        W11960  31.118  36.380  13.940
38893W        W11961   6.162   0.696  13.501
38894W        W11962  17.265  13.891   4.647
38895W        W11963   4.182  26.948  12.380
38896W        W11964  32.562  16.566  11.853
38897W        W11965   4.896  27.655   4.369
38898W        W11966  12.336  39.602   2.847
38899W        W11967  10.398   9.850   4.614
38900W        W11968   3.893  16.212  13.034
38901W        W11969  27.125  30.690  12.503
38902W        W11970  29.103   7.481   2.462
38903W        W11971  37.265  37.630   3.675
38904W        W11972   3.027  29.076   0.312
38905W        W11973  26.266  33.447   3.147
38906W        W11974  18.269  11.549   2.846
38907W        W11975   1.873   2.841  14.665
38908W        W11976  34.767   5.132  13.894
38909W        W11977   5.222  24.535  10.444
38910W        W11978  32.801   1.903   1.942
38911W        W11979   4.596  17.983  10.401
38912W        W11980  11.541   3.359  12.832
38913W        W11981  28.192   7.034   4.221
38914W        W11982  44.341  37.863   2.120
38915W        W11983  30.479  43.956  11.516
38916W        W11984  27.189  14.164   3.274
38917W        W11985  39.477  24.199   0.030
38918W        W11986  25.009   3.395   0.753
38919W        W11987  24.314  26.771  12.931
38920W        W11988  25.048   0.488   3.708
38921W        W11989   1.011   2.173   0.386
38922W        W11990  30.637  13.936   4.015
38923W        W11991  41.301  24.580   3.682
38924W        W11992   6.884   4.479  10.668
38925W        W11993  39.824   0.220  13.888
38926W        W11994   0.689  29.945   2.285
38927W        W11995   2.889  32.927   2.382
38928W        W11996  38.843  26.567  14.372
38929W        W11997  43.570  29.460  13.448
38930W        W11998  33.296  11.823  12.114
38931W        W11999   3.820  20.449  10.516
38932W        W12000  39.856  41.817   0.397
38933W        W12001   2.740  36.613   3.437
38934W        W12002   3.382  28.661   3.282
38935W        W12003  37.045   0.788  13.329
38936W        W12004  43.022  41.306  13.423
38937W        W12005  26.095  32.412  10.578
38938W        W12006  42.070  13.747   2.427
38939W        W12007  13.077  15.677   0.455
38940W        W12008  10.303  42.742   1.865
38941W        W12009  31.784  28.035   2.669
38942W        W12010  37.822  10.488  14.684
38943W        W12011  34.677  11.729   2.838
38944W        W12012  15.142  25.768  14.249
38945W        W12013   0.565   9.583   0.392
38946W        W12014  22.722  14.024  14.598
38947W        W12015  19.736  20.337  13.439
38948W        W12016  31.901  39.984   3.659
38949W        W12017  11.691   2.257   0.253
38950W        W12018  30.011  34.665  14.484
38951W        W12019  30.045  10.446   1.355
38952W        W12020  10.627  18.859  13.139
38953W        W12021  36.068  33.980   4.496
38954W        W12022  10.602  23.202  14.217
38955W        W12023   5.165  33.475   2.762
38956W        W12024   9.616  27.041  13.803
38957W        W12025  32.221   8.127  11.300
38958W        W12026   3.082  24.644  13.830
38959W        W12027  28.430  21.637   0.430
38960W        W12028  27.554  42.025  13.750
38961W        W12029  36.343  26.570   4.566
38962W        W12030   3.813  10.474  14.312
38963W        W12031  40.561  30.704   3.520
38964W        W12032  41.023  22.655   3.792
38965W        W12033  11.521  39.106   3.221
38966W        W12034  16.665  38.098  14.988
38967W        W12035   3.561  37.865  14.433
38968W        W12036  13.696   5.438  12.019
38969W        W12037  33.209  44.365   2.766
38970W        W12038  41.914  39.882   0.909
38971W        W12039  11.468   4.420   0.403
38972W        W12040  40.438  22.677   2.562
38973W        W12041  11.327  26.896   3.188
38974W        W12042  33.097  24.081  11.696
38975W        W12043  28.632  32.988  14.409
38976W        W12044  27.625  20.033   1.295
38977W        W12045  41.018  14.747  12.512
38978W        W12046  30.844  32.031  11.150
38979W        W12047  30.185  39.873  12.093
38980W        W12048  33.080   4.785  10.377
38981W        W12049  21.398  36.909   4.677
38982W        W12050  38.117  34.569  12.411
38983W        W12051  37.897  10.722   0.454
38984W        W12052  21.765  23.693   2.817
38985W        W12053  17.839  13.869  11.078
38986W        W12054  33.047   1.873   0.751
38987W        W12055  39.530  11.715   1.220
38988W        W12056  30.779   6.682  12.951
38989W        W12057  39.513  32.610  10.846
38990W        W12058  30.618   9.766  13.308
38991W        W12059   5.632  28.770  13.225
38992W        W12060   1.735   5.902   4.486
38993W        W12061  22.077  39.694  13.622
38994W        W12062  10.813  17.707   2.769
38995W        W12063  10.331  17.200   4.974
38996W        W12064  15.078  40.409  12.542
38997W        W12065   8.644  36.895   4.944
38998W        W12066  19.067  32.449  10.893
38999W        W12067   4.763  24.010   2.404
39000W        W12068  30.266  20.770   4.121
39001W        W12069   5.399  20.996  12.353
39002W        W12070   2.751  17.692   0.883
39003W        W12071   2.915  14.540  12.731
39004W        W12072  20.254  40.625   0.500
39005W        W12073  39.116  12.403  11.889
39006W        W12074  29.552  25.406  10.356
39007W        W12075  19.868  34.522   4.598
39008W        W12076  43.563  39.103  11.135
39009W        W12077  39.797   3.204  14.803
39010W        W12078  36.240  30.788  11.552
39011W        W12079  29.491  10.148  11.946
39012W        W12080   5.109  41.461   4.741
39013W        W12081  33.228  16.728  13.638
39014W        W12082  15.418  33.449  12.353
39015W        W12083   7.586  44.515  14.841
39016W        W12084  16.860   3.888  12.380
39017W        W12085  10.722  27.340  12.022
39018W        W12086  27.667  13.139   1.280
39019W        W12087  14.186   4.796  13.484
39020W        W12088   3.971   4.552  11.588
39021W        W12089  23.234  43.991   4.910
39022W        W12090  41.775   1.927   1.321
39023W        W12091  26.028  16.279  14.270
39024W        W12092  28.012  36.776  12.071
39025W        W12093  24.281  20.715  10.932
39026W        W12094  40.513   3.950   0.831
39027W        W12095  27.510  41.110   0.761
39028W        W12096  34.176  10.196  13.409
39029W        W12097  20.135  38.964  13.920
39030W        W12098  37.333   8.337   3.644
39031W        W12099  19.941   1.790  14.922
39032W        W12100  17.069  12.750  12.115
39033W        W12101  26.518  38.086  13.848
39034W        W12102  37.508  39.499   1.703
39035W        W12103  20.159  31.484   0.764
39036W        W12104  11.269  20.071  11.481
39037W        W12105   5.291  13.833   3.395
39038W        W12106  25.570  30.467  13.493
39039W        W12107  39.803  20.140  11.498
39040W        W12108  28.595  25.460  11.236
39041W        W12109  32.434  31.180   1.189
39042W        W12110  33.504   7.820   2.639
39043W        W12111  12.769  33.960  13.007
39044W        W12112   2.744  27.719   4.595
39045W        W12113   4.487  38.346  10.699
39046W        W12114   1.003  27.463  11.587
39047W        W12115  43.150  13.178   3.763
39048W        W12116   2.303  16.657   2.190
39049W        W12117  24.430  33.891  13.723
39050W        W12118  28.001  17.120   2.000
39051W        W12119   3.491  33.166   0.874
39052W        W12120  26.984  40.681  12.153
39053W        W12121  41.233  23.680   0.886
39054W        W12122  19.174  38.592  14.877
39055W        W12123  36.819  40.952   4.194
39056W        W12124  18.061  17.530   2.777
39057W        W12125  35.652   1.885   2.688
39058W        W12126  26.550  42.323   0.655
39059W        W12127  24.137  20.028   2.337
39060W        W12128   1.201   1.879   4.544
39061W        W12129  28.015  13.080   2.613
39062W        W12130  10.840  26.079  12.613
39063W        W12131  15.743  43.897  14.341
39064W        W12132  19.705   0.387   0.468
39065W        W12133   7.675   6.614  13.420
39066W        W12134  24.434  38.822   4.283
39067W        W12135   2.420  37.945   4.825
39068W        W12136  42.955   0.047   2.752
39069W        W12137  43.486  44.432  13.820
39070W        W12138   1.512  36.160   1.472
39071W        W12139  19.330  22.778  11.230
39072W        W12140  12.387   4.350  10.678
39073W        W12141  32.680  24.050   0.836
39074W        W12142  27.175   8.382   1.369
39075W        W12143  23.117  14.691  13.045
39076W        W12144  37.958  29.950  11.020
39077W        W12145  34.371  14.323  13.758
39078W        W12146  32.513  23.592  12.932
39079W        W12147  12.952  44.714   0.547
39080W        W12148  13.411  30.942   1.371
39081W        W12149  26.057  10.690  12.151
39082W        W12150  17.762   4.920  10.360
39083W        W12151  39.045  32.978   3.289
39084W        W12152   5.375  11.585   2.791
39085W        W12153  42.167  33.404   3.541
39086W        W12154  40.107   1.147  11.142
39087W        W12155  27.123  36.615   3.660
39088W        W12156  40.357   0.812   2.576
39089W        W12157   0.565  44.507   3.439
39090W        W12158  32.072   9.876  14.782
39091W        W12159   1.335   8.426  11.643
39092W        W12160   4.336   3.961   0.580
39093W        W12161  42.931  37.577   4.841
39094W        W12162  38.624  44.174   1.474
39095W        W12163   5.930  34.600   4.194
39096W        W12164  39.388  42.481   0.974
39097W        W12165  27.644  13.765  11.154
39098W        W12166  32.442  21.718   4.145
39099W        W12167  18.576  27.867   9.841
39100W        W12168  33.864  19.381   3.185
39101W        W12169   4.792   7.430   4.233
39102W        W12170  34.853   1.836   3.463
39103W        W12171   4.294  42.947   4.314
39104W        W12172  37.972   5.344  12.890
39105W        W12173  44.494  12.681  11.145
39106W        W12174  31.564  33.811   0.509
39107W        W12175  23.692  44.726   1.185
39108W        W12176  39.738  27.139   3.518
39109W        W12177  39.029   1.306   2.667
39110W        W12178  18.258  33.376  14.047
39111W        W12179   4.889  12.080   1.454
39112W        W12180  29.909  26.952   4.786
39113W        W12181  26.069  23.955  14.238
39114W        W12182  28.187  16.354   4.245
39115W        W12183  26.540  41.525   4.489
39116W        W12184  28.962  33.626  11.332
39117W        W12185  28.076  44.026   2.588
39118W        W12186   8.331  31.389  14.777
39119W        W12187  30.495  28.036   3.244
39120W        W12188  37.839   5.863   1.773
39121W        W12189  36.690  39.689  11.481
39122W        W12190  12.306  27.533  14.674
39123W        W12191  25.774  13.260  10.898
39124W        W12192  18.503  43.482   3.084
39125W        W12193  35.204   7.374   0.862
39126W        W12194  16.044  15.341   5.018
39127W        W12195  33.411  16.342  11.408
39128W        W12196  38.907  31.073   4.462
39129W        W12197   9.532  19.758   4.547
39130W        W12198  42.860  12.446   1.724
39131W        W12199   2.213  15.702  11.184
39132W        W12200  40.061   6.896   2.678
39133W        W12201   8.454  32.491   2.744
39134W        W12202  42.490  41.897   2.775
39135W        W12203  37.971  31.341  14.258
39136W        W12204  44.472  38.494   2.729
39137W        W12205   1.788   1.502   0.336
39138W        W12206  28.500   8.322   2.805
39139W        W12207  25.788  12.062  10.533
39140W        W12208  39.847  15.644   4.972
39141W        W12209  11.911  12.721  13.615
39142W        W12210  30.057  16.299  14.010
39143W        W12211   1.313  40.701   2.837
39144W        W12212  14.916  12.349   2.726
39145W        W12213  42.507   7.729  10.641
39146W        W12214  25.706  38.625  11.440
39147W        W12215  25.932  36.392   0.755
39148W        W12216  35.695  36.977  14.968
39149W        W12217   8.617  30.493   2.832
39150W        W12218   2.844  31.401   4.681
39151W        W12219  32.367   7.240  13.936
39152W        W12220  37.924  32.105   5.152
39153W        W12221  17.198   4.673   1.347
39154W        W12222   0.252  33.351  14.356
39155W        W12223  21.460  24.778   3.889
39156W        W12224  41.931  24.633  13.837
39157W        W12225  36.831   3.210  14.742
39158W        W12226   9.244  23.453  12.790
39159W        W12227  25.129  18.223   1.000
39160W        W12228  36.919  11.246   3.601
39161W        W12229  31.938  16.632  14.916
39162W        W12230  38.528   8.304  12.473
39163W        W12231  41.208  15.102   2.209
39164W        W12232  38.987  23.198  13.492
39165W        W12233   3.246  16.974  10.797
39166W        W12234   5.412  41.851  14.119
39167W        W12235  25.531  26.451   1.772
39168W        W12236  37.783  11.689  14.302
39169W        W12237   8.750  41.535  14.751
39170W        W12238  38.998   2.684   0.881
39171W        W12239   5.931  29.231   0.241
39172W        W12240   2.194  17.261   3.665
39173W        W12241  12.392  38.545  11.199
39174W        W12242  22.353  19.046  12.693
39175W        W12243  36.542  29.875  10.653
39176W        W12244  10.445  42.093  10.062
39177W        W12245  16.008  37.466  13.396
39178W        W12246  15.563   2.027  10.205
39179W        W12247   5.334  40.545  10.802
39180W        W12248  21.034  39.984  11.107
39181W        W12249  44.689  24.778  13.894
39182W        W12250  41.028  33.372  11.021
39183W        W12251  37.089   1.938   3.334
39184W        W12252  37.519  11.674  13.832
39185W        W12253  32.377   8.315   0.188
39186W        W12254  11.795  22.021  11.574
39187W        W12255  30.411  13.507  10.665
39188W        W12256  27.728   4.778  10.949
39189W        W12257   4.259  28.998  11.610
39190W        W12258   2.329  39.333   0.387
39191W        W12259  41.359  44.826  13.053
39192W        W12260  41.308  25.382  14.946
39193W        W12261  39.863  36.373  10.660
39194W        W12262   9.283  32.737  14.366
39195W        W12263  18.212   0.376   0.285
39196W        W12264   6.484  17.198   1.017
39197W        W12265  42.533  11.816   0.032
39198W        W12266  23.733  26.653   2.201
39199W        W12267  13.309  29.455   2.083
39200W        W12268   3.236  35.465   0.362
39201W        W12269  31.897  41.471  14.107
39202W        W12270  32.655  16.101  14.718
39203W        W12271  35.199  21.042   2.803
39204W        W12272  22.355  27.647  13.559
39205W        W12273  16.807   9.770  10.875
39206W        W12274  17.040  43.869  13.684
39207W        W12275  32.164  30.031  13.981
39208W        W12276  28.201  41.495  12.114
39209W        W12277  30.159  24.914   0.746
39210W        W12278  40.825  20.758  13.444
39211W        W12279  42.024  22.122  13.975
39212W        W12280  28.870  14.188  11.152
39213W        W12281   9.914  30.851  14.301
39214W        W12282  26.025  40.690  12.205
39215W        W12283  28.737   0.278  12.693
39216W        W12284  12.671   4.983  14.499
39217W        W12285  42.668  29.535   3.688
39218W        W12286  23.543  33.128   2.796
39219W        W12287  41.937  37.364  14.983
39220W        W12288  12.336   3.118  13.986
39221W        W12289  12.189  24.566  13.895
39222W        W12290  20.028  18.157  12.381
39223W        W12291   4.893  37.604   1.596
39224W        W12292  39.313   6.844   1.357
39225W        W12293  36.995  36.867  12.431
39226W        W12294  40.310   8.311  10.280
39227W        W12295   0.762  19.294   2.229
39228W        W12296  41.055  34.874  14.464
39229W        W12297  42.866  11.003  14.575
39230W        W12298  36.977  26.085  14.548
39231W        W12299  26.733  13.822   0.829
39232W        W12300  39.102   2.192  14.380
39233W        W12301  12.569  31.618  13.839
39234W        W12302  32.013   1.241  12.585
39235W        W12303  24.311  32.645   2.346
39236W        W12304  40.399  41.730   1.036
39237W        W12305  22.525  10.778  11.618
39238W        W12306  43.779  16.735   4.834
39239W        W12307  23.037  30.649  14.216
39240W        W12308  17.229  37.468  12.073
39241W        W12309  35.110  43.513  11.350
39242W        W12310   4.836   5.165  12.371
39243W        W12311  18.720   5.820  11.627
39244W        W12312  20.560  34.976  14.966
39245W        W12313  42.021  40.194  13.446
39246W        W12314  23.430   7.160   3.344
39247W        W12315  16.574  37.820   0.446
39248W        W12316  24.011  18.979   4.070
39249W        W12317  25.093   8.714   2.312
39250W        W12318  11.859   4.998   1.347
39251W        W12319  11.107  29.669  10.698
39252W        W12320  44.255  29.476   2.669
39253W        W12321  23.991   1.288  13.621
39254W        W12322  33.136  15.551  14.330
39255W        W12323   2.819  42.494   4.709
39256W        W12324  14.566  28.191  13.685
39257W        W12325  22.979  15.209  13.885
39258W        W12326  11.182  43.880   1.399
39259W        W12327  44.233  42.543  10.783
39260W        W12328  40.053  36.953   3.619
39261W        W12329  41.274  32.815   1.721
39262W        W12330  30.425  10.783  14.039
39263W        W12331  29.181  13.076  11.989
39264W        W12332   1.734  32.852  11.182
39265W        W12333  10.340  37.743   2.420
39266W        W12334   2.211  38.883  10.148
39267W        W12335  41.412  28.180   4.796
39268W        W12336  33.889   2.756   1.967
39269W        W12337  16.319  43.749  11.198
39270W        W12338   3.193  19.489  11.353
39271W        W12339  15.346   2.694   1.706
39272W        W12340  14.434  25.530   4.232
39273W        W12341  15.765   5.835  14.253
39274W        W12342  39.333  23.707   0.255
39275W        W12343  13.528   8.124   3.752
39276W        W12344  34.630  26.725  13.627
39277W        W12345  20.997  33.947   4.050
39278W        W12346  39.492   2.524  11.450
39279W        W12347  41.891  33.487  10.747
39280W        W12348  20.243  22.739  12.297
39281W        W12349  39.271   9.513   0.656
39282W        W12350  28.901  26.874   4.212
39283W        W12351  33.533  19.661   0.268
39284W        W12352  18.643  34.770   3.720
39285W        W12353  18.265   4.903   2.053
39286W        W12354  25.348  15.140   4.926
39287W        W12355  26.046  27.580  14.093
39288W        W12356  37.934  31.392  12.040
39289W        W12357  10.877   8.922   2.744
39290W        W12358   3.427  26.523   4.703
39291W        W12359  12.824  37.671  13.527
39292W        W12360   0.533  34.111  12.404
39293W        W12361  30.097  26.693  10.683
39294W        W12362  26.859  15.620   1.735
39295W        W12363  19.945   8.635   0.184
39296W        W12364  28.751  11.183   0.761
39297W        W12365   3.740   9.780  14.205
39298W        W12366  10.341  26.269  11.902
39299W        W12367  18.172  18.557   1.466
39300W        W12368  30.611  12.174   3.628
39301W        W12369  37.883  43.368  12.387
39302W        W12370  35.855   0.115  14.269
39303W        W12371  40.816  32.005  14.287
39304W        W12372  42.700  15.662   4.410
39305W        W12373   1.163  30.064   4.389
39306W        W12374  39.109  21.919   4.131
39307W        W12375  34.634   2.405   2.692
39308W        W12376  15.725  26.072   2.275
39309W        W12377  16.214   4.916   2.597
39310W        W12378  12.607  38.045   2.218
39311W        W12379  18.675  11.755   1.255
39312W        W12380  40.843  10.826  12.662
39313W        W12381   5.228   8.209   2.833
39314W        W12382  23.614  36.128   0.312
39315W        W12383  29.830  11.623   4.097
39316W        W12384   2.293   6.807  10.572
39317W        W12385   0.424   4.482  12.708
39318W        W12386  19.222  21.144   0.536
39319W        W12387   4.438  37.311   2.296
39320W        W12388   9.604  27.432   4.156
39321W        W12389   8.815  15.979   4.255
39322W        W12390  33.296  15.086  11.446
39323W        W12391  13.622  23.983  11.683
39324W        W12392  25.834  10.830   1.351
39325W        W12393  18.567  39.639   4.071
39326W        W12394  39.022  22.281  10.165
39327W        W12395  15.581  31.578   3.229
39328W        W12396  41.982   4.914   4.543
39329W        W12397   7.044  43.759   1.780
39330W        W12398  33.965  26.416   4.232
39331W        W12399  15.640   7.857  14.035
39332W        W12400   4.958   2.475   2.666
39333W        W12401   0.900  29.627  13.896
39334W        W12402   7.965  12.724  10.994
39335W        W12403  17.077   7.080   0.910
39336W        W12404  44.220  22.588   2.813
39337W        W12405  27.755  43.692   3.441
39338W        W12406  33.604  36.000  12.514
39339W        W12407   2.790  12.546  13.924
39340W        W12408  14.645  36.121   2.400
39341W        W12409   9.777  37.127  11.879
39342W        W12410  18.173  36.363  14.088
39343W        W12411  29.062  13.304   1.283
39344W        W12412  44.812  13.940  13.007
39345W        W12413   3.503  29.636  10.983
39346W        W12414   7.303  28.407  11.096
39347W        W12415   7.391   2.471  12.899
39348W        W12416  26.676  12.670   9.810
39349W        W12417  39.387  19.975   1.890
39350W        W12418   6.473   0.462   3.385
39351W        W12419   7.768  27.625  12.848
39352W        W12420  34.893  40.755  14.104
39353W        W12421  10.470  41.344  13.807
39354W        W12422  11.707  26.983   0.804
39355W        W12423  28.683  38.473   0.156
39356W        W12424  43.884  29.339   0.359
39357W        W12425  39.708  24.048  10.981
39358W        W12426  32.418   0.724  14.527
39359W        W12427  12.187   3.779   4.089
39360W        W12428  25.264  31.413   2.377
39361W        W12429  43.622  27.099   0.887
39362W        W12430  15.852  28.617  11.539
39363W        W12431  33.003  15.734   0.677
39364W        W12432   8.316  22.338   1.132
39365W        W12433  33.438  13.263   4.132
39366W        W12434  37.442   3.722   2.141
39367W        W12435   2.136  19.743   3.657
39368W        W12436  42.422  39.824  13.382
39369W        W12437  40.931   8.838   3.945
39370W        W12438  28.152  41.385  11.191
39371W        W12439   3.089  17.392   0.308
39372W        W12440  15.142  21.762   0.017
39373W        W12441   3.875  27.018  11.685
39374W        W12442  19.042  30.015   4.117
39375W        W12443  30.590  27.053   1.924
39376W        W12444   5.718  21.737  13.446
39377W        W12445  10.234  10.681  12.837
39378W        W12446   4.836  21.035  13.385
39379W        W12447  15.529  35.401   1.623
39380W        W12448  13.216  39.917  11.988
39381W        W12449  11.415  37.516  11.586
39382W        W12450   4.703  20.537  10.508
39383W        W12451  20.169  26.932   0.412
39384W        W12452  21.759  42.986  10.580
39385W        W12453  34.115   0.971   1.382
39386W        W12454  40.743  36.335  12.663
39387W        W12455  43.574   8.706  12.101
39388W        W12456  29.982  38.080  10.756
39389W        W12457  30.924  41.345  10.735
39390W        W12458  29.199   1.968  11.579
39391W        W12459  32.915   4.876  14.345
39392W        W12460   5.907  30.163   0.727
39393W        W12461  27.470  28.949   1.277
39394W        W12462  34.412  16.247  14.080
39395W        W12463  22.596  26.765   3.596
39396W        W12464  37.445  38.548   0.325
39397W        W12465  39.506  23.764  12.457
39398W        W12466  19.442   6.269  14.386
39399W        W12467  19.007  16.593  11.113
39400W        W12468  26.274  23.601   2.024
39401W        W12469  12.156   0.203  13.307
39402W        W12470   8.838  11.310  14.797
39403W        W12471   1.470  13.156   1.316
39404W        W12472  32.660  15.799   4.558
39405W        W12473  24.621  33.032   3.728
39406W        W12474  22.849  26.701   2.578
39407W        W12475  35.056  23.109   4.398
39408W        W12476  32.974  18.857   1.326
39409W        W12477  41.480  11.461   2.792
39410W        W12478  12.306   0.168  11.673
39411W        W12479  11.295  18.139   0.852
39412W        W12480  12.573  16.163  13.028
39413W        W12481  37.867  38.035   4.420
39414W        W12482  41.592   9.723  12.785
39415W        W12483  36.755   7.712  14.418
39416W        W12484  15.651  39.359   0.462
39417W        W12485   5.996  42.369  13.384
39418W        W12486  14.298  44.332  14.525
39419W        W12487  37.119   5.721  12.198
39420W        W12488  35.526  34.768   2.321
39421W        W12489  23.380  11.655   0.333
39422W        W12490   1.327  43.504  12.366
39423W        W12491   8.666   1.011   2.821
39424W        W12492  34.977   3.679  11.605
39425W        W12493  23.730  33.894   1.129
39426W        W12494  11.261  44.898   3.147
39427W        W12495  44.657   2.771   4.112
39428W        W12496  41.530  10.684  14.198
39429W        W12497  16.404  14.476   4.649
39430W        W12498  15.718  36.134  13.486
39431W        W12499   8.126  20.665   0.276
39432W        W12500  15.124  43.805  14.968
39433W        W12501   6.617  27.057  14.497
39434W        W12502  31.266  20.591  13.410
39435W        W12503  37.885   9.203   1.403
39436W        W12504  16.082   5.959  12.527
39437W        W12505  14.769  22.177   2.648
39438W        W12506  11.355  13.412  11.665
39439W        W12507  23.564  44.052  10.627
39440W        W12508   2.800  12.279   4.072
39441W        W12509  43.324  10.959  10.690
39442W        W12510   8.610  22.757  11.586
39443W        W12511  35.914   0.393   3.857
39444W        W12512  34.568  16.900  13.252
39445W        W12513  28.624  13.332  14.290
39446W        W12514  29.402  21.982   1.640
39447W        W12515  29.993  42.950  11.982
39448W        W12516  20.051  24.007   0.963
39449W        W12517  20.319  25.140   0.351
39450W        W12518  29.486  33.907   2.741
39451W        W12519  16.624  39.414   0.348
39452W        W12520   0.815  12.402  12.461
39453W        W12521  27.868  19.420   9.766
39454W        W12522  14.541  43.273  13.464
39455W        W12523  18.178  20.087   4.602
39456W        W12524  11.193  29.703  13.069
39457W        W12525  36.499  18.093  14.837
39458W        W12526   1.757  43.803  14.795
39459W        W12527  29.174   4.661  12.843
39460W        W12528   2.723   1.893  12.657
39461W        W12529   6.757  32.995   0.297
39462W        W12530  14.244  13.800  12.408
39463W        W12531  24.138  16.676   3.681
39464W        W12532   2.415  37.432   3.476
39465W        W12533   6.274  28.700  10.458
39466W        W12534  19.575  41.378   1.692
39467W        W12535   9.176   6.198   0.688
39468W        W12536  20.687   0.761   5.134
39469W        W12537  32.713  18.123  11.528
39470W        W12538  26.456   9.811  13.227
39471W        W12539   0.624  10.152   1.382
39472W        W12540  41.915  33.691  13.568
39473W        W12541   0.490  15.791  12.112
39474W        W12542  44.486  44.940  11.720
39475W        W12543  36.484  38.024  11.122
39476W        W12544  29.871   1.061   2.368
39477W        W12545  15.164  32.809   4.520
39478W        W12546   2.349  31.636  11.687
39479W        W12547  37.881  17.274   2.000
39480W        W12548  34.630  29.573   1.959
39481W        W12549  15.782  17.700   3.677
39482W        W12550  35.365  28.561   2.739
39483W        W12551  12.142  42.499   0.417
39484W        W12552  42.983   4.779   0.206
39485W        W12553  18.814  31.494   1.941
39486W        W12554   2.319  21.153   4.382
39487W        W12555  31.178   7.939  12.003
39488W        W12556   7.660  13.871  11.441
39489W        W12557  19.714  44.384  10.243
39490W        W12558   3.668  43.709   2.668
39491W        W12559  17.693  14.255   2.195
39492W        W12560   9.488  14.329   3.075
39493W        W12561  32.501  11.873   1.704
39494W        W12562   8.005  16.199   3.614
39495W        W12563  29.698   7.512   4.648
39496W        W12564   3.952  33.548  13.559
39497W        W12565   5.412   4.382  11.660
39498W        W12566  11.755  16.617   4.265
39499W        W12567  16.349  12.510   2.651
39500W        W12568  32.946  13.174   0.938
39501W        W12569  35.370  37.777  13.993
39502W        W12570  40.420  21.283  13.763
39503W        W12571  25.026  26.276   0.335
39504W        W12572   4.884  18.648   0.198
39505W        W12573  31.221  10.394  14.002
39506W        W12574  19.961  38.821   3.066
39507W        W12575  24.081  25.970   2.349
39508W        W12576   7.191  31.208   0.190
39509W        W12577  38.851  12.836  11.957
39510W        W12578  25.889  33.872   3.357
39511W        W12579  16.628  37.456  10.767
39512W        W12580  29.562  23.557  11.209
39513W        W12581   7.461  41.806  10.673
39514W        W12582  44.760   3.498   1.745
39515W        W12583  14.661  13.316  11.207
39516W        W12584  26.201   4.486  10.204
39517W        W12585   1.469  40.828   1.848
39518W        W12586  33.463   5.424  13.338
39519W        W12587  36.998  19.006  14.947
39520W        W12588  16.051  13.349   3.151
39521W        W12589  32.031   2.392  14.943
39522W        W12590  23.722  11.267   4.803
39523W        W12591  27.040  40.133   4.588
39524W        W12592  14.811  22.843   1.680
39525W        W12593  14.833  10.305  14.232
39526W        W12594  37.558  37.942  14.829
39527W        W12595  22.738  32.067  14.793
39528W        W12596  35.937   2.034  12.471
39529W        W12597  43.769  15.815  12.543
39530W        W12598  18.254  33.507   4.893
39531W        W12599   0.300  27.485   3.781
39532W        W12600   8.201   0.680  14.113
39533W        W12601  16.582   5.734  12.378
39534W        W12602   8.214  31.211   3.141
39535W        W12603  25.069  12.578  10.658
39536W        W12604  31.207   7.245   2.079
39537W        W12605  31.067  26.346   1.887
39538W        W12606  32.986  16.271   0.576
39539W        W12607  41.809  40.723   0.326
39540W        W12608  39.891  27.391   1.372
39541W        W12609  15.043   7.950  12.369
39542W        W12610  14.745  36.013   4.578
39543W        W12611  39.222  11.793  10.502
39544W        W12612  32.185  30.938   3.762
39545W        W12613   8.219   6.008   0.805
39546W        W12614   9.679  25.443   4.013
39547W        W12615  44.049  38.987   0.775
39548W        W12616  13.320  20.212   4.986
39549W        W12617   4.206  18.336   1.385
39550W        W12618  23.595  38.089   5.438
39551W        W12619  34.088   0.511  11.107
39552W        W12620   3.808  25.726   2.395
39553W        W12621  43.182  28.823   0.427
39554W        W12622  39.002  25.302  12.932
39555W        W12623   5.273  26.172   2.190
39556W        W12624  24.215  31.624  10.715
39557W        W12625   4.375  19.679  13.862
39558W        W12626  38.927  40.807  14.997
39559W        W12627  24.082  36.619   4.257
39560W        W12628  12.090  28.195  12.915
39561W        W12629  10.438  33.066   0.995
39562W        W12630  18.237   7.642  12.115
39563W        W12631  18.003  38.996   2.210
39564W        W12632  16.161  37.104   0.179
39565W        W12633  32.501  13.640  10.502
39566W        W12634  30.594   4.314  13.289
39567W        W12635  38.459  26.427   2.360
39568W        W12636  34.993  18.154   1.779
39569W        W12637   3.231   7.303   1.980
39570W        W12638  34.830  15.644  12.023
39571W        W12639  21.234   1.686   2.732
39572W        W12640  33.963  39.575  10.755
39573W        W12641  21.968   1.245   3.848
39574W        W12642  38.874   4.334   3.299
39575W        W12643  29.492  33.905   0.324
39576W        W12644  37.618  13.222  11.353
39577W        W12645  21.693  41.194   4.107
39578W        W12646  28.044  18.704   0.924
39579W        W12647   4.675  40.355  14.100
39580W        W12648  31.408  10.236  11.331
39581W        W12649  14.130   0.727  11.285
39582W        W12650  20.213  20.725   2.769
39583W        W12651  17.505   3.173   0.575
39584W        W12652  25.214   2.231  13.791
39585W        W12653   9.445  44.732   4.906
39586W        W12654   3.750  28.836   2.402
39587W        W12655  37.573  39.986   0.404
39588W        W12656   7.796  34.900   0.740
39589W        W12657  28.199  38.010  13.464
39590W        W12658  42.040  43.392  11.617
39591W        W12659  24.122  30.607   3.688
39592W        W12660  30.910  33.057   1.462
39593W        W12661  31.546  11.870   3.697
39594W        W12662  15.286  38.336   0.360
39595W        W12663  27.119  31.065  12.934
39596W        W12664  32.995  15.038  14.399
39597W        W12665  13.109  44.964  10.799
39598W        W12666  21.250  38.934  14.502
39599W        W12667  16.849  37.038  10.496
39600W        W12668  15.171  29.500   2.300
39601W        W12669  22.540  34.062   0.071
39602W        W12670  31.143  30.576  14.348
39603W        W12671  20.772  12.835  13.591
39604W        W12672  23.739  18.534  11.078
39605W        W12673  27.608  28.313  14.463
39606W        W12674   0.011  18.268  13.468
39607W        W12675   2.358  37.559   0.822
39608W        W12676  35.202  19.639  11.327
39609W        W12677   4.883  43.238  10.692
39610W        W12678  32.647  23.775  13.652
39611W        W12679  25.627  44.534  14.875
39612W        W12680  23.800  41.831   4.860
39613W        W12681  27.413   0.027   4.452
39614W        W12682  18.185   8.242   2.438
39615W        W12683   6.471  16.102   3.677
39616W        W12684  40.562  12.686  14.000
39617W        W12685   9.715  27.241   0.022
39618W        W12686   5.837  11.621  12.091
39619W        W12687   9.204  42.319   5.034
39620W        W12688  31.575  31.855  13.447
39621W        W12689  30.543  10.639   1.327
39622W        W12690  32.996  37.745   3.664
39623W        W12691  15.057  14.815   0.484
39624W        W12692   4.500  36.939  12.009
39625W        W12693  42.358   0.566  13.024
39626W        W12694  32.111   0.464   1.445
39627W        W12695  13.173  12.202   3.636
39628W        W12696   7.413  11.472  12.842
39629W        W12697  30.217  39.438  14.066
39630W        W12698  10.584   5.686  13.888
39631W        W12699  34.406  10.181  12.207
39632W        W12700   1.332  13.501  14.039
39633W        W12701  15.840  26.527   1.322
39634W        W12702  21.021  44.013  11.021
39635W        W12703  42.081   1.769  12.581
39636W        W12704  35.065  34.348   0.722
39637W        W12705  39.281   0.299   4.038
39638W        W12706  43.152   4.480  14.809
39639W        W12707  34.706   6.647  12.934
39640W        W12708  20.520  29.394  12.910
39641W        W12709   1.538  26.645   2.220
39642W        W12710   8.296  20.706   4.567
39643W        W12711   0.537  23.828  14.974
39644W        W12712   0.321  40.842   4.590
39645W        W12713  44.736  10.174  11.165
39646W        W12714  21.316  28.945   3.753
39647W        W12715  28.279  27.587   2.701
39648W        W12716  30.101  19.672  14.408
39649W        W12717   6.749  31.945  12.334
39650W        W12718  40.071  12.696   3.847
39651W        W12719  21.528  42.034  12.397
39652W        W12720   7.502  41.246  12.634
39653W        W12721  30.054  31.926  11.623
39654W        W12722  14.034   5.483   4.235
39655W        W12723  28.222  27.530   4.412
39656W        W12724  30.233  14.736  14.309
39657W        W12725  12.216  31.833  12.779
39658W        W12726  27.906  25.075   1.730
39659W        W12727  12.518   1.813   3.069
39660W        W12728  24.170   3.819  11.162
39661W        W12729   8.142  32.642   0.286
39662W        W12730  13.309  23.475   3.663
39663W        W12731  24.163  38.350   3.144
39664W        W12732  43.369  15.041  12.424
39665W        W12733  25.372   5.444  11.243
39666W        W12734  12.085  16.167  12.830
39667W        W12735  14.040  44.454  13.551
39668W        W12736  44.441  43.103   2.879
39669W        W12737  38.517   7.745   4.042
39670W        W12738   4.495   4.337  12.924
39671W        W12739   6.648  24.183  12.996
39672W        W12740  39.943  22.454   2.787
39673W        W12741  20.024  24.377  12.610
39674W        W12742  20.751  10.583  12.939
39675W        W12743  11.790  25.186   4.208
39676W        W12744   3.825  36.128   1.689
39677W        W12745  20.228   0.118   1.265
39678W        W12746   7.018  15.178   4.147
39679W        W12747  39.838   0.516   1.953
39680W        W12748   0.329  30.474  10.695
39681W        W12749  11.829  42.206  14.405
39682W        W12750  38.192  31.095  13.835
39683W        W12751  21.255   0.388  11.425
39684W        W12752  14.104   8.111  12.568
39685W        W12753  21.588   2.869   4.246
39686W        W12754   6.930  15.355  10.809
39687W        W12755  25.399  13.231   4.508
39688W        W12756  17.596  41.337   4.274
39689W        W12757  42.311  29.084  11.008
39690W        W12758  11.117  40.421  12.179
39691W        W12759  24.573   2.382   0.758
39692W        W12760  43.817  22.540  13.842
39693W        W12761  35.109  35.004   0.560
39694W        W12762  44.007   7.931   0.192
39695W        W12763  41.077   8.845   2.476
39696W        W12764  34.924  32.663   3.621
39697W        W12765   7.385  15.747  12.085
39698W        W12766  17.777  42.020  12.122
39699W        W12767  24.163  29.025   1.847
39700W        W12768  19.937   6.722  14.046
39701W        W12769  34.358  36.137  11.242
39702W        W12770  32.063  35.277  10.581
39703W        W12771  25.038  41.782   3.241
39704W        W12772  22.236  38.885   0.401
39705W        W12773  11.823  34.497   1.201
39706W        W12774  31.414  30.940  13.590
39707W        W12775  21.194  37.853   1.176
39708W        W12776  20.567   5.520  12.737
39709W        W12777  22.203  27.344   0.222
39710W        W12778  17.546  39.330   2.903
39711W        W12779  13.228  44.839  14.600
39712W        W12780  29.300  31.414   3.371
39713W        W12781   7.470   5.773   2.170
39714W        W12782  40.815   9.513  13.960
39715W        W12783   0.997  30.916  13.581
39716W        W12784  25.180   3.933   1.544
39717W        W12785  41.027  43.472   3.775
39718W        W12786   3.847  40.552  11.708
39719W        W12787   6.172   2.950   2.611
39720W        W12788  40.361  23.268   4.620
39721W        W12789  13.283  12.696  10.173
39722W        W12790  36.663   5.426   2.623
39723W        W12791  41.717   6.632  11.090
39724W        W12792  21.811  32.664  13.522
39725W        W12793   2.429  10.944   3.868
39726W        W12794  35.085   6.206   2.263
39727W        W12795  44.052   7.694   0.638
39728W        W12796  39.675  40.019  12.911
39729W        W12797  39.056  20.670   3.567
39730W        W12798  37.128  15.566   2.963
39731W        W12799  12.275  20.722  14.843
39732W        W12800   3.061  30.683  14.079
39733W        W12801  26.095  28.581   3.666
39734W        W12802  24.807  17.798  13.859
39735W        W12803  22.159  17.073   4.876
39736W        W12804  27.936  35.304   1.405
39737W        W12805  35.979  14.749  12.072
39738W        W12806  20.734  21.777  14.047
39739W        W12807   5.624  19.860   1.858
39740W        W12808   9.110  14.726   4.647
39741W        W12809  40.451  22.756   4.557
39742W        W12810  33.676  10.169  13.516
39743W        W12811  12.311   1.551  11.139
39744W        W12812  10.653  13.600  12.104
39745W        W12813  31.135  16.853  13.824
39746W        W12814  39.364  16.798   0.378
39747W        W12815  42.938  36.117   3.715
39748W        W12816  39.480  44.483   1.457
39749W        W12817   2.850  38.144  14.011
39750W        W12818  20.997  23.067  12.456
39751W        W12819  34.030  33.908   4.640
39752W        W12820  32.592   2.267   4.641
39753W        W12821  18.982   0.514  14.872
39754W        W12822  24.248   0.449  13.914
39755W        W12823  35.468  37.317   3.915
39756W        W12824  11.714   8.699  12.026
39757W        W12825   8.087  36.021   3.550
39758W        W12826   0.406  32.100   4.933
39759W        W12827   5.400  35.983   2.966
39760W        W12828  36.371   3.214   9.963
39761W        W12829  35.357   6.505   1.436
39762W        W12830   4.951   3.173  13.902
39763W        W12831  18.680  32.589   0.156
39764W        W12832  10.101   5.812  14.069
39765W        W12833   9.584   7.747   4.666
39766W        W12834  12.674   9.902  11.453
39767W        W12835  43.045  12.666   2.337
39768W        W12836  11.203  36.765  13.801
39769W        W12837  34.935  41.725   3.599
39770W        W12838  32.500  37.835   3.814
39771W        W12839  20.203  31.421   1.693
39772W        W12840  14.860   9.971   3.943
39773W        W12841  23.222  26.467  11.605
39774W        W12842  33.343  16.605   4.121
39775W        W12843  41.744  20.796   3.638
39776W        W12844   0.481   3.548  10.633
39777W        W12845   7.602  21.494  13.758
39778W        W12846   6.844  17.976  14.883
39779W        W12847  33.221   6.284   3.082
39780W        W12848  43.306  33.412  12.455
39781W        W12849  19.109  10.121   2.941
39782W        W12850  10.743  27.514  12.537
39783W        W12851  33.601  41.248   1.552
39784W        W12852  28.226   3.163  10.168
39785W        W12853  32.723  39.948   3.251
39786W        W12854  12.551  20.500   0.894
39787W        W12855  29.894  35.918  11.630
39788W        W12856   9.248   8.126  11.270
39789W        W12857   8.001  12.834   0.672
39790W        W12858   3.125  39.638   3.009
39791W        W12859  27.968   7.305   1.703
39792W        W12860   3.512   8.292  14.008
39793W        W12861  25.485   8.387  12.948
39794W        W12862  19.746  30.212   0.925
39795W        W12863  33.456  35.103   3.634
39796W        W12864  40.989  27.279  12.471
39797W        W12865  31.747  40.745  11.057
39798W        W12866  41.728  35.133  12.422
39799W        W12867  19.587   6.839   4.538
39800W        W12868  25.768  38.355   3.141
39801W        W12869  22.678  15.736   0.921
39802W        W12870  23.500  25.676  11.871
39803W        W12871   6.758  10.977  10.638
39804W        W12872  23.665  14.789  12.106
39805W        W12873  14.216  39.079   3.515
39806W        W12874  40.827  28.006   1.101
39807W        W12875  28.129  11.336   1.343
39808W        W12876  16.099   1.814   1.263
39809W        W12877  41.610   4.296  11.504
39810W        W12878  36.746  11.223  13.945
39811W        W12879   0.863   6.939   2.855
39812W        W12880  21.516  28.530   2.615
39813W        W12881  18.851   5.721  10.997
39814W        W12882  44.323  23.927  11.157
39815W        W12883  26.052  15.225   3.300
39816W        W12884   3.272   9.846  13.957
39817W        W12885  11.392  28.181  14.874
39818W        W12886   8.246   0.201  14.338
39819W        W12887  25.769   7.733  12.147
39820W        W12888  18.436  21.269  11.061
39821W        W12889  20.509  13.663   4.601
39822W        W12890  34.372  33.162  11.358
39823W        W12891  31.015  26.667  13.977
39824W        W12892  16.523  17.367  11.934
39825W        W12893   0.909  44.390  13.872
39826W        W12894  17.791  36.314   0.372
39827W        W12895   2.856  11.613  11.606
39828W        W12896   3.005   5.419  12.545
39829W        W12897  28.083   9.112  11.543
39830W        W12898  19.051  43.283  13.447
39831W        W12899   4.887  37.949   3.838
39832W        W12900  28.280  21.958   0.046
39833W        W12901  14.374  24.631  12.544
39834W        W12902  29.055  10.538  10.961
39835W        W12903  21.229  24.953   3.101
39836W        W12904  12.893  12.015   1.392
39837W        W12905  21.613  25.271   3.763
39838W        W12906   7.135  21.289  14.322
39839W        W12907   3.861  10.176   0.512
39840W        W12908  25.598  36.102   3.941
39841W        W12909  32.198   9.284   3.168
39842W        W12910  13.132  13.661  12.777
39843W        W12911  12.783  16.220   4.990
39844W        W12912  10.730   4.376   2.813
39845W        W12913  24.463   5.410   2.402
39846W        W12914   1.974   2.284  11.519
39847W        W12915  42.095  21.012   5.075
39848W        W12916  39.954  27.756   4.603
39849W        W12917  30.120  43.618   4.819
39850W        W12918   5.667  16.804   2.734
39851W        W12919   9.368  34.250   0.200
39852W        W12920  23.946  43.092   2.311
39853W        W12921  43.700  27.219   3.437
39854W        W12922  27.015  41.757   4.508
39855W        W12923  12.814  33.116   1.421
39856W        W12924   8.291  31.033  10.585
39857W        W12925  17.490  18.213   2.338
39858W        W12926  40.455   1.923  11.160
39859W        W12927   6.164  19.964   2.281
39860W        W12928  13.711   9.837   0.486
39861W        W12929   1.566  13.245  10.667
39862W        W12930  21.266  27.682   1.167
39863W        W12931  13.051  36.039   4.225
39864W        W12932   0.045  31.598   4.092
39865W        W12933   1.535  23.981  14.201
39866W        W12934  27.950  20.635  10.360
39867W        W12935  18.142  37.394  13.998
39868W        W12936  34.619  42.595  12.176
39869W        W12937  25.497  30.918   1.252
39870W        W12938   5.928  11.397   2.902
39871W        W12939  10.818  25.467  12.089
39872W        W12940   4.453  32.966  10.479
39873W        W12941   9.243  18.553  12.715
39874W        W12942  36.591  44.825   4.401
39875W        W12943  19.541  29.482   1.318
39876W        W12944  35.101  24.686  10.862
39877W        W12945  10.146  32.304  14.357
39878W        W12946  26.663  33.759  14.996
39879W        W12947   4.239  42.373  11.190
39880W        W12948  43.263  38.432  11.659
39881W        W12949   6.130  44.091  14.568
39882W        W12950  17.167   0.814  11.978
39883W        W12951   8.324  23.717  13.487
39884W        W12952  12.036   4.286  12.823
39885W        W12953  26.637  24.376   4.689
39886W        W12954  36.136   7.272  12.220
39887W        W12955  14.006   9.938  13.698
39888W        W12956  22.900   5.712  11.071
39889W        W12957  11.836  27.614   2.751
39890W        W12958  18.638   8.355   1.474
39891W        W12959  42.323  26.924   3.289
39892W        W12960  37.988   1.450  10.656
39893W        W12961  15.161  30.242  13.987
39894W        W12962  38.016  21.297   0.466
39895W        W12963  35.343  35.621   1.185
39896W        W12964  19.512  29.530   4.963
39897W        W12965  42.623  30.970   0.839
39898W        W12966  25.513  11.639  10.636
39899W        W12967  44.559  37.494   3.829
39900W        W12968  20.319  15.204  12.048
39901W        W12969  14.554   9.439   2.769
39902W        W12970  44.416   7.689  12.994
39903W        W12971  30.653  10.730   4.646
39904W        W12972  24.624  13.331  14.828
39905W        W12973   8.655   9.216   1.817
39906W        W12974  32.882   8.258  11.879
39907W        W12975  19.830  20.456  11.195
39908W        W12976  10.847  38.348   4.617
39909W        W12977  44.811  30.998   1.086
39910W        W12978   1.734  37.807  11.173
39911W        W12979   6.647  18.675  14.022
39912W        W12980   4.415  40.405   3.236
39913W        W12981  13.967  33.569  13.832
39914W        W12982  35.976  30.601   3.671
39915W        W12983  21.311  34.610   0.051
39916W        W12984   5.326  13.739   2.398
39917W        W12985  44.459  13.235   2.412
39918W        W12986  36.390  32.414   2.960
39919W        W12987   0.533  19.042  10.731
39920W        W12988  36.430   4.856  14.912
39921W        W12989  36.071  34.311   9.741
39922W        W12990   8.890  13.077   1.239
39923W        W12991  20.702  29.500  12.437
39924W        W12992  38.828   0.355  12.133
39925W        W12993  37.043  16.441   3.987
39926W        W12994  38.855  20.200   0.782
39927W        W12995   7.807  23.864  10.603
39928W        W12996  36.041   4.451   0.171
39929W        W12997  28.970  34.636  11.090
39930W        W12998  21.027  25.976  11.968
39931W        W12999  24.533  43.684   3.647
39932W        W13000  44.103  38.879   4.143
39933W        W13001  24.202   0.419   2.255
39934W        W13002   0.130   8.570   3.575
39935W        W13003  16.584  11.695  10.694
39936W        W13004  25.126  35.528  10.680
39937W        W13005  14.177  28.592   4.541
39938W        W13006  28.515  43.888  14.343
39939W        W13007   6.355   1.259   1.819
39940W        W13008  26.079  42.110  11.044
39941W        W13009  31.597  25.536  13.493
39942W        W13010  15.898  24.533   3.620
39943W        W13011  20.697  44.945   1.714
39944W        W13012  32.871  34.168  11.595
39945W        W13013  39.997  38.354   2.652
39946W        W13014  12.287  40.915   3.541
39947W        W13015   5.985  10.829   1.329
39948W        W13016   4.996  38.244  13.290
39949W        W13017  43.208  23.712   2.192
39950W        W13018  13.396  12.147  13.518
39951W        W13019  13.842  19.099   0.324
39952W        W13020  13.976  36.819   2.691
39953W        W13021   3.719  43.214  11.593
39954W        W13022  42.904  16.469   1.039
39955W        W13023  43.248  41.873   0.856
39956W        W13024  43.735  43.355  10.690
39957W        W13025  30.650   5.970   4.083
39958W        W13026  23.055  17.775   2.554
39959W        W13027  40.176  17.222  10.455
39960W        W13028  13.595   2.698  12.396
39961W        W13029  43.469   8.616  13.629
39962W        W13030  13.535   4.743   4.310
39963W        W13031  24.274  26.105   1.434
39964W        W13032  10.357  26.769   2.067
39965W        W13033   7.511   2.273   3.738
39966W        W13034  34.087  32.931   1.336
39967W        W13035   8.378  42.667   1.107
39968W        W13036  32.163  17.151   1.405
39969W        W13037  16.180  19.867   4.082
39970W        W13038   7.695  43.740   4.369
39971W        W13039   3.742  25.334   5.091
39972W        W13040   2.394  42.652  14.928
39973W        W13041  34.413  24.157  12.577
39974W        W13042  19.446  43.923   5.226
39975W        W13043  38.692   7.883   1.848
39976W        W13044  29.950  15.790  11.221
39977W        W13045  34.094   6.468  11.133
39978W        W13046  17.804  41.402  13.460
39979W        W13047  19.553  21.543   0.544
39980W        W13048  14.769  38.384   1.804
39981W        W13049  18.140   1.642  12.596
39982W        W13050  33.799  37.516   3.115
39983W        W13051   6.900   6.866  12.072
39984W        W13052  41.957  35.844   3.588
39985W        W13053  25.042  21.489   0.615
39986W        W13054  37.077  17.090   3.814
39987W        W13055  22.579  13.563  11.386
39988W        W13056   2.545   5.913   1.832
39989W        W13057  14.687  44.500   1.795
39990W        W13058  17.142  29.567  13.498
39991W        W13059  35.242  29.440   5.152
39992W        W13060   3.021  37.323   2.263
39993W        W13061  33.485  19.102   1.405
39994W        W13062  44.689   3.756  13.969
39995W        W13063  10.619  12.645   3.539
39996W        W13064  41.384  38.497  11.666
39997W        W13065  24.691  31.204   3.352
39998W        W13066  23.250  44.856  13.532
39999W        W13067  37.003  24.788  13.130
40000W        W13068  26.522  13.807  11.120
40001W        W13069  33.199  41.119   3.398
40002W        W13070   7.310  18.682   5.082
40003W        W13071   8.449   7.897   3.652
40004W        W13072  15.158  26.913  11.599
40005W        W13073  37.554  30.313  11.171
40006W        W13074  35.248  22.587  10.640
40007W        W13075  32.078  22.857  13.402
40008W        W13076  39.964   1.974  11.389
40009W        W13077  21.697  26.954   0.980
40010W        W13078  33.194  42.350   1.711
40011W        W13079   9.096  14.829   0.789
40012W        W13080  11.630   0.861   4.540
40013W        W13081  43.105  25.444  11.557
40014W        W13082   0.778  22.639  14.954
40015W        W13083  38.644  39.412   4.491
40016W        W13084  13.854  22.047  14.897
40017W        W13085  26.480  25.018   3.704
40018W        W13086  21.039  41.399   4.601
40019W        W13087  14.714  11.628   2.236
40020W        W13088  21.238  40.780  10.669
40021W        W13089  25.352  38.138  13.434
40022W        W13090  34.550  39.450   0.756
40023W        W13091   7.328  12.804   2.968
40024W        W13092   9.917   7.783  11.736
40025W        W13093  12.754  30.301  11.035
40026W        W13094   0.377  17.594   3.166
40027W        W13095   5.928  14.140  10.686
40028W        W13096  43.411   5.172   4.936
40029W        W13097   8.227   9.297  10.707
40030W        W13098  23.637  13.114   1.823
40031W        W13099  21.159  22.482  11.818
40032W        W13100  16.659  29.753  12.844
40033W        W13101  33.171   8.347   1.859
40034W        W13102  33.088   6.397   0.310
40035W        W13103  32.107  44.426  14.502
40036W        W13104  37.090  19.839  14.478
40037W        W13105   2.769   4.435  14.450
40038W        W13106  16.932  31.596   2.255
40039W        W13107   4.239  24.236  10.753
40040W        W13108   8.756   7.005  10.662
40041W        W13109  43.979  40.774   3.249
40042W        W13110   2.991  22.351  11.117
40043W        W13111   3.442   1.459  10.572
40044W        W13112  44.565  39.696   1.364
40045W        W13113  32.469  28.095  11.613
40046W        W13114  20.053   3.309  14.356
40047W        W13115  42.989  12.896  10.746
40048W        W13116   6.323  43.365  11.222
40049W        W13117  29.636  32.432   4.668
40050W        W13118  17.297  21.104   0.374
40051W        W13119  12.759  24.780   4.110
40052W        W13120  31.736   7.212  14.317
40053W        W13121   0.093  41.411   4.480
40054W        W13122  31.942  23.691   4.955
40055W        W13123  34.440  40.775   1.740
40056W        W13124   4.856  25.122   1.344
40057W        W13125  15.543   7.773   4.613
40058W        W13126  17.066   0.979   1.774
40059W        W13127  25.617  14.624   3.784
40060W        W13128  11.027  29.463   0.878
40061W        W13129  31.005  20.656   3.683
40062W        W13130  38.502  43.191   4.113
40063W        W13131  30.833   5.562   2.929
40064W        W13132  38.899  20.521  11.635
40065W        W13133  35.667  22.278   1.132
40066W        W13134   6.899   6.425  11.448
40067W        W13135  39.877  24.538  14.974
40068W        W13136  30.221   2.736   4.350
40069W        W13137   0.908  20.051   4.617
40070W        W13138  25.323  24.897  10.215
40071W        W13139  39.704   9.674  10.300
40072W        W13140  12.603   1.982  14.474
40073W        W13141  41.853   4.760  10.883
40074W        W13142  26.026  31.497  11.365
40075W        W13143  13.322  36.411   4.468
40076W        W13144  20.693  19.993   2.785
40077W        W13145  35.669  26.001   1.271
40078W        W13146  24.751   4.143   3.708
40079W        W13147  11.139  36.844   2.668
40080W        W13148  34.331  37.966  11.691
40081W        W13149  19.565  20.023   0.242
40082W        W13150  30.573  43.623  12.311
40083W        W13151   6.394  42.562  11.319
40084W        W13152  33.395   3.613  12.910
40085W        W13153  17.662   9.776  12.885
40086W        W13154  39.981  29.433  12.515
40087W        W13155  31.856  30.719  13.849
40088W        W13156  31.413  35.853  13.521
40089W        W13157  11.474  21.439  14.933
40090W        W13158  33.435  14.042   3.111
40091W        W13159  32.659  18.277  10.612
40092W        W13160  32.607  18.282   3.085
40093W        W13161   6.824  32.045   4.172
40094W        W13162  20.725  43.180   1.684
40095W        W13163   5.468  32.400   1.228
40096W        W13164  30.039   3.857   4.512
40097W        W13165   5.904  34.096  13.349
40098W        W13166  37.523  28.969   1.107
40099W        W13167   3.004  16.631  14.926
40100W        W13168  32.828  24.036   3.989
40101W        W13169  35.957  24.067   4.299
40102W        W13170  21.404  43.148  13.584
40103W        W13171  39.030  15.466  13.353
40104W        W13172  19.508  10.081  11.606
40105W        W13173  41.798   1.861  13.010
40106W        W13174  42.707  32.953   3.236
40107W        W13175  13.597  15.580   4.020
40108W        W13176   1.710   7.896   3.641
40109W        W13177  26.349  35.620   4.076
40110W        W13178  15.992  29.590  10.351
40111W        W13179   9.100  40.033  13.928
40112W        W13180  16.610   6.983   1.190
40113W        W13181  38.269  16.075  11.162
40114W        W13182  34.942  41.583   4.544
40115W        W13183  18.187  17.000   4.828
40116W        W13184  12.484   4.845  11.632
40117W        W13185  20.097  24.888  12.607
40118W        W13186  18.629  13.055   2.273
40119W        W13187  31.350  35.084  11.675
40120W        W13188  28.762   3.681   1.338
40121W        W13189   4.505   7.900  13.319
40122W        W13190  10.678  37.735   1.768
40123W        W13191  33.111  29.571  12.549
40124W        W13192  22.206   4.371  10.595
40125W        W13193  20.574  24.938  14.953
40126W        W13194  32.335  35.032  14.503
40127W        W13195  14.614  17.741  13.539
40128W        W13196  13.289  34.956   0.572
40129W        W13197  28.465  29.874  11.163
40130W        W13198  28.622  32.932   3.730
40131W        W13199   8.435  20.760  14.321
40132W        W13200   3.541  23.867  14.419
40133W        W13201  44.328  16.304  11.102
40134W        W13202   1.461  40.827  11.055
40135W        W13203  22.327  32.906  11.527
40136W        W13204   5.319  37.640   2.317
40137W        W13205  17.837  13.068   4.665
40138W        W13206  29.393  39.062  10.579
40139W        W13207   5.847   9.237  13.208
40140W        W13208   3.142  43.793  14.447
40141W        W13209   5.832   0.885   1.047
40142W        W13210  23.027  18.524  12.087
40143W        W13211  36.120   0.345  14.636
40144W        W13212  38.793   1.964  11.572
40145W        W13213  29.428   8.691   1.823
40146W        W13214  43.266  28.090  11.113
40147W        W13215   4.214   7.222   2.908
40148W        W13216  23.083  24.882  14.841
40149W        W13217  21.075  24.090  10.589
40150W        W13218   3.707  43.033  11.082
40151W        W13219  17.971   4.487   0.392
40152W        W13220  18.336   5.434  12.881
40153W        W13221   8.261   3.729  11.857
40154W        W13222  36.796  14.352  11.966
40155W        W13223  36.484   7.990   1.467
40156W        W13224  17.042   2.270  12.070
40157W        W13225  40.263  10.845   0.482
40158W        W13226  40.425  30.597   4.003
40159W        W13227  26.165  24.614   4.622
40160W        W13228  16.247  38.233  11.002
40161W        W13229   9.735  34.380   3.209
40162W        W13230  18.149  43.714   2.782
40163W        W13231  35.609   3.938   1.400
40164W        W13232  44.620  34.022  14.234
40165W        W13233  32.001  38.442   1.736
40166W        W13234  31.592   8.454   3.310
40167W        W13235   5.193  41.642   1.858
40168W        W13236  14.126   5.908  12.890
40169W        W13237  29.278  34.546  11.700
40170W        W13238   2.910  37.420   0.148
40171W        W13239  21.276   3.292  12.085
40172W        W13240  12.762   4.442  14.511
40173W        W13241   4.396  21.375  10.299
40174W        W13242  35.434  25.136   2.315
40175W        W13243  35.561  14.336   0.887
40176W        W13244  44.034  41.964   1.257
40177W        W13245  44.449   2.230  12.011
40178W        W13246  40.038  13.228  12.441
40179W        W13247  14.198  33.401  14.254
40180W        W13248   6.726  38.303   0.458
40181W        W13249   6.730  19.516  13.635
40182W        W13250  23.923  42.752  10.740
40183W        W13251  27.661   9.217   5.285
40184W        W13252  19.399  35.094  10.734
40185W        W13253  40.323  10.321   4.135
40186W        W13254  18.378  15.632   0.870
40187W        W13255   6.189   1.735   3.634
40188W        W13256  36.279  31.512  11.151
40189W        W13257  22.581  37.851  13.415
40190W        W13258  39.212  30.162   1.362
40191W        W13259  33.128  39.359  13.827
40192W        W13260  40.599  41.241   4.605
40193W        W13261  24.265  33.170   5.142
40194W        W13262  34.052  42.221   1.211
40195W        W13263  37.889  26.570   0.447
40196W        W13264  12.430  17.675   1.021
40197W        W13265   9.808  40.014   4.178
40198W        W13266  29.853  28.040   1.506
40199W        W13267  17.204  16.119  11.933
40200W        W13268  43.825  24.035  12.093
40201W        W13269  28.518  11.207  10.329
40202W        W13270  38.394  44.017   3.093
40203W        W13271  31.937  37.802  14.345
40204W        W13272   0.633   6.862  14.631
40205W        W13273   6.459  14.600   1.260
40206W        W13274   4.674  10.668  11.809
40207W        W13275   8.837  22.050  13.858
40208W        W13276  12.315  31.719   0.355
40209W        W13277   0.235  10.334  14.741
40210W        W13278   1.161  34.910  11.172
40211W        W13279  30.929  32.284  14.852
40212W        W13280  24.443  20.780  14.902
40213W        W13281  12.951   8.304  13.510
40214W        W13282   7.808  11.094  12.153
40215W        W13283  32.981  35.424  14.059
40216W        W13284  16.654  19.665   3.350
40217W        W13285  19.181  11.750   0.961
40218W        W13286  27.932   2.318   4.235
40219W        W13287   1.840  41.562  14.506
40220W        W13288   2.871   3.952  14.292
40221W        W13289   7.340  24.425   4.340
40222W        W13290   3.785   2.236   2.302
40223W        W13291  23.021  21.667  10.740
40224W        W13292  40.910  36.314   4.762
40225W        W13293  23.107   9.953  11.222
40226W        W13294   3.345  21.134  12.006
40227W        W13295  20.673  36.026   0.453
40228W        W13296  34.367  21.701  13.885
40229W        W13297   4.744   2.809   3.710
40230W        W13298  41.029  40.875  13.105
40231W        W13299  36.844  31.064  10.723
40232W        W13300  16.168  26.292   4.390
40233W        W13301  28.029   3.944   2.593
40234W        W13302  25.508  37.946  10.958
40235W        W13303  31.545  43.299  11.405
40236W        W13304  37.001   2.625   0.521
40237W        W13305   4.712  43.783   2.535
40238W        W13306  10.609  11.253   1.336
40239W        W13307  21.605   2.231   4.992
40240W        W13308  32.617  14.596  10.725
40241W        W13309  26.061   2.089  11.967
40242W        W13310  11.708  20.334  10.200
40243W        W13311   7.750  28.607   3.338
40244W        W13312  35.022   9.401   0.688
40245W        W13313   2.436  24.891   0.421
40246W        W13314  40.600  42.763  12.586
40247W        W13315   2.941  26.723  14.934
40248W        W13316  20.335  33.503  10.739
40249W        W13317   2.348  26.152  11.637
40250W        W13318  35.160  25.658  12.941
40251W        W13319   7.952  42.455   0.908
40252W        W13320  44.045  40.497  11.167
40253W        W13321  29.912  18.435  11.567
40254W        W13322  32.664  23.149   4.913
40255W        W13323   6.213  23.023   1.810
40256W        W13324   0.693  26.455   4.064
40257W        W13325   0.042  20.018  12.491
40258W        W13326  43.350   7.277   3.293
40259W        W13327   0.767  34.053   1.306
40260W        W13328   0.365  11.640   3.373
40261W        W13329   8.217  27.806  13.646
40262W        W13330  41.484  37.314  13.382
40263W        W13331  14.630  37.116  12.516
40264W        W13332   0.204  14.309   1.141
40265W        W13333   6.329  19.794   1.186
40266W        W13334  34.375  43.879   3.783
40267W        W13335  25.666   3.687  14.752
40268W        W13336  12.439  37.054  14.338
40269W        W13337   5.337  26.622  11.103
40270W        W13338  27.204   5.886   2.232
40271W        W13339   1.239  21.193   2.237
40272W        W13340  32.508  19.040   0.413
40273W        W13341  11.369  24.047   0.242
40274W        W13342  12.831  34.299   0.296
40275W        W13343  33.880   3.020   1.026
40276W        W13344   9.646  43.053   0.998
40277W        W13345   3.411  22.028  13.775
40278W        W13346  34.310  32.511   2.266
40279W        W13347  24.164  34.662   3.136
40280W        W13348   3.545  19.664  12.460
40281W        W13349  19.362  22.056   4.991
40282W        W13350  20.991  37.908  14.232
40283W        W13351  11.767   7.895  11.550
40284W        W13352  10.301  33.539   4.958
40285W        W13353  42.074  18.057  10.674
40286W        W13354  16.675   0.863  12.121
40287W        W13355  29.529  19.393   0.804
40288W        W13356  16.865  23.537  12.889
40289W        W13357  10.889  10.810   1.174
40290W        W13358   3.306  37.585   0.472
40291W        W13359   1.937  43.745  13.985
40292W        W13360  10.695  38.045   2.202
40293W        W13361  24.455  18.132   0.164
40294W        W13362  12.449  17.187   3.597
40295W        W13363  33.415  11.426   1.610
40296W        W13364  10.463  34.088  12.039
40297W        W13365  41.016  39.425   1.149
40298W        W13366  30.191  39.041  11.117
40299W        W13367  19.768  33.487   0.166
40300W        W13368  29.448  28.409   3.230
40301W        W13369  33.806  43.591   2.664
40302W        W13370  16.925  28.009   1.419
40303W        W13371   7.682  29.643  14.074
40304W        W13372  10.394   4.345  10.748
40305W        W13373   7.151  32.562   4.171
40306W        W13374  35.355   3.406  13.525
40307W        W13375   0.431  32.540   1.397
40308W        W13376  18.003  21.519   0.301
40309W        W13377  29.006  25.480  12.000
40310W        W13378  33.120   5.752  14.516
40311W        W13379  26.169  32.934  10.621
40312W        W13380  15.207  33.167   3.668
40313W        W13381  24.080  29.084   5.098
40314W        W13382  14.021  37.975   3.727
40315W        W13383   2.317  24.070   2.147
40316W        W13384  31.071  19.917  14.448
40317W        W13385  42.230  32.556  14.076
40318W        W13386  34.629  35.974   0.375
40319W        W13387   3.941   7.654   2.739
40320W        W13388  33.599   0.327   4.971
40321W        W13389  24.545  20.247   0.714
40322W        W13390   3.225  21.826   1.707
40323W        W13391  35.774  36.088  12.928
40324W        W13392  35.005  23.113  14.894
40325W        W13393  26.750  17.742  12.097
40326W        W13394  25.319   3.767   2.789
40327W        W13395  33.161  40.252   2.303
40328W        W13396  11.451  22.930   1.294
40329W        W13397   8.685  33.569   3.425
40330W        W13398  22.610  17.987   2.793
40331W        W13399  27.687  35.328  13.554
40332W        W13400   3.811  40.885  13.004
40333W        W13401  10.531  14.799   4.555
40334W        W13402  28.509  36.490   1.667
40335W        W13403   7.932  41.165   2.754
40336W        W13404  15.418  16.700  14.017
40337W        W13405  23.666   0.628   1.160
40338W        W13406  34.785  30.899   1.143
40339W        W13407   0.746  39.757   4.566
40340W        W13408  27.466  15.179  14.345
40341W        W13409   6.511  24.233  11.125
40342W        W13410  36.091  42.997   4.060
40343W        W13411  10.890  38.614   0.398
40344W        W13412   8.350  26.698   1.842
40345W        W13413   9.933  25.460  13.370
40346W        W13414   7.451  28.507   4.708
40347W        W13415  32.934  35.082  13.267
40348W        W13416  13.813  21.836   4.292
40349W        W13417  16.287  11.221   4.368
40350W        W13418  13.844   4.691   2.284
40351W        W13419  41.024  12.732   3.299
40352W        W13420  31.129  14.697  12.881
40353W        W13421  26.284  28.830   2.339
40354W        W13422  22.077   1.379   2.951
40355W        W13423   3.968  35.409  11.425
40356W        W13424   6.408  31.636   2.233
40357W        W13425  40.308   7.547   2.544
40358W        W13426  36.217  40.869   1.670
40359W        W13427  25.658  36.966  10.228
40360W        W13428  22.558  36.383  12.507
40361W        W13429   1.848  11.694   1.021
40362W        W13430  25.745  19.570  12.433
40363W        W13431  36.920   0.413  14.022
40364W        W13432  44.075  36.463   0.838
40365W        W13433  38.061  35.638  11.617
40366W        W13434  28.062  16.783   1.106
40367W        W13435  19.304  19.437  12.508
40368W        W13436   8.408  35.768   2.542
40369W        W13437  28.393   0.097   4.143
40370W        W13438   7.147  30.505   0.905
40371W        W13439  14.109  34.402   2.419
40372W        W13440  34.992  39.407  14.450
40373W        W13441   3.775  23.054  10.961
40374W        W13442   7.429  26.648   1.814
40375W        W13443   8.359  37.676  12.622
40376W        W13444  38.641  40.995   1.469
40377W        W13445  19.531  17.550  14.344
40378W        W13446  43.521  12.602   1.056
40379W        W13447  17.370  28.575   4.854
40380W        W13448   5.815  18.660   3.775
40381W        W13449   4.002  13.863  13.431
40382W        W13450  35.000   8.921  13.363
40383W        W13451  18.289  12.678  10.537
40384W        W13452  18.608   3.197   3.206
40385W        W13453  40.091  39.808  14.495
40386W        W13454  36.421   8.236   0.483
40387W        W13455   3.354  28.726  10.692
40388W        W13456  20.959  14.357  13.551
40389W        W13457  29.552  32.508  12.740
40390W        W13458  33.404  31.247  11.679
40391W        W13459  10.700  24.730  11.574
40392W        W13460  29.552  24.505   1.365
40393W        W13461   2.247  31.124   1.836
40394W        W13462  22.943  37.022  13.820
40395W        W13463  36.578  27.299   2.202
40396W        W13464  34.398  20.043  14.526
40397W        W13465  39.860  17.576   4.561
40398W        W13466  11.747  31.586  12.855
40399W        W13467  15.540  17.121   1.975
40400W        W13468  36.093  20.560  12.511
40401W        W13469   0.722  33.936  11.964
40402W        W13470   0.480  16.011   3.247
40403W        W13471  16.792  29.140   1.327
40404W        W13472  19.577  21.927  11.235
40405W        W13473  25.492  34.519   3.724
40406W        W13474  29.034  19.844   4.849
40407W        W13475  11.341  21.563   3.407
40408W        W13476   8.783  41.050  10.628
40409W        W13477  37.616   3.395   0.828
40410W        W13478  38.576  25.622  12.163
40411W        W13479  37.326   1.011   2.741
40412W        W13480   6.462  16.190  13.067
40413W        W13481  38.084  38.941   0.729
40414W        W13482   9.557  29.629  10.681
40415W        W13483  20.542  31.913  11.153
40416W        W13484  28.965  30.577   2.900
40417W        W13485  34.069  30.528  12.411
40418W        W13486  16.780  40.511   4.203
40419W        W13487   5.495   2.751  12.538
40420W        W13488   8.723  41.887  13.036
40421W        W13489  27.412   7.449   3.006
40422W        W13490  23.498  28.430  13.960
40423W        W13491  17.114  13.793   3.668
40424W        W13492  40.515  38.103  11.404
40425W        W13493  41.490   2.278  12.629
40426W        W13494  20.518  32.224   4.548
40427W        W13495  15.586  33.482   1.891
40428W        W13496  43.390  43.161   0.821
40429W        W13497  18.335   1.421  13.518
40430W        W13498  18.945  23.923  13.772
40431W        W13499  10.800  35.322   1.256
40432W        W13500  25.441  25.016   3.732
40433W        W13501   6.849  37.102  11.279
40434W        W13502  11.648  15.547   0.407
40435W        W13503  16.795  15.351   1.194
40436W        W13504  14.132  37.428  10.713
40437W        W13505  19.829  25.360  14.774
40438W        W13506  31.743  25.005  10.338
40439W        W13507  23.558  17.945   3.641
40440W        W13508  17.444  31.465   2.137
40441W        W13509  10.364   0.426  12.119
40442W        W13510   2.883   3.130  13.272
40443W        W13511  26.933  13.728   3.205
40444W        W13512  26.920  31.651   0.217
40445W        W13513  10.939  40.870   1.657
40446W        W13514  34.321  37.411  12.952
40447W        W13515  26.498   1.072   1.241
40448W        W13516  36.814  32.881  11.776
40449W        W13517  15.544  38.644  10.645
40450W        W13518   6.689  17.488   4.107
40451W        W13519  44.025  18.687   2.134
40452W        W13520   4.233  44.268   0.769
40453W        W13521   2.774   7.332   1.755
40454W        W13522  31.360  41.529  12.084
40455W        W13523  36.492  38.370   2.120
40456W        W13524  31.148  23.810  14.929
40457W        W13525   1.646  26.906  13.423
40458W        W13526  36.137  36.514  10.536
40459W        W13527  18.132  21.527   0.815
40460W        W13528  24.385  27.730  14.572
40461W        W13529  18.119  30.628   4.271
40462W        W13530  11.281   3.413   4.199
40463W        W13531  26.978  19.301   1.764
40464W        W13532  18.657  13.208  13.726
40465W        W13533  15.033  14.136  11.382
40466W        W13534  11.114  29.182  13.035
40467W        W13535  13.294   0.915   1.344
40468W        W13536  40.507   5.365   1.262
40469W        W13537  33.911  15.991  11.995
40470W        W13538   7.499  24.620   0.444
40471W        W13539  40.282   1.287   4.256
40472W        W13540  12.142  36.356   4.485
40473W        W13541  22.009  25.529  11.116
40474W        W13542  11.463  26.168   3.594
40475W        W13543  11.279   0.813   1.135
40476W        W13544  19.137  15.262   4.282
40477W        W13545  12.247  29.049   2.850
40478W        W13546  12.798  12.929  14.872
40479W        W13547  25.991  23.440   3.922
40480W        W13548  15.309  17.923   2.837
40481W        W13549   0.791  38.036   3.751
40482W        W13550  37.849  17.757   0.727
40483W        W13551  43.565  41.575   3.374
40484W        W13552   7.329  26.863   1.318
40485W        W13553  24.212   1.790   2.216
40486W        W13554  33.860  11.962   3.228
40487W        W13555  38.350   4.198   1.153
40488W        W13556  18.623  11.781   0.230
40489W        W13557  44.368  23.935   4.196
40490W        W13558  13.526  40.795  10.668
40491W        W13559  29.951  18.864  12.707
40492W        W13560   0.467  35.976  14.962
40493W        W13561   4.057  37.531  11.724
40494W        W13562  41.822  37.049  14.371
40495W        W13563   1.810   3.725   4.856
40496W        W13564  13.630  28.900  13.439
40497W        W13565  31.943   8.243  13.053
40498W        W13566   0.248  39.934   4.634
40499W        W13567   0.771  38.070  13.471
40500W        W13568   0.082   0.511   3.786
40501W        W13569   6.616  14.822  14.688
40502W        W13570   6.889  24.111  11.486
40503W        W13571  14.737  11.748  11.221
40504W        W13572  44.078  43.907   3.187
40505W        W13573  26.802  33.103  14.448
40506W        W13574  34.826  26.115  11.915
40507W        W13575  11.245  29.064  14.524
40508W        W13576  37.014  10.717  11.642
40509W        W13577   6.394   1.918   1.402
40510W        W13578   3.716  42.284  14.844
40511W        W13579  38.126  20.271  13.470
40512W        W13580  43.494  38.082   0.231
40513W        W13581  20.255  24.037   1.454
40514W        W13582  13.650  37.863   4.055
40515W        W13583   7.179  34.939   0.749
40516W        W13584  36.907  16.895   2.842
40517W        W13585  24.654  33.401  11.040
40518W        W13586  24.069  21.007   0.723
40519W        W13587  15.868   3.278  12.273
40520W        W13588  19.592  10.284   3.149
40521W        W13589  26.122  40.388   1.423
40522W        W13590  35.942  39.632   0.492
40523W        W13591  39.525  19.343  14.228
40524W        W13592  21.576   9.847   0.764
40525W        W13593  35.867   4.791  13.850
40526W        W13594  43.373  44.256   2.407
40527W        W13595  26.131  35.400   2.315
40528W        W13596  34.410  38.616  14.780
40529W        W13597  38.895  22.816  13.816
40530W        W13598  41.970   7.252   2.920
40531W        W13599  43.413  36.518   0.241
40532W        W13600  31.887  25.564  12.421
40533W        W13601  40.298  15.873   5.162
40534W        W13602  38.568  35.502   0.699
40535W        W13603   6.806   0.277   0.784
40536W        W13604   6.894  18.482   4.383
40537W        W13605  19.777   5.705   4.273
40538W        W13606  40.067   4.200  11.603
40539W        W13607  39.783  44.199  12.455
40540W        W13608  38.241  30.589   2.380
40541W        W13609   8.861  26.626  11.192
40542W        W13610   1.374   3.213  12.980
40543W        W13611  30.059   5.436  11.822
40544W        W13612   8.801   7.401   1.726
40545W        W13613   7.440   4.292  11.909
40546W        W13614   1.637   7.908   1.311
40547W        W13615  42.120  42.580  10.521
40548W        W13616  15.702  22.152   2.583
40549W        W13617   9.653  18.523  12.392
40550W        W13618  26.697  24.557   3.794
40551W        W13619  19.810  24.673   1.885
40552W        W13620  17.241  17.582   0.296
40553W        W13621  24.031  41.280   0.352
40554W        W13622  13.623  19.586  12.707
40555W        W13623  43.984  26.942  13.978
40556W        W13624  25.217  40.010   4.706
40557W        W13625  13.587  10.215   0.892
40558W        W13626  33.581  24.152  11.082
40559W        W13627  23.460  34.139  13.931
40560W        W13628  13.809  30.476   2.641
40561W        W13629  28.014  16.814  10.744
40562W        W13630  10.692  13.238  14.364
40563W        W13631  21.055   7.197  10.601
40564W        W13632  17.760   7.024  11.197
40565W        W13633  21.614  26.574  14.822
40566W        W13634  17.674   3.121   4.131
40567W        W13635  44.987  35.089  12.129
40568W        W13636  43.059  20.716  11.726
40569W        W13637   5.400   9.038  12.136
40570W        W13638  19.652  20.115   1.796
40571W        W13639  13.775  39.093  14.101
40572W        W13640  13.755   7.358  13.607
40573W        W13641  27.642   7.632  11.122
40574W        W13642  42.547  25.975  13.338
40575W        W13643  12.414  17.704  10.213
40576W        W13644  20.710   4.327   2.343
40577W        W13645  24.533   1.384   0.307
40578W        W13646  23.506  40.968   2.303
40579W        W13647   8.354   6.236   4.917
40580W        W13648  31.660   5.315  11.550
40581W        W13649  41.778   5.437  11.999
40582W        W13650  21.448   9.629   0.285
40583W        W13651  29.106  13.142  14.347
40584W        W13652  12.253  13.979  12.670
40585W        W13653  29.639  39.399   1.737
40586W        W13654   6.233   5.506  12.434
40587W        W13655  39.551   9.692  14.826
40588W        W13656  24.510  14.549   2.787
40589W        W13657  28.113   9.125  10.749
40590W        W13658  27.515   6.712  10.840
40591W        W13659  14.561   7.433  14.967
40592W        W13660  22.280  40.476  13.259
40593W        W13661  22.007   3.483   3.357
40594W        W13662  34.513  11.117  13.081
40595W        W13663  33.200  23.374   0.457
40596W        W13664  36.850  20.640  13.075
40597W        W13665   1.577  19.977   1.327
40598W        W13666  18.661  30.668  14.020
40599W        W13667  34.037  10.460   3.193
40600W        W13668  24.928  37.303  14.421
40601W        W13669  42.787  11.550   4.994
40602W        W13670  24.979  43.259  13.342
40603W        W13671  43.643  43.309   2.326
40604W        W13672  19.856  10.747   0.428
40605W        W13673  24.517   6.460  14.429
40606W        W13674  36.832  34.477   4.028
40607W        W13675  17.363  17.058   2.406
40608W        W13676  42.123  28.829   2.813
40609W        W13677  28.941  21.542   1.620
40610W        W13678  43.466  32.433  14.419
40611W        W13679  21.055  10.722  14.228
40612W        W13680  36.622  31.196  13.806
40613W        W13681   7.670  38.075  11.981
40614W        W13682  43.880  29.032  10.427
40615W        W13683   7.079  41.226  10.170
40616W        W13684  15.272   2.650   4.597
40617W        W13685   0.388  34.561   4.031
40618W        W13686   4.098   6.820  11.543
40619W        W13687   6.915   4.468   1.134
40620W        W13688  40.483   1.269   2.856
40621W        W13689  23.868  36.978   2.224
40622W        W13690  10.425   6.823   4.814
40623W        W13691  38.852  38.372   1.844
40624W        W13692  39.463   1.595   0.260
40625W        W13693   3.911  34.437  13.359
40626W        W13694  28.213  20.800  11.945
40627W        W13695  12.318   3.691  14.554
40628W        W13696  14.746  42.968  10.331
40629W        W13697  43.745   5.894  11.072
40630W        W13698  34.107  26.719   0.854
40631W        W13699  14.409   9.678  10.753
40632W        W13700  38.833   0.631  12.576
40633W        W13701  16.756  18.019   2.707
40634W        W13702  26.077  44.930   2.337
40635W        W13703  35.954  44.347   3.775
40636W        W13704  34.256  27.434   4.902
40637W        W13705  20.698  37.138   4.589
40638W        W13706  15.914  12.365  12.850
40639W        W13707  33.353  23.107   0.042
40640W        W13708  41.028   8.730   0.261
40641W        W13709   0.124   6.911   3.476
40642W        W13710  18.677  39.144   0.213
40643W        W13711  33.036   1.014  11.193
40644W        W13712   6.395   4.716  10.767
40645W        W13713  31.362   4.763   4.731
40646W        W13714  32.853  17.063   1.873
40647W        W13715  28.111  22.598   3.420
40648W        W13716  31.628   3.359   4.620
40649W        W13717  36.922  31.397   4.259
40650W        W13718  25.020   0.547   1.353
40651W        W13719  19.061  19.693   3.800
40652W        W13720  22.092  37.805   4.879
40653W        W13721  24.175  28.956  11.615
40654W        W13722  29.797  25.064  14.449
40655W        W13723  33.576  21.670  14.864
40656W        W13724  33.133  38.263  11.555
40657W        W13725  18.186  40.054  12.765
40658W        W13726   7.704  30.156  12.096
40659W        W13727  19.586   5.237   4.175
40660W        W13728  13.472  15.354  11.687
40661W        W13729  11.083   0.442  13.382
40662W        W13730  10.955  21.984   4.318
40663W        W13731  21.915  25.013  12.548
40664W        W13732  38.138   3.628  10.884
40665W        W13733  21.642  26.154  12.463
40666W        W13734  15.696  11.458  12.488
40667W        W13735  35.124  19.670  10.822
40668W        W13736  20.511  41.367   2.135
40669W        W13737  44.151  19.836   3.365
40670W        W13738  26.558  10.410   1.238
40671W        W13739  36.457  39.648  10.212
40672W        W13740  20.152  43.269   4.234
40673W        W13741  15.410  14.351   3.131
40674W        W13742  16.297  20.791   0.390
40675W        W13743  12.616  34.416   3.138
40676W        W13744  37.554   7.318   2.264
40677W        W13745   4.439  35.606  11.236
40678W        W13746  14.398  14.775   3.350
40679W        W13747  32.508  15.583  12.161
40680W        W13748  18.666  11.804   3.657
40681W        W13749  14.844  23.070  14.756
40682W        W13750   9.620  19.264  13.446
40683W        W13751  39.140  28.736   5.020
40684W        W13752  26.915  26.708   0.771
40685W        W13753  29.357  20.032  13.881
40686W        W13754  28.504  24.739   2.230
40687W        W13755  21.738   7.371  12.052
40688W        W13756  37.896  40.347   4.651
40689W        W13757  40.273  44.089  11.718
40690W        W13758  22.249  15.655  11.949
40691W        W13759  19.768  10.777  14.003
40692W        W13760  41.188  17.761  14.118
40693W        W13761   3.518  35.952   4.234
40694W        W13762  21.154  32.557  14.342
40695W        W13763  44.622   9.808   2.818
40696W        W13764  29.511  39.102   4.162
40697W        W13765  10.739  22.743  14.721
40698W        W13766  36.054   9.341  10.748
40699W        W13767  42.055  26.952   2.838
40700W        W13768  39.160  18.083   0.874
40701W        W13769  29.471  24.456  11.878
40702W        W13770  31.964  43.263   2.465
40703W        W13771  18.612  42.521   4.494
40704W        W13772   1.727  28.814  10.692
40705W        W13773   0.351  27.945  14.856
40706W        W13774  24.952  17.752   0.774
40707W        W13775  16.655  44.602  13.355
40708W        W13776  28.357  24.186  13.423
40709W        W13777  25.454   0.822   1.385
40710W        W13778   5.443  31.728  14.397
40711W        W13779  24.055  31.434   0.589
40712W        W13780  12.060   2.817   0.022
40713W        W13781   1.382  11.174   3.622
40714W        W13782  28.466  26.112  13.955
40715W        W13783  25.170   8.395  13.887
40716W        W13784  17.763  16.117  10.532
40717W        W13785  37.464   1.002   4.270
40718W        W13786   0.716  18.613  14.591
40719W        W13787  37.722   7.879   0.954
40720W        W13788  42.255  22.310  13.395
40721W        W13789  15.525  42.247   3.514
40722W        W13790  16.288  19.667  11.820
40723W        W13791   7.849  16.147   0.315
40724W        W13792  15.264   2.671  13.776
40725W        W13793  17.467  12.159  11.555
40726W        W13794  23.165  37.793   4.539
40727W        W13795   1.291  30.171  11.496
40728W        W13796   4.870  26.890  12.092
40729W        W13797   2.873  40.447   3.106
40730W        W13798  20.112  30.751   3.192
40731W        W13799  15.497  11.415  12.957
40732W        W13800  27.513  38.347  13.258
40733W        W13801   7.240  39.458   0.651
40734W        W13802  17.585  12.864  12.087
40735W        W13803  20.230   6.431  12.379
40736W        W13804  33.121  35.463  13.557
40737W        W13805  43.219  31.341   2.425
40738W        W13806  20.295  33.367   3.188
40739W        W13807  25.618  32.412   0.422
40740W        W13808  25.915  13.179   0.851
40741W        W13809   8.173  43.892  10.775
40742W        W13810  27.466  35.588   0.318
40743W        W13811  40.419  42.934  13.596
40744W        W13812  39.101   8.961  11.570
40745W        W13813   3.671  40.839   4.850
40746W        W13814   6.461  26.467  14.342
40747W        W13815  44.272  29.995  14.580
40748W        W13816  18.332  17.816  11.240
40749W        W13817   9.718   6.815   3.143
40750W        W13818  41.234  33.060   0.819
40751W        W13819  39.223  15.176  11.637
40752W        W13820  43.619   1.290  13.505
40753W        W13821   6.884  13.663  12.572
40754W        W13822  44.671  14.183  11.232
40755W        W13823  25.942  17.210  12.505
40756W        W13824  33.477  21.362  14.121
40757W        W13825  23.244  17.043   3.828
40758W        W13826   4.734  10.074  14.467
40759W        W13827  38.973  15.090   0.300
40760W        W13828   6.022   3.656   2.740
40761W        W13829  13.807  37.086  13.477
40762W        W13830   5.005   3.912   4.087
40763W        W13831  39.438  27.093  14.573
40764W        W13832   2.093  41.790   2.686
40765W        W13833  18.622   9.902  11.680
40766W        W13834  13.722  33.289   3.748
40767W        W13835  30.984  34.069   3.652
40768W        W13836  44.248  20.235  14.898
40769W        W13837  19.440  34.546  14.037
40770W        W13838   0.414  16.188  12.438
40771W        W13839   4.843  13.110  14.029
40772W        W13840  13.685   1.800  11.204
40773W        W13841   9.348  42.608   3.784
40774W        W13842  19.637   6.948  14.398
40775W        W13843  14.629  22.899   4.021
40776W        W13844  10.302  30.989   0.921
40777W        W13845  33.011  34.108  13.550
40778W        W13846  13.771  21.073   3.204
40779W        W13847  41.520  14.315  11.565
40780W        W13848  44.248  12.261   4.089
40781W        W13849  13.140  33.627  14.059
40782W        W13850   8.279   7.795   2.184
40783W        W13851  21.074   7.452   0.791
40784W        W13852  16.607  33.644   1.235
40785W        W13853  18.778  22.566  11.959
40786W        W13854  12.117  33.930   2.262
40787W        W13855  29.238   8.251  13.092
40788W        W13856  29.603  26.486  13.801
40789W        W13857   2.495   0.407  10.449
40790W        W13858  19.549  19.077  14.158
40791W        W13859  42.911  36.588  14.463
40792W        W13860  42.420  31.941  14.736
40793W        W13861  37.294  16.610  12.890
40794W        W13862  17.568   5.770   3.811
40795W        W13863  40.585   3.474   2.176
40796W        W13864   0.347  14.734   4.925
40797W        W13865   0.217   2.492   1.292
40798W        W13866  42.427   6.158  13.006
40799W        W13867  43.744  36.821   2.837
40800W        W13868   0.305  39.601  12.455
40801W        W13869   8.771  16.354   1.468
40802W        W13870  26.135  25.152  11.002
40803W        W13871  10.664   1.516  11.981
40804W        W13872   9.657  31.077  12.954
40805W        W13873  28.619  36.050  12.045
40806W        W13874   1.961  24.141  11.362
40807W        W13875  15.780  43.008   2.937
40808W        W13876  14.603   0.543   0.634
40809W        W13877   4.605  27.095   4.002
40810W        W13878   5.824  22.716   0.835
40811W        W13879  37.469  32.542   4.737
40812W        W13880   8.746  24.489  11.094
40813W        W13881  29.638  25.552  14.505
40814W        W13882  11.693  39.851  12.533
40815W        W13883  44.867   6.963   2.131
40816W        W13884  30.619  26.023   4.179
40817W        W13885   9.261   3.670  12.881
40818W        W13886  40.145  44.861  12.027
40819W        W13887  40.247  19.052  13.603
40820W        W13888   1.392  11.556   3.288
40821W        W13889  40.418   2.855   4.713
40822W        W13890   8.882  19.815   1.304
40823W        W13891  14.095  13.196  14.935
40824W        W13892   6.442   6.474  12.697
40825W        W13893  11.318  13.300  10.472
40826W        W13894  22.569  40.566  12.492
40827W        W13895  40.408  27.442  14.462
40828W        W13896   8.054   0.961  11.266
40829W        W13897  12.552  18.960   4.053
40830W        W13898   8.684  16.069   1.023
40831W        W13899  37.655  40.683   5.252
40832W        W13900  28.920  43.401  10.477
40833W        W13901  17.241  14.044   0.317
40834W        W13902  26.315  22.004  12.452
40835W        W13903  44.769  44.389   4.599
40836W        W13904  30.111  14.254   1.297
40837W        W13905   7.570  16.818  14.572
40838W        W13906  24.109  17.466   4.235
40839W        W13907  37.811   0.344   1.740
40840W        W13908  26.860  43.051   0.294
40841W        W13909  34.953  28.674   1.486
40842W        W13910  31.917  16.605  10.670
40843W        W13911  34.743  39.894  10.773
40844W        W13912  38.982   2.716   2.747
40845W        W13913  20.685  18.580   3.900
40846W        W13914  10.654  28.659   1.120
40847W        W13915  28.244  37.092  10.744
40848W        W13916  22.102   0.220  11.975
40849W        W13917  10.712  33.221  13.648
40850W        W13918  40.455  24.281   4.941
40851W        W13919  32.710  42.743  13.848
40852W        W13920  39.975  27.947   0.058
40853W        W13921  17.173   3.624  11.963
40854W        W13922  13.262   1.057   0.336
40855W        W13923  41.769  39.138   3.626
40856W        W13924  37.351  35.027  13.426
40857W        W13925   1.855  32.554   0.826
40858W        W13926   0.618  39.947  10.798
40859W        W13927  44.932  23.511   0.298
40860W        W13928  24.165  43.608   4.384
40861W        W13929   8.485  40.551   0.017
40862W        W13930  28.562  24.767   3.763
40863W        W13931   4.677  22.183   4.345
40864W        W13932  38.562  15.711   1.452
40865W        W13933  29.414  27.377  12.422
40866W        W13934  40.471   4.184   0.376
40867W        W13935  34.917  31.919  10.226
40868W        W13936  10.703   3.404   3.298
40869W        W13937  18.305  28.152  11.709
40870W        W13938  29.231  28.562  10.572
40871W        W13939  21.149   0.894   1.809
40872W        W13940  36.868  10.303  11.322
40873W        W13941  27.114   9.912   2.305
40874W        W13942  41.939   8.653   1.872
40875W        W13943  28.023  10.744  12.522
40876W        W13944  41.521  21.513   1.764
40877W        W13945  35.559  42.589  12.964
40878W        W13946  41.787  27.932   1.630
40879W        W13947  43.965  30.472  13.118
40880W        W13948  29.293  26.834  12.476
40881W        W13949   0.939  20.842  13.915
40882W        W13950  23.746   2.471   0.793
40883W        W13951  16.134  23.062  11.660
40884W        W13952  16.428  32.932   0.562
40885W        W13953  44.528  10.145  13.701
40886W        W13954  16.753  41.108  11.615
40887W        W13955  22.227  15.857   0.019
40888W        W13956   2.403  21.962  13.190
40889W        W13957   8.492  43.434  13.741
40890W        W13958  25.495  43.179  11.657
40891W        W13959  36.619  10.653   1.823
40892W        W13960  27.193  40.350   2.297
40893W        W13961   8.812   4.089   0.312
40894W        W13962  10.762  24.263  10.637
40895W        W13963  30.864  35.515   4.254
40896W        W13964   7.139  22.442  13.908
40897W        W13965  40.389  14.155  14.064
40898W        W13966  39.592  33.473  13.532
40899W        W13967  26.112  16.060   4.698
40900W        W13968  38.350  19.181   3.112
40901W        W13969  37.001  30.715   1.621
40902W        W13970  26.601  30.067   0.642
40903W        W13971  12.590  26.227   1.475
40904W        W13972  29.963  25.609  11.115
40905W        W13973  12.213  40.064   1.899
40906W        W13974   6.718  21.111   0.047
40907W        W13975  11.431  24.523   3.870
40908W        W13976   3.426  37.918   2.713
40909W        W13977  20.713  23.827  13.088
40910W        W13978   2.360  25.332  12.071
40911W        W13979   4.247  13.902   1.302
40912W        W13980  38.472  41.016   0.182
40913W        W13981   3.269  16.476  14.312
40914W        W13982  11.087  20.655   4.588
40915W        W13983   7.260  25.634   0.901
40916W        W13984   6.437  25.696   2.838
40917W        W13985   0.966  18.067  12.027
40918W        W13986  40.338   1.752   2.176
40919W        W13987   6.516  12.686  14.729
40920W        W13988  35.508  41.902  13.361
40921W        W13989  23.223  34.559  14.867
40922W        W13990   2.198   4.892   4.569
40923W        W13991  43.998  33.829   1.814
40924W        W13992  34.856   3.233  13.599
40925W        W13993   6.363  42.413  12.866
40926W        W13994   2.330  25.837  12.036
40927W        W13995  23.335  10.932   2.165
40928W        W13996  16.151  32.013  14.708
40929W        W13997   2.165  21.455   2.829
40930W        W13998  33.100   3.983  12.654
40931W        W13999  20.744  35.451  12.726
40932W        W14000  10.741   9.959   1.811
40933W        W14001   0.199  28.016   3.166
40934W        W14002  20.169  15.359   4.390
40935W        W14003   5.250   7.362  10.736
40936W        W14004  25.567  10.724  14.351
40937W        W14005  34.194  17.390  14.451
40938W        W14006  11.643  30.381  13.456
40939W        W14007  29.035  35.133  10.941
40940W        W14008  41.440   2.027  12.051
40941W        W14009  14.302  33.914  11.251
40942W        W14010  28.171  32.922  13.436
40943W        W14011  44.293  40.028  11.126
40944W        W14012  26.353  24.943  13.063
40945W        W14013  40.603  22.511  10.724
40946W        W14014   3.514   3.918   1.846
40947W        W14015   4.193   2.032  10.789
40948W        W14016  33.956   7.030   4.664
40949W        W14017  35.081  14.613  10.606
40950W        W14018  33.582  20.313   0.063
40951W        W14019  30.090  39.358   4.586
40952W        W14020  11.818  44.953   2.738
40953W        W14021  18.522  23.848  11.548
40954W        W14022  14.563  18.568  13.954
40955W        W14023  27.125   1.069   2.922
40956W        W14024  19.620  41.259  13.842
40957W        W14025  18.741  14.972  11.693
40958W        W14026  26.965  37.528   2.401
40959W        W14027  30.597  24.543  10.669
40960W        W14028  35.946  32.138  13.262
40961W        W14029  14.063  20.614   0.428
40962W        W14030  14.847  26.025  14.594
40963W        W14031   8.710  25.726   0.030
40964W        W14032  24.247   4.385   1.354
40965W        W14033  41.528  39.967   0.555
40966W        W14034  27.053  35.060   3.389
40967W        W14035  21.603  36.798   0.888
40968W        W14036   5.731  17.093  13.482
40969W        W14037   6.294  32.511  12.533
40970W        W14038  11.289  14.834   3.514
40971W        W14039  40.889  40.416   3.889
40972W        W14040  24.215  27.458   1.771
40973W        W14041   6.427  33.676  13.423
40974W        W14042  26.601   0.257   0.689
40975W        W14043  40.413  33.918   1.703
40976W        W14044  27.249  42.008   4.124
40977W        W14045  41.991   4.458  14.182
40978W        W14046   9.814  16.286  14.542
40979W        W14047  39.857  11.186   1.327
40980W        W14048  18.133  31.817   2.886
40981W        W14049  14.326  22.120   3.342
40982W        W14050  30.590   2.782  11.589
40983W        W14051  40.042  32.423   0.214
40984W        W14052  43.904  29.207  11.390
40985W        W14053  22.511  43.969   0.707
40986W        W14054  33.017  44.152  11.765
40987W        W14055   1.066  34.984   3.162
40988W        W14056  26.968   4.249  10.710
40989W        W14057  33.072  20.588  13.885
40990W        W14058  19.607  31.220  11.941
40991W        W14059  32.544  29.785   3.261
40992W        W14060   2.789   6.849   3.582
40993W        W14061   3.940  42.297  14.378
40994W        W14062   6.859  36.007  14.230
40995W        W14063  24.165   4.829   2.611
40996W        W14064   6.888  32.930  14.253
40997W        W14065  33.083  19.190  14.344
40998W        W14066  27.210  13.513  11.282
40999W        W14067  17.537  29.681   3.670
41000W        W14068  13.407  26.654  11.653
41001W        W14069  17.366  41.122   2.951
41002W        W14070  15.830  22.502  14.499
41003W        W14071  11.446   6.318  11.500
41004W        W14072  38.372   1.340   0.729
41005W        W14073  21.657  10.415   1.700
41006W        W14074  43.006  10.359   3.658
41007W        W14075   1.865  17.925   0.725
41008W        W14076   5.980  18.601   3.257
41009W        W14077  43.368  16.668  10.799
41010W        W14078  44.055  44.853  14.427
41011W        W14079   3.680  16.701  10.618
41012W        W14080  39.829  12.831   2.409
41013W        W14081  34.253   0.435  14.491
41014W        W14082  41.862  30.587  10.755
41015W        W14083  14.351  12.144   4.272
41016W        W14084   4.924   0.765   0.530
41017W        W14085  36.048  10.730   0.172
41018W        W14086  40.010  33.339   2.686
41019W        W14087  26.982  31.350   2.791
41020W        W14088   9.213  20.812  13.604
41021W        W14089  41.124  43.441  13.553
41022W        W14090  11.657   2.034  14.431
41023W        W14091  44.838  11.406  14.960
41024W        W14092   5.393  36.356   1.536
41025W        W14093  15.711  11.333   0.086
41026W        W14094  36.664   6.687  11.581
41027W        W14095  27.884  29.536   1.844
41028W        W14096  41.460  36.863   3.701
41029W        W14097  22.182  22.696   4.747
41030W        W14098  30.103  44.038   2.204
41031W        W14099  41.458  29.022  10.824
41032W        W14100  22.570  18.378   1.505
41033W        W14101   8.566   1.377   3.247
41034W        W14102   1.990  25.723   3.169
41035W        W14103  41.544  24.967  11.147
41036W        W14104  35.440  28.776  12.112
41037W        W14105  38.933   5.148   3.985
41038W        W14106   4.932  41.141   3.103
41039W        W14107  15.188  13.146   0.315
41040W        W14108  44.841  26.079   0.366
41041W        W14109  30.443  34.569   0.312
41042W        W14110  34.845  37.349   4.616
41043W        W14111  25.465  39.903   0.476
41044W        W14112  12.418  24.547  13.428
41045W        W14113  40.071   2.759  14.792
41046W        W14114  42.515  29.640  12.235
41047W        W14115  31.799  38.889   0.995
41048W        W14116  19.468  24.157  14.706
41049W        W14117  16.790  22.617  14.962
41050W        W14118  20.700  17.278   0.264
41051W        W14119   3.766  22.223  14.134
41052W        W14120  28.179   9.034   0.679
41053W        W14121  21.094   2.452   2.331
41054W        W14122  15.198  11.824   2.227
41055W        W14123  11.622  17.069  12.953
41056W        W14124   5.046   4.324   5.197
41057W        W14125  34.930   7.254   0.420
41058W        W14126  38.538  44.938   1.237
41059W        W14127  44.037   2.461   4.645
41060W        W14128  13.331  30.428   1.551
41061W        W14129  33.716  21.185  12.069
41062W        W14130  30.968  29.018   2.866
41063W        W14131  43.790  21.972   1.544
41064W        W14132  44.443  44.828  10.770
41065W        W14133  10.386  36.663   1.406
41066W        W14134  20.022  40.974  12.582
41067W        W14135   6.405  20.242   1.908
41068W        W14136  18.920  40.310  10.618
41069W        W14137  41.207  36.055  11.662
41070W        W14138  23.030  10.148  11.994
41071W        W14139  18.094  14.830  14.635
41072W        W14140  37.451   7.910  13.357
41073W        W14141  23.671   9.817   3.194
41074W        W14142  44.900   8.605  12.794
41075W        W14143  26.941   2.481   1.052
41076W        W14144  16.177  43.268   2.319
41077W        W14145   9.223  37.374  12.971
41078W        W14146  10.579  28.125   1.853
41079W        W14147  42.268  22.790  12.414
41080W        W14148   0.767   9.423  10.387
41081W        W14149  37.067  18.235  10.413
41082W        W14150  35.913  28.119  10.723
41083W        W14151  29.045  24.668   1.070
41084W        W14152  34.516  20.022  12.893
41085W        W14153  44.910  33.360  12.093
41086W        W14154  15.854  23.156  11.220
41087W        W14155  26.900  10.330   4.469
41088W        W14156   8.203  22.053  13.100
41089W        W14157  42.684   1.852   1.299
41090W        W14158  17.595   5.249  11.496
41091W        W14159  40.611  10.611  11.208
41092W        W14160  26.191  24.617   0.307
41093W        W14161  43.487  26.337  13.370
41094W        W14162  14.071   2.733   3.356
41095W        W14163  28.767   5.391   2.830
41096W        W14164  35.425  32.416   4.471
41097W        W14165   3.439   7.988   0.791
41098W        W14166  34.020  37.242   1.340
41099W        W14167  16.669  38.972   2.923
41100W        W14168  20.023   2.775   4.717
41101W        W14169  38.614  33.650   2.200
41102W        W14170  43.934  32.298  13.094
41103W        W14171  25.164   1.276   0.876
41104W        W14172  33.000  21.638  14.013
41105W        W14173  32.683  11.799  12.897
41106W        W14174   7.374  23.252  12.152
41107W        W14175  12.441  11.604   0.040
41108W        W14176  28.317  44.981   3.460
41109W        W14177   4.746  12.684   3.161
41110W        W14178  42.012  32.524  11.047
41111W        W14179  39.092  25.037  13.406
41112W        W14180  24.139  22.295   4.737
41113W        W14181  18.602   1.399   2.084
41114W        W14182  12.569   6.795   0.412
41115W        W14183   1.899   6.175   3.131
41116W        W14184  17.083   3.942  14.456
41117W        W14185   8.749  29.469   4.277
41118W        W14186  10.423   0.986  13.919
41119W        W14187  36.434  22.093  13.986
41120W        W14188  20.001   1.456   4.298
41121W        W14189  32.944  28.746   4.188
41122W        W14190  15.560  44.440  11.045
41123W        W14191  19.813   9.638  12.469
41124W        W14192  25.514   6.305  12.366
41125W        W14193   4.516  15.348   0.943
41126W        W14194  10.353  39.846   2.276
41127W        W14195  19.461   8.632  14.972
41128W        W14196   8.316  33.655  13.560
41129W        W14197   8.800  34.699   1.237
41130W        W14198  36.308  37.922  13.939
41131W        W14199  19.499  33.489  13.380
41132W        W14200  38.495  14.838  14.173
41133W        W14201  12.378  37.517  10.472
41134W        W14202  30.645  14.793   4.383
41135W        W14203   2.977   0.265  10.704
41136W        W14204  12.648  23.936   1.677
41137W        W14205  16.247  38.343  14.799
41138W        W14206  41.332  15.112   1.313
41139W        W14207   8.901  11.534  13.301
41140W        W14208  35.996  40.047  12.945
41141W        W14209  17.622   7.271  11.636
41142W        W14210  43.079   4.566   2.013
41143W        W14211  33.107  15.820  11.061
41144W        W14212  16.082  35.815  11.263
41145W        W14213  27.601   4.506  12.104
41146W        W14214  10.251  34.432   1.207
41147W        W14215  34.801  15.319  11.584
41148W        W14216   2.455  30.900   2.259
41149W        W14217  17.602  12.092  12.387
41150W        W14218  36.837  39.086  13.945
41151W        W14219  39.813  25.410  10.727
41152W        W14220   5.710  31.178  10.977
41153W        W14221  38.507  37.541   0.497
41154W        W14222   5.207  22.653  10.531
41155W        W14223  39.829  29.451   3.271
41156W        W14224  44.423   5.850   2.705
41157W        W14225  22.654   6.211  11.585
41158W        W14226   7.829  37.334  11.451
41159W        W14227   8.231   3.542   0.755
41160W        W14228   9.416   4.304  11.555
41161W        W14229   6.725  28.632   3.092
41162W        W14230  12.092  12.734   0.419
41163W        W14231   9.371  36.047   0.520
41164W        W14232  26.864  43.276  14.809
41165W        W14233  35.051  20.031  14.098
41166W        W14234   0.900  44.789   2.271
41167W        W14235  17.112  28.087  11.808
41168W        W14236  44.754   0.390  12.551
41169W        W14237  32.319  29.008   3.591
41170W        W14238  18.010   5.378  13.579
41171W        W14239  29.167  27.867  11.181
41172W        W14240  28.220  39.521  14.351
41173W        W14241   0.846   9.501   2.725
41174W        W14242  38.174  19.261   2.639
41175W        W14243  10.057   5.472  12.581
41176W        W14244  42.107   2.331   0.523
41177W        W14245  30.500  27.562   1.809
41178W        W14246   3.380  33.167   2.289
41179W        W14247  10.618   9.317   4.655
41180W        W14248   4.285  40.551  13.383
41181W        W14249  42.867  37.030  13.078
41182W        W14250  30.502  13.101   3.756
41183W        W14251  38.496  40.821   4.142
41184W        W14252  28.758  36.223  11.524
41185W        W14253  26.028   3.301  11.982
41186W        W14254  36.466  33.159   1.683
41187W        W14255  13.147  10.412  13.875
41188W        W14256  22.531  13.622  12.826
41189W        W14257   7.929  22.456   1.848
41190W        W14258  12.382   4.974   3.769
41191W        W14259  28.070  17.239   3.890
41192W        W14260  38.459  25.114  12.126
41193W        W14261   3.516  21.917   3.699
41194W        W14262  36.477   7.451  12.928
41195W        W14263  40.281  17.258   2.594
41196W        W14264  30.646   9.255  10.447
41197W        W14265   0.174  30.136   4.157
41198W        W14266  35.076  21.232   2.345
41199W        W14267  36.356   0.295  12.444
41200W        W14268  21.277  27.428  11.130
41201W        W14269  43.986  32.480   0.468
41202W        W14270  37.111  30.091   4.431
41203W        W14271  38.066   9.844   2.812
41204W        W14272  44.769  39.894  12.065
41205W        W14273  17.629  18.991   2.986
41206W        W14274  10.826  41.358   1.468
41207W        W14275  29.658  11.285   2.325
41208W        W14276  10.261  17.030   0.678
41209W        W14277  25.929  27.517   3.605
41210W        W14278  36.511  42.634   4.962
41211W        W14279  21.154  43.031  11.083
41212W        W14280  11.540  34.380   4.050
41213W        W14281  17.574   8.326   2.764
41214W        W14282  14.145  42.520  11.629
41215W        W14283  35.945  30.944   3.309
41216W        W14284  22.349  25.757   2.875
41217W        W14285  20.648  42.891   1.178
41218W        W14286  38.366   0.915   4.727
41219W        W14287   1.972   3.799  14.877
41220W        W14288  26.402  15.158   3.693
41221W        W14289  18.599  13.712   3.942
41222W        W14290  30.919  31.084   4.469
41223W        W14291  35.101  19.253  10.533
41224W        W14292  12.599  31.491   2.251
41225W        W14293  36.751  10.918   2.248
41226W        W14294   0.494  39.980   4.164
41227W        W14295  24.225  20.689   0.358
41228W        W14296  41.498  44.297  12.916
41229W        W14297  42.875  20.777  13.015
41230W        W14298  41.907  17.048  10.613
41231W        W14299  43.695  43.411  14.839
41232W        W14300  14.186  36.272   3.325
41233W        W14301  21.060  36.981   5.051
41234W        W14302  21.539  43.926   1.123
41235W        W14303  31.050  36.265   2.290
41236W        W14304  41.270  41.256   2.912
41237W        W14305   9.436  32.947  13.029
41238W        W14306  35.580  14.637  10.395
41239W        W14307   7.851   9.747  14.469
41240W        W14308  40.958  44.179   2.536
41241W        W14309  34.649  36.976  12.609
41242W        W14310  42.012  34.865  10.298
41243W        W14311  29.845   4.908   0.170
41244W        W14312   3.988  12.665   0.508
41245W        W14313  35.537  23.754   0.933
41246W        W14314  38.759  41.422   2.666
41247W        W14315  37.050  39.270   2.785
41248W        W14316   2.707  30.766   0.787
41249W        W14317  17.217  28.868  11.214
41250W        W14318  19.900   7.191  12.909
41251W        W14319  21.401   1.116   4.543
41252W        W14320  23.803  30.171   2.281
41253W        W14321  15.162  16.166  10.592
41254W        W14322  15.242   1.214   3.696
41255W        W14323   8.783  23.439   2.962
41256W        W14324   0.548  16.085  10.611
41257W        W14325   8.769  34.148   2.382
41258W        W14326  44.971  18.839   3.031
41259W        W14327  17.794  33.954  13.538
41260W        W14328  31.511  14.821   2.627
41261W        W14329  42.524  43.831   1.913
41262W        W14330   4.296  30.999   4.698
41263W        W14331  44.002  21.956   3.947
41264W        W14332  44.774  24.731  13.383
41265W        W14333  13.624  36.240  13.116
41266W        W14334   3.813  10.281  11.228
41267W        W14335  30.321  11.826  12.482
41268W        W14336  35.503  20.236   2.664
41269W        W14337   2.319  24.237   4.483
41270W        W14338  15.714   2.210  14.223
41271W        W14339  28.910   4.386   0.806
41272W        W14340  17.149  11.289   3.269
41273W        W14341  26.392   9.044   5.055
41274W        W14342  26.078  31.122   2.865
41275W        W14343   8.861  26.193  13.700
41276W        W14344  29.514  42.836  12.097
41277W        W14345  20.621  15.329  10.697
41278W        W14346  26.740  36.581  11.110
41279W        W14347  43.033  30.064  12.570
41280W        W14348  24.197  20.501   4.169
41281W        W14349  16.051  33.672  14.419
41282W        W14350  37.449  30.582  14.335
41283W        W14351  25.718  36.373  13.282
41284W        W14352  38.776   1.698   0.752
41285W        W14353   4.676  42.200   4.622
41286W        W14354  24.671   2.863  11.971
41287W        W14355  22.070  10.302  13.123
41288W        W14356  44.334  36.574  11.727
41289W        W14357  32.551   0.782  12.336
41290W        W14358  14.323  39.785  13.085
41291W        W14359  17.072  26.954   2.642
41292W        W14360  28.910  40.275   3.257
41293W        W14361  22.057   0.179  14.570
41294W        W14362  23.781  10.388  11.630
41295W        W14363  15.861  34.997  13.100
41296W        W14364  30.478   6.516   4.847
41297W        W14365  43.423  26.891  12.435
41298W        W14366   1.718  20.463  12.957
41299W        W14367   2.690  13.734  12.105
41300W        W14368  33.542  31.735   4.819
41301W        W14369  35.151  24.004  11.592
41302W        W14370  40.946  32.619   2.144
41303W        W14371  20.490  15.168   0.312
41304W        W14372   1.005  34.371  10.300
41305W        W14373  14.543   3.369   4.606
41306W        W14374  31.901   7.666  10.538
41307W        W14375  23.919  21.102  13.845
41308W        W14376  16.126  24.683   4.066
41309W        W14377   7.746  19.098  10.561
41310W        W14378  32.241   4.946  14.368
41311W        W14379  36.159  25.945   2.728
41312W        W14380  43.825  13.950   4.704
41313W        W14381  32.985  40.870  12.178
41314W        W14382  21.651  18.766   3.201
41315W        W14383  43.673  12.184   0.731
41316W        W14384  37.323  37.883  10.747
41317W        W14385  42.032  24.761   1.338
41318W        W14386  23.604   9.367  10.691
41319W        W14387  28.007  17.193   3.400
41320W        W14388  33.665  28.999  10.597
41321W        W14389  32.681   3.661  13.325
41322W        W14390  43.814  10.716   0.262
41323W        W14391   1.458   6.420  12.513
41324W        W14392   6.747   0.046   2.246
41325W        W14393   7.331   6.269   4.395
41326W        W14394  23.498  21.402  10.792
41327W        W14395   9.729  20.108  13.667
41328W        W14396  10.077  17.651   3.259
41329W        W14397   2.417  18.833  14.289
41330W        W14398   9.881  33.460   0.792
41331W        W14399  40.037  15.554   0.790
41332W        W14400   8.094  22.589  13.751
41333W        W14401  25.699  26.397  14.949
41334W        W14402  10.757  43.647  14.731
41335W        W14403  24.214  18.006  12.066
41336W        W14404  18.333   2.500   3.619
41337W        W14405  22.541  15.539   4.213
41338W        W14406  44.825   3.190  14.745
41339W        W14407   4.712  41.037  11.496
41340W        W14408   6.527  35.566   2.303
41341W        W14409  37.575  33.137  12.397
41342W        W14410  16.056  28.949   4.891
41343W        W14411  22.948  13.804  11.117
41344W        W14412   7.323  12.719  13.047
41345W        W14413  39.814  33.625   0.906
41346W        W14414  36.250   7.589  14.421
41347W        W14415  25.137  39.832   2.279
41348W        W14416  39.848  42.467  11.623
41349W        W14417  23.586  41.692  13.585
41350W        W14418  28.434  38.161   2.310
41351W        W14419  23.206  19.894  13.432
41352W        W14420  17.946   8.171  11.549
41353W        W14421  21.186   5.361  11.584
41354W        W14422  27.068  42.109  14.510
41355W        W14423  33.860  39.838  11.667
41356W        W14424  37.981  36.141  12.184
41357W        W14425  30.204   3.767  11.584
41358W        W14426  27.547  37.797  14.939
41359W        W14427  26.511  21.234  10.641
41360W        W14428  43.277  17.232   2.788
41361W        W14429  12.119  41.287   4.367
41362W        W14430  42.968  34.485   1.354
41363W        W14431  19.575  41.058   0.451
41364W        W14432  23.977  14.246   2.160
41365W        W14433  44.995  20.188  11.652
41366W        W14434  23.457   2.595  12.575
41367W        W14435  22.397  28.588   1.572
41368W        W14436  35.892   0.709   2.781
41369W        W14437  15.528   3.579   1.820
41370W        W14438  42.786  21.322  12.106
41371W        W14439  16.613  29.895  14.341
41372W        W14440   1.612  43.607  11.959
41373W        W14441   3.855  18.932   2.132
41374W        W14442  35.090  28.634  10.973
41375W        W14443  36.014  30.984  11.122
41376W        W14444  26.113  24.226   3.245
41377W        W14445  15.026  42.461   2.852
41378W        W14446  43.639  12.138   4.945
41379W        W14447  43.019  16.117  13.507
41380W        W14448  21.467  44.809   0.321
41381W        W14449   1.726  34.885   2.187
41382W        W14450   8.352  11.229  13.923
41383W        W14451  39.759  23.724  14.089
41384W        W14452   4.837  22.939   3.297
41385W        W14453  42.366  22.999  14.196
41386W        W14454  19.549  30.427   1.999
41387W        W14455  11.551  16.772   0.855
41388W        W14456  20.543  26.092   0.628
41389W        W14457  25.601   8.974   1.215
41390W        W14458  10.164  20.681  10.459
41391W        W14459  33.045  19.964   4.183
41392W        W14460  28.685  37.308  14.378
41393W        W14461   2.903   4.448  12.612
41394W        W14462  43.421  12.358  13.744
41395W        W14463  21.073  25.151   0.855
41396W        W14464  21.748  36.210  10.564
41397W        W14465   2.938  23.747   3.934
41398W        W14466  19.888   6.047  12.544
41399W        W14467  33.014  18.098   3.867
41400W        W14468  20.442  32.475  10.833
41401W        W14469   0.638   8.635   3.755
41402W        W14470   2.717  27.943  10.670
41403W        W14471  12.663  20.528   2.619
41404W        W14472  43.281  12.351   3.152
41405W        W14473   3.283  42.402  11.700
41406W        W14474  32.548  18.104   0.208
41407W        W14475   5.772   9.484  14.470
41408W        W14476  17.490  18.521   3.104
41409W        W14477  23.025  22.741  12.311
41410W        W14478  19.643   5.023   3.707
41411W        W14479  18.352   3.987  11.408
41412W        W14480   7.803  21.165   0.882
41413W        W14481  29.749  39.494   4.943
41414W        W14482   5.690  18.139  10.495
41415W        W14483  19.506  29.339  10.498
41416W        W14484  15.255   5.854   2.661
41417W        W14485   7.794  36.323  12.907
41418W        W14486  19.478  16.259   0.491
41419W        W14487  21.391  35.968   0.781
41420W        W14488  33.687  43.329   4.627
41421W        W14489   6.963   0.829  13.400
41422W        W14490  31.203  28.106   3.646
41423W        W14491  39.819  28.172   4.301
41424W        W14492  20.007  10.209  11.649
41425W        W14493  29.721  22.485  13.530
41426W        W14494  34.159  17.987  10.432
41427W        W14495  44.496  11.347   2.348
41428W        W14496  29.263  26.208   2.110
41429W        W14497  41.616   4.421   2.683
41430W        W14498  43.887  34.123  10.401
41431W        W14499   7.680  16.576   3.416
41432W        W14500  18.050  27.318  11.651
41433W        W14501  25.626  31.929   0.233
41434W        W14502  22.507  16.733  10.282
41435W        W14503   4.189  38.617   2.363
41436W        W14504  15.006   0.311  14.837
41437W        W14505  17.165  30.735   3.208
41438W        W14506  31.097  19.368  14.806
41439W        W14507  31.437  26.067  14.537
41440W        W14508  42.150  30.485   4.172
41441W        W14509  42.728   8.151  12.402
41442W        W14510  30.812  31.369   3.488
41443W        W14511  17.368  16.716  12.601
41444W        W14512  33.610  33.358   0.317
41445W        W14513   2.401  13.597   3.218
41446W        W14514   2.042   9.697   3.077
41447W        W14515  41.315   2.180   1.367
41448W        W14516  22.394  43.832   4.556
41449W        W14517  23.207  41.715  12.078
41450W        W14518  23.941  36.956   1.316
41451W        W14519  36.566  14.558  12.879
41452W        W14520  27.260  12.176  11.620
41453W        W14521  16.765  20.832  13.351
41454W        W14522  26.665  11.754   2.856
41455W        W14523  41.819  20.809  14.484
41456W        W14524  38.109  37.536  12.279
41457W        W14525   1.267  15.186   2.397
41458W        W14526   8.179  27.163  12.928
41459W        W14527  40.979  11.111   4.301
41460W        W14528  25.847   8.676   4.926
41461W        W14529  13.238  10.905  12.134
41462W        W14530  32.624  21.731   0.494
41463W        W14531  35.662  10.291   3.764
41464W        W14532  27.161   1.320   0.972
41465W        W14533  26.157  30.623   4.631
41466W        W14534   9.695  34.702  11.472
41467W        W14535  28.262   2.090  11.142
41468W        W14536  11.011   4.208  12.996
41469W        W14537  16.949  35.153  13.970
41470W        W14538  36.912  26.902   2.143
41471W        W14539  39.312  35.507   1.966
41472W        W14540  17.289  40.445   1.226
41473W        W14541  25.876   0.966  12.216
41474W        W14542  10.102  13.210  14.812
41475W        W14543  43.378  32.476   3.084
41476W        W14544  12.823  38.470   0.852
41477W        W14545  35.577  30.674  14.968
41478W        W14546  30.049  38.937   1.472
41479W        W14547  11.685   0.320   0.875
41480W        W14548   9.083  31.808   1.581
41481W        W14549  15.706  17.535  11.495
41482W        W14550  22.591   4.152   2.221
41483W        W14551  24.155  25.571   4.665
41484W        W14552   2.384   1.401   2.008
41485W        W14553  15.393   3.656  13.556
41486W        W14554  40.018  30.191  11.145
41487W        W14555   4.213   1.414   1.671
41488W        W14556  12.163  30.680  14.121
41489W        W14557  14.693   9.355   4.592
41490W        W14558  28.981  21.455   2.130
41491W        W14559   5.420  37.707  13.988
41492W        W14560  35.415  33.821   3.221
41493W        W14561  13.822  32.509  13.919
41494W        W14562  20.103  36.719  12.501
41495W        W14563  37.458  16.997  14.561
41496W        W14564  18.073  19.868   2.008
41497W        W14565   9.972  24.928  12.091
41498W        W14566  41.959  23.602  12.489
41499W        W14567  17.147  33.429   3.217
41500W        W14568  18.512  42.201  11.987
41501W        W14569   6.300  22.626  14.284
41502W        W14570   2.538  40.901   4.064
41503W        W14571   6.190  40.146   1.871
41504W        W14572  17.798  23.945   3.553
41505W        W14573  12.313  33.074  13.114
41506W        W14574  42.346  13.807   1.831
41507W        W14575  17.292   8.577   4.024
41508W        W14576   2.327   6.732   3.344
41509W        W14577   5.606  23.791  12.383
41510W        W14578  25.174   3.453  14.748
41511W        W14579  21.606  16.188  14.364
41512W        W14580  31.726   4.402   1.265
41513W        W14581  38.915  32.850  12.099
41514W        W14582  31.122  13.623  14.110
41515W        W14583   0.386  20.560   2.170
41516W        W14584  25.529  40.901  12.103
41517W        W14585  42.304   0.455   3.213
41518W        W14586  35.389   7.947   1.262
41519W        W14587  10.033  26.010   2.389
41520W        W14588  27.144   5.523   4.112
41521W        W14589  16.220   3.371  10.334
41522W        W14590  25.181  14.873  14.496
41523W        W14591  44.981  34.835  11.691
41524W        W14592  18.468  15.721  10.194
41525W        W14593   5.342  26.965  13.799
41526W        W14594  18.793   2.948   1.182
41527W        W14595  36.724  37.326   2.857
41528W        W14596  14.578  32.548   2.457
41529W        W14597   0.945  38.634  13.784
41530W        W14598   5.901  19.109   2.319
41531W        W14599  14.730  15.340  11.208
41532W        W14600  32.626  42.521   2.362
41533W        W14601   3.811   2.398  12.870
41534W        W14602  19.237   4.704   4.595
41535W        W14603  11.008  29.233  14.984
41536W        W14604  26.916  24.590   3.315
41537W        W14605   9.175  30.441  10.576
41538W        W14606  22.574  12.049   0.532
41539W        W14607  12.237  14.968  11.447
41540W        W14608   9.787  35.159  11.671
41541W        W14609  17.855   4.014  11.553
41542W        W14610   0.747  43.202  11.729
41543W        W14611   4.596  44.293   2.727
41544W        W14612  37.475  19.312   3.179
41545W        W14613  26.599  36.995   2.716
41546W        W14614  23.148  42.827  13.855
41547W        W14615  10.224  28.600   0.789
41548W        W14616   5.461  37.982   2.709
41549W        W14617  36.479  20.594   0.306
41550W        W14618  34.643   1.033   2.238
41551W        W14619   7.400  19.720   0.936
41552W        W14620  25.917  13.272   3.630
41553W        W14621   9.719  41.588  11.672
41554W        W14622  17.065   1.818   4.069
41555W        W14623   0.218  23.638  13.667
41556W        W14624   0.724   0.767  13.838
41557W        W14625  27.904  30.678   4.162
41558W        W14626  21.154  13.306   0.232
41559W        W14627   8.111   6.929  13.393
41560W        W14628  35.509  41.765   4.330
41561W        W14629  15.194  19.669   4.669
41562W        W14630  39.520  35.416   2.902
41563W        W14631   1.705  42.674   5.007
41564W        W14632  17.686  37.068   0.860
41565W        W14633  21.751  23.710  13.014
41566W        W14634  34.857  19.840  13.270
41567W        W14635   9.869  43.028   5.117
41568W        W14636   3.065  40.230  10.674
41569W        W14637  36.890  27.658  13.992
41570W        W14638  43.433   4.967   3.162
41571W        W14639  13.744  17.938  11.765
41572W        W14640  21.306  43.770  10.608
41573W        W14641  23.979  42.578   2.306
41574W        W14642   7.732  18.146  14.381
41575W        W14643  40.333  17.260  13.935
41576W        W14644  12.820  44.528  13.531
41577W        W14645  17.296  27.129  11.607
41578W        W14646  44.419  35.371  11.113
41579W        W14647  19.319  34.879   2.453
41580W        W14648  37.842  32.018   2.354
41581W        W14649  28.415  26.946   4.045
41582W        W14650  43.758  30.157   1.788
41583W        W14651   8.054  18.181  12.144
41584W        W14652  21.992  37.487   4.496
41585W        W14653  12.847  24.990   4.583
41586W        W14654  40.360   6.908   3.386
41587W        W14655  37.985   7.128   1.319
41588W        W14656   1.479  34.847  12.933
41589W        W14657  20.460  17.064  12.079
41590W        W14658  18.496   3.871   2.706
41591W        W14659   1.271   7.116   3.104
41592W        W14660   0.695   1.305  13.556
41593W        W14661  39.459  39.076   3.718
41594W        W14662  16.642  13.184   2.903
41595W        W14663   3.334  27.913   3.795
41596W        W14664  18.316  15.757  13.514
41597W        W14665  34.350   4.853   1.299
41598W        W14666  25.539  32.247   4.225
41599W        W14667  23.660  23.417  13.875
41600W        W14668  40.857  43.384   1.821
41601W        W14669   9.640  33.875   3.276
41602W        W14670  39.524  15.462   3.431
41603W        W14671  14.188  32.582   0.422
41604W        W14672  13.742  42.338  13.564
41605W        W14673   6.976  25.598  12.573
41606W        W14674  12.106  32.360   3.565
41607W        W14675  22.856  15.289   5.190
41608W        W14676  17.861   9.197   2.702
41609W        W14677  17.095  26.958  13.072
41610W        W14678  23.487  43.235   0.444
41611W        W14679  28.430   8.649  12.871
41612W        W14680  34.811  34.949   3.657
41613W        W14681  13.707  17.277  11.457
41614W        W14682  16.008  25.673  10.747
41615W        W14683   2.267  32.927   4.521
41616W        W14684  10.283   6.335   3.956
41617W        W14685   8.797  19.369  13.991
41618W        W14686  35.023  36.129  12.878
41619W        W14687  18.490  19.871  12.475
41620W        W14688  34.701   4.213   3.251
41621W        W14689  25.464  25.289   2.164
41622W        W14690  42.335  34.312   3.341
41623W        W14691   1.788  14.825  13.093
41624W        W14692   8.840  16.256   2.491
41625W        W14693  13.970  44.539  12.240
41626W        W14694  28.578  15.926  11.724
41627W        W14695  41.911  14.874  10.424
41628W        W14696  25.448   4.357   2.420
41629W        W14697  31.789   7.977   3.244
41630W        W14698  38.339   4.919   4.464
41631W        W14699  15.710  38.241   1.903
41632W        W14700  41.716  13.865   0.041
41633W        W14701   4.881  15.702  10.682
41634W        W14702  13.078   6.604  12.298
41635W        W14703  13.978  15.825   5.026
41636W        W14704   6.339  28.506   2.720
41637W        W14705  11.280  22.622   2.877
41638W        W14706  12.113  15.648  10.678
41639W        W14707   5.376  33.716   4.259
41640W        W14708  22.596  37.614  11.250
41641W        W14709  36.091  42.297  11.210
41642W        W14710  21.024   5.302   3.547
41643W        W14711   2.857   1.069  12.405
41644W        W14712  37.389  31.652   4.147
41645W        W14713   0.973  36.235  11.406
41646W        W14714   2.438  28.410  14.921
41647W        W14715   0.244  25.105   2.282
41648W        W14716  30.524  20.797   4.566
41649W        W14717  25.037  28.164   5.100
41650W        W14718  41.368  18.119  14.789
41651W        W14719  33.367   7.325   0.915
41652W        W14720   9.776  44.788  11.943
41653W        W14721  17.036   3.639   2.853
41654W        W14722  21.628  28.148  11.002
41655W        W14723  34.411   6.927  12.452
41656W        W14724   3.852  36.100   1.185
41657W        W14725  29.725  29.589  13.437
41658W        W14726  15.189  25.395   2.141
41659W        W14727  40.139  31.308  13.988
41660W        W14728  12.603   5.703   4.159
41661W        W14729  10.852  41.013  10.676
41662W        W14730  21.179  13.713  12.147
41663W        W14731   8.649  27.144  12.068
41664W        W14732  11.594  15.282  14.942
41665W        W14733  34.465  31.168  10.669
41666W        W14734  36.030   3.703   1.653
41667W        W14735  22.469  44.227   5.189
41668W        W14736   7.665  13.217  10.577
41669W        W14737  21.533  22.327  14.971
41670W        W14738  20.768  31.746  13.361
41671W        W14739  44.420   9.487   0.954
41672W        W14740  30.920  30.982  13.453
41673W        W14741  16.484  30.855   4.725
41674W        W14742   2.222   5.261   1.871
41675W        W14743  11.820  34.609   2.607
41676W        W14744  12.943  10.172  12.365
41677W        W14745  20.276  37.054  13.493
41678W        W14746  19.017  21.325  12.328
41679W        W14747   5.160  20.333  10.688
41680W        W14748  38.493   5.372   1.507
41681W        W14749  13.274  33.337   1.547
41682W        W14750  43.560  16.275  11.607
41683W        W14751  44.474  32.607   0.295
41684W        W14752  31.380  37.266   1.650
41685W        W14753  25.004  23.457  12.925
41686W        W14754  30.167   6.856  14.259
41687W        W14755  28.983  28.649   3.329
41688W        W14756   2.130  17.780  11.439
41689W        W14757  28.775  10.806  10.098
41690W        W14758   0.613  10.825   4.250
41691W        W14759  34.591  43.945   4.666
41692W        W14760  43.835  30.509  12.614
41693W        W14761  22.489  14.630  10.679
41694W        W14762   4.003  28.925   1.317
41695W        W14763  38.652   4.408   0.771
41696W        W14764   6.184   5.618   0.885
41697W        W14765  15.705  21.614  13.272
41698W        W14766   7.488  42.432  13.590
41699W        W14767  17.124   5.821   3.556
41700W        W14768  28.128  29.112   0.697
41701W        W14769  28.004   9.600  10.513
41702W        W14770  33.177  11.932  11.259
41703W        W14771  37.714  13.615   3.696
41704W        W14772  16.662  14.741  13.917
41705W        W14773  17.773  35.801   0.338
41706W        W14774   2.715  10.389  11.215
41707W        W14775  43.692   4.401  12.001
41708W        W14776  16.704  27.734   1.790
41709W        W14777  38.952  11.919   3.706
41710W        W14778  41.067  44.531  12.758
41711W        W14779   6.353   6.161   3.695
41712W        W14780  38.043  20.630  11.423
41713W        W14781  36.264  36.998  11.548
41714W        W14782  42.860  11.250   2.701
41715W        W14783   5.787  11.357   4.863
41716W        W14784  18.120  40.357   2.673
41717W        W14785  31.659  40.806   2.316
41718W        W14786  32.592  44.836  10.460
41719W        W14787   8.548   2.979   4.205
41720W        W14788  37.793  44.269   3.770
41721W        W14789  40.070  42.794  12.652
41722W        W14790   6.757  25.446   2.251
41723W        W14791  42.571  35.208   2.278
41724W        W14792  32.899  34.415  12.495
41725W        W14793   8.289  12.190   0.218
41726W        W14794  14.797  13.154   0.698
41727W        W14795  37.868   2.148  12.028
41728W        W14796  27.056   5.635  14.899
41729W        W14797   0.658  18.069   3.088
41730W        W14798   6.856  35.238   1.989
41731W        W14799   9.260  12.892  11.626
41732W        W14800   0.049  28.989   2.763
41733W        W14801  16.616  24.436   1.395
41734W        W14802  23.120  15.692  14.030
41735W        W14803  35.832  26.901  12.149
41736W        W14804  31.929  15.551  13.021
41737W        W14805  13.235  13.598   1.864
41738W        W14806  18.781  12.163  13.882
41739W        W14807  41.902  10.532  13.507
41740W        W14808  22.568  34.392   4.177
41741W        W14809  27.804   1.919  11.290
41742W        W14810  29.680  37.497  13.378
41743W        W14811   2.121  38.886   0.679
41744W        W14812   1.989  27.118  10.839
41745W        W14813  37.442  40.371  13.204
41746W        W14814  23.222  37.398   3.536
41747W        W14815  23.075  13.257  11.883
41748W        W14816  40.111  41.434   4.515
41749W        W14817  17.330  19.180  11.466
41750W        W14818  16.827  14.713   1.796
41751W        W14819  23.141  39.294  11.907
41752W        W14820  26.952   8.466  11.162
41753W        W14821  17.327  25.004   4.589
41754W        W14822   9.970   4.288  10.432
41755W        W14823  15.670   2.951  13.823
41756W        W14824  20.714   4.573  10.447
41757W        W14825   8.318  42.077   3.725
41758W        W14826   8.200   9.879   1.504
41759W        W14827  23.060  41.270   1.509
41760W        W14828  21.173  14.190  14.470
41761W        W14829  27.402  36.875   0.672
41762W        W14830  15.142  14.241   1.688
41763W        W14831  17.845  19.313   0.997
41764W        W14832  44.998  40.863  14.789
41765W        W14833  38.071   5.075   0.516
41766W        W14834   0.065  37.301  11.662
41767W        W14835   1.465  35.047   4.629
41768W        W14836  13.753  20.724  13.507
41769W        W14837  32.203   7.457   3.724
41770W        W14838   8.962  11.739   0.491
41771W        W14839  29.347  27.559   0.759
41772W        W14840  14.215  18.291   1.789
41773W        W14841  26.046  43.210   5.004
41774W        W14842  11.087   6.745  14.291
41775W        W14843  28.508  12.632  12.658
41776W        W14844   5.250  40.565   3.671
41777W        W14845  15.733   2.704   3.845
41778W        W14846  35.587  20.785   0.287
41779W        W14847  30.093  37.555   9.948
41780W        W14848  41.663   2.473  14.537
41781W        W14849  10.819   7.817  10.552
41782W        W14850  20.551  15.827   4.437
41783W        W14851  10.386   6.235   3.019
41784W        W14852  36.820  14.716  11.109
41785W        W14853  13.551  18.368  12.637
41786W        W14854   7.184  19.995  10.509
41787W        W14855  24.023  34.875  13.141
41788W        W14856   0.734  33.324  13.387
41789W        W14857  14.648  29.092   0.827
41790W        W14858  18.507  19.432   5.024
41791W        W14859  40.270   2.332  12.440
41792W        W14860  20.782  14.736   0.244
41793W        W14861  22.960  20.752   3.822
41794W        W14862  34.379   6.730   3.388
41795W        W14863  40.987  20.005  12.480
41796W        W14864  16.628  28.690   2.144
41797W        W14865  40.994   1.675  11.284
41798W        W14866  40.331   5.314  11.983
41799W        W14867  36.923  12.094   2.723
41800W        W14868  18.115  16.185   1.823
41801W        W14869  32.189  23.755  11.971
41802W        W14870   8.436  44.470  13.546
41803W        W14871  18.140  18.301  14.546
41804W        W14872   6.079   3.375   1.016
41805W        W14873  22.448  16.565   2.880
41806W        W14874  28.456   9.533  10.709
41807W        W14875  16.984  17.613  12.772
41808W        W14876   9.392  26.737  10.988
41809W        W14877  42.170  13.970  14.810
41810W        W14878   9.536  36.380   1.873
41811W        W14879   0.317  22.636  12.607
41812W        W14880  29.614  10.513   1.894
41813W        W14881  36.170   7.887  12.913
41814W        W14882  41.463  16.187   1.836
41815W        W14883  35.214   1.789   4.986
41816W        W14884   5.574  21.861   1.411
41817W        W14885   7.796  31.550   1.964
41818W        W14886   7.962  38.845  14.309
41819W        W14887  17.977  36.622  11.715
41820W        W14888  14.051  32.504   2.456
41821W        W14889  35.787  25.924  13.413
41822W        W14890   9.733  20.276  12.153
41823W        W14891  26.578  17.312  12.902
41824W        W14892  32.028  10.667  11.761
41825W        W14893  37.797  27.203   3.135
41826W        W14894   7.860  17.107   0.530
41827W        W14895  40.207   8.789  10.084
41828W        W14896  43.880   6.476  14.349
41829W        W14897  14.902  28.166   0.737
41830W        W14898  10.471  29.430   1.880
41831W        W14899  14.724  14.338   2.477
41832W        W14900  15.410  17.155  14.402
41833W        W14901  30.798  21.316   0.010
41834W        W14902   0.682   5.893  10.675
41835W        W14903  33.939  20.476  10.546
41836W        W14904  15.221  29.991   3.139
41837W        W14905  40.973   7.134  11.086
41838W        W14906  24.768  27.383  11.923
41839W        W14907  27.788   5.343  11.552
41840W        W14908  13.220  22.727   2.851
41841W        W14909   4.347  33.616  14.889
41842W        W14910  23.671   6.584   0.331
41843W        W14911  24.700   5.642   3.307
41844W        W14912  42.789  15.533   2.687
41845W        W14913  13.786  42.388  11.247
41846W        W14914   4.957  16.060   4.934
41847W        W14915  22.035  32.794  10.569
41848W        W14916   6.845  27.120  11.063
41849W        W14917  28.183  33.065   0.351
41850W        W14918   3.722  34.111   3.600
41851W        W14919  32.876  17.709  14.381
41852W        W14920   7.681  19.327   1.333
41853W        W14921   2.828  19.532   3.290
41854W        W14922   8.039  34.389   2.132
41855W        W14923  31.574   2.394  14.536
41856W        W14924   2.463  16.523  12.939
41857W        W14925  26.131   0.981   0.909
41858W        W14926  10.350  42.907   0.171
41859W        W14927  18.094   5.894  14.475
41860W        W14928   9.343   7.260   3.176
41861W        W14929  24.628  18.193   1.023
41862W        W14930  36.009  33.897  12.510
41863W        W14931  10.717   1.723   1.868
41864W        W14932  19.565  20.977   0.883
41865W        W14933  44.438  22.984  13.751
41866W        W14934  25.498  20.197  14.982
41867W        W14935   6.659  43.344   2.768
41868W        W14936  31.093   5.809  14.543
41869W        W14937   4.836  40.411   2.291
41870W        W14938  44.946  21.162  13.058
41871W        W14939  34.015  35.514   2.358
41872W        W14940   7.728  11.976   0.993
41873W        W14941  24.340  41.898  11.164
41874W        W14942   2.787   6.879  12.435
41875W        W14943  32.663   5.317  12.545
41876W        W14944  22.374  28.393   4.218
41877W        W14945  42.476   6.675  14.457
41878W        W14946  26.549  31.515  12.173
41879W        W14947  10.692  39.230   4.638
41880W        W14948  19.503   4.442   2.362
41881W        W14949  41.801  10.810   2.326
41882W        W14950  15.581  40.084  12.525
41883W        W14951  24.540  38.870   3.247
41884W        W14952  38.569   9.852  14.317
41885W        W14953  36.914  20.299   2.301
41886W        W14954   5.239  18.824  11.035
41887W        W14955   2.698  14.173  13.737
41888W        W14956  33.726  16.912  13.486
41889W        W14957  30.764   4.030  14.119
41890W        W14958  15.760  13.875   5.086
41891W        W14959  11.831   6.405  12.451
41892W        W14960  27.155   5.331   2.732
41893W        W14961  26.097  43.640  11.023
41894W        W14962   3.937  42.714  13.013
41895W        W14963   8.335  32.629  11.621
41896W        W14964  26.039   2.042  14.542
41897W        W14965   7.315  33.173  13.368
41898W        W14966  37.883  12.680  13.539
41899W        W14967  26.988   0.220   4.190
41900W        W14968  30.756  20.119   3.879
41901W        W14969  14.178  29.854  10.617
41902W        W14970   2.718  16.558  14.071
41903W        W14971  29.353  23.598  10.743
41904W        W14972  27.730  34.460   2.622
41905W        W14973  33.449  33.828  13.447
41906W        W14974  44.198   7.493  13.452
41907W        W14975  44.302   5.807  10.725
41908W        W14976  14.799  21.468   3.365
41909W        W14977  16.552   1.365  14.325
41910W        W14978  35.355  35.062  14.914
41911W        W14979  24.774  19.162   1.857
41912W        W14980  13.846  28.872   3.694
41913W        W14981  11.939  29.409  13.419
41914W        W14982  33.124   4.831  12.248
41915W        W14983  39.440  17.698   2.891
41916W        W14984  20.715  29.165   2.925
41917W        W14985   7.811  24.851  11.225
41918W        W14986  18.441  17.266  11.197
41919W        W14987  29.087  29.158   3.322
41920W        W14988  33.745   7.482  11.250
41921W        W14989  37.982  39.488   2.457
41922W        W14990  23.267  44.338   1.757
41923W        W14991  11.121   7.404  12.121
41924W        W14992  30.145  35.244   0.380
41925W        W14993  36.698  21.340  11.673
41926W        W14994  24.120   2.995   3.289
41927W        W14995  22.502  30.303  14.278
41928W        W14996   9.208  34.043  14.146
41929W        W14997  36.414  28.643  13.938
41930W        W14998  24.017  23.051  14.952
41931W        W14999   7.701  42.841  13.829
41932W        W15000  42.833  22.829  12.970
41933W        W15001  18.130   4.186  13.943
41934W        W15002  21.430   1.087  10.226
41935W        W15003  12.239  31.353   1.301
41936W        W15004  25.070  33.543  11.332
41937W        W15005  32.559  39.342   0.851
41938W        W15006  21.998  35.347  10.662
41939W        W15007  33.664  40.869  14.983
41940W        W15008  21.775  20.703  10.964
41941W        W15009  42.002  37.657   3.873
41942W        W15010  34.351  36.491  13.359
41943W        W15011  19.290  44.317   0.838
41944W        W15012  31.173   7.725   3.711
41945W        W15013  19.747   1.889  12.697
41946W        W15014  16.143  14.920   4.667
41947W        W15015   7.617  11.828   1.823
41948W        W15016   2.454   7.974   2.780
41949W        W15017  17.180  32.216   2.779
41950W        W15018  25.576  12.523  10.513
41951W        W15019  29.457  31.072   3.039
41952W        W15020  12.648  44.273  12.612
41953W        W15021  10.055   5.891   4.057
41954W        W15022  35.136   8.393  10.791
41955W        W15023  25.912  28.479   2.180
41956W        W15024  36.170   5.128  12.408
41957W        W15025   1.478  34.101   3.685
41958W        W15026  38.374  17.339   0.171
41959W        W15027  23.650   9.097  13.265
41960W        W15028  10.137  39.597   0.047
41961W        W15029   3.692  26.718   1.391
41962W        W15030  33.945  27.480  13.173
41963W        W15031  26.178  16.487   1.687
41964W        W15032  11.866  20.634  11.625
41965W        W15033  43.850  20.802   0.454
41966W        W15034  40.110  16.315  10.741
41967W        W15035  10.891  23.165   3.226
41968W        W15036   4.747  20.397   3.861
41969W        W15037  21.926  42.772  14.415
41970W        W15038  21.224  42.818  14.936
41971W        W15039  39.035  29.167   4.263
41972W        W15040  43.749   2.222  12.652
41973W        W15041  39.397  42.012   3.192
41974W        W15042   5.893  38.830   2.233
41975W        W15043   6.889  34.138  10.782
41976W        W15044  17.543  17.647   3.171
41977W        W15045  42.391  22.509  10.996
41978W        W15046  44.228   1.529   3.766
41979W        W15047  32.874  15.580   0.205
41980W        W15048   7.910  10.302   2.416
41981W        W15049  18.271  22.331   4.683
41982W        W15050  40.595  27.590  11.079
41983W        W15051  11.594   6.609   0.220
41984W        W15052  32.407  20.148  11.115
41985W        W15053  28.088  21.781   1.154
41986W        W15054  19.412  17.865  12.921
41987W        W15055  39.105   3.272  11.128
41988W        W15056  37.578  12.781  11.608
41989W        W15057  34.697  10.160  10.269
41990W        W15058  38.639  37.818  13.485
41991W        W15059   6.680  12.948  10.716
41992W        W15060  44.346  29.043   1.061
41993W        W15061  13.028   1.700   3.160
41994W        W15062  39.463  19.230   2.400
41995W        W15063   9.353  37.934  13.343
41996W        W15064  38.340  43.223  14.296
41997W        W15065  13.217  41.812   3.833
41998W        W15066  43.522   9.639  11.188
41999W        W15067   6.822  19.360  14.501
42000W        W15068  14.325  24.021  11.381
42001W        W15069  13.270  13.871  14.146
42002W        W15070   0.411  23.755   1.428
42003W        W15071  19.724  36.170   4.844
42004W        W15072  24.854  39.349   3.203
42005W        W15073  28.827  28.137   1.394
42006W        W15074  13.521  31.861  12.968
42007W        W15075   8.284   1.341   4.297
42008W        W15076  39.016   2.238   1.855
42009W        W15077  31.711  37.546   0.739
42010W        W15078  41.498  32.844  14.327
42011W        W15079   1.933   9.268  13.511
42012W        W15080   1.068  40.535  13.633
42013W        W15081  22.149  28.232  14.966
42014W        W15082   6.806  29.465   2.913
42015W        W15083   9.471  29.169   3.947
42016W        W15084  32.100  23.231   4.229
42017W        W15085   0.538  44.104   4.362
42018W        W15086  39.845   6.912   4.692
42019W        W15087  42.063  39.494   4.271
42020W        W15088  40.914  15.365  13.924
42021W        W15089   3.756  40.542   1.876
42022W        W15090   6.751   9.716   2.709
42023W        W15091  43.783  19.979   0.033
42024W        W15092   8.117  30.528   2.777
42025W        W15093  36.382  22.233   4.281
42026W        W15094  24.063  19.771   3.663
42027W        W15095  16.325  35.267   0.139
42028W        W15096  10.542  20.385   0.082
42029W        W15097  40.061   6.257   3.318
42030W        W15098  33.651   4.490   1.465
42031W        W15099  26.437  27.527  14.721
42032W        W15100  28.634  37.505   4.658
42033W        W15101  25.123  35.746   0.294
42034W        W15102  18.000  41.959  14.281
42035W        W15103  11.422  24.998  14.378
42036W        W15104  41.273   1.679   1.353
42037W        W15105  11.008  43.759  12.952
42038W        W15106  40.492  12.166  11.021
42039W        W15107   7.895  39.510   4.965
42040W        W15108  37.024  42.283  14.283
42041W        W15109   4.771  31.184  13.342
42042W        W15110  26.149  44.554   1.351
42043W        W15111  19.061  12.393  12.514
42044W        W15112  35.541  32.229   4.949
42045W        W15113  38.348  22.069   2.708
42046W        W15114  32.904  31.956   1.138
42047W        W15115  37.253  13.539   3.922
42048W        W15116   8.174  36.398   1.742
42049W        W15117  35.170  18.492   2.772
42050W        W15118  10.528   0.040   0.013
42051W        W15119  21.533  11.136   3.404
42052W        W15120  21.448  28.550  14.886
42053W        W15121  20.276  18.579  14.123
42054W        W15122  13.284  31.377  10.688
42055W        W15123  18.254  17.446  11.614
42056W        W15124  29.219  33.398   4.288
42057W        W15125  21.096  18.036  13.426
42058W        W15126  40.339   0.773   0.727
42059W        W15127  26.706  33.810   4.474
42060W        W15128  27.587  17.322   3.687
42061W        W15129  25.937  20.639  13.378
42062W        W15130  11.971  29.849  14.378
42063W        W15131  41.457  41.472  13.571
42064W        W15132   7.797  27.778   2.185
42065W        W15133  13.052  27.351  12.185
42066W        W15134  14.917  21.278  14.852
42067W        W15135  17.991   9.260  12.878
42068W        W15136  36.532  41.648   9.542
42069W        W15137  15.910  33.255   4.188
42070W        W15138  41.809  14.327  14.847
42071W        W15139  15.590  15.392  13.569
42072W        W15140  39.266  41.511   2.743
42073W        W15141  28.217  14.446  12.837
42074W        W15142  32.774  30.536   2.772
42075W        W15143  36.043  19.976   4.837
42076W        W15144  39.276  41.883  13.458
42077W        W15145  40.508  32.332   3.408
42078W        W15146  31.724  16.376  14.040
42079W        W15147  19.755  26.449  10.636
42080W        W15148  24.516  19.032  10.962
42081W        W15149   3.271  23.734  14.882
42082W        W15150  39.893  14.826   4.837
42083W        W15151  18.626  36.181   3.988
42084W        W15152   2.343  22.078   2.171
42085W        W15153  14.068  36.022   3.843
42086W        W15154  40.877  32.209   3.073
42087W        W15155  16.594  16.766   2.183
42088W        W15156  11.896  35.604  14.884
42089W        W15157  28.619  34.091   2.750
42090W        W15158  17.243  20.328   3.743
42091W        W15159  44.813  16.194   4.005
42092W        W15160  28.367  26.991   1.853
42093W        W15161  22.543  36.853  13.507
42094W        W15162  39.930   4.470  10.767
42095W        W15163  29.420  29.380  13.803
42096W        W15164  33.893  18.667   2.473
42097W        W15165  40.990  10.190  11.213
42098W        W15166   3.466  44.408  10.403
42099W        W15167  27.779  22.265   3.716
42100W        W15168   2.019  16.728   2.644
42101W        W15169  19.111   1.399  11.582
42102W        W15170  36.772   1.302   4.351
42103W        W15171  32.848  22.677  14.090
42104W        W15172  18.159  13.757   4.249
42105W        W15173  13.867  44.021  14.501
42106W        W15174  13.746   6.198  11.633
42107W        W15175  28.032  11.643  11.645
42108W        W15176  40.060  19.386   3.119
42109W        W15177  20.402   7.519  11.155
42110W        W15178   6.749  12.086  12.097
42111W        W15179  19.245  25.719   3.124
42112W        W15180  34.739  23.982  13.861
42113W        W15181   5.472  35.381   4.211
42114W        W15182  21.586  42.870   3.295
42115W        W15183  13.216  27.602  11.160
42116W        W15184  20.634  10.892   3.874
42117W        W15185  42.697  33.082   0.713
42118W        W15186  23.520   4.305   0.703
42119W        W15187  21.018   5.849  11.586
42120W        W15188   7.734  41.824  12.586
42121W        W15189   5.121  20.196  12.692
42122W        W15190  40.080  42.777   0.356
42123W        W15191  26.143  29.127   4.504
42124W        W15192   0.934  19.563  14.337
42125W        W15193  44.394   4.889  13.600
42126W        W15194  18.401  40.263   0.882
42127W        W15195  32.688  32.600  13.961
42128W        W15196  41.772  23.314  12.876
42129W        W15197   4.795  37.565  14.003
42130W        W15198  11.234   4.464   0.895
42131W        W15199  10.650  29.945  12.112
42132W        W15200   2.944  10.945   3.966
42133W        W15201  34.660   5.587  14.983
42134W        W15202  35.129  42.466   2.722
42135W        W15203   0.331  35.360   3.540
42136W        W15204  23.791  35.914   4.526
42137W        W15205  39.138  44.410   0.211
42138W        W15206  18.844   1.013  14.947
42139W        W15207  10.019  23.351   5.030
42140W        W15208   5.465  19.116  12.848
42141W        W15209  42.836  14.333   3.268
42142W        W15210  19.252  30.994   3.556
42143W        W15211  29.353  30.768  14.427
42144W        W15212  32.276  12.845  13.999
42145W        W15213  21.301  19.699  12.057
42146W        W15214  38.537   3.982  10.792
42147W        W15215  31.166  18.181  10.657
42148W        W15216  32.459  15.227   4.464
42149W        W15217  23.458   4.770  10.218
42150W        W15218  10.638  31.861  13.756
42151W        W15219  10.938  12.168   4.682
42152W        W15220   8.286  10.906   1.882
42153W        W15221  28.241  14.799   3.753
42154W        W15222  21.210   9.427  10.981
42155W        W15223  12.275  11.916  10.831
42156W        W15224  19.186   5.779  11.880
42157W        W15225  43.563   9.551  13.442
42158W        W15226  29.509  31.928   4.545
42159W        W15227  13.688  32.202  11.542
42160W        W15228  17.619  12.129  10.688
42161W        W15229  16.995   2.718   2.611
42162W        W15230   5.245  21.956  13.432
42163W        W15231  29.829  37.890   3.255
42164W        W15232  15.541  40.455  10.690
42165W        W15233  21.367  29.078  13.073
42166W        W15234  13.835  31.864   5.013
42167W        W15235  36.413  41.787   4.341
42168W        W15236   0.412   9.810   3.629
42169W        W15237   6.119  11.656  11.059
42170W        W15238   0.675  43.759  10.241
42171W        W15239  39.294  13.626  12.424
42172W        W15240  28.248   5.307   1.752
42173W        W15241  17.701   1.253  11.939
42174W        W15242   1.302  17.442  14.961
42175W        W15243  11.796  15.685  11.097
42176W        W15244  21.607  26.968  13.127
42177W        W15245   0.407   1.956  10.416
42178W        W15246  27.491  10.865  12.597
42179W        W15247  36.903  41.479   2.294
42180W        W15248  11.949  37.606   4.629
42181W        W15249   7.712  19.107  13.524
42182W        W15250  17.123  44.879   0.462
42183W        W15251  29.589  18.805  11.438
42184W        W15252  17.301  29.451  12.629
42185W        W15253   0.887  27.579   1.464
42186W        W15254  25.144   7.114  11.629
42187W        W15255  43.576  17.178   3.192
42188W        W15256  42.767  16.073   2.376
42189W        W15257  40.536  16.619   3.346
42190W        W15258  33.910  39.490  13.494
42191W        W15259  26.786   0.824  11.136
42192W        W15260  38.577  13.791  12.895
42193W        W15261   2.964   6.514  12.952
42194W        W15262  43.363  24.687   4.421
42195W        W15263  12.799  40.641   2.228
42196W        W15264   7.226   7.429   0.506
42197W        W15265  12.360  22.272   2.240
42198W        W15266   4.549  33.100   0.724
42199W        W15267  27.233   9.967  14.953
42200W        W15268  15.641  25.838  13.925
42201W        W15269  18.875   1.590   0.712
42202W        W15270  25.638  11.627   0.326
42203W        W15271  19.194  11.870  13.962
42204W        W15272  38.470  33.354  13.431
42205W        W15273  27.393  21.991   1.288
42206W        W15274  25.546  29.653  11.693
42207W        W15275   2.799   7.601  14.972
42208W        W15276  26.445   5.346   0.267
42209W        W15277  20.632  26.950   1.451
42210W        W15278  26.076  22.803   3.146
42211W        W15279  35.232  14.128   1.792
42212W        W15280  39.106  15.543  12.054
42213W        W15281  19.222  23.042   1.319
42214W        W15282   1.862  44.879  13.093
42215W        W15283   7.456   0.963   1.750
42216W        W15284  17.870  17.469  14.145
42217W        W15285  40.355  12.894   2.425
42218W        W15286  13.006   3.379  12.139
42219W        W15287  26.101  42.551   2.804
42220W        W15288  37.385  37.647   1.570
42221W        W15289  35.593  37.356  11.612
42222W        W15290  27.488  14.636   3.300
42223W        W15291  35.050  24.901  13.516
42224W        W15292  20.985  15.020  14.692
42225W        W15293  18.779  30.927   3.705
42226W        W15294  27.506  31.927   3.238
42227W        W15295   3.935  20.488  13.027
42228W        W15296  18.334  26.206   3.189
42229W        W15297  21.078  35.023   1.199
42230W        W15298  37.761  29.414   3.372
42231W        W15299  40.297  36.300  12.934
42232W        W15300  13.032  43.345   3.185
42233W        W15301  27.872   1.179  13.014
42234W        W15302  43.825  26.727  14.436
42235W        W15303  22.549   6.223  10.742
42236W        W15304  36.568   0.805  10.671
42237W        W15305  14.751  14.541  11.610
42238W        W15306  27.132  35.853  12.062
42239W        W15307   1.698   5.103   0.801
42240W        W15308  10.752  23.513   4.204
42241W        W15309  11.640  29.022   4.673
42242W        W15310  42.827  43.629  11.056
42243W        W15311  38.869  25.145   0.255
42244W        W15312   8.823   8.775   1.471
42245W        W15313  37.773   6.305  14.934
42246W        W15314  29.017  30.204  13.845
42247W        W15315  22.105  36.105  14.437
42248W        W15316  25.373  13.193  11.204
42249W        W15317  34.895  35.143   4.585
42250W        W15318  17.855  19.075  12.270
42251W        W15319  35.362   0.362   0.304
42252W        W15320  35.681  39.120  13.628
42253W        W15321  42.247  24.294   1.406
42254W        W15322   3.232   7.752   2.243
42255W        W15323  27.726  12.357   3.774
42256W        W15324   7.339  40.768  10.279
42257W        W15325  22.025  43.594   1.890
42258W        W15326   7.348   8.299  13.119
42259W        W15327  15.602  44.716   3.664
42260W        W15328  11.395  29.248   1.161
42261W        W15329  22.932  27.204   4.587
42262W        W15330  40.182   9.891   4.463
42263W        W15331  30.980  41.272  10.217
42264W        W15332  30.232  28.600  11.683
42265W        W15333  33.212   3.015  11.965
42266W        W15334  13.014  19.508   9.842
42267W        W15335   0.411  32.575   2.335
42268W        W15336   6.251  35.155   0.986
42269W        W15337  31.553  24.268   1.860
42270W        W15338  21.440  15.906   4.626
42271W        W15339  36.684  29.546  11.766
42272W        W15340  40.134  31.982  14.911
42273W        W15341   7.272  30.154  12.425
42274W        W15342  42.521  44.889   4.920
42275W        W15343  38.117  34.444   4.120
42276W        W15344  34.946  33.538  13.939
42277W        W15345  43.165  41.039  11.986
42278W        W15346   8.455  42.963  13.281
42279W        W15347  32.820  36.085  14.826
42280W        W15348  19.037  20.795  13.987
42281W        W15349  29.641  29.213  11.965
42282W        W15350  21.080  24.130   5.469
42283W        W15351  13.725  42.762   0.957
42284W        W15352  15.808  20.250   1.667
42285W        W15353   7.725  12.793  10.204
42286W        W15354   6.874  37.536   0.115
42287W        W15355  29.216  10.168   1.859
42288W        W15356  24.630  20.775   4.152
42289W        W15357  22.044  40.328  10.742
42290W        W15358  35.988  34.568   2.414
42291W        W15359   8.223   2.292  13.424
42292W        W15360  15.922  22.195  13.054
42293W        W15361  23.572  38.047  10.106
42294W        W15362   3.954  23.750  11.980
42295W        W15363  19.890  44.222  10.722
42296W        W15364  38.502  13.589  13.803
42297W        W15365  27.230  32.609  12.413
42298W        W15366  19.643   9.306   1.840
42299W        W15367  26.055  10.160   1.964
42300W        W15368  34.443  39.809   3.633
42301W        W15369   8.302  21.512   3.631
42302W        W15370  39.323  37.353  14.054
42303W        W15371  32.959  32.388  11.601
42304W        W15372  24.664  19.936  11.121
42305W        W15373  26.105  12.830   3.827
42306W        W15374  15.708  29.524  13.012
42307W        W15375  34.163  27.660   3.549
42308W        W15376   3.230  32.497   0.301
42309W        W15377  35.861  39.351   3.450
42310W        W15378  36.276   9.188  13.842
42311W        W15379  23.497  24.590  11.369
42312W        W15380  11.086  17.675  12.557
42313W        W15381  17.098  36.364   1.352
42314W        W15382   4.169  25.165   1.775
42315W        W15383  28.907  35.535   1.339
42316W        W15384  35.387  15.266   3.736
42317W        W15385  31.388  30.895   4.708
42318W        W15386   2.664   5.536   3.623
42319W        W15387   2.428  39.890  11.394
42320W        W15388  23.024  44.353  13.437
42321W        W15389   5.145  17.711   2.852
42322W        W15390  23.833   5.438   0.490
42323W        W15391  36.425  40.854   0.279
42324W        W15392   0.027  17.519  14.581
42325W        W15393  34.948  33.611   0.436
42326W        W15394  43.980  23.211  10.618
42327W        W15395  41.594  29.599   1.294
42328W        W15396  41.258  37.792  12.532
42329W        W15397  30.840  38.151  11.836
42330W        W15398  27.202  26.468   3.592
42331W        W15399   1.424  14.544   0.928
42332W        W15400  33.652   8.673  11.934
42333W        W15401  26.049  33.063  11.957
42334W        W15402   8.672  34.397   1.654
42335W        W15403  37.433  12.936   1.820
42336W        W15404  30.493   7.634   3.205
42337W        W15405  25.949  21.201  13.901
42338W        W15406  14.672  41.501  13.274
42339W        W15407  24.032  19.139  14.970
42340W        W15408  38.850  36.565   1.768
42341W        W15409  18.100  16.825   2.288
42342W        W15410  30.012  39.048   2.754
42343W        W15411  28.417  31.885   2.391
42344W        W15412   8.171  12.257   4.565
42345W        W15413   5.907  20.215  12.404
42346W        W15414   6.283  23.827   5.057
42347W        W15415  31.542  22.337  11.740
42348W        W15416  32.186   3.771  13.189
42349W        W15417  39.400  26.746   2.158
42350W        W15418  42.418  22.586   4.633
42351W        W15419  31.242  25.977   1.560
42352W        W15420  22.984  41.447   4.551
42353W        W15421  34.443  25.096   0.047
42354W        W15422  11.883  29.222   0.516
42355W        W15423  19.310  44.701  13.939
42356W        W15424  29.134  15.771  14.099
42357W        W15425  32.917  20.009   1.679
42358W        W15426  12.969   1.684  11.614
42359W        W15427  15.109  39.284   2.595
42360W        W15428  24.463  16.556  13.492
42361W        W15429  17.656  28.970  13.909
42362W        W15430  16.819  12.512   5.203
42363W        W15431  15.169  10.137  10.940
42364W        W15432  29.110  41.977  14.513
42365W        W15433  28.694  10.477  13.828
42366W        W15434  22.502   7.115   1.224
42367W        W15435  41.558  10.334   3.686
42368W        W15436   8.844   2.379  12.613
42369W        W15437  30.487  29.723  12.110
42370W        W15438  18.297   2.693  14.856
42371W        W15439  29.215   2.574  13.992
42372W        W15440  13.295  10.277   2.257
42373W        W15441   7.018  42.384  14.178
42374W        W15442   3.796  32.801   2.292
42375W        W15443  13.703  13.685   4.242
42376W        W15444   2.327  40.139  12.413
42377W        W15445  14.484  34.427  12.496
42378W        W15446  44.505  19.157   0.312
42379W        W15447  22.676  22.744  12.939
42380W        W15448  19.488  37.022   4.679
42381W        W15449   5.762  40.344   0.847
42382W        W15450  41.483   8.865  11.098
42383W        W15451   9.216   0.622   3.270
42384W        W15452  35.015  26.518   3.298
42385W        W15453  42.873  30.172   3.246
42386W        W15454  28.873  42.451   3.803
42387W        W15455   8.665  12.188   4.605
42388W        W15456  11.963   8.428  14.757
42389W        W15457  26.940  44.511  11.568
42390W        W15458   0.229   7.763   2.648
42391W        W15459   9.801  17.138  13.257
42392W        W15460  23.727  39.671   4.834
42393W        W15461  13.614   1.713   4.202
42394W        W15462  26.271   7.685  14.764
42395W        W15463  16.318  38.079   4.062
42396W        W15464  31.542  38.372  13.987
42397W        W15465  34.501  32.692  11.518
42398W        W15466  25.115  25.947   1.455
42399W        W15467  34.570  30.942   0.676
42400W        W15468  18.576  24.769  12.677
42401W        W15469   1.019  44.265  10.132
42402W        W15470  41.559   9.120  11.568
42403W        W15471  34.966   5.674   1.330
42404W        W15472   6.140  22.773   2.380
42405W        W15473  14.856  37.015  13.006
42406W        W15474  27.571  36.849  13.564
42407W        W15475  37.050  31.159   1.290
42408W        W15476  19.046  17.111  11.161
42409W        W15477  28.936  26.490   2.400
42410W        W15478  40.622  21.171   4.565
42411W        W15479  34.175  13.646  12.803
42412W        W15480  38.225  15.154   4.592
42413W        W15481  30.080  32.366  10.785
42414W        W15482  29.956  38.792  12.398
42415W        W15483  35.628  31.441  11.933
42416W        W15484   5.281  40.223   1.738
42417W        W15485  32.143  19.080   4.069
42418W        W15486  26.105   9.958  13.594
42419W        W15487  29.190  35.414   2.732
42420W        W15488   1.443  12.725   0.726
42421W        W15489  10.713  26.486   0.963
42422W        W15490  20.458  20.651   2.270
42423W        W15491  44.311  13.696   4.747
42424W        W15492   1.411  27.684  14.406
42425W        W15493  11.126  40.563   2.643
42426W        W15494  38.744  33.507  13.860
42427W        W15495  17.342  41.035  14.028
42428W        W15496  35.774   9.369   5.190
42429W        W15497  16.973  12.032  11.607
42430W        W15498  11.847   1.273  11.088
42431W        W15499  17.110  41.384  12.002
42432W        W15500   1.330  34.505   1.981
42433W        W15501  32.637   5.650   2.895
42434W        W15502  19.202  27.881  14.907
42435W        W15503  27.116  42.973  12.950
42436W        W15504  39.789  14.998  13.735
42437W        W15505  17.025  27.207   3.158
42438W        W15506   1.268  11.737   1.176
42439W        W15507   4.255  33.417  10.288
42440W        W15508  30.402  13.222   2.788
42441W        W15509  13.193  39.483  13.049
42442W        W15510  10.396  43.470  13.483
42443W        W15511  41.844   9.124   1.634
42444W        W15512  32.930  35.159   0.267
42445W        W15513  27.677  43.717   2.444
42446W        W15514  23.086   3.599   0.266
42447W        W15515  37.755   3.703   0.263
42448W        W15516  32.126  13.109  14.742
42449W        W15517  29.109  26.702  12.935
42450W        W15518   3.314  15.106  11.545
42451W        W15519  34.845   0.039   3.197
42452W        W15520  13.713  15.410  10.586
42453W        W15521   2.870  24.807   3.772
42454W        W15522  24.068  31.072   2.540
42455W        W15523  42.408  16.786   0.631
42456W        W15524  31.316  28.550   3.263
42457W        W15525  14.766  44.875  12.514
42458W        W15526   2.310   1.742   5.177
42459W        W15527  34.671  40.702  14.604
42460W        W15528   6.592   1.790  12.094
42461W        W15529  35.999   4.070  12.393
42462W        W15530   6.900  19.146  14.001
42463W        W15531  11.682   3.519   5.072
42464W        W15532  31.305  14.169   0.708
42465W        W15533  40.013   4.721   1.909
42466W        W15534   6.207  21.818  11.188
42467W        W15535  31.647  11.248   0.758
42468W        W15536  14.597  10.318   4.223
42469W        W15537  35.638   2.903   3.634
42470W        W15538  34.496  33.806   0.245
42471W        W15539  14.200  36.936   0.484
42472W        W15540  25.398  36.489   4.224
42473W        W15541  23.570   2.262  14.200
42474W        W15542  14.051  40.946  14.325
42475W        W15543   5.197  36.149   3.885
42476W        W15544  41.369  41.424   2.005
42477W        W15545   3.235  30.790   0.756
42478W        W15546  30.664   7.487   4.548
42479W        W15547  12.178  25.091   3.830
42480W        W15548  11.152  31.610   2.229
42481W        W15549  44.722  14.972  11.607
42482W        W15550  15.124  14.601  13.603
42483W        W15551   2.996  41.041   0.298
42484W        W15552  19.309  24.481   4.111
42485W        W15553  20.002   7.944  12.430
42486W        W15554   5.322  13.852   1.372
42487W        W15555  26.666  44.096  14.812
42488W        W15556   3.667  24.471  11.124
42489W        W15557  33.354   5.239  11.198
42490W        W15558  37.419  24.696  12.461
42491W        W15559  11.307  39.171   2.737
42492W        W15560  19.307   0.211  14.580
42493W        W15561   2.987  15.288  12.134
42494W        W15562  26.806  23.656  13.163
42495W        W15563  42.542  37.845  12.476
42496W        W15564   5.704  29.086   4.723
42497W        W15565   1.002  28.772  10.983
42498W        W15566   3.702   1.446   1.470
42499W        W15567  21.716  15.712  13.811
42500W        W15568  39.755   6.248  11.248
42501W        W15569  44.825  11.325   2.753
42502W        W15570  23.969  39.967  14.350
42503W        W15571  24.447  20.549  14.450
42504W        W15572  18.321   0.743  10.808
42505W        W15573   5.148  38.425   1.863
42506W        W15574  23.136  13.388  14.022
42507W        W15575   1.634  33.860   1.466
42508W        W15576  15.440  20.353   0.871
42509W        W15577  43.059  27.042   4.068
42510W        W15578   2.572  32.087   1.792
42511W        W15579  12.304  11.646   3.790
42512W        W15580  16.408  31.627  13.605
42513W        W15581  14.255  41.489   2.977
42514W        W15582  23.697  10.909  12.495
42515W        W15583  21.691  15.161  10.450
42516W        W15584  39.237  34.021  11.981
42517W        W15585  27.601  11.115  10.313
42518W        W15586  25.027  20.549   0.724
42519W        W15587  14.627   1.061   4.300
42520W        W15588   9.803  41.483   0.973
42521W        W15589  11.228  44.513   2.744
42522W        W15590  14.850  10.878  11.304
42523W        W15591  29.396  15.559  14.932
42524W        W15592  15.540  23.844  12.127
42525W        W15593  41.651  13.406   4.979
42526W        W15594   1.389  40.999  13.086
42527W        W15595  27.571   9.344   0.956
42528W        W15596   0.156  33.337   4.715
42529W        W15597  23.575   4.787   3.853
42530W        W15598  35.314  15.712  12.916
42531W        W15599  25.180   7.445   0.864
42532W        W15600   5.325  22.890   2.745
42533W        W15601  34.520  26.998   4.043
42534W        W15602   4.716  43.084  14.334
42535W        W15603  34.420  18.137   1.895
42536W        W15604  39.439  25.773  11.487
42537W        W15605  11.639   4.821   4.457
42538W        W15606  26.474  35.119   4.015
42539W        W15607   3.676  40.507   4.140
42540W        W15608  18.405  33.028   3.100
42541W        W15609  11.155  28.383  13.351
42542W        W15610  11.622  25.802  14.086
42543W        W15611   7.744  15.665   4.943
42544W        W15612  36.343   4.028  13.514
42545W        W15613   2.276  25.051   4.995
42546W        W15614  10.238  11.124   0.104
42547W        W15615  17.100  32.022   1.378
42548W        W15616  13.167   1.426   0.706
42549W        W15617   3.910  11.232  11.462
42550W        W15618  36.380  27.706   1.656
42551W        W15619  12.577  13.425   2.820
42552W        W15620  17.210  37.981   3.602
42553W        W15621  12.650  32.442   4.574
42554W        W15622   2.398  12.870   0.478
42555W        W15623  15.236  26.557   4.101
42556W        W15624  19.967  42.742  12.584
42557W        W15625  31.360   0.923   1.244
42558W        W15626  11.906  37.469  10.704
42559W        W15627  44.055   5.010  12.291
42560W        W15628  18.712  30.652   2.365
42561W        W15629   0.704  15.835   9.920
42562W        W15630  42.324  35.386   1.719
42563W        W15631   4.490   0.536  12.921
42564W        W15632  27.403  43.295  10.743
42565W        W15633  11.814  42.512   4.718
42566W        W15634  34.064  27.732   2.627
42567W        W15635  29.482  26.943   0.330
42568W        W15636   0.945  26.472  14.512
42569W        W15637  42.310  12.496  14.242
42570W        W15638   6.339   4.567   0.001
42571W        W15639  19.594  35.225   0.838
42572W        W15640  26.056  22.095  13.746
42573W        W15641   6.816  39.821   4.848
42574W        W15642  42.265   2.278   3.286
42575W        W15643  42.327  35.283  12.813
42576W        W15644  38.714  44.902   1.718
42577W        W15645  29.454  42.547  14.351
42578W        W15646  11.771  25.145  13.125
42579W        W15647  21.441  19.255   1.344
42580W        W15648   8.340  29.006  14.334
42581W        W15649   1.895   2.890   2.777
42582W        W15650  28.602   2.674   4.627
42583W        W15651  30.167  28.881   2.713
42584W        W15652  33.286  38.914   2.968
42585W        W15653  11.859  26.643  11.636
42586W        W15654   0.476  32.047   2.363
42587W        W15655   7.624   8.932  12.991
42588W        W15656   0.337  15.708   0.659
42589W        W15657  25.448   8.854   0.331
42590W        W15658  36.533  35.857  13.318
42591W        W15659  16.533   5.139  12.824
42592W        W15660   5.011  20.157  13.613
42593W        W15661  15.329  31.468  14.985
42594W        W15662  33.399  23.661  12.432
42595W        W15663  28.281  36.097   0.901
42596W        W15664  40.583   8.554   5.042
42597W        W15665  18.375  15.997  11.659
42598W        W15666  17.143  16.163   0.876
42599W        W15667  38.662  22.930   4.001
42600W        W15668  25.511  33.389  11.133
42601W        W15669  17.878  35.363  14.446
42602W        W15670  16.688  13.638   0.858
42603W        W15671  34.058  35.519  10.463
42604W        W15672  31.055  16.901  10.998
42605W        W15673   0.336  33.073   1.366
42606W        W15674  35.607  18.682   0.949
42607W        W15675  41.780  38.272  11.891
42608W        W15676   2.740  24.944   2.367
42609W        W15677  29.624  29.968   0.385
42610W        W15678  41.929  31.153   1.630
42611W        W15679  36.945  18.840  11.671
42612W        W15680  43.794  14.144   1.308
42613W        W15681  40.797   4.210   3.048
42614W        W15682  24.948   2.759   1.961
42615W        W15683   4.444  35.143   4.093
42616W        W15684  39.319  43.487   4.258
42617W        W15685  34.345  44.462   4.284
42618W        W15686  12.839  18.978   1.372
42619W        W15687  24.490  29.383   2.783
42620W        W15688  12.043   4.771  13.461
42621W        W15689  21.581  35.433  12.892
42622W        W15690  29.640  43.297  12.516
42623W        W15691  28.162  30.148   0.530
42624W        W15692   1.665  18.808   4.094
42625W        W15693  27.950  39.680   0.352
42626W        W15694  37.479  30.614  13.310
42627W        W15695   8.259  35.388   2.871
42628W        W15696  34.504  27.047   4.572
42629W        W15697   6.801   6.456   1.607
42630W        W15698  34.784  13.228   4.512
42631W        W15699  29.478  41.376   2.449
42632W        W15700   9.124  10.643   4.147
42633W        W15701   1.497  19.112  11.548
42634W        W15702  15.013  16.125   1.030
42635W        W15703   6.411  14.979  13.389
42636W        W15704  36.628  39.270  13.509
42637W        W15705  43.109  10.874  13.169
42638W        W15706   6.907   5.003   1.212
42639W        W15707  15.627  10.839   0.264
42640W        W15708  43.052  27.381   2.840
42641W        W15709  43.917  33.108   3.657
42642W        W15710  24.667  29.188  12.572
42643W        W15711  17.832  43.881   3.156
42644W        W15712  22.241   4.641  11.152
42645W        W15713  22.477   2.310   4.493
42646W        W15714  40.089  37.009  12.815
42647W        W15715  25.457   6.890  10.911
42648W        W15716  16.795  20.548   2.645
42649W        W15717  35.579  17.762  12.885
42650W        W15718  27.592  16.313  12.013
42651W        W15719  13.268   5.456   1.192
42652W        W15720  25.780  18.893  13.960
42653W        W15721   2.288   5.556  11.909
42654W        W15722  42.490   6.690  13.123
42655W        W15723  26.029  31.794  12.191
42656W        W15724   2.564  37.311   2.499
42657W        W15725  40.679  21.916  11.214
42658W        W15726  24.142   0.077   0.516
42659W        W15727   6.624  17.203   1.927
42660W        W15728  25.779  43.416   0.291
42661W        W15729  12.061  15.067   1.890
42662W        W15730   1.941   1.326   4.673
42663W        W15731   8.976   0.761   0.895
42664W        W15732  11.687   8.194  13.803
42665W        W15733   6.690  13.326   2.924
42666W        W15734  34.573  15.824  13.491
42667W        W15735  20.455  43.440  10.752
42668W        W15736   9.786  26.446  14.947
42669W        W15737  20.144  32.519  13.033
42670W        W15738  22.719  12.815  10.774
42671W        W15739   2.564   4.026   0.930
42672W        W15740  10.426   6.725  10.603
42673W        W15741  36.409  26.050  11.719
42674W        W15742  42.194  37.454  12.437
42675W        W15743   1.700  23.650  13.824
42676W        W15744  36.964  31.517   2.273
42677W        W15745  35.658   0.754  10.588
42678W        W15746  24.649  11.282  14.516
42679W        W15747  20.758   4.764   1.449
42680W        W15748  31.903  22.214  10.558
42681W        W15749  34.955  37.878   0.118
42682W        W15750  33.973  14.170  12.846
42683W        W15751   0.797  40.472   0.103
42684W        W15752   5.423  17.270  12.894
42685W        W15753  27.596  33.915   0.720
42686W        W15754  21.673  42.334   0.427
42687W        W15755   7.042  13.530  14.976
42688W        W15756  42.199   7.251  12.423
42689W        W15757  18.409  40.912   3.756
42690W        W15758  19.527  44.301   3.398
42691W        W15759  15.461  35.020  13.433
42692W        W15760  32.664   9.332  13.319
42693W        W15761   8.424  22.552   3.840
42694W        W15762  18.045   5.299  11.932
42695W        W15763  44.429  30.175   1.377
42696W        W15764  40.751  30.492   1.740
42697W        W15765  26.974  36.575  11.564
42698W        W15766  11.109  10.770  12.307
42699W        W15767  38.490  26.130   4.014
42700W        W15768  30.923  11.361  10.740
42701W        W15769  22.036  29.948  13.340
42702W        W15770  20.058  25.101   2.548
42703W        W15771  38.613   9.853  11.163
42704W        W15772  30.079  44.748  11.318
42705W        W15773   9.102  19.343   0.195
42706W        W15774  13.045  25.629  11.589
42707W        W15775  15.282  24.686   4.664
42708W        W15776  42.933   0.074   4.620
42709W        W15777   4.909   1.270   0.612
42710W        W15778   0.839  40.562   1.514
42711W        W15779  27.097  29.938   2.455
42712W        W15780  36.447  35.608   2.972
42713W        W15781   2.468  25.612  10.654
42714W        W15782   3.445  18.967  11.590
42715W        W15783   0.895   3.572  12.082
42716W        W15784  20.805  20.497   1.481
42717W        W15785  14.765  31.922  10.249
42718W        W15786   5.682   1.756   3.698
42719W        W15787   4.522   0.347   2.214
42720W        W15788  35.469  34.451   3.270
42721W        W15789  28.003  11.875  12.093
42722W        W15790  39.460  15.806   3.015
42723W        W15791  31.207   8.810  14.832
42724W        W15792   1.994  36.876   4.374
42725W        W15793  19.030  42.817  14.596
42726W        W15794  43.891  24.930   1.930
42727W        W15795  21.554  26.585   4.522
42728W        W15796   2.244  40.538   3.826
42729W        W15797  32.146  12.842   4.111
42730W        W15798  38.135  32.778  14.217
42731W        W15799   6.462  18.325   4.108
42732W        W15800  33.966  15.493   4.892
42733W        W15801  26.197  15.511  14.522
42734W        W15802  40.549  44.901  11.176
42735W        W15803  37.666  32.421   1.406
42736W        W15804  29.414  39.483   0.247
42737W        W15805   1.046  19.253   2.656
42738W        W15806  33.909  33.662   1.837
42739W        W15807  12.114  27.131  10.697
42740W        W15808  27.191  10.121   4.091
42741W        W15809  26.312   8.597  11.312
42742W        W15810  29.586  28.932  14.042
42743W        W15811  44.878  27.626  14.461
42744W        W15812  43.773  29.546   3.841
42745W        W15813  23.073   9.447  11.222
42746W        W15814  34.901  20.627   3.633
42747W        W15815  33.463  38.288  11.997
42748W        W15816  43.784  19.266   3.713
42749W        W15817  31.894  29.543  10.588
42750W        W15818  36.503  38.902   1.262
42751W        W15819  34.937   1.413   1.312
42752W        W15820  20.929  15.958   1.430
42753W        W15821   9.362  22.811  11.046
42754W        W15822   2.151  29.593  10.454
42755W        W15823  28.019  26.003  13.649
42756W        W15824  15.306  29.949   4.147
42757W        W15825  13.850  40.952   4.726
42758W        W15826   4.019  30.919  10.926
42759W        W15827  23.758  16.262  13.964
42760W        W15828  12.770  28.227  13.018
42761W        W15829  42.267   1.270   1.540
42762W        W15830  22.316  37.856   4.391
42763W        W15831  12.574  43.250   0.825
42764W        W15832  14.651  19.883   1.209
42765W        W15833  30.454   8.253  11.786
42766W        W15834   7.247  44.233  13.882
42767W        W15835  25.577  39.721   3.484
42768W        W15836  39.787   2.172  12.660
42769W        W15837  30.533  43.284   4.883
42770W        W15838  29.764  39.529   1.223
42771W        W15839  35.920  14.232  13.809
42772W        W15840   9.649  30.607   1.697
42773W        W15841  18.094   1.974   1.318
42774W        W15842  35.825  31.943  11.939
42775W        W15843   0.408  31.629   1.066
42776W        W15844  32.053   2.719   3.128
42777W        W15845   4.956   1.799  14.613
42778W        W15846   9.092  21.949   3.161
42779W        W15847  41.777  25.584   4.622
42780W        W15848   9.958  28.952   4.848
42781W        W15849  24.476   8.375  12.562
42782W        W15850  37.348  10.265   4.241
42783W        W15851   1.974  44.354  12.943
42784W        W15852  12.367   7.298   0.463
42785W        W15853  24.411   1.238   2.632
42786W        W15854  24.057  30.064  12.456
42787W        W15855   7.084  32.110  10.799
42788W        W15856  20.125   8.250   4.663
42789W        W15857  19.513  44.374   4.915
42790W        W15858   4.380  17.603  13.003
42791W        W15859  28.803  23.534  14.028
42792W        W15860   9.352  21.960  13.013
42793W        W15861   0.716  12.858  14.549
42794W        W15862  35.069  15.630   4.977
42795W        W15863   9.807  13.066  12.457
42796W        W15864  20.457  32.087  12.113
42797W        W15865  12.582  41.428   4.545
42798W        W15866  29.866   6.896  13.846
42799W        W15867   9.763  28.566  13.971
42800W        W15868   2.918  14.730   0.912
42801W        W15869  40.280   3.718   1.270
42802W        W15870  19.268  20.594  13.340
42803W        W15871  15.745  35.475   3.662
42804W        W15872  12.693  26.082   0.453
42805W        W15873  14.925  25.461  13.316
42806W        W15874  24.039   1.779  13.796
42807W        W15875  39.423  14.716   0.077
42808W        W15876  14.834   6.132  12.849
42809W        W15877  26.806   9.098  14.305
42810W        W15878  33.923   4.425  14.242
42811W        W15879  14.549  28.972  14.447
42812W        W15880  27.054  44.712   4.238
42813W        W15881  26.254  13.358   1.203
42814W        W15882   5.633  20.964  14.329
42815W        W15883   6.316  17.231   0.119
42816W        W15884  37.520   9.462   0.389
42817W        W15885   1.955  13.615  12.673
42818W        W15886   4.950  19.024   2.782
42819W        W15887  44.940  11.851   2.716
42820W        W15888  11.519  32.364   4.828
42821W        W15889   3.251  43.345  12.898
42822W        W15890  30.044  27.852  12.902
42823W        W15891  14.858  18.753  13.441
42824W        W15892  29.488  30.344   4.531
42825W        W15893   2.841  12.916  13.579
42826W        W15894   8.829  12.296   4.121
42827W        W15895  38.888   2.932  12.477
42828W        W15896   6.234  38.012  12.914
42829W        W15897  22.207  29.291   1.803
42830W        W15898   6.894  16.611  11.719
42831W        W15899   3.996  38.857  13.867
42832W        W15900  11.341  32.401   2.705
42833W        W15901  37.045  40.000   0.331
42834W        W15902   4.225  32.439   9.951
42835W        W15903  10.013  43.987  10.307
42836W        W15904  36.479   5.678   4.304
42837W        W15905  14.665   2.361   0.812
42838W        W15906  39.493  23.492  12.040
42839W        W15907  33.899   7.602  12.939
42840W        W15908  43.493   4.446   3.252
42841W        W15909  25.641  13.735   2.478
42842W        W15910  36.047  24.526  12.614
42843W        W15911  25.670   3.752  10.632
42844W        W15912  39.064  28.132   0.462
42845W        W15913  37.321   0.519   1.831
42846W        W15914  14.373  16.359   4.503
42847W        W15915   7.962  42.821   5.057
42848W        W15916  10.728  32.476  14.940
42849W        W15917  16.826  40.307   1.369
42850W        W15918   0.526  14.346  10.787
42851W        W15919  32.875  35.605  13.117
42852W        W15920  41.307  17.463   9.947
42853W        W15921   0.954  27.631  12.529
42854W        W15922  26.598  24.537   2.906
42855W        W15923  31.093  43.488  11.551
42856W        W15924  11.166  14.582   0.872
42857W        W15925  12.264   6.761   4.734
42858W        W15926  38.968   0.293  14.163
42859W        W15927  14.138  25.955   4.230
42860W        W15928  24.005  20.009   4.207
42861W        W15929  37.323  14.402   0.267
42862W        W15930  21.535  20.732  13.436
42863W        W15931  22.702  38.923   4.630
42864W        W15932   3.483  10.159   1.813
42865W        W15933  20.328   7.314  14.988
42866W        W15934   4.954  36.824  14.925
42867W        W15935   8.809  14.382   2.587
42868W        W15936   9.867  22.929   4.389
42869W        W15937  24.837  11.659  14.956
42870W        W15938  42.558  14.283   3.721
42871W        W15939  41.815  14.340  11.994
42872W        W15940  42.526   7.401   3.840
42873W        W15941  34.970  10.882   4.157
42874W        W15942  36.472  39.377  10.667
42875W        W15943  33.019  40.977  10.672
42876W        W15944  31.590  38.044   2.410
42877W        W15945  25.327  24.043   2.860
42878W        W15946  12.843   9.638  11.861
42879W        W15947  38.628   5.908  14.125
42880W        W15948  44.791   2.312   2.156
42881W        W15949  35.134  44.947   4.345
42882W        W15950  37.091  38.737   0.680
42883W        W15951  10.803   5.087   2.821
42884W        W15952  42.849  32.467  12.172
42885W        W15953  34.424  32.837  13.864
42886W        W15954  35.537  44.003   2.266
42887W        W15955  34.432   6.824  14.316
42888W        W15956  30.158   8.297  12.812
42889W        W15957  35.025  25.705   4.258
42890W        W15958  18.972  17.651   3.710
42891W        W15959  41.073  20.727  13.909
42892W        W15960  18.280  29.177   1.923
42893W        W15961   7.149  26.134   2.787
42894W        W15962  22.954  26.899  11.573
42895W        W15963  42.428  36.423   2.898
42896W        W15964  33.041   2.888   0.684
42897W        W15965   8.560  29.435   1.093
42898W        W15966  39.070  38.914   4.589
42899W        W15967  31.947   5.732  12.971
42900W        W15968   8.904  11.209   2.715
42901W        W15969  12.759  29.428   1.970
42902W        W15970   9.148  36.383  14.362
42903W        W15971  14.248   5.805   2.886
42904W        W15972  40.384  17.708   1.674
42905W        W15973  13.729   3.203  11.422
42906W        W15974  20.590  10.550  11.139
42907W        W15975   5.458   5.703   0.440
42908W        W15976  39.471  34.644  10.531
42909W        W15977  12.207  36.732  12.054
42910W        W15978  30.019  23.625   0.401
42911W        W15979  42.214  42.358   2.748
42912W        W15980  28.212  40.145  13.904
42913W        W15981   3.391  36.129   0.938
42914W        W15982  29.216  13.236  13.848
42915W        W15983  14.688  13.704   2.357
42916W        W15984  27.741  32.890  13.111
42917W        W15985   4.812  30.411  12.907
42918W        W15986  32.445  41.770   2.865
42919W        W15987  35.842   1.749   4.741
42920W        W15988  14.728  43.052  12.118
42921W        W15989  44.543  36.040  12.497
42922W        W15990  15.350  10.830   2.317
42923W        W15991   7.383   7.210   2.572
42924W        W15992  44.031  19.054   1.234
42925W        W15993  18.710  28.727  13.153
42926W        W15994  42.601  13.565   4.147
42927W        W15995  41.319  37.424  12.904
42928W        W15996  38.574  14.516   4.109
42929W        W15997  33.850  38.346   4.594
42930W        W15998  20.300   2.378   4.936
42931W        W15999  44.502  12.623   3.130
42932W        W16000  18.487  38.977  14.633
42933W        W16001  39.554  36.624   2.809
42934W        W16002  39.925  28.181   1.868
42935W        W16003  13.038  16.847   2.377
42936W        W16004  23.935   2.184  13.439
42937W        W16005   7.442  11.235  13.867
42938W        W16006  31.488  24.665  11.543
42939W        W16007   6.602  18.878  14.506
42940W        W16008   2.999   7.357  12.548
42941W        W16009  41.396   9.819  12.029
42942W        W16010  14.895   9.216   2.232
42943W        W16011  20.195  11.664   3.636
42944W        W16012  34.538  43.952   2.377
42945W        W16013  34.224  25.584   1.869
42946W        W16014  27.124  37.280   0.897
42947W        W16015   7.879  16.971   4.071
42948W        W16016  38.029  18.311   4.274
42949W        W16017  18.152  24.093  10.768
42950W        W16018  26.493  22.597   4.229
42951W        W16019  14.840  18.732   4.932
42952W        W16020  11.601  32.483   0.047
42953W        W16021  13.243  35.452   1.939
42954W        W16022   4.406  19.862   3.133
42955W        W16023  21.673   8.588  14.395
42956W        W16024  36.155  41.564  13.932
42957W        W16025  16.574   6.415  10.630
42958W        W16026  17.578  18.638  10.691
42959W        W16027  43.416   7.086   0.289
42960W        W16028   2.218  11.189  14.917
42961W        W16029  17.202  32.577   1.192
42962W        W16030  15.639  37.083   2.689
42963W        W16031  19.112  20.704   1.371
42964W        W16032   0.063  30.563  11.134
42965W        W16033  16.330   6.147  12.099
42966W        W16034  25.936  13.347   2.282
42967W        W16035  37.936  34.347   2.186
42968W        W16036   1.912  33.817  13.972
42969W        W16037  37.400  42.838  14.392
42970W        W16038   9.617  43.657  14.678
42971W        W16039  17.476  41.558  11.184
42972W        W16040   4.971  27.905  14.496
42973W        W16041  36.103  23.798  10.656
42974W        W16042  14.475  25.553   0.295
42975W        W16043  37.509  36.861  12.511
42976W        W16044   5.479  42.335  13.424
42977W        W16045   6.671  43.067  13.819
42978W        W16046  35.045  33.754   4.586
42979W        W16047  42.300  43.467   4.177
42980W        W16048  37.551  36.018  10.534
42981W        W16049  25.834  27.149  13.865
42982W        W16050  35.018  10.857  10.325
42983W        W16051  10.724  33.104   3.688
42984W        W16052  11.752  38.791   1.764
42985W        W16053  32.525  32.041   1.492
42986W        W16054  17.694  15.142  14.713
42987W        W16055  39.423  31.061  11.149
42988W        W16056   3.952  34.288   1.250
42989W        W16057  38.434  17.502   1.212
42990W        W16058  26.560  31.376   0.498
42991W        W16059   0.501  10.209   9.860
42992W        W16060   1.363  20.462   1.523
42993W        W16061  10.358  17.474   2.847
42994W        W16062  25.579  16.140   4.969
42995W        W16063  30.554   8.245  12.346
42996W        W16064  15.830  38.928   4.161
42997W        W16065  34.112   8.222   0.784
42998W        W16066   9.286   3.157  12.973
42999W        W16067   3.923  27.603   3.374
43000W        W16068  28.113  15.886  12.562
43001W        W16069  18.659  39.327  14.306
43002W        W16070  14.277   2.900   0.250
43003W        W16071  43.955  19.746  14.381
43004W        W16072  16.306   5.948   3.642
43005W        W16073  14.211  13.535  11.963
43006W        W16074  29.428  24.262   0.579
43007W        W16075  32.271  19.552  12.433
43008W        W16076  25.673   1.640   1.718
43009W        W16077  19.201   9.747   0.209
43010W        W16078   7.670   5.919  14.850
43011W        W16079   5.762   6.687  13.006
43012W        W16080  22.938   6.990  11.704
43013W        W16081  43.679   0.002   0.814
43014W        W16082  30.677   9.748  11.024
43015W        W16083  43.954   2.996  14.770
43016W        W16084  32.271   1.944  14.757
43017W        W16085  43.970  16.613   3.433
43018W        W16086  19.639  20.588   2.040
43019W        W16087   3.882   0.601  10.961
43020W        W16088  40.929  31.925   1.478
43021W        W16089  28.099  38.773  12.852
43022W        W16090  26.819  37.101  14.869
43023W        W16091   8.825  30.005  13.731
43024W        W16092  35.997  19.469  13.136
43025W        W16093   0.158  35.816   3.301
43026W        W16094  35.663  10.633  14.120
43027W        W16095  28.930  20.441  14.318
43028W        W16096   4.181  25.108  14.257
43029W        W16097  36.097  43.207  12.719
43030W        W16098   7.198  37.439   2.135
43031W        W16099   4.923   9.947  12.493
43032W        W16100   6.178  36.052  11.905
43033W        W16101  43.334  16.350   0.754
43034W        W16102  31.654   1.715  11.680
43035W        W16103   7.528  32.425  11.213
43036W        W16104  21.958   5.660   0.335
43037W        W16105  35.010  26.880  13.319
43038W        W16106  26.479  13.123  11.554
43039W        W16107  13.569  14.300   3.116
43040W        W16108   5.737  16.019   0.023
43041W        W16109  38.708   0.355   2.812
43042W        W16110  21.576  32.836   0.442
43043W        W16111  32.369  30.891   2.682
43044W        W16112  26.036   8.837   1.924
43045W        W16113   7.242  28.064  14.549
43046W        W16114  17.106  31.023   3.633
43047W        W16115  38.538  39.754  12.945
43048W        W16116  28.810   3.341  13.781
43049W        W16117   3.438  21.457   4.590
43050W        W16118   3.116   2.681  10.493
43051W        W16119  35.497  40.241  10.548
43052W        W16120  15.326  24.315  12.197
43053W        W16121  10.634  18.061   0.709
43054W        W16122   5.496   4.278   3.938
43055W        W16123  42.738  17.128  14.953
43056W        W16124  22.620  25.489   4.800
43057W        W16125   8.924  28.663  11.150
43058W        W16126  21.532  15.663   0.226
43059W        W16127  43.913  26.446   0.705
43060W        W16128  39.090  13.098  10.806
43061W        W16129  28.113   3.809  14.283
43062W        W16130  15.565  39.361  14.508
43063W        W16131   1.257  22.564   0.392
43064W        W16132  10.829  23.607  13.250
43065W        W16133  37.513  27.616  11.049
43066W        W16134  32.466   0.450  12.774
43067W        W16135  18.347   3.339  13.312
43068W        W16136  37.479   4.290  12.744
43069W        W16137  39.199  26.828  10.015
43070W        W16138  19.283  39.915  14.928
43071W        W16139  19.230  22.569  12.230
43072W        W16140  34.100  38.558   0.964
43073W        W16141  23.182   2.507  11.080
43074W        W16142  36.497  25.482   0.534
43075W        W16143  36.859   6.823  14.353
43076W        W16144  10.069   5.694   1.370
43077W        W16145  10.735   4.859   0.388
43078W        W16146  39.321  10.087   4.076
43079W        W16147  23.627  40.814   4.195
43080W        W16148  27.491  37.559   1.649
43081W        W16149  34.398  21.029   1.900
43082W        W16150  36.985  42.814  13.081
43083W        W16151   7.821  42.385  10.424
43084W        W16152  15.689  28.897   2.379
43085W        W16153  36.521  28.349  14.358
43086W        W16154  33.112  28.302   4.501
43087W        W16155  27.951  15.807   3.791
43088W        W16156  24.574  42.198  12.900
43089W        W16157   8.306   7.729   2.690
43090W        W16158  21.564  21.150  10.841
43091W        W16159  16.346  15.067   4.211
43092W        W16160   8.142  21.555   0.893
43093W        W16161  11.824  34.358   0.296
43094W        W16162  21.239  14.006   3.119
43095W        W16163  16.144   1.598   0.776
43096W        W16164  44.515  20.270   1.753
43097W        W16165  18.587  16.981  10.403
43098W        W16166  30.752  25.139  14.494
43099W        W16167  39.243   6.611  13.460
43100W        W16168  20.094   4.644   2.793
43101W        W16169  21.661  22.039  12.310
43102W        W16170  12.672  10.547   0.536
43103W        W16171  23.936   7.454  12.475
43104W        W16172   7.756   1.853   3.069
43105W        W16173  39.000  33.362   0.232
43106W        W16174  40.880  38.668   4.733
43107W        W16175   5.440   3.721   4.506
43108W        W16176   8.794  36.008  12.116
43109W        W16177   1.299  29.746   0.296
43110W        W16178  28.427  29.900   2.578
43111W        W16179  18.191   6.672  11.870
43112W        W16180  14.371  41.880   2.142
43113W        W16181   3.998  17.962   4.777
43114W        W16182  27.602  18.780  11.596
43115W        W16183  43.915  17.262   1.357
43116W        W16184  12.638  44.236   3.258
43117W        W16185  37.870  29.894  13.541
43118W        W16186   7.312  38.440   4.057
43119W        W16187  33.850  11.226   0.257
43120W        W16188  32.236  34.999  12.856
43121W        W16189  32.526   9.636  12.908
43122W        W16190  32.913  15.717   4.988
43123W        W16191  12.835   1.342  11.026
43124W        W16192   3.277  28.974  11.597
43125W        W16193  22.801  34.388  12.440
43126W        W16194   3.884   5.752  14.510
43127W        W16195   1.943  33.979   1.883
43128W        W16196   6.669   8.201  14.432
43129W        W16197  39.939   7.466  10.212
43130W        W16198  38.567  22.361  11.520
43131W        W16199   4.988   2.425  12.116
43132W        W16200  22.979  40.272   1.729
43133W        W16201  13.038  28.707   4.572
43134W        W16202  28.588  10.698   2.890
43135W        W16203   6.719   1.523   1.338
43136W        W16204   2.888  13.079  14.086
43137W        W16205  12.300  27.212   1.765
43138W        W16206  25.550  17.260   3.751
43139W        W16207   0.411   0.303  14.483
43140W        W16208  10.874   5.726   3.666
43141W        W16209  13.814  42.311  13.034
43142W        W16210  38.325   6.884   1.633
43143W        W16211   0.948  17.211  11.120
43144W        W16212  26.422  22.676  14.940
43145W        W16213  15.280  35.697   3.890
43146W        W16214  22.928  27.627   3.614
43147W        W16215  35.884  21.039   4.356
43148W        W16216  11.881   8.366  13.360
43149W        W16217   5.887  32.367  13.425
43150W        W16218  26.293  43.999   3.428
43151W        W16219   7.031  20.080   3.572
43152W        W16220  40.300  28.004   4.200
43153W        W16221   4.952  10.121   4.531
43154W        W16222  35.322  22.514  12.412
43155W        W16223  32.609  35.518  12.420
43156W        W16224   9.327  11.837  13.249
43157W        W16225   7.745  10.316   2.927
43158W        W16226  16.061  44.460  13.169
43159W        W16227   2.069  15.594   4.773
43160W        W16228   9.207  36.814   1.866
43161W        W16229  11.760   9.760  13.955
43162W        W16230  35.877  42.975  14.528
43163W        W16231  18.827  31.333  13.433
43164W        W16232   2.540  28.926  13.998
43165W        W16233  30.709  12.570  11.980
43166W        W16234   3.456  40.566  13.238
43167W        W16235  38.177  20.536   2.267
43168W        W16236  31.914   7.261  11.907
43169W        W16237  13.888  13.747   0.973
43170W        W16238  29.721  21.222   0.639
43171W        W16239  35.463  18.810   3.076
43172W        W16240  39.279  26.142   3.371
43173W        W16241  27.448  21.150   4.186
43174W        W16242  21.799  21.550  11.049
43175W        W16243  25.141   7.120  12.140
43176W        W16244  19.697   5.646   2.894
43177W        W16245  39.986  36.140  11.121
43178W        W16246  14.305  37.341   0.941
43179W        W16247  24.479  27.092   2.672
43180W        W16248  26.015  22.687  11.645
43181W        W16249  19.208  20.057   0.900
43182W        W16250  44.414  29.244  12.128
43183W        W16251  17.367  10.319  14.117
43184W        W16252  13.076   2.428   2.706
43185W        W16253  29.728  19.396  13.053
43186W        W16254   8.646  31.549   1.500
43187W        W16255   9.350   9.732   4.808
43188W        W16256   4.924  27.537   0.335
43189W        W16257  44.201  28.526   2.709
43190W        W16258  37.440  38.443   1.255
43191W        W16259   9.990  15.229   3.832
43192W        W16260  22.693   1.016   1.724
43193W        W16261  43.756  31.355   3.160
43194W        W16262  41.750  32.152   3.579
43195W        W16263   4.606   3.884  14.638
43196W        W16264  44.929  22.223  13.821
43197W        W16265  29.294  20.075  12.372
43198W        W16266  31.038  43.260  13.517
43199W        W16267  41.238   1.307  11.579
43200W        W16268   6.777  16.979  14.962
43201W        W16269  44.024  43.778  12.419
43202W        W16270  32.063  25.956   2.706
43203W        W16271  31.839  23.440   2.212
43204W        W16272   0.581   1.057  11.952
43205W        W16273  35.467   8.812   3.594
43206W        W16274  30.646  32.785  13.518
43207W        W16275   2.434  38.924   1.067
43208W        W16276  18.668  40.924   1.736
43209W        W16277   3.394  30.090  11.981
43210W        W16278  35.827  27.557  13.804
43211W        W16279  24.510   2.469  12.247
43212W        W16280  20.816   6.285   1.690
43213W        W16281  37.100  39.393   4.205
43214W        W16282   1.731  25.527  11.215
43215W        W16283  25.662  12.754   3.582
43216W        W16284  42.395  15.159  11.968
43217W        W16285  24.532  35.454  10.675
43218W        W16286  41.827  10.019  13.490
43219W        W16287  16.786  40.374  14.002
43220W        W16288  20.631  11.202   4.273
43221W        W16289   7.422  21.002  12.969
43222W        W16290  23.078  24.764   0.855
43223W        W16291  11.639   4.308   1.680
43224W        W16292  41.784  44.491   2.927
43225W        W16293  42.187  25.159   1.887
43226W        W16294  34.515  21.696  11.008
43227W        W16295  34.774   8.429   4.066
43228W        W16296  25.633  32.204  13.056
43229W        W16297   3.862   4.407  13.584
43230W        W16298  40.580  40.027   3.835
43231W        W16299  43.133  41.487   1.559
43232W        W16300   4.935   1.863   4.151
43233W        W16301  36.859  35.095  14.296
43234W        W16302  30.660  21.337   2.725
43235W        W16303  42.705  39.506   2.678
43236W        W16304   1.405  23.671   2.256
43237W        W16305  23.700   9.728  14.692
43238W        W16306  35.989  20.481   1.236
43239W        W16307  39.311  10.706   2.286
43240W        W16308  37.157  17.568   0.230
43241W        W16309   0.203  39.965   0.877
43242W        W16310   6.468   3.917  14.931
43243W        W16311  39.438  22.527   2.683
43244W        W16312  18.806  41.646   4.111
43245W        W16313  37.337   7.859  12.456
43246W        W16314  14.270  22.052   2.336
43247W        W16315  35.044   1.244  14.343
43248W        W16316  35.375  13.178   3.904
43249W        W16317  44.301  36.367  12.177
43250W        W16318  40.560  18.593   1.332
43251W        W16319  35.134  38.808  14.938
43252W        W16320  39.695  17.903  11.146
43253W        W16321  40.953  17.507  12.891
43254W        W16322   9.257   8.150   4.564
43255W        W16323  41.073  17.733  11.943
43256W        W16324  12.227  31.372  13.015
43257W        W16325  28.093  42.478  10.537
43258W        W16326   6.725  26.828  14.046
43259W        W16327  31.301  14.172  12.896
43260W        W16328   2.669  14.795   2.610
43261W        W16329  25.342  41.723  13.995
43262W        W16330  16.091   7.565  13.906
43263W        W16331  33.558   6.260   0.076
43264W        W16332  27.361  25.090  11.403
43265W        W16333  10.195   9.856  14.919
43266W        W16334  39.450  13.232   3.241
43267W        W16335  21.074  43.887  13.925
43268W        W16336   5.727   8.303   2.149
43269W        W16337  24.434  18.413   2.774
43270W        W16338  11.184  39.041  14.355
43271W        W16339   6.301   9.805   0.065
43272W        W16340  35.955  26.736  10.199
43273W        W16341  38.035  39.518   2.953
43274W        W16342  44.771  28.541   0.233
43275W        W16343  16.870  29.983   0.980
43276W        W16344  26.953  21.199  13.850
43277W        W16345  44.698   2.819  13.810
43278W        W16346  23.799   2.878  14.418
43279W        W16347  42.784   1.254  12.553
43280W        W16348  20.848  31.588   1.300
43281W        W16349  26.259   6.277   0.189
43282W        W16350  28.644   7.216  12.476
43283W        W16351  18.508  21.265  12.413
43284W        W16352  21.836  21.925  14.842
43285W        W16353  40.370   2.377  11.921
43286W        W16354  36.092   5.914  14.858
43287W        W16355  12.565  29.041  12.424
43288W        W16356  24.937   5.336   3.740
43289W        W16357  21.591   8.309   2.657
43290W        W16358  36.495   3.439  13.509
43291W        W16359  12.137  24.513   2.084
43292W        W16360  13.271  35.017  13.344
43293W        W16361  36.553  44.011  13.095
43294W        W16362  18.389  18.780  12.806
43295W        W16363  36.680   5.865  11.870
43296W        W16364  39.477  11.332   4.461
43297W        W16365  30.639   4.777   2.080
43298W        W16366  35.140   9.363  12.466
43299W        W16367  31.417   8.757  13.225
43300W        W16368  31.171  19.203  13.113
43301W        W16369   0.980  42.612  13.899
43302W        W16370  28.223  21.259   2.876
43303W        W16371  36.415   7.612   1.836
43304W        W16372  18.199  34.179  12.530
43305W        W16373  31.427  40.927   4.559
43306W        W16374   7.376  15.365   1.751
43307W        W16375  30.254  13.075   2.026
43308W        W16376   5.859  17.262  12.603
43309W        W16377  39.534  27.242  13.151
43310W        W16378  10.150   9.496   4.340
43311W        W16379   3.973  20.842   1.372
43312W        W16380  14.577  41.725   0.525
43313W        W16381  27.089  15.328   1.300
43314W        W16382  29.904  15.308   3.083
43315W        W16383  31.875  40.889   3.590
43316W        W16384  40.951  41.711  13.856
43317W        W16385  41.620  16.775   5.039
43318W        W16386  28.946   5.243   0.021
43319W        W16387  19.515  42.462  13.340
43320W        W16388  43.385  15.293  11.339
43321W        W16389   1.369  37.403   3.992
43322W        W16390  21.612  12.683   1.624
43323W        W16391  29.723  26.646   3.767
43324W        W16392   0.014  26.646   3.314
43325W        W16393   4.370  37.209  13.460
43326W        W16394  25.944   0.371   2.554
43327W        W16395  25.165  29.359   4.147
43328W        W16396   1.899  12.073   2.321
43329W        W16397  30.101  38.281  12.380
43330W        W16398  25.702  24.811   2.176
43331W        W16399  42.963  32.511   1.440
43332W        W16400  32.828  26.671   0.392
43333W        W16401  17.868  32.132   3.255
43334W        W16402  42.102  35.568   4.548
43335W        W16403  16.827   8.734   4.154
43336W        W16404  24.269  41.421   4.066
43337W        W16405  26.963  30.607  11.600
43338W        W16406  31.401  31.096   2.806
43339W        W16407  16.624  33.236  11.229
43340W        W16408   4.796   2.403  10.822
43341W        W16409  19.323  37.590   3.983
43342W        W16410  41.807  11.197   0.840
43343W        W16411  24.730  44.888  11.849
43344W        W16412  12.058  10.895   2.325
43345W        W16413  14.343  21.220   3.387
43346W        W16414  41.016  29.202  14.856
43347W        W16415  34.018  42.455   3.931
43348W        W16416   5.622  15.308  10.764
43349W        W16417  13.676  43.438   2.257
43350W        W16418  44.742  14.347   4.572
43351W        W16419  31.459   2.757   0.939
43352W        W16420  21.290  25.952  11.073
43353W        W16421   3.501   1.692  13.078
43354W        W16422  31.085  27.152  12.891
43355W        W16423  10.429   9.874   2.914
43356W        W16424   1.915   1.368   2.205
43357W        W16425  13.256  32.102   0.162
43358W        W16426  16.684  28.578   4.162
43359W        W16427  10.748  41.751  10.310
43360W        W16428  38.372  16.255   2.301
43361W        W16429   7.930  33.980   1.758
43362W        W16430  21.843   7.585   2.306
43363W        W16431  19.772  12.193  13.013
43364W        W16432  25.496  26.973  11.571
43365W        W16433   8.334  19.226   1.969
43366W        W16434   8.327  14.155   4.737
43367W        W16435  27.878  27.699   1.371
43368W        W16436  23.445  37.075   1.269
43369W        W16437  13.004   4.128   1.365
43370W        W16438  42.911  36.928   4.103
43371W        W16439  19.788  13.157   1.959
43372W        W16440  38.278  44.425  10.381
43373W        W16441  34.459  20.380  10.641
43374W        W16442   4.871  28.418   0.203
43375W        W16443  16.486  42.887  14.736
43376W        W16444  31.705  19.732   1.040
43377W        W16445  17.315   6.131   0.802
43378W        W16446  17.846  17.807  13.741
43379W        W16447  43.279  11.716   1.480
43380W        W16448  15.121   0.459  13.442
43381W        W16449   2.760  32.262  12.543
43382W        W16450  16.224   7.945   1.831
43383W        W16451   6.605  22.571   1.559
43384W        W16452  29.423   2.002  12.037
43385W        W16453  32.016  32.532  13.955
43386W        W16454  22.617  23.158  14.920
43387W        W16455  36.969  23.918   4.538
43388W        W16456  24.463  26.275   2.597
43389W        W16457  18.759  26.190  12.070
43390W        W16458   6.574  35.913   0.369
43391W        W16459  29.663   5.772  13.744
43392W        W16460  27.956   6.402  10.974
43393W        W16461  33.842  37.082  13.108
43394W        W16462  24.039  44.479  13.112
43395W        W16463  21.047   1.404  14.474
43396W        W16464  35.431  30.462   0.960
43397W        W16465   3.986  11.285   3.709
43398W        W16466  34.384  36.064   4.297
43399W        W16467  17.178   5.902   1.254
43400W        W16468  29.080  33.801   0.027
43401W        W16469  13.780  37.748  14.825
43402W        W16470  22.950  20.743  11.578
43403W        W16471  41.848  43.975  13.292
43404W        W16472  41.587  33.124   4.237
43405W        W16473  20.127  15.798   2.271
43406W        W16474   4.432  30.744   1.272
43407W        W16475  18.284  12.874  11.001
43408W        W16476   3.418  40.004   0.796
43409W        W16477  33.488   2.877   4.360
43410W        W16478  10.992  10.677   4.577
43411W        W16479  37.811  29.890  11.938
43412W        W16480  20.631  15.866   2.410
43413W        W16481  26.954  42.295   1.471
43414W        W16482  43.952  26.683  11.536
43415W        W16483  42.549  15.060   2.745
43416W        W16484  34.027  28.555   4.151
43417W        W16485  30.198  17.446   2.356
43418W        W16486   0.019  43.842   2.324
43419W        W16487   3.851  42.788   2.705
43420W        W16488  19.092  15.771  14.720
43421W        W16489  25.276  34.551   2.820
43422W        W16490  41.007   3.183  13.825
43423W        W16491  36.882  26.523   1.353
43424W        W16492  20.571  35.217   4.495
43425W        W16493  15.199   6.469  14.280
43426W        W16494  20.481  44.797   2.778
43427W        W16495  41.447  41.982  13.532
43428W        W16496  43.361  24.767   2.342
43429W        W16497  37.127   9.352   3.169
43430W        W16498   7.697   9.406  14.984
43431W        W16499   8.662   5.493   0.400
43432W        W16500  24.264  37.473   0.038
43433W        W16501  27.626  12.650   2.192
43434W        W16502  41.351  36.171   3.736
43435W        W16503  12.226  23.471  12.208
43436W        W16504   3.058  36.432   2.087
43437W        W16505  14.310  32.502  11.361
43438W        W16506  10.124  17.226  12.084
43439W        W16507  27.424  37.582   4.417
43440W        W16508  43.250  15.802  11.943
43441W        W16509  38.824  24.919  10.832
43442W        W16510   8.176  42.594  12.957
43443W        W16511  33.337  10.539   3.723
43444W        W16512   5.512  13.018  11.260
43445W        W16513   6.923  41.730  12.936
43446W        W16514  10.298  38.360  11.577
43447W        W16515   1.370  27.165   4.150
43448W        W16516  44.821  18.543  11.582
43449W        W16517   9.236  27.447  13.813
43450W        W16518  18.612  23.706   4.212
43451W        W16519   5.645  33.168   2.502
43452W        W16520  31.417   3.952   4.231
43453W        W16521  20.068  39.847   1.241
43454W        W16522   4.568  19.968   3.617
43455W        W16523  19.123  16.708   2.411
43456W        W16524   9.915  33.639   4.615
43457W        W16525  31.041  23.623   3.049
43458W        W16526  22.183  35.341   3.278
43459W        W16527  27.501   6.911  13.381
43460W        W16528  11.874   3.180   0.817
43461W        W16529  20.757  39.920   1.988
43462W        W16530  20.477  38.603   3.139
43463W        W16531   1.879  43.007  11.171
43464W        W16532   4.551  31.029   2.788
43465W        W16533  43.317  36.133  13.802
43466W        W16534  42.577  23.077  13.733
43467W        W16535  29.096  43.909  11.698
43468W        W16536  16.567  11.795  14.231
43469W        W16537   7.504   2.911   4.153
43470W        W16538  41.122   8.888  11.561
43471W        W16539   7.245  12.838  13.895
43472W        W16540  15.745  33.359   3.700
43473W        W16541  22.753  24.319   3.713
43474W        W16542  13.983  38.659  13.897
43475W        W16543  33.180  19.590  13.000
43476W        W16544  43.838   9.182  10.768
43477W        W16545  37.669  26.104   1.276
43478W        W16546  38.125  32.056  12.559
43479W        W16547   6.137  44.899   1.349
43480W        W16548   5.567  34.470  11.155
43481W        W16549   1.852  38.006   3.587
43482W        W16550  32.900  37.750  10.995
43483W        W16551  40.016  34.268   4.526
43484W        W16552  23.700  31.729   0.322
43485W        W16553  23.184  25.936  14.910
43486W        W16554  37.427   9.213  10.822
43487W        W16555  11.842  40.783   1.088
43488W        W16556  34.941  11.240   2.783
43489W        W16557   4.786  38.777  10.694
43490W        W16558  25.489  38.956  10.716
43491W        W16559   9.649   9.416   1.890
43492W        W16560  44.558  14.326  12.486
43493W        W16561  14.573  23.478  13.947
43494W        W16562  37.787  27.596  10.615
43495W        W16563  30.997  41.504   5.278
43496W        W16564  43.991   8.417  11.997
43497W        W16565  24.501   9.965   3.546
43498W        W16566  28.100  29.465   2.317
43499W        W16567   9.848  23.352  12.520
43500W        W16568  16.113  14.741  14.783
43501W        W16569  33.504  29.025  10.061
43502W        W16570  26.696  28.943   3.683
43503W        W16571  13.571  44.640  13.476
43504W        W16572  35.499  26.562  10.445
43505W        W16573  10.374   4.790   2.739
43506W        W16574   4.921   7.420   5.119
43507W        W16575   4.467   4.376  14.874
43508W        W16576  17.495  20.298  12.446
43509W        W16577   0.512  12.025  11.114
43510W        W16578  25.412   2.073   0.905
43511W        W16579   3.038  34.779   3.147
43512W        W16580  23.201   1.786  10.725
43513W        W16581  32.560   9.134   1.508
43514W        W16582  12.837  13.753   4.047
43515W        W16583   5.885  35.816   0.002
43516W        W16584  33.754  41.925   4.803
43517W        W16585   3.701  19.062   0.629
43518W        W16586  16.737  11.416  14.720
43519W        W16587  39.476   2.517  14.191
43520W        W16588  41.770  20.344  14.253
43521W        W16589  39.338  15.376  12.933
43522W        W16590  20.186   2.292  12.004
43523W        W16591  13.953  19.049  11.630
43524W        W16592  40.104  27.355   3.124
43525W        W16593  28.736  12.745   3.326
43526W        W16594  30.595  14.668   1.173
43527W        W16595  13.535  40.526   4.637
43528W        W16596  15.238   5.538   4.635
43529W        W16597  19.829   3.055   1.327
43530W        W16598  12.137  21.499   1.921
43531W        W16599   4.029   9.276  10.449
43532W        W16600   6.078  35.697   2.058
43533W        W16601  22.789  17.869  14.688
43534W        W16602  32.080  26.712   3.181
43535W        W16603  39.075  23.728  10.777
43536W        W16604  22.480  18.259  14.917
43537W        W16605  28.497   9.871   1.867
43538W        W16606  24.025  22.627   3.569
43539W        W16607  39.514  36.824  11.490
43540W        W16608  11.973  42.684  10.436
43541W        W16609  39.432  16.609  10.984
43542W        W16610  34.562  35.494   2.218
43543W        W16611  27.971  29.937   1.026
43544W        W16612  15.987  13.194   4.070
43545W        W16613  25.714  39.444  12.013
43546W        W16614  22.023  32.962  14.726
43547W        W16615  40.389  27.133  13.640
43548W        W16616  26.207  19.759  12.565
43549W        W16617   5.763  25.109   4.351
43550W        W16618  28.601  42.467   0.258
43551W        W16619  26.943   9.715   0.901
43552W        W16620  30.583   0.162   3.279
43553W        W16621  35.144  20.275  12.192
43554W        W16622  32.151   1.612  11.299
43555W        W16623  29.047   0.697   4.639
43556W        W16624  37.241  12.163  13.678
43557W        W16625   3.871  44.430  13.624
43558W        W16626  22.475  40.618  10.687
43559W        W16627   5.137  10.333   3.303
43560W        W16628  12.088  19.370  12.602
43561W        W16629   1.923   1.334  13.951
43562W        W16630   0.553  25.943   4.577
43563W        W16631  41.553  24.693  13.485
43564W        W16632  13.338   3.816   4.755
43565W        W16633  19.732   1.350  11.365
43566W        W16634  33.313   3.234  14.725
43567W        W16635  25.048  19.173   4.866
43568W        W16636  30.455  16.960   0.201
43569W        W16637   4.871  19.535   3.671
43570W        W16638  23.437  10.470   1.953
43571W        W16639   0.239  28.674  11.540
43572W        W16640  38.309   8.238   0.045
43573W        W16641   8.397  25.529  12.594
43574W        W16642  44.693  35.628  11.445
43575W        W16643  35.883  20.703  11.023
43576W        W16644  13.769  29.975   1.930
43577W        W16645  34.936  31.879   1.184
43578W        W16646  37.479  44.700   2.235
43579W        W16647  14.516  33.764   9.918
43580W        W16648  30.622  30.533  13.473
43581W        W16649  34.502   2.645   0.867
43582W        W16650  29.002  32.554   2.817
43583W        W16651  25.298  25.585  10.636
43584W        W16652  37.801  18.747  10.516
43585W        W16653  32.581  27.526   4.541
43586W        W16654  26.723  36.346   3.829
43587W        W16655  35.990   7.907  12.386
43588W        W16656  42.030  21.042   0.795
43589W        W16657   7.312  12.810   2.443
43590W        W16658  19.319  43.121  13.034
43591W        W16659  39.310  42.989  10.443
43592W        W16660  32.841  16.622   4.138
43593W        W16661   9.889   3.472  11.589
43594W        W16662  22.651  42.369  13.284
43595W        W16663  23.033  40.821  12.377
43596W        W16664   7.229  17.838  13.678
43597W        W16665  38.327  42.495  14.747
43598W        W16666  25.483  15.793   0.945
43599W        W16667   1.366  31.889  14.468
43600W        W16668   1.916  25.951  14.011
43601W        W16669  41.985  19.312  11.638
43602W        W16670  25.963  16.309   2.338
43603W        W16671  12.846  35.629   2.310
43604W        W16672  30.479  35.469  13.073
43605W        W16673   3.491  40.137   3.140
43606W        W16674  43.488  15.576  13.312
43607W        W16675   4.984  27.445  12.981
43608W        W16676  20.775  12.162  12.049
43609W        W16677   7.749  14.367   5.184
43610W        W16678  35.814  31.401   0.735
43611W        W16679  29.853  44.690   2.886
43612W        W16680  34.056   0.224   2.211
43613W        W16681  11.420  27.975  13.573
43614W        W16682  44.244  43.133   5.192
43615W        W16683  14.088  39.891   2.258
43616W        W16684   2.039  10.757   0.798
43617W        W16685  32.846  14.620   0.543
43618W        W16686  38.843  15.418   2.326
43619W        W16687  21.125  17.264   3.771
43620W        W16688  36.470   8.508  11.890
43621W        W16689  41.300  41.347  12.598
43622W        W16690   2.393  26.064  14.935
43623W        W16691  16.109   6.127   4.100
43624W        W16692  27.597  25.488   4.466
43625W        W16693  27.137  35.549  14.312
43626W        W16694  39.047  12.201  10.880
43627W        W16695   8.059  36.787   2.702
43628W        W16696   3.118  29.198   2.678
43629W        W16697  34.171  28.805  11.410
43630W        W16698  33.310  16.983  10.867
43631W        W16699  26.727  17.347  10.927
43632W        W16700  38.501  29.203   4.423
43633W        W16701  22.470   1.718   4.549
43634W        W16702  13.300  43.007  14.015
43635W        W16703  43.224  26.625  12.893
43636W        W16704  29.354   9.752  12.621
43637W        W16705  12.142   9.293  11.541
43638W        W16706  44.707  35.886  14.563
43639W        W16707  12.854  26.919   4.649
43640W        W16708  38.136  31.623  13.862
43641W        W16709  29.009  38.050  13.960
43642W        W16710  44.246  22.718   1.740
43643W        W16711  33.602  43.064  14.033
43644W        W16712  13.760  10.153  10.968
43645W        W16713  40.373  12.009   2.419
43646W        W16714   8.754  29.504   0.072
43647W        W16715   6.697   7.869   3.267
43648W        W16716  27.383   5.978  14.355
43649W        W16717  11.676  24.562  12.289
43650W        W16718   1.263  40.484   1.187
43651W        W16719  20.135  37.341  14.473
43652W        W16720  39.500   6.701   5.019
43653W        W16721  36.756  35.027  11.729
43654W        W16722  35.530  31.496  10.595
43655W        W16723   2.319  17.764   4.505
43656W        W16724   2.201   6.754   1.311
43657W        W16725  39.664  35.447  12.472
43658W        W16726  34.456  43.064   2.205
43659W        W16727  22.572  34.358  14.235
43660W        W16728  18.495  11.346   3.415
43661W        W16729  26.930   2.908  13.843
43662W        W16730  26.172   2.328   0.523
43663W        W16731  17.789  22.241  12.616
43664W        W16732  41.291  34.377  14.465
43665W        W16733  20.981  28.483  12.112
43666W        W16734   5.172  42.895  10.413
43667W        W16735  21.544  31.617  14.746
43668W        W16736   2.301   7.684   4.604
43669W        W16737  13.117  30.573  14.719
43670W        W16738  31.801  37.924  12.154
43671W        W16739  23.669  23.907  10.817
43672W        W16740  41.057  37.716   3.782
43673W        W16741  25.552   3.718  12.486
43674W        W16742  30.381  35.010  14.458
43675W        W16743  24.731  18.097  14.298
43676W        W16744   8.680  18.370   3.726
43677W        W16745  15.366  19.643   4.176
43678W        W16746  39.321  12.377  10.001
43679W        W16747  15.300  14.872  10.687
43680W        W16748   3.713  32.592   1.740
43681W        W16749  31.652  43.203  12.934
43682W        W16750  24.663  26.932   0.682
43683W        W16751   6.916  36.747  14.991
43684W        W16752  22.774   5.205   3.242
43685W        W16753  33.623  26.941   4.915
43686W        W16754  43.752  12.178   3.339
43687W        W16755  35.997  14.466  13.337
43688W        W16756  38.267  33.426  11.609
43689W        W16757   6.810  18.263   1.905
43690W        W16758   2.206  35.991  14.390
43691W        W16759  31.896  19.650  14.373
43692W        W16760  18.233   2.954  12.190
43693W        W16761  38.708  16.253  13.835
43694W        W16762  12.086   0.758   0.170
43695W        W16763   8.774  42.679  11.838
43696W        W16764  40.372   8.693   4.568
43697W        W16765  12.074  17.382  14.141
43698W        W16766  10.903  44.200   4.136
43699W        W16767   7.686  43.732  10.692
43700W        W16768  31.453  33.053  14.850
43701W        W16769   6.886  19.583   3.700
43702W        W16770  39.902   2.732   1.702
43703W        W16771  11.194  30.052   1.805
43704W        W16772   3.550  26.008   1.820
43705W        W16773   8.741  17.267  12.545
43706W        W16774  35.466  41.714   4.854
43707W        W16775  26.480  26.425   3.766
43708W        W16776   2.231  29.235   0.746
43709W        W16777  42.444  20.188   0.309
43710W        W16778  33.071   9.525  14.844
43711W        W16779  39.900  36.444   0.069
43712W        W16780   3.812  21.723  13.909
43713W        W16781  28.591   6.431   3.815
43714W        W16782   7.511  28.054  13.074
43715W        W16783  40.150  25.715  13.980
43716W        W16784  32.164   3.799  14.013
43717W        W16785  31.144   6.850  11.976
43718W        W16786  39.051   2.427  13.916
43719W        W16787  16.324  17.167   3.742
43720W        W16788  20.027  32.941   1.306
43721W        W16789  12.045  40.313   4.917
43722W        W16790  24.233   5.839   2.604
43723W        W16791  11.600  43.898  11.701
43724W        W16792  39.372  26.269  10.608
43725W        W16793  11.319   0.057   0.582
43726W        W16794  13.479  42.841   4.520
43727W        W16795  37.546  37.858  13.837
43728W        W16796   3.554   6.143   1.352
43729W        W16797  17.941  34.405  14.082
43730W        W16798  28.493   3.108  11.531
43731W        W16799   7.513  17.498   4.750
43732W        W16800   0.646   6.510   5.074
43733W        W16801   8.370  39.647  10.680
43734W        W16802  15.078  40.763  11.521
43735W        W16803  27.231  21.091   3.706
43736W        W16804   8.649  19.007  13.392
43737W        W16805  24.732  27.360   0.385
43738W        W16806   6.874  32.355   4.587
43739W        W16807  36.632  33.521  13.576
43740W        W16808  15.615  37.103   4.578
43741W        W16809  32.466  18.347   1.577
43742W        W16810   0.240  13.220   4.572
43743W        W16811   9.332  28.608   1.324
43744W        W16812  36.518  10.605  10.556
43745W        W16813  36.341  15.213   4.537
43746W        W16814  28.893   3.873  13.838
43747W        W16815  30.030   5.488   3.569
43748W        W16816  25.203  10.135   3.783
43749W        W16817  20.198  15.111   0.721
43750W        W16818   9.920  23.256   2.434
43751W        W16819  19.732  41.685  12.073
43752W        W16820  42.380  37.956   1.868
43753W        W16821   6.945  27.497  14.442
43754W        W16822  20.815  31.139   4.555
43755W        W16823   6.335  21.132  13.314
43756W        W16824  40.729  43.772   2.769
43757W        W16825  33.940  34.476   3.520
43758W        W16826  38.021  13.446  12.621
43759W        W16827  44.937  28.474   3.233
43760W        W16828  44.736  40.321  10.481
43761W        W16829   6.820  17.560   1.173
43762W        W16830  42.452  23.446  14.460
43763W        W16831  21.680  24.423  10.625
43764W        W16832  36.122  26.607   0.047
43765W        W16833  11.317  24.917   2.095
43766W        W16834  26.162  22.778  12.937
43767W        W16835  37.033   3.523   2.417
43768W        W16836  10.273   8.915   0.998
43769W        W16837  14.237  15.352   3.902
43770W        W16838  28.211  37.622   2.270
43771W        W16839  37.102  28.578  11.593
43772W        W16840  17.249   4.335   3.857
43773W        W16841  44.398   8.437   4.170
43774W        W16842  19.739   1.302   1.334
43775W        W16843  41.891   1.918   3.434
43776W        W16844  25.807  30.177  12.934
43777W        W16845  36.898   0.262   1.332
43778W        W16846  19.245  35.205  12.978
43779W        W16847  34.178  28.123   3.788
43780W        W16848  10.160  26.024   4.230
43781W        W16849  31.907   8.006  10.914
43782W        W16850   0.204  15.573   3.122
43783W        W16851   9.572  10.227  11.896
43784W        W16852  24.181   3.552  10.241
43785W        W16853   1.575   1.253  12.036
43786W        W16854  23.222  33.337   3.580
43787W        W16855  30.883  23.655   4.040
43788W        W16856  11.157  16.601  12.643
43789W        W16857  15.386  29.372   4.667
43790W        W16858   6.834  42.480   3.258
43791W        W16859  20.219  42.013  11.436
43792W        W16860  19.656  14.507  10.635
43793W        W16861  14.422  14.200  10.685
43794W        W16862   9.943   7.344  14.831
43795W        W16863  41.388   0.716  10.650
43796W        W16864  14.829  39.529   0.990
43797W        W16865  29.705  22.769   0.414
43798W        W16866   0.813  31.763   0.239
43799W        W16867   6.732  19.881   4.529
43800W        W16868  18.501   6.977  14.917
43801W        W16869  28.717   6.952   4.268
43802W        W16870  20.084   3.898  14.012
43803W        W16871   8.447  31.099   1.661
43804W        W16872   7.022   9.931   2.303
43805W        W16873  13.331  32.908   4.171
43806W        W16874   0.736   7.734  14.332
43807W        W16875  30.312   7.648   2.319
43808W        W16876  10.650  19.369  12.490
43809W        W16877  31.573  37.901   4.933
43810W        W16878  37.549  17.538  10.842
43811W        W16879   7.245   8.817   3.538
43812W        W16880  24.595  29.166  14.488
43813W        W16881   0.664  27.945   5.088
43814W        W16882   1.944  22.893  11.775
43815W        W16883  35.033  38.499   0.947
43816W        W16884  16.644  27.175  12.378
43817W        W16885   4.884  27.210   4.835
43818W        W16886  24.716  43.430  13.874
43819W        W16887  19.454  10.214  12.998
43820W        W16888  18.482  36.417   0.995
43821W        W16889  43.797  12.966  12.133
43822W        W16890  14.263  27.486  11.254
43823W        W16891  43.948   1.226  14.576
43824W        W16892  25.673  23.712  13.016
43825W        W16893  15.628  31.890  11.591
43826W        W16894  40.155   3.246  14.415
43827W        W16895   7.765   4.355   1.225
43828W        W16896  39.356  10.356  11.879
43829W        W16897  15.940   2.795  11.377
43830W        W16898   9.830  27.123  10.345
43831W        W16899   6.019  13.256  13.855
43832W        W16900  35.420  37.773   4.151
43833W        W16901   0.565  10.408  12.819
43834W        W16902   0.745   5.680  14.992
43835W        W16903  18.175   6.570  11.370
43836W        W16904  37.290   5.327  11.073
43837W        W16905  16.775   5.923  13.845
43838W        W16906  16.778  31.673   4.343
43839W        W16907  35.784  18.434   2.849
43840W        W16908  43.274  38.899  14.134
43841W        W16909  37.454  33.419  11.977
43842W        W16910  16.713   5.334   2.923
43843W        W16911  35.324  36.786   1.814
43844W        W16912  28.923  18.317  12.930
43845W        W16913  15.142   1.821  12.393
43846W        W16914  41.443   9.173   1.946
43847W        W16915  12.793  23.424  14.739
43848W        W16916  10.748  19.897  12.356
43849W        W16917  25.988  16.687   4.523
43850W        W16918  34.585   2.346   1.559
43851W        W16919   3.933  39.890   1.195
43852W        W16920  32.838  17.097  11.051
43853W        W16921   1.173  10.136  11.614
43854W        W16922   5.412  44.440   1.439
43855W        W16923  19.855  25.664   3.666
43856W        W16924  33.348   9.819   3.690
43857W        W16925  11.391  32.637   1.348
43858W        W16926   6.356  38.206   2.729
43859W        W16927  32.176   3.490  11.257
43860W        W16928  16.088  10.581   0.396
43861W        W16929  38.364  26.150  13.899
43862W        W16930   1.177  22.761   1.302
43863W        W16931  21.490  23.054   3.542
43864W        W16932  40.008  27.483   2.630
43865W        W16933  11.535  28.195   1.639
43866W        W16934  26.977  20.523  13.303
43867W        W16935   4.441  27.463   1.349
43868W        W16936  36.903   3.239  12.181
43869W        W16937  37.456  18.767   3.211
43870W        W16938  28.921  34.958   1.879
43871W        W16939  36.674  30.385   3.231
43872W        W16940  37.785  43.820   0.366
43873W        W16941  35.321  23.473  11.617
43874W        W16942  23.220  28.024  12.131
43875W        W16943   7.351  31.151  13.545
43876W        W16944  29.925  39.978  13.082
43877W        W16945  31.699  13.401   1.482
43878W        W16946  23.875  33.901   4.167
43879W        W16947  34.976  13.488   4.066
43880W        W16948   3.617   7.827  13.844
43881W        W16949  22.496  36.766  10.997
43882W        W16950  39.002  18.419  13.033
43883W        W16951  39.065  27.572   0.889
43884W        W16952  35.688  23.469  10.723
43885W        W16953  37.553  33.671   4.157
43886W        W16954  16.306  27.687   4.655
43887W        W16955  33.098  34.676  14.023
43888W        W16956  24.186  25.862   1.867
43889W        W16957  21.972  31.492  10.910
43890W        W16958  24.683   1.765   1.340
43891W        W16959  35.335  14.814   2.357
43892W        W16960  29.376  20.693   1.267
43893W        W16961  33.825   5.272  14.946
43894W        W16962  17.105  23.628   1.270
43895W        W16963   3.669   2.133  12.427
43896W        W16964  36.440  35.129   9.885
43897W        W16965  27.852  28.003  10.089
43898W        W16966  12.702  26.792  14.423
43899W        W16967  23.215   5.461   4.205
43900W        W16968  26.511  10.244  12.571
43901W        W16969  12.774  44.736   4.187
43902W        W16970  34.722  34.357   1.110
43903W        W16971  10.362  35.465   4.761
43904W        W16972   3.538  10.085   4.645
43905W        W16973  15.120   2.026  10.502
43906W        W16974  22.768  27.576   4.125
43907W        W16975   6.437  35.937   1.713
43908W        W16976  43.447   5.279  10.902
43909W        W16977  11.285  36.157  11.480
43910W        W16978  32.170  37.290  10.354
43911W        W16979  27.403  23.631   0.874
43912W        W16980  37.304  15.070  11.655
43913W        W16981  15.633   7.221  11.650
43914W        W16982  39.826  10.657   1.323
43915W        W16983  39.327   8.745   4.567
43916W        W16984  42.975   9.243   4.069
43917W        W16985  32.846  32.548  14.469
43918W        W16986  27.807  18.132   2.750
43919W        W16987  43.243  16.325  13.915
43920W        W16988   5.901   7.392   1.644
43921W        W16989  42.408  38.780  14.262
43922W        W16990  12.305  29.998  11.162
43923W        W16991  22.786  37.981   4.223
43924W        W16992  32.580  41.676   4.576
43925W        W16993  13.093  14.129  10.465
43926W        W16994  13.373  10.231   0.407
43927W        W16995  34.039  37.800   3.460
43928W        W16996  10.100  23.118  10.323
43929W        W16997  36.880  19.326   4.928
43930W        W16998  36.200  12.986   3.433
43931W        W16999  11.628  31.050   4.014
43932W        W17000  41.456  38.351   3.711
43933W        W17001   9.236  40.314   5.014
43934W        W17002  14.145  15.257   2.907
43935W        W17003  44.435  42.800   1.960
43936W        W17004  43.225   9.203  13.315
43937W        W17005   2.196   7.740   2.379
43938W        W17006  16.600  44.937  11.550
43939W        W17007   0.548  12.757  11.619
43940W        W17008  31.598  42.336   1.472
43941W        W17009  32.882   2.395  13.109
43942W        W17010  33.006  40.974  13.187
43943W        W17011  42.923  30.394   2.227
43944W        W17012  13.698   9.152  13.752
43945W        W17013  40.874   4.122   0.065
43946W        W17014  17.274  30.272   0.726
43947W        W17015  26.741  29.070  14.416
43948W        W17016  44.539  43.427   1.360
43949W        W17017  25.221  25.666   4.727
43950W        W17018  30.439  26.713  13.315
43951W        W17019   3.470  35.589   0.832
43952W        W17020   3.127  29.967  11.357
43953W        W17021  26.704  35.541   3.065
43954W        W17022  25.503  38.727   1.026
43955W        W17023   7.417  42.925  13.397
43956W        W17024  10.172  23.560  14.926
43957W        W17025  24.793  19.432  11.113
43958W        W17026  38.613  14.736   0.183
43959W        W17027  18.253   8.402  12.360
43960W        W17028  19.268   8.370   4.131
43961W        W17029  28.652  28.046  14.987
43962W        W17030  22.173  17.227   3.470
43963W        W17031  21.718  28.156  14.705
43964W        W17032  16.492  12.261   1.772
43965W        W17033  22.289  35.654   1.443
43966W        W17034   2.008   7.286  12.383
43967W        W17035   7.455  18.303  11.164
43968W        W17036   1.028  15.713  11.858
43969W        W17037   2.339  36.492  11.165
43970W        W17038  26.703  36.848  14.424
43971W        W17039  24.523  28.897  14.054
43972W        W17040   1.395   3.369  13.564
43973W        W17041  37.052  33.562   3.189
43974W        W17042  18.643   2.527   1.471
43975W        W17043   4.681   9.486   4.955
43976W        W17044  31.026  25.501   3.828
43977W        W17045   6.373  32.695   1.242
43978W        W17046  20.582  39.749   2.431
43979W        W17047  34.619   5.339  10.654
43980W        W17048  15.657  10.061   3.131
43981W        W17049  35.476   6.227  11.129
43982W        W17050  34.518  26.709   1.824
43983W        W17051  31.895  41.604  14.610
43984W        W17052  22.566  33.428   0.870
43985W        W17053  17.372  24.677  14.357
43986W        W17054   5.297  25.432   1.360
43987W        W17055   5.288  22.365   2.825
43988W        W17056   3.366  14.183  14.918
43989W        W17057  39.477   9.464  10.720
43990W        W17058  39.029  10.613  13.332
43991W        W17059   8.385  19.658  10.771
43992W        W17060  28.623  22.675   2.654
43993W        W17061  34.859  16.519   0.733
43994W        W17062  14.363   7.370  11.468
43995W        W17063  32.617  16.866  12.709
43996W        W17064   7.277  28.168  10.637
43997W        W17065  14.765  27.246   3.673
43998W        W17066   7.220   3.296   4.408
43999W        W17067  13.226  18.972  13.531
44000W        W17068  42.660  26.240   3.667
44001W        W17069  17.280  29.960   2.419
44002W        W17070   7.731  23.623   2.141
44003W        W17071   0.337   9.269   4.881
44004W        W17072  37.440   8.925   1.299
44005W        W17073  27.960   4.278  10.778
44006W        W17074  34.118  35.770   0.178
44007W        W17075  36.378  32.198   3.857
44008W        W17076  18.046  43.349  11.627
44009W        W17077  14.177  38.860   4.057
44010W        W17078  29.167  16.711  10.665
44011W        W17079  42.907  11.032   4.335
44012W        W17080   5.917   8.803  13.492
44013W        W17081  29.561  41.541  11.994
44014W        W17082   1.545  44.909  10.745
44015W        W17083  12.679  40.453  11.417
44016W        W17084  33.144  15.183  12.510
44017W        W17085  20.928  41.118   2.370
44018W        W17086  38.548  22.138   4.635
44019W        W17087  21.536  30.197   2.485
44020W        W17088  32.993  39.813  11.649
44021W        W17089  38.034   0.350  14.687
44022W        W17090  12.302   2.984   2.481
44023W        W17091  43.839  41.574  11.491
44024W        W17092  32.352  32.589  14.332
44025W        W17093  22.020  20.771   2.914
44026W        W17094   5.811  16.949  13.001
44027W        W17095  28.163  20.023   1.338
44028W        W17096  22.956  17.533  14.312
44029W        W17097  14.800   2.866   3.669
44030W        W17098  35.560   3.305   4.539
44031W        W17099  34.940  24.175   2.875
44032W        W17100  43.471   2.944   1.463
44033W        W17101  41.776  23.628   2.819
44034W        W17102  20.249  30.216  11.078
44035W        W17103   0.422  30.762  13.309
44036W        W17104  29.642   3.729  12.541
44037W        W17105  39.331  13.420   0.926
44038W        W17106  32.617  39.926  14.667
44039W        W17107  31.932  28.111  14.224
44040W        W17108  14.268  37.645  14.982
44041W        W17109  29.957  31.901  13.448
44042W        W17110  40.858  30.492   0.344
44043W        W17111  36.546  23.592  11.500
44044W        W17112  20.844  27.026  11.444
44045W        W17113   8.882   0.390   0.526
44046W        W17114  40.372  39.932  11.951
44047W        W17115  34.441  13.725   4.613
44048W        W17116   0.424  18.695  13.394
44049W        W17117   5.293  36.583   0.518
44050W        W17118  31.142  20.644  11.210
44051W        W17119  29.736  39.526  12.307
44052W        W17120  19.714  35.990   0.759
44053W        W17121  14.114  20.455  12.795
44054W        W17122  24.694  14.759  12.309
44055W        W17123   7.330  39.386   4.189
44056W        W17124  10.576  22.090  12.508
44057W        W17125   9.828   0.789   0.049
44058W        W17126  33.387  43.161   5.009
44059W        W17127  13.089  11.318  14.506
44060W        W17128   3.021  18.171   4.532
44061W        W17129  22.487  33.060  12.948
44062W        W17130  33.501   2.706  12.413
44063W        W17131   4.146  20.765   0.436
44064W        W17132  19.143  17.902  11.471
44065W        W17133  30.966   6.895  13.717
44066W        W17134  21.112  31.154  12.158
44067W        W17135  37.112  36.667   1.686
44068W        W17136  42.855   5.473  12.677
44069W        W17137  28.469  42.811  13.463
44070W        W17138   5.959   0.277  11.506
44071W        W17139  26.595  31.826   3.349
44072W        W17140  31.477  24.700  13.110
44073W        W17141  39.078  20.091  12.372
44074W        W17142  32.125  38.818   1.407
44075W        W17143  43.314  19.744   1.236
44076W        W17144  33.105  28.206   5.018
44077W        W17145   2.975  16.780  12.929
44078W        W17146  26.881  25.217   2.763
44079W        W17147  38.053  18.717   1.485
44080W        W17148  18.020   9.661   4.193
44081W        W17149   4.920  38.758   2.784
44082W        W17150  29.859   3.411  11.674
44083W        W17151  12.586  36.274  11.135
44084W        W17152  44.066  42.878  12.842
44085W        W17153  44.846  42.590   4.193
44086W        W17154  24.649   7.215  11.458
44087W        W17155  39.484  41.563  10.684
44088W        W17156  30.568  28.366  13.389
44089W        W17157  35.319  28.164   2.388
44090W        W17158  37.250  35.257   1.182
44091W        W17159   2.831   7.307  13.471
44092W        W17160  33.229  41.578   1.671
44093W        W17161  19.040   1.672   3.893
44094W        W17162  43.990   8.984  14.400
44095W        W17163  41.397  10.313  13.429
44096W        W17164  22.018  28.823  13.904
44097W        W17165   9.209  17.304   0.315
44098W        W17166  19.052  39.951  13.939
44099W        W17167  37.427   6.439   0.365
44100W        W17168  21.653  33.570  12.889
44101W        W17169  19.547  39.963   1.230
44102W        W17170  13.855  17.367  13.026
44103W        W17171  36.187  21.257  13.120
44104W        W17172  18.347  43.776  11.646
44105W        W17173  41.914  35.691   1.832
44106W        W17174  30.472  19.438  13.925
44107W        W17175  13.350  14.833  12.486
44108W        W17176  23.744  41.748  12.049
44109W        W17177  44.463   7.258   2.262
44110W        W17178  42.710  36.390   0.481
44111W        W17179  17.725  35.032  14.933
44112W        W17180  10.204  38.797  13.931
44113W        W17181  11.577  33.914   4.322
44114W        W17182  43.814  36.945   1.926
44115W        W17183  30.964  24.728  13.007
44116W        W17184  16.823   1.385  13.893
44117W        W17185  12.510  13.791   1.277
44118W        W17186  35.537   4.414  10.720
44119W        W17187  29.104  35.739  10.971
44120W        W17188  33.020  26.720   2.203
44121W        W17189  12.279  31.778  13.397
44122W        W17190  21.162  27.564   3.139
44123W        W17191  29.698   6.996  11.058
44124W        W17192   6.934  11.183  13.735
44125W        W17193  26.896  35.613   4.169
44126W        W17194   3.335  37.786   3.877
44127W        W17195  21.761   0.542  10.672
44128W        W17196  19.733  17.190  12.516
44129W        W17197  16.765  13.757   4.551
44130W        W17198  15.239  36.546   1.890
44131W        W17199  16.820   2.688  12.422
44132W        W17200  12.990  32.457  14.840
44133W        W17201  26.040  43.730   1.012
44134W        W17202  22.011   9.804   3.133
44135W        W17203  18.814   9.402  13.997
44136W        W17204   7.313  12.349   2.755
44137W        W17205  34.045  13.818   2.226
44138W        W17206  10.698  27.045  10.947
44139W        W17207   0.833   8.649   0.977
44140W        W17208  34.061  34.108  10.627
44141W        W17209  39.579  38.305  11.553
44142W        W17210  38.330  12.843  14.824
44143W        W17211  11.861  28.209   4.251
44144W        W17212  30.906  23.270   3.669
44145W        W17213   9.841   8.961   3.675
44146W        W17214  32.233  31.584  11.635
44147W        W17215  37.384  32.438   3.835
44148W        W17216   2.368  15.162   0.770
44149W        W17217  24.563   9.424  14.739
44150W        W17218   4.263  22.395  12.590
44151W        W17219   3.583  31.875   4.556
44152W        W17220  40.206   8.165  10.774
44153W        W17221  16.232   9.299   3.501
44154W        W17222  27.110  39.275  12.102
44155W        W17223  19.326  38.048  13.573
44156W        W17224  23.123  36.000   1.958
44157W        W17225  36.252  18.155   3.693
44158W        W17226   6.518  31.959   4.570
44159W        W17227  21.725  36.453  11.257
44160W        W17228  37.080   3.783   1.769
44161W        W17229  40.319  34.161   2.691
44162W        W17230  21.092  41.831   4.886
44163W        W17231  19.133  23.525  13.492
44164W        W17232  44.728   0.728   3.393
44165W        W17233  43.732   6.959   4.587
44166W        W17234  14.309  27.764  12.607
44167W        W17235   2.831  17.900  14.497
44168W        W17236  14.403  41.110  13.495
44169W        W17237  14.372  22.226   0.769
44170W        W17238   9.246  13.601   1.847
44171W        W17239  29.097   3.145  13.331
44172W        W17240   2.437  42.382   4.343
44173W        W17241   5.289  36.056   5.322
44174W        W17242  12.000  36.255   3.991
44175W        W17243  29.581  16.474  13.862
44176W        W17244  29.984   4.366  11.702
44177W        W17245  14.724  32.172  14.853
44178W        W17246  22.431  42.492  11.991
44179W        W17247   4.233   9.588  14.784
44180W        W17248   9.163  29.162   0.095
44181W        W17249  39.790  41.255  13.386
44182W        W17250   3.460   4.659  11.587
44183W        W17251  20.678  35.149  14.486
44184W        W17252  14.278   5.691   9.846
44185W        W17253  32.627  22.264  11.101
44186W        W17254   6.445   9.307   0.222
44187W        W17255   6.143  32.667  12.050
44188W        W17256  33.853  27.098  14.021
44189W        W17257  43.614   2.261  13.597
44190W        W17258  18.993   5.318   2.402
44191W        W17259   6.941   6.953  10.655
44192W        W17260  15.784  30.718  11.900
44193W        W17261  22.198  29.238   2.799
44194W        W17262  21.831  40.366  12.017
44195W        W17263  35.950  33.169  14.477
44196W        W17264  28.063  28.781  12.943
44197W        W17265  35.964   6.431   4.095
44198W        W17266  36.472  17.724  10.775
44199W        W17267  26.678  18.576   1.612
44200W        W17268  13.672  44.925  10.755
44201W        W17269  30.134  15.572  12.443
44202W        W17270  13.534   2.396   4.556
44203W        W17271   7.091  28.443   3.863
44204W        W17272  20.731   0.518   0.475
44205W        W17273  28.664  17.554  10.784
44206W        W17274   3.586  39.455  11.706
44207W        W17275  35.027  27.173   0.382
44208W        W17276  42.467  10.295   0.935
44209W        W17277  42.183  19.164   0.406
44210W        W17278  44.857   4.877   2.429
44211W        W17279  39.674   1.945   2.669
44212W        W17280  13.813  21.157   1.836
44213W        W17281  15.740  30.194  11.970
44214W        W17282  40.903  37.706   0.538
44215W        W17283  42.410  20.557   2.066
44216W        W17284  42.442   5.961   3.362
44217W        W17285  41.343   9.817   4.774
44218W        W17286  38.248  42.735   0.968
44219W        W17287  17.626  17.204  10.712
44220W        W17288  33.521  22.006  13.497
44221W        W17289   0.889  30.014  13.552
44222W        W17290  19.766   7.744  12.017
44223W        W17291  16.747  35.067   4.541
44224W        W17292  20.775  12.290  14.537
44225W        W17293  33.553  14.081   1.281
44226W        W17294  32.539  37.546  12.398
44227W        W17295  28.240  31.371  11.161
44228W        W17296  38.983  24.507  11.649
44229W        W17297   1.785   2.396  13.319
44230W        W17298   2.628  28.800  13.136
44231W        W17299  38.134  24.577  11.213
44232W        W17300  11.715  26.174  12.366
44233W        W17301  22.979  29.079   0.377
44234W        W17302  44.207   1.235  11.294
44235W        W17303  32.165   5.258  13.873
44236W        W17304  13.631  13.435   3.699
44237W        W17305  27.975  12.750   1.721
44238W        W17306  37.590  43.801   1.243
44239W        W17307  40.978  31.818  13.839
44240W        W17308   9.620   8.373  10.952
44241W        W17309   0.882  34.464  11.181
44242W        W17310  38.859  16.787  13.319
44243W        W17311  10.281  14.272   0.570
44244W        W17312  31.369  12.464  12.267
44245W        W17313  35.284  42.007  14.876
44246W        W17314  16.833   4.469  14.098
44247W        W17315  10.711  36.444   4.314
44248W        W17316  22.233  44.500  14.814
44249W        W17317   6.187  44.765  11.535
44250W        W17318  20.532  38.876  13.289
44251W        W17319  34.017  10.394  13.861
44252W        W17320  16.610  27.851  10.763
44253W        W17321  38.753   7.315  10.730
44254W        W17322   5.450  42.057   4.521
44255W        W17323  28.479  20.596  10.461
44256W        W17324  12.622  38.963  13.435
44257W        W17325   8.742  17.498   3.273
44258W        W17326  17.716   9.489   2.315
44259W        W17327   6.890  43.774   4.219
44260W        W17328   2.707   8.732   3.176
44261W        W17329  25.171  21.262   3.804
44262W        W17330  41.827  30.637   4.580
44263W        W17331   6.911  11.601  12.012
44264W        W17332   2.883  40.366  14.487
44265W        W17333  36.346  11.405   1.371
44266W        W17334   5.807  18.766  12.647
44267W        W17335  36.461   6.874  12.044
44268W        W17336  28.125   3.656  12.129
44269W        W17337  42.235  30.954   3.330
44270W        W17338  42.451   4.317   2.437
44271W        W17339  31.013  29.660   4.952
44272W        W17340   3.719  33.949   0.333
44273W        W17341   9.697   4.083   2.661
44274W        W17342   7.715  19.629   4.264
44275W        W17343  26.806  27.453  11.558
44276W        W17344   9.665   7.140   3.560
44277W        W17345  40.914  26.025   3.906
44278W        W17346   0.450   1.185   2.423
44279W        W17347  18.828  36.145   1.282
44280W        W17348   5.354  27.101  12.279
44281W        W17349   7.469  23.440  11.163
44282W        W17350  33.884   5.698   2.586
44283W        W17351  16.577  25.212   1.907
44284W        W17352   5.623  33.723  12.533
44285W        W17353  31.083   3.038  13.801
44286W        W17354   6.964  12.685   4.360
44287W        W17355  13.148  19.795  13.931
44288W        W17356  44.741  25.178   2.249
44289W        W17357  22.935  24.698   2.768
44290W        W17358  33.070  32.958   4.598
44291W        W17359   9.248  32.704  13.572
44292W        W17360   9.196  44.876   0.237
44293W        W17361   3.355  23.452  10.978
44294W        W17362  25.204  19.787  11.489
44295W        W17363  12.231  16.829   2.631
44296W        W17364   3.815  28.441  11.959
44297W        W17365  34.607  40.121  14.403
44298W        W17366  30.140  38.453   1.299
44299W        W17367  25.289  28.135   3.236
44300W        W17368   5.204   8.097   0.455
44301W        W17369   3.565  26.051   2.782
44302W        W17370  27.088   8.849   5.111
44303W        W17371   3.348  10.572   0.401
44304W        W17372  17.279   5.104   1.086
44305W        W17373  14.600  34.648   2.355
44306W        W17374  16.750  38.058   4.334
44307W        W17375  23.372  37.147   2.165
44308W        W17376  29.519  37.465   3.156
44309W        W17377  40.926  24.590  11.901
44310W        W17378  24.142  19.053  11.641
44311W        W17379  42.841  11.876  14.590
44312W        W17380  22.884  19.572   5.105
44313W        W17381  22.004  10.805   3.294
44314W        W17382  41.862  24.069  12.675
44315W        W17383  38.893  25.585  14.376
44316W        W17384  37.025   6.868  13.323
44317W        W17385  38.780  31.365  10.331
44318W        W17386   0.857  35.081   5.063
44319W        W17387   1.030  22.986   4.223
44320W        W17388   8.463  24.066  12.491
44321W        W17389  10.860  41.314  12.389
44322W        W17390  22.519  27.504   4.590
44323W        W17391  43.822   2.519  14.926
44324W        W17392  34.685  21.307  10.739
44325W        W17393  42.975  14.591   3.712
44326W        W17394  44.307  38.431   4.750
44327W        W17395  13.501  41.944  13.784
44328W        W17396  22.154  19.905   0.647
44329W        W17397  32.403  19.567   3.223
44330W        W17398  20.764  36.150  14.484
44331W        W17399  39.428  20.193  11.160
44332W        W17400  21.153  43.703   9.684
44333W        W17401  18.641  42.036   0.302
44334W        W17402  20.395  23.544  11.342
44335W        W17403  32.157  20.549  11.306
44336W        W17404  40.134  36.606  12.024
44337W        W17405  24.031   7.895  11.678
44338W        W17406  27.217   9.433  12.883
44339W        W17407  30.696  22.143  12.349
44340W        W17408   1.222   0.887  14.648
44341W        W17409  41.327  30.549  14.074
44342W        W17410  41.467  24.818  12.548
44343W        W17411  17.063  20.271   4.554
44344W        W17412  36.450   8.117  13.487
44345W        W17413   8.790  16.016   3.361
44346W        W17414  14.761   7.233  10.243
44347W        W17415  42.102   3.388   2.031
44348W        W17416  20.494  31.605  12.927
44349W        W17417  24.022  15.292   4.143
44350W        W17418  41.495  44.815  14.965
44351W        W17419  23.587  25.194   3.130
44352W        W17420  34.010  16.521  14.328
44353W        W17421   7.141  30.386  11.152
44354W        W17422   0.705  25.509   4.344
44355W        W17423  22.465  42.936   2.328
44356W        W17424  35.623  31.607  14.814
44357W        W17425  36.972  28.577   4.029
44358W        W17426   2.710   1.392  12.838
44359W        W17427   3.474   5.948   1.840
44360W        W17428   6.341  32.522   0.743
44361W        W17429  22.576  34.056   1.012
44362W        W17430  32.387  29.228  12.030
44363W        W17431   9.323  18.787  14.986
44364W        W17432   1.183  14.578  10.731
44365W        W17433   9.264   0.264   4.108
44366W        W17434   5.195  19.114   1.589
44367W        W17435  33.992  16.289   1.330
44368W        W17436  10.384  35.483   2.049
44369W        W17437  15.936  15.960  10.221
44370W        W17438   9.059   6.293  13.434
44371W        W17439  43.708  18.046  10.151
44372W        W17440  10.772  29.086   3.918
44373W        W17441  18.129   2.357   2.126
44374W        W17442   4.269  19.020   3.434
44375W        W17443  27.605  27.946   0.986
44376W        W17444  27.545  19.118   2.400
44377W        W17445   3.932  20.685   3.206
44378W        W17446  29.534  21.728   3.877
44379W        W17447  22.648  30.474   0.759
44380W        W17448  31.299  16.693   4.333
44381W        W17449  10.632  42.224  10.559
44382W        W17450   9.278  23.613  14.248
44383W        W17451  27.850  13.199  12.445
44384W        W17452  20.528  44.680   0.420
44385W        W17453   6.283  19.684  13.409
44386W        W17454  40.575  24.064  14.526
44387W        W17455  28.064  16.015  14.855
44388W        W17456  36.073  17.305   1.948
44389W        W17457  30.933  26.704  13.104
44390W        W17458  35.950  18.795   0.420
44391W        W17459  24.310  10.142  14.111
44392W        W17460   2.374  29.071  13.535
44393W        W17461  14.182  14.525   0.157
44394W        W17462  20.056  10.336   0.222
44395W        W17463  26.944   7.377   4.478
44396W        W17464  34.542   0.213  12.460
44397W        W17465  18.584  16.780  14.075
44398W        W17466  15.315  44.227  12.663
44399W        W17467  11.620   8.400  11.610
44400W        W17468  13.316  22.723  11.710
44401W        W17469  27.546   6.175  10.728
44402W        W17470  40.013  13.428  11.927
44403W        W17471   9.442  43.537   4.196
44404W        W17472  19.051  30.952  12.342
44405W        W17473  38.591  10.384  11.180
44406W        W17474  43.800  17.212   4.537
44407W        W17475  24.953  31.008  12.188
44408W        W17476  34.083  32.410  11.633
44409W        W17477  35.507  22.713   4.813
44410W        W17478  42.746  19.176   1.167
44411W        W17479  26.179  11.178   0.835
44412W        W17480  30.255   1.307   0.522
44413W        W17481  22.266  25.297   3.118
44414W        W17482  14.951  30.899  11.256
44415W        W17483  31.636  40.225   0.438
44416W        W17484  19.522  17.307   1.782
44417W        W17485  34.549   0.732  12.596
44418W        W17486   0.966  42.488  10.951
44419W        W17487   5.129  16.752  12.551
44420W        W17488  27.974   5.350  14.807
44421W        W17489  20.602  39.913   3.736
44422W        W17490  37.274  23.403   2.646
44423W        W17491  31.172   3.506   3.665
44424W        W17492  10.752   5.909   4.544
44425W        W17493  38.220  27.348   1.833
44426W        W17494  28.202   3.505   3.663
44427W        W17495  35.468  43.225   1.786
44428W        W17496   0.586  38.617   4.176
44429W        W17497  24.773  40.415  11.103
44430W        W17498  36.025  15.495   4.877
44431W        W17499  36.623  25.413  13.877
44432W        W17500  41.320  11.280  13.545
44433W        W17501  23.999  12.066  13.033
44434W        W17502  39.873  35.162   1.800
44435W        W17503   6.529  19.732   0.678
44436W        W17504  41.718  31.036  12.916
44437W        W17505  39.028   1.351  13.322
44438W        W17506  36.437  33.640   0.708
44439W        W17507  33.015   9.902   2.501
44440W        W17508  27.751  17.082   0.277
44441W        W17509   6.733  12.098  12.626
44442W        W17510  24.275  19.115  14.449
44443W        W17511   1.505  16.815   0.781
44444W        W17512  24.537   6.382  12.649
44445W        W17513   8.603  21.162  13.504
44446W        W17514  24.599   3.511  10.588
44447W        W17515   4.911  37.099   1.681
44448W        W17516  11.261  23.176  12.089
44449W        W17517  21.123  42.339   4.680
44450W        W17518  23.480   3.803  14.315
44451W        W17519  16.675  41.334   3.794
44452W        W17520   2.207  33.505   1.890
44453W        W17521  16.067  40.349   4.564
44454W        W17522  15.185  27.512  13.653
44455W        W17523  14.752  25.285   2.384
44456W        W17524  40.342   3.224  10.672
44457W        W17525  38.842   9.457  14.099
44458W        W17526  23.732   4.274  14.442
44459W        W17527  41.364  29.407   1.726
44460W        W17528  35.369  42.466  13.438
44461W        W17529  34.609  33.910   2.865
44462W        W17530  28.977  31.390   1.174
44463W        W17531  41.681   9.391   4.735
44464W        W17532   7.417  43.330  11.542
44465W        W17533  37.562  18.496   1.329
44466W        W17534   5.313  19.467   3.382
44467W        W17535   9.018  35.822   2.691
44468W        W17536   3.757  21.076  14.346
44469W        W17537   6.850  34.637  10.747
44470W        W17538   6.740  21.580  14.806
44471W        W17539  40.138  40.531   0.845
44472W        W17540   6.839  10.224   2.809
44473W        W17541   2.423   5.778  11.464
44474W        W17542  25.208   1.886   4.508
44475W        W17543  13.391  12.768  13.782
44476W        W17544  26.722  16.823  10.807
44477W        W17545   2.736  11.987   2.059
44478W        W17546  27.246  21.816   1.746
44479W        W17547  41.251  28.113  10.572
44480W        W17548  43.749  28.874  13.761
44481W        W17549  23.155  19.984  12.030
44482W        W17550  12.665  10.916   1.404
44483W        W17551   9.618  11.736  14.058
44484W        W17552  15.984  43.432   3.185
44485W        W17553  25.973  18.628   4.470
44486W        W17554  21.595  27.553  12.485
44487W        W17555  33.441   2.022  11.080
44488W        W17556   0.701  33.982  11.072
44489W        W17557   1.213  11.273   0.934
44490W        W17558  15.736  40.281   3.277
44491W        W17559  33.918  29.009   3.931
44492W        W17560  35.842  36.465   3.695
44493W        W17561  43.879   0.817  13.820
44494W        W17562  30.509  41.237  13.943
44495W        W17563   7.455  12.802   0.047
44496W        W17564   8.049  38.341   1.975
44497W        W17565  32.647  41.915  11.184
44498W        W17566  44.231  31.411  12.547
44499W        W17567  33.350  23.761   2.099
44500W        W17568   3.963   9.342   0.170
44501W        W17569  40.975   0.313   0.314
44502W        W17570   8.911  15.340   1.231
44503W        W17571  20.076  24.652   0.458
44504W        W17572   7.224  41.049  14.339
44505W        W17573  14.149  34.467  14.409
44506W        W17574  26.964   2.855   3.505
44507W        W17575  10.367  38.482   1.789
44508W        W17576  28.750  30.458   4.390
44509W        W17577   4.618  38.936   4.092
44510W        W17578  41.555  33.405   1.243
44511W        W17579   2.428  23.929  11.518
44512W        W17580  24.961  21.580  12.438
44513W        W17581  26.061  19.491   4.072
44514W        W17582  34.655  14.909  12.974
44515W        W17583   7.092  30.838  13.916
44516W        W17584   7.860  16.398  13.055
44517W        W17585  38.937   1.036   2.214
44518W        W17586  40.456  40.064  14.854
44519W        W17587  38.020  26.534  13.431
44520W        W17588  31.712  20.141   2.344
44521W        W17589  16.220  34.458  12.464
44522W        W17590  27.975  34.982   0.404
44523W        W17591  13.564  19.587   4.586
44524W        W17592  42.022  20.852   2.262
44525W        W17593  34.322  34.000   4.185
44526W        W17594   2.392  29.447  13.909
44527W        W17595  12.054  33.328  10.979
44528W        W17596   9.192  38.813  13.863
44529W        W17597  29.437  11.808   0.430
44530W        W17598  26.248   4.724  13.988
44531W        W17599  23.082  41.856  13.437
44532W        W17600  19.922  38.222   4.423
44533W        W17601  22.437  22.214   9.986
44534W        W17602  11.670  20.268   3.631
44535W        W17603  16.873   1.044   0.863
44536W        W17604   9.751   8.152   3.330
44537W        W17605   8.526   5.512  11.588
44538W        W17606   1.407   1.834   0.467
44539W        W17607  26.432   3.299  13.526
44540W        W17608  16.349  20.191  14.636
44541W        W17609  29.084  15.791  10.232
44542W        W17610  19.746  41.910  11.614
44543W        W17611   5.278  32.743  14.521
44544W        W17612  28.066   2.648  14.013
44545W        W17613   7.865  25.602  13.550
44546W        W17614  15.731  40.944   1.810
44547W        W17615  15.558  36.055   2.458
44548W        W17616  17.821   3.207  14.121
44549W        W17617   0.826  15.511  14.839
44550W        W17618  37.537  33.038   4.948
44551W        W17619  21.562  10.900   1.614
44552W        W17620  16.155  35.440  13.186
44553W        W17621   6.635   8.798  10.441
44554W        W17622  43.233   2.324   2.867
44555W        W17623   7.323  22.984  13.995
44556W        W17624  22.721  38.343   3.783
44557W        W17625  42.812  20.770  14.335
44558W        W17626   7.751   5.270  14.053
44559W        W17627  16.495  12.605   2.162
44560W        W17628  43.546  37.418  10.794
44561W        W17629   7.790   5.154  13.025
44562W        W17630  38.619  26.657   0.894
44563W        W17631  12.663  19.592   2.953
44564W        W17632  27.730  34.489  14.510
44565W        W17633  14.671   3.008   2.261
44566W        W17634  33.021  28.224  14.369
44567W        W17635   8.759  12.668  10.977
44568W        W17636  12.089  21.948   2.788
44569W        W17637  16.732   2.906  11.436
44570W        W17638  26.351  30.820  11.116
44571W        W17639  43.996   1.955   4.522
44572W        W17640   7.481  43.759   0.552
44573W        W17641  24.951  26.237  11.878
44574W        W17642  38.574  28.115   1.952
44575W        W17643  41.689  43.484   4.633
44576W        W17644  26.060  38.745   4.551
44577W        W17645  16.869  10.319  14.034
44578W        W17646  23.087  43.564   1.292
44579W        W17647  41.841  42.451  11.584
44580W        W17648  15.483   5.313   4.231
44581W        W17649  31.717   2.165  13.469
44582W        W17650  40.852   6.897   5.464
44583W        W17651   1.953  24.218   4.060
44584W        W17652  34.858  14.424   4.172
44585W        W17653  40.347   9.338  13.308
44586W        W17654   4.596  39.353  11.661
44587W        W17655  33.139  41.916  11.087
44588W        W17656  26.175   8.560  13.141
44589W        W17657  44.068  43.687  11.928
44590W        W17658  36.092  31.878   4.138
44591W        W17659  30.572  44.862  11.435
44592W        W17660   5.597   1.847   1.862
44593W        W17661  37.526  22.494   1.628
44594W        W17662  19.038  44.220   3.652
44595W        W17663  29.056  19.205  14.016
44596W        W17664  10.710  12.187   0.366
44597W        W17665  44.301  33.158  13.088
44598W        W17666  40.754  34.452  14.528
44599W        W17667   2.205  33.416   3.696
44600W        W17668  31.131  28.660   2.512
44601W        W17669  17.727  39.924  14.082
44602W        W17670  35.378  15.855  10.310
44603W        W17671  27.592  37.365   0.653
44604W        W17672   8.333  27.672   4.766
44605W        W17673  32.002  23.357  13.332
44606W        W17674   9.697  25.714  14.098
44607W        W17675  18.610  29.177  11.948
44608W        W17676  34.034  22.161  13.231
44609W        W17677  29.633   1.382  14.257
44610W        W17678  43.461  32.179   4.841
44611W        W17679   8.598  34.667  14.433
44612W        W17680   5.104  30.971   4.973
44613W        W17681  36.927   2.879  13.865
44614W        W17682   9.829  25.673  12.624
44615W        W17683  16.213  41.106  11.919
44616W        W17684   7.462  24.640   1.360
44617W        W17685  32.896  19.001  12.382
44618W        W17686  30.407   7.915   0.363
44619W        W17687  32.921  12.110  10.471
44620W        W17688  29.787  35.338  12.527
44621W        W17689  43.666   8.510   5.313
44622W        W17690  27.666  33.794   4.140
44623W        W17691  15.719  28.515  14.870
44624W        W17692   1.062  42.252  13.520
44625W        W17693  22.110  19.558  14.732
44626W        W17694   0.999  27.558   3.219
44627W        W17695  11.331  17.603  12.056
44628W        W17696  41.322  42.461  11.584
44629W        W17697   7.917  38.501   3.276
44630W        W17698  37.996  22.565   4.052
44631W        W17699  22.933   8.077   1.848
44632W        W17700  16.243   5.714  14.003
44633W        W17701  41.618  35.349  13.311
44634W        W17702  41.097  42.723  12.442
44635W        W17703   0.596   9.203  13.897
44636W        W17704  22.056   1.034   5.160
44637W        W17705  26.574  37.891   0.246
44638W        W17706   1.777  40.388   3.685
44639W        W17707   1.447  42.883  14.533
44640W        W17708  11.313   4.427  11.129
44641W        W17709  41.370   7.775  13.069
44642W        W17710  31.528   0.835   3.264
44643W        W17711  20.751  15.611   0.419
44644W        W17712  14.918  12.869   1.146
44645W        W17713  13.251  10.925  13.875
44646W        W17714  17.769  38.294   2.798
44647W        W17715  14.281  41.851   5.038
44648W        W17716  32.524  36.134   4.124
44649W        W17717  14.050  18.562  11.727
44650W        W17718  24.128  16.704  14.859
44651W        W17719  15.162  38.858  13.095
44652W        W17720   7.899   1.506  13.841
44653W        W17721  23.201   4.213  14.447
44654W        W17722  28.692  27.574   1.370
44655W        W17723  27.439  17.022   4.121
44656W        W17724  34.304  39.842  11.043
44657W        W17725  43.276   5.458   2.435
44658W        W17726   9.296  40.012   0.347
44659W        W17727  29.535  10.676   2.810
44660W        W17728  27.904  15.679   4.661
44661W        W17729   4.979  40.323  14.528
44662W        W17730  41.859  23.276   2.450
44663W        W17731  21.316  38.662  11.972
44664W        W17732   2.901  43.854   0.781
44665W        W17733  13.347   7.265   3.399
44666W        W17734   1.317  17.135   3.521
44667W        W17735   5.914   4.248  11.528
44668W        W17736   1.273  36.329   0.039
44669W        W17737   2.837   2.477   0.799
44670W        W17738  17.019  36.971  12.018
44671W        W17739  10.078  44.442   0.854
44672W        W17740  21.578  42.449   4.397
44673W        W17741  35.010  17.233  12.605
44674W        W17742  18.617  40.678   0.335
44675W        W17743  29.913  39.588  11.770
44676W        W17744   6.619  25.993   1.397
44677W        W17745   0.729  44.414  11.453
44678W        W17746  34.440  22.114  13.540
44679W        W17747  25.327  34.456  12.953
44680W        W17748  26.629  42.612   4.402
44681W        W17749   4.269  28.958  12.620
44682W        W17750  41.724  38.000  12.669
44683W        W17751  37.251  28.664   0.063
44684W        W17752   3.764  22.192  12.567
44685W        W17753  24.936  34.284  14.375
44686W        W17754   3.876  26.055   3.422
44687W        W17755  36.997  27.097  11.475
44688W        W17756  38.400  44.721  13.340
44689W        W17757  44.317  14.660   4.619
44690W        W17758   7.321  27.600  11.493
44691W        W17759  32.216  40.764   4.052
44692W        W17760   9.780  13.259  14.410
44693W        W17761   4.356  10.217   0.829
44694W        W17762  24.890  32.912  10.673
44695W        W17763  20.830  40.289   1.257
44696W        W17764  20.107   9.646   1.863
44697W        W17765  35.234   8.269   4.914
44698W        W17766  42.587  29.687   1.245
44699W        W17767   5.267   9.273   4.689
44700W        W17768   5.476  20.487  12.449
44701W        W17769  40.859  38.470   3.254
44702W        W17770   7.999  26.033  13.292
44703W        W17771  16.411  34.698   1.323
44704W        W17772  15.112   1.524   3.050
44705W        W17773  29.072   8.923  14.334
44706W        W17774  38.059  35.005   2.980
44707W        W17775  10.814  14.525  12.648
44708W        W17776  11.007  18.364   0.486
44709W        W17777  14.993  20.185  14.379
44710W        W17778  38.367  13.261   2.091
44711W        W17779  11.882   9.734   3.752
44712W        W17780  17.705  37.582   0.818
44713W        W17781   7.516  32.013   0.671
44714W        W17782  44.870  32.495   1.379
44715W        W17783  32.575  29.492  13.462
44716W        W17784   9.147  24.905   1.216
44717W        W17785  21.180  39.025   1.253
44718W        W17786  31.447   8.176  13.853
44719W        W17787   2.452  15.195  12.452
44720W        W17788  21.157  42.999   1.903
44721W        W17789   0.851   8.333   1.478
44722W        W17790  21.055  41.926   3.871
44723W        W17791  25.414  33.707   0.809
44724W        W17792   3.769   7.473  14.822
44725W        W17793   5.148  27.031  12.741
44726W        W17794  26.962  33.918   2.586
44727W        W17795  42.009   7.366  10.706
44728W        W17796  36.250   4.430  13.856
44729W        W17797  43.935  14.904  14.448
44730W        W17798   8.868  12.687   0.161
44731W        W17799  12.746  20.012   1.671
44732W        W17800  44.382  25.119  11.440
44733W        W17801  39.087   2.734   0.033
44734W        W17802  11.086   5.281  12.573
44735W        W17803  25.874  13.722  14.477
44736W        W17804  16.122  42.297  12.917
44737W        W17805  37.569  10.149  10.761
44738W        W17806  44.527  35.999   0.019
44739W        W17807  22.562   2.353  14.396
44740W        W17808  40.583  37.450   2.837
44741W        W17809  18.771  12.100   4.305
44742W        W17810   0.688   1.821  11.434
44743W        W17811  34.904   0.403  11.529
44744W        W17812  41.551  41.802  12.533
44745W        W17813  34.517  41.978  12.647
44746W        W17814  29.989  34.146   2.655
44747W        W17815  31.315   5.673   4.761
44748W        W17816   1.691   7.934  11.126
44749W        W17817  16.483  27.214   3.865
44750W        W17818  20.517  28.458   2.396
44751W        W17819  29.662  25.217  11.240
44752W        W17820  11.248  39.590  12.561
44753W        W17821  40.610  16.542  11.502
44754W        W17822  15.616  38.863   1.860
44755W        W17823  31.080  27.913  12.035
44756W        W17824  33.894   3.940   3.943
44757W        W17825  34.937  37.907  12.303
44758W        W17826  26.690  34.991   3.016
44759W        W17827   1.673  25.727  12.944
44760W        W17828   0.735  16.026  13.079
44761W        W17829  14.144   9.129   2.752
44762W        W17830   4.642  32.501  13.544
44763W        W17831   6.598   7.301   1.295
44764W        W17832  43.320  19.164  12.407
44765W        W17833  44.810  40.065  13.856
44766W        W17834  32.197  31.172  13.734
44767W        W17835   0.680  38.938   2.719
44768W        W17836  14.888  36.846  14.911
44769W        W17837  44.342  26.046  13.499
44770W        W17838  22.926  13.107   0.800
44771W        W17839  43.011  26.524   4.874
44772W        W17840  11.382  25.410  12.876
44773W        W17841  20.892   2.019  12.170
44774W        W17842  14.115  25.552  14.309
44775W        W17843  17.583  30.903  11.293
44776W        W17844  18.264  20.055   1.572
44777W        W17845   0.981  23.520  14.434
44778W        W17846   7.576  40.437  11.694
44779W        W17847  41.769  40.350   4.286
44780W        W17848  21.028   0.189  13.323
44781W        W17849  30.477   4.546  14.980
44782W        W17850  11.740  16.165  12.016
44783W        W17851   4.393  38.531  12.839
44784W        W17852  17.462   3.339  12.334
44785W        W17853  28.413   6.351  11.202
44786W        W17854   5.206  15.504   4.207
44787W        W17855  12.403  37.286   2.222
44788W        W17856  34.521  28.148  11.128
44789W        W17857  41.421  16.806  10.505
44790W        W17858  32.822  21.274   0.299
44791W        W17859  31.733  32.500   3.789
44792W        W17860  29.557   7.336   1.180
44793W        W17861  42.130  20.875   1.282
44794W        W17862   1.482   2.171   3.668
44795W        W17863  37.448  25.950   4.096
44796W        W17864   3.699  14.691   2.894
44797W        W17865  10.348  34.896   3.689
44798W        W17866  44.555  40.394   2.003
44799W        W17867  30.732  21.122  14.086
44800W        W17868  25.237  21.524   3.134
44801W        W17869   8.663  38.925  13.098
44802W        W17870   4.865  13.390  12.402
44803W        W17871   9.610  39.284   9.557
44804W        W17872  26.614  15.899  11.583
44805W        W17873  43.903  21.018   2.395
44806W        W17874  42.373  41.850   4.412
44807W        W17875  21.172   2.656   0.681
44808W        W17876  13.194  36.898   2.443
44809W        W17877  13.441  25.566  13.670
44810W        W17878  26.023  31.651   0.463
44811W        W17879   0.032  11.322  12.111
44812W        W17880  32.946  44.380  10.519
44813W        W17881  36.564  36.152   4.140
44814W        W17882  34.844   7.350   4.915
44815W        W17883   5.371  11.811  11.975
44816W        W17884  25.070  26.362  13.680
44817W        W17885   7.914   5.008   1.919
44818W        W17886  22.441  17.801  14.301
44819W        W17887   6.170  33.102  14.381
44820W        W17888   6.122  17.435  13.516
44821W        W17889  21.306  41.639  14.104
44822W        W17890   1.399   4.300  11.192
44823W        W17891  24.561  25.780   2.264
44824W        W17892   4.680  31.691  11.592
44825W        W17893  18.319   8.261  11.884
44826W        W17894   2.457   0.809   3.741
44827W        W17895  23.248  35.380  12.859
44828W        W17896  12.085  23.145   1.716
44829W        W17897  20.819   1.869   4.424
44830W        W17898  29.443  32.909  14.069
44831W        W17899  29.320   3.368  13.863
44832W        W17900   5.725  33.699   3.299
44833W        W17901  33.046  26.698  12.093
44834W        W17902  41.532  21.666  13.354
44835W        W17903  18.054  42.440  12.003
44836W        W17904  30.854  20.611  10.782
44837W        W17905  28.555  15.632  11.302
44838W        W17906  24.561  37.766   3.756
44839W        W17907   2.983  33.480  13.954
44840W        W17908  12.439  16.734  11.985
44841W        W17909  13.771  22.316   4.132
44842W        W17910  41.252  25.097   4.142
44843W        W17911  22.932  22.289   3.204
44844W        W17912  10.238  41.349  14.702
44845W        W17913   0.018  18.217  11.230
44846W        W17914  26.059  30.607  14.964
44847W        W17915  22.759   3.951   0.924
44848W        W17916  32.129  31.669  13.533
44849W        W17917   9.870  41.096   0.565
44850W        W17918  42.528   0.408   2.069
44851W        W17919  25.353  42.188   3.193
44852W        W17920   8.171  13.801  13.416
44853W        W17921  44.835  37.795   1.964
44854W        W17922  36.610  34.173   1.929
44855W        W17923  13.471  38.168   0.312
44856W        W17924  23.638  44.367   4.256
44857W        W17925  29.885  16.859  13.477
44858W        W17926  27.209  21.650  14.005
44859W        W17927  13.095   5.306   1.666
44860W        W17928  18.987   1.386   1.728
44861W        W17929   5.491  33.432   3.658
44862W        W17930  36.776  16.709  12.921
44863W        W17931  33.162  27.990   3.648
44864W        W17932   3.054  33.956   0.937
44865W        W17933  22.663  27.587   1.781
44866W        W17934  43.542  35.147  13.773
44867W        W17935  13.721  24.034   0.878
44868W        W17936  36.455  41.202   2.282
44869W        W17937  23.980  29.690   2.490
44870W        W17938  33.001   2.863   3.554
44871W        W17939  34.938  35.904  14.913
44872W        W17940  10.728  11.393  11.887
44873W        W17941  29.942  18.592  14.867
44874W        W17942   1.697  41.723  13.777
44875W        W17943  39.395   4.712  11.460
44876W        W17944   9.248  13.152  12.892
44877W        W17945  13.993   5.693   1.312
44878W        W17946   6.902  11.452  11.472
44879W        W17947   6.158   0.912   4.462
44880W        W17948  34.136  42.848  12.108
44881W        W17949  17.599  38.955   3.341
44882W        W17950  39.091  13.110  14.573
44883W        W17951  21.690   4.335   1.345
44884W        W17952  42.716  40.874   0.500
44885W        W17953  43.296  39.197  10.676
44886W        W17954  28.638  11.296  13.626
44887W        W17955  33.573  30.421  10.107
44888W        W17956  16.057  16.590  12.994
44889W        W17957  19.775   0.426  14.520
44890W        W17958  35.450  27.069   4.350
44891W        W17959  43.297  15.666   1.407
44892W        W17960   3.029  37.821  13.572
44893W        W17961  36.448  29.632   2.227
44894W        W17962  19.196  18.760   0.488
44895W        W17963  38.302   3.713   1.347
44896W        W17964  21.228  21.671   1.182
44897W        W17965  30.029  20.303   3.315
44898W        W17966  20.646  19.894   4.224
44899W        W17967   9.132  39.879   4.631
44900W        W17968   6.385  18.176   2.201
44901W        W17969  30.263  22.659   4.632
44902W        W17970  24.994  25.783   0.560
44903W        W17971  25.014  11.984   5.125
44904W        W17972  18.392  16.041   3.816
44905W        W17973   5.890   8.893  12.148
44906W        W17974  11.752  37.773  14.765
44907W        W17975  39.832  13.663  10.670
44908W        W17976   6.793  38.377  14.029
44909W        W17977  36.723  34.763  14.691
44910W        W17978  36.509   5.015  10.741
44911W        W17979  15.624   1.686   2.847
44912W        W17980  20.128  10.317   3.311
44913W        W17981  39.627  29.948  14.059
44914W        W17982  13.113  29.015   1.859
44915W        W17983  11.363  31.085  11.607
44916W        W17984  39.556  33.515   2.444
44917W        W17985  19.636  13.678  12.529
44918W        W17986  29.705  14.651   4.864
44919W        W17987   5.706  41.017  12.675
44920W        W17988  25.073  43.793   0.977
44921W        W17989  17.216   2.764  11.602
44922W        W17990   0.932  43.732   1.324
44923W        W17991  11.313   5.641   0.723
44924W        W17992   8.628  22.506   0.771
44925W        W17993  36.318   1.729  12.286
44926W        W17994  12.478  33.703  14.810
44927W        W17995  25.656  10.149   5.056
44928W        W17996  23.508  21.733   4.365
44929W        W17997   5.732  13.729   4.696
44930W        W17998  23.609  18.987   3.688
44931W        W17999  12.732   5.847   0.531
44932W        W18000   5.192  27.692   0.770
44933W        W18001  41.392  24.509  12.055
44934W        W18002  26.452  42.632  11.868
44935W        W18003   5.793  13.226   4.393
44936W        W18004  41.614  42.479   0.949
44937W        W18005  44.907  27.868   0.893
44938W        W18006  21.165   1.436  13.012
44939W        W18007  41.372  34.084   0.767
44940W        W18008  41.994  38.317   2.592
44941W        W18009  31.573  43.793  10.619
44942W        W18010  25.144  32.989   3.567
44943W        W18011  28.069  28.562  13.446
44944W        W18012  22.183  17.556   0.325
44945W        W18013  15.797  29.449   1.772
44946W        W18014  43.416  40.933  14.275
44947W        W18015  40.352  39.270   0.330
44948W        W18016  20.266   0.917   0.556
44949W        W18017   5.212  31.056  13.572
44950W        W18018  37.755  24.605   2.397
44951W        W18019   8.474  16.061   3.791
44952W        W18020  13.764  16.447  11.082
44953W        W18021  29.073   4.378  13.847
44954W        W18022  37.531  41.222   4.216
44955W        W18023  17.486  20.291   2.074
44956W        W18024  18.059  17.149   1.885
44957W        W18025   4.760  28.745  12.656
44958W        W18026  12.045  44.707  11.909
44959W        W18027  28.473  36.892  13.614
44960W        W18028  38.363  21.558   3.936
44961W        W18029  34.051   6.759   0.969
44962W        W18030  29.441  36.230  11.533
44963W        W18031  33.637  37.449   4.766
44964W        W18032  17.455  43.191  13.940
44965W        W18033  39.450   6.266   4.748
44966W        W18034   6.450  16.771   0.322
44967W        W18035  14.318  38.779   0.454
44968W        W18036  34.124  20.701   1.240
44969W        W18037  13.333  13.816   3.891
44970W        W18038  35.278  19.196   3.380
44971W        W18039  11.444  41.525  13.053
44972W        W18040  27.028   3.192   4.585
44973W        W18041   4.676  15.359   2.117
44974W        W18042  22.724  23.329   0.442
44975W        W18043  25.502   9.484  11.265
44976W        W18044  17.442  31.213   4.917
44977W        W18045  16.927   9.818   0.683
44978W        W18046   4.642  22.679   2.293
44979W        W18047  40.955  38.796  10.808
44980W        W18048  24.047   2.430   3.336
44981W        W18049  26.202  39.479  12.443
44982W        W18050   8.985  10.821   2.344
44983W        W18051  11.730  13.562   0.339
44984W        W18052  11.618  20.800   3.720
44985W        W18053  20.666  40.740  12.855
44986W        W18054  33.014  36.410  11.114
44987W        W18055  34.631  16.041  10.856
44988W        W18056  10.723  33.036   4.582
44989W        W18057  16.099  22.450   3.299
44990W        W18058  30.640   1.413  14.306
44991W        W18059  10.809  36.645   3.845
44992W        W18060  25.529  15.338   3.921
44993W        W18061   6.894  14.198   0.892
44994W        W18062  27.418  38.527  13.750
44995W        W18063   7.054  39.236  14.289
44996W        W18064  33.472   9.706  11.909
44997W        W18065  22.698  38.512  13.826
44998W        W18066  11.624  19.241   1.707
44999W        W18067   9.905   7.933  14.063
45000W        W18068  17.236  36.050  11.490
45001W        W18069   2.534  31.681   4.318
45002W        W18070  23.185  41.911   4.393
45003W        W18071  18.167  13.145   1.574
45004W        W18072  33.118  30.645   1.797
45005W        W18073  40.811  20.631  12.938
45006W        W18074   5.324  40.923   3.324
45007W        W18075  17.730  29.422  11.677
45008W        W18076  29.389  22.270  10.637
45009W        W18077  40.778  43.412  10.585
45010W        W18078  17.843  33.551  14.755
45011W        W18079  34.617  29.697  12.476
45012W        W18080  33.563  22.541   2.855
45013W        W18081  24.113  44.507  11.184
45014W        W18082  30.054  22.300   2.830
45015W        W18083  39.101  17.286  13.287
45016W        W18084  32.006  19.495  11.664
45017W        W18085  26.544  23.208  12.214
45018W        W18086  14.367  28.212   0.731
45019W        W18087  43.399   1.442  13.036
45020W        W18088  33.663   8.289  12.325
45021W        W18089  21.266  15.938   4.120
45022W        W18090  39.436  17.893   4.911
45023W        W18091  25.182  32.542  11.813
45024W        W18092  31.655  20.158   3.245
45025W        W18093  21.697   1.858   4.102
45026W        W18094   1.955  30.711   3.195
45027W        W18095   3.734  30.000  12.943
45028W        W18096   1.337  19.781  10.869
45029W        W18097  26.155   3.359   3.867
45030W        W18098   3.482   8.769   4.933
45031W        W18099   2.902   1.831  11.115
45032W        W18100  44.228   7.761  11.131
45033W        W18101  41.184  34.023  12.242
45034W        W18102  20.497  17.208   4.396
45035W        W18103  41.403  27.452   3.521
45036W        W18104   2.197   8.159   0.866
45037W        W18105  44.908  39.364   4.050
45038W        W18106  33.068  33.722  13.916
45039W        W18107  21.519   7.777   2.668
45040W        W18108  26.477   7.163   2.067
45041W        W18109  27.127  32.201  12.058
45042W        W18110   8.468  29.003   3.770
45043W        W18111  12.653   1.460   4.808
45044W        W18112  42.282  12.652  12.380
45045W        W18113  11.234  28.936   4.132
45046W        W18114  16.299  25.944   4.005
45047W        W18115  34.539  21.095   4.271
45048W        W18116  26.928  15.031   4.107
45049W        W18117   4.001   7.799   4.813
45050W        W18118  19.253  16.881  14.823
45051W        W18119   8.712  25.382   4.940
45052W        W18120   3.960  13.225  14.400
45053W        W18121  40.616  42.532  13.361
45054W        W18122  20.039  24.732  11.658
45055W        W18123  12.135  24.228  11.668
45056W        W18124  36.879  17.494  14.773
45057W        W18125  37.566  12.306  11.868
45058W        W18126  29.028   8.487   2.956
45059W        W18127  24.491  16.536   0.228
45060W        W18128  11.776  17.201  12.492
45061W        W18129  14.515  44.210   3.575
45062W        W18130  26.488  21.007  11.099
45063W        W18131   0.230  25.972  14.420
45064W        W18132   9.646  44.095  12.375
45065W        W18133  21.202   6.229  12.375
45066W        W18134  26.185  19.743  13.468
45067W        W18135   9.248  36.878  10.644
45068W        W18136  14.734  36.025   1.840
45069W        W18137  41.813   1.345  14.735
45070W        W18138   4.522  10.405   4.585
45071W        W18139  31.171   0.648  10.658
45072W        W18140  12.094   6.866   3.829
45073W        W18141  30.005  34.396   4.423
45074W        W18142  23.314  31.981   4.014
45075W        W18143  41.777  16.652  12.477
45076W        W18144  27.061  31.817  11.681
45077W        W18145  39.435  22.605   2.167
45078W        W18146   3.299   4.538   2.376
45079W        W18147  14.170   4.724   3.247
45080W        W18148  31.651  24.301   0.651
45081W        W18149  19.712  13.161   2.895
45082W        W18150   5.743  42.600   0.441
45083W        W18151  12.362  39.281  12.620
45084W        W18152   4.615  44.028   3.912
45085W        W18153  29.069   2.906   2.841
45086W        W18154  34.557  25.723  12.109
45087W        W18155  26.420  15.236  13.568
45088W        W18156  36.775  20.620   0.791
45089W        W18157   2.560  20.713   4.603
45090W        W18158   2.194  37.996  10.995
45091W        W18159  10.376   0.929   2.406
45092W        W18160  13.569   1.995   1.384
45093W        W18161  24.452  34.916   0.199
45094W        W18162  24.480  21.329   0.790
45095W        W18163  13.245  15.660   3.099
45096W        W18164   6.157  28.381   4.515
45097W        W18165  18.358  30.875  10.702
45098W        W18166  30.848  14.386   3.292
45099W        W18167   2.802  10.857   0.445
45100W        W18168  35.532   1.733  14.085
45101W        W18169  22.951  38.906  11.594
45102W        W18170  12.326   7.912   4.208
45103W        W18171  29.108  40.461   2.158
45104W        W18172   7.493   6.818  11.290
45105W        W18173   1.545  13.958   2.975
45106W        W18174  17.736  39.131   4.795
45107W        W18175  10.832   4.920   2.340
45108W        W18176  26.115  41.325  10.330
45109W        W18177  29.959  34.364  13.347
45110W        W18178  13.702   4.686   1.797
45111W        W18179  14.717  18.076  10.669
45112W        W18180  33.527  13.337  12.161
45113W        W18181   1.169  39.577   0.693
45114W        W18182  22.484  41.952   3.646
45115W        W18183   6.364  18.629   3.688
45116W        W18184   4.773  10.363  10.379
45117W        W18185  32.478  10.673  12.068
45118W        W18186  42.767  15.542  11.970
45119W        W18187   2.644  44.795  12.472
45120W        W18188  34.479  28.779   3.252
45121W        W18189   0.572  42.776  14.388
45122W        W18190  34.488  11.713   0.961
45123W        W18191  17.813  43.082  12.949
45124W        W18192  42.797  31.916   4.583
45125W        W18193  20.249  38.477   0.705
45126W        W18194   7.787   5.165   3.384
45127W        W18195  11.367  33.217   0.726
45128W        W18196  30.355   4.125  11.979
45129W        W18197  32.844   6.410   2.560
45130W        W18198  21.671  38.668  12.332
45131W        W18199  31.866  16.058   3.742
45132W        W18200  26.195  19.020   4.225
45133W        W18201  34.883  37.424  11.411
45134W        W18202   8.837  26.864  11.662
45135W        W18203  28.028  34.540   4.627
45136W        W18204  34.926  27.654   2.932
45137W        W18205   7.794  41.214  14.278
45138W        W18206  14.868  24.921  12.598
45139W        W18207   3.073   3.912   0.913
45140W        W18208  10.233  13.963   1.451
45141W        W18209  17.822  38.628   3.720
45142W        W18210  41.744  21.181  10.582
45143W        W18211  42.402  44.499  14.011
45144W        W18212  41.750  43.804   2.733
45145W        W18213  43.435  31.153  11.928
45146W        W18214   3.934  14.128   1.682
45147W        W18215  20.553   4.702  11.372
45148W        W18216   0.549  44.459   0.883
45149W        W18217  29.082  10.745  12.369
45150W        W18218  28.558   0.778  11.917
45151W        W18219  17.155  39.273  10.892
45152W        W18220  39.216  27.946  14.764
45153W        W18221  35.516   4.720  12.052
45154W        W18222  25.882  23.426  10.323
45155W        W18223   4.908   1.189  11.209
45156W        W18224  41.250  33.094  12.879
45157W        W18225  30.171  36.835   2.143
45158W        W18226  15.116   2.963   0.150
45159W        W18227  36.342  15.110  14.376
45160W        W18228  38.070  44.330   0.318
45161W        W18229  40.511  15.753   3.325
45162W        W18230   7.743  30.505   4.224
45163W        W18231   9.799  36.432   4.481
45164W        W18232  24.090   2.254   2.429
45165W        W18233  38.599  15.848  13.405
45166W        W18234   6.993  43.821   0.401
45167W        W18235  39.898  38.266   2.150
45168W        W18236   5.655  16.793  12.538
45169W        W18237  27.709  18.183  10.701
45170W        W18238  10.245  34.896  10.746
45171W        W18239   4.399   3.406   1.943
45172W        W18240  13.063  36.770  12.010
45173W        W18241   5.439   7.614  13.574
45174W        W18242  23.050  43.583   4.628
45175W        W18243  28.463  16.738   1.874
45176W        W18244  16.856   4.733  12.844
45177W        W18245  23.162   4.268  13.042
45178W        W18246  17.165  24.984  12.480
45179W        W18247  22.441  32.225   1.295
45180W        W18248  21.817  20.188   1.468
45181W        W18249  22.901   9.861   2.724
45182W        W18250  25.055   1.934   3.173
45183W        W18251  39.574   8.853   5.009
45184W        W18252  43.716  39.924  12.817
45185W        W18253  10.232  10.276   1.683
45186W        W18254   3.248  22.116  12.274
45187W        W18255  23.674  21.602   1.223
45188W        W18256  25.207  32.600   1.183
45189W        W18257  11.575   6.642  14.419
45190W        W18258  44.193   0.775   3.437
45191W        W18259  24.383  31.719   0.878
45192W        W18260  29.728  16.991  10.153
45193W        W18261  19.484  31.551   2.765
45194W        W18262  10.801  13.149   0.397
45195W        W18263  27.256  27.015   0.464
45196W        W18264  10.770   8.724   0.988
45197W        W18265  30.163  44.452  13.904
45198W        W18266   9.212  10.854  11.583
45199W        W18267  19.561  29.496  13.792
45200W        W18268  20.692  25.445  14.413
45201W        W18269   6.530  10.341  12.874
45202W        W18270   3.163  19.722  12.125
45203W        W18271   9.101  25.148  10.041
45204W        W18272   5.227  13.904  13.527
45205W        W18273   1.459  28.189  14.464
45206W        W18274  17.663  20.611  14.352
45207W        W18275   3.287   9.603   2.307
45208W        W18276  32.023  33.645   2.901
45209W        W18277  13.531  10.756   1.338
45210W        W18278  40.537   8.902   0.506
45211W        W18279  28.472   4.501   4.196
45212W        W18280  21.516  39.169  14.900
45213W        W18281  28.450  19.206  11.037
45214W        W18282  15.806  22.709   1.907
45215W        W18283  27.511   9.076   3.195
45216W        W18284  17.281  40.793   1.613
45217W        W18285  42.401   7.162   4.856
45218W        W18286  10.362  33.597  13.486
45219W        W18287  23.016  18.176   4.851
45220W        W18288  23.742  18.763   1.220
45221W        W18289   2.013  15.163  14.450
45222W        W18290   3.214  22.078   4.546
45223W        W18291  26.314  37.224  14.825
45224W        W18292  32.137  15.047  10.774
45225W        W18293   7.594  13.688   0.279
45226W        W18294   1.048  40.594  11.922
45227W        W18295  22.462  36.941  14.019
45228W        W18296  37.845  16.552   3.623
45229W        W18297  42.595  25.481  11.578
45230W        W18298  43.503  29.125   3.753
45231W        W18299  37.463  15.127  10.775
45232W        W18300  31.048   8.850  11.187
45233W        W18301  18.398   4.856  11.197
45234W        W18302   5.858   0.003   0.926
45235W        W18303  22.014   2.011   3.189
45236W        W18304   5.940  10.471   4.283
45237W        W18305  30.635  32.404   4.519
45238W        W18306   3.100  28.443   1.005
45239W        W18307   1.315  19.291   4.692
45240W        W18308  21.686  41.879   2.583
45241W        W18309  14.756  39.590  11.971
45242W        W18310   9.766  37.919  14.703
45243W        W18311   3.476  29.933   1.041
45244W        W18312  35.378  33.825   1.277
45245W        W18313  22.983  26.406   1.280
45246W        W18314  21.693  38.979   1.294
45247W        W18315  36.242  38.398  13.753
45248W        W18316  20.791   5.227  11.225
45249W        W18317   2.440  12.745  11.737
45250W        W18318  40.213  19.283  11.261
45251W        W18319  31.441  11.347  10.780
45252W        W18320  10.501  40.568  14.802
45253W        W18321   9.726   4.730   1.843
45254W        W18322  15.548  21.417  11.475
45255W        W18323  11.936  19.893   2.173
45256W        W18324  27.803   6.994  14.128
45257W        W18325  28.949  25.806  12.443
45258W        W18326  17.748  27.420   2.670
45259W        W18327  23.211  33.560  14.867
45260W        W18328   7.065   6.674  11.054
45261W        W18329  31.863   1.917  12.110
45262W        W18330  22.009   7.953   2.665
45263W        W18331   9.026  23.734   4.339
45264W        W18332  44.730   4.922  14.513
45265W        W18333  28.163  26.156   4.167
45266W        W18334  32.000  25.248  11.529
45267W        W18335  17.616   7.887  12.990
45268W        W18336  19.238  13.159   3.391
45269W        W18337   5.278  30.535  13.560
45270W        W18338  36.483  23.728  14.776
45271W        W18339  14.896  16.614  12.457
45272W        W18340   1.835  13.109  14.862
45273W        W18341  33.609  37.259   0.767
45274W        W18342  14.817  37.994  11.095
45275W        W18343  14.411  15.023   0.829
45276W        W18344  28.279   5.246  10.714
45277W        W18345  31.055  38.249   1.256
45278W        W18346   9.716   6.309  12.545
45279W        W18347  23.067  23.649  12.008
45280W        W18348  30.861  27.737   0.783
45281W        W18349  13.370   8.921  14.070
45282W        W18350   5.317  13.586   4.945
45283W        W18351  32.199  21.086  10.725
45284W        W18352  20.070   3.503   1.256
45285W        W18353  33.596  25.297   0.175
45286W        W18354  31.690  28.079   0.055
45287W        W18355  18.990  25.056   1.892
45288W        W18356  21.299  41.545   3.245
45289W        W18357  42.770  29.464  11.502
45290W        W18358  10.687   8.143  11.827
45291W        W18359  28.088  43.455   0.324
45292W        W18360  35.057  23.325   2.880
45293W        W18361   3.735   3.804   2.354
45294W        W18362  23.560  24.892   0.494
45295W        W18363   9.921  30.175  12.844
45296W        W18364  36.831  12.032   1.928
45297W        W18365   8.876  33.149   3.172
45298W        W18366  17.321  21.807   4.582
45299W        W18367   3.667  20.183  14.199
45300W        W18368  39.384   3.016   1.995
45301W        W18369  18.009  13.105  10.637
45302W        W18370   3.704  11.207  12.409
45303W        W18371  24.294  17.862  12.978
45304W        W18372  24.482  23.317  12.042
45305W        W18373  27.466  22.580  14.848
45306W        W18374  33.365   4.527   5.164
45307W        W18375   3.885   2.904   3.428
45308W        W18376  41.021  33.425   2.180
45309W        W18377  43.946  21.123   0.864
45310W        W18378   8.745   8.475   3.025
45311W        W18379  17.488   8.845   2.745
45312W        W18380  26.466  42.591  14.131
45313W        W18381  27.046  44.290   4.515
45314W        W18382  37.442  11.876   3.272
45315W        W18383   4.610   6.058  11.416
45316W        W18384  27.986  30.907  11.146
45317W        W18385   8.160  36.850  10.610
45318W        W18386  34.941  22.021  14.945
45319W        W18387  29.459  19.105   3.241
45320W        W18388  27.998   1.803   2.314
45321W        W18389  27.881  10.074   2.689
45322W        W18390  25.164  13.519   1.460
45323W        W18391  38.513   2.949   1.917
45324W        W18392  38.430  32.026  13.965
45325W        W18393  14.600   9.315   0.485
45326W        W18394  25.766  13.275   2.747
45327W        W18395  12.067  21.152   4.579
45328W        W18396  18.079  19.768  13.391
45329W        W18397  39.399  42.963  10.942
45330W        W18398   9.969  18.830   0.784
45331W        W18399  14.278  30.506   0.330
45332W        W18400  16.795  18.130  14.805
45333W        W18401  41.228  35.379  10.837
45334W        W18402   7.869  35.157   1.208
45335W        W18403  41.990  22.522  10.698
45336W        W18404  40.079   1.829   1.742
45337W        W18405  17.659  29.036  11.001
45338W        W18406  18.228  39.290   4.827
45339W        W18407  43.824  19.138  12.892
45340W        W18408  14.811  12.158  10.944
45341W        W18409  31.568  35.823  11.284
45342W        W18410   8.315  23.364  13.090
45343W        W18411  16.800  43.323   1.102
45344W        W18412  21.033  24.794   2.640
45345W        W18413  37.428  29.153  13.401
45346W        W18414  27.927  20.006   3.373
45347W        W18415   1.201  12.991  11.824
45348W        W18416   9.119  22.587   0.645
45349W        W18417  25.577  28.405  14.574
45350W        W18418  37.870  17.219  12.481
45351W        W18419  29.498  32.496   0.415
45352W        W18420  38.336  29.304   0.954
45353W        W18421  24.203  12.320   1.501
45354W        W18422  27.885  21.136  12.747
45355W        W18423   0.824   8.125   1.026
45356W        W18424   9.935  14.174   2.830
45357W        W18425  17.734  16.803   4.067
45358W        W18426  10.907   4.458  14.318
45359W        W18427  29.653  33.466   5.140
45360W        W18428  35.740   2.876   1.395
45361W        W18429  14.746  34.916   1.861
45362W        W18430   6.439  38.798   1.609
45363W        W18431  41.207  38.879   2.153
45364W        W18432   9.198  24.588   4.351
45365W        W18433  24.277  33.881   0.290
45366W        W18434  13.271   5.924  10.432
45367W        W18435  26.026  15.619   4.994
45368W        W18436  30.927   9.824   1.338
45369W        W18437  42.922   5.606   4.270
45370W        W18438   0.284  33.699  12.152
45371W        W18439   4.179  29.051   1.842
45372W        W18440   5.456   7.867  12.667
45373W        W18441  38.430  21.498   0.805
45374W        W18442  13.329  23.434  10.664
45375W        W18443  28.911  15.052  11.838
45376W        W18444  10.272   3.368  13.805
45377W        W18445  10.658   2.511   0.087
45378W        W18446   4.783  20.283   4.364
45379W        W18447  38.591  40.279  13.624
45380W        W18448  17.549  39.500   5.156
45381W        W18449  41.418  33.566  13.032
45382W        W18450  24.583  41.600   0.319
45383W        W18451  18.896  29.453  13.601
45384W        W18452  19.970  39.833  11.976
45385W        W18453   2.439  28.084   4.963
45386W        W18454   7.116  17.271  12.418
45387W        W18455  13.075  31.683   3.411
45388W        W18456   1.009  11.203   1.411
45389W        W18457   2.056  26.525   2.201
45390W        W18458  16.141  26.744  11.618
45391W        W18459   3.348  27.361  12.178
45392W        W18460   2.214   5.128  14.327
45393W        W18461  17.608  42.451   3.755
45394W        W18462  15.330  11.156  13.373
45395W        W18463  36.952  31.664   1.272
45396W        W18464  17.153  23.602  13.337
45397W        W18465  39.988  42.440  14.158
45398W        W18466   3.141  24.528   2.695
45399W        W18467  41.592  15.196  10.676
45400W        W18468  26.161   3.751  12.896
45401W        W18469   4.862  20.070   1.432
45402W        W18470  26.088  11.899   0.514
45403W        W18471  37.532  42.433  12.119
45404W        W18472   5.268   7.197   4.083
45405W        W18473  19.563  23.234  12.813
45406W        W18474  18.773  42.747  12.949
45407W        W18475  33.602  27.674  10.377
45408W        W18476  12.902  37.185  13.387
45409W        W18477  20.196  19.050   1.895
45410W        W18478  40.436  21.816  12.442
45411W        W18479  17.919  16.081  11.436
45412W        W18480  36.988   6.287   2.609
45413W        W18481   2.953  31.723   0.792
45414W        W18482   1.228  40.284   2.505
45415W        W18483  17.264   5.638  13.075
45416W        W18484  44.345  27.479   1.613
45417W        W18485  33.252  38.448   2.198
45418W        W18486  18.314  22.436   0.864
45419W        W18487   0.504  13.479   1.140
45420W        W18488  32.951  28.105  12.528
45421W        W18489  29.098  15.132  10.469
45422W        W18490  34.435  21.573   1.807
45423W        W18491   9.182  12.261   4.516
45424W        W18492   9.277   6.897   1.190
45425W        W18493  11.797  21.320  13.991
45426W        W18494  32.103  37.405   1.421
45427W        W18495  20.027   9.817   4.119
45428W        W18496  21.555  27.934  12.806
45429W        W18497  21.226  31.215  14.605
45430W        W18498  14.353  39.343   1.084
45431W        W18499  21.198  37.433  14.923
45432W        W18500  28.562  36.965  12.124
45433W        W18501   8.237  17.206   0.178
45434W        W18502   7.283  36.338  13.049
45435W        W18503  37.418  39.222   3.145
45436W        W18504   5.788  30.096  14.815
45437W        W18505   7.803  29.858   3.921
45438W        W18506  29.472  34.715  13.900
45439W        W18507  11.121  25.537  10.351
45440W        W18508   2.371  13.595   2.226
45441W        W18509  15.249  16.863  11.694
45442W        W18510   7.207  35.466  13.082
45443W        W18511   6.274  42.084   4.837
45444W        W18512  27.043  31.985  11.166
45445W        W18513   4.239  26.760  13.434
45446W        W18514  38.394  12.727  13.362
45447W        W18515  10.704  31.119   4.444
45448W        W18516  15.050  32.531  10.622
45449W        W18517  24.180   5.804   3.872
45450W        W18518  13.240   3.842  14.412
45451W        W18519  15.997  16.893   0.001
45452W        W18520  35.740  27.433   4.616
45453W        W18521  22.854  39.123   4.168
45454W        W18522  13.273   8.440   4.090
45455W        W18523  39.810   1.366  14.878
45456W        W18524  38.118  20.552   3.175
45457W        W18525  24.863  32.722  11.455
45458W        W18526  15.653  28.661   1.920
45459W        W18527  40.036  25.178  11.369
45460W        W18528   1.930   9.810  14.898
45461W        W18529  40.976   3.802   1.952
45462W        W18530  10.905  15.396  13.851
45463W        W18531   4.267  21.145   4.151
45464W        W18532  28.224  17.705  12.610
45465W        W18533  11.650   8.858  14.827
45466W        W18534  37.883  11.623   0.893
45467W        W18535   5.906  17.295   3.891
45468W        W18536   7.801  16.066   4.593
45469W        W18537  33.320   9.785  14.246
45470W        W18538  14.082  28.155  13.532
45471W        W18539  33.949  15.530   1.744
45472W        W18540  43.788  17.044  12.124
45473W        W18541  26.795  30.453  10.291
45474W        W18542   9.834  19.177  12.978
45475W        W18543  30.913   3.175   2.852
45476W        W18544  28.388  21.664  11.263
45477W        W18545  20.943  28.572   1.467
45478W        W18546  12.578  15.315   1.635
45479W        W18547  40.575   3.697  10.726
45480W        W18548  34.062  14.140   1.373
45481W        W18549  27.081  35.395  12.922
45482W        W18550  40.289  18.318   0.339
45483W        W18551  21.612   6.170  12.708
45484W        W18552  33.819  35.975   1.106
45485W        W18553   4.153  36.324   0.496
45486W        W18554   0.538  15.900  13.535
45487W        W18555   3.136  17.461  10.654
45488W        W18556  26.615  16.447   4.042
45489W        W18557  35.040   6.927   4.677
45490W        W18558  12.122  43.842  10.934
45491W        W18559  37.277  29.498  14.796
45492W        W18560  28.455  11.959   3.869
45493W        W18561  32.561  33.845  13.587
45494W        W18562  19.196  35.537   0.723
45495W        W18563   6.840  41.915  14.373
45496W        W18564  39.834  22.620  12.067
45497W        W18565  34.916   7.391  11.714
45498W        W18566  43.093  44.774  12.098
45499W        W18567  26.064  14.163  11.653
45500W        W18568  21.488  25.224  11.602
45501W        W18569  12.274  21.702  14.555
45502W        W18570  12.941   6.877   4.122
45503W        W18571  22.842   3.749   3.188
45504W        W18572  44.014  25.375  12.169
45505W        W18573  42.245  18.345   3.627
45506W        W18574  20.125  39.294   4.571
45507W        W18575   1.976  40.359  14.045
45508W        W18576  29.748  31.812   1.161
45509W        W18577  40.962  35.901   0.496
45510W        W18578  28.558   1.212  12.203
45511W        W18579  32.358  36.606   4.161
45512W        W18580  21.853  40.411  14.367
45513W        W18581   1.372  37.540   1.679
45514W        W18582  21.150   1.642   1.383
45515W        W18583  30.566   2.985   4.652
45516W        W18584   7.329  42.002  13.116
45517W        W18585   3.148  44.446   4.155
45518W        W18586   7.232  38.549  12.330
45519W        W18587  32.027   6.049  13.374
45520W        W18588  18.618  12.356   3.248
45521W        W18589  44.070  22.650  11.273
45522W        W18590  43.487  41.259   1.244
45523W        W18591   1.235  40.054  13.487
45524W        W18592   7.871  19.987   1.782
45525W        W18593  12.356  20.702  13.430
45526W        W18594   9.497  35.547   0.676
45527W        W18595  29.444  36.874  14.542
45528W        W18596  32.059   7.293  12.797
45529W        W18597  21.004  25.546  11.188
45530W        W18598  22.298   5.745   2.818
45531W        W18599  36.618  20.739   2.379
45532W        W18600  42.777  19.319  11.251
45533W        W18601  18.529  15.526   1.474
45534W        W18602  19.095   0.241  10.920
45535W        W18603  28.135   4.524  11.186
45536W        W18604   5.784   5.224  12.464
45537W        W18605   5.249  19.310  14.448
45538W        W18606  33.153  17.089  11.865
45539W        W18607   0.182  23.368   4.089
45540W        W18608  32.362  28.118   2.131
45541W        W18609  10.422  32.859  13.940
45542W        W18610   6.923  16.022   0.500
45543W        W18611  44.560  37.091   0.884
45544W        W18612  40.493  42.350   3.668
45545W        W18613  20.873  10.695   2.404
45546W        W18614  11.909  11.786   5.030
45547W        W18615  44.339   7.247   3.784
45548W        W18616  29.087  25.584  10.545
45549W        W18617  43.019  19.517  10.460
45550W        W18618  35.142  30.102  12.090
45551W        W18619  22.096  37.921  13.034
45552W        W18620  21.479   7.433   3.607
45553W        W18621  20.174  42.638  10.620
45554W        W18622  41.369  37.913  13.048
45555W        W18623  37.097   4.369  13.069
45556W        W18624  23.156  38.378   2.557
45557W        W18625  40.288  15.524   2.447
45558W        W18626  15.083   3.493   0.420
45559W        W18627   1.396  37.485  14.744
45560W        W18628  35.910  43.301   3.653
45561W        W18629   0.366  43.377  10.615
45562W        W18630  13.726  38.072  13.320
45563W        W18631  31.599  12.931   2.739
45564W        W18632  12.977  13.609  10.613
45565W        W18633  25.989  26.141   3.701
45566W        W18634  27.124  28.537  10.756
45567W        W18635  16.137  42.777   4.620
45568W        W18636  25.894  12.582   1.734
45569W        W18637   7.695  12.218   1.450
45570W        W18638  23.431   5.284   3.737
45571W        W18639   6.909  11.084  12.393
45572W        W18640  15.250   0.066   3.272
45573W        W18641  23.359  10.395  13.386
45574W        W18642  21.367  10.451  13.471
45575W        W18643  37.294  23.519   4.023
45576W        W18644   0.004   8.683  10.594
45577W        W18645  34.494  24.015   3.595
45578W        W18646   2.808  32.976   3.859
45579W        W18647  38.589   0.716  13.451
45580W        W18648  22.188  36.087  11.941
45581W        W18649  25.245  14.029   1.325
45582W        W18650  32.147  36.526  10.624
45583W        W18651  12.330   8.195  14.423
45584W        W18652  16.579  18.650   2.171
45585W        W18653  23.604   0.954   0.773
45586W        W18654  24.086  23.124   2.335
45587W        W18655  21.165  37.412   4.772
45588W        W18656  30.955  34.826  13.334
45589W        W18657  36.647  43.239  13.345
45590W        W18658   4.803  22.748   2.777
45591W        W18659  37.133   2.014  10.719
45592W        W18660   3.206  41.363  12.475
45593W        W18661   3.379  23.934   1.155
45594W        W18662  10.667  28.339  14.370
45595W        W18663  12.186   6.399  10.701
45596W        W18664  36.711  41.561  11.191
45597W        W18665   5.222   0.866  13.861
45598W        W18666  20.082  22.021  11.094
45599W        W18667  36.242  28.879  14.427
45600W        W18668  32.557  37.006  14.307
45601W        W18669  23.653  17.655   4.057
45602W        W18670  39.084   4.295   4.566
45603W        W18671  21.706  44.810  10.111
45604W        W18672  29.446  16.392  11.485
45605W        W18673  43.461  15.734   3.166
45606W        W18674   8.096   7.357   1.118
45607W        W18675  29.709   1.810   0.480
45608W        W18676  15.019   2.143   2.397
45609W        W18677   6.505  39.467  11.387
45610W        W18678  27.851   1.772  13.906
45611W        W18679  10.569  24.021  12.339
45612W        W18680  10.503  43.570   4.176
45613W        W18681  37.210  12.311  12.762
45614W        W18682  14.026  21.275   1.309
45615W        W18683  19.105  38.303  11.198
45616W        W18684  10.658  12.747   3.039
45617W        W18685  13.545  33.993  11.573
45618W        W18686  11.265  33.032  13.856
45619W        W18687  14.112  32.317  11.821
45620W        W18688  29.665  41.664  13.054
45621W        W18689  33.020  11.878   2.804
45622W        W18690  31.668  19.641   4.013
45623W        W18691  44.972  29.684   3.981
45624W        W18692  14.649  26.843   3.287
45625W        W18693   2.108   5.425   0.781
45626W        W18694  15.739  11.883   4.186
45627W        W18695  11.072  15.335   1.804
45628W        W18696  44.509   0.407  12.055
45629W        W18697   7.693   0.214   2.149
45630W        W18698  30.065  17.688  14.544
45631W        W18699  21.058  14.676   3.628
45632W        W18700  28.694   5.389   3.858
45633W        W18701   1.341  31.565  12.532
45634W        W18702  37.565  28.490  10.619
45635W        W18703   4.176  21.344  14.161
45636W        W18704  14.301  19.205   3.914
45637W        W18705  20.112   9.139   1.645
45638W        W18706  15.714  11.146   2.124
45639W        W18707  15.832   9.516  11.102
45640W        W18708  43.408  41.304   0.233
45641W        W18709  23.945  16.828   1.369
45642W        W18710   1.692  36.121  14.393
45643W        W18711  17.483   0.374   4.157
45644W        W18712  11.993  44.730  13.087
45645W        W18713   2.229  39.742  13.673
45646W        W18714  10.368   8.734  11.594
45647W        W18715  43.058  18.251   4.172
45648W        W18716  37.428  10.157  10.256
45649W        W18717  18.575  20.731   1.491
45650W        W18718  29.487  30.732   0.728
45651W        W18719  26.837  15.685   4.481
45652W        W18720  35.949   7.414   1.738
45653W        W18721  19.953  41.093  14.292
45654W        W18722  23.752   1.464   3.612
45655W        W18723  29.496  12.806  13.595
45656W        W18724  41.518  44.006  12.132
45657W        W18725  38.934   2.914   2.273
45658W        W18726  26.912  14.811  14.836
45659W        W18727  39.352   2.432   3.309
45660W        W18728  21.553   0.588  10.208
45661W        W18729  38.091  29.455   3.789
45662W        W18730  34.745  21.082  12.117
45663W        W18731   2.509  43.221   3.497
45664W        W18732  34.676  44.194  13.093
45665W        W18733  30.943  13.233  14.861
45666W        W18734  15.237  18.353   4.647
45667W        W18735  13.214  32.008  14.647
45668W        W18736  24.214  16.686   2.306
45669W        W18737  25.558  35.634   0.561
45670W        W18738  13.842  33.078  14.042
45671W        W18739  10.662  20.421  13.161
45672W        W18740  17.118  22.003   0.350
45673W        W18741  33.059  26.735   3.158
45674W        W18742  38.737  14.229   2.122
45675W        W18743  34.877   2.789  12.787
45676W        W18744  15.454   9.572  12.025
45677W        W18745   7.811   6.424   3.598
45678W        W18746   3.913  37.503  10.565
45679W        W18747   7.375  22.672   2.796
45680W        W18748  40.411  24.237  11.548
45681W        W18749  39.153  32.510  13.234
45682W        W18750  24.379  26.470   4.164
45683W        W18751  12.126   5.858   2.315
45684W        W18752  11.868  19.201  13.083
45685W        W18753   7.179  23.611   2.124
45686W        W18754  24.118  40.517  13.566
45687W        W18755   0.777  43.062   1.867
45688W        W18756  44.370   2.580  10.574
45689W        W18757   7.687  30.434  13.490
45690W        W18758   6.907  25.182   1.838
45691W        W18759   2.750  33.591   2.656
45692W        W18760  29.406  11.661  12.593
45693W        W18761  11.250  32.115   3.131
45694W        W18762   4.759  33.490  11.557
45695W        W18763  38.970  43.055  11.181
45696W        W18764  25.137  43.467   4.805
45697W        W18765   6.172   9.671   3.822
45698W        W18766  39.320   7.628   3.201
45699W        W18767   4.806  30.941  12.893
45700W        W18768  17.787  10.400  12.160
45701W        W18769  24.425  21.632  11.499
45702W        W18770  34.263  12.157  14.995
45703W        W18771   1.741  12.166   1.804
45704W        W18772  37.036  17.701  10.742
45705W        W18773   3.663  22.353   4.377
45706W        W18774  13.821  37.681   2.430
45707W        W18775  31.805  33.597   3.762
45708W        W18776   4.681  23.564   2.161
45709W        W18777  22.228  17.582  12.437
45710W        W18778  33.407  43.050   1.341
45711W        W18779   3.474   4.666   3.755
45712W        W18780  34.642  30.096  10.648
45713W        W18781  41.872   1.860   4.951
45714W        W18782  18.182   9.624  14.935
45715W        W18783   6.965   1.006   2.468
45716W        W18784  40.306   9.106  13.760
45717W        W18785  18.662  18.802   3.750
45718W        W18786  34.614  33.337  10.314
45719W        W18787  13.771  32.348   3.767
45720W        W18788  35.592  35.970   2.971
45721W        W18789  36.020   1.467  11.588
45722W        W18790   1.198  42.074  11.851
45723W        W18791   9.764  20.498  11.196
45724W        W18792  41.702   0.379   4.611
45725W        W18793  25.030   4.815  14.469
45726W        W18794  20.946   5.218  12.051
45727W        W18795   4.462   8.392   5.012
45728W        W18796  23.301  38.321  11.181
45729W        W18797  29.943   7.777  11.680
45730W        W18798  24.974  37.036   3.088
45731W        W18799  19.237  29.615   0.365
45732W        W18800  28.914   5.135  13.341
45733W        W18801  12.588  37.875  13.954
45734W        W18802  21.233  23.833  12.911
45735W        W18803  26.941  41.370   2.243
45736W        W18804   3.938  26.946  14.884
45737W        W18805  23.953  28.613  10.834
45738W        W18806   5.464   0.320   1.027
45739W        W18807  12.372  27.572  10.569
45740W        W18808  37.307  11.749  10.694
45741W        W18809  32.432   7.420  11.555
45742W        W18810  22.315  21.503   2.012
45743W        W18811   6.223  18.311  13.304
45744W        W18812  21.121   2.331   5.149
45745W        W18813  13.565  22.541  12.978
45746W        W18814   5.477   7.137  12.086
45747W        W18815  41.912   4.405  14.690
45748W        W18816   7.398  39.279   3.239
45749W        W18817  25.065   2.748  12.866
45750W        W18818   0.240  16.735   2.180
45751W        W18819  29.398   5.985  12.323
45752W        W18820  41.260  25.008  11.988
45753W        W18821  29.211  43.973   1.452
45754W        W18822  12.343  26.022   3.327
45755W        W18823   4.815  28.984   4.222
45756W        W18824  43.854  34.520   1.225
45757W        W18825  44.338  27.853   1.209
45758W        W18826  12.273  22.481  13.096
45759W        W18827  19.546  18.151  14.254
45760W        W18828  26.633  11.291   1.079
45761W        W18829   1.991  34.989  10.699
45762W        W18830   5.896   8.183   1.152
45763W        W18831  15.801  19.768   1.858
45764W        W18832  44.863  26.275  14.617
45765W        W18833   0.832   1.252  12.679
45766W        W18834  22.475   4.147   0.012
45767W        W18835  11.692   4.148  13.810
45768W        W18836  27.980   3.476   0.862
45769W        W18837  19.561  34.507   3.360
45770W        W18838  25.897  23.091  14.313
45771W        W18839   4.809   4.905   1.396
45772W        W18840  34.520   5.305  11.154
45773W        W18841  33.501   7.911  11.488
45774W        W18842  21.270  12.064  11.253
45775W        W18843  17.433  38.951   0.316
45776W        W18844  17.322  21.603   4.113
45777W        W18845  14.019  35.642  12.047
45778W        W18846   7.262  34.608   3.205
45779W        W18847  17.035  32.071   4.612
45780W        W18848  21.552  27.740   3.840
45781W        W18849  34.575  34.072  10.632
45782W        W18850   8.326  23.575   0.336
45783W        W18851  24.126  38.926  13.490
45784W        W18852  28.858   2.187  12.947
45785W        W18853  11.284  17.543   2.203
45786W        W18854  27.042  34.545  13.551
45787W        W18855  38.013  24.758  12.977
45788W        W18856   5.136  23.121  13.818
45789W        W18857  19.833  31.981   1.030
45790W        W18858  24.916  28.022  13.833
45791W        W18859  27.323  24.509  13.897
45792W        W18860  32.917  12.309  12.998
45793W        W18861  36.005  43.625   3.233
45794W        W18862  21.532  20.194  13.477
45795W        W18863   1.461   8.487  11.146
45796W        W18864   0.739  26.776   2.705
45797W        W18865  13.456  44.805   4.610
45798W        W18866   4.256  34.331  13.990
45799W        W18867  18.900   4.535  10.508
45800W        W18868  24.204  10.783  12.413
45801W        W18869  11.391  10.797   0.245
45802W        W18870  30.108  11.274  12.628
45803W        W18871  15.921  13.815   4.167
45804W        W18872  28.023   8.837   2.183
45805W        W18873   7.394   9.574   2.320
45806W        W18874  10.976  12.828   3.859
45807W        W18875  23.321  31.894  10.764
45808W        W18876  28.549   3.913  11.941
45809W        W18877  16.207  20.090  12.387
45810W        W18878  13.235  13.908   4.389
45811W        W18879  39.513   6.749  14.821
45812W        W18880  21.576  28.961  11.913
45813W        W18881  19.203  28.666  13.414
45814W        W18882  32.136  39.508  13.911
45815W        W18883  34.659  40.059  12.075
45816W        W18884  22.176  33.716  12.936
45817W        W18885  16.731  26.070   0.342
45818W        W18886  20.601  17.602   2.647
45819W        W18887  30.107  31.554   4.628
45820W        W18888  17.732  15.797   4.142
45821W        W18889  30.379  24.546  12.405
45822W        W18890   8.481  11.819  11.078
45823W        W18891  23.468  35.007   0.037
45824W        W18892   2.611  42.488  13.013
45825W        W18893  12.265  37.054   4.211
45826W        W18894   6.808   4.223  11.661
45827W        W18895  42.720  19.614   4.511
45828W        W18896  40.059  31.324   1.471
45829W        W18897   5.209  24.370   1.287
45830W        W18898  20.636   1.309   1.926
45831W        W18899  41.379  31.860   0.646
45832W        W18900  29.642  41.605  14.378
45833W        W18901  28.084   9.442   1.154
45834W        W18902   3.160  14.001   1.377
45835W        W18903  33.897   6.767  13.613
45836W        W18904  41.368  19.157   0.757
45837W        W18905  43.370  24.725  13.856
45838W        W18906  30.836   1.191  10.694
45839W        W18907  22.634   8.599   1.474
45840W        W18908   4.954   9.408   2.460
45841W        W18909   0.929  10.749  11.075
45842W        W18910  13.533  40.354  12.248
45843W        W18911   6.649  24.515  11.706
45844W        W18912  12.447  33.416   4.163
45845W        W18913   8.203   7.156  12.921
45846W        W18914  11.147  24.497   3.438
45847W        W18915   3.963  17.310  12.113
45848W        W18916  18.399  27.244   3.318
45849W        W18917  21.681  10.648   0.296
45850W        W18918  32.157  28.297  11.236
45851W        W18919  34.553  14.733   1.757
45852W        W18920   7.246  37.756  13.828
45853W        W18921   7.278   4.397   3.250
45854W        W18922   1.300   8.727   2.610
45855W        W18923  17.146  17.855   4.642
45856W        W18924   3.425  25.068   0.582
45857W        W18925  23.756  19.136   1.872
45858W        W18926  25.656   2.552  11.069
45859W        W18927   2.760  15.325  14.842
45860W        W18928  19.493  18.703   1.740
45861W        W18929  19.828  39.929  14.226
45862W        W18930  12.107  14.355   0.748
45863W        W18931   6.331  30.326   1.040
45864W        W18932  18.009  41.469  11.167
45865W        W18933  15.055  43.374  13.965
45866W        W18934   1.397  31.967  13.483
45867W        W18935   6.714  44.856  14.589
45868W        W18936  25.141  29.097   3.655
45869W        W18937  12.331  34.962  12.829
45870W        W18938   6.025  14.143   2.397
45871W        W18939  42.850  36.731  11.731
45872W        W18940  30.595  20.854  14.499
45873W        W18941  42.354  44.946   3.939
45874W        W18942  10.700  10.764  13.892
45875W        W18943  32.016   8.115   4.539
45876W        W18944  38.630  15.652  14.491
45877W        W18945  33.645  39.090   3.723
45878W        W18946  11.419  32.695  11.585
45879W        W18947  29.168  40.580   1.290
45880W        W18948  42.257  25.018  13.925
45881W        W18949  11.330  22.130  11.787
45882W        W18950   2.277  32.097   2.209
45883W        W18951  35.571  36.284  14.008
45884W        W18952  41.792   5.289  14.896
45885W        W18953   6.677  29.538   0.942
45886W        W18954  16.626  44.869  10.650
45887W        W18955  15.872   7.182   2.369
45888W        W18956   7.870  18.545  12.850
45889W        W18957  11.241   3.778  12.867
45890W        W18958  20.566  16.602   3.581
45891W        W18959  19.165  39.858   0.455
45892W        W18960  34.682  12.551  13.065
45893W        W18961  35.438   2.251  12.474
45894W        W18962  19.908  13.853   0.969
45895W        W18963  16.681   7.440   4.327
45896W        W18964   2.247  13.637  11.657
45897W        W18965  21.423  29.974   4.223
45898W        W18966  36.529  17.176   3.727
45899W        W18967   5.472   0.506   1.518
45900W        W18968   4.344  15.372   1.442
45901W        W18969   9.774  39.929   1.467
45902W        W18970  11.641  43.412   1.778
45903W        W18971   5.910  30.748   2.476
45904W        W18972  42.780  40.360  10.450
45905W        W18973  30.002  36.614   1.710
45906W        W18974  20.673  34.674  12.003
45907W        W18975   9.376  27.978  10.503
45908W        W18976  11.192  15.254   4.338
45909W        W18977  18.985  11.501   3.379
45910W        W18978  31.406   9.242   1.922
45911W        W18979  36.829  30.435   0.634
45912W        W18980  28.022  37.140  14.358
45913W        W18981  39.554  28.744   0.238
45914W        W18982  14.316  19.598  13.364
45915W        W18983  13.053   2.785   1.034
45916W        W18984  13.706  37.238  12.990
45917W        W18985  41.234   9.832   0.357
45918W        W18986  27.694  25.169   3.182
45919W        W18987  25.196  12.379   2.608
45920W        W18988  20.981   7.951   0.770
45921W        W18989  44.367  38.070   1.663
45922W        W18990  28.674  13.325   4.509
45923W        W18991  39.996  21.028   1.409
45924W        W18992  20.222  31.027  10.732
45925W        W18993  37.306   2.959   0.772
45926W        W18994  33.882  10.726   1.892
45927W        W18995   6.975  29.962  13.373
45928W        W18996  38.276   6.224  13.387
45929W        W18997  34.474  13.990   0.142
45930W        W18998  21.627  10.166  14.388
45931W        W18999  25.533  17.564   4.196
45932W        W19000  36.920  37.522   4.110
45933W        W19001   5.720   0.611  12.110
45934W        W19002  26.887  24.652  12.115
45935W        W19003  33.585  36.978  12.168
45936W        W19004  30.943  41.344  13.564
45937W        W19005  38.912  36.392   2.260
45938W        W19006  34.729  31.590   3.633
45939W        W19007  36.937  43.480  11.866
45940W        W19008  26.821   1.969   2.910
45941W        W19009  22.649   4.325  12.935
45942W        W19010  43.407  43.747   2.431
45943W        W19011  35.180  21.690  13.418
45944W        W19012  27.203   6.421   0.534
45945W        W19013  29.983  12.917   3.874
45946W        W19014  11.667  36.080  14.112
45947W        W19015  30.710  18.592   4.064
45948W        W19016  17.163   8.779   1.081
45949W        W19017  44.530  44.373  10.993
45950W        W19018   2.236  37.434  12.142
45951W        W19019   8.838  29.825   4.692
45952W        W19020  36.786  35.126   1.358
45953W        W19021  29.514  40.012   0.313
45954W        W19022  40.164  15.938   2.786
45955W        W19023   1.893  18.625  11.445
45956W        W19024   5.967  25.733   3.174
45957W        W19025  42.573  40.114   4.278
45958W        W19026   6.786  15.680   3.693
45959W        W19027  38.934  34.129   0.843
45960W        W19028  20.233  26.019   0.214
45961W        W19029  33.961   0.863   4.908
45962W        W19030  32.597  39.447  14.902
45963W        W19031  21.631  37.535  11.152
45964W        W19032  32.744  30.417  10.657
45965W        W19033  36.543  27.329  14.184
45966W        W19034  43.581  19.744  11.069
45967W        W19035  31.249   4.023   3.739
45968W        W19036  44.442   2.850  14.684
45969W        W19037  28.690  23.892   4.046
45970W        W19038   9.694   3.356  14.574
45971W        W19039   7.913  31.427  14.269
45972W        W19040  36.581  42.557  11.279
45973W        W19041   0.981  35.405   2.373
45974W        W19042  16.508   0.881  14.499
45975W        W19043  29.030  42.535  10.976
45976W        W19044  25.029  42.952   0.345
45977W        W19045   0.228  37.479  13.325
45978W        W19046  37.734  33.013  10.005
45979W        W19047  31.931   8.509  14.956
45980W        W19048  29.210  19.676  12.065
45981W        W19049   2.245  43.719   2.666
45982W        W19050   4.791   4.388   4.211
45983W        W19051  34.102  34.593  13.981
45984W        W19052  43.932  43.446   0.535
45985W        W19053  22.756  14.553  13.436
45986W        W19054  29.862  11.781  14.526
45987W        W19055  10.147   2.307   2.217
45988W        W19056  39.820  12.255  12.616
45989W        W19057  22.798  33.354  12.177
45990W        W19058  12.919  33.214   4.179
45991W        W19059  12.419  26.367  14.268
45992W        W19060  15.121  13.248   3.900
45993W        W19061  42.571   8.945   1.682
45994W        W19062   4.315  23.232  14.240
45995W        W19063  27.186  33.147   4.121
45996W        W19064  19.976  40.281  10.719
45997W        W19065  37.864  24.818  10.267
45998W        W19066  44.316  35.008   4.768
45999W        W19067  15.391   7.784  14.912
46000W        W19068  26.727   0.995  13.716
46001W        W19069  22.068  26.214  13.589
46002W        W19070  12.867  22.103   4.585
46003W        W19071  27.493  28.897   4.895
46004W        W19072  43.826  36.334  12.964
46005W        W19073   3.894  37.121  14.240
46006W        W19074  41.588  19.147   4.854
46007W        W19075  18.378   1.467   2.846
46008W        W19076  24.380   6.177  14.940
46009W        W19077  31.364  34.958  10.986
46010W        W19078  34.952  32.943   2.983
46011W        W19079  14.260  26.474  11.237
46012W        W19080  28.203   2.798  11.880
46013W        W19081  18.027  13.633   0.286
46014W        W19082  34.092  23.045  13.320
46015W        W19083  40.559  25.086   1.013
46016W        W19084   3.781   3.246   1.686
46017W        W19085  44.729  23.543   3.067
46018W        W19086  24.688  23.226   4.104
46019W        W19087  13.659  15.624  12.605
46020W        W19088   8.141  36.665   1.294
46021W        W19089  26.119   3.371   4.386
46022W        W19090  42.039  39.940  10.815
46023W        W19091  19.705  37.508  11.659
46024W        W19092  43.396  37.963  14.737
46025W        W19093   7.478  34.693   2.751
46026W        W19094  36.978  39.040  13.114
46027W        W19095  37.532  27.096  12.722
46028W        W19096  16.157  25.719   2.293
46029W        W19097  16.848  30.234  11.149
46030W        W19098  34.716  27.990   3.876
46031W        W19099  29.976  44.931   1.178
46032W        W19100  39.977  23.622   3.187
46033W        W19101   9.205  10.746   0.293
46034W        W19102   0.403  13.121  14.910
46035W        W19103  13.072  22.325   4.115
46036W        W19104  20.927  17.865  12.400
46037W        W19105  15.219  26.070  10.471
46038W        W19106  29.859  10.302   2.898
46039W        W19107  13.138  41.029  14.927
46040W        W19108   9.772  18.506  13.803
46041W        W19109  43.324  16.260  11.139
46042W        W19110  40.944  16.708  13.276
46043W        W19111   2.995   2.363  11.398
46044W        W19112  39.735  10.228   0.564
46045W        W19113  37.228  14.224   1.801
46046W        W19114   0.375  19.629   5.026
46047W        W19115   8.716  30.699  11.997
46048W        W19116  11.951  21.636  13.176
46049W        W19117  23.989  41.671  12.534
46050W        W19118  30.869  18.247  12.910
46051W        W19119  12.358  26.672  10.609
46052W        W19120   0.246  35.269   2.065
46053W        W19121   9.853  42.007   2.421
46054W        W19122  17.579  34.536   2.400
46055W        W19123   0.233  20.167   4.957
46056W        W19124  40.593  33.066   4.188
46057W        W19125   8.388  12.556   4.180
46058W        W19126   8.608  42.976   2.632
46059W        W19127  35.424  30.135  13.541
46060W        W19128  34.866  10.986   2.334
46061W        W19129  20.605  25.526   2.444
46062W        W19130   6.980   4.336  12.993
46063W        W19131  12.838   3.669   0.866
46064W        W19132  40.858  18.614   3.450
46065W        W19133  21.473  15.373   4.627
46066W        W19134  19.420  41.956   4.848
46067W        W19135  18.502   7.754   4.172
46068W        W19136  18.007  27.586   3.386
46069W        W19137  31.552  38.566   1.963
46070W        W19138  29.403   1.932   1.281
46071W        W19139   0.296  17.655  13.558
46072W        W19140  13.798  35.988   1.973
46073W        W19141  39.538  37.722   9.941
46074W        W19142  34.367  33.892  12.953
46075W        W19143  22.621  20.290  12.993
46076W        W19144  14.216  37.001  13.756
46077W        W19145  19.844  12.705   4.216
46078W        W19146  19.137   0.821   3.622
46079W        W19147  24.461  13.793   3.677
46080W        W19148  22.045   7.331   1.348
46081W        W19149   4.535  43.480   0.422
46082W        W19150  28.123   2.421  13.478
46083W        W19151  11.450  16.535   2.271
46084W        W19152  35.642  23.048   1.356
46085W        W19153  20.156  14.380  11.231
46086W        W19154  43.208  35.833  11.208
46087W        W19155  13.105  27.396  12.803
46088W        W19156  34.471  16.541   1.459
46089W        W19157   3.854  28.044  11.621
46090W        W19158  40.553  17.531   3.114
46091W        W19159  21.022  30.917   4.138
46092W        W19160  21.735  26.160   4.792
46093W        W19161  31.467  22.661   1.938
46094W        W19162  21.919   2.887   3.800
46095W        W19163  22.740  23.742   3.659
46096W        W19164  38.051  15.762   1.824
46097W        W19165   3.973  15.786   2.119
46098W        W19166   1.791  26.006  12.352
46099W        W19167  20.989  10.944  11.173
46100W        W19168   9.262  40.032   1.399
46101W        W19169  42.474   9.599  11.137
46102W        W19170   1.436  29.079   4.520
46103W        W19171  27.485  39.045  13.787
46104W        W19172  41.381  32.418   1.381
46105W        W19173   9.725  26.618  12.530
46106W        W19174  42.462  37.075  13.414
46107W        W19175  28.465  19.628   1.203
46108W        W19176  42.252  17.120   4.515
46109W        W19177  33.444   0.821   5.045
46110W        W19178  12.609  15.847   0.361
46111W        W19179  39.483  15.197  12.094
46112W        W19180   5.217  40.814   0.256
46113W        W19181   9.884   6.317   3.153
46114W        W19182  40.149  19.597   2.640
46115W        W19183  25.811  23.461  13.472
46116W        W19184  29.568  32.956   0.747
46117W        W19185  35.420  43.203   4.596
46118W        W19186  33.558  17.210  13.075
46119W        W19187  15.006  27.578   2.362
46120W        W19188  14.619   6.822  13.283
46121W        W19189   3.326  27.861  12.316
46122W        W19190   2.439  33.513  14.831
46123W        W19191  35.058  28.119  11.137
46124W        W19192  35.562   7.089   3.817
46125W        W19193  42.883   5.268   0.383
46126W        W19194  10.918  16.843   3.324
46127W        W19195  35.472  12.335  12.008
46128W        W19196  16.813   8.800  11.526
46129W        W19197  13.406   8.809   0.418
46130W        W19198  22.160  14.772  11.473
46131W        W19199  25.413  26.677   0.316
46132W        W19200  26.609  20.037   5.236
46133W        W19201  41.410   1.025  10.210
46134W        W19202  22.233  25.480  14.883
46135W        W19203  17.045  38.424  10.937
46136W        W19204   0.000   5.845  11.818
46137W        W19205  25.953  40.607  14.931
46138W        W19206  13.164  10.019   3.167
46139W        W19207  17.200  29.004   2.779
46140W        W19208  40.801  31.500  12.840
46141W        W19209  32.281  23.962  14.077
46142W        W19210  35.633  15.259   3.256
46143W        W19211  33.839  29.087   1.252
46144W        W19212   6.243  31.773   0.325
46145W        W19213  16.903   0.287   1.327
46146W        W19214  31.613   1.780  11.166
46147W        W19215   8.606  14.612   1.792
46148W        W19216  31.811  33.368   4.714
46149W        W19217  27.531  44.474  12.444
46150W        W19218  36.004  37.778  11.132
46151W        W19219  32.100  15.309  14.515
46152W        W19220  27.599  18.541   0.578
46153W        W19221   6.383  35.332  13.268
46154W        W19222  27.778   8.690   4.929
46155W        W19223   7.152  10.655   2.791
46156W        W19224  13.894   7.458  11.335
46157W        W19225  35.263   8.418   2.451
46158W        W19226  22.049  28.025  13.357
46159W        W19227  43.005   4.553  13.603
46160W        W19228   2.923  18.772  14.458
46161W        W19229  18.911  12.824  13.459
46162W        W19230  12.844  34.987  12.990
46163W        W19231   3.885  44.285  10.697
46164W        W19232   3.736  38.108   0.736
46165W        W19233  14.169  29.417   4.106
46166W        W19234  36.271  40.015   0.669
46167W        W19235  35.160   4.268   0.413
46168W        W19236   2.398  11.804  13.009
46169W        W19237   1.496  39.957   3.830
46170W        W19238  33.638  30.192   4.001
46171W        W19239  43.972  38.324   1.876
46172W        W19240   7.850  44.996  11.232
46173W        W19241  10.859  41.124   4.126
46174W        W19242  15.118   7.407   0.658
46175W        W19243   0.473  35.643  10.809
46176W        W19244  21.232  14.184   3.585
46177W        W19245  37.497   9.395   4.297
46178W        W19246  31.687  26.418  12.408
46179W        W19247   5.315  21.830   4.513
46180W        W19248  30.095  32.930   4.060
46181W        W19249   9.781   6.909   4.130
46182W        W19250  23.629  39.117  13.449
46183W        W19251  15.793  29.536  12.488
46184W        W19252  16.782  41.872   1.409
46185W        W19253  38.426  36.284   3.129
46186W        W19254  10.574  34.957   4.702
46187W        W19255  22.276  44.164  12.941
46188W        W19256  22.264  32.589   3.228
46189W        W19257   1.001  41.405   4.218
46190W        W19258  20.000   7.862   2.448
46191W        W19259  38.525  27.151  12.969
46192W        W19260   2.190  42.823  12.396
46193W        W19261   3.261  26.823  13.336
46194W        W19262  37.659  18.039  12.145
46195W        W19263  36.581  43.962   2.377
46196W        W19264  11.093  29.628   0.371
46197W        W19265  25.706  44.495   4.615
46198W        W19266   1.357  35.857   4.881
46199W        W19267  20.231  20.738  11.496
46200W        W19268  10.308  42.208  13.912
46201W        W19269  35.905  41.899   3.376
46202W        W19270  16.995  34.541   5.202
46203W        W19271   1.781  32.533  13.088
46204W        W19272   2.422  17.283  13.460
46205W        W19273  39.098  44.731   3.206
46206W        W19274  33.525  27.486   4.176
46207W        W19275  16.843  34.408  12.612
46208W        W19276  14.974  25.038   1.429
46209W        W19277  38.046  20.008  13.035
46210W        W19278  10.557  32.942  10.789
46211W        W19279  43.953   6.789  12.092
46212W        W19280  22.005  35.316  13.741
46213W        W19281  42.801  28.629   4.535
46214W        W19282   7.933  34.739  13.904
46215W        W19283  32.477  15.303   2.814
46216W        W19284  36.861  24.775   4.534
46217W        W19285  20.192  13.886  13.091
46218W        W19286  40.961  20.286   2.061
46219W        W19287   7.486  39.804  12.532
46220W        W19288   9.288  40.772  14.422
46221W        W19289  28.367   6.837  13.973
46222W        W19290  13.789  30.901   2.331
46223W        W19291  10.811  26.027  11.205
46224W        W19292  15.262   9.989  10.462
46225W        W19293  20.242  24.261   3.664
46226W        W19294  38.148  32.998  10.795
46227W        W19295  27.551  12.597  11.852
46228W        W19296  39.421  34.102   3.708
46229W        W19297  16.646  40.966   0.793
46230W        W19298  43.835  12.505   0.277
46231W        W19299  30.867  13.483  13.319
46232W        W19300   3.960  17.884   3.593
46233W        W19301  11.793   2.450  12.524
46234W        W19302  36.944  36.418  13.939
46235W        W19303  34.121  41.888   4.063
46236W        W19304  34.220  31.015  13.913
46237W        W19305  12.487  20.270  14.589
46238W        W19306  36.257  20.561   0.792
46239W        W19307  31.823  33.658  11.140
46240W        W19308   4.260  27.918  12.697
46241W        W19309  31.740  15.250   2.199
46242W        W19310  37.397  41.064   2.922
46243W        W19311   3.336  14.504   0.362
46244W        W19312   5.902  35.352   0.635
46245W        W19313  25.142  11.433   2.445
46246W        W19314  36.834  21.834   3.739
46247W        W19315  43.160   0.729  10.804
46248W        W19316   8.732  39.100  13.606
46249W        W19317  15.323  41.037  11.149
46250W        W19318  38.594  38.466  10.558
46251W        W19319  34.498   0.307   2.746
46252W        W19320  41.779  37.573  14.513
46253W        W19321  29.633   6.944   3.645
46254W        W19322  28.641   2.715   3.168
46255W        W19323  37.079  20.745   3.187
46256W        W19324  33.666  25.579   1.813
46257W        W19325  23.661  40.455  13.346
46258W        W19326  33.037  40.787  11.154
46259W        W19327  15.610  37.647   1.255
46260W        W19328  13.014  31.524  14.716
46261W        W19329   7.486   4.868  14.581
46262W        W19330  38.390  25.117   0.046
46263W        W19331  32.894  30.151   2.455
46264W        W19332   6.041   1.124  13.781
46265W        W19333  32.059  35.064   4.572
46266W        W19334   1.877  37.955   2.633
46267W        W19335  13.178   9.186   4.567
46268W        W19336   8.101  10.241   9.886
46269W        W19337  37.988   0.065  13.390
46270W        W19338  12.711  14.884   1.883
46271W        W19339   0.904  22.152   3.388
46272W        W19340  27.678  24.065   0.802
46273W        W19341  23.715  44.225  12.768
46274W        W19342   7.575  17.658  13.321
46275W        W19343   2.352  19.133  13.876
46276W        W19344   2.842  12.023  11.084
46277W        W19345  41.539  20.630  11.587
46278W        W19346  27.659  31.268  14.788
46279W        W19347  20.711  41.494   0.232
46280W        W19348   0.512   6.642   1.916
46281W        W19349   5.683   2.981  12.032
46282W        W19350  33.825  21.259   0.027
46283W        W19351  34.051  38.279   0.527
46284W        W19352  17.158  17.211  10.433
46285W        W19353  31.096  38.120  14.005
46286W        W19354  42.811  15.327  11.089
46287W        W19355  11.145  40.290   0.791
46288W        W19356  12.155  25.478  12.385
46289W        W19357  18.659  39.417  13.363
46290W        W19358  25.597  26.451   3.169
46291W        W19359  19.666   5.713   0.544
46292W        W19360   0.742   4.036   2.278
46293W        W19361  31.076  23.249  13.893
46294W        W19362  36.257  28.234   2.467
46295W        W19363  41.356   3.200   1.411
46296W        W19364  32.954  40.967   2.715
46297W        W19365  33.004  37.102  13.294
46298W        W19366  33.947  29.625   2.467
46299W        W19367  40.439   7.875  10.019
46300W        W19368  43.710  26.517   4.160
46301W        W19369  21.350   7.044  11.765
46302W        W19370  25.593  20.054   1.505
46303W        W19371  37.836  13.580  11.662
46304W        W19372  42.944  24.507   4.167
46305W        W19373  18.783   4.386   4.611
46306W        W19374  36.083   6.306  12.360
46307W        W19375  37.057  24.427  12.716
46308W        W19376  20.570  41.590   4.712
46309W        W19377  32.863  31.160   4.461
46310W        W19378  10.686  17.064   9.973
46311W        W19379  32.352  34.164   1.366
46312W        W19380  14.878   6.795   0.751
46313W        W19381   4.897   3.307   1.437
46314W        W19382  11.135  38.317  14.031
46315W        W19383  11.668  16.191  13.144
46316W        W19384  31.117  14.061  13.839
46317W        W19385  16.656  27.893  14.830
46318W        W19386  26.146   8.208   1.402
46319W        W19387  38.803  32.021   2.347
46320W        W19388  28.586  22.935   4.516
46321W        W19389  28.491   8.094   2.349
46322W        W19390  23.719   1.352   4.632
46323W        W19391  10.718  33.350   4.142
46324W        W19392  29.496  40.970   4.220
46325W        W19393  13.064  34.013  10.761
46326W        W19394   6.245  17.277   4.272
46327W        W19395  43.190   0.985  11.262
46328W        W19396  25.635  11.631   2.595
46329W        W19397  10.080  28.151   1.965
46330W        W19398  42.978  16.779  13.890
46331W        W19399  35.953  36.375  11.393
46332W        W19400  33.006  43.408   3.313
46333W        W19401   5.940   6.183  14.494
46334W        W19402  44.014  39.856  10.694
46335W        W19403  36.257  17.320   3.264
46336W        W19404  32.173  37.024   0.180
46337W        W19405  33.023   5.181  13.599
46338W        W19406  36.812  20.697  14.421
46339W        W19407  10.630  23.139  13.373
46340W        W19408   2.846  23.178  13.035
46341W        W19409  22.668   4.609  10.769
46342W        W19410  29.473  44.707  12.434
46343W        W19411   7.410  40.908   2.862
46344W        W19412  41.976   2.950   2.281
46345W        W19413   7.273  20.743  12.002
46346W        W19414  38.522  37.082  11.505
46347W        W19415  11.425  36.480  10.251
46348W        W19416  29.662  22.105   3.546
46349W        W19417   2.696  16.030   4.597
46350W        W19418   3.855  36.438   4.758
46351W        W19419   8.400  17.373   4.363
46352W        W19420  16.612  38.927  11.894
46353W        W19421  25.892   9.313  10.956
46354W        W19422  36.808   1.127  11.942
46355W        W19423  15.268  41.387  14.949
46356W        W19424   4.919  21.998  11.522
46357W        W19425  34.082  37.772   1.399
46358W        W19426  23.418  21.469   2.944
46359W        W19427  20.472   1.672   2.273
46360W        W19428  41.451  11.591  12.132
46361W        W19429  12.811  10.464   4.973
46362W        W19430  44.882  23.669  10.854
46363W        W19431  32.022  37.371  13.324
46364W        W19432  18.622  37.104  11.082
46365W        W19433  39.001  16.695  13.797
46366W        W19434  25.087  43.007  11.213
46367W        W19435  37.933   1.998   2.270
46368W        W19436  13.915   8.533   0.446
46369W        W19437  43.526  36.940   3.292
46370W        W19438  29.104  26.420  14.795
46371W        W19439   9.316  34.728   4.237
46372W        W19440  30.617  39.625  11.301
46373W        W19441  26.239  39.860  13.273
46374W        W19442  13.977  19.741   1.808
46375W        W19443  19.486  34.465  13.144
46376W        W19444  27.558  25.435   3.695
46377W        W19445  26.710  31.330   3.425
46378W        W19446   6.857  21.719  14.260
46379W        W19447  10.808  33.975   1.974
46380W        W19448  12.664  33.874  11.057
46381W        W19449  38.674  28.953   3.985
46382W        W19450  33.550  17.196  12.187
46383W        W19451  16.318  30.379   4.933
46384W        W19452  22.312   7.383   2.265
46385W        W19453  18.694  19.070   2.266
46386W        W19454  25.956  10.773  11.657
46387W        W19455   3.721  32.203  12.517
46388W        W19456  11.054  12.708  14.327
46389W        W19457  32.750  33.029  11.167
46390W        W19458  41.949  20.325   2.187
46391W        W19459   5.862  38.064  11.415
46392W        W19460  31.899  18.976  12.582
46393W        W19461  24.197  19.612  12.293
46394W        W19462  23.716  18.784  11.526
46395W        W19463  36.066  42.521  12.107
46396W        W19464  32.962  39.939   0.481
46397W        W19465  25.980  42.294   3.802
46398W        W19466  36.318  44.476  11.214
46399W        W19467  43.113  19.151  13.171
46400W        W19468   2.414   2.461  12.090
46401W        W19469  18.333  16.398   0.005
46402W        W19470  11.158  37.428  12.974
46403W        W19471  16.198  39.912   2.865
46404W        W19472  32.487  33.678   2.236
46405W        W19473   9.808   3.867  14.570
46406W        W19474   8.565  38.898  11.017
46407W        W19475  14.682  10.826  14.341
46408W        W19476  20.317  31.540   4.050
46409W        W19477   6.244  36.916   3.452
46410W        W19478  40.234  21.048  10.699
46411W        W19479  20.183  27.919  11.276
46412W        W19480   7.831  42.997   0.737
46413W        W19481  34.671  21.260   1.461
46414W        W19482  39.432  14.763   4.003
46415W        W19483  32.319  12.133   1.260
46416W        W19484  41.032  12.136   1.422
46417W        W19485  43.396   2.694  11.526
46418W        W19486  13.916  31.905   4.514
46419W        W19487  34.075  38.924  10.349
46420W        W19488  35.806  13.956  13.365
46421W        W19489  13.825  39.465   0.262
46422W        W19490  31.227  20.057  12.010
46423W        W19491   4.197  41.427   4.348
46424W        W19492  16.652  20.185  10.909
46425W        W19493  20.271  31.766   3.399
46426W        W19494  30.495  22.113   2.613
46427W        W19495  13.289  29.951   4.312
46428W        W19496  26.566  30.964  13.594
46429W        W19497  11.741   4.007  10.949
46430W        W19498  22.130  31.093  10.583
46431W        W19499  38.799  27.047  14.176
46432W        W19500  22.029  14.708  10.976
46433W        W19501  33.390  14.274  13.954
46434W        W19502  32.897  25.043   1.647
46435W        W19503  24.073  28.600   4.923
46436W        W19504  43.567  32.678   4.694
46437W        W19505  19.282  43.195  13.900
46438W        W19506  18.882  18.572   2.349
46439W        W19507  18.096   6.257  13.188
46440W        W19508  39.266  13.133   0.463
46441W        W19509   0.380   8.282  14.078
46442W        W19510  18.021   4.498  12.635
46443W        W19511  32.616  19.099  11.581
46444W        W19512   8.329  27.188   4.572
46445W        W19513  40.840  27.073  13.400
46446W        W19514  17.516  10.380   4.013
46447W        W19515  31.633  39.686  11.131
46448W        W19516   8.653   4.676  11.851
46449W        W19517  26.715  17.563   0.707
46450W        W19518   0.017  18.719   2.543
46451W        W19519  22.455  43.726  13.130
46452W        W19520   6.609   9.217   1.828
46453W        W19521  22.613   1.228  13.860
46454W        W19522  43.313  23.251   3.701
46455W        W19523  21.095  33.841  14.009
46456W        W19524  32.917  13.633  10.839
46457W        W19525  17.053  18.055   3.260
46458W        W19526  24.170   6.726   3.665
46459W        W19527  43.807  38.069   2.470
46460W        W19528  34.452  10.734  10.976
46461W        W19529   6.064  40.904  11.192
46462W        W19530  41.491  44.518   0.378
46463W        W19531  10.044  32.572   4.707
46464W        W19532   8.409  16.762  12.593
46465W        W19533  32.011   8.629   2.223
46466W        W19534  25.796  28.461   4.083
46467W        W19535  42.501   8.283   3.667
46468W        W19536  17.768  34.356   1.423
46469W        W19537  26.202  14.697  12.454
46470W        W19538   8.507  20.827  11.595
46471W        W19539  41.367  35.328  12.103
46472W        W19540  30.561  30.234  11.206
46473W        W19541  11.628  25.400  13.559
46474W        W19542  21.963  39.974   0.450
46475W        W19543  12.658   8.136   0.384
46476W        W19544  22.690  30.478  12.981
46477W        W19545  40.304  10.103  13.873
46478W        W19546  26.392  22.453  13.562
46479W        W19547  24.048  29.609  14.579
46480W        W19548  42.963  15.585   3.543
46481W        W19549  34.268  31.853   3.280
46482W        W19550  24.991  13.469   3.612
46483W        W19551  37.936  23.175  12.150
46484W        W19552  36.310  10.448   4.335
46485W        W19553   3.838  13.653  11.538
46486W        W19554  22.698  11.095  13.007
46487W        W19555   3.512  14.214  11.514
46488W        W19556  29.993  21.759   4.195
46489W        W19557  40.220  34.116  13.129
46490W        W19558  28.103  21.327  11.973
46491W        W19559  24.087   1.677   0.435
46492W        W19560   6.051  35.222   9.831
46493W        W19561  15.103  35.629  11.253
46494W        W19562   2.319  11.634  11.692
46495W        W19563   3.035  20.091   2.141
46496W        W19564  31.924  25.543   4.108
46497W        W19565  35.933  27.338   3.718
46498W        W19566  20.928  28.638  13.500
46499W        W19567  42.800  14.269  13.992
46500W        W19568  41.543   1.074  11.922
46501W        W19569  31.865   8.162   4.057
46502W        W19570  32.346  13.775  11.528
46503W        W19571  19.019   8.743  11.664
46504W        W19572   8.554  15.787   2.351
46505W        W19573  39.828   0.201   4.076
46506W        W19574   3.823   6.390  11.545
46507W        W19575   7.374  31.154  11.480
46508W        W19576   4.392  13.594   2.354
46509W        W19577  19.761  28.799   0.329
46510W        W19578  14.788   4.182   4.916
46511W        W19579   7.029  27.189  13.846
46512W        W19580   3.848  23.197   1.092
46513W        W19581  41.845  38.266   4.587
46514W        W19582  43.305   3.702   0.493
46515W        W19583  25.575   5.990  10.682
46516W        W19584  35.991   5.192   4.796
46517W        W19585  27.077  42.609   1.863
46518W        W19586  42.514  38.178  12.066
46519W        W19587  15.328  34.970   4.370
46520W        W19588  29.534  15.792   3.737
46521W        W19589  12.767  40.855  11.776
46522W        W19590  16.581  42.036  11.549
46523W        W19591   4.030   2.787   1.696
46524W        W19592   7.121  11.834  11.155
46525W        W19593   9.995  35.504   0.742
46526W        W19594   1.693  19.816  13.643
46527W        W19595   2.237  22.717  11.216
46528W        W19596  29.486   6.389   1.248
46529W        W19597  24.410  20.162  11.562
46530W        W19598  31.430  26.440   1.410
46531W        W19599  13.272  24.695   4.102
46532W        W19600   8.297  22.490  14.356
46533W        W19601  33.589  24.510   1.004
46534W        W19602  14.890  18.126  14.967
46535W        W19603  40.495  27.592  13.897
46536W        W19604   9.783   8.481   1.765
46537W        W19605   1.729  21.663   2.742
46538W        W19606  10.192  44.576   3.222
46539W        W19607  40.473  27.773   3.783
46540W        W19608  44.582   2.127  13.277
46541W        W19609  34.639  15.879   4.221
46542W        W19610   6.295  19.589   4.588
46543W        W19611  43.912   7.201   4.131
46544W        W19612  25.183  35.508   2.358
46545W        W19613  17.628  38.199   1.372
46546W        W19614  24.912  40.777   0.387
46547W        W19615  16.718  28.836  12.013
46548W        W19616  39.525  28.031   2.373
46549W        W19617   6.444  24.557  14.340
46550W        W19618   7.294  19.563  14.417
46551W        W19619  31.650   9.579  14.746
46552W        W19620   9.283  20.769  10.951
46553W        W19621  13.400  38.637   0.044
46554W        W19622  41.207  32.107   2.693
46555W        W19623  44.534  30.107   0.023
46556W        W19624   7.295  44.794  14.063
46557W        W19625  12.433  37.329   3.801
46558W        W19626  21.089  42.708  11.701
46559W        W19627   9.244  38.725   2.407
46560W        W19628  41.560  40.267  14.751
46561W        W19629  10.732  32.405   2.288
46562W        W19630  17.722  10.214  11.172
46563W        W19631  31.160   7.450  14.929
46564W        W19632  44.988  14.059  12.531
46565W        W19633  34.084  11.413  12.999
46566W        W19634  30.937   0.824  10.238
46567W        W19635  31.996   7.289   2.734
46568W        W19636  36.567  44.446  12.634
46569W        W19637  21.240  18.977  12.939
46570W        W19638  31.348  17.905   9.891
46571W        W19639  20.168   7.802  10.735
46572W        W19640  30.877  24.687   3.349
46573W        W19641  22.108  44.711  14.344
46574W        W19642  42.357  10.899  11.411
46575W        W19643  44.906   7.812  13.158
46576W        W19644  16.324  20.386   4.030
46577W        W19645  11.923   5.218   4.757
46578W        W19646   9.448  36.800  14.300
46579W        W19647  19.381   0.259   0.082
46580W        W19648  11.984  29.094  11.506
46581W        W19649  35.766  10.707   2.482
46582W        W19650   9.122  35.051   3.366
46583W        W19651  36.157   1.062  10.393
46584W        W19652  15.836   4.279   1.913
46585W        W19653   6.877  37.354  13.903
46586W        W19654  38.843  31.141  12.971
46587W        W19655  42.773  24.491   2.697
46588W        W19656  43.081  20.262   4.084
46589W        W19657  16.121  32.050  13.790
46590W        W19658  34.116  44.468  11.897
46591W        W19659  38.869  16.375   2.487
46592W        W19660  23.833   1.976   3.494
46593W        W19661  19.300  39.186   1.323
46594W        W19662  18.730  43.252  13.883
46595W        W19663   6.495   4.384   4.853
46596W        W19664   7.974  25.685   2.727
46597W        W19665  21.232  11.626  14.460
46598W        W19666  10.645   0.585  12.930
46599W        W19667  14.539  13.210   1.145
46600W        W19668  36.082  33.644  13.035
46601W        W19669  39.243  15.075  14.370
46602W        W19670  24.410  25.598  11.706
46603W        W19671  28.786  22.071  11.493
46604W        W19672   3.956  25.952  13.902
46605W        W19673  39.578  34.380  11.853
46606W        W19674   9.528  15.115  12.097
46607W        W19675  33.318  28.622   3.193
46608W        W19676   2.245   8.338  10.631
46609W        W19677   2.857  35.694   3.235
46610W        W19678  19.773  29.601  11.265
46611W        W19679  24.436  42.768  10.813
46612W        W19680  12.260  17.190   0.478
46613W        W19681  26.405   4.427  13.160
46614W        W19682   0.415   2.511   2.556
46615W        W19683  19.131   0.953   2.634
46616W        W19684  18.468  11.550  11.910
46617W        W19685  17.579   7.166   0.734
46618W        W19686  33.626  18.458   3.549
46619W        W19687  26.705  29.638   2.314
46620W        W19688   2.706  14.756   3.607
46621W        W19689  16.579   5.840   2.143
46622W        W19690   2.115  33.504  12.998
46623W        W19691  38.948   1.928  10.679
46624W        W19692   9.476  11.657   1.541
46625W        W19693  18.823   3.418   3.641
46626W        W19694  25.083  33.839   2.357
46627W        W19695  18.330  39.352   3.634
46628W        W19696   9.477  18.377  10.967
46629W        W19697   6.295   6.196  10.858
46630W        W19698  33.449   8.346   4.594
46631W        W19699   4.751   1.858  13.571
46632W        W19700  15.724  20.340  13.048
46633W        W19701   3.886  40.568   3.197
46634W        W19702  37.366  17.396   4.103
46635W        W19703  32.257  25.896   1.452
46636W        W19704   3.405   4.236  13.766
46637W        W19705  17.718  39.379   0.356
46638W        W19706   6.115  25.860   1.474
46639W        W19707  15.151  15.892  11.554
46640W        W19708  32.994  29.979   3.479
46641W        W19709  41.342  18.805   2.834
46642W        W19710  24.425  23.157  10.776
46643W        W19711  14.134   5.249   3.656
46644W        W19712  15.928  37.836  11.687
46645W        W19713   5.396  34.181   0.705
46646W        W19714  41.369  43.264   4.971
46647W        W19715   6.267  25.399   2.411
46648W        W19716  31.125   6.165   2.274
46649W        W19717  19.479  34.014   1.609
46650W        W19718  32.663  17.352   1.396
46651W        W19719  10.412  26.587   2.917
46652W        W19720   5.324  25.044   4.089
46653W        W19721  12.276  27.194  13.745
46654W        W19722   6.886  16.510  12.532
46655W        W19723   0.716  37.132  12.938
46656W        W19724   9.744  18.216  14.226
46657W        W19725  29.614  27.291  11.952
46658W        W19726  36.515  16.903  12.451
46659W        W19727   6.399  12.614  14.237
46660W        W19728  16.152  13.127   4.552
46661W        W19729  38.817  39.314  11.463
46662W        W19730   6.033  28.106   4.983
46663W        W19731  25.460  18.176   1.403
46664W        W19732   2.568  13.295  10.688
46665W        W19733  13.280  30.953   1.887
46666W        W19734  23.452  15.935   9.703
46667W        W19735  21.287  31.712  13.369
46668W        W19736  33.612  44.965   2.335
46669W        W19737   4.376  29.655   1.116
46670W        W19738  10.918  37.317  12.527
46671W        W19739  30.637   7.931  13.491
46672W        W19740  27.113   3.407  12.021
46673W        W19741  21.337   4.719   0.479
46674W        W19742  12.742  26.650  10.960
46675W        W19743  36.860  18.160   2.580
46676W        W19744  26.656  17.852   4.241
46677W        W19745  38.848   4.733   4.736
46678W        W19746  10.242  33.019  10.389
46679W        W19747  42.854  42.981   1.824
46680W        W19748  21.019  43.827   1.139
46681W        W19749  24.124  18.153  14.119
46682W        W19750  40.312  21.474   0.222
46683W        W19751  32.980  41.266   0.817
46684W        W19752  36.468  13.604   4.572
46685W        W19753   8.338   8.867  14.393
46686W        W19754  22.075  37.947   0.179
46687W        W19755  16.444   8.443  11.545
46688W        W19756  43.483  30.938  14.829
46689W        W19757  24.939  16.248   0.374
46690W        W19758  23.220  11.289  11.352
46691W        W19759  36.296  11.303  14.171
46692W        W19760  21.341  21.033   2.341
46693W        W19761  11.452  34.901  11.249
46694W        W19762  17.897   5.003   3.402
46695W        W19763  37.728  42.397  12.601
46696W        W19764  28.143  38.785  12.023
46697W        W19765   0.812  21.713  12.034
46698W        W19766  15.992   9.532   0.331
46699W        W19767  24.433  37.324   4.650
46700W        W19768  29.169  41.259  11.165
46701W        W19769  19.810  38.383  11.604
46702W        W19770  10.324  17.491   3.685
46703W        W19771  37.587   6.955  10.323
46704W        W19772  14.206  23.957  13.078
46705W        W19773   2.709  40.488  12.503
46706W        W19774  31.207  44.004  12.452
46707W        W19775   7.724   2.177   1.040
46708W        W19776   0.662  40.953  11.507
46709W        W19777  35.441  30.347   4.428
46710W        W19778  25.508  36.055   2.921
46711W        W19779   0.538   0.216   2.305
46712W        W19780   7.550  33.557  14.482
46713W        W19781   8.835  12.909  14.695
46714W        W19782   7.962   6.095  11.577
46715W        W19783  19.345  22.584  13.526
46716W        W19784  22.493  10.975  12.081
46717W        W19785  33.984  38.233   3.725
46718W        W19786  37.889  12.151   0.932
46719W        W19787  12.187   2.732  12.284
46720W        W19788  38.761  22.556  14.634
46721W        W19789  16.491  37.415  12.619
46722W        W19790  10.105   9.156  14.543
46723W        W19791  13.143  15.024  12.055
46724W        W19792  17.204  26.206  11.209
46725W        W19793  25.814   4.965  13.886
46726W        W19794  24.334  10.672   1.414
46727W        W19795  28.251   7.189   1.267
46728W        W19796  19.305  25.834  13.616
46729W        W19797   5.153  22.492  11.404
46730W        W19798  40.162  18.879   3.144
46731W        W19799  25.131  15.538  12.847
46732W        W19800  19.247  18.879  12.642
46733W        W19801  27.222  42.217  13.407
46734W        W19802   6.356  13.097   3.248
46735W        W19803   1.875  18.114   1.232
46736W        W19804  18.676  21.145  14.729
46737W        W19805   1.540  23.640   2.760
46738W        W19806  43.890  31.844  12.329
46739W        W19807  32.055  22.014   0.956
46740W        W19808   3.936  11.297   1.856
46741W        W19809  19.118  17.397   0.507
46742W        W19810  36.531  10.878  14.291
46743W        W19811   1.766   8.632   3.333
46744W        W19812   0.437  36.525   2.015
46745W        W19813  37.881  28.893  13.420
46746W        W19814  16.582  38.064  13.203
46747W        W19815   2.000   4.720   2.783
46748W        W19816  10.072  10.255  14.229
46749W        W19817   9.787  23.689   0.758
46750W        W19818  25.941   5.904  14.404
46751W        W19819  27.551  10.367   5.006
46752W        W19820  27.720   5.980  11.180
46753W        W19821  20.301  12.782  11.527
46754W        W19822  26.536  23.487  11.781
46755W        W19823  37.075  34.024   1.670
46756W        W19824  42.718  13.296   4.566
46757W        W19825  43.769  40.441   0.621
46758W        W19826  15.018   0.266  13.918
46759W        W19827   4.121  11.128  13.319
46760W        W19828  38.530  38.561  11.463
46761W        W19829  37.248  13.838  14.947
46762W        W19830  23.829  30.783   3.293
46763W        W19831   3.047  28.287   0.518
46764W        W19832  23.980   9.310  11.193
46765W        W19833  19.261  20.179   2.712
46766W        W19834  30.866   2.626   2.735
46767W        W19835  41.744  27.931   0.693
46768W        W19836  21.136  36.961   0.692
46769W        W19837  25.414  10.321   5.507
46770W        W19838  19.090   0.415  10.409
46771W        W19839  15.874  28.435   4.552
46772W        W19840   1.935  33.450   0.724
46773W        W19841  12.330  12.633  14.919
46774W        W19842   2.467   7.197   2.536
46775W        W19843  11.163  31.042   0.211
46776W        W19844  14.237  42.490  13.822
46777W        W19845  10.611  28.386  10.400
46778W        W19846  27.625   8.905  14.573
46779W        W19847  12.391   7.396  10.935
46780W        W19848   1.459  27.749  11.479
46781W        W19849  18.772  41.752   1.362
46782W        W19850  40.209  41.345  12.224
46783W        W19851  24.317   3.429   4.723
46784W        W19852  17.819   3.258   1.596
46785W        W19853  35.008  15.153  12.050
46786W        W19854   1.886  29.901  13.059
46787W        W19855  38.519   6.380  14.359
46788W        W19856  12.744  23.604  14.273
46789W        W19857  35.968  29.619  13.398
46790W        W19858  29.627  41.601  12.523
46791W        W19859  27.450  11.364   0.859
46792W        W19860  44.743  23.377   2.205
46793W        W19861  33.042   5.723  12.417
46794W        W19862  37.168   8.412  11.462
46795W        W19863  29.157  31.336  11.428
46796W        W19864  14.560  32.307  10.554
46797W        W19865  11.685  40.332  12.807
46798W        W19866  30.673  29.862  14.112
46799W        W19867  10.325  41.614   9.912
46800W        W19868   8.408  35.818  10.666
46801W        W19869  29.896  27.178  11.552
46802W        W19870   7.674   4.857  12.106
46803W        W19871  40.852   6.205   0.904
46804W        W19872  35.983  11.091   1.137
46805W        W19873  33.447   9.696  13.374
46806W        W19874  39.650  36.812   4.552
46807W        W19875  20.026  19.215   0.484
46808W        W19876  25.327  12.124   4.729
46809W        W19877   2.734  39.485   2.668
46810W        W19878  27.209  26.490   1.728
46811W        W19879  41.366  27.472   4.106
46812W        W19880  26.620  18.996  12.386
46813W        W19881  37.977  42.738  12.953
46814W        W19882  17.221  38.335   2.285
46815W        W19883  27.927  35.504  14.015
46816W        W19884  10.120   3.881   4.553
46817W        W19885  34.109  38.181  12.894
46818W        W19886  26.711  38.297   1.747
46819W        W19887  10.323  11.386  11.578
46820W        W19888  21.195  22.020  11.312
46821W        W19889  32.148  40.891  12.191
46822W        W19890   2.754  17.884   2.211
46823W        W19891   4.764  37.317  14.903
46824W        W19892  43.944  27.265   2.358
46825W        W19893  26.133  35.877  12.083
46826W        W19894  33.411  32.625   2.193
46827W        W19895   2.757  17.666  13.500
46828W        W19896  39.373  41.801  13.950
46829W        W19897   2.412  38.873   5.357
46830W        W19898  12.221  12.247  12.020
46831W        W19899  34.615  41.298   1.214
46832W        W19900  23.202   1.866  14.083
46833W        W19901  36.970  25.693   3.597
46834W        W19902  37.359  13.377   3.410
46835W        W19903   1.292  33.168   2.639
46836W        W19904  25.616  27.727   1.195
46837W        W19905  26.656  44.054  13.784
46838W        W19906  29.099  21.550   3.632
46839W        W19907   6.562  33.491   3.535
46840W        W19908   4.376  17.258  13.383
46841W        W19909  44.348  29.975  10.358
46842W        W19910   1.675   8.043  11.984
46843W        W19911   8.684   4.698   0.854
46844W        W19912  43.125   8.125   3.256
46845W        W19913  32.997  43.680  14.733
46846W        W19914   1.803  21.472   3.232
46847W        W19915  10.259  24.070  12.740
46848W        W19916  18.616  14.160  14.725
46849W        W19917   8.639  26.039   3.625
46850W        W19918  26.266   1.904  12.470
46851W        W19919  37.866   1.000  11.467
46852W        W19920   6.852   3.968  10.572
46853W        W19921   9.626  17.277  14.951
46854W        W19922  42.292  13.257  10.740
46855W        W19923   7.033  12.624   0.302
46856W        W19924  31.849   2.427   0.432
46857W        W19925  34.168  12.397   3.258
46858W        W19926  27.877  27.967   1.834
46859W        W19927  22.390   5.854   3.316
46860W        W19928   6.421  27.439   3.623
46861W        W19929  19.912  37.533   3.344
46862W        W19930  17.214  33.992  14.378
46863W        W19931  42.871  25.771   3.641
46864W        W19932  12.908  19.958   2.680
46865W        W19933  31.036  44.693   0.355
46866W        W19934  17.792  29.395  12.630
46867W        W19935  18.705   2.808  12.532
46868W        W19936   7.848  32.382  12.456
46869W        W19937  23.462  36.865  13.868
46870W        W19938  31.490   8.725  14.359
46871W        W19939  30.147  33.892  11.085
46872W        W19940  44.704  18.282  14.427
46873W        W19941  24.984  40.311  11.555
46874W        W19942  25.531   7.157   4.118
46875W        W19943  18.148  40.279   1.321
46876W        W19944   3.751   7.075   0.996
46877W        W19945   4.400  17.796  13.480
46878W        W19946  25.051  28.584  12.950
46879W        W19947  14.663  39.984  14.221
46880W        W19948   4.973   9.149   3.746
46881W        W19949   7.978  22.782   4.018
46882W        W19950  23.111  38.097  10.297
46883W        W19951   6.354  28.055   4.114
46884W        W19952  15.269  13.145   2.965
46885W        W19953   1.061  37.065  11.114
46886W        W19954  44.220  25.670   3.525
46887W        W19955   7.023  40.121   5.200
46888W        W19956  20.696   6.536  13.066
46889W        W19957  37.414  39.372   3.761
46890W        W19958  24.249  37.481  12.054
46891W        W19959   4.241  43.549   2.656
46892W        W19960  30.644  28.118  12.925
46893W        W19961  10.603  39.449  14.950
46894W        W19962  14.165  11.350   1.400
46895W        W19963  30.556  44.338   2.162
46896W        W19964  42.556  25.962   0.915
46897W        W19965  17.335  36.975   2.710
46898W        W19966  38.711  43.244   2.359
46899W        W19967  23.730  13.202   2.706
46900W        W19968  30.404   0.450   0.442
46901W        W19969  20.493  18.192  13.781
46902W        W19970   4.731  20.837   0.909
46903W        W19971   7.796  43.693  12.028
46904W        W19972  15.206  28.951   2.574
46905W        W19973   7.845  21.102  12.287
46906W        W19974  12.608  42.372  13.740
46907W        W19975  11.948  19.253   0.394
46908W        W19976  31.829  20.524  11.694
46909W        W19977  23.221  29.158   4.622
46910W        W19978  41.976  19.213   3.057
46911W        W19979  26.091   4.242   1.914
46912W        W19980  13.839   1.316  12.439
46913W        W19981  41.774  36.899  11.332
46914W        W19982  29.418  35.695  14.842
46915W        W19983   6.149   1.337  12.455
46916W        W19984  29.808  42.801   0.418
46917W        W19985  13.825   5.102  11.297
46918W        W19986  35.398  15.720   3.210
46919W        W19987   2.466  21.064   2.767
46920W        W19988  38.277  18.218  11.034
46921W        W19989  10.840  42.744  12.531
46922W        W19990  29.429  10.800   2.308
46923W        W19991  24.444  13.364   0.807
46924W        W19992  29.220  27.264   4.345
46925W        W19993  34.580  35.111   3.185
46926W        W19994  20.133   3.434   2.231
46927W        W19995  18.805   2.041  14.424
46928W        W19996  16.827  23.757   0.844
46929W        W19997  32.749  44.414   0.213
46930W        W19998  14.612  25.413   1.345
46931W        W19999  19.563  26.500   1.363
46932W        W20000  25.938  40.917   4.202
46933W        W20001  43.206  42.994  11.188
46934W        W20002  10.597  20.193   2.782
46935W        W20003  14.662   0.703  13.495
46936W        W20004  21.036   2.974  11.378
46937W        W20005  14.420  43.248   1.933
46938W        W20006  38.808  13.720  14.696
46939W        W20007  11.292  38.055  14.493
46940W        W20008  24.180  20.703  14.038
46941W        W20009  10.689   2.765   4.222
46942W        W20010  34.389  10.782  14.906
46943W        W20011   1.708  34.086   4.152
46944W        W20012  14.410  33.540   2.700
46945W        W20013  12.614  36.692  14.720
46946W        W20014   9.204   8.320   0.356
46947W        W20015  21.664  16.009  12.887
46948W        W20016  38.353  12.649  13.869
46949W        W20017   9.760  13.013   3.561
46950W        W20018  31.483  24.692  14.862
46951W        W20019  14.259  43.900   0.942
46952W        W20020  37.009  13.797   2.632
46953W        W20021  12.158  14.506  14.742
46954W        W20022  11.744  29.749   4.203
46955W        W20023  37.416  39.273   1.237
46956W        W20024  15.594  20.071  10.168
46957W        W20025   1.093  36.384   2.522
46958W        W20026  40.124  34.134  14.063
46959W        W20027  23.604  40.013   2.448
46960W        W20028  36.618  44.512  13.174
46961W        W20029  20.183  21.480  12.350
46962W        W20030  18.119  12.280   4.162
46963W        W20031  34.318  31.986   2.322
46964W        W20032  34.960  23.601  14.693
46965W        W20033  27.295  38.033  10.779
46966W        W20034  43.550   1.706   1.702
46967W        W20035  32.401  14.276  11.641
46968W        W20036   2.932  12.733   4.373
46969W        W20037   8.263  44.704   4.541
46970W        W20038   3.333   4.136  10.510
46971W        W20039  19.765  31.944  12.507
46972W        W20040  15.291   3.894   0.173
46973W        W20041  35.637  11.135  11.521
46974W        W20042   2.534  26.685   0.500
46975W        W20043  10.176  26.193  13.770
46976W        W20044  30.558  26.053  14.641
46977W        W20045  14.311   9.063  12.529
46978W        W20046  33.931  14.702   1.298
46979W        W20047  33.821  12.861   3.120
46980W        W20048  28.903  38.970   3.053
46981W        W20049  11.222   3.934  11.048
46982W        W20050   3.714   7.932   3.273
46983W        W20051  32.075  43.984  12.597
46984W        W20052  24.160  14.939  14.154
46985W        W20053  26.430   9.825  11.922
46986W        W20054   9.787   2.376   1.698
46987W        W20055  26.587  35.332   0.476
46988W        W20056  14.934  42.664  10.726
46989W        W20057  17.251  24.541  10.624
46990W        W20058   7.826   1.530   4.125
46991W        W20059  21.929  30.631   3.805
46992W        W20060  28.155  36.137  12.854
46993W        W20061  24.440   3.316  11.116
46994W        W20062  32.116   9.367  14.711
46995W        W20063  22.624   0.014  10.456
46996W        W20064  17.196  28.119  14.882
46997W        W20065  40.338  14.188   0.977
46998W        W20066  37.045  17.595   3.696
46999W        W20067   5.826  35.393   2.699
47000W        W20068  37.377  22.524   3.284
47001W        W20069  39.232  39.262  10.791
47002W        W20070  27.148  42.325  11.186
47003W        W20071  11.225   8.438  13.959
47004W        W20072  33.068  21.278   3.609
47005W        W20073  40.025  34.484   2.215
47006W        W20074  24.280  20.014   4.828
47007W        W20075  13.638  13.543  12.540
47008W        W20076  11.163  26.444   2.290
47009W        W20077  30.531  19.420  12.155
47010W        W20078  20.476  16.385   0.223
47011W        W20079   2.905  30.525   0.386
47012W        W20080  36.020  24.865  10.668
47013W        W20081   7.353  27.769  14.961
47014W        W20082  12.870  37.094   2.080
47015W        W20083  28.624  42.287   0.874
47016W        W20084  42.247   5.617  14.729
47017W        W20085  37.052  13.147   4.187
47018W        W20086  29.715  37.607  11.577
47019W        W20087   8.210  20.735  14.787
47020W        W20088  40.339  32.986  12.901
47021W        W20089  35.869  13.733   3.991
47022W        W20090  27.966  44.567  13.613
47023W        W20091  35.958   1.244  13.427
47024W        W20092  20.325   0.362  11.644
47025W        W20093   7.274  30.679   1.379
47026W        W20094  26.514  16.147  12.043
47027W        W20095   3.838  38.413  11.926
47028W        W20096  11.384  12.207   3.280
47029W        W20097  42.175   8.823   0.853
47030W        W20098  17.890   0.866  11.043
47031W        W20099   0.512  24.959  13.668
47032W        W20100  13.887  44.448  11.635
47033W        W20101  24.799  35.456   3.340
47034W        W20102  34.380   2.268   3.930
47035W        W20103  44.066  18.799   0.314
47036W        W20104  42.934  22.051  14.768
47037W        W20105   5.337  41.886  13.627
47038W        W20106  20.914  34.557  10.277
47039W        W20107  12.166  41.349   3.855
47040W        W20108  18.082  24.069  11.681
47041W        W20109  16.301  39.736  12.925
47042W        W20110  13.704   8.278  14.526
47043W        W20111  11.566   2.361   4.042
47044W        W20112   0.872   5.422  13.897
47045W        W20113  43.499  39.339  14.401
47046W        W20114  13.622  28.216  11.165
47047W        W20115  13.379  32.020   3.671
47048W        W20116  39.484  35.721   0.462
47049W        W20117  21.223  25.038  13.809
47050W        W20118  30.667  28.123   3.729
47051W        W20119  43.440  24.628   1.866
47052W        W20120  15.991  26.936  11.171
47053W        W20121   4.973  20.142  12.147
47054W        W20122   3.440  33.521   4.239
47055W        W20123   1.409  25.852  11.986
47056W        W20124  44.459  33.691   4.194
47057W        W20125  35.064  28.358   3.341
47058W        W20126  33.514  16.371  12.791
47059W        W20127  22.855  41.851  10.235
47060W        W20128   0.376  20.823   1.688
47061W        W20129  32.669  35.369  14.778
47062W        W20130   2.905  11.212   1.700
47063W        W20131  38.441  32.347   4.603
47064W        W20132   8.385  39.274   3.292
47065W        W20133  35.311  31.893  11.929
47066W        W20134  13.599  15.929  10.794
47067W        W20135   2.917  41.991  11.213
47068W        W20136  25.716  20.297   2.446
47069W        W20137  33.919  43.067  13.431
47070W        W20138  12.743  31.724  10.380
47071W        W20139  11.186  14.663   1.814
47072W        W20140  18.700  26.046   1.052
47073W        W20141  29.410  28.646   0.008
47074W        W20142  12.313  21.575  13.548
47075W        W20143  31.064  34.883   2.095
47076W        W20144  38.071  17.547  13.474
47077W        W20145  15.189   3.706   2.204
47078W        W20146   7.771   4.276  14.856
47079W        W20147   7.008  37.407  12.508
47080W        W20148   8.619  19.099   4.353
47081W        W20149  17.154  13.203   2.882
47082W        W20150   6.839  15.535   3.197
47083W        W20151  41.272  37.983   2.133
47084W        W20152  39.858  25.639  11.180
47085W        W20153  10.202  16.082  13.527
47086W        W20154   4.735  36.478   2.115
47087W        W20155   6.832  17.677  10.994
47088W        W20156  40.157   5.163  11.505
47089W        W20157  30.454  38.431  10.614
47090W        W20158  32.413  17.149   0.951
47091W        W20159  33.913  15.146  13.141
47092W        W20160  18.639  36.462  14.825
47093W        W20161   0.988  13.856   1.901
47094W        W20162   9.120  40.047  14.848
47095W        W20163  35.940  22.391   4.841
47096W        W20164  14.836  10.419   2.729
47097W        W20165  17.315  42.806  14.438
47098W        W20166  43.808  39.004  12.884
47099W        W20167  24.003  42.577  13.836
47100W        W20168   2.288  17.640   2.214
47101W        W20169  28.992  39.822  11.365
47102W        W20170  29.461  32.384   3.824
47103W        W20171  35.065  35.573   3.466
47104W        W20172   2.879  30.089   4.128
47105W        W20173   4.745  43.965   0.407
47106W        W20174  29.643  20.258   1.322
47107W        W20175  33.073  35.574   4.259
47108W        W20176  31.362  18.234  12.742
47109W        W20177   0.661  22.561   0.448
47110W        W20178  40.386  35.969  13.318
47111W        W20179  27.938  25.304  14.757
47112W        W20180  17.688   6.422   4.558
47113W        W20181   7.850  11.643  11.889
47114W        W20182  25.214  42.353  13.368
47115W        W20183  38.899  11.105  14.511
47116W        W20184  17.808  30.480  14.705
47117W        W20185  27.603  23.253   3.912
47118W        W20186  42.240  15.232   3.153
47119W        W20187  30.192  14.004  10.712
47120W        W20188  20.940  28.998   1.113
47121W        W20189  10.649  20.789   2.808
47122W        W20190  30.631  15.581  11.649
47123W        W20191  23.599   8.145   0.319
47124W        W20192  14.993  32.019  10.712
47125W        W20193  20.492  20.710  10.546
47126W        W20194  21.569  32.624   0.942
47127W        W20195  31.447  36.388  14.771
47128W        W20196  31.562  36.537  12.789
47129W        W20197  36.556  43.293  11.570
47130W        W20198  21.237  22.189   0.547
47131W        W20199   3.790  34.505  11.064
47132W        W20200   3.323  22.924   1.348
47133W        W20201   0.150  27.913  13.607
47134W        W20202  24.617  27.697  13.548
47135W        W20203  39.930  14.639   3.872
47136W        W20204   9.747   1.475  12.358
47137W        W20205  12.365  23.558   1.907
47138W        W20206  34.788  37.658  11.865
47139W        W20207   8.645  15.616   0.689
47140W        W20208  27.503   2.751   0.163
47141W        W20209  13.865  13.335   3.230
47142W        W20210  25.577  29.581  10.729
47143W        W20211  30.815  24.652  13.846
47144W        W20212  34.309  24.604  14.340
47145W        W20213  23.600  37.305  10.182
47146W        W20214  15.483  26.117  11.364
47147W        W20215  18.175  34.458  10.708
47148W        W20216  14.754  30.121   4.274
47149W        W20217  14.227   1.209  12.864
47150W        W20218  15.253  37.159   1.049
47151W        W20219  31.523   7.828   1.015
47152W        W20220  12.303  15.734  11.150
47153W        W20221  31.136  21.709  14.892
47154W        W20222   6.660  37.624   4.282
47155W        W20223  23.526   5.014   0.487
47156W        W20224   4.192  15.746  12.848
47157W        W20225  34.189   7.771   1.317
47158W        W20226  10.849  21.120  11.725
47159W        W20227  38.120   1.899  10.427
47160W        W20228  31.855  29.472  14.859
47161W        W20229  21.676  15.247  14.108
47162W        W20230  36.985  20.003   1.347
47163W        W20231  34.480   7.970  13.982
47164W        W20232  21.481  36.045  14.974
47165W        W20233  14.339   7.200  12.165
47166W        W20234  34.590  13.194   1.924
47167W        W20235  13.182  24.954   0.832
47168W        W20236  32.617  26.278  10.926
47169W        W20237  11.475  21.183  10.308
47170W        W20238  22.272   3.357   4.634
47171W        W20239   6.511  28.511   2.204
47172W        W20240   1.803  35.588   3.242
47173W        W20241  34.421  14.606  13.316
47174W        W20242  28.471  15.137   0.267
47175W        W20243   6.430  34.395   3.829
47176W        W20244  33.080  39.294  12.548
47177W        W20245   9.287  27.738   3.812
47178W        W20246  11.386  12.319  13.437
47179W        W20247  24.079  15.655   2.214
47180W        W20248   6.251   9.227  10.406
47181W        W20249  17.967  34.335   4.270
47182W        W20250  11.396  25.423  12.367
47183W        W20251  44.299  14.721  12.316
47184W        W20252   5.927  15.634   0.923
47185W        W20253  36.804  31.973   3.684
47186W        W20254  26.479  30.077   4.856
47187W        W20255  13.827  39.499  11.814
47188W        W20256   1.258  42.399  11.447
47189W        W20257  13.470  35.242  14.219
47190W        W20258  22.060  36.696   4.166
47191W        W20259   8.307  10.429   2.104
47192W        W20260   4.021  14.913  11.995
47193W        W20261   4.017   3.263  14.947
47194W        W20262  40.474  33.423   2.436
47195W        W20263  18.166   8.823  13.992
47196W        W20264  41.441  14.656  13.912
47197W        W20265  44.153   0.240   3.610
47198W        W20266  15.898  14.765   0.248
47199W        W20267  41.383  14.899   0.843
47200W        W20268   0.495  39.323  13.736
47201W        W20269   1.792   4.263   2.670
47202W        W20270  24.713  39.468  11.132
47203W        W20271  14.137  11.386  14.002
47204W        W20272  40.932  43.600   3.264
47205W        W20273   0.824  40.820   1.062
47206W        W20274   5.775  18.175  11.488
47207W        W20275   9.846   3.768   4.097
47208W        W20276  26.679   7.895  12.537
47209W        W20277   4.354  39.547  13.003
47210W        W20278  37.988  10.814   3.912
47211W        W20279  22.850  27.346  13.684
47212W        W20280  32.080  23.111   0.196
47213W        W20281  16.842  41.705   1.902
47214W        W20282  41.274   3.719   2.359
47215W        W20283  23.142  12.099  11.279
47216W        W20284  42.968  38.407  14.200
47217W        W20285  33.433  37.739  14.767
47218W        W20286  13.903  27.123  12.175
47219W        W20287  41.288  14.199   3.205
47220W        W20288  13.305  41.406   2.782
47221W        W20289   5.501  31.828   4.593
47222W        W20290  40.087   2.039   2.966
47223W        W20291  22.199  26.216   2.697
47224W        W20292  28.758  44.178   0.535
47225W        W20293  33.996  17.196   3.316
47226W        W20294  41.097  44.795   4.621
47227W        W20295  34.528  44.851   0.164
47228W        W20296  10.385   2.434  12.858
47229W        W20297  42.235  39.588   1.819
47230W        W20298  18.276  19.134  14.608
47231W        W20299  24.215  25.145  11.870
47232W        W20300  14.656  31.934  13.504
47233W        W20301  14.649  11.904   2.699
47234W        W20302  38.582  35.916  13.377
47235W        W20303   0.025  10.092  10.083
47236W        W20304  26.093   0.729  14.518
47237W        W20305  40.832  22.792  12.964
47238W        W20306  33.554  29.991  10.453
47239W        W20307   1.612  31.304   4.131
47240W        W20308  25.773  40.193   3.619
47241W        W20309  29.626   9.153   1.895
47242W        W20310  20.036  36.803   2.587
47243W        W20311  41.293  18.494  11.469
47244W        W20312  33.219  36.964   2.781
47245W        W20313  31.228  13.540   1.393
47246W        W20314   4.206  44.045  11.915
47247W        W20315  35.992  22.147  13.320
47248W        W20316   1.887   1.897   4.905
47249W        W20317  39.600   4.018  11.594
47250W        W20318  32.729   2.801  12.841
47251W        W20319  42.457  20.597   1.561
47252W        W20320  10.127  12.565   4.251
47253W        W20321  44.258  34.683   2.850
47254W        W20322   3.806   7.430   4.130
47255W        W20323  31.949  27.390  12.046
47256W        W20324  27.032  43.684  13.560
47257W        W20325  35.556  39.527   2.840
47258W        W20326  20.037  27.973  13.505
47259W        W20327   1.214  26.481   4.158
47260W        W20328  15.393  23.030  14.034
47261W        W20329  30.041  13.880   5.091
47262W        W20330  37.019  10.184   1.957
47263W        W20331  40.272   4.243  12.073
47264W        W20332  31.131  38.339  13.336
47265W        W20333  17.109  23.449  10.884
47266W        W20334  25.011  29.587   2.295
47267W        W20335  33.891  33.460  12.779
47268W        W20336  38.551  37.171   0.960
47269W        W20337   1.787  23.560  13.329
47270W        W20338  16.873  21.739  11.998
47271W        W20339   0.435  38.556   0.855
47272W        W20340  38.105  16.921  11.083
47273W        W20341  33.108  14.047   3.561
47274W        W20342  34.841  24.519  12.588
47275W        W20343  28.819   4.141   3.274
47276W        W20344  27.257  41.807  14.880
47277W        W20345  15.226  42.513   1.467
47278W        W20346  35.653  25.632   0.037
47279W        W20347  19.110  38.390  14.392
47280W        W20348   5.145  35.901   1.710
47281W        W20349  43.016  30.748  10.587
47282W        W20350  38.948  25.444  10.711
47283W        W20351  16.804  43.445  13.525
47284W        W20352  23.292  15.334  11.239
47285W        W20353   0.480   9.625   4.547
47286W        W20354  36.969   3.435   1.399
47287W        W20355  29.044  13.650   3.373
47288W        W20356  38.893  43.243   0.416
47289W        W20357  43.436  10.073   3.139
47290W        W20358  10.057  38.437   1.385
47291W        W20359   8.250  36.912   1.813
47292W        W20360  14.188   5.694   3.380
47293W        W20361   0.583  14.144   2.085
47294W        W20362  10.294  41.848  11.116
47295W        W20363  21.085  26.471  14.886
47296W        W20364  43.999  36.741  12.696
47297W        W20365   2.767  19.247  14.222
47298W        W20366  31.904  36.719   5.351
47299W        W20367   5.464  35.287  14.284
47300W        W20368  25.209   7.683  14.709
47301W        W20369  19.507  13.118   2.418
47302W        W20370  13.128  41.724  11.918
47303W        W20371  17.309  26.593  10.395
47304W        W20372  26.604  26.629  10.485
47305W        W20373  20.425   4.694  13.505
47306W        W20374  22.492  20.628   2.713
47307W        W20375  34.681  43.746  11.179
47308W        W20376  35.036  19.737  12.812
47309W        W20377  20.837  22.014  13.580
47310W        W20378  10.030  41.433   3.278
47311W        W20379  38.456  35.397  13.822
47312W        W20380  19.076  31.093  12.858
47313W        W20381   1.139  39.273  13.264
47314W        W20382  10.671  21.605  11.596
47315W        W20383  20.578   0.851   1.217
47316W        W20384  37.830  12.895  14.960
47317W        W20385  44.438  16.809  11.130
47318W        W20386  26.423  14.236   3.821
47319W        W20387  17.122   1.825   1.434
47320W        W20388  25.993  19.390  11.533
47321W        W20389   7.438  25.316  13.399
47322W        W20390   6.974  27.621   0.295
47323W        W20391  24.420  34.844  11.577
47324W        W20392   5.329  13.199   4.615
47325W        W20393  27.745  37.600  14.306
47326W        W20394  13.566   4.662  13.013
47327W        W20395  27.683  17.504   4.161
47328W        W20396  27.765  18.551  11.147
47329W        W20397  37.328  38.485   3.871
47330W        W20398  23.251   4.788  12.971
47331W        W20399  36.438  43.702  14.072
47332W        W20400  35.874  28.766  13.229
47333W        W20401  14.846  20.489   3.767
47334W        W20402  38.581  19.491  13.617
47335W        W20403  36.964  40.398   4.384
47336W        W20404  11.968  14.306   5.032
47337W        W20405   5.460  37.918   3.606
47338W        W20406   8.501  37.665  13.405
47339W        W20407  34.609  27.517   2.327
47340W        W20408  26.095   2.993  12.426
47341W        W20409  30.509  15.640  13.276
47342W        W20410  31.134  29.923  13.871
47343W        W20411  34.892  21.660   3.577
47344W        W20412  18.206  44.998   4.568
47345W        W20413   7.410  31.899  11.115
47346W        W20414   9.131  35.034   1.423
47347W        W20415   1.554  42.042   4.034
47348W        W20416  26.053  37.978   9.682
47349W        W20417   1.295   6.463   1.284
47350W        W20418  43.051  17.126   2.357
47351W        W20419  38.953  23.512   3.235
47352W        W20420  43.271  37.025   2.845
47353W        W20421  39.584  32.631   1.340
47354W        W20422  34.984  30.434   1.231
47355W        W20423  42.221  37.991   4.796
47356W        W20424  11.773  17.376  10.697
47357W        W20425  29.565  44.037  11.509
47358W        W20426   5.283  23.996   2.255
47359W        W20427   5.374  14.101   4.750
47360W        W20428   7.557  12.718  10.675
47361W        W20429  25.561   2.959  12.987
47362W        W20430  17.969  35.156  12.605
47363W        W20431   4.833  10.843  14.919
47364W        W20432  18.786  34.434  14.805
47365W        W20433  30.118  31.166  12.966
47366W        W20434  39.902   9.727   3.655
47367W        W20435  21.102  39.886   4.627
47368W        W20436  34.441  43.944  11.587
47369W        W20437  25.890  19.494   2.603
47370W        W20438  15.764  21.076   5.084
47371W        W20439  18.130  35.526  12.290
47372W        W20440  44.441  19.477   4.946
47373W        W20441  16.305  44.947  13.840
47374W        W20442  29.108  38.361  10.944
47375W        W20443  21.458  34.887  12.410
47376W        W20444  31.683  32.012  12.879
47377W        W20445  36.143  39.180   2.223
47378W        W20446  25.913  24.385   4.239
47379W        W20447   6.707   5.996   1.824
47380W        W20448  30.134  27.451  11.175
47381W        W20449  15.062  23.484  13.035
47382W        W20450  41.569  32.093  13.125
47383W        W20451  44.224  13.057   2.941
47384W        W20452  24.269  25.566  10.726
47385W        W20453  43.414  37.949  11.747
47386W        W20454  39.852  17.076  13.890
47387W        W20455  14.349  34.437  10.523
47388W        W20456  11.931   3.326   4.078
47389W        W20457  30.254  25.771  12.489
47390W        W20458  15.131   8.707  14.935
47391W        W20459  32.268  41.894  13.137
47392W        W20460  13.594   7.163  12.655
47393W        W20461  32.447   9.727  11.577
47394W        W20462  36.539  32.434  10.708
47395W        W20463  13.035  25.547  12.300
47396W        W20464  29.641  19.680  13.523
47397W        W20465  26.494  34.529   3.182
47398W        W20466  26.725  26.899  10.923
47399W        W20467  37.058   6.446  13.769
47400W        W20468   8.229   0.454  12.389
47401W        W20469  17.360  16.642  10.719
47402W        W20470  21.760  39.378  12.780
47403W        W20471  31.508  44.231   4.342
47404W        W20472  16.113  31.040  12.821
47405W        W20473   3.626  41.606  13.873
47406W        W20474  13.133   8.354  10.603
47407W        W20475  35.807  29.760   2.635
47408W        W20476  26.570  42.799   2.304
47409W        W20477  18.194  19.261   4.649
47410W        W20478   5.721   0.413   3.413
47411W        W20479   2.750  35.988  14.326
47412W        W20480  39.893  10.234   1.049
47413W        W20481  11.409  19.234   4.518
47414W        W20482  14.251  40.208  13.989
47415W        W20483  42.429  36.014   3.804
47416W        W20484  41.132  35.310  13.495
47417W        W20485  42.597   0.121  10.023
47418W        W20486  29.991  42.255  10.826
47419W        W20487  33.463   4.514   2.814
47420W        W20488  39.059  37.453   0.458
47421W        W20489  43.827  37.718  11.162
47422W        W20490   0.387   6.279  10.927
47423W        W20491  19.089  35.443   3.250
47424W        W20492  33.127  41.216  14.872
47425W        W20493  21.753  23.100  12.127
47426W        W20494   2.241   1.090   1.168
47427W        W20495  22.077   0.695  12.934
47428W        W20496  15.023  11.164  12.110
47429W        W20497   6.798  16.538   1.352
47430W        W20498  40.320  19.254  14.927
47431W        W20499  21.312   6.020   2.769
47432W        W20500  36.747  18.252   3.563
47433W        W20501  27.183  11.273  12.492
47434W        W20502  36.492   7.099  13.316
47435W        W20503  15.998  22.536   2.370
47436W        W20504   7.505  37.070   5.033
47437W        W20505  39.004  14.071  13.369
47438W        W20506  30.687  33.313  13.467
47439W        W20507  32.959  22.566  14.582
47440W        W20508   5.870  25.769  12.910
47441W        W20509  31.693   9.933  11.070
47442W        W20510  26.482  17.068   0.795
47443W        W20511   5.226  10.301  14.394
47444W        W20512  44.997  21.088  13.572
47445W        W20513  39.854  18.701  13.436
47446W        W20514  27.434  29.976  13.764
47447W        W20515  35.608  12.741   2.255
47448W        W20516   9.972  13.320   3.204
47449W        W20517  10.784  21.943  13.042
47450W        W20518  35.860   8.982   1.961
47451W        W20519  26.026  40.119   1.891
47452W        W20520  11.702  41.567   4.541
47453W        W20521  12.734   8.321  13.037
47454W        W20522  44.874  35.183  11.260
47455W        W20523  35.829  31.081  10.650
47456W        W20524   0.953   0.466   1.925
47457W        W20525   8.912  12.349   1.766
47458W        W20526  38.576   6.741  13.997
47459W        W20527   3.443  16.547   0.173
47460W        W20528  38.976  12.096  13.090
47461W        W20529  21.027  23.763   0.764
47462W        W20530   7.756  25.674  14.075
47463W        W20531  25.563  42.207  14.350
47464W        W20532   8.193  21.111   2.777
47465W        W20533  24.703  25.436   3.410
47466W        W20534  21.645   7.733  14.928
47467W        W20535  38.404   5.845   2.717
47468W        W20536   3.505   6.639  12.939
47469W        W20537  15.750  26.952  10.180
47470W        W20538   3.750  39.991   2.727
47471W        W20539  30.384  28.826   1.183
47472W        W20540   0.259  37.554   2.676
47473W        W20541  37.257  14.731  13.549
47474W        W20542  19.662  18.562  11.080
47475W        W20543  42.562   1.306   1.114
47476W        W20544  44.776  37.573   2.439
47477W        W20545  10.388  10.855   4.639
47478W        W20546   3.489  29.857   2.768
47479W        W20547  25.532  17.096  14.812
47480W        W20548  33.301   7.347  12.143
47481W        W20549   7.327   5.665  12.469
47482W        W20550  35.326  21.511  11.548
47483W        W20551   9.207  11.965   1.918
47484W        W20552  42.311  40.600   0.327
47485W        W20553  31.995  20.798   2.743
47486W        W20554  38.286  14.091   1.172
47487W        W20555  35.861  25.101   4.108
47488W        W20556  26.125  10.398  13.306
47489W        W20557   7.849  13.353   5.052
47490W        W20558  27.953  40.028   1.801
47491W        W20559   6.977   0.472   3.555
47492W        W20560  44.528  35.126  11.620
47493W        W20561  16.653  40.641  13.047
47494W        W20562  35.053   3.497   3.848
47495W        W20563  37.692   2.317   5.080
47496W        W20564  19.725  40.571   0.452
47497W        W20565   8.670  15.655  13.304
47498W        W20566   6.559   0.795   2.729
47499W        W20567   7.745  15.106  11.976
47500W        W20568  13.906  25.506   4.433
47501W        W20569  36.952  37.443  14.000
47502W        W20570  33.009  36.946   0.872
47503W        W20571  20.445   2.604   4.472
47504W        W20572  32.569  32.379   2.736
47505W        W20573   0.532   5.781  13.606
47506W        W20574  17.798  27.088  14.830
47507W        W20575  20.011  30.926  12.743
47508W        W20576  12.904  17.723  13.015
47509W        W20577   3.395   0.595  10.668
47510W        W20578  26.673  11.194  12.400
47511W        W20579  15.316   4.321   4.155
47512W        W20580  10.512  42.680  13.845
47513W        W20581  41.766   8.824  10.553
47514W        W20582  21.338  24.473   2.317
47515W        W20583  14.715  30.119   2.862
47516W        W20584  13.560  37.773   3.558
47517W        W20585  33.695  30.856   0.936
47518W        W20586  22.689  32.549  13.105
47519W        W20587   4.983   1.266   2.460
47520W        W20588  19.246   2.403   0.766
47521W        W20589  27.700  14.798  11.268
47522W        W20590  24.799  21.920  11.249
47523W        W20591  25.559   0.061   1.667
47524W        W20592  42.610  44.192  10.239
47525W        W20593  29.086  43.436  11.497
47526W        W20594  44.304  35.001  14.728
47527W        W20595   1.304  29.222  13.030
47528W        W20596  25.759   8.793   0.759
47529W        W20597  25.940  22.607  13.856
47530W        W20598  16.839  39.385  11.690
47531W        W20599  36.369  37.399   3.784
47532W        W20600  19.962  28.378  11.339
47533W        W20601  25.699  32.205   3.065
47534W        W20602  36.383  22.728   4.092
47535W        W20603  32.398   9.389  11.172
47536W        W20604  38.291   3.284   2.726
47537W        W20605   2.939  43.467   4.742
47538W        W20606  20.839  12.707   4.190
47539W        W20607  38.293  43.970  11.712
47540W        W20608  13.004  28.151  12.516
47541W        W20609  27.143  14.319   1.431
47542W        W20610   8.515  26.326   3.192
47543W        W20611   8.820  22.903  12.057
47544W        W20612   0.327   9.054   0.139
47545W        W20613  14.209  30.359  14.447
47546W        W20614  29.191   0.213   4.811
47547W        W20615  22.736  40.950   4.110
47548W        W20616  16.620  20.127   2.175
47549W        W20617  38.358  12.378   0.858
47550W        W20618  29.758   0.802   3.303
47551W        W20619  37.819  31.297   1.844
47552W        W20620  31.881   1.244   0.011
47553W        W20621  30.738   1.148  13.862
47554W        W20622   5.675  42.986   2.249
47555W        W20623  19.064  39.807   2.238
47556W        W20624   8.239  11.578  10.675
47557W        W20625  38.331  36.635   1.697
47558W        W20626  38.080   7.725  14.967
47559W        W20627  27.684  36.970   1.682
47560W        W20628  36.115   5.297   2.494
47561W        W20629  30.748  33.608   3.686
47562W        W20630  27.358  37.392   0.193
47563W        W20631  36.933  16.401  11.146
47564W        W20632  44.905   2.719  12.462
47565W        W20633  21.562  13.233   3.457
47566W        W20634  41.603  33.116  12.461
47567W        W20635  30.080  32.748  12.082
47568W        W20636   7.832  44.565  10.267
47569W        W20637  28.481  42.879   3.667
47570W        W20638  20.485  13.648   1.654
47571W        W20639  39.332  32.976   1.669
47572W        W20640  21.943  38.273   3.338
47573W        W20641  33.338  27.779   0.908
47574W        W20642  24.601   0.916   0.033
47575W        W20643  22.229  12.897  11.557
47576W        W20644  15.347  28.625  11.493
47577W        W20645  30.489  31.351   4.920
47578W        W20646   6.694  44.838   1.069
47579W        W20647  13.516  31.368   1.679
47580W        W20648  44.791  10.427   1.476
47581W        W20649  17.987  28.178  14.309
47582W        W20650  19.409   1.000   3.157
47583W        W20651  21.808   9.139   1.302
47584W        W20652  32.945  10.356   2.758
47585W        W20653  30.092  27.031  12.817
47586W        W20654  10.626  23.070  10.725
47587W        W20655  18.740  19.356   1.803
47588W        W20656  33.663  36.983   0.211
47589W        W20657  38.902  14.558   3.236
47590W        W20658  25.642   0.914   4.224
47591W        W20659  34.915  41.218  13.860
47592W        W20660  39.474  17.520  13.559
47593W        W20661  21.974  21.822   0.670
47594W        W20662  38.468   7.721   3.108
47595W        W20663   1.519  13.056   0.305
47596W        W20664  34.869  14.831   3.092
47597W        W20665  40.123  33.873   1.275
47598W        W20666   5.243  18.172  11.383
47599W        W20667  31.679  14.308   3.687
47600W        W20668   4.505  32.255  13.068
47601W        W20669  26.514  41.805  12.801
47602W        W20670  27.421   5.668   0.305
47603W        W20671  34.969  34.303   4.130
47604W        W20672  36.803   5.692   3.817
47605W        W20673  14.273  27.432   0.420
47606W        W20674   1.501  15.153  11.860
47607W        W20675  18.207   8.250   4.653
47608W        W20676  27.877  18.704  10.668
47609W        W20677  38.935  31.516  13.382
47610W        W20678  12.257  34.534  12.486
47611W        W20679   8.563   7.804  12.536
47612W        W20680  19.466   2.817   3.012
47613W        W20681  13.295  36.591   0.270
47614W        W20682  32.679  39.565  11.317
47615W        W20683  14.833   0.499  12.975
47616W        W20684   6.174  13.314   2.751
47617W        W20685  17.478   6.300  14.411
47618W        W20686  25.420  24.818  11.129
47619W        W20687  29.419   6.664  14.858
47620W        W20688   3.266  17.792   4.823
47621W        W20689  16.725  22.921   2.422
47622W        W20690   2.310  11.609  14.016
47623W        W20691  12.164  22.712   4.458
47624W        W20692  26.490  30.122   4.322
47625W        W20693  30.844  41.793   2.750
47626W        W20694   7.363  44.256  11.007
47627W        W20695  14.308  37.787  14.371
47628W        W20696  43.002   2.864   3.284
47629W        W20697  30.095  24.132  13.995
47630W        W20698  17.273  27.090  14.818
47631W        W20699  44.946  19.624  12.821
47632W        W20700  19.787  37.778   4.172
47633W        W20701  21.500  12.318  12.586
47634W        W20702  24.487  12.808   3.652
47635W        W20703  29.206  14.259   2.256
47636W        W20704  37.067  12.756   2.337
47637W        W20705  14.676  11.164  14.818
47638W        W20706  27.561  18.706  12.367
47639W        W20707  10.233  29.941   0.609
47640W        W20708  26.927  35.053  10.359
47641W        W20709   8.416   7.804   0.405
47642W        W20710  43.040  34.955   2.259
47643W        W20711   5.037  31.290   0.243
47644W        W20712  42.784  43.572   5.100
47645W        W20713  19.053  19.742  11.015
47646W        W20714  36.585  34.526  13.563
47647W        W20715  13.115  20.754  12.857
47648W        W20716  28.923   1.309   3.912
47649W        W20717  43.462   2.954  14.932
47650W        W20718  36.118  38.784   2.729
47651W        W20719  39.642  25.673  13.857
47652W        W20720  42.859  34.355  12.005
47653W        W20721   5.448  12.703  12.524
47654W        W20722   4.833  41.061   4.472
47655W        W20723  28.044   8.334  14.069
47656W        W20724  16.324  43.278  10.988
47657W        W20725  12.656  27.089  10.673
47658W        W20726  44.320  27.189   4.751
47659W        W20727  29.741  32.588   2.110
47660W        W20728  12.230  43.220   3.599
47661W        W20729  18.021  38.885  13.570
47662W        W20730  18.172  23.753   1.380
47663W        W20731   8.822   9.421  13.892
47664W        W20732  39.491  20.966  12.744
47665W        W20733  26.696   8.607  13.891
47666W        W20734   0.841  16.326   0.402
47667W        W20735  22.670  18.743  12.986
47668W        W20736   2.505   9.011   2.713
47669W        W20737  13.743  26.940  14.884
47670W        W20738   9.436  10.284   0.371
47671W        W20739  22.669  43.582   2.944
47672W        W20740  29.867   9.400  14.800
47673W        W20741   7.757   2.451   1.455
47674W        W20742  40.827  40.587   3.390
47675W        W20743  14.022   4.112  11.655
47676W        W20744  35.259   2.295   4.312
47677W        W20745  10.370  23.664  11.952
47678W        W20746   9.934  43.480   0.844
47679W        W20747  37.074  38.294  13.519
47680W        W20748   5.490  23.658   1.668
47681W        W20749  15.290   7.374   4.141
47682W        W20750  43.887   5.262  14.905
47683W        W20751   3.954  16.682   2.064
47684W        W20752  20.973  15.276  13.657
47685W        W20753   5.070  29.044   1.347
47686W        W20754  19.109   8.730   4.764
47687W        W20755  32.651  42.302  10.575
47688W        W20756   4.229  44.944   1.387
47689W        W20757  16.095  43.830   2.824
47690W        W20758  20.254  35.934  11.997
47691W        W20759  10.913  11.856  14.534
47692W        W20760  26.684   8.622   0.876
47693W        W20761  28.642  42.483   3.335
47694W        W20762   1.132   0.410  13.161
47695W        W20763   8.188  19.076   0.553
47696W        W20764  31.981   5.538   2.998
47697W        W20765  29.082  18.767   0.068
47698W        W20766   2.253  17.601   0.202
47699W        W20767  33.407  44.585  13.811
47700W        W20768  33.910  37.160  11.318
47701W        W20769   6.199  23.218  11.146
47702W        W20770  16.754  12.851  11.170
47703W        W20771  29.091  41.981  13.605
47704W        W20772   5.008   2.300  14.857
47705W        W20773  10.193   4.507   1.889
47706W        W20774  10.641  38.905  13.547
47707W        W20775  29.961  26.252   2.720
47708W        W20776  32.415  37.356   2.866
47709W        W20777  17.868  33.518   4.551
47710W        W20778   1.009   2.281   1.942
47711W        W20779  31.523  26.704  13.288
47712W        W20780  18.888  15.179   1.485
47713W        W20781   5.172   2.333   3.109
47714W        W20782  38.061  12.152  10.633
47715W        W20783  13.917  24.051   1.437
47716W        W20784  44.249  33.901   0.574
47717W        W20785  20.733  12.353   4.647
47718W        W20786  34.827   8.837  12.496
47719W        W20787  19.120  35.559  12.464
47720W        W20788  23.450  26.671   1.229
47721W        W20789   3.610  42.069   1.009
47722W        W20790   2.943  12.980   1.905
47723W        W20791  29.568  39.895  12.003
47724W        W20792  24.447  16.524   4.059
47725W        W20793  15.112  21.774   3.843
47726W        W20794   3.873  17.138  14.472
47727W        W20795   9.682   7.649   3.385
47728W        W20796  13.027  24.852  11.117
47729W        W20797  21.409   6.361  14.805
47730W        W20798   0.136  10.097   1.238
47731W        W20799  11.835  29.522  14.767
47732W        W20800  18.289   0.356   2.829
47733W        W20801  43.256   3.284  12.142
47734W        W20802  37.620   1.308  13.428
47735W        W20803  25.028  24.069   2.342
47736W        W20804  23.458   6.242   1.652
47737W        W20805  12.840  35.454  12.678
47738W        W20806  10.727   4.486   1.180
47739W        W20807  14.696  19.457   4.714
47740W        W20808  25.203  39.647  10.219
47741W        W20809   2.235   0.976  14.485
47742W        W20810  20.541  39.508   3.147
47743W        W20811  44.992  15.806  11.373
47744W        W20812  37.766   4.638   0.383
47745W        W20813  32.928   0.518   0.328
47746W        W20814  42.580   5.724   1.387
47747W        W20815  37.842  24.956   4.115
47748W        W20816   2.802  14.331  12.048
47749W        W20817   6.195  19.797   4.110
47750W        W20818  29.948  35.384  11.675
47751W        W20819  13.034   8.312   1.912
47752W        W20820  39.945  19.877   3.048
47753W        W20821  36.998  16.517   3.206
47754W        W20822  21.761  26.000   1.843
47755W        W20823  29.555  36.130  12.569
47756W        W20824   7.891  12.365   4.149
47757W        W20825  42.129  41.305  11.192
47758W        W20826  18.756  32.888  13.339
47759W        W20827  16.251  40.854   2.396
47760W        W20828  31.677   2.054   2.670
47761W        W20829  27.484  14.285   1.940
47762W        W20830   1.265   6.438   1.807
47763W        W20831  40.109   3.459  13.365
47764W        W20832  17.049  35.496   4.551
47765W        W20833  17.087  14.264   1.894
47766W        W20834  24.064   9.633  10.800
47767W        W20835  32.921   9.738   3.397
47768W        W20836  40.013  28.915  12.576
47769W        W20837  22.702  36.363   3.826
47770W        W20838   1.710   7.476  11.960
47771W        W20839  30.475  30.635  14.913
47772W        W20840  36.588  33.062  12.502
47773W        W20841  19.029  42.725  12.466
47774W        W20842   8.362  26.334  11.132
47775W        W20843  38.835  39.765   1.717
47776W        W20844  12.381  14.790  10.731
47777W        W20845  29.142  24.922   0.014
47778W        W20846  27.531   1.534  13.385
47779W        W20847  31.696  18.154   4.650
47780W        W20848  16.149   3.475   3.799
47781W        W20849  11.876   2.320   3.167
47782W        W20850  32.810   0.066   0.094
47783W        W20851  31.699   4.399  11.133
47784W        W20852   0.534  20.121  11.670
47785W        W20853  30.597  18.504   1.772
47786W        W20854  11.527   3.082  11.806
47787W        W20855   6.382   1.440  13.987
47788W        W20856  12.358  24.175   3.052
47789W        W20857   5.370   9.799  14.388
47790W        W20858  40.023  29.668   3.707
47791W        W20859  18.357  23.036   3.880
47792W        W20860   0.945   2.348   4.531
47793W        W20861  16.504  13.361   3.366
47794W        W20862  19.360   3.904   3.135
47795W        W20863  11.092  12.731  14.864
47796W        W20864  10.456   7.327   0.021
47797W        W20865  38.927   4.204  13.660
47798W        W20866  38.578  32.406   1.328
47799W        W20867   4.477  19.374   2.251
47800W        W20868  22.033  16.200  13.360
47801W        W20869   1.705  42.346   0.979
47802W        W20870  15.637  42.472  12.851
47803W        W20871  19.571  22.781   1.690
47804W        W20872  28.735  18.784  11.189
47805W        W20873  23.595  35.993   4.051
47806W        W20874  44.191   7.533   5.053
47807W        W20875   1.974   8.240  12.372
47808W        W20876  35.957   4.675  14.714
47809W        W20877   3.388  18.332  12.516
47810W        W20878   0.848   7.497   2.015
47811W        W20879  36.765  44.244   1.911
47812W        W20880  40.591  10.872  12.076
47813W        W20881  43.933   6.527   2.372
47814W        W20882  13.945   9.599  11.772
47815W        W20883  18.810  21.435  13.959
47816W        W20884  24.710  11.351   1.874
47817W        W20885  11.161  15.305  12.905
47818W        W20886  18.793  35.854   4.936
47819W        W20887  35.769  29.586  11.932
47820W        W20888  25.729  19.036   0.344
47821W        W20889  41.386  15.414   0.882
47822W        W20890  39.851   8.115   0.319
47823W        W20891  15.403  17.795  14.898
47824W        W20892  42.641  43.216  14.266
47825W        W20893  10.520  36.819  11.401
47826W        W20894  19.220  18.130   4.899
47827W        W20895  35.094  38.803   4.596
47828W        W20896  23.927  12.697  13.379
47829W        W20897  37.554  12.640  12.952
47830W        W20898  17.446   5.092   1.562
47831W        W20899  15.265  38.489   1.665
47832W        W20900  36.105  40.316  14.403
47833W        W20901  10.344   1.111   3.256
47834W        W20902   9.499   9.453   1.415
47835W        W20903  41.380  15.625  10.840
47836W        W20904  11.796  30.641  14.980
47837W        W20905  23.080   1.154  12.099
47838W        W20906   6.833  13.487  11.582
47839W        W20907  22.755  40.480  13.489
47840W        W20908  37.395   7.461   2.739
47841W        W20909  38.189  38.600   3.321
47842W        W20910  34.025  25.148   5.111
47843W        W20911  21.040  44.524  11.052
47844W        W20912  39.420   8.323   3.517
47845W        W20913  15.744  15.164  14.917
47846W        W20914  20.762  22.740  11.159
47847W        W20915  12.660  11.388  11.417
47848W        W20916  38.876  30.753  13.375
47849W        W20917  38.383  17.736   3.711
47850W        W20918  35.987   6.941   4.063
47851W        W20919  31.017  25.235  12.883
47852W        W20920  22.119  40.536   1.701
47853W        W20921  40.492  11.886   4.084
47854W        W20922   0.769  37.733   3.285
47855W        W20923   3.723  32.604   2.907
47856W        W20924  43.984  36.303   4.590
47857W        W20925  18.000   8.728   0.816
47858W        W20926  31.803  11.563   3.365
47859W        W20927  12.036  19.177   2.671
47860W        W20928  35.542  25.490   3.798
47861W        W20929  13.222  39.459  12.520
47862W        W20930  16.202  13.841   0.769
47863W        W20931   9.432   6.657   4.424
47864W        W20932   6.767  37.846   2.777
47865W        W20933  33.623  28.038  12.171
47866W        W20934  42.445  37.486  13.733
47867W        W20935  11.170  10.258  14.396
47868W        W20936  29.169  28.905   2.881
47869W        W20937  11.614   7.819  11.006
47870W        W20938   6.054  33.430   3.620
47871W        W20939  30.157  43.406  14.938
47872W        W20940   8.154  38.996   3.691
47873W        W20941  32.166  10.342   0.663
47874W        W20942  34.126  24.407   0.823
47875W        W20943  23.505  24.757  11.879
47876W        W20944  32.817  33.422   1.899
47877W        W20945  19.796   9.803   4.593
47878W        W20946  10.689  21.872   0.185
47879W        W20947  37.247   4.666   1.466
47880W        W20948   4.723  30.886   3.284
47881W        W20949  44.491  38.051  10.976
47882W        W20950  36.992   4.475  10.478
47883W        W20951  14.133  34.922   4.225
47884W        W20952  37.617  39.906   3.638
47885W        W20953  25.136  14.205  13.673
47886W        W20954  18.125  14.801  12.186
47887W        W20955  26.686  44.293  12.898
47888W        W20956  16.683  25.008  13.929
47889W        W20957  28.417  44.337  13.463
47890W        W20958  24.753  18.720  12.478
47891W        W20959  26.630  16.182   3.552
47892W        W20960  40.705   5.301  11.635
47893W        W20961  26.613  32.370  11.137
47894W        W20962  37.575   5.369   4.324
47895W        W20963  40.289  15.083   3.930
47896W        W20964  30.403  38.999  13.825
47897W        W20965   6.989   7.964   3.661
47898W        W20966  33.636  24.165   2.326
47899W        W20967  37.122   1.796   4.170
47900W        W20968  28.532  42.521  13.050
47901W        W20969  15.234  16.905  12.192
47902W        W20970  10.326  30.622   3.743
47903W        W20971   7.345   2.784  14.029
47904W        W20972  12.159  30.411  13.364
47905W        W20973  23.468  22.942  10.647
47906W        W20974  39.230  15.203   4.801
47907W        W20975   2.289  35.589  13.614
47908W        W20976  21.913  44.735  11.885
47909W        W20977  43.034   6.339  12.008
47910W        W20978  42.830  36.415  12.115
47911W        W20979  17.167  37.314   0.016
47912W        W20980  24.480   0.905  14.078
47913W        W20981  11.929  41.715   2.203
47914W        W20982  29.290   7.356   3.706
47915W        W20983  15.698  36.788  14.330
47916W        W20984  37.540  15.154   0.767
47917W        W20985   3.404  36.554   5.092
47918W        W20986   4.281  22.342  13.982
47919W        W20987  28.148  23.130  10.883
47920W        W20988  19.026  18.350  14.270
47921W        W20989  25.821   5.762   4.682
47922W        W20990   2.286  40.063  13.295
47923W        W20991   5.769  31.675  10.823
47924W        W20992  20.176   0.277   2.386
47925W        W20993  32.971   4.355   2.820
47926W        W20994  35.921  34.158   3.265
47927W        W20995  39.616  27.311  10.747
47928W        W20996  37.434   7.871  11.091
47929W        W20997  43.793   5.925   1.063
47930W        W20998  17.742  39.459   3.418
47931W        W20999   7.927  19.230   3.349
47932W        W21000  21.187  18.067   3.868
47933W        W21001  30.546  43.832   0.516
47934W        W21002   1.331  15.099  11.391
47935W        W21003   5.656  36.049  11.854
47936W        W21004  38.846   1.537   1.253
47937W        W21005  43.559  38.020  12.744
47938W        W21006  10.724  39.779   3.815
47939W        W21007   0.452  15.117   4.596
47940W        W21008  27.084  19.788  10.800
47941W        W21009   3.725  11.425   2.801
47942W        W21010  37.296  44.558   4.563
47943W        W21011  26.624  37.429  11.226
47944W        W21012   7.182  18.999   2.906
47945W        W21013  15.191   3.225  11.492
47946W        W21014   4.351  26.778  10.871
47947W        W21015  10.730  43.145  10.613
47948W        W21016  18.071   2.915  14.463
47949W        W21017  34.569  39.819   3.093
47950W        W21018  10.196  43.893  12.384
47951W        W21019  14.749  35.951  13.353
47952W        W21020  34.035   3.974  13.424
47953W        W21021   3.782  28.286   0.300
47954W        W21022  44.432   9.991   4.109
47955W        W21023  12.542  38.310  12.905
47956W        W21024  35.919  33.094  10.791
47957W        W21025  26.968  20.434   1.197
47958W        W21026  32.906  37.777   2.230
47959W        W21027   1.074  42.865   4.379
47960W        W21028  25.157  20.715  11.023
47961W        W21029   1.202  43.434   2.800
47962W        W21030  43.520  17.202   9.868
47963W        W21031   2.378  38.599   4.260
47964W        W21032   3.772   0.770  12.610
47965W        W21033  42.282  28.513   4.582
47966W        W21034  31.987   6.895   1.755
47967W        W21035  16.171   4.822  14.827
47968W        W21036  24.835  15.068  11.483
47969W        W21037  28.158  33.471  10.635
47970W        W21038  44.488  40.934  14.375
47971W        W21039  10.945  31.531   4.230
47972W        W21040  23.026  41.030   3.691
47973W        W21041  13.498  12.107  12.571
47974W        W21042  32.103  34.139  11.764
47975W        W21043  43.222  40.039  14.752
47976W        W21044  24.577  15.076  13.864
47977W        W21045  17.987  15.530  13.893
47978W        W21046   0.341  28.904   4.166
47979W        W21047  38.355  33.691   4.051
47980W        W21048  36.414  30.117   0.738
47981W        W21049  29.572  36.417   3.908
47982W        W21050  12.342   1.330   2.592
47983W        W21051  27.628   6.631   1.374
47984W        W21052  23.971  17.760   0.851
47985W        W21053  17.370  20.092   4.184
47986W        W21054   3.296  24.218  14.089
47987W        W21055  23.505  28.148   1.364
47988W        W21056  13.370  31.548  11.877
47989W        W21057  34.916  27.682   0.433
47990W        W21058  40.010  31.816   2.688
47991W        W21059  17.146  20.683  11.143
47992W        W21060  23.663  24.382   0.372
47993W        W21061  36.076  18.615   1.414
47994W        W21062  41.892  10.062   1.730
47995W        W21063  29.163  15.036   3.600
47996W        W21064  33.528  43.546  10.807
47997W        W21065  39.935   6.723  12.129
47998W        W21066   5.061  34.515  11.179
47999W        W21067   3.342   8.671   4.349
48000W        W21068  20.970  14.442  12.563
48001W        W21069   0.915  11.587   2.106
48002W        W21070  36.151  37.009  13.935
48003W        W21071  39.685   4.884  12.427
48004W        W21072  13.074  22.483   3.282
48005W        W21073  20.116  28.407   0.757
48006W        W21074   4.916  37.401  10.005
48007W        W21075   6.386   7.623   0.897
48008W        W21076   3.014  16.879   0.401
48009W        W21077   0.081  25.721  11.561
48010W        W21078  27.584   0.759  13.887
48011W        W21079  44.243  42.376   0.327
48012W        W21080  34.069  28.446   1.945
48013W        W21081   0.476  12.607  14.950
48014W        W21082  11.161  20.063   3.664
48015W        W21083  15.747  25.651   4.277
48016W        W21084  21.959  10.577  11.108
48017W        W21085   5.810  28.123  14.540
48018W        W21086  24.634  14.248  12.418
48019W        W21087   3.446  43.210   4.649
48020W        W21088  15.287  25.270  11.230
48021W        W21089  10.165   1.095  10.207
48022W        W21090  40.112  39.517  13.700
48023W        W21091  35.831  43.961  13.653
48024W        W21092  18.709  22.252  14.290
48025W        W21093  39.935  39.012  13.585
48026W        W21094  15.317  25.901   0.231
48027W        W21095   5.838  34.154  13.859
48028W        W21096  44.753  41.362   0.385
48029W        W21097  44.253  44.350   3.420
48030W        W21098   9.364  36.311  11.371
48031W        W21099  30.609   3.880  12.867
48032W        W21100   0.437  42.071   1.226
48033W        W21101  12.737   3.795  14.236
48034W        W21102  29.374  35.040   1.673
48035W        W21103  32.631  29.912  14.951
48036W        W21104   8.872  15.831   1.447
48037W        W21105  20.281   4.158   2.877
48038W        W21106   6.919  15.271  13.419
48039W        W21107  17.885   5.060  13.962
48040W        W21108  42.329  18.082  14.575
48041W        W21109  10.379  42.511  12.456
48042W        W21110  36.398   6.146   4.095
48043W        W21111  43.057   4.118   0.671
48044W        W21112   0.776  36.472  14.861
48045W        W21113  19.072  13.974   5.072
48046W        W21114   1.298  12.243  12.420
48047W        W21115  10.717  30.126   0.771
48048W        W21116  22.253  36.003   4.586
48049W        W21117  16.019   8.816   3.541
48050W        W21118  11.924  37.407   3.724
48051W        W21119  14.583  44.399   0.019
48052W        W21120   7.364  42.034   1.701
48053W        W21121  32.091  19.005  11.588
48054W        W21122   8.914   2.759   0.709
48055W        W21123  43.393  33.829  10.771
48056W        W21124  37.385  38.285   2.234
48057W        W21125  40.307   4.906   0.447
48058W        W21126   3.769  29.099  13.346
48059W        W21127  38.987   0.526  13.145
48060W        W21128   8.038  44.791  14.972
48061W        W21129  40.969  32.838   1.303
48062W        W21130  12.472  18.609   2.172
48063W        W21131   3.782  32.965  14.895
48064W        W21132  23.756  14.368   0.342
48065W        W21133  20.189  27.721   1.573
48066W        W21134  43.542  30.149   2.677
48067W        W21135  22.783  36.142  12.915
48068W        W21136  34.530  30.590  11.879
48069W        W21137  27.080  42.874   2.290
48070W        W21138  13.517  31.583  14.785
48071W        W21139  30.673  21.522  11.330
48072W        W21140  14.448   7.309  13.049
48073W        W21141  39.980   9.013  11.496
48074W        W21142  14.733  41.503   1.751
48075W        W21143  12.322  20.195   2.317
48076W        W21144  39.820  43.411   1.222
48077W        W21145  21.235   5.758   3.688
48078W        W21146  25.976  12.141   3.195
48079W        W21147  25.187  41.460  13.088
48080W        W21148   2.946   3.067   4.491
48081W        W21149   2.093  16.422  12.183
48082W        W21150   4.617  33.967  11.532
48083W        W21151   0.240   3.811  13.951
48084W        W21152  44.497  32.911   1.984
48085W        W21153  21.535  17.234   4.083
48086W        W21154  17.544  26.033  13.510
48087W        W21155   9.017  15.389   2.821
48088W        W21156  38.429  31.823  13.481
48089W        W21157  39.982  25.757   4.200
48090W        W21158   4.167  15.666  12.356
48091W        W21159  10.630  43.213  12.486
48092W        W21160  27.900  13.716   1.940
48093W        W21161  37.886  44.834   0.472
48094W        W21162   9.406  17.563   4.659
48095W        W21163   2.292  39.908  14.660
48096W        W21164  23.864  11.825  13.541
48097W        W21165   0.352   9.960  12.961
48098W        W21166  43.228  11.865   4.119
48099W        W21167  20.793  26.548   1.799
48100W        W21168  17.992  22.978   4.251
48101W        W21169  37.092  11.880   1.494
48102W        W21170  19.982  23.148  12.521
48103W        W21171  15.188   9.642   2.269
48104W        W21172  16.642  18.559   2.671
48105W        W21173   1.940  14.311   2.800
48106W        W21174  43.285  24.264   2.199
48107W        W21175   4.225  35.015   3.656
48108W        W21176  25.730   9.463   1.342
48109W        W21177   9.737  32.457  12.497
48110W        W21178  39.674  12.473   2.752
48111W        W21179  40.765  20.041  12.956
48112W        W21180  21.083  17.976  11.555
48113W        W21181  25.556   1.691  14.453
48114W        W21182  39.960  28.159  12.037
48115W        W21183  23.636   9.810   2.278
48116W        W21184  28.270  31.091  11.576
48117W        W21185   9.258   8.815  13.087
48118W        W21186  43.993  33.910   4.321
48119W        W21187  41.870  16.806  14.360
48120W        W21188   8.365  30.021   2.135
48121W        W21189  41.045   4.533   4.516
48122W        W21190  22.209  13.857  13.940
48123W        W21191  42.732   9.680   0.450
48124W        W21192  44.278  24.446  12.046
48125W        W21193  22.276  14.231  10.926
48126W        W21194  23.678   2.028  11.554
48127W        W21195   4.787  15.227   4.432
48128W        W21196  18.976  11.706  14.408
48129W        W21197  23.810  28.085  10.823
48130W        W21198   0.363   6.243  10.414
48131W        W21199  36.749  43.244   0.765
48132W        W21200  10.799  19.213   9.967
48133W        W21201  30.580   2.159   2.640
48134W        W21202   6.974  42.430   2.336
48135W        W21203  24.778   4.770  14.929
48136W        W21204  13.753  20.046   4.731
48137W        W21205  44.220  24.651  14.127
48138W        W21206  29.090  42.440  13.339
48139W        W21207  14.277  28.137  12.256
48140W        W21208  16.569  32.556  14.428
48141W        W21209  44.757  28.459   1.858
48142W        W21210  17.409  29.520   4.575
48143W        W21211  44.926  13.231   2.131
48144W        W21212  12.736  26.594  12.341
48145W        W21213  33.619  11.861   1.405
48146W        W21214  30.048  13.567   2.939
48147W        W21215  17.356   4.720  12.761
48148W        W21216  25.273   9.775   4.993
48149W        W21217   7.084  44.488  12.528
48150W        W21218   2.809  13.523   1.847
48151W        W21219  20.315  23.066   0.523
48152W        W21220  41.429  42.062   4.095
48153W        W21221  11.318   9.552   4.485
48154W        W21222   4.057  33.081   0.912
48155W        W21223   6.359  10.572   0.850
48156W        W21224  26.794  16.919   4.922
48157W        W21225  19.914  18.116  11.052
48158W        W21226  29.711  40.511  14.497
48159W        W21227  37.575  19.830   3.243
48160W        W21228  27.973   9.227  12.361
48161W        W21229  18.380  25.611   4.923
48162W        W21230  36.567  17.187   0.697
48163W        W21231   7.717  33.356   0.548
48164W        W21232  35.715  12.600   0.085
48165W        W21233  43.400  34.388  14.494
48166W        W21234  13.567  16.656  12.504
48167W        W21235  38.938  44.830   0.412
48168W        W21236  18.690  12.612   2.773
48169W        W21237  36.485   4.143   1.396
48170W        W21238   4.735   2.561   4.490
48171W        W21239  26.926  16.987  10.147
48172W        W21240   8.440  23.107  14.886
48173W        W21241  10.430  30.674   0.528
48174W        W21242   8.629   0.762  12.188
48175W        W21243  28.386  44.275   2.914
48176W        W21244  39.060  14.081  12.367
48177W        W21245  21.825  38.795   3.391
48178W        W21246  31.893   6.485  12.422
48179W        W21247  41.048   6.076  12.941
48180W        W21248  43.391  38.932   0.171
48181W        W21249   0.499  12.691  13.782
48182W        W21250  39.394  40.043  10.548
48183W        W21251  12.845  41.696   2.057
48184W        W21252  37.544  15.742   4.517
48185W        W21253   2.593   1.345   0.745
48186W        W21254  15.070   3.030  13.472
48187W        W21255  35.063  18.381  14.873
48188W        W21256  35.734  21.675   0.335
48189W        W21257  22.545  19.799  10.597
48190W        W21258  37.649  22.227   4.541
48191W        W21259  11.846   6.417   0.635
48192W        W21260  38.458   9.113  12.870
48193W        W21261  29.418  23.160  10.406
48194W        W21262  32.584  10.904  12.962
48195W        W21263  26.390   6.912  12.479
48196W        W21264  12.286  33.612   0.300
48197W        W21265  13.355   0.966   0.834
48198W        W21266  23.231   1.487   2.314
48199W        W21267  36.550  43.357  12.491
48200W        W21268  12.265  32.600   4.087
48201W        W21269  32.062  35.936  11.380
48202W        W21270  42.390  35.158  12.065
48203W        W21271  25.805  30.703  12.968
48204W        W21272  19.753  32.241   2.306
48205W        W21273  40.900   7.645  14.642
48206W        W21274  15.034  27.906   1.390
48207W        W21275  14.254  31.212   3.165
48208W        W21276  23.252   5.330   3.244
48209W        W21277   5.212  14.924  10.627
48210W        W21278  25.949  24.600  13.031
48211W        W21279  34.340  40.360  11.196
48212W        W21280  13.827  20.650  11.987
48213W        W21281  32.719  43.691  11.079
48214W        W21282   2.574  18.963  13.414
48215W        W21283  26.922  39.927  11.603
48216W        W21284  39.299  38.444  11.126
48217W        W21285  21.959  14.271  14.827
48218W        W21286  44.334  39.485   3.360
48219W        W21287   4.217  31.941  11.543
48220W        W21288  34.935  10.777  10.834
48221W        W21289   1.293   2.000  14.015
48222W        W21290   3.546  18.201   4.697
48223W        W21291   2.831   3.848   0.436
48224W        W21292  40.957  31.178  12.465
48225W        W21293  13.251  21.186   3.151
48226W        W21294  25.612  39.753   1.884
48227W        W21295  38.226  20.255   2.737
48228W        W21296   4.712  22.125  12.549
48229W        W21297  26.019  34.793  11.939
48230W        W21298  28.256  34.184  12.950
48231W        W21299  37.012  26.893  12.509
48232W        W21300  23.907   7.212   4.589
48233W        W21301   5.862  42.904   2.749
48234W        W21302  39.252  30.889  14.179
48235W        W21303  39.414  31.190   4.285
48236W        W21304  13.160   7.903  11.288
48237W        W21305   4.473  33.480   4.144
48238W        W21306  19.401   0.541  11.512
48239W        W21307  28.713  23.528  12.786
48240W        W21308  43.664  43.017  13.148
48241W        W21309  41.917  12.141   1.819
48242W        W21310  32.322  33.531  14.455
48243W        W21311   9.015  31.179  11.046
48244W        W21312  43.937  36.502   0.343
48245W        W21313  22.710  40.428  11.138
48246W        W21314   0.704  39.978  14.951
48247W        W21315  32.004  23.617  12.878
48248W        W21316   4.348  23.676  12.958
48249W        W21317  22.709  13.162   2.793
48250W        W21318   1.705   6.111  10.795
48251W        W21319  30.069   7.138  13.428
48252W        W21320   3.864  38.744  12.951
48253W        W21321   1.093  41.499   4.735
48254W        W21322  32.678   8.990   3.674
48255W        W21323   0.419  16.376  13.307
48256W        W21324   6.122   9.765  10.186
48257W        W21325  43.235  17.340   1.916
48258W        W21326   3.808  20.256  11.731
48259W        W21327  26.473  38.503   4.307
48260W        W21328  33.436  24.862   4.825
48261W        W21329   3.428  22.675   3.159
48262W        W21330  18.277  41.221  13.629
48263W        W21331   9.730  21.470   1.156
48264W        W21332  31.011  19.213  12.250
48265W        W21333  32.905  25.161  12.569
48266W        W21334  13.276  16.887  10.843
48267W        W21335  43.284  25.443   1.291
48268W        W21336  31.695  33.133  12.994
48269W        W21337  19.307  36.622   3.630
48270W        W21338  43.092  42.980   2.817
48271W        W21339  12.722  38.495   3.164
48272W        W21340  24.387   9.674  12.033
48273W        W21341  21.830  15.533   2.785
48274W        W21342  42.849  14.266   2.393
48275W        W21343   1.178  21.983  10.184
48276W        W21344  18.201  35.016  12.131
48277W        W21345  30.365  26.471  14.411
48278W        W21346  28.493   7.459   3.217
48279W        W21347  31.141   4.732   2.677
48280W        W21348  18.475  27.734  12.405
48281W        W21349  17.158  31.447   1.254
48282W        W21350  25.423  41.377  12.623
48283W        W21351  20.744   0.744  14.373
48284W        W21352  41.533   8.316   3.967
48285W        W21353  11.325  10.285   3.279
48286W        W21354  44.441  29.575   5.007
48287W        W21355  27.568   0.010  12.421
48288W        W21356  38.491  36.074   3.627
48289W        W21357  29.268  39.798   1.667
48290W        W21358  29.532  20.067   3.255
48291W        W21359  26.922  17.236  14.796
48292W        W21360  17.408   2.406  14.414
48293W        W21361  12.300  14.028   4.715
48294W        W21362  25.686   0.922   4.745
48295W        W21363  42.333   9.785  10.665
48296W        W21364  27.644  34.986  14.718
48297W        W21365  37.305  31.261   2.590
48298W        W21366  19.271  39.532   4.611
48299W        W21367  34.345  33.495   1.453
48300W        W21368  32.961  17.143  13.422
48301W        W21369   0.264  44.247   2.108
48302W        W21370   1.658  20.086   3.326
48303W        W21371  36.983  19.356  11.693
48304W        W21372  18.249  15.525   0.356
48305W        W21373   4.028  41.483   2.770
48306W        W21374   2.133  19.617  13.840
48307W        W21375   7.603   4.830  13.388
48308W        W21376  42.405  42.318   4.142
48309W        W21377  24.194  44.374   3.654
48310W        W21378  31.428  41.568  14.844
48311W        W21379  41.115  43.030  11.971
48312W        W21380   0.852  43.374   2.392
48313W        W21381  13.176  39.988  10.699
48314W        W21382  13.697  32.500   4.260
48315W        W21383   4.672  38.829  11.620
48316W        W21384  42.780  28.052  12.897
48317W        W21385  38.561   2.955   0.914
48318W        W21386  11.066  36.451   3.060
48319W        W21387  20.837  29.590  11.599
48320W        W21388  11.364  26.652  10.612
48321W        W21389  32.901  17.041  14.975
48322W        W21390  15.126  18.781   4.055
48323W        W21391  43.031  11.761   0.972
48324W        W21392  24.258  16.804   2.799
48325W        W21393  15.712  37.083   3.650
48326W        W21394  27.607   7.441  14.941
48327W        W21395  35.157  18.640   2.259
48328W        W21396  23.267  24.675   5.093
48329W        W21397  35.933  12.614   1.193
48330W        W21398  24.270   2.208  12.607
48331W        W21399  20.642  43.937   3.278
48332W        W21400  17.311  32.101  12.893
48333W        W21401  28.426  37.336  12.905
48334W        W21402  20.327  21.477  14.796
48335W        W21403  28.989  14.252   4.634
48336W        W21404   1.000  35.529  14.545
48337W        W21405  32.107   2.703   1.407
48338W        W21406  41.334  13.810  12.424
48339W        W21407   9.718  40.296  10.119
48340W        W21408  40.156  39.756   4.755
48341W        W21409  11.049  29.524  14.388
48342W        W21410  29.450  31.072  12.348
48343W        W21411   3.292   9.672   3.892
48344W        W21412  39.553  24.120   3.754
48345W        W21413   0.931  11.813   4.644
48346W        W21414  23.904  10.745  12.927
48347W        W21415  37.498  41.756   4.102
48348W        W21416  37.553  43.909  13.019
48349W        W21417  24.550  13.362   1.886
48350W        W21418  42.298  35.439  13.682
48351W        W21419  41.776  44.792   2.191
48352W        W21420  42.327  23.037   2.496
48353W        W21421  16.131  11.680  11.964
48354W        W21422  17.049  21.685  14.851
48355W        W21423  41.591  17.129  12.521
48356W        W21424   9.246   1.561  14.932
48357W        W21425  28.188  36.516   4.589
48358W        W21426  13.120  42.346   2.691
48359W        W21427  25.974  12.526  14.373
48360W        W21428   7.174  43.126  12.333
48361W        W21429   5.608  41.366  14.336
48362W        W21430  38.319  28.719  11.098
48363W        W21431  14.543  43.943   2.789
48364W        W21432  34.221  10.357   1.993
48365W        W21433  37.885  28.099  10.598
48366W        W21434   7.424  26.131   1.861
48367W        W21435   7.838  28.386  13.994
48368W        W21436  26.107   4.796   3.759
48369W        W21437  31.871  22.674   3.290
48370W        W21438  26.453   9.611  13.734
48371W        W21439  32.903  21.417   0.813
48372W        W21440  15.576  44.238  13.119
48373W        W21441  11.111  35.595   4.452
48374W        W21442  21.590  41.942   4.106
48375W        W21443  27.117   2.151   0.652
48376W        W21444  36.012   4.891   1.660
48377W        W21445   9.151  41.613   9.948
48378W        W21446   7.010  10.167   0.056
48379W        W21447  37.348  42.743  11.557
48380W        W21448  11.184  32.645   2.261
48381W        W21449  19.773   1.239  14.847
48382W        W21450  23.179  16.732  14.976
48383W        W21451  26.926  10.155  10.687
48384W        W21452  28.625  42.769  14.829
48385W        W21453   8.786  16.203  14.986
48386W        W21454   2.955   7.812   1.801
48387W        W21455  23.189   8.217  11.215
48388W        W21456  29.088  24.687   0.559
48389W        W21457  25.954  20.740  12.540
48390W        W21458   0.311   9.701   2.182
48391W        W21459  20.069  30.253   0.283
48392W        W21460  34.784   7.300   3.213
48393W        W21461  14.269   4.067   4.143
48394W        W21462   8.356  25.238   0.240
48395W        W21463   9.450   0.719  14.710
48396W        W21464  32.547  28.578   0.469
48397W        W21465  15.491  27.417   2.336
48398W        W21466   0.314   0.541  13.581
48399W        W21467  32.176  17.236   3.880
48400W        W21468  25.392  41.996  14.807
48401W        W21469  10.752  40.126  11.475
48402W        W21470  14.622  14.623   3.810
48403W        W21471  13.218  41.029   3.924
48404W        W21472  10.160  42.365  12.920
48405W        W21473  33.629  44.726   3.594
48406W        W21474  28.435  43.320  13.517
48407W        W21475  28.658   8.342   4.214
48408W        W21476  12.318  13.184  14.314
48409W        W21477  33.439  25.198  12.428
48410W        W21478   6.811   3.938   1.136
48411W        W21479   2.473  42.888   1.662
48412W        W21480  25.006   6.292  12.863
48413W        W21481  39.249  14.185   2.108
48414W        W21482  34.780  31.808   2.153
48415W        W21483  18.056  23.240  11.983
48416W        W21484  39.136  36.280   5.045
48417W        W21485   3.647  43.946   3.124
48418W        W21486  10.756  19.893   0.746
48419W        W21487  22.061  10.750   1.740
48420W        W21488   8.896  10.767  12.732
48421W        W21489  11.649  26.598   1.152
48422W        W21490  28.132  10.645   0.485
48423W        W21491  16.722  14.316  12.065
48424W        W21492  25.456   5.309   0.186
48425W        W21493  11.661  16.166  11.083
48426W        W21494  27.065   3.956   0.907
48427W        W21495  22.715  13.158  14.208
48428W        W21496   7.231   4.854  10.515
48429W        W21497  12.360   7.356   3.166
48430W        W21498  31.878  36.908  12.927
48431W        W21499   3.409  29.422   3.720
48432W        W21500   8.300  20.230   4.347
48433W        W21501  26.565  33.048  12.108
48434W        W21502  33.527   1.554   3.329
48435W        W21503  16.324  34.111   4.775
48436W        W21504  40.392  37.497  14.939
48437W        W21505  10.392  26.091   1.378
48438W        W21506  20.468  16.583   2.696
48439W        W21507  39.817   7.772   3.266
48440W        W21508  19.961  13.038  12.981
48441W        W21509  19.013  40.530   1.836
48442W        W21510  42.999  44.338  12.920
48443W        W21511  21.067  17.966   0.912
48444W        W21512  10.265  40.392  14.342
48445W        W21513  26.672   1.989  13.059
48446W        W21514  31.133  32.441   2.391
48447W        W21515  20.112  44.953  11.871
48448W        W21516  24.982  21.912   0.326
48449W        W21517  12.280  37.212   0.297
48450W        W21518  10.693  28.568  11.385
48451W        W21519  35.961  37.829   1.778
48452W        W21520  19.588  26.189   0.955
48453W        W21521  11.153   0.375   3.395
48454W        W21522   8.615   5.708  10.504
48455W        W21523  37.444  20.316  14.847
48456W        W21524  38.920   9.762   4.064
48457W        W21525  41.361   2.392   3.315
48458W        W21526   7.692  20.261   2.186
48459W        W21527  33.054  41.283  11.373
48460W        W21528  10.733  21.417   3.626
48461W        W21529  41.973  37.208  10.520
48462W        W21530  44.411  28.591   4.802
48463W        W21531  40.714  19.683   3.708
48464W        W21532  41.738  15.483  14.514
48465W        W21533  29.625  36.601   0.378
48466W        W21534  17.664  33.910   2.830
48467W        W21535  27.465  22.492  10.785
48468W        W21536  20.029  30.902   1.654
48469W        W21537   6.790  16.665  13.529
48470W        W21538  31.020  44.946   4.425
48471W        W21539   4.170  16.472  12.664
48472W        W21540  33.931  21.293  12.564
48473W        W21541  29.860  15.326  12.069
48474W        W21542   2.946  37.055  13.111
48475W        W21543   6.520   1.898  12.638
48476W        W21544  25.447  38.525  10.997
48477W        W21545   3.934  34.152  10.718
48478W        W21546  23.982   1.342  13.100
48479W        W21547  24.165   8.662   2.399
48480W        W21548  26.553  32.597  10.691
48481W        W21549  39.258   2.460   4.201
48482W        W21550  15.122   6.956   2.850
48483W        W21551  29.482  16.515   1.790
48484W        W21552  17.592  20.049  12.909
48485W        W21553  25.120  26.458   1.416
48486W        W21554  35.338  17.805   2.442
48487W        W21555  32.656   4.180   0.321
48488W        W21556   3.744  23.272  12.090
48489W        W21557   3.249  37.768   2.235
48490W        W21558  36.059  43.882  12.834
48491W        W21559  13.215  18.285   4.599
48492W        W21560  12.372  36.017  10.711
48493W        W21561  26.730   1.930  10.341
48494W        W21562   1.462  22.731   4.520
48495W        W21563  41.028  30.887   2.334
48496W        W21564  24.335  20.698  10.408
48497W        W21565  30.545  11.136   1.204
48498W        W21566  27.490  41.528   1.074
48499W        W21567  20.295  36.469  13.785
48500W        W21568  23.231  39.473   0.695
48501W        W21569  38.540  23.023  11.383
48502W        W21570   5.189  33.594  11.799
48503W        W21571  41.877   3.760   3.565
48504W        W21572   3.841   8.167  10.691
48505W        W21573  10.706  11.627   0.862
48506W        W21574   9.815  31.430   2.157
48507W        W21575  21.144  37.987   4.568
48508W        W21576  15.031   7.939  11.331
48509W        W21577  43.018  36.557  10.764
48510W        W21578  39.862  36.187   1.843
48511W        W21579   8.299  16.842   4.351
48512W        W21580  40.480  33.065  10.569
48513W        W21581  12.081  40.546   2.655
48514W        W21582   6.244   9.780  14.045
48515W        W21583   2.982  17.015   3.218
48516W        W21584  41.247  10.555   3.327
48517W        W21585  16.153  43.946  10.740
48518W        W21586  41.354  30.316  13.426
48519W        W21587  32.620  38.958  13.184
48520W        W21588   3.412   6.498  14.259
48521W        W21589  11.604  24.497   1.965
48522W        W21590  24.811  33.258  14.393
48523W        W21591  11.238   6.811   3.575
48524W        W21592  44.277   9.461   1.452
48525W        W21593  19.277   1.463   1.046
48526W        W21594  43.363  28.578  14.804
48527W        W21595  13.179  43.662   2.745
48528W        W21596  21.686  27.963   1.732
48529W        W21597  39.316   8.256  11.175
48530W        W21598  29.974  29.931   3.702
48531W        W21599  36.796   0.206   4.830
48532W        W21600   6.360  13.714  11.626
48533W        W21601  40.834  10.289  12.787
48534W        W21602  24.271  13.750  14.898
48535W        W21603   1.375   5.308  11.576
48536W        W21604  36.546  36.636  10.829
48537W        W21605   1.237   0.962   3.322
48538W        W21606  42.595  31.676   1.261
48539W        W21607   1.460  42.044   0.509
48540W        W21608  15.329  20.325   3.665
48541W        W21609  39.024  42.815  12.461
48542W        W21610  25.160  34.706   3.379
48543W        W21611  13.054   8.154   1.407
48544W        W21612  44.771  10.784   2.895
48545W        W21613   0.015  31.801  13.955
48546W        W21614  11.276  13.615  12.579
48547W        W21615  40.228  13.747   3.769
48548W        W21616  19.767  25.027   3.398
48549W        W21617  27.360  19.064  11.975
48550W        W21618   6.173   2.040   0.942
48551W        W21619  30.368  34.726   0.833
48552W        W21620  29.258  40.269  14.468
48553W        W21621  24.776   6.753  12.092
48554W        W21622  17.651  15.885  12.047
48555W        W21623   9.686  44.375   3.272
48556W        W21624  26.675  40.222   4.054
48557W        W21625  27.406  22.025   3.468
48558W        W21626  32.424  30.515   4.511
48559W        W21627  11.863   9.797   2.833
48560W        W21628  15.043  23.693  11.483
48561W        W21629  14.223  24.458  10.724
48562W        W21630  44.436  43.120  14.945
48563W        W21631  35.520  31.386   4.623
48564W        W21632  24.643  39.924  13.931
48565W        W21633  37.803  42.494  11.674
48566W        W21634   5.461  31.361   3.424
48567W        W21635  21.728  33.601  14.980
48568W        W21636  27.019  28.894   4.099
48569W        W21637  38.632  19.264   1.382
48570W        W21638  29.831  12.810   2.159
48571W        W21639  10.967  27.697  12.998
48572W        W21640  33.841  44.441   0.305
48573W        W21641   2.903  10.737  12.653
48574W        W21642  10.192   9.831  13.931
48575W        W21643  20.053  33.938   3.864
48576W        W21644  20.344   1.037  13.459
48577W        W21645   2.140  35.994  13.338
48578W        W21646   1.896  42.737  13.818
48579W        W21647  25.396  27.637  12.991
48580W        W21648  29.727  24.060  12.095
48581W        W21649   4.588  30.914   5.100
48582W        W21650  41.467  16.999   2.444
48583W        W21651  39.485  37.520  10.894
48584W        W21652  31.555  11.868   4.945
48585W        W21653   6.804   0.114   3.176
48586W        W21654   2.646  33.433  11.885
48587W        W21655   4.666  29.150  14.952
48588W        W21656   5.969  35.600  11.990
48589W        W21657   8.791  41.949   3.237
48590W        W21658  10.189  23.201   1.953
48591W        W21659   1.943   4.845  12.572
48592W        W21660   5.813  42.338   4.790
48593W        W21661   6.256  36.731   4.494
48594W        W21662  38.239  23.585   5.043
48595W        W21663  37.862  30.216   1.795
48596W        W21664  26.170   7.371  12.063
48597W        W21665  31.368  44.556   1.301
48598W        W21666  25.019  43.483   3.708
48599W        W21667  23.517   4.735   4.402
48600W        W21668  10.839  16.710   1.409
48601W        W21669  16.010  10.815  10.680
48602W        W21670  23.593  37.124   2.642
48603W        W21671  25.711  12.563   3.041
48604W        W21672  38.484  42.330  11.056
48605W        W21673  31.989   0.672   2.798
48606W        W21674  37.963   0.826  10.518
48607W        W21675  39.177  21.223  10.267
48608W        W21676  40.377  25.544   3.350
48609W        W21677  28.998   8.705   4.106
48610W        W21678  19.065  33.288  11.344
48611W        W21679  39.040  19.487   1.183
48612W        W21680  29.828  17.139   4.166
48613W        W21681   2.375  19.469  10.629
48614W        W21682  20.627  32.060   1.162
48615W        W21683  39.613  42.732   3.264
48616W        W21684   2.890  39.948   0.948
48617W        W21685  14.526  39.946   0.883
48618W        W21686   3.247  29.654   1.410
48619W        W21687  29.178   9.357   2.301
48620W        W21688  17.238  22.634  13.273
48621W        W21689  19.173  10.608   4.738
48622W        W21690  10.200  33.478   1.230
48623W        W21691   4.020  34.976  13.539
48624W        W21692  12.872  32.606   1.383
48625W        W21693  42.332  37.163  12.026
48626W        W21694  35.106  10.410  10.044
48627W        W21695  13.603  37.635   2.914
48628W        W21696  16.193  44.702   2.604
48629W        W21697  23.573   0.001  14.841
48630W        W21698  14.709  30.134  12.907
48631W        W21699  26.625  38.980   3.388
48632W        W21700  16.765  23.259  13.312
48633W        W21701  31.361   9.739   4.330
48634W        W21702  43.021   8.864   2.980
48635W        W21703  26.354  27.462  12.980
48636W        W21704   2.345   1.904  14.326
48637W        W21705  27.956   2.192  13.001
48638W        W21706  44.388  38.470   3.251
48639W        W21707  19.220  25.523  11.634
48640W        W21708   6.863  24.712   4.291
48641W        W21709  28.114  11.586   2.835
48642W        W21710  32.017  32.590  13.436
48643W        W21711  43.221  10.821   3.513
48644W        W21712   6.628  28.020  11.536
48645W        W21713   4.338  15.655   3.369
48646W        W21714  42.203  32.922   0.776
48647W        W21715  42.285  11.315  13.671
48648W        W21716  10.666  37.511  14.496
48649W        W21717  39.774  13.656  13.451
48650W        W21718  22.309   1.753   2.688
48651W        W21719  30.873   2.423   0.316
48652W        W21720   4.014  28.736   5.001
48653W        W21721  16.632  15.368   0.398
48654W        W21722   1.203  10.369  12.061
48655W        W21723  13.583  31.440   1.181
48656W        W21724  33.569  18.182   3.092
48657W        W21725  35.448  30.002   4.034
48658W        W21726  40.036   4.639  12.989
48659W        W21727  44.959  32.437   0.863
48660W        W21728   8.317  22.077  12.087
48661W        W21729   2.492  16.754  12.071
48662W        W21730  35.012  22.583  14.951
48663W        W21731  28.582  37.638  14.771
48664W        W21732  41.049  13.232  13.430
48665W        W21733  27.061  26.045   3.187
48666W        W21734  15.782  13.612   0.985
48667W        W21735  22.723  31.726  13.306
48668W        W21736  35.688  25.590  12.072
48669W        W21737  12.143  23.585   1.441
48670W        W21738   9.159  40.682   1.830
48671W        W21739  19.508   4.704   4.135
48672W        W21740  32.890  10.596   1.978
48673W        W21741  26.974  16.787  11.417
48674W        W21742  40.915  23.662  10.890
48675W        W21743  34.673  28.476  13.837
48676W        W21744  15.616  19.662   0.469
48677W        W21745  26.250   0.689  11.943
48678W        W21746  10.722  18.597  10.736
48679W        W21747  35.654  31.050   3.741
48680W        W21748  42.028  38.618  10.437
48681W        W21749  39.532  38.356  12.878
48682W        W21750  19.864  23.539   0.288
48683W        W21751  25.554  33.192  12.860
48684W        W21752  41.914  20.197   4.326
48685W        W21753  25.566  12.101   2.846
48686W        W21754  40.205   2.225   4.346
48687W        W21755  43.857  41.830   4.160
48688W        W21756  28.601  34.072  11.661
48689W        W21757   8.619  32.490  14.024
48690W        W21758  33.381  11.164   4.166
48691W        W21759   8.205  42.757  14.256
48692W        W21760  27.271  16.338  11.546
48693W        W21761  37.887  13.803   4.180
48694W        W21762  23.480  10.877   4.073
48695W        W21763  26.519  20.129   1.351
48696W        W21764  30.435  12.078  12.934
48697W        W21765  23.501   8.344   0.900
48698W        W21766   9.846   8.443   3.745
48699W        W21767  25.917  14.226  14.441
48700W        W21768  42.231  15.649  11.913
48701W        W21769  18.639   1.428   4.094
48702W        W21770  41.044  41.521   4.630
48703W        W21771  12.023  12.763   2.235
48704W        W21772  43.127  18.411  12.430
48705W        W21773  42.326  44.897  13.713
48706W        W21774  18.475  40.874  11.903
48707W        W21775  44.319  25.855  11.989
48708W        W21776  43.456   9.025   0.392
48709W        W21777  32.218  15.428   2.251
48710W        W21778  21.206  28.703  12.511
48711W        W21779  21.065  13.819   0.359
48712W        W21780  27.066  44.202  13.483
48713W        W21781  37.499  44.942   1.788
48714W        W21782  27.653  21.041  11.169
48715W        W21783  24.737  17.318  12.152
48716W        W21784   3.315  30.478  14.783
48717W        W21785   7.744  32.613  12.881
48718W        W21786  24.465   1.293   1.304
48719W        W21787  16.665  44.716   1.619
48720W        W21788  19.261  29.632  11.238
48721W        W21789  30.076  35.143  12.145
48722W        W21790  10.887  24.152   0.053
48723W        W21791  31.571  27.447   1.284
48724W        W21792  39.997  21.574   0.640
48725W        W21793  44.431  43.388  11.715
48726W        W21794  30.709  19.238   1.374
48727W        W21795  29.273  24.958  11.917
48728W        W21796   3.009  42.956   4.631
48729W        W21797  10.193  43.620  11.163
48730W        W21798  36.813   5.318   1.733
48731W        W21799  24.934  36.226   4.262
48732W        W21800  20.339  10.200   1.416
48733W        W21801   4.804   4.011   4.553
48734W        W21802  26.514  33.113  12.903
48735W        W21803  39.024  34.386   0.366
48736W        W21804  32.853  25.680  12.579
48737W        W21805  30.336   0.199  14.956
48738W        W21806   5.676   1.533  12.507
48739W        W21807  38.582  27.922   3.847
48740W        W21808  33.974   4.423   3.717
48741W        W21809  44.341  30.730   0.356
48742W        W21810   5.725  12.341   3.260
48743W        W21811  16.750  13.958   2.206
48744W        W21812  33.045  10.743   2.442
48745W        W21813   2.541  16.842   1.787
48746W        W21814  34.474  36.042  12.546
48747W        W21815  30.018  10.739   3.152
48748W        W21816  40.488  35.004   2.227
48749W        W21817  39.496  37.956  13.826
48750W        W21818  17.791  24.247  12.645
48751W        W21819  34.547  17.266   2.001
48752W        W21820   3.450   7.661  11.083
48753W        W21821  39.555  25.490   3.517
48754W        W21822  23.342  11.811  13.424
48755W        W21823  41.825   8.995  13.511
48756W        W21824   1.461   6.667  12.029
48757W        W21825   6.810  20.636   2.384
48758W        W21826  13.999  28.198  12.690
48759W        W21827  13.735  34.445  11.429
48760W        W21828  38.952  35.065  13.471
48761W        W21829   1.190   0.838   0.169
48762W        W21830   0.156   2.784   3.362
48763W        W21831   7.809  28.010  10.650
48764W        W21832  43.199  33.510   3.909
48765W        W21833  35.861  32.309   0.833
48766W        W21834  34.721  21.150  14.683
48767W        W21835   9.880   4.496  11.451
48768W        W21836   1.329  44.778  11.441
48769W        W21837  26.542  35.415   4.512
48770W        W21838  42.862   0.958   0.379
48771W        W21839  44.230  39.543  11.578
48772W        W21840  32.687  19.656  13.749
48773W        W21841   8.318  15.480  14.562
48774W        W21842   2.513   3.710  12.665
48775W        W21843  29.594  26.809  10.730
48776W        W21844  26.027  44.249   1.887
48777W        W21845  12.397   6.175  14.890
48778W        W21846   1.874   4.880  13.432
48779W        W21847   6.877  30.984   1.761
48780W        W21848  12.288   4.207   0.865
48781W        W21849  24.453  11.871   2.753
48782W        W21850  15.093  13.567   4.751
48783W        W21851  10.332  38.823  14.434
48784W        W21852  37.478  10.486   0.299
48785W        W21853   9.457  43.849   0.449
48786W        W21854  21.113  22.925  11.515
48787W        W21855  28.207  42.742  10.960
48788W        W21856   6.813   4.499   3.485
48789W        W21857  40.296  10.451  12.084
48790W        W21858  37.920  11.133  12.644
48791W        W21859  41.044  44.584  14.765
48792W        W21860  38.600  41.425   4.791
48793W        W21861   5.841   8.177  12.387
48794W        W21862   1.527  41.703   2.759
48795W        W21863  36.113  21.182  10.765
48796W        W21864   8.452  42.954   5.226
48797W        W21865  37.891  44.077  10.429
48798W        W21866  38.929   2.235  14.910
48799W        W21867  41.069  26.050   4.921
48800W        W21868  43.963  11.215   0.091
48801W        W21869  32.440  37.294  14.774
48802W        W21870  36.492  29.435   3.221
48803W        W21871  12.692  28.011  10.632
48804W        W21872  23.389  44.790   3.402
48805W        W21873  25.085  10.215  11.797
48806W        W21874  35.568  34.134   2.818
48807W        W21875  31.488  37.767  12.554
48808W        W21876  41.698  18.240   5.024
48809W        W21877  34.137  13.286  11.551
48810W        W21878  32.924  31.316  11.540
48811W        W21879   8.628  11.388   4.443
48812W        W21880   8.371  16.466   1.154
48813W        W21881  37.326   2.709   2.185
48814W        W21882  17.850   6.689  13.401
48815W        W21883  44.978  16.812  11.139
48816W        W21884  25.155  44.958  11.574
48817W        W21885  18.774  31.364  12.504
48818W        W21886   1.699  24.243   2.758
48819W        W21887  22.987  37.184  12.787
48820W        W21888   7.930   7.582  10.687
48821W        W21889   1.832  35.566  13.326
48822W        W21890  10.881  18.409  12.428
48823W        W21891  36.716  19.507  11.252
48824W        W21892   4.021  15.783  14.782
48825W        W21893  32.372  14.983  12.620
48826W        W21894  32.924  36.037   0.809
48827W        W21895  10.666  32.308   4.084
48828W        W21896   5.274  13.768   3.906
48829W        W21897  38.524  27.023   4.219
48830W        W21898  23.496  31.081  14.358
48831W        W21899   2.681  24.618  14.673
48832W        W21900  16.690  28.914  13.955
48833W        W21901   9.870  18.047  11.007
48834W        W21902  23.776  13.196  12.466
48835W        W21903  15.827  39.699  11.095
48836W        W21904  21.096  33.636  11.460
48837W        W21905  39.130  43.953  14.510
48838W        W21906  37.331  35.486   4.029
48839W        W21907  22.141  34.059  13.358
48840W        W21908  26.138  16.003  14.692
48841W        W21909  44.226  15.578   4.642
48842W        W21910  10.841  39.829   1.998
48843W        W21911  13.302  37.350   2.140
48844W        W21912  28.262   5.327   3.201
48845W        W21913  13.404  17.721  14.763
48846W        W21914  20.773  39.339  12.952
48847W        W21915  23.262  20.050   2.574
48848W        W21916  19.702  23.650  12.551
48849W        W21917  42.283  33.132  11.936
48850W        W21918  19.709   9.807  11.997
48851W        W21919  23.790   2.152   4.252
48852W        W21920  41.811  28.914   0.319
48853W        W21921  33.385   9.860  12.387
48854W        W21922  10.306   9.150  13.103
48855W        W21923  31.399   1.715   3.530
48856W        W21924  33.223  20.293   3.814
48857W        W21925  39.520  11.005   4.050
48858W        W21926  40.001   5.353  11.036
48859W        W21927  42.443  34.910   4.208
48860W        W21928   2.474  41.577  10.525
48861W        W21929  10.698   7.721   3.627
48862W        W21930  44.506  24.721   0.377
48863W        W21931   2.784   7.875   3.284
48864W        W21932  20.222  28.744   1.170
48865W        W21933  36.381  36.289   0.819
48866W        W21934   4.796  29.846   2.364
48867W        W21935  33.484   1.976   4.380
48868W        W21936   4.565  12.122   1.874
48869W        W21937  40.504  12.000  14.598
48870W        W21938  41.510  34.945  13.622
48871W        W21939  18.896   2.901  13.876
48872W        W21940  44.924  40.775   1.979
48873W        W21941  15.374  41.901  12.618
48874W        W21942  28.313  36.312  11.111
48875W        W21943  40.204  36.975  10.999
48876W        W21944  27.556  17.905   1.777
48877W        W21945  28.808  10.392  12.626
48878W        W21946  23.283  31.409   0.313
48879W        W21947  33.486  22.536   4.624
48880W        W21948  41.214   5.102  14.954
48881W        W21949  44.622  37.901  14.331
48882W        W21950  40.696  24.400  14.969
48883W        W21951  17.186  14.831  13.918
48884W        W21952   1.340  36.970   3.185
48885W        W21953  21.642  44.856  13.874
48886W        W21954  30.123  17.210   1.901
48887W        W21955  14.363   1.927  13.009
48888W        W21956  10.315  23.152  13.779
48889W        W21957  33.361  16.718  13.149
48890W        W21958  13.750  31.923   0.968
48891W        W21959  39.325  30.556   3.142
48892W        W21960  25.853  35.647   1.678
48893W        W21961   1.678  36.035  13.531
48894W        W21962  31.354  38.732   4.024
48895W        W21963  22.553  39.251   2.804
48896W        W21964  14.707  36.535   4.711
48897W        W21965  31.086  17.577   0.434
48898W        W21966  18.177   1.061   4.707
48899W        W21967  34.811   8.330  13.094
48900W        W21968   7.800  13.896  14.437
48901W        W21969  21.514  36.452   4.904
48902W        W21970   3.511  11.866   4.203
48903W        W21971  17.562  32.541   4.396
48904W        W21972  44.457   8.183   0.069
48905W        W21973  11.401  14.289  13.350
48906W        W21974  20.180  23.998   4.256
48907W        W21975  14.316  44.450  10.398
48908W        W21976  39.870  41.948  11.655
48909W        W21977  42.395  44.899   0.041
48910W        W21978  32.024  26.982  13.194
48911W        W21979  39.170  19.230   4.797
48912W        W21980  22.694  38.367   2.780
48913W        W21981   0.997  34.777   4.669
48914W        W21982  40.763   2.892  10.709
48915W        W21983   2.207  38.417   4.722
48916W        W21984  37.092  30.900   4.315
48917W        W21985  30.838  24.306   4.613
48918W        W21986  14.394  38.286  10.998
48919W        W21987  19.482   6.476   3.694
48920W        W21988  41.407   0.570   0.462
48921W        W21989  17.122  20.674  14.456
48922W        W21990   7.261  18.724   0.232
48923W        W21991   8.451   5.726   3.190
48924W        W21992  26.762  39.870   1.434
48925W        W21993  42.017  35.870   1.248
48926W        W21994  14.638  38.993  10.279
48927W        W21995  43.816  24.607  11.279
48928W        W21996  41.143  24.732   4.481
48929W        W21997  39.617  18.376  14.402
48930W        W21998  37.050  12.707   0.301
48931W        W21999  44.578  20.668  11.991
48932W        W22000  25.510  43.388   2.672
48933W        W22001  18.866  25.698  13.386
48934W        W22002  26.858   0.868  13.090
48935W        W22003  14.152  19.150   1.911
48936W        W22004  22.197  27.902  12.583
48937W        W22005  11.056  31.400   3.253
48938W        W22006   0.349  29.762   4.507
48939W        W22007  37.878  34.945   4.771
48940W        W22008  21.686  42.063   0.895
48941W        W22009  43.789  14.784  10.586
48942W        W22010   0.238  34.693  10.763
48943W        W22011   0.461  35.076  11.874
48944W        W22012  34.946  12.764   0.480
48945W        W22013   5.456  18.101   4.293
48946W        W22014  19.126   8.244  10.689
48947W        W22015  30.008  29.213   1.863
48948W        W22016  40.029  32.559   3.144
48949W        W22017  13.055  43.866   0.186
48950W        W22018  21.201   8.808  14.486
48951W        W22019  36.977  22.850  13.986
48952W        W22020  14.065  24.558   0.075
48953W        W22021   6.859  40.997   1.163
48954W        W22022  43.419  34.597   2.068
48955W        W22023  40.116  43.005   2.216
48956W        W22024  17.090  24.635   4.848
48957W        W22025  37.596   5.905  14.435
48958W        W22026  20.325  29.304  13.403
48959W        W22027  44.019   0.308  13.961
48960W        W22028   2.167  23.746  14.031
48961W        W22029   8.968  18.289   4.972
48962W        W22030  27.649  35.739  12.040
48963W        W22031   8.250  15.214  11.790
48964W        W22032  22.570   1.765  14.877
48965W        W22033   2.797  10.268  13.446
48966W        W22034   2.885  43.508   3.226
48967W        W22035  33.299   5.970  13.305
48968W        W22036  33.096   3.109  13.013
48969W        W22037  25.486  32.870  12.046
48970W        W22038  44.113   3.572  14.533
48971W        W22039  12.216  10.827   1.182
48972W        W22040  17.695  31.582   4.661
48973W        W22041  18.660  19.531  13.405
48974W        W22042  22.018  34.151  11.129
48975W        W22043  18.495  38.074   1.107
48976W        W22044  36.996  40.274   2.861
48977W        W22045   9.321  10.178  12.402
48978W        W22046   6.428  27.705  13.003
48979W        W22047  44.575  43.668  13.946
48980W        W22048   4.693  27.961   1.288
48981W        W22049  22.627  15.501   3.267
48982W        W22050  28.221  20.211   0.423
48983W        W22051  29.468   5.805  14.757
48984W        W22052   6.456   8.338   3.219
48985W        W22053  39.574   6.664  10.176
48986W        W22054  38.464   4.040  12.961
48987W        W22055  16.447  41.217   1.241
48988W        W22056  37.420  21.330  13.222
48989W        W22057  33.056  36.408  10.558
48990W        W22058  33.407  25.205   3.822
48991W        W22059  39.326  39.321  11.300
48992W        W22060  19.713   2.274   2.760
48993W        W22061   3.829   8.385   2.367
48994W        W22062   4.358  22.937   3.508
48995W        W22063  30.140  21.420   1.072
48996W        W22064  42.862   6.108   4.153
48997W        W22065   6.423  33.152  13.416
48998W        W22066   9.136  36.280   2.919
48999W        W22067  41.245  38.946  14.895
49000W        W22068  22.482   5.293  12.890
49001W        W22069  41.917  30.228   2.024
49002W        W22070  29.492  15.600  11.023
49003W        W22071   5.226  11.637  14.722
49004W        W22072  25.533   4.007  14.025
49005W        W22073  21.939  44.402  11.001
49006W        W22074   5.195   5.946   3.427
49007W        W22075  20.138  11.175   5.004
49008W        W22076  43.826  29.643   0.903
49009W        W22077  37.323  22.090   2.970
49010W        W22078  16.638  27.895   0.962
49011W        W22079  26.904  34.881   3.879
49012W        W22080   4.849  13.128   1.325
49013W        W22081  33.433  32.803  13.299
49014W        W22082  27.215  40.896   2.279
49015W        W22083  44.741  19.140   3.841
49016W        W22084  30.615  26.696  11.956
49017W        W22085  33.390   2.421   0.467
49018W        W22086  32.975  17.692  13.510
49019W        W22087   7.786  14.104   0.028
49020W        W22088   3.979   0.994   2.785
49021W        W22089  31.084  42.749  13.328
49022W        W22090  33.865  24.136  13.058
49023W        W22091  15.658   7.085  13.344
49024W        W22092  37.869  24.069  14.786
49025W        W22093   3.353  32.109  13.521
49026W        W22094  28.708  32.914  13.498
49027W        W22095  43.802  22.205  12.469
49028W        W22096  13.387  22.091   4.452
49029W        W22097  44.749  13.300   0.773
49030W        W22098   6.269  38.764  12.371
49031W        W22099   2.400  44.898   1.182
49032W        W22100  17.707  13.559  12.732
49033W        W22101  29.990  40.287  12.326
49034W        W22102   2.359  11.953  14.385
49035W        W22103  21.970   9.671   0.405
49036W        W22104  44.816  41.918   2.342
49037W        W22105  42.898  16.196   4.253
49038W        W22106  12.838  42.767  13.980
49039W        W22107   5.143  28.984  12.347
49040W        W22108  35.092  13.604   3.237
49041W        W22109  19.463  16.237  12.573
49042W        W22110  18.935  29.945  14.802
49043W        W22111  18.148   6.365   3.711
49044W        W22112  17.181  34.309  13.923
49045W        W22113  13.477  14.216  14.593
49046W        W22114   8.631  18.793  11.589
49047W        W22115  12.740  31.884  14.426
49048W        W22116  17.730  33.787   0.515
49049W        W22117  11.393  41.136   1.787
49050W        W22118  41.923  10.718   2.844
49051W        W22119  37.351  20.727   1.319
49052W        W22120   3.000  18.948   2.751
49053W        W22121   2.357  39.779  10.910
49054W        W22122  35.962   3.531  10.706
49055W        W22123  32.354  18.684   4.334
49056W        W22124   8.899  35.937   4.348
49057W        W22125   4.670  11.237  12.369
49058W        W22126  40.318  39.997  13.869
49059W        W22127  38.512  13.562   1.649
49060W        W22128  15.336  12.531   1.225
49061W        W22129  20.131  34.384  11.349
49062W        W22130   0.894  33.375   2.338
49063W        W22131  34.942  43.532  13.503
49064W        W22132  23.674  42.244  12.377
49065W        W22133   7.445   2.278   4.659
49066W        W22134  22.488  29.204   0.302
49067W        W22135   2.233  21.644   4.172
49068W        W22136  35.892  41.002  11.661
49069W        W22137   8.755  40.017  14.376
49070W        W22138   4.267  28.166  14.060
49071W        W22139  30.274  40.396   5.050
49072W        W22140  11.260  10.449  13.060
49073W        W22141  19.892  38.302  14.147
49074W        W22142  20.927  37.521   1.860
49075W        W22143   3.394  10.148  14.408
49076W        W22144  13.761  38.990   3.157
49077W        W22145   7.294  25.920   2.337
49078W        W22146  16.147  11.121  11.092
49079W        W22147  34.808  25.809   2.199
49080W        W22148  26.904  19.043  11.585
49081W        W22149  44.876   6.466  11.648
49082W        W22150  20.981  40.242   4.989
49083W        W22151  39.349  27.388   3.763
49084W        W22152  38.608  22.776  11.834
49085W        W22153   2.976  35.856   0.732
49086W        W22154  34.621  23.192  14.553
49087W        W22155  37.747   7.682  11.503
49088W        W22156  18.219   9.895  10.453
49089W        W22157  16.665  38.634  14.973
49090W        W22158  31.317  31.306   3.573
49091W        W22159  29.342  13.096   1.662
49092W        W22160  30.996  25.791  10.962
49093W        W22161  13.864  30.918   3.348
49094W        W22162  36.882  32.629   1.241
49095W        W22163   2.887   5.444  10.637
49096W        W22164  29.193  42.406   2.615
49097W        W22165   0.019   7.575   0.914
49098W        W22166  38.704  15.682  10.651
49099W        W22167  39.958  39.364  12.688
49100W        W22168  26.978   4.065   4.111
49101W        W22169  22.968  24.622  11.256
49102W        W22170  22.042  32.044  14.299
49103W        W22171  37.626  20.002   4.519
49104W        W22172   3.841  21.321   1.138
49105W        W22173  44.583  14.841   4.194
49106W        W22174   1.672  31.945   0.183
49107W        W22175   1.168  35.015   3.659
49108W        W22176  28.098  35.039  10.979
49109W        W22177  24.813  36.398  14.235
49110W        W22178  40.210   7.208   3.845
49111W        W22179  30.912  21.621  11.771
49112W        W22180  29.184  35.126   2.291
49113W        W22181  18.545  39.850   1.420
49114W        W22182  33.175  31.002   0.035
49115W        W22183   6.718  18.098  10.684
49116W        W22184   6.864   0.362   1.821
49117W        W22185  12.759   8.633   1.206
49118W        W22186  43.070  27.635  11.282
49119W        W22187  19.787  42.052   4.486
49120W        W22188  40.898  31.717   2.550
49121W        W22189  28.530  36.700   2.762
49122W        W22190  15.542  31.135  10.646
49123W        W22191  25.434  41.759   2.898
49124W        W22192   0.788  17.166   1.784
49125W        W22193  10.728  39.443   0.979
49126W        W22194  15.639  22.030  14.396
49127W        W22195  34.794   8.409  14.068
49128W        W22196  37.995  20.117  11.489
49129W        W22197   3.292   8.922  12.434
49130W        W22198  42.273   8.729  10.670
49131W        W22199   6.251   3.795   0.430
49132W        W22200   0.489  44.981  12.359
49133W        W22201  25.750  23.833  14.855
49134W        W22202   4.819  27.068  13.961
49135W        W22203  30.595  31.023   2.330
49136W        W22204  20.250   2.490   1.004
49137W        W22205  38.412  25.977  10.782
49138W        W22206  30.044  29.662   4.164
49139W        W22207  19.383  23.335   0.253
49140W        W22208  44.286  38.881   5.047
49141W        W22209   8.821   6.367  11.258
49142W        W22210  33.890  20.016  11.356
49143W        W22211  20.771  33.467   4.526
49144W        W22212  21.258  34.263   4.400
49145W        W22213  20.997  44.333   1.939
49146W        W22214  23.153  34.231   4.625
49147W        W22215  25.278  17.158   4.587
49148W        W22216  20.147  20.487   3.742
49149W        W22217   1.744  15.735  10.178
49150W        W22218  35.873  30.717   5.124
49151W        W22219  38.673  26.127  12.150
49152W        W22220  17.584  21.962   1.791
49153W        W22221  12.496   6.235   4.039
49154W        W22222   4.983  36.105  12.941
49155W        W22223  11.839   9.104   1.419
49156W        W22224  32.897  22.302  12.297
49157W        W22225  16.303  23.687  14.560
49158W        W22226  19.106  11.458  10.894
49159W        W22227   4.327  41.524   1.508
49160W        W22228  31.671  31.975   3.860
49161W        W22229  42.230  40.569  12.902
49162W        W22230  28.906  13.771  10.800
49163W        W22231  30.013  37.423   3.345
49164W        W22232  39.081  37.938   1.736
49165W        W22233  20.283  31.036  13.683
49166W        W22234   6.197  29.601   1.734
49167W        W22235  44.048  24.058  10.741
49168W        W22236  13.196  38.128  11.703
49169W        W22237  24.404   0.844   3.737
49170W        W22238  38.625   5.877   1.434
49171W        W22239  39.075  44.484   4.219
49172W        W22240  18.790  32.960   1.766
49173W        W22241  25.428  27.677  11.334
49174W        W22242  10.705   9.840  13.894
49175W        W22243   9.449  43.920   3.453
49176W        W22244  27.241   9.468   0.186
49177W        W22245  16.025  33.082   0.092
49178W        W22246   6.504  17.711   0.289
49179W        W22247  22.170  18.689  14.777
49180W        W22248  35.566  37.187  13.562
49181W        W22249  30.694   4.499  11.188
49182W        W22250   5.388  22.200  14.372
49183W        W22251  37.459  16.830   2.335
49184W        W22252  36.871   3.648   3.710
49185W        W22253  23.724   1.434   0.850
49186W        W22254  10.160  41.921   0.864
49187W        W22255  36.388  36.381   1.321
49188W        W22256  24.073  40.396  13.065
49189W        W22257  33.084  40.011  14.460
49190W        W22258  23.052  11.835  12.924
49191W        W22259  28.122   0.056  11.137
49192W        W22260  15.288  25.702  14.747
49193W        W22261  25.591  19.803   2.998
49194W        W22262  15.976   7.048  13.774
49195W        W22263   3.647  33.936  13.372
49196W        W22264  27.602  24.513  14.336
49197W        W22265   0.974   7.591   4.604
49198W        W22266  43.702  22.514   2.784
49199W        W22267  14.180  17.055   1.194
49200W        W22268  42.201  10.605  11.013
49201W        W22269  43.289  33.471   2.491
49202W        W22270  42.200  11.614   2.255
49203W        W22271  19.373  30.000  13.878
49204W        W22272  28.657  41.805  12.488
49205W        W22273   6.500   2.937   3.183
49206W        W22274  14.772  41.396  14.801
49207W        W22275  29.795   3.050  14.547
49208W        W22276  34.061  10.988   4.071
49209W        W22277  28.669  38.450  11.591
49210W        W22278  17.541   2.913  14.449
49211W        W22279  41.460  36.961  10.713
49212W        W22280   2.204  15.344  14.920
49213W        W22281  19.499  30.654  13.611
49214W        W22282   9.342  38.937  10.810
49215W        W22283   5.254  28.852  12.833
49216W        W22284  36.957   7.650   4.704
49217W        W22285  38.832  15.869  12.468
49218W        W22286  31.366  19.290   3.297
49219W        W22287  22.961  21.309  13.262
49220W        W22288  42.386  18.807  12.028
49221W        W22289  35.576  40.483   4.438
49222W        W22290  27.718  38.978  13.332
49223W        W22291   9.579  22.619  11.457
49224W        W22292  13.840  16.096   3.270
49225W        W22293   4.211  23.454   4.668
49226W        W22294  19.755  30.299  10.585
49227W        W22295  34.050  17.245   0.373
49228W        W22296  41.379  13.538   9.998
49229W        W22297   8.237  35.568   3.339
49230W        W22298  16.406  23.170  12.956
49231W        W22299   6.513  41.017   3.355
49232W        W22300  43.411  23.262   1.280
49233W        W22301  32.724  19.706   2.842
49234W        W22302   5.936   1.129  11.222
49235W        W22303  42.358   2.725   3.046
49236W        W22304  18.030  37.396   3.482
49237W        W22305  35.951  38.438  14.248
49238W        W22306  16.972   4.391  11.723
49239W        W22307   9.651  12.726  12.804
49240W        W22308  39.358   2.951   3.468
49241W        W22309   3.779  22.633  12.825
49242W        W22310  19.291  43.824   3.386
49243W        W22311   4.891   6.377  14.962
49244W        W22312  31.706  19.452   1.851
49245W        W22313   4.441  42.659   1.516
49246W        W22314  21.501  29.403   1.306
49247W        W22315  24.390  10.664  12.856
49248W        W22316  33.477  13.828  14.815
49249W        W22317  41.911  16.051   3.930
49250W        W22318  10.393  31.083  13.384
49251W        W22319  39.734   1.217   1.434
49252W        W22320   7.238   6.767  14.360
49253W        W22321  10.970  22.429  10.958
49254W        W22322  20.952  27.977  14.479
49255W        W22323  30.374  19.178   4.767
49256W        W22324   9.713  24.487   1.825
49257W        W22325  39.391  41.300  14.006
49258W        W22326   9.187  12.176  14.425
49259W        W22327  16.347   0.357  12.973
49260W        W22328  42.589  32.377  10.434
49261W        W22329  25.149   2.716  14.016
49262W        W22330  19.172   3.913   1.412
49263W        W22331   2.048  40.441  13.537
49264W        W22332   8.861  25.484   0.488
49265W        W22333  26.428  39.848  11.628
49266W        W22334  22.528  37.585   2.421
49267W        W22335  40.894  32.550  12.347
49268W        W22336  31.437  16.780   0.020
49269W        W22337  42.944  30.002   0.927
49270W        W22338  16.751  38.428   2.821
49271W        W22339  36.845  27.555   3.960
49272W        W22340  31.072   4.207  13.117
49273W        W22341  24.683  16.060   3.894
49274W        W22342   3.995  37.141  14.756
49275W        W22343  36.567  29.379  10.819
49276W        W22344  38.622   2.424  14.195
49277W        W22345  11.166  43.849  10.376
49278W        W22346  12.725  31.040   0.391
49279W        W22347  42.748  22.955   4.144
49280W        W22348  35.979   0.118  10.777
49281W        W22349  17.663  13.656   4.022
49282W        W22350   5.229  25.510   3.898
49283W        W22351  13.584  13.740  13.019
49284W        W22352  37.001  18.201  10.929
49285W        W22353  10.781  18.646   3.313
49286W        W22354  27.012   5.650   0.967
49287W        W22355  37.354  38.273   0.750
49288W        W22356   2.349  16.078  10.421
49289W        W22357  12.416  40.169  13.073
49290W        W22358  23.988  35.330  13.367
49291W        W22359   6.515  11.337  11.800
49292W        W22360  29.596  14.099  10.354
49293W        W22361   8.451  18.688   2.656
49294W        W22362  21.011  23.681   1.711
49295W        W22363  22.989   0.753  10.129
49296W        W22364  39.050  25.575   2.706
49297W        W22365  19.476   5.170   2.771
49298W        W22366  36.109   2.141   1.913
49299W        W22367  28.938  27.061   2.666
49300W        W22368  15.089   6.726   0.285
49301W        W22369  27.149  27.752   3.247
49302W        W22370  43.815  36.335   2.652
49303W        W22371   6.146  30.221  12.910
49304W        W22372  28.841  44.381  14.749
49305W        W22373  39.868  30.175   3.706
49306W        W22374   3.430  10.803   3.179
49307W        W22375  39.775   5.928  13.816
49308W        W22376  29.248  22.288  14.907
49309W        W22377  39.778  29.795   2.878
49310W        W22378   0.757   0.871  14.897
49311W        W22379  26.216  16.486  13.021
49312W        W22380  39.847  12.981  13.944
49313W        W22381  21.693  15.174  14.996
49314W        W22382  40.339   3.836   4.832
49315W        W22383  35.312  13.581   0.283
49316W        W22384  12.745  41.251   0.220
49317W        W22385  15.258  15.814   4.016
49318W        W22386   4.555   1.489  14.807
49319W        W22387  25.515  20.143   3.890
49320W        W22388   7.589  24.433   1.841
49321W        W22389  32.061  43.776  12.119
49322W        W22390  31.199  36.525  11.347
49323W        W22391  26.705   4.008   0.523
49324W        W22392  18.849  17.766  13.819
49325W        W22393   8.682  18.274   4.553
49326W        W22394  21.496  17.582   1.729
49327W        W22395  25.722   7.845   2.000
49328W        W22396  23.408  15.034  13.513
49329W        W22397  17.831   6.204  14.837
49330W        W22398  20.538  43.427  14.433
49331W        W22399  23.252  11.650  14.290
49332W        W22400  39.531   4.886   0.843
49333W        W22401  22.252  25.161   0.390
49334W        W22402  17.183  33.482   1.308
49335W        W22403   7.224  30.156   3.596
49336W        W22404  35.433  31.699  14.331
49337W        W22405  29.013   6.947  10.746
49338W        W22406   1.466   3.922  11.567
49339W        W22407   6.141  33.432   1.833
49340W        W22408   4.889   8.210  10.483
49341W        W22409  33.337   6.401   3.624
49342W        W22410  20.140  29.880  12.032
49343W        W22411  30.386  40.057   4.028
49344W        W22412  13.685   9.721  13.363
49345W        W22413  44.296  27.943  10.907
49346W        W22414  18.179  41.730   0.325
49347W        W22415   6.641  13.947  11.246
49348W        W22416   1.750  36.285   0.266
49349W        W22417  18.576   2.928  14.301
49350W        W22418   5.693   5.416   1.320
49351W        W22419   8.432  22.399  12.792
49352W        W22420  20.784  42.763  14.697
49353W        W22421  39.330   9.844   4.840
49354W        W22422   0.213  10.153  12.507
49355W        W22423  26.304   1.226  14.378
49356W        W22424  34.640  22.520   3.029
49357W        W22425   6.857  25.798  13.893
49358W        W22426  37.624  43.254  14.185
49359W        W22427  24.249  24.615  11.718
49360W        W22428  13.964  16.746  10.428
49361W        W22429  29.411  32.377   3.088
49362W        W22430  21.389  22.188  14.465
49363W        W22431   2.787  17.453   3.012
49364W        W22432  17.460  15.215   2.738
49365W        W22433   5.585  15.297  11.307
49366W        W22434  36.439  34.314   2.413
49367W        W22435  23.130   2.750   3.151
49368W        W22436  41.325  34.859   1.793
49369W        W22437  42.037  11.266  12.521
49370W        W22438   6.747  19.129  11.433
49371W        W22439   6.601  39.573   1.880
49372W        W22440  30.463  28.600   4.746
49373W        W22441  26.301   3.419   2.749
49374W        W22442   2.823  18.526  13.397
49375W        W22443  24.278   7.670  14.486
49376W        W22444  39.822  18.666   4.327
49377W        W22445  28.056  39.044  14.261
49378W        W22446   3.005  33.941   2.929
49379W        W22447  19.704  43.503   5.095
49380W        W22448  18.723   7.917   1.828
49381W        W22449  17.332  11.679   0.792
49382W        W22450  24.153  15.902  13.908
49383W        W22451   9.740   3.415   1.574
49384W        W22452  13.266  20.782   1.307
49385W        W22453  38.920  21.982   1.450
49386W        W22454  34.481  14.876  14.419
49387W        W22455   6.432  25.681   3.377
49388W        W22456  11.653  39.479   2.115
49389W        W22457  24.823  42.754  13.315
49390W        W22458  22.770   7.163   2.148
49391W        W22459  41.490  11.880   1.784
49392W        W22460  31.008  16.190   2.935
49393W        W22461  18.510  13.228  10.635
49394W        W22462   0.004  44.762  14.628
49395W        W22463   0.539  31.086   0.321
49396W        W22464  28.102  16.974  11.252
49397W        W22465  43.052  42.300   4.197
49398W        W22466   4.929  37.935  11.216
49399W        W22467  38.345  17.271  10.776
49400W        W22468  20.052  42.625   3.687
49401W        W22469  11.788  13.384   0.826
49402W        W22470  19.531  11.482  12.396
49403W        W22471   0.515  35.986  11.417
49404W        W22472   8.847  30.238   0.798
49405W        W22473   9.893   6.186  11.089
49406W        W22474  13.884  39.377   1.325
49407W        W22475  24.209  39.653   2.229
49408W        W22476  43.780  43.459   3.269
49409W        W22477  39.000   8.836  13.498
49410W        W22478  43.153  16.921   3.715
49411W        W22479  37.952  13.301   2.423
49412W        W22480  30.750   7.887   0.828
49413W        W22481  30.666  31.077   0.801
49414W        W22482  43.822  18.261   4.557
49415W        W22483  32.589  38.581  11.060
49416W        W22484  21.779  31.131   4.626
49417W        W22485  42.303  14.604   2.764
49418W        W22486  37.420  35.107   0.280
49419W        W22487  23.040  25.032  13.534
49420W        W22488  19.065  19.169  13.971
49421W        W22489   4.825  28.519   2.865
49422W        W22490  36.340  16.040   1.457
49423W        W22491  25.734  35.386   3.275
49424W        W22492  35.642   4.309  11.210
49425W        W22493  41.298  26.202  10.597
49426W        W22494  14.782  11.015   0.763
49427W        W22495  15.291  14.354   0.666
49428W        W22496   8.083  31.000  13.029
49429W        W22497  24.172  16.406  12.992
49430W        W22498   8.146   0.489   4.359
49431W        W22499   8.108  14.060   1.258
49432W        W22500  23.226  41.495   2.753
49433W        W22501  13.083  44.302   3.537
49434W        W22502   6.605  35.572  11.126
49435W        W22503  44.790  13.866   4.393
49436W        W22504  23.885  36.505  13.819
49437W        W22505  10.414  11.975  14.579
49438W        W22506  19.585  13.465  14.347
49439W        W22507  25.232  36.484   2.868
49440W        W22508  19.192  17.658   2.447
49441W        W22509  17.796  16.726   3.555
49442W        W22510  27.421  12.140   3.113
49443W        W22511  17.673  37.793   2.767
49444W        W22512  25.986  20.641   3.902
49445W        W22513  15.113   1.962   3.352
49446W        W22514  10.778  14.519  11.602
49447W        W22515  23.150  29.961  12.495
49448W        W22516  11.283   7.617   4.792
49449W        W22517  31.578  15.041   3.075
49450W        W22518  27.218  10.550  14.343
49451W        W22519  36.036  32.658  13.075
49452W        W22520  29.201   3.860   4.200
49453W        W22521  11.790  36.312  11.482
49454W        W22522  28.594  28.193   0.900
49455W        W22523   7.322   8.334  12.543
49456W        W22524  37.906   2.766  13.629
49457W        W22525  33.720  34.969   0.273
49458W        W22526  11.297  32.173  12.489
49459W        W22527  30.821  33.916  12.904
49460W        W22528   5.780   9.056  12.706
49461W        W22529  34.665  25.572  12.978
49462W        W22530  17.829  25.464  11.962
49463W        W22531  43.822  36.457   3.178
49464W        W22532  26.046  43.423  10.554
49465W        W22533  36.913  13.791  10.906
49466W        W22534   0.329   1.514   0.252
49467W        W22535   0.363  40.494   0.871
49468W        W22536  19.803   7.363   0.016
49469W        W22537  33.184  19.796   1.237
49470W        W22538  24.244   4.114   3.564
49471W        W22539  32.890   9.140  12.060
49472W        W22540  22.101  20.001  11.877
49473W        W22541  40.435  42.584   2.084
49474W        W22542   4.975  19.609  13.373
49475W        W22543  38.217  29.946  13.150
49476W        W22544  17.030   7.661  14.343
49477W        W22545  38.650  38.306   3.296
49478W        W22546  22.133   6.686   0.461
49479W        W22547  36.062  40.267   2.913
49480W        W22548   5.816  14.709  12.762
49481W        W22549   9.145  15.299   2.012
49482W        W22550   8.183  39.091  10.745
49483W        W22551  40.518  34.006  10.668
49484W        W22552  38.584  19.894  14.405
49485W        W22553  12.545  34.133  10.622
49486W        W22554  14.308   1.816  14.608
49487W        W22555  33.327  44.826   1.912
49488W        W22556  37.671  14.027  11.490
49489W        W22557  40.420  32.359  14.462
49490W        W22558  13.174  44.967  13.527
49491W        W22559  18.505  25.593   4.428
49492W        W22560  29.419  10.300   3.724
49493W        W22561  35.364  39.391  12.128
49494W        W22562  27.242  40.079   4.102
49495W        W22563   9.832  31.367   0.304
49496W        W22564  36.236  32.037  13.686
49497W        W22565  10.789  38.741   0.910
49498W        W22566  13.714  28.560   3.306
49499W        W22567  41.490  28.509  10.801
49500W        W22568  21.074  21.621  12.359
49501W        W22569  35.463   0.202  13.945
49502W        W22570  19.575   4.657   2.848
49503W        W22571  39.476  33.570   2.939
49504W        W22572  39.878  35.855  10.710
49505W        W22573  40.874   2.818  11.202
49506W        W22574   1.799  17.336   3.312
49507W        W22575  12.765  27.667  12.508
49508W        W22576  27.157  24.780  14.302
49509W        W22577  42.780  27.214  11.077
49510W        W22578   5.445  39.030   9.972
49511W        W22579  24.214  28.171   9.848
49512W        W22580  26.171  34.017  11.560
49513W        W22581  19.033  25.265  12.058
49514W        W22582  32.636  17.738  12.900
49515W        W22583  34.630  40.318  11.628
49516W        W22584  26.835  18.614   3.700
49517W        W22585  20.475  40.176   0.313
49518W        W22586  10.260  14.112   1.947
49519W        W22587  27.179  35.853  13.807
49520W        W22588  16.779  44.827  12.046
49521W        W22589  32.667  37.908   0.269
49522W        W22590  27.114  12.139   4.132
49523W        W22591  40.822  42.984   3.764
49524W        W22592  11.267   0.883  12.121
49525W        W22593  25.672   7.246   0.945
49526W        W22594  27.981  25.994   1.179
49527W        W22595  42.917  27.450   1.221
49528W        W22596  42.179  16.642   1.640
49529W        W22597  28.018  30.124   3.800
49530W        W22598  14.347   6.968   4.188
49531W        W22599   4.250  15.031   0.382
49532W        W22600   5.890  11.205  12.932
49533W        W22601  29.861  13.069  11.345
49534W        W22602  12.046  33.064   4.192
49535W        W22603  12.826  17.418   3.217
49536W        W22604  13.390  12.041   2.292
49537W        W22605  24.041  16.300  10.196
49538W        W22606  23.930   3.380  11.195
49539W        W22607  11.186   6.596   2.674
49540W        W22608  33.514  16.061   1.322
49541W        W22609  16.264  29.595   1.641
49542W        W22610  25.990   6.557  12.443
49543W        W22611  28.111  19.596   2.197
49544W        W22612  44.444  42.969   0.973
49545W        W22613   8.293  43.802   0.058
49546W        W22614   9.188  42.426  10.931
49547W        W22615  16.512   8.105  12.035
49548W        W22616  26.104  11.132   3.335
49549W        W22617  13.643  39.787  10.606
49550W        W22618   6.821  43.931   1.329
49551W        W22619  11.606  33.910   0.058
49552W        W22620  43.003   7.400   3.666
49553W        W22621  43.312  22.288   4.073
49554W        W22622  34.301  18.606   2.133
49555W        W22623  35.466  20.570  14.843
49556W        W22624  16.187  15.151   1.933
49557W        W22625  28.543  30.545  10.655
49558W        W22626  19.513  13.504   1.696
49559W        W22627  13.628  11.285   4.706
49560W        W22628   9.207  29.470  14.331
49561W        W22629  39.393   9.866  13.109
49562W        W22630  19.809  15.315  14.036
49563W        W22631  15.663  20.059   3.975
49564W        W22632  25.927  33.168   4.909
49565W        W22633  17.545  36.098   1.674
49566W        W22634  26.966  43.097  14.265
49567W        W22635  44.367  23.738  12.542
49568W        W22636  28.476  34.353   2.296
49569W        W22637  27.340  35.407  14.836
49570W        W22638  33.023  43.326  10.855
49571W        W22639  43.326  14.224   2.214
49572W        W22640  36.175  44.378  12.947
49573W        W22641   9.548   5.902   3.980
49574W        W22642  34.456  27.898  10.681
49575W        W22643   1.371   2.439  10.663
49576W        W22644  11.024  19.155   2.925
49577W        W22645  26.866  11.221   2.288
49578W        W22646  22.251  28.081   3.405
49579W        W22647  21.421  30.797   3.849
49580W        W22648  42.427  22.811  10.575
49581W        W22649  39.931   5.648  12.048
49582W        W22650   2.846  17.114  14.927
49583W        W22651  23.203   1.452  12.522
49584W        W22652   8.621  10.170  14.192
49585W        W22653   8.467  41.187   4.430
49586W        W22654  26.730  24.183  14.796
49587W        W22655   1.920  25.060  11.399
49588W        W22656  34.358  30.124  12.512
49589W        W22657   9.775  30.606  13.850
49590W        W22658  25.847  18.324   3.556
49591W        W22659  10.680  24.696   3.356
49592W        W22660  25.614   4.674   1.310
49593W        W22661  23.221  31.584   2.209
49594W        W22662  24.121  14.307   5.051
49595W        W22663  25.202  40.980  14.949
49596W        W22664  26.259  37.609  14.454
49597W        W22665   9.354   2.923  12.517
49598W        W22666   7.571  18.811   1.260
49599W        W22667  26.995  27.149   0.017
49600W        W22668  30.874  15.664  14.676
49601W        W22669  41.267  39.924   1.866
49602W        W22670  41.985  43.824  12.314
49603W        W22671  44.240  21.951  10.746
49604W        W22672  20.498   0.254  12.132
49605W        W22673  34.315  20.722  13.928
49606W        W22674  24.651  20.433  11.136
49607W        W22675  13.173  11.217  12.555
49608W        W22676  10.346   5.311   2.952
49609W        W22677  24.041   2.787  10.565
49610W        W22678  25.166  43.267   3.251
49611W        W22679  17.440  35.308  10.474
49612W        W22680  26.565  31.398   4.864
49613W        W22681  33.047  37.047  14.496
49614W        W22682  36.581   4.774  12.456
49615W        W22683  33.408   5.080  13.967
49616W        W22684  15.369  14.224   4.613
49617W        W22685  35.896  15.649  14.837
49618W        W22686  22.070  13.165  11.998
49619W        W22687  20.412  30.006   4.191
49620W        W22688  42.950  11.257  12.890
49621W        W22689  43.426  40.300  12.500
49622W        W22690  19.149  13.438  13.919
49623W        W22691  31.940   4.057   2.616
49624W        W22692  24.974  15.776  11.571
49625W        W22693  37.771  16.030  11.053
49626W        W22694  22.387  40.554   0.754
49627W        W22695  35.271  16.164   0.902
49628W        W22696  18.318  33.954   3.571
49629W        W22697  33.489   1.814  13.467
49630W        W22698  32.989  18.652   3.715
49631W        W22699  13.093  19.001   2.749
49632W        W22700  17.219  13.246   0.008
49633W        W22701   5.450   4.225  10.640
49634W        W22702  19.163  10.200   3.458
49635W        W22703   7.736  32.890  12.411
49636W        W22704  40.561   0.919  11.100
49637W        W22705  32.440   4.136   0.831
49638W        W22706   1.416  35.635  12.209
49639W        W22707  43.004  26.640   3.589
49640W        W22708  21.487  10.605  11.425
49641W        W22709  20.527  19.797  10.634
49642W        W22710  26.559  37.599   1.227
49643W        W22711  18.555  41.321  12.658
49644W        W22712  32.253  14.158   4.579
49645W        W22713  25.760   7.584  13.993
49646W        W22714  27.053   1.622   0.529
49647W        W22715   6.770  15.387  12.935
49648W        W22716  24.543  14.749   4.712
49649W        W22717  11.408  19.013   3.271
49650W        W22718  41.595   6.077  13.822
49651W        W22719  27.207  19.220   3.182
49652W        W22720  25.546  20.774   4.140
49653W        W22721  23.912  39.335  13.824
49654W        W22722  36.621   9.820   3.736
49655W        W22723  41.416  34.546  13.962
49656W        W22724  33.711   5.449  13.783
49657W        W22725  40.935  23.171   0.437
49658W        W22726  16.193  42.284  12.396
49659W        W22727   4.811   0.768  12.450
49660W        W22728   1.862  21.004   4.627
49661W        W22729  20.688  43.247  13.960
49662W        W22730  11.797  18.751  11.489
49663W        W22731  17.142  33.356  11.239
49664W        W22732  44.423   3.536  13.077
49665W        W22733   6.232  28.937   2.373
49666W        W22734  17.359   3.808  12.474
49667W        W22735  39.025  11.341   1.818
49668W        W22736  16.000   3.482   0.427
49669W        W22737  44.743   9.230   4.534
49670W        W22738  14.564  22.205  13.280
49671W        W22739   3.327  26.328  13.514
49672W        W22740  17.629   9.699  13.802
49673W        W22741  43.022  13.939   5.110
49674W        W22742  11.055   5.338   0.392
49675W        W22743   2.311  18.783   1.376
49676W        W22744  11.574  16.221  12.588
49677W        W22745  23.261   6.259   4.677
49678W        W22746  23.182  19.722   3.935
49679W        W22747  31.161  39.443   4.628
49680W        W22748  22.141  34.190   0.770
49681W        W22749  28.501  40.541   2.933
49682W        W22750  37.927  23.900  13.888
49683W        W22751  43.095  12.615  14.061
49684W        W22752  32.583  41.978   2.324
49685W        W22753  25.266  39.297   1.753
49686W        W22754  44.727  16.665   1.395
49687W        W22755  30.589   8.353  10.719
49688W        W22756  24.105  23.169   0.441
49689W        W22757  42.823  40.129   2.327
49690W        W22758  44.158  13.324  11.153
49691W        W22759  41.008  22.286  12.096
49692W        W22760  32.475  38.631  12.077
49693W        W22761  34.533  32.842   3.264
49694W        W22762  16.826   9.242  14.985
49695W        W22763  24.978   7.823  13.242
49696W        W22764   0.378   4.048  12.449
49697W        W22765  25.546   9.774   0.467
49698W        W22766  24.216   9.265   0.082
49699W        W22767  37.868  31.552   1.178
49700W        W22768  39.475  24.258  12.514
49701W        W22769   6.551   2.005   2.327
49702W        W22770  42.117  11.257   4.615
49703W        W22771  13.933  17.376   2.762
49704W        W22772  20.171   9.587  14.041
49705W        W22773  22.738  26.034  11.152
49706W        W22774  16.044  41.717   2.837
49707W        W22775  11.123  18.318  13.795
49708W        W22776  30.106   9.556   4.552
49709W        W22777  11.350  39.824  11.618
49710W        W22778   8.577  37.742   3.838
49711W        W22779  25.510  16.677   4.736
49712W        W22780  15.101  20.752   0.796
49713W        W22781  22.157  39.240  14.411
49714W        W22782  38.477  16.825   0.497
49715W        W22783  11.731  44.877  11.258
49716W        W22784  41.525  44.958  14.075
49717W        W22785  16.512  10.730  10.635
49718W        W22786  24.222   1.904  14.297
49719W        W22787   6.429  15.994  10.773
49720W        W22788  21.971  34.872  12.424
49721W        W22789  11.954   3.399  13.752
49722W        W22790  33.096   2.450  14.363
49723W        W22791  28.047  35.873  11.172
49724W        W22792  32.558  33.835  11.851
49725W        W22793  40.455  16.499  14.386
49726W        W22794   6.293  34.073   0.795
49727W        W22795   4.660   6.815   3.770
49728W        W22796   4.298   2.074  13.422
49729W        W22797   0.031  37.406   1.668
49730W        W22798  44.828  40.808   0.284
49731W        W22799  29.091  34.971  11.444
49732W        W22800   5.876   9.405   2.309
49733W        W22801   8.104  20.230   0.557
49734W        W22802   6.937  27.267   2.601
49735W        W22803  28.538   5.964  14.364
49736W        W22804   8.260  24.429  14.705
49737W        W22805  13.793  24.950  11.565
49738W        W22806  11.808  30.701  12.554
49739W        W22807  36.518  14.380   0.018
49740W        W22808  38.683  43.038   0.974
49741W        W22809  15.838  15.006   4.231
49742W        W22810  37.641  14.673   1.921
49743W        W22811   1.237  16.387   4.154
49744W        W22812  16.933  18.717   3.071
49745W        W22813  11.500   9.016   4.161
49746W        W22814  15.813  42.214   0.209
49747W        W22815  44.415  20.677  12.496
49748W        W22816  29.311  29.999  11.593
49749W        W22817  20.085  38.559  11.182
49750W        W22818  44.818  20.523   4.314
49751W        W22819  22.485  12.382  10.592
49752W        W22820  42.422  14.805  10.306
49753W        W22821  20.086   7.789  14.901
49754W        W22822  24.224   5.699  14.811
49755W        W22823  12.018  22.730   1.387
49756W        W22824  40.027   1.038   0.215
49757W        W22825  38.723  40.146   2.800
49758W        W22826  43.186  31.412  13.332
49759W        W22827  44.729  26.098   2.293
49760W        W22828  42.682   2.353   1.409
49761W        W22829  37.476  43.414  12.044
49762W        W22830  29.870  12.746   0.704
49763W        W22831   1.013  25.666   1.423
49764W        W22832  16.028  39.668  11.581
49765W        W22833  38.544  44.891   0.718
49766W        W22834  10.615  35.065   2.337
49767W        W22835  22.929   6.665   3.360
49768W        W22836  19.714  10.682  14.887
49769W        W22837  19.735  30.712   4.306
49770W        W22838  14.942  30.877   2.520
49771W        W22839  14.835  16.577   4.536
49772W        W22840  18.076   6.834  14.624
49773W        W22841  22.718  12.724  14.960
49774W        W22842  32.372  17.156  11.213
49775W        W22843  11.730  22.511   0.356
49776W        W22844  29.720  35.444   2.705
49777W        W22845   0.698  24.690   3.756
49778W        W22846   3.885  36.463  12.451
49779W        W22847  25.014  31.618   4.726
49780W        W22848  21.205   7.157   0.379
49781W        W22849  24.415  10.821  14.751
49782W        W22850   7.845  43.768  13.346
49783W        W22851  29.677  21.005   2.615
49784W        W22852  19.987   8.933  12.394
49785W        W22853   9.744  22.091  10.901
49786W        W22854  31.898   6.402   3.057
49787W        W22855  37.317   1.995   1.805
49788W        W22856  30.135  36.605  11.900
49789W        W22857  23.502  32.076  12.942
49790W        W22858   3.693   2.232  14.338
49791W        W22859  24.456  38.075   2.214
49792W        W22860  14.766  21.908  11.310
49793W        W22861  42.121  14.124  10.200
49794W        W22862  43.373  32.053   4.181
49795W        W22863   4.806  38.746   4.519
49796W        W22864   9.842  23.556  10.438
49797W        W22865  39.262  25.224  12.458
49798W        W22866  39.493  39.192  12.535
49799W        W22867  42.278  14.536  13.065
49800W        W22868  29.812  28.038   4.141
49801W        W22869  27.608  24.018  14.494
49802W        W22870  31.030  33.713  11.686
49803W        W22871  37.794  39.456   3.401
49804W        W22872  16.244  30.093  12.040
49805W        W22873  17.555  18.702   2.200
49806W        W22874  44.196  30.353  13.915
49807W        W22875  38.256  32.317  10.394
49808W        W22876  30.646   3.475   4.434
49809W        W22877   4.684  39.898  13.376
49810W        W22878  26.161  17.622   2.398
49811W        W22879  36.553  37.160  14.897
49812W        W22880  16.688  37.608   3.548
49813W        W22881   6.143  40.538   2.713
49814W        W22882   9.423   5.090   1.214
49815W        W22883  25.513  17.679   1.588
49816W        W22884  22.584  15.785   2.454
49817W        W22885  42.899  38.015  14.584
49818W        W22886  18.514  15.618   4.547
49819W        W22887   6.642   0.752  10.750
49820W        W22888  42.341   9.819   1.788
49821W        W22889  21.120  21.591   1.686
49822W        W22890   2.913  14.849  14.904
49823W        W22891   7.763  12.959  13.728
49824W        W22892  40.919  16.901  11.152
49825W        W22893  12.034  24.811   2.513
49826W        W22894   7.275   6.760   4.213
49827W        W22895   4.198  41.939   1.801
49828W        W22896  32.712  32.144   1.952
49829W        W22897  16.761  38.835  13.756
49830W        W22898   4.168  40.876   2.864
49831W        W22899  27.535  19.410   0.372
49832W        W22900  19.894  20.962  11.131
49833W        W22901  31.177  15.708   2.778
49834W        W22902  18.282  33.089   1.759
49835W        W22903  12.255  22.153  11.391
49836W        W22904  44.446  42.255  11.195
49837W        W22905   6.672  39.065   3.224
49838W        W22906  44.854   0.401   4.249
49839W        W22907  27.838  31.658  12.926
49840W        W22908  26.680  21.279   1.445
49841W        W22909  36.840  44.281   3.717
49842W        W22910   8.916  41.278   0.630
49843W        W22911   8.884  36.282  11.250
49844W        W22912  35.942  33.357  13.972
49845W        W22913   1.774  42.262  13.086
49846W        W22914  17.676  33.347   2.306
49847W        W22915   3.806  44.014  11.114
49848W        W22916  19.729  29.936  13.016
49849W        W22917  16.511   0.847  10.778
49850W        W22918  15.981  35.474   0.817
49851W        W22919  25.711  17.690   2.086
49852W        W22920  41.309  38.450  13.629
49853W        W22921  13.660  44.978  11.576
49854W        W22922   9.913  28.935   3.822
49855W        W22923  41.375   3.491   1.844
49856W        W22924  30.716  19.670   0.791
49857W        W22925  13.245  39.045  11.452
49858W        W22926  44.829   4.806   4.681
49859W        W22927  33.991   0.734   0.367
49860W        W22928  19.031  36.827  12.004
49861W        W22929   4.622   7.246   4.705
49862W        W22930  38.934  13.233   4.391
49863W        W22931   4.128  23.209  12.859
49864W        W22932  32.034  35.369  12.079
49865W        W22933  42.235  20.486  11.133
49866W        W22934   2.658  17.584  14.869
49867W        W22935  16.120  33.940  12.542
49868W        W22936   2.323  16.777  13.376
49869W        W22937  36.481  13.276  12.919
49870W        W22938  42.925  37.854   1.865
49871W        W22939  23.584  19.590   5.863
49872W        W22940  43.760  39.216   2.677
49873W        W22941  31.272  30.392   0.204
49874W        W22942  14.178  27.587  12.133
49875W        W22943  14.460  38.812  14.358
49876W        W22944  16.296  36.423   0.711
49877W        W22945  39.664   2.360   2.372
49878W        W22946  33.577  26.892  14.458
49879W        W22947  17.205  40.884   2.113
49880W        W22948  33.186  16.654   1.900
49881W        W22949   6.028   0.859   2.022
49882W        W22950  39.311  25.993  13.565
49883W        W22951   1.292  40.351   0.187
49884W        W22952  14.002  11.619   3.443
49885W        W22953  16.542  28.881   3.290
49886W        W22954  29.567  19.066   1.811
49887W        W22955   7.155  33.980  12.907
49888W        W22956  27.302  22.008  11.631
49889W        W22957  44.378   3.838  13.542
49890W        W22958  23.901  17.653   2.762
49891W        W22959  37.796  23.168  14.504
49892W        W22960  21.040  26.260   1.375
49893W        W22961  39.858  26.483  10.562
49894W        W22962  19.711  26.692  12.041
49895W        W22963  26.376  15.145  12.679
49896W        W22964  15.666   6.118  11.053
49897W        W22965  21.232   1.325  10.629
49898W        W22966  38.089   7.372  14.514
49899W        W22967   4.868  13.646   1.220
49900W        W22968  44.935  23.590   1.757
49901W        W22969   5.217  26.732  14.712
49902W        W22970  10.118  19.998   2.729
49903W        W22971   8.306  26.199  12.062
49904W        W22972  32.714  40.980   4.078
49905W        W22973  13.394  31.869   2.737
49906W        W22974  13.397  32.192  11.082
49907W        W22975   1.691  25.729   2.745
49908W        W22976  24.536  12.118   2.291
49909W        W22977  11.596   6.762   3.951
49910W        W22978  29.439  23.140   3.601
49911W        W22979  32.666  20.184  10.676
49912W        W22980  44.622  29.656  13.424
49913W        W22981  44.256  44.299   4.570
49914W        W22982  38.762  41.190  14.678
49915W        W22983   4.303  13.122   4.107
49916W        W22984  26.904  29.547  14.551
49917W        W22985   8.234  23.092   4.578
49918W        W22986   4.724  42.954   2.246
49919W        W22987   0.252  40.515   2.295
49920W        W22988   5.438  40.804   1.627
49921W        W22989  17.509  43.870  12.774
49922W        W22990  42.392  19.105  13.341
49923W        W22991  28.967  41.320  10.677
49924W        W22992  21.598  44.938  14.401
49925W        W22993  23.645  23.382   0.554
49926W        W22994  33.464  10.082   0.863
49927W        W22995  37.886   5.056   3.174
49928W        W22996  30.102  29.065   0.500
49929W        W22997  13.297  13.882  12.337
49930W        W22998  27.506  10.721   3.750
49931W        W22999  18.075  11.384   2.365
49932W        W23000  38.359  44.378   0.762
49933W        W23001  12.404  19.614   2.032
49934W        W23002  40.570  28.675   0.915
49935W        W23003  37.883   9.221  14.464
49936W        W23004  22.670   7.814  11.136
49937W        W23005  36.353  21.823  14.432
49938W        W23006   5.108   3.898  14.401
49939W        W23007   0.632   5.518  12.038
49940W        W23008  17.995  39.909  11.029
49941W        W23009  34.456  35.133  14.735
49942W        W23010  11.809  11.704   0.757
49943W        W23011  37.306  40.427   0.520
49944W        W23012   8.381  27.211   3.347
49945W        W23013  38.422   9.553   0.350
49946W        W23014   0.054  42.850   3.374
49947W        W23015  17.156   3.327   3.295
49948W        W23016  19.611  15.302  13.307
49949W        W23017   6.225   4.091   3.870
49950W        W23018  34.630  32.409  11.123
49951W        W23019  31.686  15.863   1.193
49952W        W23020  18.666  33.429  11.033
49953W        W23021   9.345  31.875  14.839
49954W        W23022   7.568  44.322   0.714
49955W        W23023  33.510  20.150   0.539
49956W        W23024  44.928  11.115  14.535
49957W        W23025   0.779   7.478  12.055
49958W        W23026  32.604  16.154   4.190
49959W        W23027  44.537  29.156  13.462
49960W        W23028  44.280  33.186   3.279
49961W        W23029  24.686  24.047  14.249
49962W        W23030  23.321  16.524   3.633
49963W        W23031   1.794   8.246  13.309
49964W        W23032   3.701  29.562  11.444
49965W        W23033  16.519   3.543  12.177
49966W        W23034  41.486  35.849   4.157
49967W        W23035  18.660  25.236  13.493
49968W        W23036  33.189   5.208  10.676
49969W        W23037  31.017  27.562   1.239
49970W        W23038  25.120  26.672   0.752
49971W        W23039  16.602  39.956  12.022
49972W        W23040  44.432   1.311  14.794
49973W        W23041  24.019   0.442  10.872
49974W        W23042  12.746  22.673  10.399
49975W        W23043  42.777  29.055   1.966
49976W        W23044  36.419  25.879  13.958
49977W        W23045  38.822  20.938  14.957
49978W        W23046   1.063  32.935  13.417
49979W        W23047   0.517  11.855   1.875
49980W        W23048  32.035  31.697   4.101
49981W        W23049   0.246  38.118   0.712
49982W        W23050  36.948  33.640   1.311
49983W        W23051  28.508  33.293   2.289
49984W        W23052   9.646  15.837  12.785
49985W        W23053  29.670   1.641   0.957
49986W        W23054  29.677  14.359  11.830
49987W        W23055  25.632  41.390  12.075
49988W        W23056   5.394  11.160  13.000
49989W        W23057  33.333  26.545  11.199
49990W        W23058   2.794  38.047   1.399
49991W        W23059  14.124  19.654  14.458
49992W        W23060  39.368  11.315  13.254
49993W        W23061  14.267  32.168  10.977
49994W        W23062  25.218  40.766   1.901
49995W        W23063  21.633   5.839   1.756
49996W        W23064  37.781  25.138   0.302
49997W        W23065   0.941   0.854  13.365
49998W        W23066  34.798  42.294  10.864
49999W        W23067  14.981  22.594   2.124
50000W        W23068  28.705   9.839  11.424
50001W        W23069   4.956  25.282   4.795
50002W        W23070   5.060  31.969   0.646
50003W        W23071  30.947  37.137   4.124
50004W        W23072  23.658  17.573  10.904
50005W        W23073  31.901   0.213   3.023
50006W        W23074   7.303  31.627  13.323
50007W        W23075  28.401  36.555   1.130
50008W        W23076  30.073  30.016  14.699
50009W        W23077   0.736  39.253  14.361
50010W        W23078  36.192  30.182  12.961
50011W        W23079  43.005  36.627   3.688
50012W        W23080  31.780  35.816  12.799
50013W        W23081  22.530  25.164  10.767
50014W        W23082  27.897  23.711   4.561
50015W        W23083   1.386  12.416  12.910
50016W        W23084   1.790  43.807   4.399
50017W        W23085  27.723  41.644   2.374
50018W        W23086  35.815  14.506  11.643
50019W        W23087  13.316   0.404  10.647
50020W        W23088  11.747  39.280  11.628
50021W        W23089  32.937  25.638  14.458
50022W        W23090  30.934  18.207   1.392
50023W        W23091  24.165  37.383   0.528
50024W        W23092   5.121  40.574  13.939
50025W        W23093  16.617  26.929   3.403
50026W        W23094   5.942  44.951  14.563
50027W        W23095   3.809   1.047  14.835
50028W        W23096  29.914  17.809  12.108
50029W        W23097  34.253  11.576   4.123
50030W        W23098  16.834  33.711  11.501
50031W        W23099  37.460  35.899  14.938
50032W        W23100  23.274  11.163  14.489
50033W        W23101  26.063   6.260   3.212
50034W        W23102  11.617  43.857   2.053
50035W        W23103   8.190  16.125  10.845
50036W        W23104  27.880  25.230   4.085
50037W        W23105  12.087  19.073  14.488
50038W        W23106  11.660  20.140  11.127
50039W        W23107  16.370   1.535  12.147
50040W        W23108  23.203   5.955   0.744
50041W        W23109  13.730  26.888  14.239
50042W        W23110   9.910  14.767   1.211
50043W        W23111   2.544  10.142  10.281
50044W        W23112   0.199  20.257  14.827
50045W        W23113  18.171  43.559  11.169
50046W        W23114  16.463  36.125  10.994
50047W        W23115  10.424   5.693   0.958
50048W        W23116  40.999  36.456   1.152
50049W        W23117  38.573   3.580  11.179
50050W        W23118  26.941   5.940   1.395
50051W        W23119  13.957   5.529   1.809
50052W        W23120  26.658  15.535  14.257
50053W        W23121  14.610   0.422   2.101
50054W        W23122  43.439  29.307   0.656
50055W        W23123   1.952   7.445   3.648
50056W        W23124  11.338  12.773  11.963
50057W        W23125   3.456  17.348   0.705
50058W        W23126  37.681  40.365   0.869
50059W        W23127  40.874  14.195   1.328
50060W        W23128  44.097  39.132  11.173
50061W        W23129  34.617  37.332   3.552
50062W        W23130  20.583   2.161   3.188
50063W        W23131  30.387   3.270  11.638
50064W        W23132  44.997  16.257   3.091
50065W        W23133  21.520  12.374   3.772
50066W        W23134   9.234  39.001   4.391
50067W        W23135  24.780  41.066  10.207
50068W        W23136  22.263  26.541  10.625
50069W        W23137   3.203   1.778  14.916
50070W        W23138   1.975  20.188   2.911
50071W        W23139  18.488  32.958   1.315
50072W        W23140  32.578  20.108   2.548
50073W        W23141  23.456   1.763   4.415
50074W        W23142  33.115   2.210  13.548
50075W        W23143   2.387  16.612   1.045
50076W        W23144   4.275  33.641  11.696
50077W        W23145  15.059  17.093  12.623
50078W        W23146  34.149  35.389  14.284
50079W        W23147   5.614  34.202   3.290
50080W        W23148  35.633   0.750   2.273
50081W        W23149   2.305  12.645   0.006
50082W        W23150  28.253   8.260   4.571
50083W        W23151  17.344   0.872   4.009
50084W        W23152  28.488  27.529  13.902
50085W        W23153   9.239  22.656  14.666
50086W        W23154  20.859   8.331  13.025
50087W        W23155  36.988   2.158   1.414
50088W        W23156  44.417  30.589  14.860
50089W        W23157   2.331  29.839   2.327
50090W        W23158  42.781  31.410   0.336
50091W        W23159   4.666  28.514  13.434
50092W        W23160  17.911   6.200   2.215
50093W        W23161  36.044  27.024   0.476
50094W        W23162  14.672  10.506   0.683
50095W        W23163  35.853  37.117   3.225
50096W        W23164  19.140  14.233  12.896
50097W        W23165  18.781  41.752  11.887
50098W        W23166  40.121  22.840  14.908
50099W        W23167   8.156  39.031   0.320
50100W        W23168   6.018  39.295   4.670
50101W        W23169  36.425  29.397  14.339
50102W        W23170   5.863  40.757  14.897
50103W        W23171  39.309  22.501  11.916
50104W        W23172  28.858  42.044   0.448
50105W        W23173  36.973  44.417   3.211
50106W        W23174  12.200  31.864   1.371
50107W        W23175  19.903   8.888   4.130
50108W        W23176   1.917  20.837  11.926
50109W        W23177  39.047   4.189   0.501
50110W        W23178  33.844  27.674   0.794
50111W        W23179  41.400  24.198  13.415
50112W        W23180  20.243   1.634  10.517
50113W        W23181  41.015  37.611   4.489
50114W        W23182  23.063   5.252   2.720
50115W        W23183  22.978  34.945   2.802
50116W        W23184  32.438  29.896   2.774
50117W        W23185  13.087  41.067  10.562
50118W        W23186  14.641   2.165   1.336
50119W        W23187  33.143  14.321  12.596
50120W        W23188  26.431  29.969  11.201
50121W        W23189  12.606  39.952   0.455
50122W        W23190  43.395   5.754  13.807
50123W        W23191  39.482  13.736  13.892
50124W        W23192  12.514  29.764  14.492
50125W        W23193  34.979  20.118   3.649
50126W        W23194  34.611   6.378  14.569
50127W        W23195   0.396   8.336   4.465
50128W        W23196  28.540   3.962   1.718
50129W        W23197  27.354  18.691  14.746
50130W        W23198  39.153   0.163  12.771
50131W        W23199   2.850  19.557   1.452
50132W        W23200  26.393  24.512  13.899
50133W        W23201  33.957  43.715   0.899
50134W        W23202   1.386  19.682  14.536
50135W        W23203  26.300   9.265   0.326
50136W        W23204  19.824  21.064   2.749
50137W        W23205  32.964  13.694   0.764
50138W        W23206   5.165  41.384   4.204
50139W        W23207  43.899   6.528  11.662
50140W        W23208  17.327  42.499  11.433
50141W        W23209   8.024  41.018   2.246
50142W        W23210   7.889  25.138   2.255
50143W        W23211  21.332  41.895  11.936
50144W        W23212  38.061  27.648   2.267
50145W        W23213  42.509  33.946   2.841
50146W        W23214  12.166  26.170   1.793
50147W        W23215  23.017  15.992  13.492
50148W        W23216  12.155  20.261   3.185
50149W        W23217  10.155  14.283  11.232
50150W        W23218   3.970  14.337  14.608
50151W        W23219  32.644  41.918  11.724
50152W        W23220  12.467  39.459   4.514
50153W        W23221  23.972  19.250   2.784
50154W        W23222  24.150  30.775  11.208
50155W        W23223  43.025  39.526  12.927
50156W        W23224  32.514  30.809   0.367
50157W        W23225  24.053  11.499   4.464
50158W        W23226  13.276  17.986  13.345
50159W        W23227  42.264  14.303  13.953
50160W        W23228   0.229  19.801   0.129
50161W        W23229  35.306  27.929  11.560
50162W        W23230  10.247  32.562   0.237
50163W        W23231  18.227  28.171   1.423
50164W        W23232  24.067  26.784   3.874
50165W        W23233  16.072  39.906   2.290
50166W        W23234   7.431  13.458   4.128
50167W        W23235   2.231   6.378   0.963
50168W        W23236   4.855  35.381  14.945
50169W        W23237  27.906  21.759   3.719
50170W        W23238   6.193  41.621  11.540
50171W        W23239  24.908  12.304  13.904
50172W        W23240  11.384   3.993   0.738
50173W        W23241  28.461   1.547   2.298
50174W        W23242  15.655  19.641  11.681
50175W        W23243  33.937  26.855   1.714
50176W        W23244  26.665  35.665  12.807
50177W        W23245  41.206  31.905  11.828
50178W        W23246  10.303  27.476   0.711
50179W        W23247  41.547  22.813   3.261
50180W        W23248  38.374  11.303  11.572
50181W        W23249  37.606  15.677   2.756
50182W        W23250  22.939   4.666  14.449
50183W        W23251  30.208   9.711   0.054
50184W        W23252  29.079  37.223   4.490
50185W        W23253  38.566  34.973   1.004
50186W        W23254  19.339  42.407   4.560
50187W        W23255   4.728  44.813   1.492
50188W        W23256  14.569  40.981   0.036
50189W        W23257  33.666   7.408  10.749
50190W        W23258  29.328  17.274  12.498
50191W        W23259  44.149  17.491   3.763
50192W        W23260  13.751  19.145  13.909
50193W        W23261  13.781  14.744   2.474
50194W        W23262  21.156   7.639  12.509
50195W        W23263  11.949  44.180  11.950
50196W        W23264  26.032  25.488  14.785
50197W        W23265   2.927  28.432  10.767
50198W        W23266  44.928  15.990   0.812
50199W        W23267  39.801  33.335   4.159
50200W        W23268   0.336  37.923  10.604
50201W        W23269   4.230  27.019   3.637
50202W        W23270  29.566   9.629   3.197
50203W        W23271  36.420  34.851   2.467
50204W        W23272  22.696  41.581  14.408
50205W        W23273  23.239   3.243  14.258
50206W        W23274  35.797  42.857  12.484
50207W        W23275  13.496  16.308  11.515
50208W        W23276  29.884  34.519   0.881
50209W        W23277  12.022  10.280  14.024
50210W        W23278  13.392  20.036  12.606
50211W        W23279   6.024  43.907   0.420
50212W        W23280  34.267   3.816   2.850
50213W        W23281  23.171  34.886  11.472
50214W        W23282   6.097  15.307  11.427
50215W        W23283   2.058  43.412   3.682
50216W        W23284  39.823  11.947  12.167
50217W        W23285   2.033  35.512   2.757
50218W        W23286  37.350  33.311   1.288
50219W        W23287  15.581   9.910  13.979
50220W        W23288  31.830  31.907   3.125
50221W        W23289   9.742  16.340   3.392
50222W        W23290  25.463  11.870   2.174
50223W        W23291  33.608  37.085   2.117
50224W        W23292  22.191  18.253  14.339
50225W        W23293  38.367  21.676   4.434
50226W        W23294  42.343  28.412  10.721
50227W        W23295  28.300  33.388  14.298
50228W        W23296  43.530   6.188  13.531
50229W        W23297  34.588  39.422  12.933
50230W        W23298  33.462  14.710   4.246
50231W        W23299  29.767  42.313   2.652
50232W        W23300  21.605   7.279   1.623
50233W        W23301  25.176  40.453   9.827
50234W        W23302  23.645  38.066  11.516
50235W        W23303   2.886  28.210   4.748
50236W        W23304  33.042  23.636   2.716
50237W        W23305  28.137  32.426   1.353
50238W        W23306  31.736  27.101   3.110
50239W        W23307  43.407   4.169  13.730
50240W        W23308  11.713  43.902  10.628
50241W        W23309  12.863  23.963  11.233
50242W        W23310  14.823  42.950  13.085
50243W        W23311  41.409  37.073  12.541
50244W        W23312  23.049   6.514  11.530
50245W        W23313   9.152  37.791  13.823
50246W        W23314  16.552   2.693   2.891
50247W        W23315  39.921  41.809   4.169
50248W        W23316  28.582  24.951   4.889
50249W        W23317  30.976  28.791  12.035
50250W        W23318  34.887  18.031   2.879
50251W        W23319  16.048  28.105   3.296
50252W        W23320  17.084  16.631  13.034
50253W        W23321  30.711  21.236  12.719
50254W        W23322  44.772   1.668  13.025
50255W        W23323  23.660  37.538   1.410
50256W        W23324   6.162  16.525   2.777
50257W        W23325  18.553  23.995  14.502
50258W        W23326  22.105  18.187   2.821
50259W        W23327  15.597  41.955   4.519
50260W        W23328  34.226  14.386  14.862
50261W        W23329  38.791  25.287  11.177
50262W        W23330  31.529  33.328  12.515
50263W        W23331  12.054   9.947   1.784
50264W        W23332  29.945  30.997   1.584
50265W        W23333  18.215  33.809  14.529
50266W        W23334  22.750  21.768   1.892
50267W        W23335  13.310  35.455  13.619
50268W        W23336   2.997  19.982   1.135
50269W        W23337  13.342   6.552   4.152
50270W        W23338   1.786  17.239  14.949
50271W        W23339   6.358  32.107  13.484
50272W        W23340  37.353  41.434   4.639
50273W        W23341   3.298  37.295  11.225
50274W        W23342  16.294  16.039  12.015
50275W        W23343  19.022  15.648   4.644
50276W        W23344  37.821  22.189   2.870
50277W        W23345   7.310  28.199   4.298
50278W        W23346   1.934  31.435   3.727
50279W        W23347  31.863   2.962   2.716
50280W        W23348  18.777  10.185  12.089
50281W        W23349  34.242  40.933  11.063
50282W        W23350  22.579  36.309   0.422
50283W        W23351  37.753  44.987  14.419
50284W        W23352   7.202  39.945  12.945
50285W        W23353  12.628  22.817  12.923
50286W        W23354  15.201  27.056   3.442
50287W        W23355  28.242   0.284  12.549
50288W        W23356  21.940  40.619  11.583
50289W        W23357  42.239  17.022   2.751
50290W        W23358  24.892   9.763  11.986
50291W        W23359  21.811   2.025   1.801
50292W        W23360   1.950  20.035   4.349
50293W        W23361  44.207  30.377   2.729
50294W        W23362  31.411  32.557  14.719
50295W        W23363   6.590  22.715   3.681
50296W        W23364  32.273  38.416   3.254
50297W        W23365   4.878  28.915   0.418
50298W        W23366  44.828  29.247  14.830
50299W        W23367   7.211  16.651  14.218
50300W        W23368  28.462  40.513  12.028
50301W        W23369  29.908  36.350   1.274
50302W        W23370   5.904   0.154  11.992
50303W        W23371  44.102   4.300   0.691
50304W        W23372  21.052   1.391  13.949
50305W        W23373  17.252  22.716  13.801
50306W        W23374  31.595   4.160  12.576
50307W        W23375  43.490  31.531  11.586
50308W        W23376  10.876  35.549  12.210
50309W        W23377   1.718  26.469  11.995
50310W        W23378  26.562   9.085   2.276
50311W        W23379  33.377   7.286   2.679
50312W        W23380  28.153  11.423   2.301
50313W        W23381  35.210  27.560   5.087
50314W        W23382  30.398   9.880  11.530
50315W        W23383  37.485   4.253   2.219
50316W        W23384  11.509  44.473  11.929
50317W        W23385   9.514  35.330   1.551
50318W        W23386   2.044  44.007   0.174
50319W        W23387  25.154  11.813  13.894
50320W        W23388  14.532  13.966  13.493
50321W        W23389  28.745  36.184  10.796
50322W        W23390  37.109  28.212  13.116
50323W        W23391  26.517  15.859   4.967
50324W        W23392  31.110  26.697   0.774
50325W        W23393  31.983  26.969   3.879
50326W        W23394  18.155  31.185  11.056
50327W        W23395  22.083   3.306   0.973
50328W        W23396  18.320  36.936  11.461
50329W        W23397  33.396   4.389  14.811
50330W        W23398  22.327  26.704   2.645
50331W        W23399  23.325  35.512   0.067
50332W        W23400  27.978  26.186  10.705
50333W        W23401  42.895  12.597  11.142
50334W        W23402  27.924  21.810  11.082
50335W        W23403  31.119  13.419  12.414
50336W        W23404  10.208  40.332   2.373
50337W        W23405  41.914  26.636   1.442
50338W        W23406  20.522  23.715  11.932
50339W        W23407  30.017  26.165  12.758
50340W        W23408  33.606  41.889   3.374
50341W        W23409  15.418  41.531   1.329
50342W        W23410  44.831  23.744  13.334
50343W        W23411   5.962  22.653  13.878
50344W        W23412  42.802  26.754   2.259
50345W        W23413  42.796  19.113   4.625
50346W        W23414  33.659  15.898  10.254
50347W        W23415  19.267  38.724  12.981
50348W        W23416  11.223  44.661  11.530
50349W        W23417   0.452  21.147  10.258
50350W        W23418  11.656  42.723  13.522
50351W        W23419  14.859   8.255   4.179
50352W        W23420  22.984   0.856  13.887
50353W        W23421  37.282  29.871  14.403
50354W        W23422   0.995   4.566  10.528
50355W        W23423  20.498  20.219   0.041
50356W        W23424  10.217  29.173  11.009
50357W        W23425  10.386  41.018  13.427
50358W        W23426  17.110  23.726   2.309
50359W        W23427   3.711  37.037  10.515
50360W        W23428  18.225  41.103  11.478
50361W        W23429   2.460  39.482  14.401
50362W        W23430  16.587  42.525   0.812
50363W        W23431   8.686  19.300   2.923
50364W        W23432   1.404  40.549   4.570
50365W        W23433  11.923  11.181   1.916
50366W        W23434   9.905  12.398   2.210
50367W        W23435  18.469  21.663   0.113
50368W        W23436   8.219  31.486   0.302
50369W        W23437  10.581   3.257  11.940
50370W        W23438   0.922  15.295  10.601
50371W        W23439  26.928  20.970  11.449
50372W        W23440  40.292  16.204  11.200
50373W        W23441  33.022  43.883   0.221
50374W        W23442  38.660  13.887  14.226
50375W        W23443  41.395  42.982   2.835
50376W        W23444  29.115  25.089  10.664
50377W        W23445  42.011   2.784  12.052
50378W        W23446  34.889  31.042  11.809
50379W        W23447  17.486  17.216  12.078
50380W        W23448  44.685   5.753   2.256
50381W        W23449  13.583  19.197   2.901
50382W        W23450  44.624  20.673  14.286
50383W        W23451  31.395   9.879  14.382
50384W        W23452   2.894  13.693   4.192
50385W        W23453  44.121   6.699  12.968
50386W        W23454  10.470  30.175  11.125
50387W        W23455  35.619  37.433   1.865
50388W        W23456  24.676   8.725  13.552
50389W        W23457   0.096  15.332  11.638
50390W        W23458  10.544  25.981   2.184
50391W        W23459  28.504  17.233  12.096
50392W        W23460  41.939   1.340  12.867
50393W        W23461  41.828  29.653  14.057
50394W        W23462  29.325  37.923   2.242
50395W        W23463   2.369   0.329   2.860
50396W        W23464  15.863   0.243   0.563
50397W        W23465  32.219  18.084  13.020
50398W        W23466  19.373  18.609  14.007
50399W        W23467  21.128  13.274  14.337
50400W        W23468  24.738   0.846   2.890
50401W        W23469  24.322  44.698  12.090
50402W        W23470  11.754  35.966  12.116
50403W        W23471  32.356  22.966  13.945
50404W        W23472  35.438  27.038  10.671
50405W        W23473  22.511   0.461  12.720
50406W        W23474   3.440  34.946  10.709
50407W        W23475  33.038  35.410  12.129
50408W        W23476  42.958   9.924   3.353
50409W        W23477  17.813  26.866   2.660
50410W        W23478  21.979  13.185  13.380
50411W        W23479  27.679   1.291  13.926
50412W        W23480  25.484   4.312   3.276
50413W        W23481  16.874   6.246   2.343
50414W        W23482   6.745  23.945  10.718
50415W        W23483   0.743  44.295   2.274
50416W        W23484  27.717   4.973  11.906
50417W        W23485  27.775   2.448   3.349
50418W        W23486  28.845  27.065   1.681
50419W        W23487   0.404  37.084  12.489
50420W        W23488   4.884  29.215   4.688
50421W        W23489  16.565  34.644   3.874
50422W        W23490  16.589  17.801  11.030
50423W        W23491   0.933  44.515   2.707
50424W        W23492  31.444  12.186  10.577
50425W        W23493  16.305   0.839  14.008
50426W        W23494  22.747   5.045   5.053
50427W        W23495   4.229  34.211  11.741
50428W        W23496   9.286  32.508   4.194
50429W        W23497  20.397   8.754  12.681
50430W        W23498   5.331  15.842  11.963
50431W        W23499  12.296  11.290   1.400
50432W        W23500  22.708  34.944  11.217
50433W        W23501   7.701  16.640   0.388
50434W        W23502  21.252  20.442   0.383
50435W        W23503   1.991  41.711   5.056
50436W        W23504  35.384   5.987   1.327
50437W        W23505  15.680  15.903  14.837
50438W        W23506   9.327  15.522   4.474
50439W        W23507  23.547  18.469   3.684
50440W        W23508   9.377  26.031  14.460
50441W        W23509  14.714  43.845   4.708
50442W        W23510   8.134  40.854  14.787
50443W        W23511  10.275  14.782  11.524
50444W        W23512  44.939  36.342  13.449
50445W        W23513  22.609  44.977   5.198
50446W        W23514  24.524   1.347  14.727
50447W        W23515  28.945   1.743  12.684
50448W        W23516  34.971  43.072  10.139
50449W        W23517  30.988  28.348   4.064
50450W        W23518  37.379  17.607  13.892
50451W        W23519  20.099  37.837  13.987
50452W        W23520  43.719  16.271   3.712
50453W        W23521  10.128  36.995  12.362
50454W        W23522  29.417   9.463  11.350
50455W        W23523  12.707  43.424   3.717
50456W        W23524  16.626  21.353  14.377
50457W        W23525  39.400  40.354   3.898
50458W        W23526  31.467  33.596  12.986
50459W        W23527  35.159  39.889  14.359
50460W        W23528  21.146  21.487  11.444
50461W        W23529  29.444  32.139   2.109
50462W        W23530  36.086  30.122   1.244
50463W        W23531  33.276  32.353  14.761
50464W        W23532   1.457  27.428  13.971
50465W        W23533   0.812  35.884   2.547
50466W        W23534  37.990   1.852  13.940
50467W        W23535  40.008  33.297  10.644
50468W        W23536  33.375  16.284   3.725
50469W        W23537  14.649  26.855  13.454
50470W        W23538  26.099   9.132   1.210
50471W        W23539  35.528  40.362  11.546
50472W        W23540  20.354  33.860   1.441
50473W        W23541   6.655  11.983   0.789
50474W        W23542   5.893  30.389  10.790
50475W        W23543   7.900  39.037   3.244
50476W        W23544  25.474  23.269   3.670
50477W        W23545   4.897  36.347  14.727
50478W        W23546  35.126  44.530  14.337
50479W        W23547  13.737  32.125   1.938
50480W        W23548   3.754  16.614  12.393
50481W        W23549  26.550  39.095  13.847
50482W        W23550  11.268  27.558  10.414
50483W        W23551  20.293  38.003  13.525
50484W        W23552  19.400  14.887   2.826
50485W        W23553  35.871  13.315   3.696
50486W        W23554  15.950  24.755  11.616
50487W        W23555  34.494   5.726   3.290
50488W        W23556   8.208  14.323   3.186
50489W        W23557  18.629  39.585   3.213
50490W        W23558  43.233  42.972   2.218
50491W        W23559  16.497  27.562  11.632
50492W        W23560  10.549   9.405  11.969
50493W        W23561   4.766  27.263   1.698
50494W        W23562  25.084   6.436  13.913
50495W        W23563  29.408   7.899  10.621
50496W        W23564  25.149  12.533  12.361
50497W        W23565   0.469   7.094   1.645
50498W        W23566  26.954  24.277   4.260
50499W        W23567  30.931   3.231   4.053
50500W        W23568  24.265  27.967   0.863
50501W        W23569  36.974  40.566   3.270
50502W        W23570   0.998  12.534  11.782
50503W        W23571   2.023  29.109  12.551
50504W        W23572  42.042  28.532   0.898
50505W        W23573  23.659  24.232  13.191
50506W        W23574  22.143   8.256   5.022
50507W        W23575   8.821  38.789   4.628
50508W        W23576  43.318  10.716   4.477
50509W        W23577  36.863  40.035  14.842
50510W        W23578  35.103  38.929   2.752
50511W        W23579  39.948  42.995  11.716
50512W        W23580  21.300  17.347   5.063
50513W        W23581   9.120  13.594   0.157
50514W        W23582  40.256  11.106   0.972
50515W        W23583  24.014  13.565  14.411
50516W        W23584  24.936  31.110   4.565
50517W        W23585  12.721  22.233  11.153
50518W        W23586   5.128  32.219   4.538
50519W        W23587  25.530  27.840   3.589
50520W        W23588  17.186   6.683   2.349
50521W        W23589  40.042   7.883   5.537
50522W        W23590  11.023   5.764  12.438
50523W        W23591  11.618   3.639   1.433
50524W        W23592  43.435  25.251   2.464
50525W        W23593  32.645  26.399  14.624
50526W        W23594  18.685  26.199  11.175
50527W        W23595   6.337   3.014   1.336
50528W        W23596  14.130   8.273  14.833
50529W        W23597  28.878  44.397   2.886
50530W        W23598  33.997  35.330   3.820
50531W        W23599  29.089  16.297   0.247
50532W        W23600  32.875  37.511   4.115
50533W        W23601  20.106   4.695   3.718
50534W        W23602  17.068  29.813  11.336
50535W        W23603   9.775  12.064   3.809
50536W        W23604  33.393  11.250  10.205
50537W        W23605  33.465   5.903   2.385
50538W        W23606  38.808   2.237   2.762
50539W        W23607  32.186  16.083   1.256
50540W        W23608  41.716  18.816  11.606
50541W        W23609  40.834  16.776  11.939
50542W        W23610  22.246  35.644  11.017
50543W        W23611   0.676  15.357   1.854
50544W        W23612   2.668  11.643  12.579
50545W        W23613  10.436  10.292  13.862
50546W        W23614   1.708   3.354   5.183
50547W        W23615  36.763  12.563   0.928
50548W        W23616   6.619  11.546  12.455
50549W        W23617   9.599  34.855   1.354
50550W        W23618   8.571  21.710  11.515
50551W        W23619  23.268   5.226   1.848
50552W        W23620  39.887  18.181  10.742
50553W        W23621  35.784   6.823  14.501
50554W        W23622   5.452  17.722   0.351
50555W        W23623  28.927  12.402   0.877
50556W        W23624  13.105  21.279  14.239
50557W        W23625   8.622  42.816  12.300
50558W        W23626  15.204  16.616   3.153
50559W        W23627  18.668  13.658   4.946
50560W        W23628  25.701  12.800  13.998
50561W        W23629  27.979  33.971  13.373
50562W        W23630  29.066  28.078  12.154
50563W        W23631  11.167  14.085  14.041
50564W        W23632  41.034  13.329   2.614
50565W        W23633  42.316  13.184   2.310
50566W        W23634  18.565   8.946   4.519
50567W        W23635  12.627   0.849  11.727
50568W        W23636  27.371   2.008  13.594
50569W        W23637  32.140   4.993  10.668
50570W        W23638  44.720  29.181   0.722
50571W        W23639  30.972  19.986   4.377
50572W        W23640  25.015  28.607   3.643
50573W        W23641  14.147  18.091   1.302
50574W        W23642  31.550  21.077   2.789
50575W        W23643  11.361  41.188  11.611
50576W        W23644  22.115  43.979   2.834
50577W        W23645   3.060  43.130   5.107
50578W        W23646  27.706  34.429  11.642
50579W        W23647  31.053  18.594   2.769
50580W        W23648   9.391  44.433   4.191
50581W        W23649  38.332  34.513   1.152
50582W        W23650   9.599   3.991   3.181
50583W        W23651  29.747  33.567  11.288
50584W        W23652  18.001   3.800   3.831
50585W        W23653   3.053   1.543   0.911
50586W        W23654  26.691   1.897   9.786
50587W        W23655   9.877   2.010   4.948
50588W        W23656  18.314  11.275   4.744
50589W        W23657  40.526   8.943  14.876
50590W        W23658  22.534  23.948  14.250
50591W        W23659  44.638   2.438   0.301
50592W        W23660   6.332  19.472  12.332
50593W        W23661  42.350  10.445   2.784
50594W        W23662   4.425   4.954   1.729
50595W        W23663  10.155  11.565   2.076
50596W        W23664  32.515  25.712   2.591
50597W        W23665  17.547  39.897   4.616
50598W        W23666  28.039   9.863   3.594
50599W        W23667  29.644   1.964  12.880
50600W        W23668   0.895  29.180  12.384
50601W        W23669   3.985  41.853  13.580
50602W        W23670  11.148   6.868   0.332
50603W        W23671  16.923  25.770  11.153
50604W        W23672  40.307  30.279   4.967
50605W        W23673  41.260   3.749   1.383
50606W        W23674   5.198  15.534  12.983
50607W        W23675  30.567  21.663   0.828
50608W        W23676  38.226   0.044   1.651
50609W        W23677  35.469  14.384   4.199
50610W        W23678  30.012  27.554   4.113
50611W        W23679   7.027  10.898   2.351
50612W        W23680  17.584   9.534  10.919
50613W        W23681  39.900   7.452   0.035
50614W        W23682  30.546  15.602   0.762
50615W        W23683  30.728  34.617  10.680
50616W        W23684  30.474   5.631  14.052
50617W        W23685  31.924  36.979  10.722
50618W        W23686  14.835  29.526   0.591
50619W        W23687  36.852  27.081   3.067
50620W        W23688  16.555  34.587   4.394
50621W        W23689  20.418  38.158   1.449
50622W        W23690   8.215  12.814  13.924
50623W        W23691   5.155  20.680   3.673
50624W        W23692  19.736  13.989  10.558
50625W        W23693  16.124   5.324   3.434
50626W        W23694   9.756  43.589  12.448
50627W        W23695   8.691  10.177   2.857
50628W        W23696   4.090  28.540   0.706
50629W        W23697   0.632  27.607   1.914
50630W        W23698  43.020  36.934  12.602
50631W        W23699  23.660  28.932   1.691
50632W        W23700  34.627  30.200   2.559
50633W        W23701  39.143  41.525  14.386
50634W        W23702  44.953  39.429  14.965
50635W        W23703  17.271   6.926  11.423
50636W        W23704  42.800  16.587   3.889
50637W        W23705  31.690  11.772   2.252
50638W        W23706   1.852  10.134   2.204
50639W        W23707  30.212  36.045   4.442
50640W        W23708  15.513   8.757   5.554
50641W        W23709  29.916   2.371   4.157
50642W        W23710  20.031   7.911   0.788
50643W        W23711  40.626  12.689  11.117
50644W        W23712   5.259  28.903   3.920
50645W        W23713  18.954  43.385   0.741
50646W        W23714  12.897  40.351  12.920
50647W        W23715  35.893  25.513   1.930
50648W        W23716  22.924  18.040  12.988
50649W        W23717  43.300  30.364   0.759
50650W        W23718  18.519  14.547   3.735
50651W        W23719  32.659  14.521  12.031
50652W        W23720  27.554   6.152   0.298
50653W        W23721   1.416  20.137   4.536
50654W        W23722  38.369  37.525   1.952
50655W        W23723   8.231  27.790  10.875
50656W        W23724  31.597  23.733   1.759
50657W        W23725   6.291  12.116  14.061
50658W        W23726  43.663  10.880  11.119
50659W        W23727  44.806  36.853   0.439
50660W        W23728   3.061  35.568  10.906
50661W        W23729  42.871  40.600   0.999
50662W        W23730  17.191  38.327   0.792
50663W        W23731  24.745  24.549  13.572
50664W        W23732  16.849   9.310   0.493
50665W        W23733  42.625  11.109   1.375
50666W        W23734  33.494  31.962   1.840
50667W        W23735  34.858   3.132   4.156
50668W        W23736  25.182   8.719  11.522
50669W        W23737   5.142  25.670  12.190
50670W        W23738  34.360  39.876  11.569
50671W        W23739  44.506   1.752  12.385
50672W        W23740  18.357  29.458   3.364
50673W        W23741  17.168  37.553   3.337
50674W        W23742   2.416  28.155   2.666
50675W        W23743  44.400  10.199  14.191
50676W        W23744  10.200   1.149  14.369
50677W        W23745  19.303  21.793  14.069
50678W        W23746  11.665  22.824  14.916
50679W        W23747  13.520  28.887  11.705
50680W        W23748  27.586  11.710  10.968
50681W        W23749   5.859  28.643   1.467
50682W        W23750  19.280  27.485  13.297
50683W        W23751  36.129  42.807  11.187
50684W        W23752  31.724  11.205  13.752
50685W        W23753  12.836  32.404   2.799
50686W        W23754  13.744  15.141   3.788
50687W        W23755  24.516  34.985   2.226
50688W        W23756   3.318  10.642  10.616
50689W        W23757  41.874   8.922   3.793
50690W        W23758  29.715   2.964  11.939
50691W        W23759  22.479  31.518  11.673
50692W        W23760  23.284  14.824  14.014
50693W        W23761   7.848  15.697   3.567
50694W        W23762  34.668  42.907   3.197
50695W        W23763  39.311  28.535  14.823
50696W        W23764  30.950  39.069  12.414
50697W        W23765  40.971  39.581   3.162
50698W        W23766   6.758  29.004   2.292
50699W        W23767   4.350  33.896  12.138
50700W        W23768  44.242  11.190  10.864
50701W        W23769  16.317   9.222   0.033
50702W        W23770  16.838   5.237   0.864
50703W        W23771  43.291  22.217  10.452
50704W        W23772  19.484  36.444   1.063
50705W        W23773  19.010   6.176   4.677
50706W        W23774   4.020  40.305   0.059
50707W        W23775  41.460   0.964  11.089
50708W        W23776  38.428  25.440  10.731
50709W        W23777  36.409  43.318   3.182
50710W        W23778  25.312  13.811  14.873
50711W        W23779  26.217  39.726  11.140
50712W        W23780  27.385   6.956  14.428
50713W        W23781  41.610  40.338   1.925
50714W        W23782  39.761   6.942  11.482
50715W        W23783  43.310  28.133  12.964
50716W        W23784  29.127  10.684  12.916
50717W        W23785   6.545  15.931   0.105
50718W        W23786   0.688   6.431  13.910
50719W        W23787  30.469   9.619   1.486
50720W        W23788  16.207  35.475   3.418
50721W        W23789   4.526  10.949  10.963
50722W        W23790   4.870  41.262  11.068
50723W        W23791  15.919  18.513   0.911
50724W        W23792  32.378  19.251  11.170
50725W        W23793  24.657  19.887   4.489
50726W        W23794   1.277  15.780   9.913
50727W        W23795  35.452   1.761  12.630
50728W        W23796  24.197  41.890  14.576
50729W        W23797   5.291  11.126  10.585
50730W        W23798  31.425  27.206   2.713
50731W        W23799  43.591  11.934   2.401
50732W        W23800  16.232  21.030   0.845
50733W        W23801  11.798  44.897  14.056
50734W        W23802  28.474   4.894  10.996
50735W        W23803  11.188  11.819  13.383
50736W        W23804  17.190  41.101  10.535
50737W        W23805  10.888   1.497   0.289
50738W        W23806  34.139   7.251  13.760
50739W        W23807  36.110  42.271  14.502
50740W        W23808  17.737  14.137   4.950
50741W        W23809  44.507  39.556  12.890
50742W        W23810  28.637  44.063  13.099
50743W        W23811  34.394   5.679  12.851
50744W        W23812   9.774   6.373   4.110
50745W        W23813   8.102  21.205  13.550
50746W        W23814  19.743  37.497   2.485
50747W        W23815   1.767   4.232  14.617
50748W        W23816  43.532  36.645   3.716
50749W        W23817  41.517   8.395  14.139
50750W        W23818  36.420  38.892  10.442
50751W        W23819   8.552   2.101   0.035
50752W        W23820  38.846  21.321   1.680
50753W        W23821   3.590  25.453  13.817
50754W        W23822  42.375  19.615   2.445
50755W        W23823   6.062  43.401   0.396
50756W        W23824  18.779  14.987   2.373
50757W        W23825  12.117  29.920   3.917
50758W        W23826  29.619  33.404   0.398
50759W        W23827  40.422  14.149  10.263
50760W        W23828  35.852   0.866   3.640
50761W        W23829  10.797  26.652  14.373
50762W        W23830  20.946  22.611   4.115
50763W        W23831  31.018  10.134  11.019
50764W        W23832   8.168  23.535  12.585
50765W        W23833  28.052  12.163   1.811
50766W        W23834  22.760  20.545   4.252
50767W        W23835  34.081   1.443  11.197
50768W        W23836  41.008  11.831  12.008
50769W        W23837  14.736   9.791  13.483
50770W        W23838  41.289  12.757  12.691
50771W        W23839  21.173  36.431  14.793
50772W        W23840  16.763   5.791   2.608
50773W        W23841  38.751  41.927   0.920
50774W        W23842  38.099  37.372  14.244
50775W        W23843  26.166  36.726   2.678
50776W        W23844  41.584  26.982  11.667
50777W        W23845  29.923  30.476  11.941
50778W        W23846   3.687  35.963  12.415
50779W        W23847  25.805   9.392   2.629
50780W        W23848   6.946  21.083  12.594
50781W        W23849  38.270  14.135   4.895
50782W        W23850  15.683  34.827  11.085
50783W        W23851  42.787   0.804  14.019
50784W        W23852  26.364  13.700  14.328
50785W        W23853  14.860  44.325   0.469
50786W        W23854  12.987  26.536  14.048
50787W        W23855   9.556   5.569   1.369
50788W        W23856  16.258  34.175   3.819
50789W        W23857   1.981   1.414   3.601
50790W        W23858  31.118   2.691  10.777
50791W        W23859   3.491  21.530  11.415
50792W        W23860  15.038  26.308   4.516
50793W        W23861  15.467  30.866   2.641
50794W        W23862  24.643   5.092   3.378
50795W        W23863  29.220   1.826  11.103
50796W        W23864  30.411  12.348  14.856
50797W        W23865   4.681  22.388  11.244
50798W        W23866  13.915  11.536  14.904
50799W        W23867  30.594   6.189   2.329
50800W        W23868  10.845   9.681   3.194
50801W        W23869  29.678  13.802   3.722
50802W        W23870  31.625  42.683  13.133
50803W        W23871  31.737  16.881   1.256
50804W        W23872  34.149  37.131  13.516
50805W        W23873  30.018  36.150  12.129
50806W        W23874  20.558   1.304  14.328
50807W        W23875  38.357   9.617   4.131
50808W        W23876  12.969   7.268   3.791
50809W        W23877   8.544   9.769   1.883
50810W        W23878  23.944  25.018   3.943
50811W        W23879  17.282   6.750  11.909
50812W        W23880  23.218   9.753   4.590
50813W        W23881  32.557  17.791   4.584
50814W        W23882   5.374  17.243  10.908
50815W        W23883  24.936  20.609  12.452
50816W        W23884  34.057  24.134   4.229
50817W        W23885   9.311  38.065   3.324
50818W        W23886  10.438  31.842   2.782
50819W        W23887  19.577  36.625  12.507
50820W        W23888  34.838   6.799  13.442
50821W        W23889  39.033  15.679  11.033
50822W        W23890  18.056   6.843  12.893
50823W        W23891  12.775   0.735  12.193
50824W        W23892  13.544  43.395  10.706
50825W        W23893  43.395  23.736  14.243
50826W        W23894   3.844   5.309  10.641
50827W        W23895  17.118   9.211   3.280
50828W        W23896  15.226  38.799   0.103
50829W        W23897  30.348  32.100   2.591
50830W        W23898   1.885  36.393   1.162
50831W        W23899  23.142  28.089   1.956
50832W        W23900   7.714   2.467  13.363
50833W        W23901  18.708  36.671   1.408
50834W        W23902   4.985  44.341  14.464
50835W        W23903  13.917  16.085   4.569
50836W        W23904  35.612  14.437  14.823
50837W        W23905  34.067   0.463  12.468
50838W        W23906  41.340  19.569  14.281
50839W        W23907   8.952  20.648   1.842
50840W        W23908  37.080  20.036   3.693
50841W        W23909  33.187  20.578   3.248
50842W        W23910  13.657  13.978   4.681
50843W        W23911  17.188  15.100   1.400
50844W        W23912  28.720  25.983  12.015
50845W        W23913  15.308  19.810  14.907
50846W        W23914   8.839  12.325  10.572
50847W        W23915   4.690  10.145  11.653
50848W        W23916   9.646  28.029   4.760
50849W        W23917  39.395   9.641   4.365
50850W        W23918  27.064  26.853  10.467
50851W        W23919   5.385  41.864  12.613
50852W        W23920  43.316  38.635  11.187
50853W        W23921  29.631   4.821  13.805
50854W        W23922  25.234  27.021  14.915
50855W        W23923  18.777  34.334   1.761
50856W        W23924   2.257  30.162   1.879
50857W        W23925  10.779  10.922   2.183
50858W        W23926  39.987   2.391  14.420
50859W        W23927  22.785  14.176  10.789
50860W        W23928  29.673  19.156   1.260
50861W        W23929  12.181  13.881   0.427
50862W        W23930   1.022  44.421   3.666
50863W        W23931  22.727  18.508   3.325
50864W        W23932  37.358  27.760   2.667
50865W        W23933  44.935   4.136  12.696
50866W        W23934  14.880  38.915  12.574
50867W        W23935  40.806  22.980   1.037
50868W        W23936   1.848  44.220   3.615
50869W        W23937  22.366  22.197  10.518
50870W        W23938  20.660  25.981   1.125
50871W        W23939  35.650  18.385   3.870
50872W        W23940  18.636   1.310  12.521
50873W        W23941  34.543  17.321   0.503
50874W        W23942  11.667  34.824   1.559
50875W        W23943  32.035  31.441   0.046
50876W        W23944  32.057  15.839  12.217
50877W        W23945  16.055  37.746   2.733
50878W        W23946  25.217  30.863  12.606
50879W        W23947  17.529  27.496   3.151
50880W        W23948  29.123   3.889   0.673
50881W        W23949  28.964  41.280   0.812
50882W        W23950   4.110   7.129   4.750
50883W        W23951  30.887   3.634  14.439
50884W        W23952  13.987  43.647  11.899
50885W        W23953  27.615   7.002   0.783
50886W        W23954  21.517  39.274   1.684
50887W        W23955  40.964  30.522  13.111
50888W        W23956  32.660  21.310   2.232
50889W        W23957   3.876   9.831  11.457
50890W        W23958  40.888  28.670  13.948
50891W        W23959   0.987  26.939  11.688
50892W        W23960   7.923  27.509  10.544
50893W        W23961  43.058  30.921   1.165
50894W        W23962  20.255  29.216  11.170
50895W        W23963  38.787  39.438  12.625
50896W        W23964  20.594   1.765   4.894
50897W        W23965  28.068  17.161  13.068
50898W        W23966  22.739  39.459   4.536
50899W        W23967  20.070  33.194  12.990
50900W        W23968  36.645  41.032  14.827
50901W        W23969   2.930  10.153   0.001
50902W        W23970  35.381   0.361   0.823
50903W        W23971  16.062  16.540   0.369
50904W        W23972  31.887   6.246  12.882
50905W        W23973  12.708  19.157  10.144
50906W        W23974  27.258   2.718   0.661
50907W        W23975  36.902  35.300  11.259
50908W        W23976  36.153  36.094   0.395
50909W        W23977   7.747  11.672   3.622
50910W        W23978  29.274  39.561  10.598
50911W        W23979  37.816  37.039   3.163
50912W        W23980  22.762   7.853   0.863
50913W        W23981  16.250  16.515  14.753
50914W        W23982  31.448  27.691   2.881
50915W        W23983  10.727  35.307   0.370
50916W        W23984  37.394   9.880  13.918
50917W        W23985  27.659  18.252  11.579
50918W        W23986  44.832  12.365   2.814
50919W        W23987  24.730  16.992   2.866
50920W        W23988  21.540  12.175   4.629
50921W        W23989  19.529   4.517  14.373
50922W        W23990  30.463  34.164  10.716
50923W        W23991   4.940   8.023  14.576
50924W        W23992   9.579   0.525   4.644
50925W        W23993  27.629  21.190  13.550
50926W        W23994  42.792   9.162  10.602
50927W        W23995  34.620  40.456  12.923
50928W        W23996  42.416  27.974  11.616
50929W        W23997  39.000  38.085  12.214
50930W        W23998  14.982   3.732  10.190
50931W        W23999  28.945   4.686  10.806
50932W        W24000  16.679   8.858   1.808
50933W        W24001  19.806  30.705   1.181
50934W        W24002  11.251  34.324  14.898
50935W        W24003  31.962   4.775  13.946
50936W        W24004  24.022  38.397  10.618
50937W        W24005  27.636   8.088   0.445
50938W        W24006  15.830   1.272   1.380
50939W        W24007  11.446  33.972   1.387
50940W        W24008  11.924  13.482  14.474
50941W        W24009  16.140  25.063  13.959
50942W        W24010  14.173   6.041  10.395
50943W        W24011   7.777  18.545   4.184
50944W        W24012  18.050  28.991  12.781
50945W        W24013  19.481   6.032   3.985
50946W        W24014  14.239  12.067   2.439
50947W        W24015  28.765   0.406  14.987
50948W        W24016  42.103  18.010   1.818
50949W        W24017  23.175  19.056  10.459
50950W        W24018   9.690  13.755  10.730
50951W        W24019  11.598   9.038   3.209
50952W        W24020  29.456  43.728   3.712
50953W        W24021  16.082  21.975  13.504
50954W        W24022  19.535   5.188  10.634
50955W        W24023  41.948   8.674  13.930
50956W        W24024  36.892  33.153   2.383
50957W        W24025   4.057  26.151   2.578
50958W        W24026  36.047  21.573   3.650
50959W        W24027  19.220  32.013  10.674
50960W        W24028  19.242   4.881   2.222
50961W        W24029  37.992  16.153   3.216
50962W        W24030  39.839  19.612   3.528
50963W        W24031  21.663   5.297  12.455
50964W        W24032  38.265  14.112   4.371
50965W        W24033   4.680  33.838   3.320
50966W        W24034  38.916  40.302  14.056
50967W        W24035  20.102   6.158   2.395
50968W        W24036   6.663  21.169  14.482
50969W        W24037  26.643  40.016  14.834
50970W        W24038   1.275   9.236   2.864
50971W        W24039   3.172  17.105  13.788
50972W        W24040  21.292  29.456  13.963
50973W        W24041  31.645   5.243   3.255
50974W        W24042  27.200  10.827   0.279
50975W        W24043  32.490  36.283  11.180
50976W        W24044  41.757   2.835  12.517
50977W        W24045   3.376  13.217   0.299
50978W        W24046  26.925  23.769  12.040
50979W        W24047  12.674  37.628   3.459
50980W        W24048  19.119  13.615  12.645
50981W        W24049  39.215  41.124   4.172
50982W        W24050  26.579   2.521   0.248
50983W        W24051  13.590   8.577   3.191
50984W        W24052  37.554  33.917   4.766
50985W        W24053  35.309  40.962  13.533
50986W        W24054  43.440  20.345   4.500
50987W        W24055   2.319  12.906  10.413
50988W        W24056  12.571   2.684  13.826
50989W        W24057  44.181  35.313  12.070
50990W        W24058   3.945  25.575   0.091
50991W        W24059  25.936  30.394  10.433
50992W        W24060  40.285   3.471   1.742
50993W        W24061   2.670  25.760   4.758
50994W        W24062   6.744  16.070  12.234
50995W        W24063   3.941  30.492   3.125
50996W        W24064  22.634  17.165   3.711
50997W        W24065  30.749  38.180   1.990
50998W        W24066  16.245  13.644  10.750
50999W        W24067  24.661  12.155   1.304
51000W        W24068  14.611  30.041   4.837
51001W        W24069  32.485  16.929  13.476
51002W        W24070   1.991  23.243  10.828
51003W        W24071   4.419  25.967   1.229
51004W        W24072  30.609  27.678  12.118
51005W        W24073  11.120  39.388   2.295
51006W        W24074   7.260  24.717  12.380
51007W        W24075  15.229  17.552  13.084
51008W        W24076   8.802  27.188  13.998
51009W        W24077  27.903   4.170  12.919
51010W        W24078  31.884  15.706  14.943
51011W        W24079  12.174  11.419  10.718
51012W        W24080  43.285  25.069   3.202
51013W        W24081   1.521  29.013  12.137
51014W        W24082  12.701  15.474   0.749
51015W        W24083  43.937   0.446  10.887
51016W        W24084  24.066  43.880  13.790
51017W        W24085  32.915  33.216   3.740
51018W        W24086  25.531  41.220   2.876
51019W        W24087   4.316  22.518  13.475
51020W        W24088  12.817  29.628  14.916
51021W        W24089  42.930  24.425  13.902
51022W        W24090   5.764  30.927   3.363
51023W        W24091  38.748  40.729  13.844
51024W        W24092  25.939  28.898  13.886
51025W        W24093   5.172  30.394  11.246
51026W        W24094   6.200  16.250   3.226
51027W        W24095  41.023  13.793   2.372
51028W        W24096  21.098  11.745   2.868
51029W        W24097  14.778  10.695  12.197
51030W        W24098  13.326  25.517  14.810
51031W        W24099   1.554  18.058  11.108
51032W        W24100  39.308  41.331  13.503
51033W        W24101  37.805  41.352   3.787
51034W        W24102  28.024  30.583  13.316
51035W        W24103  40.786  13.395  13.003
51036W        W24104  39.921  42.520   2.216
51037W        W24105  27.932  26.118   3.699
51038W        W24106  22.165  25.100  14.364
51039W        W24107  43.757  24.285   0.007
51040W        W24108   1.662  27.791   0.954
51041W        W24109  11.574  29.427  14.322
51042W        W24110   8.876  21.140   4.069
51043W        W24111   9.863   9.781  11.902
51044W        W24112  24.197  33.451  10.794
51045W        W24113  21.491  12.239   1.913
51046W        W24114  13.184  40.568   1.154
51047W        W24115  11.069  22.180  13.402
51048W        W24116  38.202  15.620  14.781
51049W        W24117   3.419  24.698  10.740
51050W        W24118  37.561   2.189   0.136
51051W        W24119  18.089  44.352   3.154
51052W        W24120  18.708  36.883  14.443
51053W        W24121  11.666  37.388  12.903
51054W        W24122  10.677  17.637   0.418
51055W        W24123  37.048  15.993   3.267
51056W        W24124  36.487   2.221  12.424
51057W        W24125  37.820  42.879   4.839
51058W        W24126  16.895  35.340  13.400
51059W        W24127  35.231  32.149  10.585
51060W        W24128   3.989   8.473  13.854
51061W        W24129  29.232   3.835   3.226
51062W        W24130  19.190  40.621  11.493
51063W        W24131  27.078   9.252   9.678
51064W        W24132   6.224  13.857   0.243
51065W        W24133  12.204  32.946  11.280
51066W        W24134  28.923  13.325   2.655
51067W        W24135   0.527  35.174  10.509
51068W        W24136  31.651  28.216   1.696
51069W        W24137  12.213  42.201  14.040
51070W        W24138   2.426  24.276   1.321
51071W        W24139   8.032  12.535  13.537
51072W        W24140  31.694  27.941  13.014
51073W        W24141  14.249  18.248  11.371
51074W        W24142  13.656  30.935   4.803
51075W        W24143  43.865  29.139   0.915
51076W        W24144  44.253   4.476   5.183
51077W        W24145   2.888   6.670   0.480
51078W        W24146   7.359  29.191   4.258
51079W        W24147  39.617  33.624  13.037
51080W        W24148  13.801  21.651  10.940
51081W        W24149  23.452  33.896  11.294
51082W        W24150  27.991  36.527  11.601
51083W        W24151  30.965  14.629  10.821
51084W        W24152  39.486  16.325  12.159
51085W        W24153  21.227  24.284  12.601
51086W        W24154  38.818  11.121   1.396
51087W        W24155  40.975  35.847   3.462
51088W        W24156  36.042  13.819   1.027
51089W        W24157  34.849   9.636  11.054
51090W        W24158   4.644   0.970  10.814
51091W        W24159  17.083  36.547   2.902
51092W        W24160  27.619  40.846  14.246
51093W        W24161  41.937  17.108   1.741
51094W        W24162  33.108  12.781  14.201
51095W        W24163   8.334  17.319  14.305
51096W        W24164  21.284  21.588   3.102
51097W        W24165  18.576  32.368  13.345
51098W        W24166  28.158   2.427   1.116
51099W        W24167  34.061  20.257  12.385
51100W        W24168  17.011  40.888  14.917
51101W        W24169  28.946  44.153  13.496
51102W        W24170  33.954  28.178   1.326
51103W        W24171   8.717   1.998  11.690
51104W        W24172   1.688  18.283   3.652
51105W        W24173  27.696   0.449   1.755
51106W        W24174   5.362   1.808   3.163
51107W        W24175  29.117   5.679  12.982
51108W        W24176  19.227  13.746  12.045
51109W        W24177  37.479  13.080   2.336
51110W        W24178  31.482   7.166  11.121
51111W        W24179   4.519   1.713  13.047
51112W        W24180   4.800  15.158   1.338
51113W        W24181  32.629   7.840   0.203
51114W        W24182   5.340  41.073  14.803
51115W        W24183  33.722   0.201  10.921
51116W        W24184  36.879  15.095  13.577
51117W        W24185  39.754  27.501  11.237
51118W        W24186  38.035   2.394   1.463
51119W        W24187  34.843  37.773   0.622
51120W        W24188   6.218  27.548   4.107
51121W        W24189  30.498   3.461   1.866
51122W        W24190  14.441   5.401   1.899
51123W        W24191  33.129   3.819  13.653
51124W        W24192  30.092  11.562   2.904
51125W        W24193  10.195  12.848   3.289
51126W        W24194  43.072  13.287  13.419
51127W        W24195  39.256  44.491  12.959
51128W        W24196  15.620  21.868   4.513
51129W        W24197  44.483  16.078   4.753
51130W        W24198  35.380  11.453   0.330
51131W        W24199  23.659  18.799   2.375
51132W        W24200  33.062   8.313   3.289
51133W        W24201   2.546  40.910   0.544
51134W        W24202  28.051  19.307  12.982
51135W        W24203  11.880  12.749   4.195
51136W        W24204  35.020  29.495  14.542
51137W        W24205  33.081  31.705  14.007
51138W        W24206  34.206  29.042  10.628
51139W        W24207  22.717  29.697  12.452
51140W        W24208  34.425  32.347   3.260
51141W        W24209   1.776  43.797   3.898
51142W        W24210  33.887  31.179  11.861
51143W        W24211  23.452  31.292  14.852
51144W        W24212  31.380   8.915   3.218
51145W        W24213   4.423  42.018  12.630
51146W        W24214  16.773  24.226   3.628
51147W        W24215  23.646  10.971  11.209
51148W        W24216  32.316   7.851  12.483
51149W        W24217  40.493   9.474   1.254
51150W        W24218  24.107   6.547   5.047
51151W        W24219   9.824  18.681  14.883
51152W        W24220  40.747  24.424   1.821
51153W        W24221   9.080   1.497   3.301
51154W        W24222   2.982  37.470   2.778
51155W        W24223  28.700  28.050  11.024
51156W        W24224  41.841   2.681  11.495
51157W        W24225  24.613  19.040  11.469
51158W        W24226  40.297  42.348  12.471
51159W        W24227  38.998  20.566  12.146
51160W        W24228   0.556   9.314   0.953
51161W        W24229  29.591  32.018  12.538
51162W        W24230  23.755  24.520   3.776
51163W        W24231  41.466  40.876  12.435
51164W        W24232  32.054  11.276  11.661
51165W        W24233   6.648  22.100  12.484
51166W        W24234  29.748  32.324   1.211
51167W        W24235  34.432   0.863   2.671
51168W        W24236  11.274  39.910  12.119
51169W        W24237  26.292  27.481  11.589
51170W        W24238  34.861  27.031   3.128
51171W        W24239   2.783  28.620  12.323
51172W        W24240  12.339  26.429  11.957
51173W        W24241  19.010  31.382   2.710
51174W        W24242   3.334   2.325   4.392
51175W        W24243  19.690  40.411  11.167
51176W        W24244  43.531  19.531   0.273
51177W        W24245   0.704  10.370  14.516
51178W        W24246   9.737  16.527  11.567
51179W        W24247  40.255  36.609  12.525
51180W        W24248   8.811  36.680  13.519
51181W        W24249  12.586  15.148  13.247
51182W        W24250   4.545  37.090   0.833
51183W        W24251  34.526  25.339   1.215
51184W        W24252  33.352  34.648  12.566
51185W        W24253   6.222  12.587   3.188
51186W        W24254  14.107  23.741   3.071
51187W        W24255  24.345  35.587  14.244
51188W        W24256  41.840  41.631  14.786
51189W        W24257  13.201  27.889  12.897
51190W        W24258  40.015  15.811  11.903
51191W        W24259  31.805   3.407  13.428
51192W        W24260  21.649  39.853  14.143
51193W        W24261  41.413  25.954   4.077
51194W        W24262  17.740  20.438   3.672
51195W        W24263  35.970   3.462  12.813
51196W        W24264  31.487  35.918   0.081
51197W        W24265  11.053   7.888  13.014
51198W        W24266   7.545  25.028  12.009
51199W        W24267  32.399  43.307  10.996
51200W        W24268   9.987  33.547   2.656
51201W        W24269   7.319  23.917   4.399
51202W        W24270  43.639   7.063   5.093
51203W        W24271  37.315  27.433   0.722
51204W        W24272  30.542  34.197   1.789
51205W        W24273   5.324   2.849   1.841
51206W        W24274  43.761  41.135   2.294
51207W        W24275  43.427  16.876   1.721
51208W        W24276   9.752  28.319   1.424
51209W        W24277  44.571  27.084  12.328
51210W        W24278  37.968  37.624  13.235
51211W        W24279  14.571  29.878  13.336
51212W        W24280  28.659  21.462  12.505
51213W        W24281  18.258   2.172  14.850
51214W        W24282  32.396  31.980  14.031
51215W        W24283  17.295  44.485   4.036
51216W        W24284  38.097  37.942  11.215
51217W        W24285  44.420   6.263  12.994
51218W        W24286  25.650  26.848   4.614
51219W        W24287  14.144  16.666   3.175
51220W        W24288   6.397  28.011   2.122
51221W        W24289  16.620  31.316  13.997
51222W        W24290  35.712  24.506   3.555
51223W        W24291  19.978  21.366   4.148
51224W        W24292  21.742   9.642   2.242
51225W        W24293  42.488   1.454  11.977
51226W        W24294  32.911  23.680  12.611
51227W        W24295  30.548  29.207   4.138
51228W        W24296  40.346  13.210   3.802
51229W        W24297  22.299  38.756  14.489
51230W        W24298  42.902  10.235  11.467
51231W        W24299  35.574  34.092   3.642
51232W        W24300  12.304   1.034  11.132
51233W        W24301  20.243  12.100  11.263
51234W        W24302  22.174  20.666  13.554
51235W        W24303  42.124  41.059  12.997
51236W        W24304   3.384  39.893  14.777
51237W        W24305  31.180  34.018   2.330
51238W        W24306  17.604  24.209  13.810
51239W        W24307  40.590   5.846   1.461
51240W        W24308  36.542  18.603  11.478
51241W        W24309  20.625  43.759  13.711
51242W        W24310  26.144  38.044  13.117
51243W        W24311  43.781  43.789   2.782
51244W        W24312   3.359  26.467   3.675
51245W        W24313  22.783  25.451   9.872
51246W        W24314  11.146  31.950   5.021
51247W        W24315  20.550  30.418   2.315
51248W        W24316  39.591  23.288   0.446
51249W        W24317  42.605  11.145   4.744
51250W        W24318  12.546   8.874   3.354
51251W        W24319  28.292  36.493  13.310
51252W        W24320  28.734   1.262  12.691
51253W        W24321  30.496   9.551   3.752
51254W        W24322   8.632   9.950  11.154
51255W        W24323  44.237   5.384   2.755
51256W        W24324  43.880  11.665  11.575
51257W        W24325   2.819  42.346   1.519
51258W        W24326  23.465  24.764   3.413
51259W        W24327  35.658  38.473  12.516
51260W        W24328  19.721  19.171   1.625
51261W        W24329  15.734  33.799   2.725
51262W        W24330  17.206  31.382  12.499
51263W        W24331   3.388  34.421  10.732
51264W        W24332  42.810  16.096  12.031
51265W        W24333  38.805  11.437   3.567
51266W        W24334  43.446   3.806  13.343
51267W        W24335  12.340  34.509  13.083
51268W        W24336  25.491  13.142  11.678
51269W        W24337   3.279   5.381   4.281
51270W        W24338   3.761   4.838   9.856
51271W        W24339  30.503  37.365  13.954
51272W        W24340   3.220  23.900   2.638
51273W        W24341  39.226  18.220   9.921
51274W        W24342  22.078  14.807  13.032
51275W        W24343   1.327  17.890  13.901
51276W        W24344  11.139  44.267  12.883
51277W        W24345  22.416  11.697  11.579
51278W        W24346  33.394  35.922   3.901
51279W        W24347  34.142   5.441   2.244
51280W        W24348  19.233  38.883   4.735
51281W        W24349  37.991  11.554  12.913
51282W        W24350  27.555   5.648  10.711
51283W        W24351  25.409  39.928   2.708
51284W        W24352  38.363   0.902   4.206
51285W        W24353  42.077  34.358  14.787
51286W        W24354  30.685  44.573  14.507
51287W        W24355  17.334  10.716  11.081
51288W        W24356  24.668  37.444   4.182
51289W        W24357  29.677  34.649   1.628
51290W        W24358  41.408  10.278   1.716
51291W        W24359   1.714   9.420  11.070
51292W        W24360  21.567  19.278   2.203
51293W        W24361  26.619  39.588  13.896
51294W        W24362  26.542  30.604   0.264
51295W        W24363  20.057  15.867  12.827
51296W        W24364   6.302  15.320   0.846
51297W        W24365  43.270  19.606  13.419
51298W        W24366  21.932   2.141  12.304
51299W        W24367   0.124  22.160  12.444
51300W        W24368   1.912  21.991   1.434
51301W        W24369  28.083  24.747   4.867
51302W        W24370  28.460  33.518   0.720
51303W        W24371   7.457  11.913  12.134
51304W        W24372   6.134  36.542   2.138
51305W        W24373  34.669  13.931   4.161
51306W        W24374  16.362  13.354  13.978
51307W        W24375  16.360  43.255  14.397
51308W        W24376   7.939  28.025   4.591
51309W        W24377   7.759  11.661  14.376
51310W        W24378  22.629  33.057  13.963
51311W        W24379  14.092  19.852   0.906
51312W        W24380  21.357  23.615   4.625
51313W        W24381  31.919  20.677  14.983
51314W        W24382   1.607   0.853  12.785
51315W        W24383  15.029   0.344   3.929
51316W        W24384  27.104  14.401  12.491
51317W        W24385  44.263  17.801   2.150
51318W        W24386  30.624  14.126   1.227
51319W        W24387  35.582  21.332   4.058
51320W        W24388   2.437  20.591  11.226
51321W        W24389  44.424   2.636  13.373
51322W        W24390  36.850  38.044   4.055
51323W        W24391  34.742  41.965   4.894
51324W        W24392  15.266  17.132  10.400
51325W        W24393  42.201  43.039  10.724
51326W        W24394   5.591  22.719  11.606
51327W        W24395  29.438  35.467   1.361
51328W        W24396  22.125   7.238   3.244
51329W        W24397  25.987  18.116   2.280
51330W        W24398  43.643   2.249   0.476
51331W        W24399   0.174  38.857   2.694
51332W        W24400  27.818   9.951  14.368
51333W        W24401  30.062  44.912  13.644
51334W        W24402  33.369  21.010   1.842
51335W        W24403  15.164  21.700  11.664
51336W        W24404  44.996  38.528   0.001
51337W        W24405  27.270   8.237  10.811
51338W        W24406  14.700  26.727   2.451
51339W        W24407  43.246   4.936   2.350
51340W        W24408  35.088   2.917  14.909
51341W        W24409  27.667  32.068   2.765
51342W        W24410  20.531  28.239   0.329
51343W        W24411   1.557   8.356   2.865
51344W        W24412  25.979  31.192   2.190
51345W        W24413  24.066   0.116   4.124
51346W        W24414  20.671  27.177   4.172
51347W        W24415  39.871  17.065  14.941
51348W        W24416  44.457   5.720   0.249
51349W        W24417  20.769   0.071   4.096
51350W        W24418  28.991  18.255  11.562
51351W        W24419   8.207  30.963   3.652
51352W        W24420  30.236   1.305   1.821
51353W        W24421  34.183  28.646   3.667
51354W        W24422  22.717  28.608   0.256
51355W        W24423  19.115  32.538  13.287
51356W        W24424   7.419   1.414  14.980
51357W        W24425  22.543  19.929  11.495
51358W        W24426  30.267  15.714   4.411
51359W        W24427   8.312  36.383   0.742
51360W        W24428  34.995  32.926   5.013
51361W        W24429  15.549  24.089  12.604
51362W        W24430  29.091  29.324  14.210
51363W        W24431  25.888  40.838   2.735
51364W        W24432  31.786  20.533  13.369
51365W        W24433  21.161  42.360  14.674
51366W        W24434  20.656  44.370   3.671
51367W        W24435  38.241  16.048  13.742
51368W        W24436  38.921  25.064  10.351
51369W        W24437  33.640  19.623  13.833
51370W        W24438  29.545  27.896   3.278
51371W        W24439  31.082  13.895   4.250
51372W        W24440  16.075  11.380   0.859
51373W        W24441  38.385  17.438   0.681
51374W        W24442  11.571  15.052   0.428
51375W        W24443  16.323   1.528  14.758
51376W        W24444   5.443  13.509   0.377
51377W        W24445  39.795  16.944   3.707
51378W        W24446  27.647   2.309  14.893
51379W        W24447  28.140  16.181  11.864
51380W        W24448  31.458  42.820   4.888
51381W        W24449  37.223   1.352   4.571
51382W        W24450  10.979  11.071   4.191
51383W        W24451  28.736   4.365   3.752
51384W        W24452  16.139  31.974   1.269
51385W        W24453  25.382  11.566  11.453
51386W        W24454  37.573  13.850   0.989
51387W        W24455  23.011  41.964  12.513
51388W        W24456   2.060   5.225  12.255
51389W        W24457  29.330   5.450  13.431
51390W        W24458   9.929  20.656   1.813
51391W        W24459   8.666  31.556  10.890
51392W        W24460   7.328  32.574  10.764
51393W        W24461  22.670  34.969  13.449
51394W        W24462  26.919  18.192  13.780
51395W        W24463  42.295   1.044  10.867
51396W        W24464  12.445  44.356  13.128
51397W        W24465   3.348  44.514  12.401
51398W        W24466  27.101  39.151  11.206
51399W        W24467  20.078  13.600   1.978
51400W        W24468  33.136   5.231   3.179
51401W        W24469  12.180   2.042  13.257
51402W        W24470  25.027   1.181  14.962
51403W        W24471  23.623   9.674   1.279
51404W        W24472  41.610  40.189   1.409
51405W        W24473  18.780   1.314   2.559
51406W        W24474  15.762  34.320   2.700
51407W        W24475  36.827  10.338   4.331
51408W        W24476  24.703  44.704  14.331
51409W        W24477  12.177  25.218   2.793
51410W        W24478  38.353  39.718  14.989
51411W        W24479  17.007  10.356   4.520
51412W        W24480  12.353  36.465   1.318
51413W        W24481  15.414  19.814   0.932
51414W        W24482  36.409  12.174   2.860
51415W        W24483   5.640  17.729  12.668
51416W        W24484   3.201  43.760   1.223
51417W        W24485  11.840  19.319  14.039
51418W        W24486  30.081  22.469  11.205
51419W        W24487  28.215   2.957   2.841
51420W        W24488  42.031  38.870  13.470
51421W        W24489  30.645  40.912  13.544
51422W        W24490  42.245  37.547  13.269
51423W        W24491  37.775   5.763   3.332
51424W        W24492   3.331   9.416  12.629
51425W        W24493   2.535  32.501   3.892
51426W        W24494  36.055  39.499  10.970
51427W        W24495   3.927  33.981  12.945
51428W        W24496  11.857  42.229  12.562
51429W        W24497  43.660  11.136   3.238
51430W        W24498  22.252   6.220  14.337
51431W        W24499  30.790  38.512   4.782
51432W        W24500  43.271  19.503   3.659
51433W        W24501  24.609  15.248   0.804
51434W        W24502  28.023   7.790  14.988
51435W        W24503  33.276  24.172   3.735
51436W        W24504  11.287  15.753  10.930
51437W        W24505  22.065  37.162   1.414
51438W        W24506  32.111  37.772   2.667
51439W        W24507  33.668  35.512   2.728
51440W        W24508  14.482  11.324  12.898
51441W        W24509  30.696  24.459   5.084
51442W        W24510  37.616  11.508  10.162
51443W        W24511  37.056  11.685  14.819
51444W        W24512  33.473  36.261   5.084
51445W        W24513  35.381   7.134  14.734
51446W        W24514   2.994  34.436   2.760
51447W        W24515  16.641  28.506  13.611
51448W        W24516  19.543  13.698   4.876
51449W        W24517  21.317  22.049  12.686
51450W        W24518  43.734   3.529   0.700
51451W        W24519  29.550   0.680   4.301
51452W        W24520  40.810   3.387   2.668
51453W        W24521  23.763  29.951   3.175
51454W        W24522  38.872  21.510   1.198
51455W        W24523  24.565  18.118  12.561
51456W        W24524  25.115  11.933   1.177
51457W        W24525  39.844  14.876   1.840
51458W        W24526   7.315  38.584   0.768
51459W        W24527  40.067  44.013   1.845
51460W        W24528  22.655   7.734  13.930
51461W        W24529   6.822  20.498  12.033
51462W        W24530  21.820  37.072  14.036
51463W        W24531   6.169  34.836   3.737
51464W        W24532   4.997   8.654   4.540
51465W        W24533  25.058  41.341  14.409
51466W        W24534  31.628  41.595   2.599
51467W        W24535   7.363   0.262  14.306
51468W        W24536   6.028   4.261   1.025
51469W        W24537  37.797  38.985   1.711
51470W        W24538  42.917  23.479   0.485
51471W        W24539  29.722  12.086  12.471
51472W        W24540  26.500  38.596  13.853
51473W        W24541  33.054  12.707   1.147
51474W        W24542  42.380   5.626   4.249
51475W        W24543   8.811  31.814  11.347
51476W        W24544  26.241  13.368  11.130
51477W        W24545  32.256  41.930  12.077
51478W        W24546  40.876  17.868   4.344
51479W        W24547   8.760  19.027  11.139
51480W        W24548  18.671  33.095  14.359
51481W        W24549  27.048  34.380   3.864
51482W        W24550  16.056  29.192   0.028
51483W        W24551  36.746  27.739   1.993
51484W        W24552   1.643   5.314   3.613
51485W        W24553   8.432  13.029   2.374
51486W        W24554  39.540  42.042   1.241
51487W        W24555  38.272  39.194   1.808
51488W        W24556  23.645  14.208   3.740
51489W        W24557  13.202  30.935  12.971
51490W        W24558  18.545  20.547  14.393
51491W        W24559  43.586  28.029   0.496
51492W        W24560  15.032   0.140   4.557
51493W        W24561  44.371   6.179   2.325
51494W        W24562  20.231  27.952  10.320
51495W        W24563  10.703  22.951  12.044
51496W        W24564   3.656   0.721   3.202
51497W        W24565   5.419  18.875   4.704
51498W        W24566   2.402   8.959  12.630
51499W        W24567  24.731  42.400   1.941
51500W        W24568  36.976   4.915  12.160
51501W        W24569  11.091  29.927  13.525
51502W        W24570   2.797  22.901   4.617
51503W        W24571  26.424  18.704   1.175
51504W        W24572  41.978  12.585   3.136
51505W        W24573  27.526  16.153  13.883
51506W        W24574  35.566   5.497  14.501
51507W        W24575  39.333  37.072   2.723
51508W        W24576  41.771  18.570  12.869
51509W        W24577   7.355   7.177   4.507
51510W        W24578   4.409  39.802  12.531
51511W        W24579  30.148  39.777   1.465
51512W        W24580  37.558   3.823  14.787
51513W        W24581  30.010   7.688  14.550
51514W        W24582  15.711  37.338   3.191
51515W        W24583  14.304  19.138   4.822
51516W        W24584  44.513   7.938  11.516
51517W        W24585  11.889   5.836  12.337
51518W        W24586  13.651  29.987   1.409
51519W        W24587   4.721  12.377   0.958
51520W        W24588  28.277  16.684  11.893
51521W        W24589  36.548  16.920   1.141
51522W        W24590  32.527  22.086   2.832
51523W        W24591  39.448  36.451  12.768
51524W        W24592  21.179  30.871   0.871
51525W        W24593  16.375   8.651   2.225
51526W        W24594  26.711  25.040  14.998
51527W        W24595   6.641  44.623   3.179
51528W        W24596   3.449  21.759   0.084
51529W        W24597  19.485  42.979  11.636
51530W        W24598  31.916  44.494  11.012
51531W        W24599  32.667  40.858  14.901
51532W        W24600  22.014   8.007   3.911
51533W        W24601  27.154  12.606   1.957
51534W        W24602  32.049   4.516   3.774
51535W        W24603  18.605   5.885  14.397
51536W        W24604  11.826   5.759   0.890
51537W        W24605  10.725   1.154  14.326
51538W        W24606  37.642  13.197   4.854
51539W        W24607  42.996  12.654   1.217
51540W        W24608   7.416  36.560  11.505
51541W        W24609  26.268  40.522   4.320
51542W        W24610  40.909  40.736  11.712
51543W        W24611  35.596  40.208  12.032
51544W        W24612   2.427   9.158  14.414
51545W        W24613  35.044  37.415  10.125
51546W        W24614   0.010  29.374   3.115
51547W        W24615  26.165   0.978   4.571
51548W        W24616  11.343  40.917   4.011
51549W        W24617  40.485  17.726  12.980
51550W        W24618  17.709   5.917   4.723
51551W        W24619   0.278  15.191   0.498
51552W        W24620  31.380  18.573  14.465
51553W        W24621  40.194  29.168   2.414
51554W        W24622  40.857   5.673   1.015
51555W        W24623  17.488  40.903   1.139
51556W        W24624   0.678  31.625  11.203
51557W        W24625   6.207  28.429   1.145
51558W        W24626   0.210  23.568   3.245
51559W        W24627  38.938  26.993  14.673
51560W        W24628  39.507  13.747   3.298
51561W        W24629  43.466  11.917   2.920
51562W        W24630  25.966  43.441   2.410
51563W        W24631  10.889  19.653  13.341
51564W        W24632  29.115  38.532  13.807
51565W        W24633  25.437  28.111   4.773
51566W        W24634  26.531  27.130  13.324
51567W        W24635  12.392  38.500  14.702
51568W        W24636   7.384  41.452   5.129
51569W        W24637  38.747  42.371  12.477
51570W        W24638  25.206  19.843  10.459
51571W        W24639  13.273   9.252  11.266
51572W        W24640  18.769   6.674   4.129
51573W        W24641  16.313  18.397  13.447
51574W        W24642  40.879  25.699  12.193
51575W        W24643  35.354  10.905   0.616
51576W        W24644  39.960  15.739   3.215
51577W        W24645  37.530   9.797  12.891
51578W        W24646  43.326   8.933   4.331
51579W        W24647  42.800  22.300  11.204
51580W        W24648  39.038  36.923   4.573
51581W        W24649  12.844   3.461  13.404
51582W        W24650   8.464  30.039  13.378
51583W        W24651  33.441  24.997  12.887
51584W        W24652   9.846  20.157   2.097
51585W        W24653  29.498  32.941  12.177
51586W        W24654  13.355  36.071  11.399
51587W        W24655  40.676  15.551   4.966
51588W        W24656  44.437  25.245   4.684
51589W        W24657  30.602  26.220   0.132
51590W        W24658  31.644   3.696   3.794
51591W        W24659  41.217  28.417  14.756
51592W        W24660  42.757  43.206  13.329
51593W        W24661   4.244  34.118  14.855
51594W        W24662  11.307  16.823   2.685
51595W        W24663  38.048   9.104  13.539
51596W        W24664  41.298  44.457   2.228
51597W        W24665  18.793  41.860   4.603
51598W        W24666  25.779  29.124   0.856
51599W        W24667  10.696  43.723  12.510
51600W        W24668  12.559   2.863  11.349
51601W        W24669  43.355  17.283  10.547
51602W        W24670  28.477   9.226  13.609
51603W        W24671  35.839  38.792   0.866
51604W        W24672  25.314  32.174   1.512
51605W        W24673  35.862   2.977  12.943
51606W        W24674   5.937  15.161  13.561
51607W        W24675  32.648  24.515   1.334
51608W        W24676  21.616  14.072   2.358
51609W        W24677  12.284   3.176  12.512
51610W        W24678  11.699  13.849   3.209
51611W        W24679  26.585   5.295   4.555
51612W        W24680  36.584  22.589   0.911
51613W        W24681  13.149  43.793  12.311
51614W        W24682  26.074  23.329   3.237
51615W        W24683  36.074  36.611  11.826
51616W        W24684  12.724  32.423   1.859
51617W        W24685  16.050   9.982  11.105
51618W        W24686   4.283  25.215   3.307
51619W        W24687  40.850  13.824   1.735
51620W        W24688   1.749  12.749   2.804
51621W        W24689  35.189  18.500   3.723
51622W        W24690  36.682  20.215  14.593
51623W        W24691  43.765  12.336   2.790
51624W        W24692  27.473  18.023   3.159
51625W        W24693  31.026  41.010  14.004
51626W        W24694  12.065  19.045   0.885
51627W        W24695   4.824  25.542   4.200
51628W        W24696  36.531  29.881   1.286
51629W        W24697  22.518   0.850  11.489
51630W        W24698  16.171   3.423   1.361
51631W        W24699  23.214  41.905   0.315
51632W        W24700  16.881  40.853   3.760
51633W        W24701  25.328   6.705  11.386
51634W        W24702  34.433  34.871   4.748
51635W        W24703  16.152  12.907   0.908
51636W        W24704   6.003  39.381  11.480
51637W        W24705  42.827  43.141  14.755
51638W        W24706  29.660   5.475   4.718
51639W        W24707  36.786   2.944  13.030
51640W        W24708  39.028  34.826  13.024
51641W        W24709   1.483  29.793   4.082
51642W        W24710   8.610  44.324  12.582
51643W        W24711  42.231  24.413   2.924
51644W        W24712  19.332  14.170   3.801
51645W        W24713   0.138  42.994  11.871
51646W        W24714  12.163  36.951  13.491
51647W        W24715  20.933  41.941   0.425
51648W        W24716   5.432   9.929  11.458
51649W        W24717  15.989  12.913  11.071
51650W        W24718  15.909  40.879   4.605
51651W        W24719  16.756  26.110  10.817
51652W        W24720   3.342   5.126  10.702
51653W        W24721  39.579   6.344  10.763
51654W        W24722  19.041   7.266  11.589
51655W        W24723  31.840  26.503   4.039
51656W        W24724  44.206  37.980   4.522
51657W        W24725   1.016  13.340  11.464
51658W        W24726  32.891  12.340  11.531
51659W        W24727  39.096   7.567   1.768
51660W        W24728  19.542  31.033  12.461
51661W        W24729  32.715  41.317   3.555
51662W        W24730  29.065  32.629  12.896
51663W        W24731  42.078  12.585   0.451
51664W        W24732  29.373  12.743  14.556
51665W        W24733   8.173   2.371  11.256
51666W        W24734  40.816  13.145   0.434
51667W        W24735  17.300   7.213  14.378
51668W        W24736   4.529  34.007  14.408
51669W        W24737  12.580  11.785   2.349
51670W        W24738  32.495  17.414  10.788
51671W        W24739  39.940  40.454  11.628
51672W        W24740   7.260  31.806  13.800
51673W        W24741  41.153  41.094   2.385
51674W        W24742  32.633  28.525  12.659
51675W        W24743   8.845  40.847  12.933
51676W        W24744  26.161  41.329   4.003
51677W        W24745  19.245  16.617   4.852
51678W        W24746  12.259  35.018  12.307
51679W        W24747   9.091   1.516  13.515
51680W        W24748  20.242  33.449   4.085
51681W        W24749   6.176  43.570   4.334
51682W        W24750  39.341  15.248  11.118
51683W        W24751   8.734  16.090  13.560
51684W        W24752  25.179   4.961   4.028
51685W        W24753  15.244   3.800  12.132
51686W        W24754  20.479  24.524  13.454
51687W        W24755   9.383  36.457  14.851
51688W        W24756  19.849  23.254   1.861
51689W        W24757  25.659  31.840  13.861
51690W        W24758  22.451  13.036   3.236
51691W        W24759  26.460  36.422   0.774
51692W        W24760  13.545  11.575   2.159
51693W        W24761  42.084  17.804  11.114
51694W        W24762  25.249  37.917   0.763
51695W        W24763   8.756  35.270  14.821
51696W        W24764  10.154  18.047  14.522
51697W        W24765  20.992   5.424   1.218
51698W        W24766  26.184  24.190  11.834
51699W        W24767  28.466  22.168   2.672
51700W        W24768   4.563   7.001  11.650
51701W        W24769  43.830  34.054   0.320
51702W        W24770  10.812   2.913   3.165
51703W        W24771  40.718  25.895  14.414
51704W        W24772  17.637   3.445  10.632
51705W        W24773  12.813  28.608  12.568
51706W        W24774   3.163  37.496   4.576
51707W        W24775  23.998  37.318   2.918
51708W        W24776  21.305  13.406  13.805
51709W        W24777  27.449  35.784   3.773
51710W        W24778   8.244   6.709   0.067
51711W        W24779  45.000  16.065   2.116
51712W        W24780  12.737  14.385   1.832
51713W        W24781  10.033  13.870   2.366
51714W        W24782  18.497  22.217  13.812
51715W        W24783  24.541  23.242  12.899
51716W        W24784   4.794  21.421   4.889
51717W        W24785  33.634  27.395  14.402
51718W        W24786  31.332   1.412  10.900
51719W        W24787  42.802   9.307   2.665
51720W        W24788  35.915  14.528   2.288
51721W        W24789  28.052  10.022   1.062
51722W        W24790  19.625  24.136  12.403
51723W        W24791  25.869  26.680  13.373
51724W        W24792  28.153   7.813   2.064
51725W        W24793  41.557  36.269  14.494
51726W        W24794  28.481   8.905   1.908
51727W        W24795   3.350  28.932   3.695
51728W        W24796  24.696  13.867   1.955
51729W        W24797  12.076  31.568   3.338
51730W        W24798  27.071  19.570  13.804
51731W        W24799  17.488  11.581  13.918
51732W        W24800   9.872  16.947   4.988
51733W        W24801  22.325  23.145  14.453
51734W        W24802  16.252  15.012   0.567
51735W        W24803  41.268  23.906  13.831
51736W        W24804  20.603  37.473   3.599
51737W        W24805  14.537  17.157  12.474
51738W        W24806  29.735  17.071  11.936
51739W        W24807   3.372  44.457   2.053
51740W        W24808  11.111  22.223   3.147
51741W        W24809  24.138  22.984   1.818
51742W        W24810  42.572  20.630  11.539
51743W        W24811   3.729  12.697   2.245
51744W        W24812  44.875   6.088  14.873
51745W        W24813  35.084  41.571  14.680
51746W        W24814  29.658  25.453  13.073
51747W        W24815   4.930  18.251  11.765
51748W        W24816  24.909  25.274   0.397
51749W        W24817  22.497  42.381   4.407
51750W        W24818   4.337  30.628   4.331
51751W        W24819   6.794  15.703   9.974
51752W        W24820  37.604  27.465  11.716
51753W        W24821  30.417  43.511  10.514
51754W        W24822  43.028   4.954   1.685
51755W        W24823  20.183   0.766  14.448
51756W        W24824  44.363  29.500  14.768
51757W        W24825  22.318  10.302   4.138
51758W        W24826  20.133  18.669  12.131
51759W        W24827  21.240  23.900   1.221
51760W        W24828  26.011  12.599  12.581
51761W        W24829  34.451  15.369  13.069
51762W        W24830  32.129   6.128  11.275
51763W        W24831  28.104  31.399   1.398
51764W        W24832  21.898  11.340   0.981
51765W        W24833  37.319  13.348  10.952
51766W        W24834  36.348  10.877   1.436
51767W        W24835  15.004  28.434   1.346
51768W        W24836  31.217   5.389  12.503
51769W        W24837   8.632   7.098   3.732
51770W        W24838  20.731  18.063  11.977
51771W        W24839  37.621  38.461  11.968
51772W        W24840  31.973  14.507   0.361
51773W        W24841   1.010  26.093   1.774
51774W        W24842  36.111  35.565  14.298
51775W        W24843  22.612   5.095  13.385
51776W        W24844  18.174  28.642  11.908
51777W        W24845  32.944  33.450   2.403
51778W        W24846  41.271  30.659   4.113
51779W        W24847   3.194  39.962   1.753
51780W        W24848  19.037   8.122   0.572
51781W        W24849  19.166   1.920  11.555
51782W        W24850  20.825  21.162  12.954
51783W        W24851  40.927  12.632   1.608
51784W        W24852  41.916  13.785   5.548
51785W        W24853  17.490   7.880   4.104
51786W        W24854  28.624   3.009   0.776
51787W        W24855  40.343  22.927   1.253
51788W        W24856  23.568  24.217   4.181
51789W        W24857   1.611  22.786   0.980
51790W        W24858  43.712   7.289   0.721
51791W        W24859  24.665  35.034   2.708
51792W        W24860  19.160  43.843   2.896
51793W        W24861  29.657  33.808  13.971
51794W        W24862   3.676  11.716   3.737
51795W        W24863  38.402  11.813  11.446
51796W        W24864   1.747  41.794  12.873
51797W        W24865  21.352  10.107   5.314
51798W        W24866  16.103   9.300  11.482
51799W        W24867   1.455   6.663   0.840
51800W        W24868  15.061   8.766   3.109
51801W        W24869  44.531  36.223   1.377
51802W        W24870  19.196   0.890  13.405
51803W        W24871  36.488  41.323  14.405
51804W        W24872  29.079  36.605  10.676
51805W        W24873  24.685  29.178  10.758
51806W        W24874  15.941   6.532  13.772
51807W        W24875  36.380  26.480  11.406
51808W        W24876  38.781  29.500  13.785
51809W        W24877  35.614   1.265   1.760
51810W        W24878  31.388  19.504  14.331
51811W        W24879  44.390  43.621   2.856
51812W        W24880  19.377  36.436  11.991
51813W        W24881  16.854   1.398   0.452
51814W        W24882  33.612   9.396  11.449
51815W        W24883   6.631  39.979   0.987
51816W        W24884  30.053  30.074   3.171
51817W        W24885   3.713  39.742  13.481
51818W        W24886  19.094  26.264  13.813
51819W        W24887  23.034  35.357  11.389
51820W        W24888   9.221  39.900  10.663
51821W        W24889  30.128  20.469   1.451
51822W        W24890  17.680   0.111   3.657
51823W        W24891  40.992  14.209  13.434
51824W        W24892  35.334  20.907   3.838
51825W        W24893  29.911  41.899   2.920
51826W        W24894  38.298  35.074  11.524
51827W        W24895  24.707   5.726   0.527
51828W        W24896  20.549   2.076  13.890
51829W        W24897  17.262  38.012  13.845
51830W        W24898   3.261  20.868  14.879
51831W        W24899  29.947  37.657   1.864
51832W        W24900  25.689   0.330  11.187
51833W        W24901  40.262  13.699   2.836
51834W        W24902  40.939  26.401  10.247
51835W        W24903  32.325  23.680   2.223
51836W        W24904  31.738   1.931   1.216
51837W        W24905  32.544  19.307  12.054
51838W        W24906  42.992   5.812   4.733
51839W        W24907  29.507  29.211   1.017
51840W        W24908  37.850  17.976  13.703
51841W        W24909  44.626  34.904   3.598
51842W        W24910  44.327  33.146  14.399
51843W        W24911  10.403   7.703   2.680
51844W        W24912  26.425  22.332   1.298
51845W        W24913  43.915   5.742  12.009
51846W        W24914  29.883  30.141  12.326
51847W        W24915  24.023  36.972  13.957
51848W        W24916  19.557  20.161   2.298
51849W        W24917  13.367  13.634   0.990
51850W        W24918  30.600  26.526   1.721
51851W        W24919   7.193  14.807  13.147
51852W        W24920  30.467  35.515   3.853
51853W        W24921  10.112  35.894   3.842
51854W        W24922  28.967  11.898   5.180
51855W        W24923  15.051  38.587  11.547
51856W        W24924  19.599   5.376  11.532
51857W        W24925  19.948  13.655   4.553
51858W        W24926   8.794  29.826  11.627
51859W        W24927  17.040   9.350  11.729
51860W        W24928  41.309  29.640  11.787
51861W        W24929  27.437  14.214  13.436
51862W        W24930  21.802   2.874   5.152
51863W        W24931   8.257  19.503  11.649
51864W        W24932  29.694   6.303   2.822
51865W        W24933  32.601  38.166  11.815
51866W        W24934  10.032  37.381  13.334
51867W        W24935  34.578  24.957   2.372
51868W        W24936  27.149  25.713   1.228
51869W        W24937  20.729   8.586   3.779
51870W        W24938  37.787   9.706   1.554
51871W        W24939  35.142  41.349   2.236
51872W        W24940  16.866  33.664  12.574
51873W        W24941  17.191  35.818  14.883
51874W        W24942  44.730  14.801  12.561
51875W        W24943  17.367  30.945  10.735
51876W        W24944  26.976  16.103  13.081
51877W        W24945   9.342  18.569   2.810
51878W        W24946  28.694  42.336  13.660
51879W        W24947  37.831  44.427  14.861
51880W        W24948  18.248  19.527   1.314
51881W        W24949  14.763  26.245  11.506
51882W        W24950  26.122  10.943  11.191
51883W        W24951  17.818  26.175   3.109
51884W        W24952   4.164  35.106   1.348
51885W        W24953   5.869   5.700   2.738
51886W        W24954  37.417   6.112  12.422
51887W        W24955  25.220  14.080   2.376
51888W        W24956  36.112   7.332   2.255
51889W        W24957  37.118  36.896  13.841
51890W        W24958  36.727  12.816  11.171
51891W        W24959  10.318   9.144  12.574
51892W        W24960   6.832  18.481   0.858
51893W        W24961   4.218  18.575   2.286
51894W        W24962   4.761  42.267  14.891
51895W        W24963  22.989  35.497   1.878
51896W        W24964  41.543   1.753  12.537
51897W        W24965  41.243  29.103  14.372
51898W        W24966  40.794   5.739  13.239
51899W        W24967  19.243   9.478  12.391
51900W        W24968   5.493  44.157  13.313
51901W        W24969   9.745   5.435   0.860
51902W        W24970  20.945  44.044  13.388
51903W        W24971  29.640   8.646   0.421
51904W        W24972   8.587  18.015   3.184
51905W        W24973  28.001  20.210   1.794
51906W        W24974  26.349  22.705   3.612
51907W        W24975  33.930   1.862   1.229
51908W        W24976   4.341  25.360  11.705
51909W        W24977  29.935  25.151   2.082
51910W        W24978  40.777  11.364  12.009
51911W        W24979  39.781   8.823   2.267
51912W        W24980  28.731  12.279   4.915
51913W        W24981  19.078  36.913   4.279
51914W        W24982  33.158  23.817  13.510
51915W        W24983  28.484  17.348  11.231
51916W        W24984  40.981  30.859   1.438
51917W        W24985  24.175  30.625  14.774
51918W        W24986  44.157  12.336  11.616
51919W        W24987  13.175  13.448  13.257
51920W        W24988  20.661  32.530   0.950
51921W        W24989   1.745   3.811   3.827
51922W        W24990   9.875  11.111  11.599
51923W        W24991  27.215  43.596  11.615
51924W        W24992  34.017   4.806  10.718
51925W        W24993   5.319  16.265  13.778
51926W        W24994  19.170  21.100  14.934
51927W        W24995   3.724  16.748  11.502
51928W        W24996  38.585  33.022  11.737
51929W        W24997  23.490  20.619   2.910
51930W        W24998  11.689  43.928   3.065
51931W        W24999   1.013  42.951   2.759
51932W        W25000  28.156   0.477  12.041
51933W        W25001  21.581  42.274  10.859
51934W        W25002  30.018  30.839  10.679
51935W        W25003   8.166  29.441   3.824
51936W        W25004  39.408   5.357   4.725
51937W        W25005  16.139  10.760  13.011
51938W        W25006  23.976  21.901  11.623
51939W        W25007  11.847  35.947  10.703
51940W        W25008   3.505  13.442  11.208
51941W        W25009  31.139  12.002  13.461
51942W        W25010  21.723  17.533  13.906
51943W        W25011   6.781  15.580   1.175
51944W        W25012  27.537  43.991  14.790
51945W        W25013   4.359  37.405   3.793
51946W        W25014  23.191  38.320   2.057
51947W        W25015  21.165  22.575  12.328
51948W        W25016   1.471   6.856   2.708
51949W        W25017  42.684  22.652   1.929
51950W        W25018   5.611  18.569   1.308
51951W        W25019   5.333   8.169  12.270
51952W        W25020  24.619  32.542  13.360
51953W        W25021  29.974  21.558  14.466
51954W        W25022  31.656  22.561  10.883
51955W        W25023  32.907   8.819   3.218
51956W        W25024  40.271  26.957   0.934
51957W        W25025   8.430   4.675   1.322
51958W        W25026  18.102  26.728   1.314
51959W        W25027   8.228   2.980   3.792
51960W        W25028  18.969  41.365   4.516
51961W        W25029  26.660  37.615  14.799
51962W        W25030   1.442   1.241   2.413
51963W        W25031  20.585  19.874   0.861
51964W        W25032  42.893   8.941  11.832
51965W        W25033  12.176  16.375  13.287
51966W        W25034  24.821  18.211   0.559
51967W        W25035  14.351  16.678  11.728
51968W        W25036  12.190  13.368   1.281
51969W        W25037  21.713  21.459   2.375
51970W        W25038   2.193   2.277  13.991
51971W        W25039  32.823  17.850   3.287
51972W        W25040   1.432  17.916   2.911
51973W        W25041  38.358  20.503   1.712
51974W        W25042  18.138  16.722   0.902
51975W        W25043  44.309   6.789  14.919
51976W        W25044  43.892  27.682   1.406
51977W        W25045  34.128  26.585  14.049
51978W        W25046  39.699   6.207   0.379
51979W        W25047   9.842  10.878  12.548
51980W        W25048  23.658   8.942   2.580
51981W        W25049  19.028   6.742   3.680
51982W        W25050  34.319   4.870   3.710
51983W        W25051  26.000   5.704  10.726
51984W        W25052   9.397  14.689   2.155
51985W        W25053   7.955   2.996  13.461
51986W        W25054  38.421  22.644   4.814
51987W        W25055  17.101  18.781  10.541
51988W        W25056  17.103  36.041  13.396
51989W        W25057   8.718  24.251  11.538
51990W        W25058   5.402  42.752  12.158
51991W        W25059  44.863  35.703  14.126
51992W        W25060   9.278  33.632  10.733
51993W        W25061   5.819  43.855  12.445
51994W        W25062  17.885  16.644  12.613
51995W        W25063  17.835   0.485  14.333
51996W        W25064  38.561  43.331  11.325
51997W        W25065  18.736  15.165   4.613
51998W        W25066  20.706   5.798  10.427
51999W        W25067  18.128  16.484   3.966
52000W        W25068  26.616  18.793   0.251
52001W        W25069   1.317  19.523  13.966
52002W        W25070  22.559   9.740   3.092
52003W        W25071  31.486  44.278   3.836
52004W        W25072  40.291  19.623   2.130
52005W        W25073  25.183   5.450   4.185
52006W        W25074  33.653   7.400  13.893
52007W        W25075  36.560  36.619   3.129
52008W        W25076  38.327  25.037  11.021
52009W        W25077  23.179  37.505   2.504
52010W        W25078  29.366   1.416  12.855
52011W        W25079  32.645  20.248   2.052
52012W        W25080  25.817   4.914  14.951
52013W        W25081  42.277  43.906   0.734
52014W        W25082   8.165  26.112  11.559
52015W        W25083  36.450  28.375  10.980
52016W        W25084  20.859  19.740  13.869
52017W        W25085  24.075   3.634  12.445
52018W        W25086  41.907  41.374  10.747
52019W        W25087  20.342  41.868  13.293
52020W        W25088  38.909  24.484   4.769
52021W        W25089  43.928  11.358   3.644
52022W        W25090   6.944   8.466  13.561
52023W        W25091  14.708  21.079  12.459
52024W        W25092   6.133  14.701   4.904
52025W        W25093  24.949  43.985   3.757
52026W        W25094  34.884   1.519  14.770
52027W        W25095  41.525  13.743  13.906
52028W        W25096  36.281   4.931  12.856
52029W        W25097  39.524  35.085   3.758
52030W        W25098  32.622  42.549   5.090
52031W        W25099  12.189  40.388  11.185
52032W        W25100   2.357  21.098  13.503
52033W        W25101  33.343   7.141  11.074
52034W        W25102  31.288  43.806   1.620
52035W        W25103  43.097  24.482  12.484
52036W        W25104  25.065  32.607  12.318
52037W        W25105  36.572  24.664   2.778
52038W        W25106  33.180  25.479   0.798
52039W        W25107   2.371  35.200   0.931
52040W        W25108  36.492  20.810  11.703
52041W        W25109   5.438  14.397  11.863
52042W        W25110  14.380  29.186   3.690
52043W        W25111  26.194  38.102   0.963
52044W        W25112  13.820  10.961   0.948
52045W        W25113  32.627  12.813   0.753
52046W        W25114  19.259   5.645   4.230
52047W        W25115  36.883  25.771   4.120
52048W        W25116  15.759  19.568   3.312
52049W        W25117  24.219  41.602   3.564
52050W        W25118  15.342   4.105   1.851
52051W        W25119  34.033  23.667  12.136
52052W        W25120  44.905   6.275  10.667
52053W        W25121  28.923  40.526  14.809
52054W        W25122   6.664  39.096  11.042
52055W        W25123  16.567  42.496   4.588
52056W        W25124  39.525  18.761  14.762
52057W        W25125  36.024   7.656  11.905
52058W        W25126  26.473   5.339  12.077
52059W        W25127  11.281  21.232  14.499
52060W        W25128  32.161  26.137   4.219
52061W        W25129  34.664  27.981   2.614
52062W        W25130  20.832  31.411   4.094
52063W        W25131  38.557  15.320  13.374
52064W        W25132  11.199  23.387   1.345
52065W        W25133  20.675  43.243  12.486
52066W        W25134   3.941  30.003  13.418
52067W        W25135  40.768   8.126  14.819
52068W        W25136  34.148   2.460  14.371
52069W        W25137  31.306  18.370   2.359
52070W        W25138  30.634  25.167  11.132
52071W        W25139  35.340   8.233  12.888
52072W        W25140   2.879  28.953  11.912
52073W        W25141   3.681  14.111  12.099
52074W        W25142  12.893   9.832  13.059
52075W        W25143  12.898  39.412  13.504
52076W        W25144  27.379   9.603  14.618
52077W        W25145  37.469  43.985   0.762
52078W        W25146  27.446   7.124  12.094
52079W        W25147  39.488  31.674   4.458
52080W        W25148  19.036   3.995  10.483
52081W        W25149  28.894  30.754  12.665
52082W        W25150  22.549  17.404  14.624
52083W        W25151   5.923  12.138  12.074
52084W        W25152  42.174  22.224   2.796
52085W        W25153  24.607  25.079  13.558
52086W        W25154  33.036  27.748  10.554
52087W        W25155  29.019   3.634  12.046
52088W        W25156  31.874  21.607  14.211
52089W        W25157  14.652  29.618   4.042
52090W        W25158  12.838  33.506   5.023
52091W        W25159   6.490  10.472   1.795
52092W        W25160  11.314   2.910  14.420
52093W        W25161   0.965  33.385  13.864
52094W        W25162  24.129  33.223  11.286
52095W        W25163  17.610   6.263   1.741
52096W        W25164  22.914  21.311   2.867
52097W        W25165  35.466  39.431   0.327
52098W        W25166  35.991  26.020  12.034
52099W        W25167  10.428  21.149  14.020
52100W        W25168  10.714   7.766   2.138
52101W        W25169  44.334  26.646   3.645
52102W        W25170   3.614  37.864   1.185
52103W        W25171  31.219  37.342   4.540
52104W        W25172  32.960   4.947   1.011
52105W        W25173  43.857  10.875   2.822
52106W        W25174  17.623  16.269  12.393
52107W        W25175   3.909  25.743  12.987
52108W        W25176   5.908  21.633   1.779
52109W        W25177  31.534  17.334  12.151
52110W        W25178  31.449  31.513  12.044
52111W        W25179  32.558  23.990  11.631
52112W        W25180  14.263  12.790  10.600
52113W        W25181  40.340   8.795  14.393
52114W        W25182  19.090   2.993   3.386
52115W        W25183  19.022  44.291   4.152
52116W        W25184  32.023  38.930   2.373
52117W        W25185  42.775  18.274   3.723
52118W        W25186  25.141  27.644   0.510
52119W        W25187  35.547  37.793   3.346
52120W        W25188  35.318  19.583  13.425
52121W        W25189  36.103  27.612  14.247
52122W        W25190  22.614  21.250   3.725
52123W        W25191  39.436   2.817   1.499
52124W        W25192  43.396  10.724   2.621
52125W        W25193  40.017   6.095   4.208
52126W        W25194  43.358  28.563   1.338
52127W        W25195  41.282  34.280  10.873
52128W        W25196  27.179  26.185  12.611
52129W        W25197   2.184  13.840   3.625
52130W        W25198  15.657   1.798  14.578
52131W        W25199  44.870   3.010  11.187
52132W        W25200  41.206   0.935   2.203
52133W        W25201   1.714   6.182   1.834
52134W        W25202  39.915  41.441   5.031
52135W        W25203  24.150   6.845  10.855
52136W        W25204  26.217  43.834  12.090
52137W        W25205  24.995  25.993   3.739
52138W        W25206  10.114  42.333  10.360
52139W        W25207   2.632   0.245  12.705
52140W        W25208  23.149   7.364  10.954
52141W        W25209  36.424  35.415   4.876
52142W        W25210  44.988   3.661  14.849
52143W        W25211  39.948  23.245   1.316
52144W        W25212  14.810   8.561  11.475
52145W        W25213   8.008  32.689   1.760
52146W        W25214   4.854  31.471  12.890
52147W        W25215  10.754  37.258  11.128
52148W        W25216  20.201  22.941  14.058
52149W        W25217  27.414  17.244  14.903
52150W        W25218  40.110   7.831  11.143
52151W        W25219  41.968   8.827   5.158
52152W        W25220  32.544  38.350   3.721
52153W        W25221  19.587  28.391  13.005
52154W        W25222   1.297  15.743  14.758
52155W        W25223  26.902  28.318   4.090
52156W        W25224  22.657  17.306  12.542
52157W        W25225  44.892  37.900   3.784
52158W        W25226  34.089  23.178   0.471
52159W        W25227  21.230   6.416   1.428
52160W        W25228  12.082  36.393   3.179
52161W        W25229  29.729  41.827   2.442
52162W        W25230   9.682  16.061   1.963
52163W        W25231   5.898  33.102  11.969
52164W        W25232  20.919  43.232   2.819
52165W        W25233   1.439  22.886  12.346
52166W        W25234  35.582  26.004  11.251
52167W        W25235  29.896  39.408  13.651
52168W        W25236   2.680  27.385  12.950
52169W        W25237  42.262  29.148  12.283
52170W        W25238  15.516  41.522  11.128
52171W        W25239  18.194   9.300   2.247
52172W        W25240  34.515  28.819   0.749
52173W        W25241  41.915   9.328   0.229
52174W        W25242   1.009  29.146   4.816
52175W        W25243  24.965  37.508   2.873
52176W        W25244  29.599  11.632   2.715
52177W        W25245   3.431  24.978   2.774
52178W        W25246   7.157  36.475   2.818
52179W        W25247   5.370  13.776   1.888
52180W        W25248  10.118   2.140  11.647
52181W        W25249  21.257  43.237  13.100
52182W        W25250  44.501  39.511   5.343
52183W        W25251  26.608   7.655  12.085
52184W        W25252  39.594   5.778   4.074
52185W        W25253  38.452  16.777  10.668
52186W        W25254  42.325  44.105  12.573
52187W        W25255  30.918  37.638   4.244
52188W        W25256   3.670  32.426  11.548
52189W        W25257  24.003   4.813  10.414
52190W        W25258  36.394  36.969  12.050
52191W        W25259  38.475  25.110   2.728
52192W        W25260  24.232   9.141   1.391
52193W        W25261  32.529  37.365  11.107
52194W        W25262  39.624   9.184   4.551
52195W        W25263  11.158   8.728  14.947
52196W        W25264  29.384  26.696  11.191
52197W        W25265  42.679  11.796   4.120
52198W        W25266  17.907  29.518   4.625
52199W        W25267  31.986  21.325   2.657
52200W        W25268   0.660  20.660   0.618
52201W        W25269  33.612   9.183   0.378
52202W        W25270   8.097   2.840   2.931
52203W        W25271  13.949  37.445  13.875
52204W        W25272  25.958  27.622  14.590
52205W        W25273  33.465  16.256   4.643
52206W        W25274   3.188  29.569   0.479
52207W        W25275  36.944  35.036  13.773
52208W        W25276  25.088   0.036   1.415
52209W        W25277  29.705  20.073   2.313
52210W        W25278   9.611  23.621  14.798
52211W        W25279  36.562  27.131   0.450
52212W        W25280  18.193  19.233   2.316
52213W        W25281  30.926  30.792  11.707
52214W        W25282  17.109  24.147   1.415
52215W        W25283  20.671  24.754  12.100
52216W        W25284   8.320  16.299   0.170
52217W        W25285   1.875  23.678  14.451
52218W        W25286  12.529  39.494   0.899
52219W        W25287  11.717  20.923  14.480
52220W        W25288  16.682  24.394  14.822
52221W        W25289  37.916  35.470  13.896
52222W        W25290  34.898  29.829  11.475
52223W        W25291  15.575  43.967  11.868
52224W        W25292  24.974  44.737  12.819
52225W        W25293  40.422  38.972  10.737
52226W        W25294  12.230  23.617   4.307
52227W        W25295  21.017  30.641   0.434
52228W        W25296  33.742   3.406  12.572
52229W        W25297  14.405  16.724  13.785
52230W        W25298  15.632  16.769  13.542
52231W        W25299   7.556  38.060   2.445
52232W        W25300   7.945  39.930   1.823
52233W        W25301  12.819  42.755   1.525
52234W        W25302  13.786   2.246   0.855
52235W        W25303  23.205  36.866   4.948
52236W        W25304  10.723  22.192   3.885
52237W        W25305  42.944  41.572   5.055
52238W        W25306  37.013  41.219  14.249
52239W        W25307  38.385  36.157   1.858
52240W        W25308  36.638   7.834  13.886
52241W        W25309  24.570  31.826   2.171
52242W        W25310  10.977   4.422   0.198
52243W        W25311  42.488  30.076   2.919
52244W        W25312  32.902  39.801   2.797
52245W        W25313  22.156  37.573  10.755
52246W        W25314  25.178  21.457  14.598
52247W        W25315  22.217  43.790   4.079
52248W        W25316  32.874  22.536   3.219
52249W        W25317   1.729  15.582  11.072
52250W        W25318  39.042  19.199  11.104
52251W        W25319   3.063  18.077  13.514
52252W        W25320  30.289  29.820  11.400
52253W        W25321  28.121   3.297   4.663
52254W        W25322   4.726  39.447  13.932
52255W        W25323  10.160  20.747   4.378
52256W        W25324  27.138  38.458  11.566
52257W        W25325  37.294  16.136   3.681
52258W        W25326  40.849  41.070   0.311
52259W        W25327   6.778  10.570  10.982
52260W        W25328  17.989  12.248   1.549
52261W        W25329   8.586   5.449   4.078
52262W        W25330  43.344  17.640  10.949
52263W        W25331  43.905  28.557   3.588
52264W        W25332   3.572  27.435   1.733
52265W        W25333  27.520   0.636   2.216
52266W        W25334  27.466   7.669  12.891
52267W        W25335  31.332  11.412   2.394
52268W        W25336  16.831  20.100  14.885
52269W        W25337   7.216  21.225  13.415
52270W        W25338  11.451  21.671  11.070
52271W        W25339  35.890  37.063  11.955
52272W        W25340  38.011  30.886   0.487
52273W        W25341  15.647  17.830  12.914
52274W        W25342  32.174   1.130   4.948
52275W        W25343  39.752  39.060   2.073
52276W        W25344   7.766  34.051  10.935
52277W        W25345  13.254  40.843   2.164
52278W        W25346  35.098   6.987  12.975
52279W        W25347  35.925  30.573   1.022
52280W        W25348   9.936   5.936   0.909
52281W        W25349  29.339   4.366  10.715
52282W        W25350  19.038   7.241   1.172
52283W        W25351  37.816   8.692   2.344
52284W        W25352  18.123  14.080  10.604
52285W        W25353  22.216  42.574   3.265
52286W        W25354  34.936  42.424   4.124
52287W        W25355  12.408  43.027   1.291
52288W        W25356  43.931  35.832   2.691
52289W        W25357  12.321  18.327  13.455
52290W        W25358  43.707  31.633   0.989
52291W        W25359   7.102  22.576   3.711
52292W        W25360  27.302  41.283  13.400
52293W        W25361   5.568   9.848   1.367
52294W        W25362  24.109  37.799   5.505
52295W        W25363   9.549  36.942   3.652
52296W        W25364  29.711  22.682  10.630
52297W        W25365  10.608  17.767  14.470
52298W        W25366  31.054   4.478   3.619
52299W        W25367  13.339   8.726   1.823
52300W        W25368   4.641  29.269   1.773
52301W        W25369  20.489  13.772  14.773
52302W        W25370   8.115  24.375   4.843
52303W        W25371  12.733   9.979   0.952
52304W        W25372  36.568  23.347   2.836
52305W        W25373  23.511  14.888   3.210
52306W        W25374  43.010  33.126  10.495
52307W        W25375  34.445  27.954   1.350
52308W        W25376  22.288  23.168   4.488
52309W        W25377  40.375   2.827  11.561
52310W        W25378  38.708  39.328   0.014
52311W        W25379  26.518  18.049   0.815
52312W        W25380  35.449  14.906  13.378
52313W        W25381   0.019  42.785  14.292
52314W        W25382  18.100  15.917   2.335
52315W        W25383  12.681   5.646  13.843
52316W        W25384  20.687  24.254   3.376
52317W        W25385   6.607   6.892   1.850
52318W        W25386  16.427   8.491   3.608
52319W        W25387   3.923  35.881   3.330
52320W        W25388  11.883  41.722  13.361
52321W        W25389  17.885  25.605   3.152
52322W        W25390  31.656  11.719   1.725
52323W        W25391  30.613  19.201  14.923
52324W        W25392   7.769  13.182   0.320
52325W        W25393  29.956  19.431  13.986
52326W        W25394  18.622  43.503   3.586
52327W        W25395  27.873   4.410   0.842
52328W        W25396  11.420   9.286   0.010
52329W        W25397  24.206  33.496  13.941
52330W        W25398  22.686  33.589  13.977
52331W        W25399  14.259  29.946   4.148
52332W        W25400   3.733  30.465  13.377
52333W        W25401   9.427   0.872  11.242
52334W        W25402  20.036   0.007  12.369
52335W        W25403   1.618  30.817   3.994
52336W        W25404   1.653  35.968  11.879
52337W        W25405  30.165   7.830   2.814
52338W        W25406  28.655  39.064  10.271
52339W        W25407  43.133  11.101   4.779
52340W        W25408  20.966  16.156   4.517
52341W        W25409  36.637  24.404  13.027
52342W        W25410  44.878   4.177   4.125
52343W        W25411  12.180  17.711   1.502
52344W        W25412  36.856  39.036   4.944
52345W        W25413  25.941  34.630  14.288
52346W        W25414  32.907  38.747  11.613
52347W        W25415  43.556  30.952  13.412
52348W        W25416  12.142  39.511  10.340
52349W        W25417  40.523  19.600  11.534
52350W        W25418  23.543  36.129   2.227
52351W        W25419  44.412  39.885   3.053
52352W        W25420  38.800  17.231   2.901
52353W        W25421  38.058  42.452   1.377
52354W        W25422  12.721  18.429   4.595
52355W        W25423  20.492  34.874   1.290
52356W        W25424   0.622  37.271  10.927
52357W        W25425  28.125  40.200   4.485
52358W        W25426  19.882  30.394   1.596
52359W        W25427  23.270  29.928   3.095
52360W        W25428  25.854  37.865   5.412
52361W        W25429  19.585   9.559  11.510
52362W        W25430   4.886  44.282  13.133
52363W        W25431  42.498  18.985  10.940
52364W        W25432  22.432   1.805   5.063
52365W        W25433   2.275  42.316  12.445
52366W        W25434  21.516   7.233   2.135
52367W        W25435  21.847   2.888  11.061
52368W        W25436  24.413  32.070  14.908
52369W        W25437  42.695  20.292  11.103
52370W        W25438  28.029  14.305  11.507
52371W        W25439  20.616  40.628   0.914
52372W        W25440  25.022  12.251   4.207
52373W        W25441   1.912   3.252  13.691
52374W        W25442  43.885  27.989   0.951
52375W        W25443  12.745  10.908  14.490
52376W        W25444   3.544  17.583   3.660
52377W        W25445   5.823  11.225   4.376
52378W        W25446  36.522  25.589  11.494
52379W        W25447   1.017  31.312   2.435
52380W        W25448  18.262  19.618   3.356
52381W        W25449  13.175  19.718   4.886
52382W        W25450   1.192  12.073  11.586
52383W        W25451   3.013  19.227   2.285
52384W        W25452  17.402  27.489   4.126
52385W        W25453   2.949  27.103  10.662
52386W        W25454  38.506  44.436  10.837
52387W        W25455  20.986  16.701   2.686
52388W        W25456  34.053   4.794  12.709
52389W        W25457  21.723  18.501   4.522
52390W        W25458  12.609  42.551   0.199
52391W        W25459   9.583  40.789  11.158
52392W        W25460  19.069  44.600  13.058
52393W        W25461   3.488  20.223   2.347
52394W        W25462  17.188  24.688  12.913
52395W        W25463  34.336  17.724   4.117
52396W        W25464  13.136  38.934   1.865
52397W        W25465  15.183   0.781  14.873
52398W        W25466  16.375   1.232   2.657
52399W        W25467  21.625  29.443   3.175
52400W        W25468  15.636  39.148   2.873
52401W        W25469  18.018  33.637   0.890
52402W        W25470  41.329  38.439  14.900
52403W        W25471   5.999   2.242  13.027
52404W        W25472   1.498   2.885   4.085
52405W        W25473  42.884  17.573  10.729
52406W        W25474   6.716   3.001   4.487
52407W        W25475  18.984  30.635   3.289
52408W        W25476  11.858   3.455  14.777
52409W        W25477  11.259  19.725   0.007
52410W        W25478   2.270  27.085  12.863
52411W        W25479  41.854  17.561  10.655
52412W        W25480  39.116  15.580   0.307
52413W        W25481  23.087  17.061  11.131
52414W        W25482  40.024  39.572   3.214
52415W        W25483  19.778  40.956   1.891
52416W        W25484  22.853  19.588  12.191
52417W        W25485  39.205  39.475   0.874
52418W        W25486  24.628  21.539   0.310
52419W        W25487   6.878  34.853  12.696
52420W        W25488  30.124  31.639  14.356
52421W        W25489  14.062   4.289   2.014
52422W        W25490   7.750  39.010   9.896
52423W        W25491  15.328  10.365  14.013
52424W        W25492  18.292  10.888  12.833
52425W        W25493  16.446  14.083   0.368
52426W        W25494  22.702  17.989   3.318
52427W        W25495  21.994  35.871   1.814
52428W        W25496  39.640  34.044   1.226
52429W        W25497  11.676  21.199  13.045
52430W        W25498  37.540  13.318  13.991
52431W        W25499  41.926  13.426  13.003
52432W        W25500  44.261  24.303   4.556
52433W        W25501  17.573   5.175  12.886
52434W        W25502  19.462  28.948  14.732
52435W        W25503  31.429   4.370  11.629
52436W        W25504  23.980   2.232  10.711
52437W        W25505  34.099  23.997  14.482
52438W        W25506  32.595  18.325  13.744
52439W        W25507   4.732  17.418   2.085
52440W        W25508   5.704   0.799   4.674
52441W        W25509   4.917  17.068  10.717
52442W        W25510  10.216  24.007   1.309
52443W        W25511   8.123  38.512  12.076
52444W        W25512  32.887  24.031  11.213
52445W        W25513  41.061  35.396   0.327
52446W        W25514   2.420   1.002   1.661
52447W        W25515   4.506  11.281   3.755
52448W        W25516  32.098   4.273   4.579
52449W        W25517  41.519   6.258  11.929
52450W        W25518  12.659  31.648  12.964
52451W        W25519  32.054  24.624   0.663
52452W        W25520  27.132  31.286  14.306
52453W        W25521  16.003  29.987   2.786
52454W        W25522  38.275  17.055   2.838
52455W        W25523   0.355   0.967   0.197
52456W        W25524  24.640  21.039  13.596
52457W        W25525  16.812  38.283  13.598
52458W        W25526  20.068   6.408   1.185
52459W        W25527  42.341  11.118  14.226
52460W        W25528   6.095  10.586  10.142
52461W        W25529  27.459  28.706   2.120
52462W        W25530  32.592  30.401  13.511
52463W        W25531   0.892  33.659   5.356
52464W        W25532  38.842  33.441   3.196
52465W        W25533  38.388  26.611  12.104
52466W        W25534  33.458  36.499  10.857
52467W        W25535   1.990  41.423   2.072
52468W        W25536  34.875   0.381   4.117
52469W        W25537   4.942  27.926   0.007
52470W        W25538  16.680  13.199  13.478
52471W        W25539  39.294  17.577   3.389
52472W        W25540  25.472  34.008  12.124
52473W        W25541  13.753  21.172  11.912
52474W        W25542   6.967  32.851  11.588
52475W        W25543  34.888  13.144   3.080
52476W        W25544  20.301  17.617   4.095
52477W        W25545  44.529  40.846  13.423
52478W        W25546  21.708  36.040   4.588
52479W        W25547  18.549  12.848  14.502
52480W        W25548   9.777  44.931  10.932
52481W        W25549  13.172  34.890   4.464
52482W        W25550  19.097  13.172  11.375
52483W        W25551  36.814  33.405  11.689
52484W        W25552  22.087  31.581   4.859
52485W        W25553  24.841  10.588   1.548
52486W        W25554   5.884  21.040   4.078
52487W        W25555  28.022  19.209  10.727
52488W        W25556  22.508   8.245  10.910
52489W        W25557   1.464   0.298  11.603
52490W        W25558   2.808  41.270  14.329
52491W        W25559  20.654  16.612  13.005
52492W        W25560  21.494  25.974   3.243
52493W        W25561  40.905  23.679   1.322
52494W        W25562  27.086   8.302   3.352
52495W        W25563   6.127  26.116   2.807
52496W        W25564  25.661   2.806   0.381
52497W        W25565  43.073  38.561   2.223
52498W        W25566  40.836  20.679  14.964
52499W        W25567   4.244  41.946  10.421
52500W        W25568  41.095  22.651  10.790
52501W        W25569  38.063  42.067  11.717
52502W        W25570  10.256  12.135  13.555
52503W        W25571  18.559   8.402  14.010
52504W        W25572  17.802  40.042  13.100
52505W        W25573  34.041  30.808  13.415
52506W        W25574  26.267  36.885   1.772
52507W        W25575  12.318  35.834  11.187
52508W        W25576   7.953  27.956   2.659
52509W        W25577  12.563   3.291  12.953
52510W        W25578  22.903  39.957  13.396
52511W        W25579  41.522  28.656   1.214
52512W        W25580  15.764   1.362  13.873
52513W        W25581  18.188  22.009  10.809
52514W        W25582  34.023  11.659  13.442
52515W        W25583  30.158   5.453  13.141
52516W        W25584  33.475  24.785  11.585
52517W        W25585  20.381  19.551  11.070
52518W        W25586  42.371  19.198  12.387
52519W        W25587  42.477  35.417  14.161
52520W        W25588  30.585  11.398  12.415
52521W        W25589  32.146  22.782   3.720
52522W        W25590  24.131  31.490   1.968
52523W        W25591  44.009  20.544  10.748
52524W        W25592  43.366  30.078  13.019
52525W        W25593  32.258  25.965  13.960
52526W        W25594   0.582  15.565   3.473
52527W        W25595   7.813  14.151   3.468
52528W        W25596   0.594  26.852  14.424
52529W        W25597  22.724  17.071   1.811
52530W        W25598  11.342  34.033  12.660
52531W        W25599  43.022  37.615   3.817
52532W        W25600  30.634  24.765   1.353
52533W        W25601  18.668  24.835  11.738
52534W        W25602  11.398   4.830   3.524
52535W        W25603   2.568   6.418  12.212
52536W        W25604  16.339  12.899   1.393
52537W        W25605  20.128  28.689  13.831
52538W        W25606   5.860  14.105  11.926
52539W        W25607  34.846  26.195   4.314
52540W        W25608  14.670  40.784   1.435
52541W        W25609  40.844   1.975   1.453
52542W        W25610  44.714  10.881  14.134
52543W        W25611  11.223  15.286   3.826
52544W        W25612  21.658  43.461   3.762
52545W        W25613  44.392  38.002   2.607
52546W        W25614   0.368   1.980   3.320
52547W        W25615  43.935  20.439  11.627
52548W        W25616  29.947   6.223   4.213
52549W        W25617  29.000  14.676  10.715
52550W        W25618   2.743  32.766  11.124
52551W        W25619   3.550  37.711  12.633
52552W        W25620   2.743  11.844   2.884
52553W        W25621  41.558  42.681  14.950
52554W        W25622  12.113  14.833   4.110
52555W        W25623   4.624  35.463   3.697
52556W        W25624  20.218   7.625   0.390
52557W        W25625  30.521   7.117   3.208
52558W        W25626  20.544  25.193   0.819
52559W        W25627   9.501   2.394  12.548
52560W        W25628   2.753  19.848  13.565
52561W        W25629  12.642   9.378  11.475
52562W        W25630   3.864  33.123  10.647
52563W        W25631  21.513  34.411  11.844
52564W        W25632  37.568  27.711   4.629
52565W        W25633   4.191   9.090   1.968
52566W        W25634  44.220  41.687   4.666
52567W        W25635  38.450   2.662  12.349
52568W        W25636  23.012  17.199  14.759
52569W        W25637  26.658  23.347   1.195
52570W        W25638  18.123  38.480  11.157
52571W        W25639  12.339   7.372  11.455
52572W        W25640  24.574  33.102  12.988
52573W        W25641   5.345  21.162   1.319
52574W        W25642  37.401   2.199  11.518
52575W        W25643  35.098  18.569   0.787
52576W        W25644   5.445  42.808   3.034
52577W        W25645   5.790  41.380   3.715
52578W        W25646  16.265  20.632  12.470
52579W        W25647  43.977   1.432  10.813
52580W        W25648  20.213  24.044  13.449
52581W        W25649   6.391  42.540  11.838
52582W        W25650  24.129  13.225   0.398
52583W        W25651  19.654  43.082  12.118
52584W        W25652  21.743  30.322  12.963
52585W        W25653   3.271  21.072   0.357
52586W        W25654  38.820  10.635  11.572
52587W        W25655   2.478  39.807  12.870
52588W        W25656  41.620  25.255  14.484
52589W        W25657  35.639  29.609   0.825
52590W        W25658  11.906  25.002  10.498
52591W        W25659  20.209  39.566   4.129
52592W        W25660  39.969   2.292   0.846
52593W        W25661  17.738  40.594   1.462
52594W        W25662  32.576  14.684  13.988
52595W        W25663  43.904  11.256   1.010
52596W        W25664  12.886  29.564   3.694
52597W        W25665   8.300  17.674   2.888
52598W        W25666  30.652  18.097   3.179
52599W        W25667  42.657  14.184   1.658
52600W        W25668  17.717  43.973   2.624
52601W        W25669   8.053  20.794  11.394
52602W        W25670  33.843  26.436  14.450
52603W        W25671  32.395  24.278  11.180
52604W        W25672  35.517  40.985   2.213
52605W        W25673   0.967  41.582   1.888
52606W        W25674  22.609  38.651  10.779
52607W        W25675  26.965   7.409   1.382
52608W        W25676  33.500  27.470  12.880
52609W        W25677  15.245  18.781   2.292
52610W        W25678   4.731  16.065  14.810
52611W        W25679  27.722   1.611  10.666
52612W        W25680  32.541  33.322  13.560
52613W        W25681  10.310  31.026  11.570
52614W        W25682  39.374  15.059   1.924
52615W        W25683   9.196  16.247   0.692
52616W        W25684  23.739  44.502  14.943
52617W        W25685  34.900   5.173  14.514
52618W        W25686  35.700  33.229   5.086
52619W        W25687  38.470  14.825   3.241
52620W        W25688  11.570   3.556  11.094
52621W        W25689  16.274   2.418  12.651
52622W        W25690   3.004   8.986   4.918
52623W        W25691  24.049  35.673   3.218
52624W        W25692  31.600  38.669   1.450
52625W        W25693  10.242  40.771  13.004
52626W        W25694   3.454  22.753   4.049
52627W        W25695  22.416  12.648  14.515
52628W        W25696  32.999   8.197   4.790
52629W        W25697  37.692  28.897   0.204
52630W        W25698  29.841  34.360  12.410
52631W        W25699  40.896  27.620  12.089
52632W        W25700  11.367  40.858   1.346
52633W        W25701  16.779  39.963  12.950
52634W        W25702  18.549   6.931  12.748
52635W        W25703  21.503  35.096  11.557
52636W        W25704  16.313  16.999   0.421
52637W        W25705  36.703  34.991   4.160
52638W        W25706   0.022  43.518   1.529
52639W        W25707  39.507  22.481   0.294
52640W        W25708  22.548  18.344  11.125
52641W        W25709  37.322  37.961   3.205
52642W        W25710   3.202  34.677   1.875
52643W        W25711  39.353  15.253  13.895
52644W        W25712   4.348  10.266  11.276
52645W        W25713  24.490   8.214  11.224
52646W        W25714   5.736  41.831  13.302
52647W        W25715   9.834  44.350  14.836
52648W        W25716  31.592  27.546  11.683
52649W        W25717   6.225  40.422  11.068
52650W        W25718  11.455  14.244   5.075
52651W        W25719   9.897  24.517   3.628
52652W        W25720  23.497   9.526  12.355
52653W        W25721   7.134  35.083  11.612
52654W        W25722  21.750  44.024  10.689
52655W        W25723  44.009   2.050   0.878
52656W        W25724  38.664  40.308  10.706
52657W        W25725  14.762  42.121   3.177
52658W        W25726  10.813  40.589  12.874
52659W        W25727   7.365  27.737   0.848
52660W        W25728  42.837  33.288   4.665
52661W        W25729  35.050  30.100  14.784
52662W        W25730  32.236   1.167  10.925
52663W        W25731  42.025  44.363   3.836
52664W        W25732  23.985  24.673  12.143
52665W        W25733  14.855  44.724  11.444
52666W        W25734  18.183  39.103  14.227
52667W        W25735  16.607  28.511   0.631
52668W        W25736  41.381  26.618  14.391
52669W        W25737  13.802   2.881   0.443
52670W        W25738  27.998  18.447   2.382
52671W        W25739  19.659  21.803  13.694
52672W        W25740  36.582  42.066   1.438
52673W        W25741  12.790  36.894   2.981
52674W        W25742   5.788   5.369   2.307
52675W        W25743   1.565  40.431  13.740
52676W        W25744  19.901  14.866   2.855
52677W        W25745  11.124   5.871  14.727
52678W        W25746  12.857  29.500  12.404
52679W        W25747   0.412  32.077   0.331
52680W        W25748  36.155  12.596   3.090
52681W        W25749  37.940  18.276  11.407
52682W        W25750  39.798  11.208   0.785
52683W        W25751  15.404   5.223  11.068
52684W        W25752   7.461   6.689   4.704
52685W        W25753  30.116  17.729  10.846
52686W        W25754  12.453  38.776  13.888
52687W        W25755  27.200  12.428  10.764
52688W        W25756   1.335   0.866  12.351
52689W        W25757   4.010  37.084   1.711
52690W        W25758  22.020  37.545   1.045
52691W        W25759  12.867  24.551   2.757
52692W        W25760  32.463  11.150  14.335
52693W        W25761  42.493   4.547  13.577
52694W        W25762  34.466   9.426   4.120
52695W        W25763   6.344  41.939   3.840
52696W        W25764  33.599  13.172  11.672
52697W        W25765   1.735  39.925  13.854
52698W        W25766  21.809   3.092  14.978
52699W        W25767   2.603  21.338   9.902
52700W        W25768  23.177  27.660   0.302
52701W        W25769   0.309  38.512  11.417
52702W        W25770   0.310  38.846  12.005
52703W        W25771  42.583  32.385   4.600
52704W        W25772  41.785  27.141  13.878
52705W        W25773  42.699  39.060   4.639
52706W        W25774  36.979  40.783   2.817
52707W        W25775  35.587  12.428  13.864
52708W        W25776  43.342  21.216   1.830
52709W        W25777  38.591  23.173   0.297
52710W        W25778  39.241  24.621  10.700
52711W        W25779  33.898  12.425  14.743
52712W        W25780  25.594   7.386  14.441
52713W        W25781  10.311  23.040   4.654
52714W        W25782   6.604  12.472  10.470
52715W        W25783  10.913   6.355  14.811
52716W        W25784  32.134  28.538   1.840
52717W        W25785  24.790   8.939  11.132
52718W        W25786  11.731  15.070  14.473
52719W        W25787   9.725  38.120  10.676
52720W        W25788  22.187   9.960  12.328
52721W        W25789   6.031  29.117   1.600
52722W        W25790  28.963  36.239   3.591
52723W        W25791  29.508  37.754  14.282
52724W        W25792   5.349   4.425  12.583
52725W        W25793  26.949  27.440  12.964
52726W        W25794  30.436  23.483   3.758
52727W        W25795   8.134  25.168  14.310
52728W        W25796  31.461  41.436  11.594
52729W        W25797  37.919  35.856   1.431
52730W        W25798  37.827  22.746   3.173
52731W        W25799  26.478  24.738   0.732
52732W        W25800  19.729  20.888  12.114
52733W        W25801  18.519   0.422  10.447
52734W        W25802  24.774   4.759  13.023
52735W        W25803  26.958  30.043  14.718
52736W        W25804   4.520  28.144  14.854
52737W        W25805  39.318  27.615  12.878
52738W        W25806  18.322  44.606   4.949
52739W        W25807  35.383  20.978   3.328
52740W        W25808  41.232  13.205  11.475
52741W        W25809  32.596  21.445   1.404
52742W        W25810  44.655  41.512   1.398
52743W        W25811   1.769  30.501   3.634
52744W        W25812  20.614  25.541   3.474
52745W        W25813   0.400  30.156  11.100
52746W        W25814   2.402  39.310   3.674
52747W        W25815  39.403  25.448  14.323
52748W        W25816   3.966  27.099   2.872
52749W        W25817  21.285  43.194   4.995
52750W        W25818  29.257  38.286  12.492
52751W        W25819  23.811  16.701  13.715
52752W        W25820  18.661  19.525  14.491
52753W        W25821  23.866  32.890  11.734
52754W        W25822   4.221  16.282  13.487
52755W        W25823  30.522  16.631  13.195
52756W        W25824  29.405  20.136   2.741
52757W        W25825   7.271   6.217   3.422
52758W        W25826   4.756  31.092   2.047
52759W        W25827   3.056   9.357  10.650
52760W        W25828   4.168  43.773   3.827
52761W        W25829  40.449  15.178  12.151
52762W        W25830  39.723  12.799  12.467
52763W        W25831  12.769  27.557  10.888
52764W        W25832  41.333   6.330  10.907
52765W        W25833  30.501   7.163   0.897
52766W        W25834   1.896   5.156   4.231
52767W        W25835  23.693  29.577  13.293
52768W        W25836  41.879  33.607   4.873
52769W        W25837  26.167  18.794   1.613
52770W        W25838  19.518   1.258   4.311
52771W        W25839   9.941  14.267   0.002
52772W        W25840  24.916  16.791  13.514
52773W        W25841  11.525  18.293   0.296
52774W        W25842  10.834   1.103   4.182
52775W        W25843  32.940  31.408  12.487
52776W        W25844   9.198  35.592  13.722
52777W        W25845  25.001  20.101   3.178
52778W        W25846  17.743  31.985  11.185
52779W        W25847  17.665   3.363   4.717
52780W        W25848  19.673  10.011   1.772
52781W        W25849  13.315  26.725   5.035
52782W        W25850  30.856  21.075  11.090
52783W        W25851  21.282  43.862  11.976
52784W        W25852   6.967  16.860  12.156
52785W        W25853  14.214  35.864   1.190
52786W        W25854   4.963  39.813   4.107
52787W        W25855  43.845  35.849   4.851
52788W        W25856  39.815  25.411  14.738
52789W        W25857  44.459  43.029  10.740
52790W        W25858  19.097  40.305  14.623
52791W        W25859  12.574  29.003  10.791
52792W        W25860  36.544  34.891   3.318
52793W        W25861  34.984  28.458   3.836
52794W        W25862   3.419  40.664  11.386
52795W        W25863  19.971  10.442   2.844
52796W        W25864  44.256  33.942  11.891
52797W        W25865  37.748  26.948  13.219
52798W        W25866  28.379  31.418  12.079
52799W        W25867   8.733  10.878   0.468
52800W        W25868  10.289  28.785   2.630
52801W        W25869  23.978  33.861  14.390
52802W        W25870  39.546  31.022   0.418
52803W        W25871  10.391  19.168  10.366
52804W        W25872  21.122  11.618   3.742
52805W        W25873  35.290  40.879   4.280
52806W        W25874  30.841  27.203  12.439
52807W        W25875  24.201  37.341  13.604
52808W        W25876  17.864   3.729   0.738
52809W        W25877  16.340  11.633   0.486
52810W        W25878  15.505   1.925   4.182
52811W        W25879   2.506  18.331  10.875
52812W        W25880  22.667  16.304   4.708
52813W        W25881  22.228   4.859  12.951
52814W        W25882  33.083  25.400  12.120
52815W        W25883   1.492  13.679   1.998
52816W        W25884  21.149   6.066   0.579
52817W        W25885  18.143  25.721  10.690
52818W        W25886  18.490  20.621  10.499
52819W        W25887  23.679   8.430   2.666
52820W        W25888   0.238  32.390  14.948
52821W        W25889  12.367  30.715   0.524
52822W        W25890  40.597   5.277   0.266
52823W        W25891  39.444   5.566  11.968
52824W        W25892   0.262  40.788  11.229
52825W        W25893  42.840  14.308   4.721
52826W        W25894  35.491   9.817   1.275
52827W        W25895  27.100  18.027   1.454
52828W        W25896  13.098   8.804   2.284
52829W        W25897  39.979  22.902   4.311
52830W        W25898   0.970  35.811  13.460
52831W        W25899  31.468  26.091   3.324
52832W        W25900   2.968  20.201  11.837
52833W        W25901  20.443  42.116   0.438
52834W        W25902  31.744  23.603   3.433
52835W        W25903  20.203  22.206   3.791
52836W        W25904  16.651  10.430   3.210
52837W        W25905  35.589  27.626  10.712
52838W        W25906  27.086  44.733  12.477
52839W        W25907  29.681  12.143   4.743
52840W        W25908  27.405  35.908  14.615
52841W        W25909  34.959  34.141  12.475
52842W        W25910  17.557  11.065  12.590
52843W        W25911   3.293  24.612   0.816
52844W        W25912  33.837  30.466   4.586
52845W        W25913  44.728  32.031   4.066
52846W        W25914  24.876  44.492  13.889
52847W        W25915   2.917  36.202   3.160
52848W        W25916  20.563  43.299   3.171
52849W        W25917  18.523   8.799   4.014
52850W        W25918  10.322  23.157  11.129
52851W        W25919  12.547  33.405  10.901
52852W        W25920  33.655  16.180   4.156
52853W        W25921  40.881  28.736   4.463
52854W        W25922  41.841  23.267  11.147
52855W        W25923  19.052   0.040  12.783
52856W        W25924  44.466  31.621  11.477
52857W        W25925  24.964  24.233   3.259
52858W        W25926   6.164  20.725   1.907
52859W        W25927  14.019  14.426   3.334
52860W        W25928   7.729  28.261  11.637
52861W        W25929  35.009  44.313  13.466
52862W        W25930  12.292  22.598  14.611
52863W        W25931  34.424   8.242  13.479
52864W        W25932  18.224   3.921   0.386
52865W        W25933  16.199  32.547   0.886
52866W        W25934  35.428   5.184   3.203
52867W        W25935  34.474  33.599   0.728
52868W        W25936   7.752  22.224   3.294
52869W        W25937  28.600  30.565  13.076
52870W        W25938  38.999  17.571  13.939
52871W        W25939  33.577   4.686   2.210
52872W        W25940   5.206  26.222  10.760
52873W        W25941  16.839  39.124  14.694
52874W        W25942  21.995   9.650  11.536
52875W        W25943  12.883   4.523  12.563
52876W        W25944  28.928   3.760  14.711
52877W        W25945   8.678  42.274  12.120
52878W        W25946  10.678  29.344   4.347
52879W        W25947  30.331  42.924   0.511
52880W        W25948  42.400  43.076  12.560
52881W        W25949   2.362   1.747   3.610
52882W        W25950  38.851   3.749   0.329
52883W        W25951  24.059  21.108   2.285
52884W        W25952  40.943  20.818   1.234
52885W        W25953  10.256  13.170   1.013
52886W        W25954  15.408   7.263  12.907
52887W        W25955  20.054  38.778  12.983
52888W        W25956  20.347  27.668  10.874
52889W        W25957  13.538  10.368   2.706
52890W        W25958  25.697  31.886   1.726
52891W        W25959  33.022  28.538   2.771
52892W        W25960   9.608  30.993  14.992
52893W        W25961   0.508  18.534   1.142
52894W        W25962  43.704  17.890   0.674
52895W        W25963  18.074  10.386   0.526
52896W        W25964   6.924  22.841  13.629
52897W        W25965  37.342   5.287  14.792
52898W        W25966  19.779  43.352  13.835
52899W        W25967  20.085  38.261  12.899
52900W        W25968  18.673  15.994   2.317
52901W        W25969  30.673   0.710  10.771
52902W        W25970  25.761   6.692   3.297
52903W        W25971  30.898   2.424  11.168
52904W        W25972  35.984  18.184  14.810
52905W        W25973   9.198  31.669   4.760
52906W        W25974  37.818  32.514   0.889
52907W        W25975   9.918  12.982  13.985
52908W        W25976   3.453  43.795   0.781
52909W        W25977  39.816  39.093   4.130
52910W        W25978  42.298  15.924  12.672
52911W        W25979  37.506  18.105   0.004
52912W        W25980  18.826  41.653   3.411
52913W        W25981  37.317   1.458   0.877
52914W        W25982  23.951  20.408  11.555
52915W        W25983  34.906   4.258  14.415
52916W        W25984  44.937  13.335  14.065
52917W        W25985  39.878  26.635   0.916
52918W        W25986  17.829  35.317   2.644
52919W        W25987  13.533  33.836  13.545
52920W        W25988  31.174  32.599   2.880
52921W        W25989  26.408  28.156   4.212
52922W        W25990  29.672  13.142  10.728
52923W        W25991   6.233  38.439  10.595
52924W        W25992  30.825  26.041  13.786
52925W        W25993  43.835  24.021  13.622
52926W        W25994  27.784   2.753   0.625
52927W        W25995  19.669  18.864   4.707
52928W        W25996  40.166   4.136  11.098
52929W        W25997   1.817  19.629  10.717
52930W        W25998   4.585  16.691   4.304
52931W        W25999  30.851  24.694  12.169
52932W        W26000  36.283  19.614   4.525
52933W        W26001  36.784  17.627   2.368
52934W        W26002  18.188  13.796  13.879
52935W        W26003  24.976   6.674  14.407
52936W        W26004  26.802  27.777   4.120
52937W        W26005  44.304  19.103  11.185
52938W        W26006  27.011  38.922   2.652
52939W        W26007  28.075  25.948   4.641
52940W        W26008  42.454  14.251  14.430
52941W        W26009  18.602  25.136   5.062
52942W        W26010  41.851  13.057   4.052
52943W        W26011  31.584  23.613  13.186
52944W        W26012   3.422  35.841  14.938
52945W        W26013   8.790  27.399  11.648
52946W        W26014  16.610  29.375  14.223
52947W        W26015  37.455   2.851   3.112
52948W        W26016  33.037  19.316   0.252
52949W        W26017  35.980   3.946   0.291
52950W        W26018  19.786   9.508  14.436
52951W        W26019   3.821   3.928   0.268
52952W        W26020  35.910  12.205  14.807
52953W        W26021   9.644  33.063   1.731
52954W        W26022   2.495  21.972  13.684
52955W        W26023  37.061  15.272   0.539
52956W        W26024  43.544  11.407   4.877
52957W        W26025  41.532  23.268  10.580
52958W        W26026  33.448  24.947   3.375
52959W        W26027  41.789  31.734   0.966
52960W        W26028  31.114  43.757  12.012
52961W        W26029  13.563  27.414  14.995
52962W        W26030  41.331  12.833  13.251
52963W        W26031   7.627  12.419   2.349
52964W        W26032  25.255  10.351  13.189
52965W        W26033  28.040  33.607   4.432
52966W        W26034   2.749  13.802   3.665
52967W        W26035  36.332  42.802   3.204
52968W        W26036  29.133  37.655   4.843
52969W        W26037   2.953   1.573  10.668
52970W        W26038  38.861  19.265   3.255
52971W        W26039  22.869  27.149   3.802
52972W        W26040  10.466  18.630  11.173
52973W        W26041   8.806  40.829   1.328
52974W        W26042  12.819  39.428   0.471
52975W        W26043  26.590   7.388  12.536
52976W        W26044  36.162  13.146  13.867
52977W        W26045   7.967  23.797   3.228
52978W        W26046  13.853  36.485   3.664
52979W        W26047   7.451  29.944  11.148
52980W        W26048  40.832  23.595  13.949
52981W        W26049  34.611  38.420  10.529
52982W        W26050  33.016  44.709  11.792
52983W        W26051  41.140  22.688  14.713
52984W        W26052  26.445  34.909  12.188
52985W        W26053  28.634  13.027   1.333
52986W        W26054   2.561  28.170   0.367
52987W        W26055  31.841  41.213  13.666
52988W        W26056  44.020  37.002   0.909
52989W        W26057  12.550   5.937  11.935
52990W        W26058  31.067  21.799   0.866
52991W        W26059  33.141  22.208  13.214
52992W        W26060  31.691  26.643  11.779
52993W        W26061  33.155  41.633   3.497
52994W        W26062   4.720  23.465   3.325
52995W        W26063   5.351   9.178  14.516
52996W        W26064  22.132   9.593  11.047
52997W        W26065  23.041  43.956   2.924
52998W        W26066   7.087  26.536  10.703
52999W        W26067   3.084  39.485  11.685
53000W        W26068  16.481   2.798  12.915
53001W        W26069  22.778  40.282   0.423
53002W        W26070   6.188  36.366   3.693
53003W        W26071  25.112   6.859   1.771
53004W        W26072  43.822  20.777  14.391
53005W        W26073  33.143  21.930  11.116
53006W        W26074  36.859  11.139   4.555
53007W        W26075  41.811   8.702  14.437
53008W        W26076  18.726   1.345  10.233
53009W        W26077   3.397  41.622   3.591
53010W        W26078   5.680   8.212  11.058
53011W        W26079  31.094  20.100  10.673
53012W        W26080  10.881   1.170   1.170
53013W        W26081  38.257  40.041   4.411
53014W        W26082   8.295  35.133   0.882
53015W        W26083  16.381   4.682  13.028
53016W        W26084  42.979  33.370  11.661
53017W        W26085  14.118  16.314  12.474
53018W        W26086  15.960  13.322  12.652
53019W        W26087  22.773   8.932   4.603
53020W        W26088  22.270  41.000  11.515
53021W        W26089   6.822   8.258  12.630
53022W        W26090   5.399   9.176   2.371
53023W        W26091  26.410   6.816  14.370
53024W        W26092  37.840   3.836  13.517
53025W        W26093   1.679  38.423   4.722
53026W        W26094   0.302  33.127   0.482
53027W        W26095  24.058  19.249   3.642
53028W        W26096   1.908  10.336   4.309
53029W        W26097  16.991  12.280   1.950
53030W        W26098   7.845   1.042   5.001
53031W        W26099  16.198  12.105   1.359
53032W        W26100  29.551  29.991  14.873
53033W        W26101  36.278  17.678  12.068
53034W        W26102   2.961  42.443  10.579
53035W        W26103  44.454   1.620  10.661
53036W        W26104  12.278  23.051   3.584
53037W        W26105  42.755  37.378  11.822
53038W        W26106   1.939  29.680   4.344
53039W        W26107  43.540   1.403  12.110
53040W        W26108  37.116  35.019  10.842
53041W        W26109  41.048  19.807  13.372
53042W        W26110  42.507   4.672   3.154
53043W        W26111  23.939  37.701  11.272
53044W        W26112  11.932  33.465  11.617
53045W        W26113   2.024  43.230  14.002
53046W        W26114  36.498  15.753  13.728
53047W        W26115  11.848  36.765   2.894
53048W        W26116  17.264  35.483  13.757
53049W        W26117  15.495  31.539   1.360
53050W        W26118  30.990  30.646   2.659
53051W        W26119   2.836  39.171   3.951
53052W        W26120  26.007  21.612   2.641
53053W        W26121  23.024  31.295   2.645
53054W        W26122  29.227  26.032  11.965
53055W        W26123  17.584  23.731  10.784
53056W        W26124  22.941  30.007   1.750
53057W        W26125   6.920  32.366   1.962
53058W        W26126  12.293  24.892   1.235
53059W        W26127  42.418  36.776  12.998
53060W        W26128  22.064  18.479   3.832
53061W        W26129   9.685  21.358  10.797
53062W        W26130   6.528  18.847  11.024
53063W        W26131  10.225  18.202  11.324
53064W        W26132  12.161  35.343   1.034
53065W        W26133  12.823  14.282   2.741
53066W        W26134  32.459  23.076   1.121
53067W        W26135  22.613  44.710   3.688
53068W        W26136   7.376   2.458   0.781
53069W        W26137   3.960  42.812   1.676
53070W        W26138   5.756   1.835  11.725
53071W        W26139  42.149  12.717  10.530
53072W        W26140  28.550   3.146   2.425
53073W        W26141   2.410   0.196  13.806
53074W        W26142  23.556  15.367   0.480
53075W        W26143  22.061  27.602  13.971
53076W        W26144  23.803  19.591  11.022
53077W        W26145  18.725   5.347  12.554
53078W        W26146  10.213  34.817  13.875
53079W        W26147  14.849  24.122   3.135
53080W        W26148  11.887   2.158  12.099
53081W        W26149  42.490  38.087   2.710
53082W        W26150  27.181  33.070  13.470
53083W        W26151  31.433  29.536   4.366
53084W        W26152   9.176   0.301  14.008
53085W        W26153  33.495  17.461  10.878
53086W        W26154  38.296  25.820  14.288
53087W        W26155   9.283  21.077  10.047
53088W        W26156   4.847   9.180  12.763
53089W        W26157  22.667   5.407   4.238
53090W        W26158  27.925   9.651   1.970
53091W        W26159   8.533  18.112  12.062
53092W        W26160  39.323  12.834   4.495
53093W        W26161  39.842  33.121   1.698
53094W        W26162  12.142   5.709  12.953
53095W        W26163  20.747  31.944   4.908
53096W        W26164   1.493  32.587  11.567
53097W        W26165  25.691  29.499   0.499
53098W        W26166  21.829   5.160   3.225
53099W        W26167  28.507  30.925  11.997
53100W        W26168  31.484  14.835   1.291
53101W        W26169  25.055  29.616  11.968
53102W        W26170  19.808  15.270  11.123
53103W        W26171  26.618   5.401  12.587
53104W        W26172  38.846   2.013   1.424
53105W        W26173  37.448  23.503   1.205
53106W        W26174  42.758  39.040  12.908
53107W        W26175  20.802  27.950   3.127
53108W        W26176  26.620   8.441   4.563
53109W        W26177  31.981  35.950   1.804
53110W        W26178  38.262  30.573  10.571
53111W        W26179  16.779   6.689   2.656
53112W        W26180  40.549  17.051  10.763
53113W        W26181  20.803  36.567   3.600
53114W        W26182   2.897  38.117   3.108
53115W        W26183  39.961   2.776  12.989
53116W        W26184  30.936  25.101   0.186
53117W        W26185  13.168  43.313   2.328
53118W        W26186  16.017   0.982  13.577
53119W        W26187  43.556  27.708  14.842
53120W        W26188   2.488   3.877   1.777
53121W        W26189  13.695   0.063   3.676
53122W        W26190  12.699   8.921  14.849
53123W        W26191  41.008  10.228   0.672
53124W        W26192   3.852  22.057  11.222
53125W        W26193  20.575  21.626  12.640
53126W        W26194  26.662  40.436  10.964
53127W        W26195  17.663  10.564   4.930
53128W        W26196  32.708  10.172   3.173
53129W        W26197  43.536  34.869  13.331
53130W        W26198  39.267  24.411  12.077
53131W        W26199  19.292   6.582  12.971
53132W        W26200   8.100  14.671   4.512
53133W        W26201  19.481  13.558   4.323
53134W        W26202  15.592  37.751   1.768
53135W        W26203  25.073  44.856   0.510
53136W        W26204   6.171  36.904   1.624
53137W        W26205   8.645   7.421  13.038
53138W        W26206  30.035  15.857  13.299
53139W        W26207  24.036   8.850  14.324
53140W        W26208  11.870  17.797  13.898
53141W        W26209   1.957  14.155  14.197
53142W        W26210  16.481  19.840  14.284
53143W        W26211  19.666  10.924  11.211
53144W        W26212  26.065  23.476   0.089
53145W        W26213  28.254  34.444  11.689
53146W        W26214   4.843  13.599  12.878
53147W        W26215   9.626  24.553   4.062
53148W        W26216  11.039   3.872  12.385
53149W        W26217  17.576   4.837   0.255
53150W        W26218  41.914  36.085  12.929
53151W        W26219  20.576  19.274   2.168
53152W        W26220  44.162  23.061   4.667
53153W        W26221  15.768   5.680   2.710
53154W        W26222  26.272   0.241  11.158
53155W        W26223  16.067  41.270   1.590
53156W        W26224  26.771   8.928   4.712
53157W        W26225  10.177  19.845  13.858
53158W        W26226   6.316  43.797  14.103
53159W        W26227  12.293   7.679  14.337
53160W        W26228   6.828   4.717  11.587
53161W        W26229  41.771   3.781   2.205
53162W        W26230  36.063  10.129  12.450
53163W        W26231  11.586  30.938  12.045
53164W        W26232   8.516   2.333  13.010
53165W        W26233  39.824  18.236   0.517
53166W        W26234   9.325  40.939  13.159
53167W        W26235  17.920  30.193   1.783
53168W        W26236  21.663  27.061  12.627
53169W        W26237   8.707  23.063   1.732
53170W        W26238   8.890  27.218   2.279
53171W        W26239   3.430  22.596  12.454
53172W        W26240  18.145  42.082   0.965
53173W        W26241  14.816  20.026  12.719
53174W        W26242  29.431  20.642   2.908
53175W        W26243  33.208   0.000  12.623
53176W        W26244  29.689   6.815   2.148
53177W        W26245  28.929  21.956  11.987
53178W        W26246   2.328  32.238  10.013
53179W        W26247  37.277  36.307   0.943
53180W        W26248  13.786  17.743   3.127
53181W        W26249  24.175  34.301   4.331
53182W        W26250  11.353   6.608  12.491
53183W        W26251  31.253   6.206   0.706
53184W        W26252  10.625  17.944   1.207
53185W        W26253  33.592  32.723  13.797
53186W        W26254  16.716   8.907   0.830
53187W        W26255  35.438  12.588   0.534
53188W        W26256  28.404   0.208   2.646
53189W        W26257  32.611  18.448   1.067
53190W        W26258  14.610   3.415  12.880
53191W        W26259  31.605   9.791  11.943
53192W        W26260  20.753   1.809  14.332
53193W        W26261   7.916  24.014   1.846
53194W        W26262  37.962  19.525   3.078
53195W        W26263   0.021  21.081   4.830
53196W        W26264  10.214   9.497   4.959
53197W        W26265  14.668  23.689  10.645
53198W        W26266  39.522  31.692  10.738
53199W        W26267  24.233  12.703   4.083
53200W        W26268  20.022   5.318   4.520
53201W        W26269  25.211  41.615   0.695
53202W        W26270  44.439  34.633  13.409
53203W        W26271   8.336   9.858   3.607
53204W        W26272   6.757  36.806   2.740
53205W        W26273  32.704  44.089   1.020
53206W        W26274  42.480  15.694   3.306
53207W        W26275  40.837  13.176  11.134
53208W        W26276  37.561   7.506  10.319
53209W        W26277  28.983  13.812   4.219
53210W        W26278  13.581  37.071  12.106
53211W        W26279  29.643   5.371  13.019
53212W        W26280  22.820  21.276   0.441
53213W        W26281  22.088  34.169  14.186
53214W        W26282  38.363  26.824   1.994
53215W        W26283  21.906  35.447  13.271
53216W        W26284   5.960  43.015   1.179
53217W        W26285  31.680  13.226   2.320
53218W        W26286  42.224  38.526   1.706
53219W        W26287  19.604  27.824  13.704
53220W        W26288  16.583  22.879   1.164
53221W        W26289   3.266  16.787  12.479
53222W        W26290  14.806  29.996   0.806
53223W        W26291  20.162  14.590  10.763
53224W        W26292  11.225  28.278  10.824
53225W        W26293  36.893  37.530   1.377
53226W        W26294  31.539  31.442   4.069
53227W        W26295  36.854  42.923  12.503
53228W        W26296  25.580  41.591   2.397
53229W        W26297  14.842  39.977   3.227
53230W        W26298   0.549   3.313   5.071
53231W        W26299  29.132  24.716   2.860
53232W        W26300  16.127   6.237   4.679
53233W        W26301   0.371  43.843  14.318
53234W        W26302  16.976   9.315  12.571
53235W        W26303  29.430   0.895  14.548
53236W        W26304   5.161   6.105   0.317
53237W        W26305  40.287  35.431   1.564
53238W        W26306  18.252  21.058  15.000
53239W        W26307   1.277  27.942  14.883
53240W        W26308   9.892  41.810   4.647
53241W        W26309  24.259  41.559   1.296
53242W        W26310  35.628  16.618   1.899
53243W        W26311   5.114   9.382   1.981
53244W        W26312  14.165  34.045   4.578
53245W        W26313  40.822  17.150   3.754
53246W        W26314  36.842  42.712   3.696
53247W        W26315   5.294  34.296  13.954
53248W        W26316   4.353  34.016  12.662
53249W        W26317  41.791  18.986   2.632
53250W        W26318  18.983  36.055  13.984
53251W        W26319   6.503  27.071   4.046
53252W        W26320  27.736   5.878   2.249
53253W        W26321  10.178  42.364   2.650
53254W        W26322  19.790  38.509   3.606
53255W        W26323  28.694  40.379   0.254
53256W        W26324   3.917  25.017  11.668
53257W        W26325  28.002  25.995  14.149
53258W        W26326   4.298  20.206  10.465
53259W        W26327  38.370  13.195   3.658
53260W        W26328  12.071   8.352   5.103
53261W        W26329  17.874  18.158   2.945
53262W        W26330   4.755   7.690  10.710
53263W        W26331  29.873  41.979   1.816
53264W        W26332  11.587   7.926  12.428
53265W        W26333  42.308  13.644   4.601
53266W        W26334  43.253  18.080   2.375
53267W        W26335  28.770  37.809  13.467
53268W        W26336  12.576   2.723   1.249
53269W        W26337  32.316  20.669  11.769
53270W        W26338  12.800  30.046  11.468
53271W        W26339  15.952  18.611  12.452
53272W        W26340  37.016  41.368  11.545
53273W        W26341  13.225  30.462   4.321
53274W        W26342  21.280   2.394  10.660
53275W        W26343  29.684  33.642   4.117
53276W        W26344  34.704  33.132   0.852
53277W        W26345   2.752   5.828   2.317
53278W        W26346   5.931  20.288  11.110
53279W        W26347  16.656   7.820  14.000
53280W        W26348  29.176  15.805   3.343
53281W        W26349  16.718  32.208  10.665
53282W        W26350   5.351   2.316   1.836
53283W        W26351  14.368  31.106   1.177
53284W        W26352  22.792   6.694   1.945
53285W        W26353  26.917  41.862  12.098
53286W        W26354  43.473  16.099   1.205
53287W        W26355  13.145  13.725  14.639
53288W        W26356  14.642  43.406   4.417
53289W        W26357  12.681  12.867   1.616
53290W        W26358  42.410  34.042   3.813
53291W        W26359  28.151  38.453  10.718
53292W        W26360  38.386  30.860   1.321
53293W        W26361  37.396   9.955   1.312
53294W        W26362  26.867  26.838   1.918
53295W        W26363  19.160  36.430   1.593
53296W        W26364  31.656  44.262  12.436
53297W        W26365  15.661  42.458   4.400
53298W        W26366  35.354  27.847  13.798
53299W        W26367   6.773  22.486   0.493
53300W        W26368  10.696  28.473   2.733
53301W        W26369  21.967  27.694  12.170
53302W        W26370  42.061  15.133  12.503
53303W        W26371  44.785   0.771   0.530
53304W        W26372  30.451  41.314   4.561
53305W        W26373  22.065   9.563   2.674
53306W        W26374  23.648   0.756  11.065
53307W        W26375  32.339  42.300  11.001
53308W        W26376  33.351  21.057  13.411
53309W        W26377  10.895  41.826  12.384
53310W        W26378  23.129  32.501   1.730
53311W        W26379  34.340  25.147  13.032
53312W        W26380  20.046  15.235  13.574
53313W        W26381  19.764  36.038  10.549
53314W        W26382  32.069  35.456  13.580
53315W        W26383  19.175  26.802  12.069
53316W        W26384  30.868  22.675   3.338
53317W        W26385  36.564  35.926   0.138
53318W        W26386  40.085  17.306   1.203
53319W        W26387  43.896  30.694  14.113
53320W        W26388  15.941  15.202   0.938
53321W        W26389  17.252  34.321   1.517
53322W        W26390  38.895   2.406  12.461
53323W        W26391  32.904   0.571  14.124
53324W        W26392  30.292   6.261  11.559
53325W        W26393  22.342   6.873   2.159
53326W        W26394   1.175  19.685   4.352
53327W        W26395  20.067  33.034   0.026
53328W        W26396   6.796  37.827   1.856
53329W        W26397  19.576  10.805  12.209
53330W        W26398  13.232  14.560  14.253
53331W        W26399  22.037  29.068  10.741
53332W        W26400  43.789   9.475   3.690
53333W        W26401  31.898  38.698   4.148
53334W        W26402  10.542  22.840   3.409
53335W        W26403  35.401  19.799   0.265
53336W        W26404  41.426  28.424  12.483
53337W        W26405  43.366  30.417  10.728
53338W        W26406  25.784  27.260  12.872
53339W        W26407  37.116   7.935   4.269
53340W        W26408  20.058  10.141  12.488
53341W        W26409  20.788  29.835  12.829
53342W        W26410  30.383  12.636   3.611
53343W        W26411   0.291  20.913  12.762
53344W        W26412  39.322   6.327   1.269
53345W        W26413  32.060  30.350  12.621
53346W        W26414  26.125   7.781  11.096
53347W        W26415   1.835  15.230  11.471
53348W        W26416  17.255   9.125  13.386
53349W        W26417  18.737  11.214   4.356
53350W        W26418  16.606  11.164   0.290
53351W        W26419  11.685  23.309   0.750
53352W        W26420  38.558  42.370   1.205
53353W        W26421  31.574  34.407   0.432
53354W        W26422   4.715  14.153   1.309
53355W        W26423  24.574  10.824   4.852
53356W        W26424  34.347  37.403  12.427
53357W        W26425  12.169   8.445  13.828
53358W        W26426  22.043   2.372  14.364
53359W        W26427   2.837  37.414  11.866
53360W        W26428  44.988  21.770   0.495
53361W        W26429  17.732  21.687  11.895
53362W        W26430  37.539  44.263   0.330
53363W        W26431  16.611   5.182   3.439
53364W        W26432  25.209   5.280   2.754
53365W        W26433  13.752   8.793  14.573
53366W        W26434  39.276  36.914  11.950
53367W        W26435   4.871  33.564   4.721
53368W        W26436  18.436  20.271  12.795
53369W        W26437  16.163  30.711   0.835
53370W        W26438   6.829  34.921   3.237
53371W        W26439  30.342  27.729   3.693
53372W        W26440  21.194  21.067   1.832
53373W        W26441  40.777  38.783   5.277
53374W        W26442  33.611  39.826   4.480
53375W        W26443  36.043  42.309   2.750
53376W        W26444  24.091  20.941  13.365
53377W        W26445  43.763  23.777  14.973
53378W        W26446   4.249  23.242   1.860
53379W        W26447   8.883  31.569  12.104
53380W        W26448  11.694  11.208  13.033
53381W        W26449  16.551  16.760  13.847
53382W        W26450  11.551  23.065  14.409
53383W        W26451  41.239  19.123   0.268
53384W        W26452  36.089   3.203   4.751
53385W        W26453  33.570  10.210  14.434
53386W        W26454  20.869  28.601   0.348
53387W        W26455  38.013  11.323  10.964
53388W        W26456  32.420  24.029   2.675
53389W        W26457  26.236  35.574   3.305
53390W        W26458  25.187  20.571  13.856
53391W        W26459   2.662  29.982   4.655
53392W        W26460   5.859  14.858  11.395
53393W        W26461  17.344  33.453  10.766
53394W        W26462  28.126  28.422  14.402
53395W        W26463  21.755  29.866   3.493
53396W        W26464  43.285  26.981  10.198
53397W        W26465  42.841  22.980   0.276
53398W        W26466  34.334  33.786  11.426
53399W        W26467  38.566   3.333   0.491
53400W        W26468  15.408  38.843  14.615
53401W        W26469  38.347   1.416   1.276
53402W        W26470  14.113  14.595  11.961
53403W        W26471   8.653  23.606  14.484
53404W        W26472  13.823  23.286   2.266
53405W        W26473  43.639  14.020  12.357
53406W        W26474  19.815  44.735  13.810
53407W        W26475   2.552  41.506   1.184
53408W        W26476  20.259   1.190   3.412
53409W        W26477  20.022  41.922   3.208
53410W        W26478  25.067  25.601   2.850
53411W        W26479   4.690   6.907  13.540
53412W        W26480   5.255  20.036  13.167
53413W        W26481   0.316  28.956   1.300
53414W        W26482  40.379  33.671   3.621
53415W        W26483   9.337   9.218   0.987
53416W        W26484   4.643  40.796  13.840
53417W        W26485  23.586  28.566   2.687
53418W        W26486  20.497  29.485   4.729
53419W        W26487  30.409  19.646   1.204
53420W        W26488  10.687  33.439   0.306
53421W        W26489  30.164  14.066  12.525
53422W        W26490  20.953  13.037  10.484
53423W        W26491  28.891  33.643   4.604
53424W        W26492  31.432  35.418  12.618
53425W        W26493  22.683  20.720  13.595
53426W        W26494  17.137  31.651   3.503
53427W        W26495  21.116  28.237  10.706
53428W        W26496  27.621  43.366   0.517
53429W        W26497  36.331  11.788   0.377
53430W        W26498   6.687   2.580   0.384
53431W        W26499  33.737  42.082  14.371
53432W        W26500  16.234  16.074   3.144
53433W        W26501  31.481  34.462  11.068
53434W        W26502  24.950   9.720  10.675
53435W        W26503  15.221  12.819  14.374
53436W        W26504  12.868  29.267  11.185
53437W        W26505  14.342  44.286   4.043
53438W        W26506   3.451  13.240  14.425
53439W        W26507  18.576  22.808   1.707
53440W        W26508  43.435   3.421   2.362
53441W        W26509  13.375  30.599  11.842
53442W        W26510   2.950   1.193  11.887
53443W        W26511  24.214   9.585   4.991
53444W        W26512  25.620  31.204   4.058
53445W        W26513  21.811  12.252   0.489
53446W        W26514  12.602  41.008  14.775
53447W        W26515  27.649  31.549   2.271
53448W        W26516  18.418  18.354  11.130
53449W        W26517  37.225  32.614   5.185
53450W        W26518  42.167   0.206  11.605
53451W        W26519  40.041  12.695  11.174
53452W        W26520  15.172  18.014  12.708
53453W        W26521  42.933  25.918  14.936
53454W        W26522  10.702  37.459   4.118
53455W        W26523   8.820   7.239  10.202
53456W        W26524  36.401  27.486  12.847
53457W        W26525  38.445  11.166  10.702
53458W        W26526  22.519  18.697   0.768
53459W        W26527   3.827  33.289   1.466
53460W        W26528  42.871   8.907   3.676
53461W        W26529  16.178  13.400   2.142
53462W        W26530  36.561  36.269   4.652
53463W        W26531  13.587   4.336   3.624
53464W        W26532   3.522   0.258  14.944
53465W        W26533  25.127  31.438  10.918
53466W        W26534  10.966  21.968  12.167
53467W        W26535   9.376   8.124  14.082
53468W        W26536  17.060  21.661  14.314
53469W        W26537  10.895  32.014   0.576
53470W        W26538  23.445  15.112   0.019
53471W        W26539  18.770  29.713  11.132
53472W        W26540   7.781   4.284   3.205
53473W        W26541  21.541  41.080   0.684
53474W        W26542  14.549  36.590   0.684
53475W        W26543  38.886  17.613  14.991
53476W        W26544  29.545   3.933   3.807
53477W        W26545  23.119  31.897  13.549
53478W        W26546  40.916  39.829  11.584
53479W        W26547  15.291  38.079   2.475
53480W        W26548   4.501  13.775   0.308
53481W        W26549  16.474  25.049   2.854
53482W        W26550   1.040  20.161   4.118
53483W        W26551  34.994  12.162   2.782
53484W        W26552   9.669   3.987   0.493
53485W        W26553   7.828  44.493  11.157
53486W        W26554  16.206  28.641  10.334
53487W        W26555   7.205  25.487  14.874
53488W        W26556  35.968  20.014  14.341
53489W        W26557   0.407  38.238  11.006
53490W        W26558   3.791  44.515   4.883
53491W        W26559  23.778   2.461   0.197
53492W        W26560  23.216   8.144   4.393
53493W        W26561  25.007  31.891   2.407
53494W        W26562  33.976   3.970   4.461
53495W        W26563  13.735  35.372  10.331
53496W        W26564  27.260  23.508  13.350
53497W        W26565  31.902  17.133  11.580
53498W        W26566  39.812  30.086  13.300
53499W        W26567  26.959  30.646  10.743
53500W        W26568  15.776  44.991  14.000
53501W        W26569  17.081  44.725  11.636
53502W        W26570  28.007   4.425   2.244
53503W        W26571   5.595  32.546  14.891
53504W        W26572  44.029  16.754  12.463
53505W        W26573  17.166   9.624  13.552
53506W        W26574  37.364  28.562  12.823
53507W        W26575  24.517  25.571  13.278
53508W        W26576  19.013   1.187  11.093
53509W        W26577   1.390  30.511   4.528
53510W        W26578  15.574   0.845   1.193
53511W        W26579  17.279  19.488  11.903
53512W        W26580  33.892   9.586   4.532
53513W        W26581  15.720   8.109   2.671
53514W        W26582  34.900   1.804  13.460
53515W        W26583   0.131  20.766  14.965
53516W        W26584  29.945  31.543  13.850
53517W        W26585   1.931   8.931  11.901
53518W        W26586   2.009  27.983   2.348
53519W        W26587   3.850   0.341  12.367
53520W        W26588  11.240  12.229  14.284
53521W        W26589  31.988   6.426  13.776
53522W        W26590  17.967  24.738   1.406
53523W        W26591   6.281  13.273   4.222
53524W        W26592  23.534  17.834  12.526
53525W        W26593  26.010  44.010  13.562
53526W        W26594  25.038   0.520  14.403
53527W        W26595  37.361  25.726  12.557
53528W        W26596  25.539   7.393   1.752
53529W        W26597  10.916  10.680   3.122
53530W        W26598  13.198  10.686  14.349
53531W        W26599   2.984  21.579  11.454
53532W        W26600   6.581  21.526   4.798
53533W        W26601  11.418  23.098   0.363
53534W        W26602  10.669   7.126  13.853
53535W        W26603  30.870  10.801   0.946
53536W        W26604   2.027  31.844   4.640
53537W        W26605  14.154  35.414   1.454
53538W        W26606  39.125  39.252  12.951
53539W        W26607   4.835  24.041  13.414
53540W        W26608  41.888  13.485   9.907
53541W        W26609   1.392   1.934  10.866
53542W        W26610  18.795  27.934   2.105
53543W        W26611   8.623  28.898   1.964
53544W        W26612  10.797   5.630   0.058
53545W        W26613  13.386  16.282   3.534
53546W        W26614  10.245  39.385   1.240
53547W        W26615   1.915  29.522   2.443
53548W        W26616   6.975   5.062   2.823
53549W        W26617  41.724  36.315   4.159
53550W        W26618  21.709  35.814  14.566
53551W        W26619  17.020   9.626   4.106
53552W        W26620  23.188  20.529  12.891
53553W        W26621   3.707  14.296   1.248
53554W        W26622  19.148  10.674  13.062
53555W        W26623  25.715  36.603   0.304
53556W        W26624  10.763  25.034   3.745
53557W        W26625   7.824  39.634   1.405
53558W        W26626  14.782   0.896   0.996
53559W        W26627  17.928  40.256   4.888
53560W        W26628  39.777   9.209   2.665
53561W        W26629  20.661  15.757   2.957
53562W        W26630  23.978  39.610   3.639
53563W        W26631  14.596   8.748   1.243
53564W        W26632  24.577  16.134  12.465
53565W        W26633  18.231  26.245  10.701
53566W        W26634  13.179  29.653   4.720
53567W        W26635  44.901  29.319   1.441
53568W        W26636  13.104   3.751  11.578
53569W        W26637  34.059  37.776   0.458
53570W        W26638  12.091  11.854   2.210
53571W        W26639  38.284   5.250   1.973
53572W        W26640  11.229  17.463   4.944
53573W        W26641   2.876  23.293  10.891
53574W        W26642  22.004  33.654  11.200
53575W        W26643  26.123  10.149   1.414
53576W        W26644  36.451   4.940   4.801
53577W        W26645   5.146   9.056   4.223
53578W        W26646  36.556  13.774  12.897
53579W        W26647  13.654  28.011  14.047
53580W        W26648  11.925  18.131  14.374
53581W        W26649  41.320  37.140  11.191
53582W        W26650  26.274  14.354   2.398
53583W        W26651  28.096  36.758  12.825
53584W        W26652  39.484  40.505   4.906
53585W        W26653   9.644  44.765   1.591
53586W        W26654  43.005  20.566  13.910
53587W        W26655  42.456   8.972  12.526
53588W        W26656  15.217  33.973   1.257
53589W        W26657   7.613  20.244  10.665
53590W        W26658   5.737  15.587   3.858
53591W        W26659  32.578  17.801  13.829
53592W        W26660  33.073  11.463  14.898
53593W        W26661  36.592  31.357   5.091
53594W        W26662   3.748   2.537   4.624
53595W        W26663  14.866  11.297   4.226
53596W        W26664  20.674   6.375   3.262
53597W        W26665  39.980   0.828  10.719
53598W        W26666  17.020  13.064   4.117
53599W        W26667  34.536  22.714   0.797
53600W        W26668   0.406   8.799  14.146
53601W        W26669  41.971  41.034   2.633
53602W        W26670  37.502   3.195   0.341
53603W        W26671  17.992  24.098   3.100
53604W        W26672   3.939  11.031   0.940
53605W        W26673  43.455  13.778  14.023
53606W        W26674  44.042  19.093  11.617
53607W        W26675  33.042  21.123  13.875
53608W        W26676  19.569  39.267  11.516
53609W        W26677  40.446  16.033  14.600
53610W        W26678  27.940  41.528   1.345
53611W        W26679  25.077  39.117  11.004
53612W        W26680  18.801  14.300   0.174
53613W        W26681   4.717  14.738  10.679
53614W        W26682  30.447  25.543  14.529
53615W        W26683  16.207   2.566   4.626
53616W        W26684  12.886  12.301   0.487
53617W        W26685  15.314  42.843  12.986
53618W        W26686   5.891   5.882  10.690
53619W        W26687  35.090   7.751  13.658
53620W        W26688  16.437  12.364  12.828
53621W        W26689  28.501  14.318   3.691
53622W        W26690  38.736  29.877  11.683
53623W        W26691   3.211  20.792   1.652
53624W        W26692  21.130  44.367  13.756
53625W        W26693   8.746  42.994   4.559
53626W        W26694   2.369   4.517   0.934
53627W        W26695   0.389  21.222  14.832
53628W        W26696  44.247  16.051  13.772
53629W        W26697  17.111  42.948  11.337
53630W        W26698   7.344  18.544  12.955
53631W        W26699   9.909  39.294   0.858
53632W        W26700  28.148   6.205  10.548
53633W        W26701  41.132  16.217  10.671
53634W        W26702  32.862  13.517  12.142
53635W        W26703   7.876  36.609   4.871
53636W        W26704  28.415  22.716  13.010
53637W        W26705  38.286  22.391  11.986
53638W        W26706  30.896   7.449   1.712
53639W        W26707  37.837   4.769  11.961
53640W        W26708  32.037  39.882   0.430
53641W        W26709  30.077  44.279  11.632
53642W        W26710   6.433   3.478  12.949
53643W        W26711  40.362  41.801   0.498
53644W        W26712  40.362  10.576   3.282
53645W        W26713  37.447   3.220  11.455
53646W        W26714  37.909  26.534  12.295
53647W        W26715  27.334   1.990  14.617
53648W        W26716  39.479  30.657  14.940
53649W        W26717  44.667  35.355   4.540
53650W        W26718  30.903  42.163   0.939
53651W        W26719  44.294  14.665  12.835
53652W        W26720   6.986  16.158   3.696
53653W        W26721  34.990  23.522  13.814
53654W        W26722   9.408  20.418  13.343
53655W        W26723  30.831  12.353  11.542
53656W        W26724   7.723  18.273   2.433
53657W        W26725  18.553  37.468  12.080
53658W        W26726  26.984  10.414   1.856
53659W        W26727  39.546  39.120   4.586
53660W        W26728  28.150  42.734   3.286
53661W        W26729  12.150  16.132  10.476
53662W        W26730  30.206   7.949   5.148
53663W        W26731  36.416  24.248   0.966
53664W        W26732  20.644  19.330  12.493
53665W        W26733   6.279  27.404   1.304
53666W        W26734  20.239  10.877  11.971
53667W        W26735  34.914  34.885  14.714
53668W        W26736  18.499  20.566   2.869
53669W        W26737   0.779  28.786   4.495
53670W        W26738  44.250   2.803   0.693
53671W        W26739  35.597   8.394   0.650
53672W        W26740  28.027   1.499  13.489
53673W        W26741  42.706  33.401  12.103
53674W        W26742  37.784  13.898  12.483
53675W        W26743   5.318  35.286   2.623
53676W        W26744  27.407   3.903  14.934
53677W        W26745  31.761   4.665  14.953
53678W        W26746   4.176  19.763   2.132
53679W        W26747  37.360   9.272  14.541
53680W        W26748  29.860  19.260  11.503
53681W        W26749  18.188  31.095  12.590
53682W        W26750  41.777   3.110   2.740
53683W        W26751  40.485  17.502   2.157
53684W        W26752   3.957  33.973   1.955
53685W        W26753  27.358  16.267  13.395
53686W        W26754  15.845  27.037  14.904
53687W        W26755  29.640   2.920  14.046
53688W        W26756  44.213  15.504  11.208
53689W        W26757   9.360  11.082  13.438
53690W        W26758  36.825   8.080   2.448
53691W        W26759  13.397  20.776  13.924
53692W        W26760  19.099  23.201  11.620
53693W        W26761  20.520   0.819  11.647
53694W        W26762  18.890  34.981  10.580
53695W        W26763   0.306  35.576  12.089
53696W        W26764  22.540  14.802   4.729
53697W        W26765   5.104  15.224   0.154
53698W        W26766  10.869   2.721   1.896
53699W        W26767  24.338  18.722  14.817
53700W        W26768  22.526  18.863  11.061
53701W        W26769   6.294  43.350   3.473
53702W        W26770  12.645  38.610   3.667
53703W        W26771  33.503   1.490   1.482
53704W        W26772  10.424  21.420   3.193
53705W        W26773  30.623   6.964  14.440
53706W        W26774  32.066   6.815  14.126
53707W        W26775  41.367  37.001  11.677
53708W        W26776  33.843  23.721  11.143
53709W        W26777  23.601   9.717   0.737
53710W        W26778  11.106  25.067  12.600
53711W        W26779  24.217  36.878   2.653
53712W        W26780  23.980  24.216  10.513
53713W        W26781  17.663  37.662  14.005
53714W        W26782  35.649  41.426   3.117
53715W        W26783  40.579   4.121   3.837
53716W        W26784   9.377  27.054  10.592
53717W        W26785  25.488  42.200   0.282
53718W        W26786   3.899  34.068   2.848
53719W        W26787  34.710  35.034   0.201
53720W        W26788  39.611  40.491  13.751
53721W        W26789   2.253  22.263  10.534
53722W        W26790   6.038  16.813   4.084
53723W        W26791  21.662  19.951  13.967
53724W        W26792  21.883  20.022  14.697
53725W        W26793   6.822  39.722  11.702
53726W        W26794  26.801  26.517   5.164
53727W        W26795   6.220  24.609  11.944
53728W        W26796   6.200  37.532   4.606
53729W        W26797  39.282  13.561  10.600
53730W        W26798  31.441  25.799   0.372
53731W        W26799  13.269  12.159  11.099
53732W        W26800  19.302  39.342   2.207
53733W        W26801   4.214  38.816  14.359
53734W        W26802   2.429  33.198   4.106
53735W        W26803   7.371   3.263  13.301
53736W        W26804   3.647   9.373  13.916
53737W        W26805   3.275  31.015  14.971
53738W        W26806  17.477   4.335   0.560
53739W        W26807  26.473  38.629  12.963
53740W        W26808   9.005   0.309   4.552
53741W        W26809  11.242  22.642  12.031
53742W        W26810   9.877  44.285  11.933
53743W        W26811  30.441  15.865  10.748
53744W        W26812  25.209  11.035  11.404
53745W        W26813  32.933  21.989   1.683
53746W        W26814  14.183  26.280   4.665
53747W        W26815  11.539  27.038  11.485
53748W        W26816   5.735  11.004  14.362
53749W        W26817  25.887  23.184   1.633
53750W        W26818  10.184  21.135   0.428
53751W        W26819  24.243  42.270  10.812
53752W        W26820  27.457  35.513  12.561
53753W        W26821  16.312   1.027  14.962
53754W        W26822  32.283  23.001   0.647
53755W        W26823  26.391  15.883   3.162
53756W        W26824  31.977  24.106   2.917
53757W        W26825  42.894  40.981   4.106
53758W        W26826  15.313   4.802   0.499
53759W        W26827   9.801  13.149  13.527
53760W        W26828  30.347  18.084  12.066
53761W        W26829  34.037  30.880  11.442
53762W        W26830  36.357   1.117  14.092
53763W        W26831  28.944  23.915   4.831
53764W        W26832  33.077  26.474   1.748
53765W        W26833  19.866  17.047   3.219
53766W        W26834   7.343  12.564  14.319
53767W        W26835  27.961  39.115  12.399
53768W        W26836  32.169  24.153   4.850
53769W        W26837  40.989   7.296   2.873
53770W        W26838  31.903   0.709   4.061
53771W        W26839  23.025  18.112  10.994
53772W        W26840   9.711   0.327   2.358
53773W        W26841  37.274  34.104   4.164
53774W        W26842  15.723  26.084   4.576
53775W        W26843   6.121   1.763   4.598
53776W        W26844  27.322  15.359  12.396
53777W        W26845  15.095  14.809   3.801
53778W        W26846  16.739  43.218   1.633
53779W        W26847  37.775   2.306  13.833
53780W        W26848  29.785   7.449   3.731
53781W        W26849   0.917  34.035   0.004
53782W        W26850  34.881   9.650   2.760
53783W        W26851  39.029  25.987  14.894
53784W        W26852  33.956  29.344  13.477
53785W        W26853  28.024  15.792  10.548
53786W        W26854  37.472  31.148  12.111
53787W        W26855  40.326  20.269   1.660
53788W        W26856  28.685  16.522  13.714
53789W        W26857  41.445  22.970  11.000
53790W        W26858  25.282  31.450  10.427
53791W        W26859   0.910  16.153  14.068
53792W        W26860  35.781  29.154   3.217
53793W        W26861  11.782  27.121   1.811
53794W        W26862  17.861  18.986   4.378
53795W        W26863  19.127  39.436   0.100
53796W        W26864   1.262  17.610  13.263
53797W        W26865  22.979   0.253  11.851
53798W        W26866  41.791  43.933  10.830
53799W        W26867  35.395  41.309   4.516
53800W        W26868  29.961  20.010   4.217
53801W        W26869  21.628  19.534   4.694
53802W        W26870  14.966  27.717  11.627
53803W        W26871  23.293  14.876   1.289
53804W        W26872  13.368   1.936  13.006
53805W        W26873   6.180  32.077   3.564
53806W        W26874  28.735  32.134   1.328
53807W        W26875  26.176  16.640   2.690
53808W        W26876  23.766  13.709  14.847
53809W        W26877  35.554  21.699  13.823
53810W        W26878  31.106  21.007   0.324
53811W        W26879   3.703  31.868  14.684
53812W        W26880   0.583  39.487   1.503
53813W        W26881  21.664  42.513  14.854
53814W        W26882  14.585   7.747   3.038
53815W        W26883  42.341  15.701  10.485
53816W        W26884  41.450  15.567   2.275
53817W        W26885  44.167  18.530  12.787
53818W        W26886  30.929   9.274   0.338
53819W        W26887  43.974  33.525   0.279
53820W        W26888   9.879  20.624   3.228
53821W        W26889   8.838   0.705   3.812
53822W        W26890   2.305  21.045   4.927
53823W        W26891   7.525  20.483  12.993
53824W        W26892  32.004   1.753   4.167
53825W        W26893  22.485  21.920  11.891
53826W        W26894   8.287   8.384  11.619
53827W        W26895  16.782  26.383  14.937
53828W        W26896  39.460  22.660   4.449
53829W        W26897  27.050  33.078  13.979
53830W        W26898  38.048   4.936   2.336
53831W        W26899   9.832  19.218   5.153
53832W        W26900   3.038  12.615   3.035
53833W        W26901  26.130  38.882   2.673
53834W        W26902   5.251   5.937   1.724
53835W        W26903  28.038  14.231  12.398
53836W        W26904  27.404  35.671   4.261
53837W        W26905  25.035  15.421  13.863
53838W        W26906  35.614  27.983  11.133
53839W        W26907  30.150   0.436   3.306
53840W        W26908  23.978  22.582  14.225
53841W        W26909  17.016  21.808   3.752
53842W        W26910  43.937   0.720   1.840
53843W        W26911  41.731  24.984   1.722
53844W        W26912  22.424   5.360   4.747
53845W        W26913  32.376  32.189  14.985
53846W        W26914  14.197  23.047   4.305
53847W        W26915   6.897  34.492   3.552
53848W        W26916  22.554  17.169  10.684
53849W        W26917  31.124  16.668   2.697
53850W        W26918  22.130  10.889  12.477
53851W        W26919  34.610  20.029   4.798
53852W        W26920  32.892  30.535   4.299
53853W        W26921  40.908   4.692   3.715
53854W        W26922  23.199  23.268   4.491
53855W        W26923   4.735  18.721   4.630
53856W        W26924  14.645   5.490   3.646
53857W        W26925  15.816   7.125   3.822
53858W        W26926  20.640  28.625   2.860
53859W        W26927  38.544  34.389   3.215
53860W        W26928  18.880   7.841  12.399
53861W        W26929  35.093  18.064   0.908
53862W        W26930  11.955  27.876  11.971
53863W        W26931  20.032  16.514   3.618
53864W        W26932  33.113  19.166  10.426
53865W        W26933   1.858  32.081  14.348
53866W        W26934   3.853  22.434  11.593
53867W        W26935   0.484  27.003   2.143
53868W        W26936   7.715  14.869   0.829
53869W        W26937   4.689   0.736   1.873
53870W        W26938  22.686  42.966  12.068
53871W        W26939   8.128   8.173   2.491
53872W        W26940  34.950   8.003   2.383
53873W        W26941  23.965  38.819  13.969
53874W        W26942  33.756  23.246  14.085
53875W        W26943  38.573   3.740  13.944
53876W        W26944  17.130  29.152  14.877
53877W        W26945  25.198  16.206   1.756
53878W        W26946   0.533  11.562  12.355
53879W        W26947  17.628  11.787  14.929
53880W        W26948  44.850  21.965  13.362
53881W        W26949  41.560  38.183   1.133
53882W        W26950  23.223  22.247  13.568
53883W        W26951  44.789  40.985  11.084
53884W        W26952   4.894  14.455   1.775
53885W        W26953   3.327  39.401  11.252
53886W        W26954  36.298  19.580  10.336
53887W        W26955  42.308  16.290   9.760
53888W        W26956  28.761  35.806   0.010
53889W        W26957   6.471  42.534   2.210
53890W        W26958  39.936  22.414   4.129
53891W        W26959  29.234  43.600   4.851
53892W        W26960  20.555  31.170   1.432
53893W        W26961  26.257  29.856   2.324
53894W        W26962   7.838  32.235   5.067
53895W        W26963  27.587  31.866  12.016
53896W        W26964   7.783  23.706   4.408
53897W        W26965  43.817  28.026  13.900
53898W        W26966  11.123  39.310  11.063
53899W        W26967  36.147  15.319   3.247
53900W        W26968  17.806   3.450  11.124
53901W        W26969   5.197  32.990  11.020
53902W        W26970  16.553   8.006  13.066
53903W        W26971  34.652   7.397  12.473
53904W        W26972  18.342   8.996   2.650
53905W        W26973  27.681  17.555   3.191
53906W        W26974  20.213  40.843   2.763
53907W        W26975  34.342   8.804   3.577
53908W        W26976   6.713  16.214   0.947
53909W        W26977  29.663  21.460  14.911
53910W        W26978   5.435  26.019   0.044
53911W        W26979   7.748  38.779   1.751
53912W        W26980  36.056  21.529   4.190
53913W        W26981  20.255  33.384  11.238
53914W        W26982   6.376  20.785   4.047
53915W        W26983  23.959  42.858  11.617
53916W        W26984  19.856  12.402   3.024
53917W        W26985   3.457  35.161   1.866
53918W        W26986  17.751  25.056  11.181
53919W        W26987  38.029  27.077  12.388
53920W        W26988  44.350  14.761  14.741
53921W        W26989  41.817   4.289   0.671
53922W        W26990  39.257  38.318   4.165
53923W        W26991  20.988   1.420   4.657
53924W        W26992  32.994   1.667   2.713
53925W        W26993  10.280  30.128   4.103
53926W        W26994  11.944   5.278  13.532
53927W        W26995  26.909   6.720   3.742
53928W        W26996  22.378  41.785   5.046
53929W        W26997  28.766  25.976   3.222
53930W        W26998  44.315  16.973   9.894
53931W        W26999  32.650  13.437   0.210
53932W        W27000   6.683  42.046  11.217
53933W        W27001  20.201  42.926   3.292
53934W        W27002   5.892  32.047  13.009
53935W        W27003   5.406   9.788  12.776
53936W        W27004  17.759  21.641   3.337
53937W        W27005  14.136   6.643   2.933
53938W        W27006  16.788  33.179   4.111
53939W        W27007  33.998  35.882  14.405
53940W        W27008  43.847  15.221   4.284
53941W        W27009  22.228  37.116   2.785
53942W        W27010  31.506  40.783  14.372
53943W        W27011  28.512   1.353  11.197
53944W        W27012  31.651  14.548  12.933
53945W        W27013  15.576  29.712   2.701
53946W        W27014  32.684  10.129  10.744
53947W        W27015  33.559  41.861   4.311
53948W        W27016  40.715   1.396  11.592
53949W        W27017   1.386  30.411   2.384
53950W        W27018   3.202  24.185   1.843
53951W        W27019  25.109   5.330   3.250
53952W        W27020  41.268  43.530  12.134
53953W        W27021  41.988  15.969   2.726
53954W        W27022  41.551  44.072  14.406
53955W        W27023  42.245  31.592   2.665
53956W        W27024  16.255   4.349  12.356
53957W        W27025  42.453  31.194  13.967
53958W        W27026  30.962  21.573  13.502
53959W        W27027  25.061  17.838   4.898
53960W        W27028  32.571  35.601   2.305
53961W        W27029  36.519  11.770   3.696
53962W        W27030  37.084  43.850   4.654
53963W        W27031  33.937  41.856  11.986
53964W        W27032  18.610   6.398   1.635
53965W        W27033   2.815  31.238   3.485
53966W        W27034  31.747  28.199  13.738
53967W        W27035  24.005  28.174  12.953
53968W        W27036  28.491   5.827   2.931
53969W        W27037   5.873  39.381  11.983
53970W        W27038  36.160  18.985  13.013
53971W        W27039  42.082  15.277  10.724
53972W        W27040  16.932  36.373   2.396
53973W        W27041  33.452  41.543  12.560
53974W        W27042  18.067  38.293   3.344
53975W        W27043  23.156  15.785  14.951
53976W        W27044  34.533  11.200  14.610
53977W        W27045  43.543  14.642  11.047
53978W        W27046  16.478  35.442   1.397
53979W        W27047  26.094   0.481   4.693
53980W        W27048  19.536   6.994  12.464
53981W        W27049  15.410  34.500  12.903
53982W        W27050   5.929  42.348  11.125
53983W        W27051  17.311  30.065  10.973
53984W        W27052  42.448  36.785   1.241
53985W        W27053  17.342  19.131  14.843
53986W        W27054  36.636  16.775  10.934
53987W        W27055  33.958   2.564   3.820
53988W        W27056  22.627  26.968  11.969
53989W        W27057  40.052  30.481   2.154
53990W        W27058  21.022  34.437  11.723
53991W        W27059   7.343  35.285  14.392
53992W        W27060   0.313  23.644  12.575
53993W        W27061  17.727  17.228   3.710
53994W        W27062  11.094  41.273   0.007
53995W        W27063  14.363  13.154  12.918
53996W        W27064  37.457  13.422   0.725
53997W        W27065   9.836  23.499  12.010
53998W        W27066   1.727   5.237   1.737
53999W        W27067  31.475   7.312   0.963
54000W        W27068  30.057  35.633   3.563
54001W        W27069  30.217   7.170  14.758
54002W        W27070  10.364   0.200   1.433
54003W        W27071   7.771  31.035   3.393
54004W        W27072  36.433  41.873   3.429
54005W        W27073   4.484  44.990  14.480
54006W        W27074  14.880  32.946  12.847
54007W        W27075  40.307  30.596   0.793
54008W        W27076  27.490  15.201  10.600
54009W        W27077   3.642   9.227   2.679
54010W        W27078  26.497  42.007  11.333
54011W        W27079  16.056  44.745  12.337
54012W        W27080   5.766  26.199   1.227
54013W        W27081  35.525  16.184   4.516
54014W        W27082  12.307  27.036   0.475
54015W        W27083  19.739   2.783  12.342
54016W        W27084  28.008  13.163  11.549
54017W        W27085   4.448  37.013   4.143
54018W        W27086  15.361  41.283   0.462
54019W        W27087  34.339  42.513  10.962
54020W        W27088  16.301  11.216   2.818
54021W        W27089  20.534  11.682  12.551
54022W        W27090  35.153  39.911  12.135
54023W        W27091  23.926  23.086   0.952
54024W        W27092  35.840  31.181   4.230
54025W        W27093  21.671  19.554   1.792
54026W        W27094  15.515   2.491  11.943
54027W        W27095  41.527   7.785  11.132
54028W        W27096  23.046  19.335   4.275
54029W        W27097  32.891  31.012   2.585
54030W        W27098  39.540  44.853   1.078
54031W        W27099   7.472  11.812   3.222
54032W        W27100  27.749  30.060   1.943
54033W        W27101   1.456  34.608   2.491
54034W        W27102  12.068   7.631   2.322
54035W        W27103  28.276   5.340   2.687
54036W        W27104  27.964  17.344  14.392
54037W        W27105  44.488  19.796  11.951
54038W        W27106  21.793   5.863   2.755
54039W        W27107  27.463  16.486   4.154
54040W        W27108  41.916  12.703  14.962
54041W        W27109   8.651  11.751  12.298
54042W        W27110  20.525  35.500   1.779
54043W        W27111   6.678  29.645   1.880
54044W        W27112   4.325  22.958   4.501
54045W        W27113   4.782   6.093  14.525
54046W        W27114   9.761  12.781   2.578
54047W        W27115   7.235  19.183   0.483
54048W        W27116  34.584  10.156   2.306
54049W        W27117  33.982  31.630   0.771
54050W        W27118  15.616  20.590  11.937
54051W        W27119  30.652  10.135  10.658
54052W        W27120   2.313  14.343   1.742
54053W        W27121  21.025  25.263  12.470
54054W        W27122  18.486  42.903   1.817
54055W        W27123  15.334   3.976  12.601
54056W        W27124  26.671  10.707   2.167
54057W        W27125  23.777   0.058   3.622
54058W        W27126   9.087   3.001   1.325
54059W        W27127   3.549  26.654   3.224
54060W        W27128   8.357  21.628  13.372
54061W        W27129   2.063  15.899  12.068
54062W        W27130  36.834  43.082  10.218
54063W        W27131   6.529  19.335  10.966
54064W        W27132  15.093  40.442  13.421
54065W        W27133  18.184  21.000   4.068
54066W        W27134  26.898  33.511   3.863
54067W        W27135  19.644  35.378  11.191
54068W        W27136   5.420  43.548  11.503
54069W        W27137  18.503  36.281   1.671
54070W        W27138  34.960  25.629   0.234
54071W        W27139  42.498  40.385  13.329
54072W        W27140  18.134  32.536   0.814
54073W        W27141   3.243  38.989  14.965
54074W        W27142  16.668  37.944  12.726
54075W        W27143  21.745  37.596  13.987
54076W        W27144  34.705  43.690  12.895
54077W        W27145  30.690  22.160  11.818
54078W        W27146  41.448  20.962  11.977
54079W        W27147  39.850   8.627  13.427
54080W        W27148  37.886  16.101   2.338
54081W        W27149  10.182   0.820   0.434
54082W        W27150  27.618   7.400  12.487
54083W        W27151  30.964  44.981  11.131
54084W        W27152  44.480  15.358   4.215
54085W        W27153   8.750   7.492   4.091
54086W        W27154  38.414   8.526   4.537
54087W        W27155  24.446  18.279   4.742
54088W        W27156  25.688  10.668  12.504
54089W        W27157   2.236  22.643  13.927
54090W        W27158   5.865   1.260  14.265
54091W        W27159  16.958  26.676  14.316
54092W        W27160  33.038   8.845  14.839
54093W        W27161  33.543  30.059   4.470
54094W        W27162  10.690  32.815   4.111
54095W        W27163  26.162  11.377   3.789
54096W        W27164   2.293  32.359   0.492
54097W        W27165  28.012   7.589   2.498
54098W        W27166  24.855   3.371   3.703
54099W        W27167  24.655   4.704   1.366
54100W        W27168  16.518  14.878  11.196
54101W        W27169  18.832  37.881  13.540
54102W        W27170  17.613  32.098   1.417
54103W        W27171   5.354  25.676  13.044
54104W        W27172  23.954  27.688   2.148
54105W        W27173  11.390  15.591  13.843
54106W        W27174   2.536  37.920  12.643
54107W        W27175  32.685  31.472   3.096
54108W        W27176  31.538  31.483  11.197
54109W        W27177  15.494   0.748   3.769
54110W        W27178   3.371  35.415   1.362
54111W        W27179  11.768   2.670  12.022
54112W        W27180  25.158  33.804  13.408
54113W        W27181  23.509  38.529  14.423
54114W        W27182  24.093  35.811   4.039
54115W        W27183  33.158  12.628  10.743
54116W        W27184  24.160  15.978  12.211
54117W        W27185  15.984  24.145   0.502
54118W        W27186   1.779  36.602  10.592
54119W        W27187  15.708  34.080   1.095
54120W        W27188  16.362  23.185  13.997
54121W        W27189  40.606   6.818  12.464
54122W        W27190  16.105  12.645   0.445
54123W        W27191  25.458   9.173  12.590
54124W        W27192  22.186  12.822  10.668
54125W        W27193  11.214  11.248   0.476
54126W        W27194  19.105   8.859   2.182
54127W        W27195   7.571  34.520   2.278
54128W        W27196  24.206  43.426  14.002
54129W        W27197  28.307  23.902   3.667
54130W        W27198  23.131  12.267  13.503
54131W        W27199  36.204  36.248  10.965
54132W        W27200  44.975  29.101  11.442
54133W        W27201  39.113  42.243  13.940
54134W        W27202  29.156  18.218  10.530
54135W        W27203   3.805   6.431   0.018
54136W        W27204  11.555   5.228   0.502
54137W        W27205  42.336  14.441  14.932
54138W        W27206   4.420  11.218   0.848
54139W        W27207   2.753  10.669  14.170
54140W        W27208  10.140  22.233  12.153
54141W        W27209  12.864  10.356   4.117
54142W        W27210  15.134  22.225  14.381
54143W        W27211  31.483   4.940   0.461
54144W        W27212   0.001  16.771   2.972
54145W        W27213  28.170  17.943  13.490
54146W        W27214  35.420  26.242   1.671
54147W        W27215  33.440  33.036   4.944
54148W        W27216   8.065  35.536   4.667
54149W        W27217  44.341  10.615  13.849
54150W        W27218  30.865  37.149  12.052
54151W        W27219  33.182  21.763   3.754
54152W        W27220  40.550   6.418  14.902
54153W        W27221   2.309   6.598  13.806
54154W        W27222  29.658  18.066   2.579
54155W        W27223  42.172  36.910  13.842
54156W        W27224  14.708  17.056  11.824
54157W        W27225  37.226   3.325  13.032
54158W        W27226  22.788  31.100  11.584
54159W        W27227   0.400  27.703  14.407
54160W        W27228  36.122  32.398   4.261
54161W        W27229  13.716  19.603   4.094
54162W        W27230   5.176  33.988   4.679
54163W        W27231   4.930  27.776   1.710
54164W        W27232  41.965  37.003  12.809
54165W        W27233   3.781  36.115   2.868
54166W        W27234  23.982  33.091   0.019
54167W        W27235  37.810  29.613   1.109
54168W        W27236  28.745   1.358  14.112
54169W        W27237  41.725  39.173  10.317
54170W        W27238  34.910  10.145  13.901
54171W        W27239  33.231  38.887   3.477
54172W        W27240  10.713  26.152   5.090
54173W        W27241   7.710  30.043  11.593
54174W        W27242   6.371  30.782   0.109
54175W        W27243  19.979  44.872   2.767
54176W        W27244  33.967  41.552   1.803
54177W        W27245  11.867   0.217  14.454
54178W        W27246  24.000   5.695  13.821
54179W        W27247  22.037   8.421   2.931
54180W        W27248  16.774   1.397  10.910
54181W        W27249  38.475  35.823   1.480
54182W        W27250   2.690  21.142  10.543
54183W        W27251  13.396  35.965   1.678
54184W        W27252  33.530  20.895  13.886
54185W        W27253  31.221  42.875  13.842
54186W        W27254   7.266  41.079  12.221
54187W        W27255  39.808   5.430  14.172
54188W        W27256  24.298  26.450   1.062
54189W        W27257  31.379  27.136  12.456
54190W        W27258  29.967  16.212   1.338
54191W        W27259  40.883  21.507  12.430
54192W        W27260   8.315  15.281  13.622
54193W        W27261  18.029  41.473  12.942
54194W        W27262   8.111  23.856  14.426
54195W        W27263  28.245  38.992  13.299
54196W        W27264  38.399  28.836   0.726
54197W        W27265   3.772  23.662   1.414
54198W        W27266  18.819  39.103  10.137
54199W        W27267  26.906  19.489   1.286
54200W        W27268  28.094  10.941  10.169
54201W        W27269  18.503   1.845   3.177
54202W        W27270  31.983  34.526  11.066
54203W        W27271  17.154  38.049   1.238
54204W        W27272   0.642   2.302   0.004
54205W        W27273   0.971   7.188   2.401
54206W        W27274   4.003  44.812  12.894
54207W        W27275  23.033  29.260   0.851
54208W        W27276   2.480  37.508   2.974
54209W        W27277  39.488  18.026  13.533
54210W        W27278  28.635  18.124  12.517
54211W        W27279  21.749  39.548  11.815
54212W        W27280  25.724  39.270   2.000
54213W        W27281   6.701  35.997  11.973
54214W        W27282  16.185   7.237   1.362
54215W        W27283  14.174  40.610   0.768
54216W        W27284  20.254  12.174   3.575
54217W        W27285  13.151  20.075   0.845
54218W        W27286   9.045  19.711   4.731
54219W        W27287   5.198  28.544   0.591
54220W        W27288  33.105  44.862  10.392
54221W        W27289  20.728  29.932   2.447
54222W        W27290  23.540  18.716   4.140
54223W        W27291   8.318  38.959   5.408
54224W        W27292   4.880  25.196  13.503
54225W        W27293  23.612  31.403   1.851
54226W        W27294  37.376  24.024   0.526
54227W        W27295  43.741   3.140  13.361
54228W        W27296  39.297  26.430   1.764
54229W        W27297  34.406   1.753   4.833
54230W        W27298  33.930   5.376   0.912
54231W        W27299  12.032  39.115   4.287
54232W        W27300   2.803  28.365  14.545
54233W        W27301  36.436  33.571  14.702
54234W        W27302  18.343  21.774  13.513
54235W        W27303  39.856  14.216   1.260
54236W        W27304  19.775  26.985  11.567
54237W        W27305  30.173  34.082   0.963
54238W        W27306  21.377  32.613  12.525
54239W        W27307  25.441  33.959  14.000
54240W        W27308  35.830  10.928   1.615
54241W        W27309  16.602  30.858   1.876
54242W        W27310  34.498  17.537  12.436
54243W        W27311  13.934  20.514   4.581
54244W        W27312  41.765  39.825   1.764
54245W        W27313  15.378  31.098  14.273
54246W        W27314   6.872  39.545  10.865
54247W        W27315  21.275  16.661   2.089
54248W        W27316  29.718  15.955  10.591
54249W        W27317   8.673  28.024   1.880
54250W        W27318  31.022  14.543   1.443
54251W        W27319  17.336  40.115  12.442
54252W        W27320  10.249  32.880   4.357
54253W        W27321  22.896  21.170  13.768
54254W        W27322  18.844  35.458  14.544
54255W        W27323  38.592  22.040   4.112
54256W        W27324  10.771  25.994  12.117
54257W        W27325   5.477  18.134   1.610
54258W        W27326  13.876  39.903   2.890
54259W        W27327   4.233  21.944   4.520
54260W        W27328  36.374  12.291   1.924
54261W        W27329  20.634  33.102   2.140
54262W        W27330  25.219   3.872   1.036
54263W        W27331  39.993  22.552  11.554
54264W        W27332  41.836  15.136   0.819
54265W        W27333   7.423  34.960  11.210
54266W        W27334  41.889  39.026   4.153
54267W        W27335  13.624  23.321   0.189
54268W        W27336  19.097  37.345  12.060
54269W        W27337  10.362  34.368   3.711
54270W        W27338  21.037   2.882  10.560
54271W        W27339  29.776  20.223  12.430
54272W        W27340   6.218  17.659  11.986
54273W        W27341   7.940  16.689   0.856
54274W        W27342   4.658   4.821  14.339
54275W        W27343  13.347  20.596   3.778
54276W        W27344  37.455   5.285  12.998
54277W        W27345  26.859  14.499   4.180
54278W        W27346  35.397  42.942   2.246
54279W        W27347   0.321  28.473  12.008
54280W        W27348  30.337   0.458  13.158
54281W        W27349  27.928  35.701   5.095
54282W        W27350  12.364  37.467  11.525
54283W        W27351  23.220  20.079   3.556
54284W        W27352  15.167  36.808   4.674
54285W        W27353   7.799  15.067   0.365
54286W        W27354  17.766  18.266  14.916
54287W        W27355  34.915  31.039   2.818
54288W        W27356  27.339  17.116  12.599
54289W        W27357  38.775  30.386  13.719
54290W        W27358  10.598   3.918   0.622
54291W        W27359  42.321  16.284  13.053
54292W        W27360  41.404  40.503  11.841
54293W        W27361  29.539  16.612   0.884
54294W        W27362  44.258  16.656  14.404
54295W        W27363  21.661   6.328  10.676
54296W        W27364   0.945  43.792  11.180
54297W        W27365  17.062  22.566  10.747
54298W        W27366   2.858  20.485   1.881
54299W        W27367  15.317   6.922  12.083
54300W        W27368   8.102  15.143   3.684
54301W        W27369  23.211  11.230  13.082
54302W        W27370  13.664  29.593   3.234
54303W        W27371  18.677  14.171   3.038
54304W        W27372  13.420   6.326  14.931
54305W        W27373  21.801   7.406   0.717
54306W        W27374   9.783  40.280  11.979
54307W        W27375  35.059  36.907   4.745
54308W        W27376  30.150  30.994  11.149
54309W        W27377  30.019  16.581   1.771
54310W        W27378  15.823   0.301  12.952
54311W        W27379   4.646   6.702   0.673
54312W        W27380  18.080  29.613   1.683
54313W        W27381  25.663  42.297  11.641
54314W        W27382  28.937   4.460  12.447
54315W        W27383  20.533  42.272  14.088
54316W        W27384   4.809  21.681   4.402
54317W        W27385  37.823  26.735   3.801
54318W        W27386  39.881   3.722   2.130
54319W        W27387  26.880  26.646  10.020
54320W        W27388  11.401   8.902   2.716
54321W        W27389   4.162  42.515  12.495
54322W        W27390  43.571   2.940   2.295
54323W        W27391  27.654  44.339   4.250
54324W        W27392  21.055   4.285   0.493
54325W        W27393  26.473  37.181  12.080
54326W        W27394  10.179   0.259  12.593
54327W        W27395  16.491  40.701   1.238
54328W        W27396  25.451  17.234   1.886
54329W        W27397   4.852  42.609  14.517
54330W        W27398  16.266  25.253  12.453
54331W        W27399  44.655  39.988   9.948
54332W        W27400  18.374  25.690  12.477
54333W        W27401  14.038  42.230  10.801
54334W        W27402  12.354   2.232   3.369
54335W        W27403  33.534  40.848   1.906
54336W        W27404  17.223  40.430   2.370
54337W        W27405  34.336  33.530   3.787
54338W        W27406  30.283  25.222   4.558
54339W        W27407   2.608  37.274  14.732
54340W        W27408   0.959  36.870  14.258
54341W        W27409  30.631  31.682  10.817
54342W        W27410  42.841  26.524  12.297
54343W        W27411  41.344   9.367  11.151
54344W        W27412  44.711  27.117  14.378
54345W        W27413  26.967  41.237   4.547
54346W        W27414  31.520   4.439  12.141
54347W        W27415  40.747  27.147   0.907
54348W        W27416  23.795  26.234   1.273
54349W        W27417  30.200  11.318  11.189
54350W        W27418  29.477  38.062  12.934
54351W        W27419  20.979  11.837  13.358
54352W        W27420  27.192  13.762  13.552
54353W        W27421   4.242  41.483   3.314
54354W        W27422  31.697  33.640  12.091
54355W        W27423  41.761  36.529   2.327
54356W        W27424  25.466  14.677   4.658
54357W        W27425   3.346  32.965  10.678
54358W        W27426  38.790   4.412   1.874
54359W        W27427  30.377  32.190  14.988
54360W        W27428  18.084  31.140   3.522
54361W        W27429  26.162   4.897   2.626
54362W        W27430  11.504  23.485   2.242
54363W        W27431  26.131   0.234  12.902
54364W        W27432   6.925  24.198  13.523
54365W        W27433  11.144  19.064  11.666
54366W        W27434  16.001  11.710   3.722
54367W        W27435  40.803  37.492   3.317
54368W        W27436   0.285  15.823   1.195
54369W        W27437  11.379  21.757   0.797
54370W        W27438  33.056  32.441   3.369
54371W        W27439  36.820  37.386  14.498
54372W        W27440  24.918  20.696   4.615
54373W        W27441  42.941  39.669  11.208
54374W        W27442   5.628  31.501   1.407
54375W        W27443  24.187  36.803  10.721
54376W        W27444  27.651  28.536  10.779
54377W        W27445  34.454  16.768  14.204
54378W        W27446  36.910  34.497  13.114
54379W        W27447  24.586   1.915   0.393
54380W        W27448   1.483  24.540   3.656
54381W        W27449  25.675   4.900   4.633
54382W        W27450  12.277  33.288   0.742
54383W        W27451  39.998  31.072   0.171
54384W        W27452  12.111   2.925   1.337
54385W        W27453  32.502  26.910   3.839
54386W        W27454  26.226  37.788   1.859
54387W        W27455  36.148  34.228  12.146
54388W        W27456   6.681  31.178   4.180
54389W        W27457  43.451  35.132  12.881
54390W        W27458   1.882  41.338   2.570
54391W        W27459   8.963  18.396   3.299
54392W        W27460  26.461  41.967  12.315
54393W        W27461  37.772   1.321   2.753
54394W        W27462  18.049  29.426   1.181
54395W        W27463  13.542  40.526   3.675
54396W        W27464  14.241  16.576  12.906
54397W        W27465   8.068  36.597   2.201
54398W        W27466   5.730   2.898  13.470
54399W        W27467  18.827  29.986  10.686
54400W        W27468   9.392  31.670  13.374
54401W        W27469   4.155  14.146   0.297
54402W        W27470  17.303  32.887   1.834
54403W        W27471  40.831   6.934   9.799
54404W        W27472  44.007  44.408   2.986
54405W        W27473  34.478  11.338   2.537
54406W        W27474   7.716  29.112  11.450
54407W        W27475   3.822  41.342  13.463
54408W        W27476  34.828  40.946   0.325
54409W        W27477  26.142  17.738   4.350
54410W        W27478  23.685  37.532   2.335
54411W        W27479  39.815   7.246   2.394
54412W        W27480   1.484  14.398  14.257
54413W        W27481   0.392  37.336   4.863
54414W        W27482  21.044  19.621   1.510
54415W        W27483  21.113  31.927   0.945
54416W        W27484  22.840  29.401  14.266
54417W        W27485  35.463  43.022   3.699
54418W        W27486  44.029  39.152  13.420
54419W        W27487   3.340  17.949  10.721
54420W        W27488  34.141   7.359  12.518
54421W        W27489  43.044  38.900  13.332
54422W        W27490  40.842  43.472   2.337
54423W        W27491   1.996   0.117   0.905
54424W        W27492   7.376  30.669  12.357
54425W        W27493  35.987  22.131   3.121
54426W        W27494  17.842  40.878  14.775
54427W        W27495  42.984  13.867  10.635
54428W        W27496  23.006  34.051  14.792
54429W        W27497  18.665   8.333   4.231
54430W        W27498  27.138  23.409   2.241
54431W        W27499   8.866  39.946  11.581
54432W        W27500  27.634  22.140  12.225
54433W        W27501  43.265  11.988  12.569
54434W        W27502   0.923  25.692  14.979
54435W        W27503  25.168   4.088   4.977
54436W        W27504  43.081  20.058  13.997
54437W        W27505  18.884  44.512  10.593
54438W        W27506  16.238  42.532   4.169
54439W        W27507  35.881  10.653  10.640
54440W        W27508  15.508  40.434   1.426
54441W        W27509  11.613  28.166  13.115
54442W        W27510  20.388  28.187   4.401
54443W        W27511  44.065  34.368  11.679
54444W        W27512  29.205   8.856  12.432
54445W        W27513  33.416  20.668  10.780
54446W        W27514  31.560  43.805   0.069
54447W        W27515  44.875   6.114   3.198
54448W        W27516  23.656  43.529   3.637
54449W        W27517  44.016   4.257  10.658
54450W        W27518  40.838   3.257   3.656
54451W        W27519  10.247  35.158   4.341
54452W        W27520  35.392  27.370  14.034
54453W        W27521  43.774   7.539   2.640
54454W        W27522  22.765  28.116  11.920
54455W        W27523  21.806  25.274   0.107
54456W        W27524  11.110  24.895   1.291
54457W        W27525  12.343   9.834  10.721
54458W        W27526  42.339   7.336  11.482
54459W        W27527   8.400  32.512  10.660
54460W        W27528  23.206   6.663  13.609
54461W        W27529  42.093   4.991   3.161
54462W        W27530  38.541  41.361   0.542
54463W        W27531   8.606  27.450   4.226
54464W        W27532  12.570  32.624   2.312
54465W        W27533  44.737  24.050   4.516
54466W        W27534  32.078   1.206   2.775
54467W        W27535   4.431  13.630   4.846
54468W        W27536  44.171  17.553  14.283
54469W        W27537  15.474  15.458  14.084
54470W        W27538  12.382  24.431   2.593
54471W        W27539  11.321  31.388  12.020
54472W        W27540  18.286  33.891   4.077
54473W        W27541  20.182  40.329   4.575
54474W        W27542  13.377  22.919   3.323
54475W        W27543   3.495  19.270   2.484
54476W        W27544  30.648  44.299   0.305
54477W        W27545   5.652  22.073   4.855
54478W        W27546  31.885  44.833  12.294
54479W        W27547  41.348  38.424  13.126
54480W        W27548  35.365  29.400  14.176
54481W        W27549   0.208  35.804   3.825
54482W        W27550  19.263   8.526   0.800
54483W        W27551  35.945  15.089   4.184
54484W        W27552   9.637  22.492   1.275
54485W        W27553   7.711  30.063   4.906
54486W        W27554  18.626  23.798   0.970
54487W        W27555  40.970  17.825  14.561
54488W        W27556  11.393  21.652   2.404
54489W        W27557   0.025  36.304   3.686
54490W        W27558  25.153  39.303   2.259
54491W        W27559  18.579  14.144  13.748
54492W        W27560   6.006  31.949   4.512
54493W        W27561  42.519  34.147  13.553
54494W        W27562  21.046  33.514   3.579
54495W        W27563  25.718  22.261  11.588
54496W        W27564  10.283  26.569   0.100
54497W        W27565  17.800  12.158   4.599
54498W        W27566  44.053  33.924  11.395
54499W        W27567  18.759   5.653   0.001
54500W        W27568  21.640  10.707  12.304
54501W        W27569  29.332  10.668   4.921
54502W        W27570  24.252  16.653  11.047
54503W        W27571  17.494   7.421  13.934
54504W        W27572  34.578  11.165  14.017
54505W        W27573  24.497   9.883  14.497
54506W        W27574  34.386  19.187  11.249
54507W        W27575  14.909  18.726   0.256
54508W        W27576  10.922  15.581   1.333
54509W        W27577   9.069  23.073  13.434
54510W        W27578  22.019   9.341   4.517
54511W        W27579   0.194   5.223  13.178
54512W        W27580  18.537  40.054  14.000
54513W        W27581  17.272  17.546   2.316
54514W        W27582  15.653   0.913   0.025
54515W        W27583  33.606  44.961  10.277
54516W        W27584   8.612  33.881  11.514
54517W        W27585  24.312  12.512  12.137
54518W        W27586  40.273   7.602   1.439
54519W        W27587  43.563  27.361  11.485
54520W        W27588  25.952  27.631   2.713
54521W        W27589  18.212  39.346   4.319
54522W        W27590   8.277  27.857  14.572
54523W        W27591  19.699  31.038  10.770
54524W        W27592  21.281  24.589  14.100
54525W        W27593  23.999  38.067   9.819
54526W        W27594  44.485  12.840  10.292
54527W        W27595   1.519  24.697   2.190
54528W        W27596  35.910  36.006  12.433
54529W        W27597  36.340  38.472  13.207
54530W        W27598  14.804  18.028   3.682
54531W        W27599  28.038  37.841   1.154
54532W        W27600   1.780  31.474  13.561
54533W        W27601  19.704  37.316   1.005
54534W        W27602  11.827  25.252   3.322
54535W        W27603  37.412   8.722   4.616
54536W        W27604  28.092  21.208  13.771
54537W        W27605  22.939  10.798  14.329
54538W        W27606  43.783  35.579  13.572
54539W        W27607  16.082  13.102  12.200
54540W        W27608  32.972  27.669  11.096
54541W        W27609  29.677  25.977  10.968
54542W        W27610  30.793  20.800  13.273
54543W        W27611   0.946   7.082   4.548
54544W        W27612  10.202  24.944   1.391
54545W        W27613   0.212   9.535  13.819
54546W        W27614  44.320  30.818  10.715
54547W        W27615  38.408  21.602  12.584
54548W        W27616   3.865  30.645   0.467
54549W        W27617  26.081   9.469  13.360
54550W        W27618  30.501  16.597   0.850
54551W        W27619  38.398   2.793  12.867
54552W        W27620  41.333  15.148  11.115
54553W        W27621   1.428  17.125   0.353
54554W        W27622  27.766  24.612  12.961
54555W        W27623  44.892   6.266  12.643
54556W        W27624   4.860  17.623   4.722
54557W        W27625  43.125  15.756  14.900
54558W        W27626  20.985  24.735  12.513
54559W        W27627  39.464   2.508   1.924
54560W        W27628  24.771  32.750  14.406
54561W        W27629  10.885  23.919  11.939
54562W        W27630   4.298  43.309   4.747
54563W        W27631  20.246   2.960  13.605
54564W        W27632  26.372  38.234  10.996
54565W        W27633  30.857  35.927  13.938
54566W        W27634  35.832  33.824  13.840
54567W        W27635   7.985   9.735  10.551
54568W        W27636  25.421  34.779   0.169
54569W        W27637  34.068  42.019   3.568
54570W        W27638  27.760   6.166   2.670
54571W        W27639  18.847  40.451  13.997
54572W        W27640  17.766  24.607  11.969
54573W        W27641  41.832  27.630   4.364
54574W        W27642  34.570   0.757  13.105
54575W        W27643   3.319  28.674  12.012
54576W        W27644   7.946  10.572   4.884
54577W        W27645  31.431  26.637   4.786
54578W        W27646  38.421  41.895   1.350
54579W        W27647  21.172  35.131  12.768
54580W        W27648  33.699  30.380   1.105
54581W        W27649   2.076  38.012   2.135
54582W        W27650  18.628  42.559   0.371
54583W        W27651  36.986  18.624  11.200
54584W        W27652  21.327  34.096  11.489
54585W        W27653   2.849  18.353  14.755
54586W        W27654  10.534   9.224   0.303
54587W        W27655  41.011  40.624  13.553
54588W        W27656  37.766  13.768  14.902
54589W        W27657  18.576  17.724   1.706
54590W        W27658  26.044  26.732   0.911
54591W        W27659  40.980  25.805   0.387
54592W        W27660  16.745  15.310  11.032
54593W        W27661  27.483  43.897  13.417
54594W        W27662   4.305  39.830   0.348
54595W        W27663  32.345  41.334  13.771
54596W        W27664  40.919  39.299  10.708
54597W        W27665  34.888  32.059  14.929
54598W        W27666   3.485   1.264   2.367
54599W        W27667   3.970   4.215   1.211
54600W        W27668  10.904  44.682   4.370
54601W        W27669  31.030  26.035  14.885
54602W        W27670   6.962  22.733   4.173
54603W        W27671  41.013  25.181  12.884
54604W        W27672  22.635   7.736  12.505
54605W        W27673   1.870  29.612  13.910
54606W        W27674  41.492  26.732   0.714
54607W        W27675   2.989  26.480  11.941
54608W        W27676   1.658  30.642  14.053
54609W        W27677   3.699  28.714  11.079
54610W        W27678   3.933  30.981  11.947
54611W        W27679  30.987  24.087   0.444
54612W        W27680  23.739  28.956   4.640
54613W        W27681  17.948  43.303   4.646
54614W        W27682   5.395  28.471   0.111
54615W        W27683   4.282  10.605   3.626
54616W        W27684  27.033   4.758   1.624
54617W        W27685  17.219   4.341  10.735
54618W        W27686  33.305  20.702   4.407
54619W        W27687   2.035  38.849   2.545
54620W        W27688  24.977  39.486  12.972
54621W        W27689   1.938  28.585  14.938
54622W        W27690  44.754   3.201  11.697
54623W        W27691  27.719  13.825   3.701
54624W        W27692  17.827  41.266   2.688
54625W        W27693  18.188   0.380  12.502
54626W        W27694  40.599   1.641   0.874
54627W        W27695  17.753   4.811   2.251
54628W        W27696  40.523  37.631   3.722
54629W        W27697  21.404   8.855  12.965
54630W        W27698  10.534  12.420   4.513
54631W        W27699  13.848  38.719   0.762
54632W        W27700  25.490  25.658   0.387
54633W        W27701  24.722  27.542  12.625
54634W        W27702  31.655  32.607   1.262
54635W        W27703  23.177   4.126   0.323
54636W        W27704  18.803   9.406  11.657
54637W        W27705  41.022   4.726  13.112
54638W        W27706  14.243  11.881  11.097
54639W        W27707   0.371  28.348  13.869
54640W        W27708   1.758  34.392  12.876
54641W        W27709  14.572   9.641   3.654
54642W        W27710  22.597  22.595  13.726
54643W        W27711  30.037  24.035   3.924
54644W        W27712   3.353  11.519  10.489
54645W        W27713  19.818  25.720   0.926
54646W        W27714  43.913  36.343  14.003
54647W        W27715  14.524  20.804   2.688
54648W        W27716  19.116  10.253  14.292
54649W        W27717  42.460   5.980   1.837
54650W        W27718  43.892  41.583   1.999
54651W        W27719  34.521  37.863  13.702
54652W        W27720  17.574  31.096   0.419
54653W        W27721  24.183  41.953   3.977
54654W        W27722  10.815  41.932  11.872
54655W        W27723  13.908  44.883   0.346
54656W        W27724   6.857  10.419   0.888
54657W        W27725   3.248   6.780   4.388
54658W        W27726  18.121  21.572  10.472
54659W        W27727  35.326  14.292  11.608
54660W        W27728  17.172  34.965  13.150
54661W        W27729  40.356   5.169   4.581
54662W        W27730  14.813  38.597  13.423
54663W        W27731   4.693   8.172   2.828
54664W        W27732   3.424  31.302   0.910
54665W        W27733  32.352  19.534  14.150
54666W        W27734  41.703   5.828  13.310
54667W        W27735  18.743  31.851  13.402
54668W        W27736  44.194   8.302   0.499
54669W        W27737   9.620  40.028  14.547
54670W        W27738  10.157  13.085   2.753
54671W        W27739  30.694  29.761  11.085
54672W        W27740  18.586  23.020  14.847
54673W        W27741  36.634  40.558   1.522
54674W        W27742  36.965  19.297   3.244
54675W        W27743  21.724  17.785   2.386
54676W        W27744  38.472  22.495   3.792
54677W        W27745  28.516  26.660   1.480
54678W        W27746  19.031  15.146  14.353
54679W        W27747  28.140  23.765   3.188
54680W        W27748   9.690   0.292   3.744
54681W        W27749   8.925  16.580  10.426
54682W        W27750  40.041   2.467   0.267
54683W        W27751  32.872  28.740  13.606
54684W        W27752   6.899  38.586  13.558
54685W        W27753  43.859  29.977  12.907
54686W        W27754  14.921  32.183   2.621
54687W        W27755   0.932  31.660  14.724
54688W        W27756  13.078  12.336  12.369
54689W        W27757  25.132  28.692  14.503
54690W        W27758   0.845   8.109  10.752
54691W        W27759  15.939  27.521   9.989
54692W        W27760  12.777  26.676  14.922
54693W        W27761  21.152  19.275  11.092
54694W        W27762  22.536  24.061  14.753
54695W        W27763   6.854   8.479   4.654
54696W        W27764  39.386  39.509   0.383
54697W        W27765   3.948  31.037  11.433
54698W        W27766  44.427  30.634  12.935
54699W        W27767  14.110  13.712   4.606
54700W        W27768  32.525  28.747  11.912
54701W        W27769  30.227  31.881   1.371
54702W        W27770   2.826  27.211  12.061
54703W        W27771  34.510  27.504   3.917
54704W        W27772  11.512  12.656   2.328
54705W        W27773   0.779  24.368  11.376
54706W        W27774  40.798   1.459   1.316
54707W        W27775  41.878   0.881   4.557
54708W        W27776  25.537  25.445   1.667
54709W        W27777  18.198  37.700  13.038
54710W        W27778  42.570  26.468   3.210
54711W        W27779   3.299   2.358   2.512
54712W        W27780  15.414  14.778   3.396
54713W        W27781   0.627  44.173   0.436
54714W        W27782  44.232  23.487   2.299
54715W        W27783  16.693   4.452   2.838
54716W        W27784   4.872  15.172  11.371
54717W        W27785  27.218  16.735   0.731
54718W        W27786  21.171  43.999   0.667
54719W        W27787  33.478   2.843   3.835
54720W        W27788   8.310  18.353  14.320
54721W        W27789  42.247  21.488  14.534
54722W        W27790  29.425  35.679  12.301
54723W        W27791  13.350   3.180   1.124
54724W        W27792  35.002  36.008   4.635
54725W        W27793  13.348   0.847   3.293
54726W        W27794  19.588  34.737   5.038
54727W        W27795  40.823  30.634  10.709
54728W        W27796  30.355  27.600  14.797
54729W        W27797  14.977  21.755   2.395
54730W        W27798   3.258  11.649   4.605
54731W        W27799  35.804  36.864   1.661
54732W        W27800  25.389  42.710  11.511
54733W        W27801  23.959  13.260  11.586
54734W        W27802  23.717  15.579   1.839
54735W        W27803  33.514  10.439  13.946
54736W        W27804  38.945  18.630  10.070
54737W        W27805   1.754  42.335  14.134
54738W        W27806  44.130  12.816  14.092
54739W        W27807   7.667  43.878   3.325
54740W        W27808  22.518  14.003   0.923
54741W        W27809  42.242  15.645  14.527
54742W        W27810  39.584  24.687   1.759
54743W        W27811   7.213   1.656  11.645
54744W        W27812   5.673  35.134  12.124
54745W        W27813  39.938   2.719  11.306
54746W        W27814  42.948  27.555   4.197
54747W        W27815  29.331   2.374  12.948
54748W        W27816  44.669  20.967   0.041
54749W        W27817  23.031  17.247   2.393
54750W        W27818   0.800  18.970   3.613
54751W        W27819   9.302   6.742   3.422
54752W        W27820  41.328  20.469  11.140
54753W        W27821   0.765  40.391  12.682
54754W        W27822  42.038   9.839  12.533
54755W        W27823  26.190  41.814   4.232
54756W        W27824  25.298  20.217   2.770
54757W        W27825  33.301  11.039  12.459
54758W        W27826  38.032  34.443   3.169
54759W        W27827   3.874  36.548   0.915
54760W        W27828  25.256  31.106   1.705
54761W        W27829   2.239  43.474   0.382
54762W        W27830  22.929   5.403   3.760
54763W        W27831  18.601  10.414   4.747
54764W        W27832  31.142  19.506   9.849
54765W        W27833  31.108   1.689   1.983
54766W        W27834  21.486  39.474   1.207
54767W        W27835   1.263  42.482   0.184
54768W        W27836   0.017  35.339   1.295
54769W        W27837  14.113   4.528   0.693
54770W        W27838  33.376  30.989  12.127
54771W        W27839  12.464  41.313  13.965
54772W        W27840   1.821  27.051  12.547
54773W        W27841  23.595  12.216  11.103
54774W        W27842  44.811   4.353   1.273
54775W        W27843  16.831  40.120  12.438
54776W        W27844  19.348  16.619   4.332
54777W        W27845  11.144  44.286   4.629
54778W        W27846  27.168  34.415  12.221
54779W        W27847  34.965  39.603  13.958
54780W        W27848  22.058   7.437   2.755
54781W        W27849   6.298  22.156   4.370
54782W        W27850  37.083   4.122   3.776
54783W        W27851  12.752  35.667  14.801
54784W        W27852  25.027  35.510  11.579
54785W        W27853  24.446   7.823  10.925
54786W        W27854  23.493   1.993   2.115
54787W        W27855  29.959   3.756  12.038
54788W        W27856   2.875  16.047  14.071
54789W        W27857  11.806   7.439  14.595
54790W        W27858  11.620  22.692   1.750
54791W        W27859  18.663  26.142   0.032
54792W        W27860  18.168  31.830   0.077
54793W        W27861  29.619  30.495  10.669
54794W        W27862   3.161  25.145  14.563
54795W        W27863  16.956  27.782   2.415
54796W        W27864  19.079  28.508  11.468
54797W        W27865  30.195  33.066  11.670
54798W        W27866  14.939  31.323  12.175
54799W        W27867  42.912  10.435   1.742
54800W        W27868  34.557  39.357  14.715
54801W        W27869   0.897   5.707   3.927
54802W        W27870  24.258  11.298  14.903
54803W        W27871  43.257  13.304  10.862
54804W        W27872  39.925  37.709   1.881
54805W        W27873   4.830   7.416  13.271
54806W        W27874  11.131  23.919  10.657
54807W        W27875  15.041  35.333   1.359
54808W        W27876  12.774  26.886   3.309
54809W        W27877  10.676  37.051  10.629
54810W        W27878  17.447  25.345   1.765
54811W        W27879  21.451  44.478  14.166
54812W        W27880  15.920  34.473  12.933
54813W        W27881   8.657  33.878  13.962
54814W        W27882  28.994   4.808   4.431
54815W        W27883   1.483  42.685   2.695
54816W        W27884  42.405  43.593  12.562
54817W        W27885  10.083  15.574  12.520
54818W        W27886  19.170  35.808  11.184
54819W        W27887  15.717  42.411  14.317
54820W        W27888  24.236  24.636  13.632
54821W        W27889  21.034  11.216   2.793
54822W        W27890  29.465  37.535  12.026
54823W        W27891   3.811  19.658   1.733
54824W        W27892   7.931   0.815   1.563
54825W        W27893  34.098  24.664   1.806
54826W        W27894  10.911  42.695   4.263
54827W        W27895  16.048   7.685  11.083
54828W        W27896  35.722  41.783   1.854
54829W        W27897  16.289  10.038  10.205
54830W        W27898  30.460  20.154   4.308
54831W        W27899  26.544  40.249   1.145
54832W        W27900   3.614   4.414   0.265
54833W        W27901  20.675  42.810   3.033
54834W        W27902   7.925   4.107  10.535
54835W        W27903   8.641  18.099  13.079
54836W        W27904   4.409  11.124  14.759
54837W        W27905   8.540  40.382  10.768
54838W        W27906  16.244  26.680   3.140
54839W        W27907  41.545  41.291   3.399
54840W        W27908  40.021  42.469   3.886
54841W        W27909  16.835  14.884   0.284
54842W        W27910  30.849  36.007  12.407
54843W        W27911   3.109  11.230  14.856
54844W        W27912  43.887  40.090  13.501
54845W        W27913  37.504   4.401   0.791
54846W        W27914  25.155  35.893  14.793
54847W        W27915   5.799  19.647   3.315
54848W        W27916  14.127  32.331  14.283
54849W        W27917  13.199  16.266   1.261
54850W        W27918   6.940  20.838   4.605
54851W        W27919  13.620  29.016  10.842
54852W        W27920  43.130  31.606   0.016
54853W        W27921  25.223   0.736  11.994
54854W        W27922  33.720  14.626   3.763
54855W        W27923  32.367  21.169  11.845
54856W        W27924  40.856  21.340   0.959
54857W        W27925  27.261  10.799   1.576
54858W        W27926  36.484  34.507   1.314
54859W        W27927  12.548  35.531   4.641
54860W        W27928  38.659  13.168   1.350
54861W        W27929  31.630  21.402   1.455
54862W        W27930  39.830  21.173   0.930
54863W        W27931  39.317  44.466  10.202
54864W        W27932  33.703   6.857   2.767
54865W        W27933   3.300  26.505   2.800
54866W        W27934  34.860  35.832  10.605
54867W        W27935   6.239  26.968  14.126
54868W        W27936  30.458   8.893   4.405
54869W        W27937  12.133  37.492   1.783
54870W        W27938  24.344   8.903   3.291
54871W        W27939  28.864  31.081   0.310
54872W        W27940  37.667   4.926  14.652
54873W        W27941  39.298   5.456  13.979
54874W        W27942  35.580  36.462  11.736
54875W        W27943  41.943   9.003  11.876
54876W        W27944  29.146  23.935   2.396
54877W        W27945   0.727  36.569   4.087
54878W        W27946  30.637  40.285   1.679
54879W        W27947   5.882  14.148   3.963
54880W        W27948  12.130   8.797   0.647
54881W        W27949  44.833  17.162  11.463
54882W        W27950  20.325  26.187   1.687
54883W        W27951  13.222   0.640  11.374
54884W        W27952  28.538  21.556   3.393
54885W        W27953  42.991  31.997   1.343
54886W        W27954  12.563  25.603  12.068
54887W        W27955  15.448  15.137   0.828
54888W        W27956  23.720  17.300   0.893
54889W        W27957  17.182   2.539  13.976
54890W        W27958  10.064  18.609  12.100
54891W        W27959  26.650  40.426   2.142
54892W        W27960   7.186  10.654  10.656
54893W        W27961  11.080  38.860   4.676
54894W        W27962   4.374  14.039   4.515
54895W        W27963  29.330  13.946  11.120
54896W        W27964   1.116   9.620  11.645
54897W        W27965  20.332  17.653  11.128
54898W        W27966   1.665   8.816  11.469
54899W        W27967  16.334  23.043  13.480
54900W        W27968  28.637  24.455   1.781
54901W        W27969   0.839  44.279   5.177
54902W        W27970  10.370  10.095   2.157
54903W        W27971   9.278  29.470  12.171
54904W        W27972  32.667  28.107  11.128
54905W        W27973  17.242  33.448  11.734
54906W        W27974  22.486  32.133   3.456
54907W        W27975  27.249  38.444   4.219
54908W        W27976  21.152  16.437   4.111
54909W        W27977   0.376   4.998  12.107
54910W        W27978  22.532  26.464   2.227
54911W        W27979  27.477   7.600   1.333
54912W        W27980  15.251   4.434  11.218
54913W        W27981  42.469   0.308  14.694
54914W        W27982   8.353  33.133   3.327
54915W        W27983  12.182  14.420   3.828
54916W        W27984  14.868  13.397  14.252
54917W        W27985   9.732   4.818   0.024
54918W        W27986  14.220  14.385   1.606
54919W        W27987  24.062  25.736   0.051
54920W        W27988  18.626  28.689   4.431
54921W        W27989   1.203  41.208  14.339
54922W        W27990   0.898   3.381  13.095
54923W        W27991  28.500   7.501  12.093
54924W        W27992  32.897  10.978  10.553
54925W        W27993  38.154   9.868  11.978
54926W        W27994   5.398  13.812   0.846
54927W        W27995  24.641   0.115  11.382
54928W        W27996  40.025  16.012  13.241
54929W        W27997  24.727  14.810   0.531
54930W        W27998  34.492  39.453  13.796
54931W        W27999  42.412  12.343   4.636
54932W        W28000  31.072  15.260  11.694
54933W        W28001   2.527  11.603  11.222
54934W        W28002  20.548  34.075  12.820
54935W        W28003   5.745  38.248  14.679
54936W        W28004   2.397  23.131  12.121
54937W        W28005  29.961  13.868  11.153
54938W        W28006   9.203   0.804   0.430
54939W        W28007  34.762   5.767   2.217
54940W        W28008  39.816  34.347   2.674
54941W        W28009  33.497  44.199   3.554
54942W        W28010   0.626  22.594   3.312
54943W        W28011  30.174  31.630   2.279
54944W        W28012  28.894  41.607  11.458
54945W        W28013  17.681  37.406   4.973
54946W        W28014  40.467  43.275   4.023
54947W        W28015   4.770  32.134  13.888
54948W        W28016  14.738   3.508   0.837
54949W        W28017  12.328  16.642   3.650
54950W        W28018  13.653  18.674   2.133
54951W        W28019  32.632  21.352  12.906
54952W        W28020   8.642  12.954   5.357
54953W        W28021  42.804  43.657  14.810
54954W        W28022   1.387  28.711  11.701
54955W        W28023   1.177   8.242   4.095
54956W        W28024  17.805  43.228   1.933
54957W        W28025  43.946   7.001   0.296
54958W        W28026   3.828  29.968   3.176
54959W        W28027   6.190   3.830  14.247
54960W        W28028  24.264  14.346   4.537
54961W        W28029  10.093  25.062   2.256
54962W        W28030  23.001  27.109   2.844
54963W        W28031  10.718   6.867   0.863
54964W        W28032  38.984  24.531  11.146
54965W        W28033  42.826  37.524   4.318
54966W        W28034  40.806  11.252   2.160
54967W        W28035  11.202  17.251   5.430
54968W        W28036  43.799  44.808  12.990
54969W        W28037  26.187   3.835   0.409
54970W        W28038  40.546  20.539   2.575
54971W        W28039  36.604  15.457  10.055
54972W        W28040  28.253  39.741   1.450
54973W        W28041  12.167  27.492   3.117
54974W        W28042   2.029  41.523   0.390
54975W        W28043   4.353  22.907  12.475
54976W        W28044  32.682   9.331   4.075
54977W        W28045  38.414   4.621   2.608
54978W        W28046  16.460   3.821   3.566
54979W        W28047  31.181  40.328  13.035
54980W        W28048   0.580  31.496   4.134
54981W        W28049  17.352  44.326   2.658
54982W        W28050  39.593  16.312   4.427
54983W        W28051  30.749  25.216   3.292
54984W        W28052   5.376  24.496   0.336
54985W        W28053  42.996  31.548  11.499
54986W        W28054  26.445   8.144   3.639
54987W        W28055  33.700  12.091  11.184
54988W        W28056   1.022  14.469   4.230
54989W        W28057  38.540   0.734   2.354
54990W        W28058  27.129  29.311  10.378
54991W        W28059  42.900  33.890  12.422
54992W        W28060  15.266  35.366   3.463
54993W        W28061  26.852  18.710  14.789
54994W        W28062  42.371  23.322  12.372
54995W        W28063  22.945  11.163  12.209
54996W        W28064  29.199  27.923   3.740
54997W        W28065  14.813  36.551   2.181
54998W        W28066  42.409   2.220   0.982
54999W        W28067  12.262  44.818   4.174
55000W        W28068  32.396  25.579  11.554
55001W        W28069  24.192  18.431  12.352
55002W        W28070  38.114  20.119   4.357
55003W        W28071  29.656  38.953  12.807
55004W        W28072   4.956  37.922  12.511
55005W        W28073  33.547  29.525  10.214
55006W        W28074  12.086  36.513   1.771
55007W        W28075  25.039  32.602   3.149
55008W        W28076   1.859  37.750  12.884
55009W        W28077  44.952  15.184  14.562
55010W        W28078   3.216   5.212  13.557
55011W        W28079  13.826  35.504   3.733
55012W        W28080  20.249   8.436   3.192
55013W        W28081  18.764  23.709   2.231
55014W        W28082  43.278  29.559  11.584
55015W        W28083  32.566  23.038   4.427
55016W        W28084  18.795  39.095  13.846
55017W        W28085   2.341  44.074   4.696
55018W        W28086  38.260  18.225  13.533
55019W        W28087  31.187  10.275   3.242
55020W        W28088  21.719  19.029   1.769
55021W        W28089  23.587  11.332   4.296
55022W        W28090  29.596  25.979   0.422
55023W        W28091  19.738  11.227  11.609
55024W        W28092   7.771  29.933   4.424
55025W        W28093  13.936  37.171   0.009
55026W        W28094   0.196   1.487  11.140
55027W        W28095  33.063   2.283   4.383
55028W        W28096  43.753  18.141   1.449
55029W        W28097  39.373  21.443   3.547
55030W        W28098  43.849   3.026   1.800
55031W        W28099   2.801  13.808   4.688
55032W        W28100  41.184  16.064   2.273
55033W        W28101  17.833  32.831   4.077
55034W        W28102  23.352  37.458  12.538
55035W        W28103   6.230  26.983   0.436
55036W        W28104   3.030  32.727   3.034
55037W        W28105  13.802  29.522   2.195
55038W        W28106  44.348  11.347  10.386
55039W        W28107   4.798   4.374   1.423
55040W        W28108  39.802  24.543   0.936
55041W        W28109   0.469   3.854  11.974
55042W        W28110  22.243   0.016   3.173
55043W        W28111  21.905  35.945  13.161
55044W        W28112  39.354  25.472  11.034
55045W        W28113   6.631  31.132  11.145
55046W        W28114  41.722  44.322   0.973
55047W        W28115   9.805  21.247  11.879
55048W        W28116  37.979  12.209   0.427
55049W        W28117  31.068  19.030  11.615
55050W        W28118  34.939  33.127  10.669
55051W        W28119  23.957   0.250   1.843
55052W        W28120  23.124  23.689   2.844
55053W        W28121  42.829  22.458   4.241
55054W        W28122  35.881  13.344   2.746
55055W        W28123  43.264  39.365  11.476
55056W        W28124  44.775   5.760   4.136
55057W        W28125  18.166  16.496  11.661
55058W        W28126   6.861  41.967  10.302
55059W        W28127   9.841  17.977   1.851
55060W        W28128  44.951  25.632   2.200
55061W        W28129  17.402   6.281  11.459
55062W        W28130  42.289   3.864   2.155
55063W        W28131  16.120  34.326  13.745
55064W        W28132  25.161  43.565  12.042
55065W        W28133   0.044  39.088  11.616
55066W        W28134   7.140  28.663  14.473
55067W        W28135   4.845  18.323  12.909
55068W        W28136  15.639  18.437   2.277
55069W        W28137  19.078  23.289  13.018
55070W        W28138  18.574  14.580  12.135
55071W        W28139  25.192  21.942   0.818
55072W        W28140  40.314  38.552  11.154
55073W        W28141   1.734   5.513  12.544
55074W        W28142   2.225  30.250  11.584
55075W        W28143  15.586  25.684   1.610
55076W        W28144  42.509   9.970  12.375
55077W        W28145  18.491  32.011   4.968
55078W        W28146  21.703  10.452  11.857
55079W        W28147  12.373   7.499   1.848
55080W        W28148  37.645   9.840  12.346
55081W        W28149   9.809  22.649   2.681
55082W        W28150   6.755  24.607  13.240
55083W        W28151  44.773  18.284  12.495
55084W        W28152  40.530  39.843   3.251
55085W        W28153  37.682  32.067   4.042
55086W        W28154  32.600  40.790  10.363
55087W        W28155  12.385  18.982   0.422
55088W        W28156  10.153  35.731  14.019
55089W        W28157  44.660  20.153  13.454
55090W        W28158   4.409   9.723  11.469
55091W        W28159  33.266   2.929  14.312
55092W        W28160  42.159  38.565  13.855
55093W        W28161  23.770  21.123   2.860
55094W        W28162   5.832  28.506  13.631
55095W        W28163  42.143   3.440  11.192
55096W        W28164  11.458  30.187  11.418
55097W        W28165  35.957  39.102  10.633
55098W        W28166  13.005  32.958   2.209
55099W        W28167  44.758  36.108   4.978
55100W        W28168  39.303   3.491   2.822
55101W        W28169  42.578  17.888   2.038
55102W        W28170  43.317  36.284   1.390
55103W        W28171   9.691  34.468  12.847
55104W        W28172  40.402  36.523   4.130
55105W        W28173  18.669   5.147   1.727
55106W        W28174  13.810  27.725  11.174
55107W        W28175  33.152   4.035   2.206
55108W        W28176  12.249  42.492  14.480
55109W        W28177  32.020  41.540  12.854
55110W        W28178   6.255  40.367   3.720
55111W        W28179  28.277  33.344   3.172
55112W        W28180   5.884  25.357  12.517
55113W        W28181  24.665  11.669  13.805
55114W        W28182  28.619  23.991   3.178
55115W        W28183  29.963  22.786  12.690
55116W        W28184  10.017  34.525   2.775
55117W        W28185  40.140   0.378  12.491
55118W        W28186  24.763  39.442  14.019
55119W        W28187   1.235  25.115   2.169
55120W        W28188  27.482  18.016  12.000
55121W        W28189  37.710  14.509   3.558
55122W        W28190  32.405  21.678  11.920
55123W        W28191  25.545  22.804   1.485
55124W        W28192  35.287  11.163  13.413
55125W        W28193   3.491  16.619  11.081
55126W        W28194  22.739   4.837  12.950
55127W        W28195  31.574  28.572   0.278
55128W        W28196  16.720   2.605  11.013
55129W        W28197  11.158  18.536  10.313
55130W        W28198  36.022   2.442  10.740
55131W        W28199  37.565   4.727   2.407
55132W        W28200  29.159   9.969  13.421
55133W        W28201  34.801  38.623  14.005
55134W        W28202  33.093  41.449  10.871
55135W        W28203   0.753  36.293  13.365
55136W        W28204  38.432  30.196  10.880
55137W        W28205  24.132  32.049   2.298
55138W        W28206   5.320   1.019   1.619
55139W        W28207  28.335  22.976   5.039
55140W        W28208  28.062  28.873   3.039
55141W        W28209  24.420   3.460   4.219
55142W        W28210  14.705  13.061  10.771
55143W        W28211  18.284  18.459   2.820
55144W        W28212   2.128  28.639  12.936
55145W        W28213  14.370  20.941  10.703
55146W        W28214  36.800   9.294   1.708
55147W        W28215  19.810   5.458  14.248
55148W        W28216  22.797  17.696  10.764
55149W        W28217  40.623  36.571   1.487
55150W        W28218  20.301   3.005   1.115
55151W        W28219  18.035  22.049   1.512
55152W        W28220  15.010  13.743  13.049
55153W        W28221  23.242   2.494   1.428
55154W        W28222  37.255  16.065  13.506
55155W        W28223  10.653  40.544   2.800
55156W        W28224  20.085  44.522  11.111
55157W        W28225   8.325  16.226   2.507
55158W        W28226   2.412   4.721  12.308
55159W        W28227  24.398  34.208  11.118
55160W        W28228   4.708  41.837  11.924
55161W        W28229  44.242  29.898   1.850
55162W        W28230  32.574   1.717   2.410
55163W        W28231  14.999  19.482   0.828
55164W        W28232  37.123  16.926  13.357
55165W        W28233  24.532  23.574   4.630
55166W        W28234   3.139  15.712   0.851
55167W        W28235   9.022  33.720  14.512
55168W        W28236  23.205  31.033   3.102
55169W        W28237  33.372  22.036   1.960
55170W        W28238  42.437  43.430   4.674
55171W        W28239   9.199   7.509  11.029
55172W        W28240  21.362  22.785   0.103
55173W        W28241  18.101  29.875   0.486
55174W        W28242  34.592   0.054   1.405
55175W        W28243  26.125  15.788  11.987
55176W        W28244   0.466   0.963   1.353
55177W        W28245  19.675  26.358   2.290
55178W        W28246   1.531  43.352   3.744
55179W        W28247  41.330   9.911  13.762
55180W        W28248  29.441  26.640   2.368
55181W        W28249  41.867  43.813  11.823
55182W        W28250   6.609  28.211  12.911
55183W        W28251   7.467   1.454  12.034
55184W        W28252  35.015   4.824  12.172
55185W        W28253   5.339  34.853  14.004
55186W        W28254   1.852  11.858   5.136
55187W        W28255  35.118  31.563   2.632
55188W        W28256  14.587  23.431   3.769
55189W        W28257  29.410  18.442  11.823
55190W        W28258  40.317  23.764  10.285
55191W        W28259  25.124  11.261   1.193
55192W        W28260  27.591  14.025  11.644
55193W        W28261  28.596  35.601   2.700
55194W        W28262  37.066  41.082   3.310
55195W        W28263   2.391  42.971  13.119
55196W        W28264  11.475  20.729   1.853
55197W        W28265  24.770  23.528   3.164
55198W        W28266  37.877  35.477  12.950
55199W        W28267  44.804  37.361  13.582
55200W        W28268  30.533  32.600  14.726
55201W        W28269   3.871  11.726   0.336
55202W        W28270  24.570  32.540  10.452
55203W        W28271   1.253   3.336   4.905
55204W        W28272  27.755  15.235  13.871
55205W        W28273  15.748   9.697  12.971
55206W        W28274   0.700  35.724   3.757
55207W        W28275   6.776   4.837  13.054
55208W        W28276  18.535   0.230  14.891
55209W        W28277  38.120  28.964  13.870
55210W        W28278  34.947  30.482   2.830
55211W        W28279  32.714  32.761   3.641
55212W        W28280  10.133  39.211   0.389
55213W        W28281  15.115  18.273   2.214
55214W        W28282  26.365  24.089   2.783
55215W        W28283   9.509  44.957   2.655
55216W        W28284  12.125  24.088  10.733
55217W        W28285  34.920   7.325   3.862
55218W        W28286  19.579  18.293   3.620
55219W        W28287  24.686  42.876   4.041
55220W        W28288  29.408  15.879   0.351
55221W        W28289  41.850   1.658  12.101
55222W        W28290   3.345  30.992   2.779
55223W        W28291  31.643  34.941   2.211
55224W        W28292  19.126  41.086   0.988
55225W        W28293  14.872   9.807   1.874
55226W        W28294  42.095  28.597  13.550
55227W        W28295  43.719  35.832  14.009
55228W        W28296  34.003  16.288  12.948
55229W        W28297  29.919  23.676  13.063
55230W        W28298  41.385  40.642   4.020
55231W        W28299  23.719  23.462  14.399
55232W        W28300  31.419  33.330  13.991
55233W        W28301   2.502  38.986  14.192
55234W        W28302  40.336  24.980  13.972
55235W        W28303  12.741  17.962  12.259
55236W        W28304  10.782  40.164   4.136
55237W        W28305  35.610   2.721  12.535
55238W        W28306  10.239  44.351  14.496
55239W        W28307  25.391   9.081   3.188
55240W        W28308  15.899  16.325  13.450
55241W        W28309  35.776  38.126   0.295
55242W        W28310   4.529  37.905  14.592
55243W        W28311  25.911  30.584   1.519
55244W        W28312   9.900  37.874   2.671
55245W        W28313  40.830  20.288  11.117
55246W        W28314   5.282  27.964  11.203
55247W        W28315  29.438  14.661   0.812
55248W        W28316  35.651  10.230   5.032
55249W        W28317  19.088  21.073  13.532
55250W        W28318  37.786   0.634   4.068
55251W        W28319  29.024  37.484   1.797
55252W        W28320  10.619   8.329   4.289
55253W        W28321  12.418  18.621  11.660
55254W        W28322   2.230  25.221   0.037
55255W        W28323  11.237   2.931  12.816
55256W        W28324  33.289  33.841  10.598
55257W        W28325  22.393  14.106  10.450
55258W        W28326  18.491   4.664  12.503
55259W        W28327  43.386  14.374   3.965
55260W        W28328   8.391   2.749   1.978
55261W        W28329  20.537  42.395   1.302
55262W        W28330  26.293  19.080   3.286
55263W        W28331  32.739   7.394   3.548
55264W        W28332  29.164  34.871   2.783
55265W        W28333  30.953  43.904   0.806
55266W        W28334   9.733  27.441  11.635
55267W        W28335   8.511  29.167  13.847
55268W        W28336  37.159  17.866   4.153
55269W        W28337   1.671  12.671  12.413
55270W        W28338  10.158   0.621   3.250
55271W        W28339  38.796   8.582   5.068
55272W        W28340  13.334  41.436  11.512
55273W        W28341  24.359   3.661  13.319
55274W        W28342  38.351  30.201   4.622
55275W        W28343  30.653  16.208  11.967
55276W        W28344  26.161  21.831   3.374
55277W        W28345  16.526  29.685  13.334
55278W        W28346  13.242  28.368  13.879
55279W        W28347  37.114  20.799  14.005
55280W        W28348   0.411  17.621   0.370
55281W        W28349  14.260   8.336  13.017
55282W        W28350  11.870  30.778  13.082
55283W        W28351  25.689  25.141  14.961
55284W        W28352   5.298  15.214   1.278
55285W        W28353  38.686   0.822   1.813
55286W        W28354  17.520   8.331  13.875
55287W        W28355  25.480  36.927   2.948
55288W        W28356  23.971  36.473   0.145
55289W        W28357  12.638   5.058   1.682
55290W        W28358   1.730  14.143   0.253
55291W        W28359  25.214  31.649   1.503
55292W        W28360  14.789   3.382   3.126
55293W        W28361   4.750  18.241  14.819
55294W        W28362  38.911   5.390   0.870
55295W        W28363  19.742  34.535  11.631
55296W        W28364   4.878   5.348  12.890
55297W        W28365  22.660   0.240   0.984
55298W        W28366  40.582  38.459  10.729
55299W        W28367  19.290   4.827  10.234
55300W        W28368  21.286  38.072   4.068
55301W        W28369  14.247   7.765   1.631
55302W        W28370   3.562  38.225  11.170
55303W        W28371  29.854  11.128  10.808
55304W        W28372  37.251   1.819  14.446
55305W        W28373  22.121  26.818  14.561
55306W        W28374  40.340  31.387  13.054
55307W        W28375  17.113  11.334  12.577
55308W        W28376   9.012  37.672  11.427
55309W        W28377  37.743  34.975  14.755
55310W        W28378  20.634  23.706  13.572
55311W        W28379   8.220   7.688  12.927
55312W        W28380  42.727  43.215   4.261
55313W        W28381  17.466  36.045  11.969
55314W        W28382  20.609  12.873   0.673
55315W        W28383   4.394   5.776  14.673
55316W        W28384  15.731  13.562  10.505
55317W        W28385  25.156  10.300   5.058
55318W        W28386  39.067  37.605  10.139
55319W        W28387  20.039   8.900   3.191
55320W        W28388  15.173  24.493  11.491
55321W        W28389  15.749  15.109  12.583
55322W        W28390   4.252   2.564   0.249
55323W        W28391  19.990  42.913  11.751
55324W        W28392  22.672   7.956   0.337
55325W        W28393  35.908  30.986   2.421
55326W        W28394  30.069   0.718   2.893
55327W        W28395  26.199  39.327  13.446
55328W        W28396  11.403   8.878   1.253
55329W        W28397  25.199  10.527   1.939
55330W        W28398  23.318  27.077  13.801
55331W        W28399  21.479  41.969   3.578
55332W        W28400  42.032  22.244   4.584
55333W        W28401  36.817  41.675  10.523
55334W        W28402  38.332  30.920  14.313
55335W        W28403  40.523  24.760  13.405
55336W        W28404   1.565  37.998  14.392
55337W        W28405  27.084  42.903   3.191
55338W        W28406  29.266  12.674   3.389
55339W        W28407  20.097  14.754   3.298
55340W        W28408  25.758   4.348   3.711
55341W        W28409   3.863  37.930   3.582
55342W        W28410  43.417   6.241  14.070
55343W        W28411  12.963  17.023  10.461
55344W        W28412  35.660  38.944   2.315
55345W        W28413   7.546  34.388  10.148
55346W        W28414  34.489  15.591  14.949
55347W        W28415  13.747  41.932   0.795
55348W        W28416  22.152  36.901   2.314
55349W        W28417  23.143  40.274   3.620
55350W        W28418  28.378   7.907   4.181
55351W        W28419  31.374   2.934   1.923
55352W        W28420  23.199  23.936  12.470
55353W        W28421  34.452   8.869   0.585
55354W        W28422  14.188   5.112  10.333
55355W        W28423  28.522  37.627   3.335
55356W        W28424  20.637  34.088   2.334
55357W        W28425  19.171  35.997  12.208
55358W        W28426   5.414  43.744   0.891
55359W        W28427   8.979  37.669  10.918
55360W        W28428   8.819  26.465   1.766
55361W        W28429   2.748  17.088  11.598
55362W        W28430  15.633  36.021  10.660
55363W        W28431  23.439   2.727  13.071
55364W        W28432  12.118  13.152   4.824
55365W        W28433  36.045  16.114  11.408
55366W        W28434  15.140  11.725  13.907
55367W        W28435  29.172  27.114  10.775
55368W        W28436  37.174  18.997   2.840
55369W        W28437  40.292  33.473   4.123
55370W        W28438   0.886  26.149  14.058
55371W        W28439  11.046  24.158  12.399
55372W        W28440  30.109  14.847   3.157
55373W        W28441  44.973  31.308   0.333
55374W        W28442  40.424  42.778   1.203
55375W        W28443  35.450   8.521   0.174
55376W        W28444  28.178  17.821  14.405
55377W        W28445  37.273  24.049   4.059
55378W        W28446   1.347  20.942   1.289
55379W        W28447   9.918  17.473   1.698
55380W        W28448   8.823   6.751  13.524
55381W        W28449  21.691   6.879  12.121
55382W        W28450  18.984  19.522  10.566
55383W        W28451  29.063  38.435   3.698
55384W        W28452  27.195  11.674  13.746
55385W        W28453  17.654   8.834  14.018
55386W        W28454  24.453  21.165  10.757
55387W        W28455  42.012   5.507   2.545
55388W        W28456  42.096  14.889  13.507
55389W        W28457  20.828  42.947   4.634
55390W        W28458  13.596  24.122   1.864
55391W        W28459  16.701  27.249  12.893
55392W        W28460  36.543  27.502   1.210
55393W        W28461   9.273   7.258   4.172
55394W        W28462  44.743   1.451  14.367
55395W        W28463  23.916   9.935   2.712
55396W        W28464  25.172  34.154  12.508
55397W        W28465   2.237  14.637   3.377
55398W        W28466  27.871  27.971   0.314
55399W        W28467  25.257  35.211   3.431
55400W        W28468  32.375  37.840  11.007
55401W        W28469   2.883  17.848   2.696
55402W        W28470  33.930  34.107  12.170
55403W        W28471  40.164  26.205  12.603
55404W        W28472  40.404  42.721   5.031
55405W        W28473  42.395   3.954  13.463
55406W        W28474  29.043  11.234  10.218
55407W        W28475   0.647   2.770   4.600
55408W        W28476   6.388  29.935  10.268
55409W        W28477  40.763  34.518   3.416
55410W        W28478  24.157  28.389   2.659
55411W        W28479  16.651  12.683  13.194
55412W        W28480  31.499  33.572  14.740
55413W        W28481  32.042  40.128  11.567
55414W        W28482  14.782  35.265   3.191
55415W        W28483   2.097  35.513  10.619
55416W        W28484  10.904  41.619   2.511
55417W        W28485  11.104  19.610   0.503
55418W        W28486   8.736  22.289  13.385
55419W        W28487   0.281  39.803  13.851
55420W        W28488  27.874  32.655  11.086
55421W        W28489  29.154   5.466  11.586
55422W        W28490   6.353   3.635  12.085
55423W        W28491  44.745  15.920  13.845
55424W        W28492  26.641   2.393   4.661
55425W        W28493  20.360  41.904   1.359
55426W        W28494  32.560  17.795   3.729
55427W        W28495  18.230  43.862  12.591
55428W        W28496  44.368  19.849  12.871
55429W        W28497  10.703  13.002   2.143
55430W        W28498  34.346  43.836   0.529
55431W        W28499  22.630  44.996  12.495
55432W        W28500   4.438  19.079  10.698
55433W        W28501   1.796  23.504   0.424
55434W        W28502  37.916   7.408   0.864
55435W        W28503   8.207   5.793  10.812
55436W        W28504  10.548   6.840   1.350
55437W        W28505  36.199  36.049  10.255
55438W        W28506  44.935  36.832   3.825
55439W        W28507   9.858  22.667  14.434
55440W        W28508   9.582  23.076   3.958
55441W        W28509  28.019  26.526  13.526
55442W        W28510  32.923  27.413  14.036
55443W        W28511  17.982  24.177  12.178
55444W        W28512  29.012   0.350  14.045
55445W        W28513   8.914  13.557  12.953
55446W        W28514  39.924  20.271   3.981
55447W        W28515   6.336  33.304   0.324
55448W        W28516  30.574  16.216  13.972
55449W        W28517  25.758  22.149  10.646
55450W        W28518   3.816  24.456   3.337
55451W        W28519  34.122  39.931   4.498
55452W        W28520  37.862  20.754  14.358
55453W        W28521  23.074  18.131   0.718
55454W        W28522  28.537  17.109   3.669
55455W        W28523  19.756   4.886   2.420
55456W        W28524  34.499   2.930   2.795
55457W        W28525  34.889   4.740   4.534
55458W        W28526  12.727  31.523   3.775
55459W        W28527  21.615   4.668  13.382
55460W        W28528  36.959  30.011  11.667
55461W        W28529   3.408  14.726  14.891
55462W        W28530   6.750   4.602   2.957
55463W        W28531  41.858  11.096  14.416
55464W        W28532  18.841   7.233  14.553
55465W        W28533  40.286   2.040  13.985
55466W        W28534  28.149  17.713  11.516
55467W        W28535  19.784  29.546  14.281
55468W        W28536  30.124   7.028  12.053
55469W        W28537   9.552  26.136  12.664
55470W        W28538  38.969   7.939   4.283
55471W        W28539  17.694  16.300   4.203
55472W        W28540  41.256  38.601  14.100
55473W        W28541  32.145  40.609  11.394
55474W        W28542  28.909  29.375   1.865
55475W        W28543   1.464  14.164   4.045
55476W        W28544  33.906  36.800   3.732
55477W        W28545  11.871  11.875   4.527
55478W        W28546  20.811   1.026  10.765
55479W        W28547  26.083  37.017  13.108
55480W        W28548  27.231  33.603   2.884
55481W        W28549   9.735  32.172   4.440
55482W        W28550  43.760   5.141   3.553
55483W        W28551  21.189  19.470  11.602
55484W        W28552  19.161  23.639  10.653
55485W        W28553  17.032  19.708   0.157
55486W        W28554   2.631  39.966  14.264
55487W        W28555  25.953  40.847   1.318
55488W        W28556  39.391  13.937   1.143
55489W        W28557   8.975  36.351  11.747
55490W        W28558   6.730  11.434  13.340
55491W        W28559  30.265  16.620   1.310
55492W        W28560  33.863  28.509  11.713
55493W        W28561  15.796  38.318   0.476
55494W        W28562  42.911  41.047   1.781
55495W        W28563  11.674   6.371   3.642
55496W        W28564  30.143  16.727  14.501
55497W        W28565  27.677  23.217   0.996
55498W        W28566  28.063  26.925  14.360
55499W        W28567  21.210  19.166   1.788
55500W        W28568   4.973  10.163  13.000
55501W        W28569  18.270  29.829  11.161
55502W        W28570  20.728   6.386   4.718
55503W        W28571   2.490  25.485  12.917
55504W        W28572  40.622  34.127   4.495
55505W        W28573  34.066  12.908  13.421
55506W        W28574  23.028  14.702   2.953
55507W        W28575  35.461  20.045   0.767
55508W        W28576   5.500  37.016   0.701
55509W        W28577  32.969  10.417  14.666
55510W        W28578  30.145  36.620   2.611
55511W        W28579  44.229  26.597   4.159
55512W        W28580  17.911  37.641  10.663
55513W        W28581  23.414  14.734  11.169
55514W        W28582  26.140  35.498   0.279
55515W        W28583  32.858  15.160  10.376
55516W        W28584  14.426  33.385   3.345
55517W        W28585   5.406  22.159  11.689
55518W        W28586  29.798  40.571   2.937
55519W        W28587   2.020  43.322   2.367
55520W        W28588  14.804  23.787   2.086
55521W        W28589  16.323  19.225  12.185
55522W        W28590   4.302  35.856  14.551
55523W        W28591  27.520  34.243  10.755
55524W        W28592   8.862  29.315   3.398
55525W        W28593  35.859  28.446  12.848
55526W        W28594  35.281  43.944   0.436
55527W        W28595  24.195   3.544  11.613
55528W        W28596  22.861  41.354  11.407
55529W        W28597   0.908  30.829   3.386
55530W        W28598  10.283  35.339  11.661
55531W        W28599  41.297  32.993   2.195
55532W        W28600  41.506  28.223  11.567
55533W        W28601  14.891  12.436  12.595
55534W        W28602  27.325  13.072  12.552
55535W        W28603  12.790   4.205  10.975
55536W        W28604  44.756  34.876  14.485
55537W        W28605  24.872  19.560   0.995
55538W        W28606   8.769   4.756  12.799
55539W        W28607  16.850  16.231   1.300
55540W        W28608   8.043  27.193   0.867
55541W        W28609   0.980  25.527   2.362
55542W        W28610  44.685  23.276   4.069
55543W        W28611  32.937  43.841   3.619
55544W        W28612  25.093  37.779   5.031
55545W        W28613  20.435   8.253  12.472
55546W        W28614  21.786  12.676  11.459
55547W        W28615  31.679  25.981   4.223
55548W        W28616   6.752  43.795  11.985
55549W        W28617  18.308  43.424   1.841
55550W        W28618   6.780  18.192   0.350
55551W        W28619  17.057  13.247   0.869
55552W        W28620  28.647  15.317   0.966
55553W        W28621  27.169   3.340  10.911
55554W        W28622  23.694   7.561   2.176
55555W        W28623  18.634  30.043   1.235
55556W        W28624   2.426   9.081  11.187
55557W        W28625  22.574  19.788  13.029
55558W        W28626  41.176  38.760   3.561
55559W        W28627  26.660   2.689   4.208
55560W        W28628  39.946  29.626  12.012
55561W        W28629  10.931   4.733  10.929
55562W        W28630   7.636  30.911  12.731
55563W        W28631  35.606  40.875   4.781
55564W        W28632  22.222  20.638  11.250
55565W        W28633  25.542  37.995  14.871
55566W        W28634  20.802  24.639  13.847
55567W        W28635  24.725   6.220   2.522
55568W        W28636  22.233  26.225   1.841
55569W        W28637  26.346  27.323  13.766
55570W        W28638  29.642  25.981  13.067
55571W        W28639  44.467  21.187  14.307
55572W        W28640  24.298  44.161  11.971
55573W        W28641  10.348  37.289   2.175
55574W        W28642  11.889  38.450  14.814
55575W        W28643   2.035  21.754   1.883
55576W        W28644  37.975   4.420   2.326
55577W        W28645  27.961   2.700  13.073
55578W        W28646  40.359  24.707   2.771
55579W        W28647  34.503  34.644  14.923
55580W        W28648  27.949  30.948  11.956
55581W        W28649   6.347  40.040  12.829
55582W        W28650  41.419  30.533   2.343
55583W        W28651  21.254  22.026   1.940
55584W        W28652   0.905  23.084  12.145
55585W        W28653  25.404  23.528   0.797
55586W        W28654  35.556   9.664  14.130
55587W        W28655   4.831   3.005  13.409
55588W        W28656  36.850  17.541   0.973
55589W        W28657  14.361  39.333   0.263
55590W        W28658  18.018  15.778  12.421
55591W        W28659  31.119  26.936  13.535
55592W        W28660  28.593  41.457   2.437
55593W        W28661   2.372  20.001  14.770
55594W        W28662  15.851  18.127   0.011
55595W        W28663  19.327   3.786   0.752
55596W        W28664  10.710  27.846  12.135
55597W        W28665  44.279  30.212   3.224
55598W        W28666  14.764  37.397   1.721
55599W        W28667  12.677  33.089   3.396
55600W        W28668  26.600  25.653   0.505
55601W        W28669  37.343   5.755   3.710
55602W        W28670  33.915  16.642  11.321
55603W        W28671   7.236  21.817   0.602
55604W        W28672   6.445  18.624  11.470
55605W        W28673  43.180  40.512   5.070
55606W        W28674  24.916   8.350   1.464
55607W        W28675  25.342  43.366  12.925
55608W        W28676  29.548   7.172   1.795
55609W        W28677  19.841  39.103  14.520
55610W        W28678  17.590  26.226   1.802
55611W        W28679  23.834  42.087  11.125
55612W        W28680  37.281  30.475   4.065
55613W        W28681  29.482  14.645  14.938
55614W        W28682   2.794  27.449   2.222
55615W        W28683  11.897  12.172   3.334
55616W        W28684   2.274  21.741   0.985
55617W        W28685  16.219  10.699   4.497
55618W        W28686  37.769  24.078   5.045
55619W        W28687  14.336  26.069  14.411
55620W        W28688  32.872  27.711   3.326
55621W        W28689   3.432  29.224  10.631
55622W        W28690  36.806  15.052  11.545
55623W        W28691  22.067  22.183   0.286
55624W        W28692  22.142  35.095   4.804
55625W        W28693   6.571  14.722   4.631
55626W        W28694   8.724  33.292   1.635
55627W        W28695  17.610  18.759  13.414
55628W        W28696  42.261  19.564  13.104
55629W        W28697  27.448  33.987  14.367
55630W        W28698  11.007  35.973  13.553
55631W        W28699  40.883   5.104   4.639
55632W        W28700  11.324  27.234  12.145
55633W        W28701  38.896  40.926   0.513
55634W        W28702  19.057  26.169  13.299
55635W        W28703   0.089  17.716   1.741
55636W        W28704   5.638  38.987   0.403
55637W        W28705  40.510  43.928  13.167
55638W        W28706  22.682  28.921  12.879
55639W        W28707  36.047  44.434  14.405
55640W        W28708  35.075  30.917   2.099
55641W        W28709  40.583   6.302   3.344
55642W        W28710  36.188  28.882  12.018
55643W        W28711   3.765  43.230   2.485
55644W        W28712  29.165   6.461  13.463
55645W        W28713  13.548  35.062   3.708
55646W        W28714  32.614   1.404   1.294
55647W        W28715   6.812  44.504   2.267
55648W        W28716  16.163   2.941   3.665
55649W        W28717  27.169  16.763  14.825
55650W        W28718  42.523  36.071  12.505
55651W        W28719   1.458  26.449  11.140
55652W        W28720  38.351  20.073  13.932
55653W        W28721   7.960  21.082   3.943
55654W        W28722   1.933  25.401  14.325
55655W        W28723  25.833  13.683  12.574
55656W        W28724   7.819   5.438  10.814
55657W        W28725  19.804  14.752  13.293
55658W        W28726  27.936  19.235   1.753
55659W        W28727   6.389  22.018   0.715
55660W        W28728  41.246   0.515   2.509
55661W        W28729  44.152  12.173   0.490
55662W        W28730   3.889  41.819   1.397
55663W        W28731  25.963  41.331   2.602
55664W        W28732  38.945  39.136   2.471
55665W        W28733   7.874  34.447  10.589
55666W        W28734  39.459  22.046   0.007
55667W        W28735   8.606   7.987  11.675
55668W        W28736  23.907  11.179  13.818
55669W        W28737  42.633  21.272   3.703
55670W        W28738  27.069  26.650   1.261
55671W        W28739   5.657  25.202  11.032
55672W        W28740  19.613   9.203  12.629
55673W        W28741  13.358  22.473   3.719
55674W        W28742  18.117  22.691  13.328
55675W        W28743  16.810   0.360  10.663
55676W        W28744  18.324   0.346  14.384
55677W        W28745  40.311  22.666   0.722
55678W        W28746  27.449  43.285   3.254
55679W        W28747  25.462   7.774   2.463
55680W        W28748  25.713  34.418  13.330
55681W        W28749  23.485  26.943   1.837
55682W        W28750  12.695  34.949  12.021
55683W        W28751  18.952  40.966  13.368
55684W        W28752   5.258  22.487  13.382
55685W        W28753  27.991   3.672  13.012
55686W        W28754   6.439  14.301  10.828
55687W        W28755  34.410  32.770   0.508
55688W        W28756   1.689  39.449  14.088
55689W        W28757  17.236  12.440  10.777
55690W        W28758  21.070   9.070  10.637
55691W        W28759  15.837  14.331  14.677
55692W        W28760  13.291   8.570  14.422
55693W        W28761   3.186  28.676  13.384
55694W        W28762  19.770  31.553  13.345
55695W        W28763  24.163  15.801  10.953
55696W        W28764  20.239  44.701   0.936
55697W        W28765  11.557  43.474  10.383
55698W        W28766   3.465  22.023   0.535
55699W        W28767  33.977  15.767  14.843
55700W        W28768  17.348  15.761   0.602
55701W        W28769  21.671   7.724   1.387
55702W        W28770  38.442  40.441  14.367
55703W        W28771  42.568  40.512   2.586
55704W        W28772  34.384  32.636  12.496
55705W        W28773  21.159  41.904   4.392
55706W        W28774  39.978  25.069   5.241
55707W        W28775  16.168   1.411   2.216
55708W        W28776  15.177  26.026   1.505
55709W        W28777   3.806  44.232   1.914
55710W        W28778  32.737  14.356   4.565
55711W        W28779  34.646  18.787  14.011
55712W        W28780  28.199  10.314  14.418
55713W        W28781  44.169  44.972  12.654
55714W        W28782  39.548  19.272  11.193
55715W        W28783  34.886  26.113  12.923
55716W        W28784  44.742  16.749  14.381
55717W        W28785  42.875  32.395  13.478
55718W        W28786  42.372  33.923  12.387
55719W        W28787  13.050  26.976  10.325
55720W        W28788  39.536  42.516  11.175
55721W        W28789  12.255  18.580   4.720
55722W        W28790  31.800   3.904   0.383
55723W        W28791  17.950  39.284  12.500
55724W        W28792   2.304  14.333  11.202
55725W        W28793  34.737   8.097   0.491
55726W        W28794  26.415  34.024   1.466
55727W        W28795  35.287  12.841   3.205
55728W        W28796  23.969  12.101  12.065
55729W        W28797  43.839  25.936   3.768
55730W        W28798  24.764  23.967   3.657
55731W        W28799   6.437  20.189   0.395
55732W        W28800  39.444  36.529   3.568
55733W        W28801  35.606  10.790  13.586
55734W        W28802  15.085  17.416   0.860
55735W        W28803  28.342  31.632   0.438
55736W        W28804  13.517  16.825  11.300
55737W        W28805  14.774  22.554   0.782
55738W        W28806  31.688  14.241  12.512
55739W        W28807  36.150  43.147  13.238
55740W        W28808   4.773   5.062   4.778
55741W        W28809  33.730  25.133   2.602
55742W        W28810  30.649  41.753   0.796
55743W        W28811  32.330  25.628   0.261
55744W        W28812  43.228  30.298   1.775
55745W        W28813  12.695  26.924   1.982
55746W        W28814  28.570  33.859  12.664
55747W        W28815  24.519  24.818  12.138
55748W        W28816  19.992  43.446  11.995
55749W        W28817  31.392  22.551  14.716
55750W        W28818  19.540  25.680  14.461
55751W        W28819   3.153  19.234  11.917
55752W        W28820  33.624  35.442   1.794
55753W        W28821  17.135  19.660   4.060
55754W        W28822  38.973  19.375   2.317
55755W        W28823  37.422  31.897   9.866
55756W        W28824  39.297  22.181  11.039
55757W        W28825  44.048  31.943  11.407
55758W        W28826   0.260   3.421   1.719
55759W        W28827  40.595  25.481  14.118
55760W        W28828  14.716  37.425  12.072
55761W        W28829  10.361   7.787  13.754
55762W        W28830   0.968  23.581   3.687
55763W        W28831   9.425   1.983   3.774
55764W        W28832  38.221   6.005   3.183
55765W        W28833  36.545  32.700   0.325
55766W        W28834  40.000   9.484   3.204
55767W        W28835  32.364   8.218   1.205
55768W        W28836  30.762  37.901   1.543
55769W        W28837  34.557  29.693   2.685
55770W        W28838   1.360  31.491   1.827
55771W        W28839   7.120  24.497  11.922
55772W        W28840  25.407  42.536   2.195
55773W        W28841  18.696  29.587   0.383
55774W        W28842  28.603   3.980   0.686
55775W        W28843  35.068  44.576  11.370
55776W        W28844  38.509  28.547   2.250
55777W        W28845   0.990   9.985  14.329
55778W        W28846   8.890  42.360   3.864
55779W        W28847  44.353   0.414   4.477
55780W        W28848  16.530  25.091   3.367
55781W        W28849   2.372   5.038  11.890
55782W        W28850   5.410  35.864  13.376
55783W        W28851  17.167  32.026  10.827
55784W        W28852  16.742  11.320   4.570
55785W        W28853  30.079  19.792   3.372
55786W        W28854  30.436  40.266  13.759
55787W        W28855   2.766  15.748  10.323
55788W        W28856  32.024  33.855   0.999
55789W        W28857  26.697  18.017   1.795
55790W        W28858  42.339  34.436  12.594
55791W        W28859  38.492  14.345  11.598
55792W        W28860  27.488   9.622  12.024
55793W        W28861   7.299   5.262  10.844
55794W        W28862   3.311  21.691   0.886
55795W        W28863  15.633  26.011  12.987
55796W        W28864  23.569  16.105  10.989
55797W        W28865  14.258  29.420   2.413
55798W        W28866  11.764   0.379  11.526
55799W        W28867  44.368  25.227   3.272
55800W        W28868  26.981  38.118   0.501
55801W        W28869  44.427  33.864  11.001
55802W        W28870  22.443  40.809  12.913
55803W        W28871   4.820  28.828   0.950
55804W        W28872  40.311  13.688  10.998
55805W        W28873   9.405   1.810  11.023
55806W        W28874  39.458  16.671  12.612
55807W        W28875  30.433  44.372  11.200
55808W        W28876  19.215  40.417   0.467
55809W        W28877   6.851   8.793   4.241
55810W        W28878  19.748  39.250   2.840
55811W        W28879  21.528  43.254   2.494
55812W        W28880  35.384  25.578  12.485
55813W        W28881  23.462  11.623   2.931
55814W        W28882  27.638  13.655   1.248
55815W        W28883  26.735  11.194  11.533
55816W        W28884  18.358  17.264   2.365
55817W        W28885  17.995  43.994   2.180
55818W        W28886  42.135   0.374  12.514
55819W        W28887   4.924  30.254   1.778
55820W        W28888  14.575  34.620  11.209
55821W        W28889  36.028  11.041   3.145
55822W        W28890  26.989  25.518   3.645
55823W        W28891  41.797  33.284   0.784
55824W        W28892  30.669  39.595  10.779
55825W        W28893  11.516  29.127  14.962
55826W        W28894  40.137  16.894  12.872
55827W        W28895  13.897   8.739   4.562
55828W        W28896  24.260  17.462  12.099
55829W        W28897  18.402   5.177  13.868
55830W        W28898  40.453  20.970   2.267
55831W        W28899   7.115  18.738  13.379
55832W        W28900  44.969  21.665   3.203
55833W        W28901  27.437   0.288   3.072
55834W        W28902  33.129  19.060  13.130
55835W        W28903  28.848  10.921  10.628
55836W        W28904   1.759  30.921  11.580
55837W        W28905  22.875  32.554   0.409
55838W        W28906  23.961  38.658   2.724
55839W        W28907  38.536   1.243  13.407
55840W        W28908  17.192  24.531   3.826
55841W        W28909  30.706  43.628  13.290
55842W        W28910  42.581  39.037   0.828
55843W        W28911  33.286  42.124   4.988
55844W        W28912  38.948  25.294  12.059
55845W        W28913   0.779  31.658   2.130
55846W        W28914   1.109  44.901  10.449
55847W        W28915   2.028  39.351   1.807
55848W        W28916  35.486   5.194  11.896
55849W        W28917  14.471  36.047  12.926
55850W        W28918  33.974  18.992  11.491
55851W        W28919  36.798   2.680   4.010
55852W        W28920  21.588  20.500  13.898
55853W        W28921  37.933   3.289  13.516
55854W        W28922  36.951  21.484  13.451
55855W        W28923  23.236  13.828   2.434
55856W        W28924  37.389  29.002  12.540
55857W        W28925  37.609   5.836  11.232
55858W        W28926  44.948  23.229  13.468
55859W        W28927  26.918   6.495   4.210
55860W        W28928  33.465  36.944   4.676
55861W        W28929  42.884  19.225  12.118
55862W        W28930  23.126   0.748   4.250
55863W        W28931  31.541   0.926  10.874
55864W        W28932  39.248  41.235  14.794
55865W        W28933  16.340  23.696   2.765
55866W        W28934  27.060  39.487   0.861
55867W        W28935   9.362  33.416  14.823
55868W        W28936  16.705  29.339  11.988
55869W        W28937  37.358  20.237  13.793
55870W        W28938  33.654   0.270   3.637
55871W        W28939   9.604   0.568  11.609
55872W        W28940   6.954  33.150  12.002
55873W        W28941  18.613  43.717   4.848
55874W        W28942  27.308  27.977  10.149
55875W        W28943  36.393  34.303   4.231
55876W        W28944   6.700   5.976  11.198
55877W        W28945  42.482  26.069  11.573
55878W        W28946  10.835   9.852  10.481
55879W        W28947  28.138  30.651   3.676
55880W        W28948  43.854  24.452   3.734
55881W        W28949  32.004  14.049   5.001
55882W        W28950  41.703  32.247   0.858
55883W        W28951  41.649  28.052  10.242
55884W        W28952  37.030   9.019   2.196
55885W        W28953  32.337  32.986  13.955
55886W        W28954  26.437  43.990   0.265
55887W        W28955  36.773   1.442   0.915
55888W        W28956  30.728  24.161  14.993
55889W        W28957   9.739  23.130  11.650
55890W        W28958  36.498   3.627   1.414
55891W        W28959  30.148  25.435   0.731
55892W        W28960  29.780   2.989   3.508
55893W        W28961  43.082  11.406   0.346
55894W        W28962  21.684   6.318   2.996
55895W        W28963   1.389  39.815  11.198
55896W        W28964  26.027  31.122  14.774
55897W        W28965   2.315  39.752   1.621
55898W        W28966  17.640  32.936   2.673
55899W        W28967  19.242  27.011  10.741
55900W        W28968  34.082  15.717  13.886
55901W        W28969  15.158   9.200   4.390
55902W        W28970  32.006  31.790   1.423
55903W        W28971  36.091  32.417  11.076
55904W        W28972  27.150  19.183   4.101
55905W        W28973  21.196  41.609  12.327
55906W        W28974  40.025  13.785   3.298
55907W        W28975  25.794   9.895  11.123
55908W        W28976  34.631  40.465   0.418
55909W        W28977  14.854  34.087  14.009
55910W        W28978  29.469   1.939   0.037
55911W        W28979   6.612   8.196   2.222
55912W        W28980   0.557  22.636   3.824
55913W        W28981   8.621  44.633   3.834
55914W        W28982  37.417  39.369  10.353
55915W        W28983  24.795  13.800  14.977
55916W        W28984   4.319  26.908   1.296
55917W        W28985  25.035  15.746   3.407
55918W        W28986   4.618  18.895   2.201
55919W        W28987  44.968  35.862   1.440
55920W        W28988  44.737  34.084  10.596
55921W        W28989  12.402  16.012  12.337
55922W        W28990  15.200  38.127   3.356
55923W        W28991  24.681   5.908  12.218
55924W        W28992  21.112   3.659   4.235
55925W        W28993  39.072  19.774  13.555
55926W        W28994  34.893  15.807   2.130
55927W        W28995  33.998  15.808   4.010
55928W        W28996   3.462  12.943   1.880
55929W        W28997  35.731  17.449   2.376
55930W        W28998  14.576  15.584   2.877
55931W        W28999  10.284  39.611   0.715
55932W        W29000   8.798  24.631   0.898
55933W        W29001  24.151  20.261   1.346
55934W        W29002  26.458   4.431   2.226
55935W        W29003  39.084  42.418   4.906
55936W        W29004  22.668  32.877   4.206
55937W        W29005  21.051  32.063  14.284
55938W        W29006  29.399  44.813  10.876
55939W        W29007   4.728  38.969   3.226
55940W        W29008  14.967   4.906  14.016
55941W        W29009  35.555   0.771  13.079
55942W        W29010   2.267  32.435   2.926
55943W        W29011  32.230  27.636  14.356
55944W        W29012  34.638  31.771   5.389
55945W        W29013  16.820  37.017   2.686
55946W        W29014  17.966  27.831  11.482
55947W        W29015  33.591   9.337   3.585
55948W        W29016  13.756  35.939   2.506
55949W        W29017   5.398   6.282   4.140
55950W        W29018  35.568  28.673  14.833
55951W        W29019  41.439   8.722  14.900
55952W        W29020  41.442   4.003   3.681
55953W        W29021  20.056  44.964   0.545
55954W        W29022   3.422  31.422  14.417
55955W        W29023  16.753   9.371   3.638
55956W        W29024  21.471  20.037   3.817
55957W        W29025  40.129   4.330  14.003
55958W        W29026  11.796   1.875  10.557
55959W        W29027  13.840  13.201  13.081
55960W        W29028  35.355   9.355   2.877
55961W        W29029  18.046  17.655   1.795
55962W        W29030  15.994  13.732   1.463
55963W        W29031   3.726  39.457  13.915
55964W        W29032   8.877  36.924  12.999
55965W        W29033  25.024  23.661  10.986
55966W        W29034  37.580   4.673  13.819
55967W        W29035   0.953  13.675  13.146
55968W        W29036   9.670  44.329   4.597
55969W        W29037  14.771  28.546   1.939
55970W        W29038  38.780  26.071  14.264
55971W        W29039  37.210   4.961  14.402
55972W        W29040   2.594   4.301   0.494
55973W        W29041  21.067  17.909   0.008
55974W        W29042  16.898  25.741   3.747
55975W        W29043  22.521  29.566  14.893
55976W        W29044  34.551  31.760   4.655
55977W        W29045   0.833  37.777  10.724
55978W        W29046  42.975  16.070   1.396
55979W        W29047  15.491  11.709  10.783
55980W        W29048  27.828  22.125  12.709
55981W        W29049   5.209  32.997  12.451
55982W        W29050  43.340   8.692  13.142
55983W        W29051  30.889  28.217  11.150
55984W        W29052  29.358  10.753  10.598
55985W        W29053  38.025  42.976   4.033
55986W        W29054  24.137  19.552  11.772
55987W        W29055  11.713  28.902  14.338
55988W        W29056   9.268  43.419   1.016
55989W        W29057  34.816  25.974   3.324
55990W        W29058   9.389   6.319  13.025
55991W        W29059  29.509   4.427  13.140
55992W        W29060  20.576  23.942   1.859
55993W        W29061  17.980  31.624  11.461
55994W        W29062   9.221   5.203  14.348
55995W        W29063  35.013  29.225   4.251
55996W        W29064  26.495  18.182   1.328
55997W        W29065  33.008  26.337  11.697
55998W        W29066   8.304  15.149  11.288
55999W        W29067  34.614  18.096  10.639
56000W        W29068  23.262  34.504   2.911
56001W        W29069   8.320  39.832   1.433
56002W        W29070   8.888  39.437  11.499
56003W        W29071  18.663  23.280  12.681
56004W        W29072   9.968  17.590   2.213
56005W        W29073  10.711  43.863   1.135
56006W        W29074   8.590  10.291  10.770
56007W        W29075  27.485  28.028  12.070
56008W        W29076  44.631  15.451  11.458
56009W        W29077  21.701  11.255   5.010
56010W        W29078  39.155  17.738  11.440
56011W        W29079   0.027   1.909  13.436
56012W        W29080  26.367  11.723  10.179
56013W        W29081   4.657  27.998   0.427
56014W        W29082  22.126   4.398   4.809
56015W        W29083  12.250  32.033   3.186
56016W        W29084  15.331  13.858   3.797
56017W        W29085  23.447  20.581  11.483
56018W        W29086   3.713  38.101  14.849
56019W        W29087  24.718  12.865   1.933
56020W        W29088   0.834   4.253   4.178
56021W        W29089  40.536  34.443  12.658
56022W        W29090  10.218  44.947  13.377
56023W        W29091  25.011   4.499   4.246
56024W        W29092  38.883  10.714   0.379
56025W        W29093   5.212  40.516  13.417
56026W        W29094  43.428  41.336   5.034
56027W        W29095   4.944  27.290  13.503
56028W        W29096  35.942  14.941  13.491
56029W        W29097   6.204   2.120  13.494
56030W        W29098  36.665   0.489  11.904
56031W        W29099  29.217  17.983   0.754
56032W        W29100   8.656  28.402   4.118
56033W        W29101  14.820  40.503  14.235
56034W        W29102  21.629  36.070  14.101
56035W        W29103   2.327  12.021  10.962
56036W        W29104  35.786  29.164  12.196
56037W        W29105  13.339  23.129   0.942
56038W        W29106   8.202  38.971  11.350
56039W        W29107  12.240  34.006   3.158
56040W        W29108  37.907  30.470  14.780
56041W        W29109  42.703  36.342   0.993
56042W        W29110  16.305  10.613  12.501
56043W        W29111  44.736  20.032  14.938
56044W        W29112  21.791  11.821  10.925
56045W        W29113   9.820  10.131   0.723
56046W        W29114   9.762  18.793   2.569
56047W        W29115  19.626   6.384   4.811
56048W        W29116  23.371  16.359   2.744
56049W        W29117   0.048   7.201  11.153
56050W        W29118  21.284  44.819   4.107
56051W        W29119  17.740  20.838  13.393
56052W        W29120   1.394  35.888   0.277
56053W        W29121  22.768  33.696   3.780
56054W        W29122  23.064  37.940   0.729
56055W        W29123   5.180  44.585  10.781
56056W        W29124  12.266  24.064  14.635
56057W        W29125   6.219   3.826   3.427
56058W        W29126  33.359  29.605   4.581
56059W        W29127  14.129  11.675  14.454
56060W        W29128  37.594  27.623   3.319
56061W        W29129  44.313   6.254   4.506
56062W        W29130  39.793  41.453   2.860
56063W        W29131  24.991  11.725  10.534
56064W        W29132  26.313  43.818  11.582
56065W        W29133  18.342   6.790   4.966
56066W        W29134  15.874  17.011   5.232
56067W        W29135  14.138  41.018   3.187
56068W        W29136  24.217  14.463  13.195
56069W        W29137  39.984  37.252   4.465
56070W        W29138   2.282  18.319   2.943
56071W        W29139  25.969  22.011   3.832
56072W        W29140  33.926  16.512   0.878
56073W        W29141   0.966  36.986  14.794
56074W        W29142   0.784  21.358   2.372
56075W        W29143  13.341  28.652  12.452
56076W        W29144  42.468   4.197   1.360
56077W        W29145   1.242  21.689  14.965
56078W        W29146  37.039  39.076   2.310
56079W        W29147  10.257  21.181   3.628
56080W        W29148  10.081  39.356  12.045
56081W        W29149  26.772  42.964  11.654
56082W        W29150  14.204  23.474  10.734
56083W        W29151  33.550  40.312   4.293
56084W        W29152   3.916  32.607  14.498
56085W        W29153  18.661   2.829   0.237
56086W        W29154   1.701  16.810  10.432
56087W        W29155  26.405  12.283  11.166
56088W        W29156  18.150  39.861  13.736
56089W        W29157   3.314  32.641   2.105
56090W        W29158   9.628  12.834   1.613
56091W        W29159  26.971  25.921   0.264
56092W        W29160  32.575  11.661  12.059
56093W        W29161  19.327  10.770   0.522
56094W        W29162  30.554   9.767   4.918
56095W        W29163  35.184  41.400  12.330
56096W        W29164  40.009  34.660  14.989
56097W        W29165   7.102  31.411   2.732
56098W        W29166  19.703  34.262   2.626
56099W        W29167   6.635   1.543  11.595
56100W        W29168  17.620  40.529  11.062
56101W        W29169   2.042  23.958  13.534
56102W        W29170   1.759  11.346   4.377
56103W        W29171  44.380  37.557   4.761
56104W        W29172  36.785  10.622   1.331
56105W        W29173   3.702   9.319   0.800
56106W        W29174  17.616  44.170   1.800
56107W        W29175  20.114   7.613  13.805
56108W        W29176   6.250   9.338  12.905
56109W        W29177  26.911   3.214  14.298
56110W        W29178   8.522  10.668  13.162
56111W        W29179  19.602  36.871   0.743
56112W        W29180  17.762  33.444   1.315
56113W        W29181   0.260  28.575   0.413
56114W        W29182  27.957  18.821   1.423
56115W        W29183  19.186   3.346   4.271
56116W        W29184   5.290  29.425  12.535
56117W        W29185   9.834  14.587  13.776
56118W        W29186  20.231  41.042   0.860
56119W        W29187  41.153  36.742   4.550
56120W        W29188  14.306  35.320  11.758
56121W        W29189  40.539  11.548   0.978
56122W        W29190  25.353  39.284   3.284
56123W        W29191  14.182  30.720  14.879
56124W        W29192  31.512   8.442   3.830
56125W        W29193  38.751   8.307   1.552
56126W        W29194   7.712  17.068   3.200
56127W        W29195  17.571  37.944   1.815
56128W        W29196  42.393  12.885   3.228
56129W        W29197  39.263   1.546   0.816
56130W        W29198  26.096  42.896   2.103
56131W        W29199   9.407  39.385  13.087
56132W        W29200  18.721  39.410   4.554
56133W        W29201  19.241  15.755   4.179
56134W        W29202  25.958  28.056   1.371
56135W        W29203  39.864  20.793  13.063
56136W        W29204  32.043  19.182  12.113
56137W        W29205  44.540  41.550   2.534
56138W        W29206   2.349   8.143  13.006
56139W        W29207  16.104  30.073   4.569
56140W        W29208  34.370  23.158   0.020
56141W        W29209  17.120  12.197   1.456
56142W        W29210  21.563   1.435  11.923
56143W        W29211   1.285  41.964   3.149
56144W        W29212  17.230  40.273  11.347
56145W        W29213  33.917  25.145   1.750
56146W        W29214  42.044  24.777   4.086
56147W        W29215   7.841  37.060  14.579
56148W        W29216   9.882   7.300  12.554
56149W        W29217  33.404   9.658  12.857
56150W        W29218  28.182  41.243   3.245
56151W        W29219  42.338  17.925   3.931
56152W        W29220  19.212  26.225  11.195
56153W        W29221  28.890  39.461   2.896
56154W        W29222   8.845  40.985  11.618
56155W        W29223  24.150  43.385   2.865
56156W        W29224  34.340  30.496  13.851
56157W        W29225  18.456  26.499   0.402
56158W        W29226   5.374  40.541  14.835
56159W        W29227   8.323  26.087  10.680
56160W        W29228  15.508  29.998  12.437
56161W        W29229  29.699  18.524  10.973
56162W        W29230  30.046  39.936   2.336
56163W        W29231  11.394   7.628  10.590
56164W        W29232   8.452  13.346   3.231
56165W        W29233  22.989   2.454   2.408
56166W        W29234  29.009   4.610  13.343
56167W        W29235  42.291  30.105  14.349
56168W        W29236  29.521  32.051  11.602
56169W        W29237   3.212   5.951  12.143
56170W        W29238  35.814  34.487   0.049
56171W        W29239  22.545  32.956   0.457
56172W        W29240  11.058  44.891  14.596
56173W        W29241  30.674  20.221  12.537
56174W        W29242  40.963   7.120  11.996
56175W        W29243  34.648  11.169  11.553
56176W        W29244  31.430  14.497  13.778
56177W        W29245  17.430   6.735   3.895
56178W        W29246  43.959  15.305   3.795
56179W        W29247  28.142   8.841  13.792
56180W        W29248  14.567  34.032  13.527
56181W        W29249  34.805  32.435   4.987
56182W        W29250  33.642  19.572   1.225
56183W        W29251  32.434  43.229   4.630
56184W        W29252  25.885   5.403  11.132
56185W        W29253  27.959  27.169  11.461
56186W        W29254  15.067  25.517   1.639
56187W        W29255  43.241  28.184  12.035
56188W        W29256  11.997  32.112  13.753
56189W        W29257  16.022  37.673   4.028
56190W        W29258  18.568  32.341  11.575
56191W        W29259  31.793  28.945   3.655
56192W        W29260   2.240  25.556   2.772
56193W        W29261  11.928  26.495  14.352
56194W        W29262   4.625  44.359   1.717
56195W        W29263  14.393  11.119   0.457
56196W        W29264  35.915   6.868  11.990
56197W        W29265  44.970  37.157   3.426
56198W        W29266  38.506  14.846  13.166
56199W        W29267   7.772   3.291  10.181
56200W        W29268  33.269  33.111  10.988
56201W        W29269  14.569   0.863   2.865
56202W        W29270  37.112  18.286   1.580
56203W        W29271   1.262  43.914  14.694
56204W        W29272  42.936  32.140  10.724
56205W        W29273  40.092  38.330  11.573
56206W        W29274  35.252  13.009   0.821
56207W        W29275  26.078  24.990   1.536
56208W        W29276  12.729  42.565   2.010
56209W        W29277  29.526  24.718   0.881
56210W        W29278  13.689   0.843  12.618
56211W        W29279  18.195  20.699  13.612
56212W        W29280  44.930   3.458   1.238
56213W        W29281  21.734  28.055   2.582
56214W        W29282   0.567  30.661  12.807
56215W        W29283  44.209  23.752  13.860
56216W        W29284  25.224   9.387  11.953
56217W        W29285   9.479   6.838  14.349
56218W        W29286  35.432  15.554  14.568
56219W        W29287  10.346  25.054  12.936
56220W        W29288  12.029  19.550   1.128
56221W        W29289  42.988   1.918  11.484
56222W        W29290  32.111  35.896  12.397
56223W        W29291  24.992  27.174   2.673
56224W        W29292  16.575   5.474  10.576
56225W        W29293   0.326   9.093   3.784
56226W        W29294   3.236  26.923  11.928
56227W        W29295  27.723  34.469   1.770
56228W        W29296  19.095  44.295   5.181
56229W        W29297  27.234   4.767  11.040
56230W        W29298  31.560  21.014   0.702
56231W        W29299  34.421  30.972   3.214
56232W        W29300  42.353  21.141  10.645
56233W        W29301  17.997  14.949  11.035
56234W        W29302  34.551  44.892  12.901
56235W        W29303  10.195   0.707  10.624
56236W        W29304  35.082  38.531  13.166
56237W        W29305  26.009  18.514  10.690
56238W        W29306   3.189  14.021  11.152
56239W        W29307  30.616  10.706   2.720
56240W        W29308  18.301  22.781  11.998
56241W        W29309  30.999  33.892   1.873
56242W        W29310   9.978  36.047  13.148
56243W        W29311  21.579  16.809  11.825
56244W        W29312   5.662   5.727  14.644
56245W        W29313  23.590  28.845  11.198
56246W        W29314   6.601  12.266   2.266
56247W        W29315  32.818   4.154   4.071
56248W        W29316   1.920  13.420   1.218
56249W        W29317  18.322   3.721  12.940
56250W        W29318  24.027   8.389   0.221
56251W        W29319  28.019  25.644  12.358
56252W        W29320   3.173  44.906  13.336
56253W        W29321   0.162   9.277  12.563
56254W        W29322  13.089  20.007  13.463
56255W        W29323  12.270   9.963   4.768
56256W        W29324  22.265  21.181  10.226
56257W        W29325  15.090  32.482   3.381
56258W        W29326  32.816   3.226  14.375
56259W        W29327  18.756   6.751   2.311
56260W        W29328  32.983  30.412  12.585
56261W        W29329  25.534  37.355   1.580
56262W        W29330  10.912  10.694  14.372
56263W        W29331   3.183  26.166  12.687
56264W        W29332   4.294  41.300   0.037
56265W        W29333  27.226  16.705   2.247
56266W        W29334  24.160  11.615  12.057
56267W        W29335  32.720  37.379   0.749
56268W        W29336  43.608  19.284   4.613
56269W        W29337   7.789  16.706  11.383
56270W        W29338  22.599   1.952  13.070
56271W        W29339  29.092  31.457  10.439
56272W        W29340  14.779  40.251   4.129
56273W        W29341   5.605   8.390   0.317
56274W        W29342  39.457  18.107  12.387
56275W        W29343  27.718  15.611  14.516
56276W        W29344  11.103   2.905  13.403
56277W        W29345  16.647  20.582  14.781
56278W        W29346   1.504  18.431   2.824
56279W        W29347  16.733   7.164   3.903
56280W        W29348  40.045  15.378  10.290
56281W        W29349   3.248  23.219  11.792
56282W        W29350  41.452  27.386  11.015
56283W        W29351  37.974  41.573   4.214
56284W        W29352   1.533   7.346  13.243
56285W        W29353  42.273  28.237  11.201
56286W        W29354  26.193  36.210   2.713
56287W        W29355  43.048   1.713  14.837
56288W        W29356  33.124   7.804  11.985
56289W        W29357  11.073  22.992  11.637
56290W        W29358   9.617  32.855  12.158
56291W        W29359  22.346  36.815   4.939
56292W        W29360  21.834  35.040   0.805
56293W        W29361  12.918  10.843   0.937
56294W        W29362  16.076  36.053  13.956
56295W        W29363   5.936  15.908   1.433
56296W        W29364  22.057  24.074  10.675
56297W        W29365  25.210  30.650   4.710
56298W        W29366  25.671  16.220   4.468
56299W        W29367   7.911  42.973   3.253
56300W        W29368  44.193   4.244  12.007
56301W        W29369  21.636  31.149  10.715
56302W        W29370  39.785   4.882   0.311
56303W        W29371  13.957  23.204  13.411
56304W        W29372   6.706  25.030   1.311
56305W        W29373   4.889  39.765  14.812
56306W        W29374   8.079  16.795   4.828
56307W        W29375  12.273  11.910  13.007
56308W        W29376  22.058   8.556  12.198
56309W        W29377  43.020  22.056  11.591
56310W        W29378   9.742  24.893  14.703
56311W        W29379   3.713  35.138   1.081
56312W        W29380   8.732  26.055  13.230
56313W        W29381  43.678  28.167   1.399
56314W        W29382  18.636  28.606  12.665
56315W        W29383  18.779  30.914  14.828
56316W        W29384  44.446  31.101  14.957
56317W        W29385  35.854   9.779   4.909
56318W        W29386   0.013  37.309   0.344
56319W        W29387  24.103   6.808  13.777
56320W        W29388  27.997   5.236  14.288
56321W        W29389  19.220  24.365  13.325
56322W        W29390  44.635  18.025   0.885
56323W        W29391   4.510  41.529  12.895
56324W        W29392  10.184  18.633   4.087
56325W        W29393  15.778  33.507  11.145
56326W        W29394  10.323  27.491  14.259
56327W        W29395  27.997  17.754  10.695
56328W        W29396   9.533  39.771  10.238
56329W        W29397  21.572   6.786   1.869
56330W        W29398  24.671  17.005   5.096
56331W        W29399  37.531  39.547  11.379
56332W        W29400   9.622   2.304  10.986
56333W        W29401   9.354  12.076  13.739
56334W        W29402  22.395  44.885   4.540
56335W        W29403  10.845  24.152  14.519
56336W        W29404  22.519  43.305  12.841
56337W        W29405  38.609   7.377   1.758
56338W        W29406  44.512  18.732  12.433
56339W        W29407  18.693  19.777   1.462
56340W        W29408   0.304   1.061  13.804
56341W        W29409  16.694  23.282   0.698
56342W        W29410  19.489   0.674   1.697
56343W        W29411  33.981  32.567   4.404
56344W        W29412  30.177  38.334   3.274
56345W        W29413   1.332  39.471  11.786
56346W        W29414  35.370   9.765   3.204
56347W        W29415  15.097  15.808   2.661
56348W        W29416  31.257  32.080   4.133
56349W        W29417  20.569  27.584  12.452
56350W        W29418  26.116  36.357  13.976
56351W        W29419  26.998  15.842   1.258
56352W        W29420  10.319  30.662  11.141
56353W        W29421   4.052  23.291   4.217
56354W        W29422  42.433  25.443  10.834
56355W        W29423  33.474  40.070   0.225
56356W        W29424   8.468  40.267  11.845
56357W        W29425  34.603  39.710   4.628
56358W        W29426  44.618   8.962  11.338
56359W        W29427  17.131  11.256   0.017
56360W        W29428  15.113   2.916  11.101
56361W        W29429  19.681  40.553   3.271
56362W        W29430   8.135  41.454   1.973
56363W        W29431  24.267  38.602   2.286
56364W        W29432  29.524  17.147   0.883
56365W        W29433   0.650  23.051  14.307
56366W        W29434  27.773   9.141  14.032
56367W        W29435  42.834  20.540   2.347
56368W        W29436  31.395   1.754   3.011
56369W        W29437  32.507   3.883  11.353
56370W        W29438  14.680  15.775  13.628
56371W        W29439  11.149   8.006  10.876
56372W        W29440  30.195   9.801  13.008
56373W        W29441  41.463  22.943   2.117
56374W        W29442   7.184   7.143   0.062
56375W        W29443  37.557  44.494  11.114
56376W        W29444  43.276   1.777  11.885
56377W        W29445  14.732  35.981   1.324
56378W        W29446   9.838  12.341  11.951
56379W        W29447  39.412  22.200   1.460
56380W        W29448  24.078  10.387   0.903
56381W        W29449  20.371   1.463  12.645
56382W        W29450   9.315  22.801   3.565
56383W        W29451  13.487   6.454   2.533
56384W        W29452   8.624  23.412  12.148
56385W        W29453  37.595  15.139   2.199
56386W        W29454  18.342   7.330   0.274
56387W        W29455  25.995  44.979  11.490
56388W        W29456  31.973  13.209  12.030
56389W        W29457  15.969  17.904  10.426
56390W        W29458  25.681  13.913   1.997
56391W        W29459   3.049  41.371   1.209
56392W        W29460   4.990  24.923   2.231
56393W        W29461  26.057  15.897  11.508
56394W        W29462  20.560  25.538   2.957
56395W        W29463  34.927  44.347   9.877
56396W        W29464  19.406  42.719   4.983
56397W        W29465  19.803   3.262   2.771
56398W        W29466  14.383  29.170   1.283
56399W        W29467  32.190  32.887   3.327
56400W        W29468  32.478   4.753   3.629
56401W        W29469  32.490   9.853  13.394
56402W        W29470  30.249  28.767   3.930
56403W        W29471  30.133  10.436   1.860
56404W        W29472  39.724  22.087  13.271
56405W        W29473  35.955  31.991   0.025
56406W        W29474  37.658  14.714  10.526
56407W        W29475  30.919   2.964  11.218
56408W        W29476   7.703  36.335   1.934
56409W        W29477  12.192   2.715   2.906
56410W        W29478  13.963   0.241  11.142
56411W        W29479   1.229   4.949   0.506
56412W        W29480  30.007  14.633   1.842
56413W        W29481  15.520  42.783  12.475
56414W        W29482   6.837   6.625   0.404
56415W        W29483  18.619  41.192   1.257
56416W        W29484  41.849  18.390   4.525
56417W        W29485  28.264   7.728   4.666
56418W        W29486  21.127  31.507   2.202
56419W        W29487  40.017  28.102   3.758
56420W        W29488   8.073  15.288   1.106
56421W        W29489  40.776   2.511  12.426
56422W        W29490  22.173  39.564  11.497
56423W        W29491  35.540  30.500  10.595
56424W        W29492  18.040  42.387  11.055
56425W        W29493  34.352  37.977  10.685
56426W        W29494  10.121  34.747   4.901
56427W        W29495  15.038   3.405  13.867
56428W        W29496  10.270  22.320  11.623
56429W        W29497  11.994  12.846   3.098
56430W        W29498  37.414  41.005   3.763
56431W        W29499  42.819  35.939  12.948
56432W        W29500   9.190  13.555  10.673
56433W        W29501  12.865  25.966   3.427
56434W        W29502  18.578   9.264  14.868
56435W        W29503  35.203  14.832   3.524
56436W        W29504  34.967  18.100  12.961
56437W        W29505  43.697  16.044  12.078
56438W        W29506   7.786  26.730  11.149
56439W        W29507  17.330  22.430  12.453
56440W        W29508   7.263  14.342   4.155
56441W        W29509   4.266  35.296  13.894
56442W        W29510  42.375  42.266   3.242
56443W        W29511  15.750   2.224   2.851
56444W        W29512  23.163   8.029   3.900
56445W        W29513  17.481  15.004   0.165
56446W        W29514  36.945  30.709   1.077
56447W        W29515   0.852  42.205   0.012
56448W        W29516  44.357  27.939  12.495
56449W        W29517   8.452  37.065  13.903
56450W        W29518  39.544  39.881   2.374
56451W        W29519  34.429  19.760  14.956
56452W        W29520  36.832  33.353  10.609
56453W        W29521  33.028   1.746   1.256
56454W        W29522  30.436  38.895  14.809
56455W        W29523   8.120   5.189   4.108
56456W        W29524  10.126  22.983   3.776
56457W        W29525   0.855  18.740  12.913
56458W        W29526  22.085  42.755   1.455
56459W        W29527  12.644  38.098  12.060
56460W        W29528  44.359  38.073  13.876
56461W        W29529  16.352  38.799  10.345
56462W        W29530  21.135  33.922   2.066
56463W        W29531   0.924  22.604  14.457
56464W        W29532   0.939   9.373   9.845
56465W        W29533  14.433  20.243  14.300
56466W        W29534  21.718  33.970   4.568
56467W        W29535  41.364  32.945  13.374
56468W        W29536  12.134   4.536   3.623
56469W        W29537  37.957  36.555   4.948
56470W        W29538  14.373  31.153   1.703
56471W        W29539  16.804   8.123  13.560
56472W        W29540  11.365  18.896  11.234
56473W        W29541  35.552   2.693  10.781
56474W        W29542  42.261  32.193   3.819
56475W        W29543   5.861  23.524  11.991
56476W        W29544  16.869   0.948  11.134
56477W        W29545  34.941  36.625   1.197
56478W        W29546   0.191  11.238   3.097
56479W        W29547  30.468   6.616   1.671
56480W        W29548  42.667  43.608  11.810
56481W        W29549  24.059  23.073   3.299
56482W        W29550  18.951  12.201   0.230
56483W        W29551  10.088  38.024   3.679
56484W        W29552   3.583   2.888  12.869
56485W        W29553   5.654  39.958  11.921
56486W        W29554  23.982  13.570   4.492
56487W        W29555  42.458  41.682  10.456
56488W        W29556  19.378  18.419  12.887
56489W        W29557  43.029  28.540  11.004
56490W        W29558   4.480  21.161   0.453
56491W        W29559  24.560   6.152  13.119
56492W        W29560  25.566  28.380   0.076
56493W        W29561  22.058  22.260   1.414
56494W        W29562  21.538  37.052  14.904
56495W        W29563  13.225  18.786   4.569
56496W        W29564  17.299   2.494   5.007
56497W        W29565  11.105   6.279  13.380
56498W        W29566  31.824   5.447   3.720
56499W        W29567  21.184  41.415   0.525
56500W        W29568  24.736   3.651   1.695
56501W        W29569  23.717   5.891   0.721
56502W        W29570  14.925  22.772   0.336
56503W        W29571   9.702   1.779   2.419
56504W        W29572  29.117  22.633   2.844
56505W        W29573  24.421  35.438   2.926
56506W        W29574  41.972  29.111  11.658
56507W        W29575  17.670  16.738  12.160
56508W        W29576  22.113  19.122   0.307
56509W        W29577   8.235  28.795  11.043
56510W        W29578  22.442  16.145   1.644
56511W        W29579   3.477  23.213   0.738
56512W        W29580  38.876   8.634  14.391
56513W        W29581   0.182  19.626  13.275
56514W        W29582  22.108  36.056   2.762
56515W        W29583   1.035  34.097  14.431
56516W        W29584  19.308  21.270  13.970
56517W        W29585  42.444  19.000  11.466
56518W        W29586  34.305  31.526   5.074
56519W        W29587  13.737  13.795   0.418
56520W        W29588  33.752  21.702  12.164
56521W        W29589   4.672  18.014   1.299
56522W        W29590  38.439  26.267   3.070
56523W        W29591   4.675  22.963  11.959
56524W        W29592  35.481  42.878  10.729
56525W        W29593  31.536  19.720  11.755
56526W        W29594   0.910  22.262   3.885
56527W        W29595  24.285  21.332   3.695
56528W        W29596   9.325   9.680  12.602
56529W        W29597  20.979  36.571  10.806
56530W        W29598  11.728  29.169   1.957
56531W        W29599   9.055   8.627   5.133
56532W        W29600  12.938  28.088   0.579
56533W        W29601  25.388  41.600   4.583
56534W        W29602  27.688  19.555   0.848
56535W        W29603  13.078  31.501  13.846
56536W        W29604  38.966  14.962  13.390
56537W        W29605  44.735  33.381   1.938
56538W        W29606  16.647   3.310   3.682
56539W        W29607   4.834  30.427   1.279
56540W        W29608  40.010  32.645   1.662
56541W        W29609  31.582  36.946  14.314
56542W        W29610  20.757  11.816  10.837
56543W        W29611   6.614   6.944   3.636
56544W        W29612  31.360  29.150   2.580
56545W        W29613  21.173  38.340  13.610
56546W        W29614  31.587  44.552  14.522
56547W        W29615  37.113  10.198   3.336
56548W        W29616  42.773  13.365  14.495
56549W        W29617  17.249   5.576   0.835
56550W        W29618   3.318  39.423   3.866
56551W        W29619  27.362  24.101   3.978
56552W        W29620  13.929  42.802   4.239
56553W        W29621  36.472  22.780   1.426
56554W        W29622  38.395  22.201  13.286
56555W        W29623   3.425  10.354  14.936
56556W        W29624   7.115  16.650   4.599
56557W        W29625  44.789  28.929   2.334
56558W        W29626   8.474  17.952  11.279
56559W        W29627   6.230  12.909   5.122
56560W        W29628  32.947  35.980   1.982
56561W        W29629  36.836   4.174  13.479
56562W        W29630  14.663   4.902  10.240
56563W        W29631  38.471  40.068  11.477
56564W        W29632  23.206   8.725   2.757
56565W        W29633  19.644   1.521  13.577
56566W        W29634  34.400  11.175   0.965
56567W        W29635  29.349  17.248   3.966
56568W        W29636  40.004   5.939  10.208
56569W        W29637  10.296  44.311  10.597
56570W        W29638  27.397  11.063  11.998
56571W        W29639   4.008   8.947  13.071
56572W        W29640  28.527  20.494   3.882
56573W        W29641  14.126  29.261   0.834
56574W        W29642  33.687  15.166  12.649
56575W        W29643   2.472  24.517   2.354
56576W        W29644  37.524  21.454   0.173
56577W        W29645   0.415  14.360  14.336
56578W        W29646  17.599  11.138   2.982
56579W        W29647  37.416  30.616  11.996
56580W        W29648  28.593  23.721  13.292
56581W        W29649   2.716  27.916  14.003
56582W        W29650  32.814  26.726   1.333
56583W        W29651  41.724  40.429  12.835
56584W        W29652  40.775   2.883   4.303
56585W        W29653  35.102  34.094  10.692
56586W        W29654   8.642  17.003  14.012
56587W        W29655  13.491   1.850   0.673
56588W        W29656  34.124  27.188  11.006
56589W        W29657  23.643  33.421   1.326
56590W        W29658  37.864   2.780  10.441
56591W        W29659  44.738  27.757  11.076
56592W        W29660  30.711  24.024  12.871
56593W        W29661  23.111  35.908  13.891
56594W        W29662   8.743  17.079   0.262
56595W        W29663  36.578   2.249   4.683
56596W        W29664  40.045  33.496  11.112
56597W        W29665  11.882  11.051   3.243
56598W        W29666  33.926   3.504   4.235
56599W        W29667   2.230  14.800   1.374
56600W        W29668  32.577   1.911   1.487
56601W        W29669  14.236   9.363   3.396
56602W        W29670  42.772   5.728  10.640
56603W        W29671  23.101  25.388  13.984
56604W        W29672  27.937  17.625   2.734
56605W        W29673  33.982   2.838  12.845
56606W        W29674  39.671   0.734   4.128
56607W        W29675   3.142  38.834  10.573
56608W        W29676  39.398  26.801   0.800
56609W        W29677  43.761  36.786  14.932
56610W        W29678  29.486  30.226  12.017
56611W        W29679  34.608  20.513  11.132
56612W        W29680  15.312  32.055  11.933
56613W        W29681   7.176  44.309   2.641
56614W        W29682  30.943   3.973  13.577
56615W        W29683  32.951  26.487   2.659
56616W        W29684  41.175  16.083  11.531
56617W        W29685  28.602  26.625   4.836
56618W        W29686  40.928  42.540   4.448
56619W        W29687  29.641   3.872   1.432
56620W        W29688   2.742  21.182   4.669
56621W        W29689   8.953  29.394  11.338
56622W        W29690  42.913  38.439  10.949
56623W        W29691   2.069  17.652  14.734
56624W        W29692  39.285  39.976   1.924
56625W        W29693   6.254  41.504   0.003
56626W        W29694  41.031   2.861  14.844
56627W        W29695  44.527  29.970   3.585
56628W        W29696  43.766  27.868   4.935
56629W        W29697  24.129   5.920  11.513
56630W        W29698  30.034  41.927  13.799
56631W        W29699  24.033  41.035  11.019
56632W        W29700  10.588  23.225   3.764
56633W        W29701  24.224  21.617  14.496
56634W        W29702  25.377  14.137   4.667
56635W        W29703  17.041  27.851   4.181
56636W        W29704   9.631  17.141   1.362
56637W        W29705  39.950   8.622   1.808
56638W        W29706  13.899  37.491  12.451
56639W        W29707  39.083  28.641  13.517
56640W        W29708   3.231  19.479  10.692
56641W        W29709   0.981   0.826   1.464
56642W        W29710  32.618   7.599  12.854
56643W        W29711  35.131  12.782  12.911
56644W        W29712  41.290   3.338  11.679
56645W        W29713   7.669  43.858   2.338
56646W        W29714  11.731  27.930  11.512
56647W        W29715  29.055  25.416  11.043
56648W        W29716  43.219  33.131  12.863
56649W        W29717  38.526  44.078  12.195
56650W        W29718  40.984  40.135   3.151
56651W        W29719  17.645   1.502  12.959
56652W        W29720  25.824  17.029  13.835
56653W        W29721  39.529  13.602   0.236
56654W        W29722  34.941   8.536   2.863
56655W        W29723  23.159  27.211  14.606
56656W        W29724  12.771  18.440  14.882
56657W        W29725   4.175  26.798   4.116
56658W        W29726  22.739  40.053   2.243
56659W        W29727   0.632  31.737  11.961
56660W        W29728  28.539  26.461  12.053
56661W        W29729  23.029  16.173   3.987
56662W        W29730   4.433  42.872  13.030
56663W        W29731  27.453  39.893  10.507
56664W        W29732  35.401  36.147  12.513
56665W        W29733   9.301  21.514   1.451
56666W        W29734  31.047  20.991   2.724
56667W        W29735  42.451  30.594  14.507
56668W        W29736  30.428  14.719  12.305
56669W        W29737  24.028  16.621   1.838
56670W        W29738  14.741  39.322   3.770
56671W        W29739  28.926  40.213   1.662
56672W        W29740  39.581   6.375   1.726
56673W        W29741  19.541  20.016  13.792
56674W        W29742  40.812  17.069  14.066
56675W        W29743  26.695  28.530  12.895
56676W        W29744   1.385   7.811   4.836
56677W        W29745  25.369  35.597  13.483
56678W        W29746  29.246  38.354  13.340
56679W        W29747  25.724  27.967  14.303
56680W        W29748  23.502   9.134  11.140
56681W        W29749   1.907  22.118   3.819
56682W        W29750   1.445  31.209   0.313
56683W        W29751  33.758  20.339   2.304
56684W        W29752  30.630  25.143  12.085
56685W        W29753  18.303  39.849  13.256
56686W        W29754  19.516  13.539  13.564
56687W        W29755  11.654  25.745  10.333
56688W        W29756  15.619   9.419  13.813
56689W        W29757  17.858  40.755   2.916
56690W        W29758  18.129  18.964   2.759
56691W        W29759  36.547  32.630  11.162
56692W        W29760  12.051  11.503  12.361
56693W        W29761   0.343  43.243   0.147
56694W        W29762  16.607  42.173   1.798
56695W        W29763  36.067  29.949   0.357
56696W        W29764  38.829   3.482  10.732
56697W        W29765  24.718   5.240   0.733
56698W        W29766  33.175  17.570  12.116
56699W        W29767  42.224  42.059   2.345
56700W        W29768   1.875  21.922  10.602
56701W        W29769   5.743  25.489   1.669
56702W        W29770   5.714   6.695   4.036
56703W        W29771  19.008  27.925   3.411
56704W        W29772  18.768  27.730  11.100
56705W        W29773  17.540  24.437   1.308
56706W        W29774   0.212  31.336   2.972
56707W        W29775  21.921  21.277   2.879
56708W        W29776   7.345  32.123   1.158
56709W        W29777   9.571  20.549  13.895
56710W        W29778  12.638   1.932  11.250
56711W        W29779  15.303  14.354  10.609
56712W        W29780   5.184  38.066  12.058
56713W        W29781  17.657  36.705  13.382
56714W        W29782  33.515  20.182  13.103
56715W        W29783  21.327  37.379   5.322
56716W        W29784  43.957  15.225  14.059
56717W        W29785  18.189   3.863  13.477
56718W        W29786  44.944  39.801   0.344
56719W        W29787  29.068   4.793  10.300
56720W        W29788  44.773  33.548  11.249
56721W        W29789  32.088  18.671   1.855
56722W        W29790  40.888   1.567  12.818
56723W        W29791   6.829  17.185   3.707
56724W        W29792  33.921  28.539  10.645
56725W        W29793  13.800   8.890  10.514
56726W        W29794  15.468   3.904  10.054
56727W        W29795  28.152  41.938   4.554
56728W        W29796  12.651   5.725   0.008
56729W        W29797  18.562  33.155  11.469
56730W        W29798  37.015  13.294  12.927
56731W        W29799  33.121  24.638   1.871
56732W        W29800   2.764  34.879  14.505
56733W        W29801  37.486  44.577  14.066
56734W        W29802  11.911  31.381   4.265
56735W        W29803   3.708  15.770  10.522
56736W        W29804   0.214   7.749  14.969
56737W        W29805   1.027  13.532   4.496
56738W        W29806   0.349   5.207   0.676
56739W        W29807  21.508  19.512  10.689
56740W        W29808  22.714   7.746  14.863
56741W        W29809  38.570   3.875  14.884
56742W        W29810  35.535  34.146   0.869
56743W        W29811  11.724  33.684  12.568
56744W        W29812  10.914  18.159  14.253
56745W        W29813  33.201  43.194   1.834
56746W        W29814  44.145   8.307   3.206
56747W        W29815   6.347  37.524  13.868
56748W        W29816  24.485   4.741   3.032
56749W        W29817  16.369  40.151  11.606
56750W        W29818  38.024   1.644  14.676
56751W        W29819  11.749   1.363  14.397
56752W        W29820  42.623  37.801   0.466
56753W        W29821   5.685  28.116  12.485
56754W        W29822  37.917  32.484  10.789
56755W        W29823  13.226  18.066  11.556
56756W        W29824  31.549  24.530  14.360
56757W        W29825  32.248  25.133  14.841
56758W        W29826  17.238  44.681   2.306
56759W        W29827  35.395  20.036  12.580
56760W        W29828  39.364  21.937   3.680
56761W        W29829  44.531   7.435   4.259
56762W        W29830  32.506  14.827  14.479
56763W        W29831  42.597  16.096  10.734
56764W        W29832   9.971  29.019   0.216
56765W        W29833   7.808  11.163  11.671
56766W        W29834  29.666  17.784   1.350
56767W        W29835   5.263   8.683   3.133
56768W        W29836   9.267  43.556   4.726
56769W        W29837  29.544  42.855   1.935
56770W        W29838  24.172  18.747  12.747
56771W        W29839  30.546  14.186  13.439
56772W        W29840  31.046  27.353   4.283
56773W        W29841  44.646  25.242  14.975
56774W        W29842  27.369  18.188  13.484
56775W        W29843  29.613  41.991   1.367
56776W        W29844  41.214  44.228  10.794
56777W        W29845  23.076  42.418  13.564
56778W        W29846  44.355  30.233  12.008
56779W        W29847   7.852  22.258  14.931
56780W        W29848  42.778  18.555  10.771
56781W        W29849  42.497   9.625   2.256
56782W        W29850  21.988   0.218   2.218
56783W        W29851  22.242   5.308  11.568
56784W        W29852  18.920   6.995  14.073
56785W        W29853  41.990  21.267  12.986
56786W        W29854   5.164  12.617  12.112
56787W        W29855   1.712  43.495  14.380
56788W        W29856  34.046  42.902   0.883
56789W        W29857  37.822  32.158  12.971
56790W        W29858  37.936  39.594  11.071
56791W        W29859  17.069  29.656   1.330
56792W        W29860  30.094  25.929   4.876
56793W        W29861  14.982  44.440  12.334
56794W        W29862  34.130  11.196  11.437
56795W        W29863  12.660  16.989  14.943
56796W        W29864  35.797  37.894   3.823
56797W        W29865  12.759  36.179  14.835
56798W        W29866  20.845  13.590   2.500
56799W        W29867   6.207  23.512   1.029
56800W        W29868  22.332  38.769   2.140
56801W        W29869  43.470  41.803   1.806
56802W        W29870  11.215  34.865  13.995
56803W        W29871   8.843  33.172  11.135
56804W        W29872   5.146   3.870   3.595
56805W        W29873   7.399  29.628   0.440
56806W        W29874  10.924  44.007   3.556
56807W        W29875   1.943  26.434  13.359
56808W        W29876  14.267  24.567   4.172
56809W        W29877  16.661  27.226   1.771
56810W        W29878   4.477  37.498  11.447
56811W        W29879  12.217   8.801   4.536
56812W        W29880  40.958   4.074  12.378
56813W        W29881  11.195  35.438  12.612
56814W        W29882  24.827  17.211  11.232
56815W        W29883  34.658  23.401   4.635
56816W        W29884   9.561  38.383  11.486
56817W        W29885  23.231  19.066   3.285
56818W        W29886   7.294  21.042  13.916
56819W        W29887  30.442  13.012  11.939
56820W        W29888  24.312  30.099   2.282
56821W        W29889   4.537  28.982   1.364
56822W        W29890   3.176   9.753   4.866
56823W        W29891  41.933   4.825   0.046
56824W        W29892  19.267  18.909  11.209
56825W        W29893  21.779  31.125   3.728
56826W        W29894  21.019  35.162   0.354
56827W        W29895  29.209   1.245   1.929
56828W        W29896  18.662  35.659   4.068
56829W        W29897  11.861  31.123   3.557
56830W        W29898   1.375  33.906  13.087
56831W        W29899  28.055   5.683  10.576
56832W        W29900  30.533   2.694   2.341
56833W        W29901  10.378  39.424  12.487
56834W        W29902  43.525  12.344  11.058
56835W        W29903  20.563   1.567  13.880
56836W        W29904   9.710  24.688   4.553
56837W        W29905  33.927  17.600   2.795
56838W        W29906  31.886  26.750  14.246
56839W        W29907   8.939  43.927   2.726
56840W        W29908  41.851  36.349   0.984
56841W        W29909  28.199  35.760  12.061
56842W        W29910  18.982   1.858   1.931
56843W        W29911  26.523  23.012  10.768
56844W        W29912  10.659   4.426  12.538
56845W        W29913  14.706  28.135  11.368
56846W        W29914  24.033  44.932  12.450
56847W        W29915  17.667  13.487  13.252
56848W        W29916  11.866  17.266  13.355
56849W        W29917  39.007  14.427   3.764
56850W        W29918  38.081  10.616   3.279
56851W        W29919  36.586   3.284   4.966
56852W        W29920  34.190  26.758   2.325
56853W        W29921  37.471  37.836   4.687
56854W        W29922  22.806  28.496  11.564
56855W        W29923  22.097  11.073  10.523
56856W        W29924  27.514  38.802   2.631
56857W        W29925  14.217  42.184  13.367
56858W        W29926  17.678  18.724   0.716
56859W        W29927   4.223  40.726  14.164
56860W        W29928  21.153   5.630  10.610
56861W        W29929  11.238  27.457  12.607
56862W        W29930  17.351  19.505  11.056
56863W        W29931  16.361  21.203  13.965
56864W        W29932  38.079  18.767  13.355
56865W        W29933  34.890  40.624   5.104
56866W        W29934  28.147   6.205  14.739
56867W        W29935  39.427  15.762  13.302
56868W        W29936  22.010  26.295  12.099
56869W        W29937  20.627   9.905   2.680
56870W        W29938  15.339  18.398   3.732
56871W        W29939  41.914  16.598   4.104
56872W        W29940  37.888   8.913   1.879
56873W        W29941   5.817  37.312  14.934
56874W        W29942  28.869  32.486  13.754
56875W        W29943  19.700  42.541   2.799
56876W        W29944  44.563  31.008  12.480
56877W        W29945  29.184   3.929   1.184
56878W        W29946   3.015  36.047  11.602
56879W        W29947   8.962  22.737   9.799
56880W        W29948   6.242  18.752  12.949
56881W        W29949  44.740  12.383  14.891
56882W        W29950   9.265  19.592  10.418
56883W        W29951   1.756  27.480   4.041
56884W        W29952  25.705  21.868   1.673
56885W        W29953  23.015  31.710   0.672
56886W        W29954  33.833   0.249   0.405
56887W        W29955  37.024  10.005   0.925
56888W        W29956   6.773  19.665  12.695
56889W        W29957  37.981   6.060  11.598
56890W        W29958  43.992  15.151  14.966
56891W        W29959  39.895  44.937   2.796
56892W        W29960  40.312   7.921   4.123
56893W        W29961  34.574  17.716  14.172
56894W        W29962  18.794  30.968   4.607
56895W        W29963   3.593  18.554   0.241
56896W        W29964  34.649  39.475   1.270
56897W        W29965   8.149  37.965  13.948
56898W        W29966  44.476  37.272   0.343
56899W        W29967  19.762  44.719  10.677
56900W        W29968  38.378  29.297   4.987
56901W        W29969  18.721  24.456   2.763
56902W        W29970  15.608  30.009   0.457
56903W        W29971  26.595  20.901  14.122
56904W        W29972  38.340  16.344  12.857
56905W        W29973  32.638  42.829  12.948
56906W        W29974   9.300  10.840  10.687
56907W        W29975  21.514  15.757   2.428
56908W        W29976  16.492  30.956   2.777
56909W        W29977  41.451  44.604  14.440
56910W        W29978  39.305   1.520   3.113
56911W        W29979  32.355  34.900  11.877
56912W        W29980   4.670   7.433   1.223
56913W        W29981  35.395  16.287   1.403
56914W        W29982  22.801  25.741   3.747
56915W        W29983   3.244  15.030   1.228
56916W        W29984  28.484  29.399   0.347
56917W        W29985  33.778  12.201   0.207
56918W        W29986   0.963   0.632   2.811
56919W        W29987  14.122   4.327   3.618
56920W        W29988   1.512  39.307   1.921
56921W        W29989   3.762  20.523   2.713
56922W        W29990  21.965  44.324  14.012
56923W        W29991  22.978  25.612  12.037
56924W        W29992  35.368  20.232  14.451
56925W        W29993  16.285  10.619  11.962
56926W        W29994  23.984   9.956   3.577
56927W        W29995  24.102   6.876   0.271
56928W        W29996   3.615  27.063   0.333
56929W        W29997  16.059  37.504   1.469
56930W        W29998  35.354  39.034  11.476
56931W        W29999  36.048  39.318   2.727
56932W        W30000   1.883  17.676  11.011
56933W        W30001  10.151  34.073   3.326
56934W        W30002  12.102  30.510  10.476
56935W        W30003  42.281   7.317   3.325
56936W        W30004  21.098   8.098   2.520
56937W        W30005  27.991  34.034   1.959
56938W        W30006   1.507  30.689   0.352
56939W        W30007  23.125  20.813   0.773
56940W        W30008   5.333  39.017  12.059
56941W        W30009   7.435  28.915  12.856
56942W        W30010  32.685  34.291   1.780
56943W        W30011  24.552  13.792  11.148
56944W        W30012  42.367  34.342   4.699
56945W        W30013  25.667   1.944  13.054
56946W        W30014   5.661  16.935  14.332
56947W        W30015  39.708   7.229  12.976
56948W        W30016  38.094  31.555  12.505
56949W        W30017  28.676  10.841   1.694
56950W        W30018  15.086   9.608   3.635
56951W        W30019  13.189  28.173  14.744
56952W        W30020   5.924  13.281   4.873
56953W        W30021  22.176  29.863   4.183
56954W        W30022  42.334  31.973   4.819
56955W        W30023  14.559   8.090   4.581
56956W        W30024   3.709  11.864  11.680
56957W        W30025  30.401   6.123   1.832
56958W        W30026  44.784   6.167  14.035
56959W        W30027  19.633   0.048  14.198
56960W        W30028  11.234  35.777  14.006
56961W        W30029  35.289   1.642   3.673
56962W        W30030   7.391  17.970   3.799
56963W        W30031  28.899  41.079   3.690
56964W        W30032  12.249   5.921  13.960
56965W        W30033  16.297  41.858  14.609
56966W        W30034  44.926  10.002   2.398
56967W        W30035  36.962  21.463   4.165
56968W        W30036  42.904  15.631  12.910
56969W        W30037   1.984  38.918  14.160
56970W        W30038   8.403  27.956   2.356
56971W        W30039  36.124   3.306  14.458
56972W        W30040  12.763  41.980   2.790
56973W        W30041   9.790  25.859  10.641
56974W        W30042  26.762   4.661  11.928
56975W        W30043  11.783  12.579  14.110
56976W        W30044  39.024   5.269   2.387
56977W        W30045   9.828  23.566  10.993
56978W        W30046  28.627   2.602  11.591
56979W        W30047  30.147  34.105  12.015
56980W        W30048   1.932  21.563  12.523
56981W        W30049   4.813  16.621  10.486
56982W        W30050  38.314   7.049  10.817
56983W        W30051  14.309  31.365  11.567
56984W        W30052   6.130  13.848  13.942
56985W        W30053  10.113  32.502  11.293
56986W        W30054  17.075  23.526   5.334
56987W        W30055  35.158  38.696   2.290
56988W        W30056   4.647  31.433  14.910
56989W        W30057  35.966  28.489   4.722
56990W        W30058  10.855  17.115   4.723
56991W        W30059  15.743   5.687  11.320
56992W        W30060  22.635  29.831  14.454
56993W        W30061  27.574  26.938   3.268
56994W        W30062   1.395  44.775   2.077
56995W        W30063  29.460  23.828   5.299
56996W        W30064  43.151  43.608  13.542
56997W        W30065  10.544  22.675  12.600
56998W        W30066   4.249   2.288  14.351
56999W        W30067  34.368  37.892   3.840
57000W        W30068   0.940  24.136  14.784
57001W        W30069   3.859   6.245  14.339
57002W        W30070  11.139  37.102  11.446
57003W        W30071  10.388  17.558   1.455
57004W        W30072  29.074  28.815  14.236
57005W        W30073  29.381   2.454   1.277
57006W        W30074  44.137  16.243  14.729
57007W        W30075  35.603  17.892   4.785
57008W        W30076  22.079  29.617  12.033
57009W        W30077  18.634   9.760  13.409
57010W        W30078  44.579  17.784   4.613
57011W        W30079  35.203  40.393   4.081
57012W        W30080  23.465   3.486  11.872
57013W        W30081  42.409  11.360   1.812
57014W        W30082  34.223  34.328  11.575
57015W        W30083   7.722   1.471  11.092
57016W        W30084  10.188  13.600   1.958
57017W        W30085  18.225  14.545   0.353
57018W        W30086  26.544  34.436   3.706
57019W        W30087  40.846  28.110  11.929
57020W        W30088   5.667  32.694  13.798
57021W        W30089  33.413  40.511  11.476
57022W        W30090  37.708  40.784   4.440
57023W        W30091   5.215  19.887  14.528
57024W        W30092   0.340  25.955  12.819
57025W        W30093  29.013  22.432  14.428
57026W        W30094  31.844   9.290   1.568
57027W        W30095  36.512   3.304   4.433
57028W        W30096  37.473  37.511  13.343
57029W        W30097  11.350  24.983   0.303
57030W        W30098  17.734  21.132  14.357
57031W        W30099  27.382   4.923  10.576
57032W        W30100  43.157   2.537   1.425
57033W        W30101  18.370  22.555   2.683
57034W        W30102   8.576   7.272  12.572
57035W        W30103  10.533  19.169  14.566
57036W        W30104  10.621  42.139  13.092
57037W        W30105  13.591  44.709  14.955
57038W        W30106   4.463  17.406   0.413
57039W        W30107  13.702  10.647  13.016
57040W        W30108  34.960  21.780   0.990
57041W        W30109  28.129  43.238  14.854
57042W        W30110  18.959  39.375  10.590
57043W        W30111   6.796  22.517   2.831
57044W        W30112  12.149  20.034  11.970
57045W        W30113  20.227  16.063  12.228
57046W        W30114  40.731  41.395  12.428
57047W        W30115   4.694  37.556   5.141
57048W        W30116  34.411   1.898  13.551
57049W        W30117   3.766   6.965  14.898
57050W        W30118   1.043   9.123   0.990
57051W        W30119  19.535  10.071  12.505
57052W        W30120  21.944  38.932  12.957
57053W        W30121  26.618  22.908  13.612
57054W        W30122  10.385  28.660   3.920
57055W        W30123  29.948  38.534   1.902
57056W        W30124  13.353  40.531  14.672
57057W        W30125  20.497  28.878   1.986
57058W        W30126  39.138  14.405  10.827
57059W        W30127  16.382   9.142   2.140
57060W        W30128  19.047  20.233  11.082
57061W        W30129  23.648   9.145   1.392
57062W        W30130  31.613  16.911  13.585
57063W        W30131   0.401  24.551  14.382
57064W        W30132  19.763  29.686   0.896
57065W        W30133  39.433  44.716   2.796
57066W        W30134   2.734  27.977   0.834
57067W        W30135  27.262   9.483  11.162
57068W        W30136  39.823  28.480   1.412
57069W        W30137   6.638   2.437   3.269
57070W        W30138  22.572  29.432  12.027
57071W        W30139  10.980  32.650  10.770
57072W        W30140  23.555  44.736  12.433
57073W        W30141   6.232  34.400   2.913
57074W        W30142  34.118  22.216  11.117
57075W        W30143  14.894   2.435   4.261
57076W        W30144  33.622  22.478   3.639
57077W        W30145  20.272  33.567  13.798
57078W        W30146  15.131  33.383  14.715
57079W        W30147  42.348  27.442  13.519
57080W        W30148   0.950   8.839  14.774
57081W        W30149   6.395  41.467   3.082
57082W        W30150  41.754  18.277  11.600
57083W        W30151  12.572  23.409  12.932
57084W        W30152  43.295   8.206   2.748
57085W        W30153  35.118   4.053  10.773
57086W        W30154   6.415  15.284   1.942
57087W        W30155  19.287  40.998   0.004
57088W        W30156  25.468  39.826  14.482
57089W        W30157  38.174  43.706  12.140
57090W        W30158  15.986  18.416   4.127
57091W        W30159  16.933  22.005   4.232
57092W        W30160  31.103   2.878  11.690
57093W        W30161  44.543  12.405   0.864
57094W        W30162   1.480  24.701   1.299
57095W        W30163   1.476  28.698  11.200
57096W        W30164  32.855  22.165  11.538
57097W        W30165   0.704  19.586  10.094
57098W        W30166  20.316  35.905   4.067
57099W        W30167  16.411  32.259  11.075
57100W        W30168   5.695  39.729   0.017
57101W        W30169  31.853  14.664  13.427
57102W        W30170  19.329  20.047   4.120
57103W        W30171  20.591  36.929   1.195
57104W        W30172  15.758  21.695  11.861
57105W        W30173   7.861   7.226   2.303
57106W        W30174  16.615  22.480   3.252
57107W        W30175  35.058  43.418   4.901
57108W        W30176  33.051  27.248   4.546
57109W        W30177  33.264   6.194   4.148
57110W        W30178  14.816  31.387   0.501
57111W        W30179  14.310   0.302  10.709
57112W        W30180   6.255  43.759  12.697
57113W        W30181   5.837  14.220   4.967
57114W        W30182   5.738  13.748   3.669
57115W        W30183  40.829  25.220   3.239
57116W        W30184   9.214  13.068   0.037
57117W        W30185  25.567  14.971  14.825
57118W        W30186   2.317  28.564   4.520
57119W        W30187  37.932  23.258   4.703
57120W        W30188  21.334   7.704   5.329
57121W        W30189   4.561  17.309  11.040
57122W        W30190   1.035  16.221  10.703
57123W        W30191  33.900  42.614  10.147
57124W        W30192  42.223  25.925   3.654
57125W        W30193  33.950   1.224   4.515
57126W        W30194   7.724  42.446   0.425
57127W        W30195  35.488  26.874  14.160
57128W        W30196  23.177  20.549   2.445
57129W        W30197  44.075  32.144   2.766
57130W        W30198  38.761   7.782  10.909
57131W        W30199  19.138  26.175   2.847
57132W        W30200  34.907  20.844   3.173
57133W        W30201  21.719  14.021  13.968
57134W        W30202  21.539  44.778   3.630
57135W        W30203  27.762   9.792  14.886
57136W        W30204  17.257  19.976   1.428
57137W        W30205  15.735  13.073  14.591
57138W        W30206  27.661  16.207   0.317
57139W        W30207  16.564  19.486   1.360
57140W        W30208  43.999  20.194   4.227
57141W        W30209  34.557  39.031   1.538
57142W        W30210   2.425  27.109  11.363
57143W        W30211   6.228  22.881   9.957
57144W        W30212  18.027  41.723   3.610
57145W        W30213  14.338  10.317   1.393
57146W        W30214  19.576  18.110   4.115
57147W        W30215  28.166   7.782  11.187
57148W        W30216  34.520  42.549   3.783
57149W        W30217  31.303  38.516  14.420
57150W        W30218   3.643  40.474   0.966
57151W        W30219  25.593   9.615   3.124
57152W        W30220   6.004  32.995   3.903
57153W        W30221  26.679   1.625  13.590
57154W        W30222   1.480   6.173   2.827
57155W        W30223  15.650  10.264  13.594
57156W        W30224  12.792  35.853  14.288
57157W        W30225   4.962  29.505   3.322
57158W        W30226  15.209  18.848   4.555
57159W        W30227  25.203  38.300  11.617
57160W        W30228  21.802  32.903   1.755
57161W        W30229  26.121  29.251   1.794
57162W        W30230   9.712  10.826   1.857
57163W        W30231  44.872  20.622  12.881
57164W        W30232  22.186  22.583   3.733
57165W        W30233  30.810  15.757   4.276
57166W        W30234  42.436  29.971   0.820
57167W        W30235   7.763  10.512   0.796
57168W        W30236  32.888  31.948  14.807
57169W        W30237  37.298  14.429  12.118
57170W        W30238  16.759  26.461  11.227
57171W        W30239   8.773   8.952  10.858
57172W        W30240  44.806  39.424  12.474
57173W        W30241  18.770  11.436   4.977
57174W        W30242  21.697  33.506   1.282
57175W        W30243  12.470  40.313   0.087
57176W        W30244  13.285  33.542   0.099
57177W        W30245   8.143   6.116  12.981
57178W        W30246  23.643  11.388  13.382
57179W        W30247  30.869  18.985  12.683
57180W        W30248   3.766  15.272  14.040
57181W        W30249  14.663  11.754  13.073
57182W        W30250  24.506  38.418  13.391
57183W        W30251  36.979  22.713  11.048
57184W        W30252  38.375  35.835  11.984
57185W        W30253  20.481  13.612  11.036
57186W        W30254  18.176  37.669  14.450
57187W        W30255  35.336   5.333  13.303
57188W        W30256   4.344  18.054   2.230
57189W        W30257  12.749   6.914   4.601
57190W        W30258  24.692  12.049   0.343
57191W        W30259   7.250  32.452   0.736
57192W        W30260  24.164  34.611   0.630
57193W        W30261  20.155  18.818   2.384
57194W        W30262  41.990  29.303   3.001
57195W        W30263  37.955  19.767  14.396
57196W        W30264  27.204  24.512   3.728
57197W        W30265  32.945   8.323   0.933
57198W        W30266  15.337  44.164   2.267
57199W        W30267  34.159   7.564  12.046
57200W        W30268  30.436  35.514   5.067
57201W        W30269  33.208   5.649  13.763
57202W        W30270   4.733  25.247   0.281
57203W        W30271  43.043  34.349  10.701
57204W        W30272  34.634  15.737   4.730
57205W        W30273  15.189  11.933   1.728
57206W        W30274   3.441  34.984   2.738
57207W        W30275  39.825  30.548   4.851
57208W        W30276  39.093  34.608   4.486
57209W        W30277  26.217   3.957   2.349
57210W        W30278   6.003   6.235  12.829
57211W        W30279  37.980  35.923  12.635
57212W        W30280  30.517  34.530  14.210
57213W        W30281   6.827  26.300   3.504
57214W        W30282  31.687  44.916  13.332
57215W        W30283  36.179  33.366   3.863
57216W        W30284  16.521  29.150   1.940
57217W        W30285  43.366  24.137  12.837
57218W        W30286  38.659  18.782   3.195
57219W        W30287   8.085  26.488   4.593
57220W        W30288   4.464  39.880   3.237
57221W        W30289  31.012  43.795   3.264
57222W        W30290  20.221   2.910  13.104
57223W        W30291  21.614   6.240   2.374
57224W        W30292  18.069  14.788  14.131
57225W        W30293  11.622  21.406   4.631
57226W        W30294  42.281  28.705   0.474
57227W        W30295   9.184  37.322   0.828
57228W        W30296  21.138  40.969  12.906
57229W        W30297  16.447  24.675  11.618
57230W        W30298  43.534  23.107  12.026
57231W        W30299  36.468  34.641  11.521
57232W        W30300  41.280  18.203   4.134
57233W        W30301  21.421  13.723   1.359
57234W        W30302   9.446  44.830   3.484
57235W        W30303  14.736  28.613  13.950
57236W        W30304  42.220   4.137   0.358
57237W        W30305  21.710  22.798   2.788
57238W        W30306   8.467  25.689   1.385
57239W        W30307  19.335  37.080  11.644
57240W        W30308  27.930  19.883   2.632
57241W        W30309  29.361  11.677   3.542
57242W        W30310  25.255  36.009   4.634
57243W        W30311   7.243   9.814  12.238
57244W        W30312  19.587  35.614  14.589
57245W        W30313  22.712   1.363  12.426
57246W        W30314  39.215  36.553  14.886
57247W        W30315  35.803  44.555  12.054
57248W        W30316  11.825  18.485  14.798
57249W        W30317  38.044  10.523   4.654
57250W        W30318  12.920   5.853   3.740
57251W        W30319  10.720  14.189  14.471
57252W        W30320  36.485   9.798   1.547
57253W        W30321  30.909   9.824  11.472
57254W        W30322   8.623   1.238  11.107
57255W        W30323  20.073  10.824   4.606
57256W        W30324  43.066  39.903   0.350
57257W        W30325   3.840  12.109  12.735
57258W        W30326  15.133  33.524   4.023
57259W        W30327   3.820   5.022  11.477
57260W        W30328   0.549  40.600  13.536
57261W        W30329  26.632   5.824   2.156
57262W        W30330  25.190  35.573   1.246
57263W        W30331   8.647  23.385   4.399
57264W        W30332   2.847  39.626  11.223
57265W        W30333  33.128   6.868  10.665
57266W        W30334  43.495  42.437   4.414
57267W        W30335  33.442  37.378  12.462
57268W        W30336  43.289  35.041   1.782
57269W        W30337  38.807  27.111   3.254
57270W        W30338  36.844  35.496   4.293
57271W        W30339  40.909  32.974   2.987
57272W        W30340   1.730   5.871   2.261
57273W        W30341  32.531  32.795  13.498
57274W        W30342  13.038  20.771   0.361
57275W        W30343  13.946   2.538  12.049
57276W        W30344  24.488   7.505  10.537
57277W        W30345  27.794  23.145   4.967
57278W        W30346  37.266  26.042  13.378
57279W        W30347  10.364  43.831   4.664
57280W        W30348   8.928  13.214   2.297
57281W        W30349  42.755  12.441  10.642
57282W        W30350  32.123   8.316  10.576
57283W        W30351  20.244  42.318   4.492
57284W        W30352   2.461  43.010  10.375
57285W        W30353  11.411   0.440  12.958
57286W        W30354  25.579  15.138  14.019
57287W        W30355  44.798   4.466  13.527
57288W        W30356  34.929  25.349   2.471
57289W        W30357  21.632  32.600  14.831
57290W        W30358  37.071  10.746   0.117
57291W        W30359  42.110   0.342   3.677
57292W        W30360  12.767  42.229   4.424
57293W        W30361  27.893  39.291   0.722
57294W        W30362  30.017  23.318   2.414
57295W        W30363   4.290  23.953   3.731
57296W        W30364   4.164   6.289   4.462
57297W        W30365  19.558  43.208  14.369
57298W        W30366  43.896  40.589   0.133
57299W        W30367  10.790  28.774  14.604
57300W        W30368  11.063  42.128   2.633
57301W        W30369  16.099   3.675   4.936
57302W        W30370  29.975   4.490   0.917
57303W        W30371   2.008  36.359  13.970
57304W        W30372  36.986  17.084  13.829
57305W        W30373  30.161  13.482  11.980
57306W        W30374   9.725   0.054  11.473
57307W        W30375  36.074  34.165  10.751
57308W        W30376   3.736  24.647   1.068
57309W        W30377  16.208  24.128   3.465
57310W        W30378  15.369  20.701  11.511
57311W        W30379  44.631  44.017   4.252
57312W        W30380  27.435  19.204  11.356
57313W        W30381  29.035  34.554   4.474
57314W        W30382  28.385  22.821  12.152
57315W        W30383  40.562  44.133   4.072
57316W        W30384  28.939  34.062   2.079
57317W        W30385   2.971  14.322   3.725
57318W        W30386  38.856  22.310   2.851
57319W        W30387  24.709  16.056   4.712
57320W        W30388  25.697   3.991  12.891
57321W        W30389   8.236  23.605   4.645
57322W        W30390  35.336  34.530  12.403
57323W        W30391  20.676  38.441  13.501
57324W        W30392   3.695  13.949  10.542
57325W        W30393  40.414  35.541   2.314
57326W        W30394  31.359  11.169   4.226
57327W        W30395   6.240  25.049  11.621
57328W        W30396   0.395  40.416  13.051
57329W        W30397  42.729  17.386   2.038
57330W        W30398   4.938   0.559  10.637
57331W        W30399  23.824  18.810  10.602
57332W        W30400  43.247  37.496  11.923
57333W        W30401  36.448  36.546  11.317
57334W        W30402  39.934  34.157   1.754
57335W        W30403  44.274  42.656  12.141
57336W        W30404  31.164  12.265   4.888
57337W        W30405  42.496  39.861  11.027
57338W        W30406  43.216   8.145   2.189
57339W        W30407   8.196  10.602  10.625
57340W        W30408  33.155  28.622  12.619
57341W        W30409   7.638   5.102   0.498
57342W        W30410  30.811   9.456  13.686
57343W        W30411   6.623  12.826   4.774
57344W        W30412  12.756   2.251  14.036
57345W        W30413  32.153  39.277   1.185
57346W        W30414   3.228  22.222   0.967
57347W        W30415  25.428  15.338   4.427
57348W        W30416  30.895  11.086  11.967
57349W        W30417  33.769  43.402  11.230
57350W        W30418  28.078  22.950   4.255
57351W        W30419  28.920  42.925   4.733
57352W        W30420   4.820  39.117   0.628
57353W        W30421   3.232  32.144  11.544
57354W        W30422  12.215  34.983   3.581
57355W        W30423  28.096  32.930   2.273
57356W        W30424  18.658   7.508   3.756
57357W        W30425  21.754  40.299   3.670
57358W        W30426  16.857  35.850   0.312
57359W        W30427  12.119  19.128   1.791
57360W        W30428  35.603  15.174  11.128
57361W        W30429  16.860  19.802  13.512
57362W        W30430  28.420  43.783   4.242
57363W        W30431  23.361  32.675   0.271
57364W        W30432  28.880  20.524   2.960
57365W        W30433  17.474  12.233  14.719
57366W        W30434  36.936   7.242  11.996
57367W        W30435   7.224  11.418   2.467
57368W        W30436  31.999  23.219  12.433
57369W        W30437  16.191  29.539  12.849
57370W        W30438   4.829   3.126  11.489
57371W        W30439  37.028  42.957   4.124
57372W        W30440   5.668   8.119   3.913
57373W        W30441  11.583   5.796  11.575
57374W        W30442  43.081  33.013  13.883
57375W        W30443  39.498  31.766   0.744
57376W        W30444  38.335   0.053  13.757
57377W        W30445  25.529  27.831  11.840
57378W        W30446  28.203  18.424   2.911
57379W        W30447  16.361  30.468   0.393
57380W        W30448  39.319  30.461  12.116
57381W        W30449   3.513   0.368   2.203
57382W        W30450  12.570  31.129  12.008
57383W        W30451  12.855  11.822  14.794
57384W        W30452  13.434  18.782   0.419
57385W        W30453  31.425  42.069   3.276
57386W        W30454  13.074  33.058  11.502
57387W        W30455  29.397   8.150  12.076
57388W        W30456   0.432  19.025   1.322
57389W        W30457  43.491  12.086  13.061
57390W        W30458  31.388  40.032  14.878
57391W        W30459  12.568   4.228  12.852
57392W        W30460  31.470  13.376   3.668
57393W        W30461   3.192  17.335   4.548
57394W        W30462  25.534  33.084  14.851
57395W        W30463  37.604  17.212   1.357
57396W        W30464   2.444  28.161   1.280
57397W        W30465   7.325  14.821   0.391
57398W        W30466  39.384  28.822   3.757
57399W        W30467  35.436  33.734   5.016
57400W        W30468   9.704  11.286  14.318
57401W        W30469  10.166  13.388   4.785
57402W        W30470  40.302   7.119   2.253
57403W        W30471  44.318   2.492  11.600
57404W        W30472  23.551   8.708  13.624
57405W        W30473  21.299  33.476   4.026
57406W        W30474  33.019  29.033   3.009
57407W        W30475  24.143  35.565   1.202
57408W        W30476  36.826   9.785   3.197
57409W        W30477  19.128   9.985   1.222
57410W        W30478  24.083   4.875   1.175
57411W        W30479  24.499  27.061  12.552
57412W        W30480  28.904  24.468   3.243
57413W        W30481   7.036  40.886  14.797
57414W        W30482  23.038  24.561   3.251
57415W        W30483   8.320  13.714  13.927
57416W        W30484  44.233  17.758  10.994
57417W        W30485  10.812   3.323  11.495
57418W        W30486  15.118  40.825   0.526
57419W        W30487  15.431  11.665  13.426
57420W        W30488  27.977  18.327  14.462
57421W        W30489  10.775  11.788  11.193
57422W        W30490  12.630  39.080   4.831
57423W        W30491   2.748   0.234  12.213
57424W        W30492   7.957  30.618  13.908
57425W        W30493  36.055   3.444  13.817
57426W        W30494  14.904  10.095   2.309
57427W        W30495  17.289   2.280   2.868
57428W        W30496  17.069  16.564  11.675
57429W        W30497  41.537  38.198   2.798
57430W        W30498  36.823   6.226  12.788
57431W        W30499  39.397   9.960  10.647
57432W        W30500  19.451   4.338  14.914
57433W        W30501   0.030  12.673   0.190
57434W        W30502  24.648  40.474   2.321
57435W        W30503  22.961   4.423   2.812
57436W        W30504  32.645  32.234   3.609
57437W        W30505  15.660   9.885   2.241
57438W        W30506   5.272  20.073   0.620
57439W        W30507   3.990   9.682   0.605
57440W        W30508  18.611   1.845  12.446
57441W        W30509  36.419   4.913   5.379
57442W        W30510  40.032   8.910   4.084
57443W        W30511  24.160  12.721   0.569
57444W        W30512  31.121  35.458   4.702
57445W        W30513  31.095  22.206   3.184
57446W        W30514  22.533  30.552   3.723
57447W        W30515  30.146  14.856  13.421
57448W        W30516  12.904  12.749   0.770
57449W        W30517   5.650  22.786   2.233
57450W        W30518  24.734   0.911  14.538
57451W        W30519   9.670  11.369   1.933
57452W        W30520  12.806  42.914   0.506
57453W        W30521  17.172  33.508   4.105
57454W        W30522  15.381  38.782  12.568
57455W        W30523  16.782  16.705  11.038
57456W        W30524  23.008  11.815  13.842
57457W        W30525  25.142  38.007  12.910
57458W        W30526  33.240  18.217  11.426
57459W        W30527  10.678  23.697   0.216
57460W        W30528  44.397  20.768   1.830
57461W        W30529  30.464  17.713  14.870
57462W        W30530  36.100  11.782   4.545
57463W        W30531  40.731  15.853   2.109
57464W        W30532  42.099  29.517  11.950
57465W        W30533  41.519  21.495   4.582
57466W        W30534  42.532  16.554  11.475
57467W        W30535  38.334  35.097   1.987
57468W        W30536   3.250  28.486   1.984
57469W        W30537  16.596   6.326  11.140
57470W        W30538  24.159  24.623  10.799
57471W        W30539  30.830  43.938   3.748
57472W        W30540  28.727  28.603   4.269
57473W        W30541  19.555   8.465  12.918
57474W        W30542  29.154  34.309  13.772
57475W        W30543   7.033  40.315  10.344
57476W        W30544  20.133  43.490  10.369
57477W        W30545  26.651  41.062  13.930
57478W        W30546  21.007   5.382   2.125
57479W        W30547  30.985  40.579  12.598
57480W        W30548  12.055  35.100   2.627
57481W        W30549  38.538   0.224  11.466
57482W        W30550   9.691  33.393   1.306
57483W        W30551   8.923  39.564   2.418
57484W        W30552   9.391  23.579  10.700
57485W        W30553  38.162  18.311  12.811
57486W        W30554  27.795  10.216  13.780
57487W        W30555  15.368   0.767   2.410
57488W        W30556  35.871  11.086  12.331
57489W        W30557   6.415  35.420   1.787
57490W        W30558  27.967  36.049  10.288
57491W        W30559  12.908  11.202  13.602
57492W        W30560  44.685  35.659   1.037
57493W        W30561  22.571  21.952   1.412
57494W        W30562  11.363  13.880  13.047
57495W        W30563  38.134   1.285  14.306
57496W        W30564  19.671  43.777  11.220
57497W        W30565  32.935  16.268   4.634
57498W        W30566   1.461  14.602   1.795
57499W        W30567  41.114   2.900   3.903
57500W        W30568  44.191   0.876  11.666
57501W        W30569  43.057  25.046  14.209
57502W        W30570  19.616  44.793   1.792
57503W        W30571  13.651  23.486  14.712
57504W        W30572  29.065  44.826  14.036
57505W        W30573  41.911  34.876   0.904
57506W        W30574  43.658  23.066  14.923
57507W        W30575  36.218  24.087   2.254
57508W        W30576  13.106   2.313   3.728
57509W        W30577  15.376  23.944   3.201
57510W        W30578  24.524  42.682   3.542
57511W        W30579  14.201  31.696  13.393
57512W        W30580  28.478  19.097  11.539
57513W        W30581  13.446   0.219  11.123
57514W        W30582  44.388  38.802  13.312
57515W        W30583  27.478  24.527  14.835
57516W        W30584  38.781   2.230   4.079
57517W        W30585  40.072  38.607   1.343
57518W        W30586  42.466  18.379   1.873
57519W        W30587  22.180  40.956   0.465
57520W        W30588  13.385  31.081   0.857
57521W        W30589  25.942  35.385  13.856
57522W        W30590  30.079  17.958   1.003
57523W        W30591  14.368   4.932  12.657
57524W        W30592  44.464  12.034  11.151
57525W        W30593  25.550  25.220   4.583
57526W        W30594   3.372  32.525  10.392
57527W        W30595  15.065   4.816   1.000
57528W        W30596  29.660  40.861   0.878
57529W        W30597   3.412  34.387   1.438
57530W        W30598  17.447  43.576   2.837
57531W        W30599  15.343   7.422  12.012
57532W        W30600  36.294  13.633   3.697
57533W        W30601  21.787  13.579   2.224
57534W        W30602  37.204  24.806   1.779
57535W        W30603  44.914  44.841   0.116
57536W        W30604  26.912   0.276   3.263
57537W        W30605   6.617  44.595  13.796
57538W        W30606  13.054  25.644  14.366
57539W        W30607  35.503  12.326  10.684
57540W        W30608  21.539  39.467  10.370
57541W        W30609  23.991  21.527  10.574
57542W        W30610  27.991  14.712  14.920
57543W        W30611  37.893  12.913  14.010
57544W        W30612  30.704  17.754   1.281
57545W        W30613   2.459  14.314  12.520
57546W        W30614  10.361  14.724   5.054
57547W        W30615   8.761  24.856  14.046
57548W        W30616   6.368  27.253  11.151
57549W        W30617  22.094  12.380  14.905
57550W        W30618   6.908  32.412  14.307
57551W        W30619  13.819   5.293  13.457
57552W        W30620  39.187  36.031  14.799
57553W        W30621  34.797   2.028  14.787
57554W        W30622  25.159  31.697   0.052
57555W        W30623  26.090  12.446  14.892
57556W        W30624  40.596  41.832   3.591
57557W        W30625  28.171  28.989   2.535
57558W        W30626  27.889  24.030  14.055
57559W        W30627   4.879   5.080   0.896
57560W        W30628   2.264   9.241  12.206
57561W        W30629  17.548  38.353  11.011
57562W        W30630  20.062  29.894  10.662
57563W        W30631  39.042  35.076  11.152
57564W        W30632  30.941  41.429  11.656
57565W        W30633  31.513   0.782  13.284
57566W        W30634  31.833  37.280   1.898
57567W        W30635  32.310  38.854   0.914
57568W        W30636  19.096  43.452   1.267
57569W        W30637  16.115  19.729  13.879
57570W        W30638  11.763  13.563  10.068
57571W        W30639  19.757  38.887   0.388
57572W        W30640  18.997  36.285  10.994
57573W        W30641  40.378  13.675  13.798
57574W        W30642  18.177  44.996  10.713
57575W        W30643   3.582   4.188  11.936
57576W        W30644  34.102  20.213   0.975
57577W        W30645  18.199  35.362   4.174
57578W        W30646  27.091   0.563  10.796
57579W        W30647  32.854  30.026   0.915
57580W        W30648  39.262  28.893   0.709
57581W        W30649  37.011  29.462   3.829
57582W        W30650  21.167  10.750   1.960
57583W        W30651  35.340   5.720   3.846
57584W        W30652  24.774  19.160  14.367
57585W        W30653   3.911  13.402   2.859
57586W        W30654   3.346   9.560  13.522
57587W        W30655  42.721  13.688   0.356
57588W        W30656  20.747   9.673  11.046
57589W        W30657  26.389  27.556   1.833
57590W        W30658  42.742   1.713  11.103
57591W        W30659  35.323   8.042  14.260
57592W        W30660   5.370  30.854   0.221
57593W        W30661  11.349  12.185   2.167
57594W        W30662  12.296  21.720   1.072
57595W        W30663  43.815   4.669   2.268
57596W        W30664  16.719  42.020   0.916
57597W        W30665   8.932   7.876   0.510
57598W        W30666  25.745  21.683  13.976
57599W        W30667  13.539  20.482   0.965
57600W        W30668  43.790  30.323   3.109
57601W        W30669  29.590  28.167  14.781
57602W        W30670   6.275  13.693   2.418
57603W        W30671  21.017  27.083   3.200
57604W        W30672  43.047  12.712  10.274
57605W        W30673   5.928  23.141  11.591
57606W        W30674  40.077  36.544   0.607
57607W        W30675  35.650  16.187   3.853
57608W        W30676  40.812   5.086  12.107
57609W        W30677  10.898  10.154   4.688
57610W        W30678  10.329  36.744   4.093
57611W        W30679  11.206  44.764  10.551
57612W        W30680  29.129   5.372   1.180
57613W        W30681  11.740  37.112   4.649
57614W        W30682  42.631   2.255   2.211
57615W        W30683  18.656   7.883  11.944
57616W        W30684  37.322   3.877   4.511
57617W        W30685   8.463  44.337  11.689
57618W        W30686  13.608   8.840   2.318
57619W        W30687   9.249  12.648  10.317
57620W        W30688   1.472  39.010  11.590
57621W        W30689  37.892  20.260   1.914
57622W        W30690  37.902   4.495   1.271
57623W        W30691   3.909  39.814  13.014
57624W        W30692   0.343  36.076  10.539
57625W        W30693  19.252   9.684  10.551
57626W        W30694  31.913  10.745   0.909
57627W        W30695   5.836   8.890   2.387
57628W        W30696  24.529   1.000   4.191
57629W        W30697   0.187   9.901   1.718
57630W        W30698  27.435  37.281  11.195
57631W        W30699  30.081  24.456   3.621
57632W        W30700   2.498  23.980  14.404
57633W        W30701  43.241  15.601  10.952
57634W        W30702  35.526  32.098  13.576
57635W        W30703  25.995  22.516   3.960
57636W        W30704   1.309  23.034  10.670
57637W        W30705  25.907   0.248  14.348
57638W        W30706  22.187   0.674   4.294
57639W        W30707  14.869   9.061   0.902
57640W        W30708  18.382  15.880  11.145
57641W        W30709  38.143  41.587  11.576
57642W        W30710   6.422  14.724  11.102
57643W        W30711  32.946  36.931   4.557
57644W        W30712  38.976  19.632   2.771
57645W        W30713   6.247   3.064  11.996
57646W        W30714  15.178  31.303   2.705
57647W        W30715  16.148  26.694   2.221
57648W        W30716  29.938  44.897   1.695
57649W        W30717  29.301  11.813  10.651
57650W        W30718  23.855  27.242   3.655
57651W        W30719  14.754   5.768   2.734
57652W        W30720   4.806  35.888  14.448
57653W        W30721  22.743  43.846  14.343
57654W        W30722  29.244  34.448  12.226
57655W        W30723  37.069  25.775  12.982
57656W        W30724  13.629  10.482   4.064
57657W        W30725   1.401  34.053  13.592
57658W        W30726  36.016  22.245   3.755
57659W        W30727  23.285  38.349   4.627
57660W        W30728  28.191   8.573  14.756
57661W        W30729   4.098   8.692  11.128
57662W        W30730  10.876  33.257  12.911
57663W        W30731  22.018  26.730   3.058
57664W        W30732  43.034  31.381   0.777
57665W        W30733   5.251  15.780   3.732
57666W        W30734  29.164  12.069   4.717
57667W        W30735  42.381   5.973   0.063
57668W        W30736   6.559  15.232   9.890
57669W        W30737  27.159  38.065   1.566
57670W        W30738  32.040  25.827  14.394
57671W        W30739  14.711  10.596  11.699
57672W        W30740   4.774  27.153  10.113
57673W        W30741  28.920  19.245  12.772
57674W        W30742  44.215  21.119   1.425
57675W        W30743  28.513  33.972   0.458
57676W        W30744  16.655  21.115   4.443
57677W        W30745  16.719  30.604   1.397
57678W        W30746  34.841  11.471  14.945
57679W        W30747   7.421  22.739  13.543
57680W        W30748  17.859  34.753   3.725
57681W        W30749  19.156  33.294  10.852
57682W        W30750  20.607  15.365   2.307
57683W        W30751  27.072  22.395   0.720
57684W        W30752  42.769   1.073   4.506
57685W        W30753   0.894   4.891  13.438
57686W        W30754  30.471  39.296  14.488
57687W        W30755   1.232  21.129  12.776
57688W        W30756  42.728  18.226   2.393
57689W        W30757   9.742  40.454   4.994
57690W        W30758   5.245  24.650   1.834
57691W        W30759  34.969  13.911  11.539
57692W        W30760  36.508   2.720  11.510
57693W        W30761  11.773   6.900   4.891
57694W        W30762  42.802  23.070  14.465
57695W        W30763   2.669  17.181   4.596
57696W        W30764  25.969   8.269  12.770
57697W        W30765  28.252  39.285  12.823
57698W        W30766  13.082  16.551   3.153
57699W        W30767   7.606  36.926  10.684
57700W        W30768   5.674  26.229  11.183
57701W        W30769   9.766  13.567  13.984
57702W        W30770  31.085  25.519  13.317
57703W        W30771  28.073   8.304  12.093
57704W        W30772  34.098  13.088   1.745
57705W        W30773  42.341  22.583   4.134
57706W        W30774  34.275   3.920   3.613
57707W        W30775  33.506  30.894   3.671
57708W        W30776   4.308  20.100  12.978
57709W        W30777  23.289  27.187   0.110
57710W        W30778  33.460  41.081  10.981
57711W        W30779   1.450  18.828  10.663
57712W        W30780  18.333  12.358  14.017
57713W        W30781   1.805  32.138   4.269
57714W        W30782   5.121  23.551  14.120
57715W        W30783  29.394  18.577  12.873
57716W        W30784   8.375  40.021   0.349
57717W        W30785  30.003   7.115   4.069
57718W        W30786   2.903  37.350  10.864
57719W        W30787  13.750  44.427   1.873
57720W        W30788  44.958   0.968  11.022
57721W        W30789  20.144  31.976   4.323
57722W        W30790   4.984  24.616  11.502
57723W        W30791   8.128  13.697  12.383
57724W        W30792  23.707   4.544   0.277
57725W        W30793  31.331   8.136  14.348
57726W        W30794  29.490  19.630  10.777
57727W        W30795  29.058  13.660  12.851
57728W        W30796  44.332  19.988   4.942
57729W        W30797  17.843   8.095  13.498
57730W        W30798  42.920  17.531  11.686
57731W        W30799  15.703   1.347   0.313
57732W        W30800  42.255  41.441   2.774
57733W        W30801   5.667  44.365  13.770
57734W        W30802  42.754  32.579  14.909
57735W        W30803  36.820   5.636   0.273
57736W        W30804  36.939  17.874   0.608
57737W        W30805   3.732  19.372  11.464
57738W        W30806  12.048  18.694   2.471
57739W        W30807   3.423  21.416   3.620
57740W        W30808   0.693  37.650   4.537
57741W        W30809   4.242  11.180   2.813
57742W        W30810  20.274   4.440   3.307
57743W        W30811  42.808  14.283  12.743
57744W        W30812  35.082  36.564  11.571
57745W        W30813   7.039   8.799   2.621
57746W        W30814  44.268  25.403   1.500
57747W        W30815   9.404  22.917  13.875
57748W        W30816  43.271  38.968   3.831
57749W        W30817  17.542  19.642   0.241
57750W        W30818  21.090  10.460  10.986
57751W        W30819  18.677  13.025   0.790
57752W        W30820  44.544  16.718  12.922
57753W        W30821  23.722   6.803  14.867
57754W        W30822  13.275  40.050   3.589
57755W        W30823   8.717  34.039   4.276
57756W        W30824  28.943  29.974   3.671
57757W        W30825  22.629   7.420   0.318
57758W        W30826  15.338  25.179  12.764
57759W        W30827  27.213   2.780  10.433
57760W        W30828  22.217  10.530   0.835
57761W        W30829  43.606   2.905  12.055
57762W        W30830  44.857  35.616  10.947
57763W        W30831  20.764  25.040   2.200
57764W        W30832  31.076  41.403   4.554
57765W        W30833   2.500  26.605   3.218
57766W        W30834  34.882  31.352   0.291
57767W        W30835  27.132  35.877   5.029
57768W        W30836   7.436  37.567  10.611
57769W        W30837  23.880  20.964   4.980
57770W        W30838  26.672   8.552   2.294
57771W        W30839   2.878  32.112   0.402
57772W        W30840  41.040  44.547   3.406
57773W        W30841  10.305  27.692   1.930
57774W        W30842   9.752  22.125  11.409
57775W        W30843  17.663  39.959   3.608
57776W        W30844   7.676   3.441  12.211
57777W        W30845  22.948  12.219  12.173
57778W        W30846   4.717  41.339   0.715
57779W        W30847  29.083  33.638   3.464
57780W        W30848  31.538   3.482  10.590
57781W        W30849  24.666  37.151   2.659
57782W        W30850   0.906  21.069  13.457
57783W        W30851  30.097  30.549  13.570
57784W        W30852  32.627  37.053  12.455
57785W        W30853  17.803  12.110  13.229
57786W        W30854  22.180  12.354  11.561
57787W        W30855  26.613   3.630  14.462
57788W        W30856  33.930  14.089  11.887
57789W        W30857  12.442  17.271   1.425
57790W        W30858  30.121  21.547   0.559
57791W        W30859  26.556   1.140   4.150
57792W        W30860   1.520  35.529  14.320
57793W        W30861  38.182  35.065   2.492
57794W        W30862  27.166   9.903  13.127
57795W        W30863  18.437  27.482   2.255
57796W        W30864  24.279  27.649   0.377
57797W        W30865  35.053  16.290   2.204
57798W        W30866   9.214  42.999  13.969
57799W        W30867  43.808  22.186   4.382
57800W        W30868  10.373  38.476   3.692
57801W        W30869  22.975  15.308   1.187
57802W        W30870   7.468  41.262  10.551
57803W        W30871  41.794   3.240  12.196
57804W        W30872  44.707   7.158   0.919
57805W        W30873   2.322   3.645  10.340
57806W        W30874  20.988  40.159   0.264
57807W        W30875   1.938  31.048   2.741
57808W        W30876  25.676  15.880   4.055
57809W        W30877  12.191  14.094   4.217
57810W        W30878   0.459  11.128   4.641
57811W        W30879  31.829  27.885   1.314
57812W        W30880  26.024  32.992  12.966
57813W        W30881  10.877  38.383   4.088
57814W        W30882   6.732  37.576  13.479
57815W        W30883   4.662  16.707   2.748
57816W        W30884  20.438  44.160  13.343
57817W        W30885  40.893  11.215  14.293
57818W        W30886   1.821   2.571  14.214
57819W        W30887  35.937  25.784  10.770
57820W        W30888  16.826  31.933  13.353
57821W        W30889  14.406  33.804  13.962
57822W        W30890  31.164  44.817  12.103
57823W        W30891  40.474  33.499  10.829
57824W        W30892   5.720  27.655  13.843
57825W        W30893  43.990  19.564   1.896
57826W        W30894  11.775  41.729  12.575
57827W        W30895  37.836  16.528  12.887
57828W        W30896   9.398   5.808   0.932
57829W        W30897  42.988   3.411   2.586
57830W        W30898  32.505  20.633   3.815
57831W        W30899  16.051  21.634  12.455
57832W        W30900   6.139  14.236  14.339
57833W        W30901  20.820  23.067   1.880
57834W        W30902  22.084  17.352  14.401
57835W        W30903  19.015  32.387  10.377
57836W        W30904   0.628  33.662  14.197
57837W        W30905   3.777  23.394   3.444
57838W        W30906  35.891  17.556  13.573
57839W        W30907  27.539  15.288   3.099
57840W        W30908  18.788  25.512  14.876
57841W        W30909  24.981  14.617   0.979
57842W        W30910  18.021  10.862  13.733
57843W        W30911  24.923   6.875   4.498
57844W        W30912  26.879  44.825   0.755
57845W        W30913   0.138  11.127  11.641
57846W        W30914  44.935  42.188   1.470
57847W        W30915  26.472   4.169   0.084
57848W        W30916  34.486  24.030  11.045
57849W        W30917  35.227   5.459  14.905
57850W        W30918  20.794  26.029   1.843
57851W        W30919  23.704   5.233   0.970
57852W        W30920  12.110  28.530  12.470
57853W        W30921  20.027  38.581   2.220
57854W        W30922  25.180  15.012   1.268
57855W        W30923  38.759  12.386   3.582
57856W        W30924  40.107  41.929  14.293
57857W        W30925   7.357  18.135  12.536
57858W        W30926  35.642   3.049  14.455
57859W        W30927  28.536  15.135  12.240
57860W        W30928  34.332  25.906  14.804
57861W        W30929   2.813  25.180   1.437
57862W        W30930  25.504  38.951  13.816
57863W        W30931  22.715  36.846   4.071
57864W        W30932  12.772   8.424  14.950
57865W        W30933  28.275   3.565   0.441
57866W        W30934  18.771  23.142   3.502
57867W        W30935   1.357  36.317   0.595
57868W        W30936  30.151  41.301   1.374
57869W        W30937  42.256   7.694  14.039
57870W        W30938  38.882  11.019   2.195
57871W        W30939   8.473   0.714  11.442
57872W        W30940  24.135  39.833   3.205
57873W        W30941  42.797  25.319   4.490
57874W        W30942  20.272  33.630   2.348
57875W        W30943  31.688  40.762   4.101
57876W        W30944  12.623  21.960   2.787
57877W        W30945  42.955  34.543   0.336
57878W        W30946   7.450  27.408  13.623
57879W        W30947   5.405  25.734  14.435
57880W        W30948  23.525  12.307   0.573
57881W        W30949  43.865  43.568   1.931
57882W        W30950  27.138  27.217   3.296
57883W        W30951   7.906  35.175  14.812
57884W        W30952  20.823  22.985  13.474
57885W        W30953  19.508  37.368   0.534
57886W        W30954  13.013  40.337  11.780
57887W        W30955  14.903  22.250  12.895
57888W        W30956   5.800   5.197  13.801
57889W        W30957  20.424  40.470  14.845
57890W        W30958   7.240  34.505   1.460
57891W        W30959  38.594  15.058   1.987
57892W        W30960  32.817  14.638   5.011
57893W        W30961  27.943  28.511  10.320
57894W        W30962  22.505  34.950  14.870
57895W        W30963  36.874   7.565   2.384
57896W        W30964  34.147  16.725   3.595
57897W        W30965  12.914  13.964   3.592
57898W        W30966   8.780   3.777  11.869
57899W        W30967  16.539  40.099  14.950
57900W        W30968  24.175  13.349   3.502
57901W        W30969  11.415  20.344   5.015
57902W        W30970  36.502   7.330  10.311
57903W        W30971  11.788  20.609   3.257
57904W        W30972  35.516  35.594   2.623
57905W        W30973  42.764  26.558   1.775
57906W        W30974  18.632  27.668  14.304
57907W        W30975   2.802  24.892  14.258
57908W        W30976   0.194  39.300   4.856
57909W        W30977  40.636  41.980  14.191
57910W        W30978  40.557  35.654   3.831
57911W        W30979  26.316  18.569   3.986
57912W        W30980  36.898  24.744   0.451
57913W        W30981   5.196  24.117  12.451
57914W        W30982  10.478  18.464   3.709
57915W        W30983  14.277  37.381   1.936
57916W        W30984  17.721   1.243   3.138
57917W        W30985  20.723   7.278  12.465
57918W        W30986   2.860  23.081  14.987
57919W        W30987  20.113   6.901  10.606
57920W        W30988  21.581  10.256  12.584
57921W        W30989  39.668  24.717  13.972
57922W        W30990  24.241  31.278  11.135
57923W        W30991  18.238  29.913   3.129
57924W        W30992  34.073  18.175   3.349
57925W        W30993  32.529  35.902   1.662
57926W        W30994   5.732  39.004  13.459
57927W        W30995  41.941  43.487  10.587
57928W        W30996   8.198   3.438   4.076
57929W        W30997  17.958  35.895  11.948
57930W        W30998  29.633  14.892   2.864
57931W        W30999   0.892  33.923   2.342
57932W        W31000  29.655  39.904   0.812
57933W        W31001  26.623  44.389   3.304
57934W        W31002  34.918  41.552  11.837
57935W        W31003  29.535  38.402  14.583
57936W        W31004   1.477  18.340   1.964
57937W        W31005   7.045  15.370  11.318
57938W        W31006  18.275  44.455   1.144
57939W        W31007  25.644  12.209  14.714
57940W        W31008  16.631  42.422  11.960
57941W        W31009  14.589   7.672  13.854
57942W        W31010  35.488  25.581  11.593
57943W        W31011   6.631  32.527  14.965
57944W        W31012  18.677  34.607   4.211
57945W        W31013  12.622  25.729  12.578
57946W        W31014   4.324  18.649   3.812
57947W        W31015   9.137   9.718   1.174
57948W        W31016  18.997  12.195   0.738
57949W        W31017  28.823  18.319   0.035
57950W        W31018   4.121  43.912   3.325
57951W        W31019  23.402  13.672   4.542
57952W        W31020  12.156   0.228  10.687
57953W        W31021  31.798  21.527  11.962
57954W        W31022  29.408  42.487  12.948
57955W        W31023  32.091   8.767  11.607
57956W        W31024  12.370  15.953   3.261
57957W        W31025  12.442  23.224   3.139
57958W        W31026  21.227  41.964  11.096
57959W        W31027  21.123  39.858  10.249
57960W        W31028  26.149  27.693  13.437
57961W        W31029  16.708   6.944   4.458
57962W        W31030  21.112  21.025  13.462
57963W        W31031  34.621  24.499   0.690
57964W        W31032  17.575  30.008  14.799
57965W        W31033  14.337   0.803   2.374
57966W        W31034  27.222  39.494   2.913
57967W        W31035   9.756  11.792  13.549
57968W        W31036   8.922  28.187  12.025
57969W        W31037   1.250   1.494   2.863
57970W        W31038  32.896  25.036   0.765
57971W        W31039  26.690  40.810   3.133
57972W        W31040  14.271   3.197   3.205
57973W        W31041  22.323  33.415   0.289
57974W        W31042  33.566   5.957   3.413
57975W        W31043  36.530   3.338   0.979
57976W        W31044   8.751  10.834  14.967
57977W        W31045  11.923  28.500   0.738
57978W        W31046   9.120  42.949   1.209
57979W        W31047  44.763  38.015  10.520
57980W        W31048  21.299  20.724  11.141
57981W        W31049  31.681  38.966   0.489
57982W        W31050  16.652  43.499  10.664
57983W        W31051  33.037  19.099   1.946
57984W        W31052  21.584  19.778   2.280
57985W        W31053  36.046  27.857   3.734
57986W        W31054  32.377  25.992   3.516
57987W        W31055   7.050  41.063   2.503
57988W        W31056  33.186   3.640   0.027
57989W        W31057  36.809   8.105  11.741
57990W        W31058   4.984  42.079  11.517
57991W        W31059  29.105  18.025   3.858
57992W        W31060   3.133  42.455  13.099
57993W        W31061  16.031  22.342   1.140
57994W        W31062  27.195  17.179  11.682
57995W        W31063   2.953   3.196   2.199
57996W        W31064  20.814  37.407  11.712
57997W        W31065  30.921  17.440   5.065
57998W        W31066  26.478  21.430  14.748
57999W        W31067  25.150  33.369   4.360
58000W        W31068  32.339   6.682   2.380
58001W        W31069  30.519   5.513   4.295
58002W        W31070  27.970  10.427   3.738
58003W        W31071   8.226   7.730   3.199
58004W        W31072   9.064  33.537   1.957
58005W        W31073  41.543  38.000  10.632
58006W        W31074  25.200  38.115  10.193
58007W        W31075   6.673  35.118  10.849
58008W        W31076  28.095   0.195  10.632
58009W        W31077  38.966   6.970  10.424
58010W        W31078   9.610  27.079   1.533
58011W        W31079  29.634   4.020   0.227
58012W        W31080  20.082  41.477  13.956
58013W        W31081  23.138  31.435   1.119
58014W        W31082  33.448   4.277   3.781
58015W        W31083  37.031  44.536  13.838
58016W        W31084  11.754  26.466   1.674
58017W        W31085  16.738  20.631   4.232
58018W        W31086  44.864  11.642   3.201
58019W        W31087  30.689  17.558   3.056
58020W        W31088  26.222  17.211   1.244
58021W        W31089  38.313  10.642  11.534
58022W        W31090   1.390  20.329  14.351
58023W        W31091  26.466  26.508   3.268
58024W        W31092  35.559   4.242  12.565
58025W        W31093   6.462  43.485   2.296
58026W        W31094  19.724  25.701  13.367
58027W        W31095   5.413  17.976   0.846
58028W        W31096  37.916  41.922   4.798
58029W        W31097  41.745  13.383   0.207
58030W        W31098   3.258  13.196   0.844
58031W        W31099  33.065   3.944   0.957
58032W        W31100  12.766  12.113  12.010
58033W        W31101  18.814  27.544   1.318
58034W        W31102  40.564  39.767   0.275
58035W        W31103  12.350  29.374  13.747
58036W        W31104  37.586  27.320  12.208
58037W        W31105  40.354  33.447  12.481
58038W        W31106  44.859  23.678  11.374
58039W        W31107  21.595  20.104  12.129
58040W        W31108  26.516  12.722   5.553
58041W        W31109  12.610  25.259   4.175
58042W        W31110  35.785  21.180  11.227
58043W        W31111  16.589  22.396  10.584
58044W        W31112  21.164  20.494   1.852
58045W        W31113  31.110  19.771  11.085
58046W        W31114   4.867  21.323  11.492
58047W        W31115  17.154  38.184   4.062
58048W        W31116  21.044  43.415   4.595
58049W        W31117  11.899   2.981   2.161
58050W        W31118  22.508   7.683   2.683
58051W        W31119  18.160  16.074   4.278
58052W        W31120   5.748  18.724  12.130
58053W        W31121   6.980  42.177   3.783
58054W        W31122  12.710  11.274  14.097
58055W        W31123  44.373   3.907   4.196
58056W        W31124  40.033  26.983  10.677
58057W        W31125   8.522  33.597   1.980
58058W        W31126  22.673  43.255  11.363
58059W        W31127  16.302   1.318  11.631
58060W        W31128  19.507  28.355   1.328
58061W        W31129   1.188  23.738  13.904
58062W        W31130  22.546  41.258   3.182
58063W        W31131  28.149  27.551  13.499
58064W        W31132   8.314   1.465   3.773
58065W        W31133  30.910  11.075   3.123
58066W        W31134  12.730   7.908   1.739
58067W        W31135  11.206  18.605   3.576
58068W        W31136  43.860  17.543  14.706
58069W        W31137  13.924  23.563   0.984
58070W        W31138  32.110  44.143  13.095
58071W        W31139  35.037  23.275  11.216
58072W        W31140   6.741  13.929   0.125
58073W        W31141  34.765  19.121   3.316
58074W        W31142   6.301  38.242  12.425
58075W        W31143   4.731  23.241  11.147
58076W        W31144  29.384  11.709  11.570
58077W        W31145  27.550   5.911  12.305
58078W        W31146   4.460   4.435  11.625
58079W        W31147  35.397   7.588   0.440
58080W        W31148   1.841  33.448   1.234
58081W        W31149   9.415  24.793  11.154
58082W        W31150  14.171  34.941   2.301
58083W        W31151   6.691  28.144   2.888
58084W        W31152  12.948  16.787  12.096
58085W        W31153  27.211  26.938   3.812
58086W        W31154  33.338   6.425  11.630
58087W        W31155   0.445  22.155   2.687
58088W        W31156  10.409  15.146   0.827
58089W        W31157  17.016  34.880  12.149
58090W        W31158  43.946  39.612  11.147
58091W        W31159  24.065  22.211   1.286
58092W        W31160  44.005  30.215  14.996
58093W        W31161  33.485  42.321   4.573
58094W        W31162  31.689  34.890  10.558
58095W        W31163  11.106   9.372   2.849
58096W        W31164  12.585  43.625   0.023
58097W        W31165  36.845  23.144   0.702
58098W        W31166  15.248  28.575   3.839
58099W        W31167  41.646   6.732   3.078
58100W        W31168  24.409  30.186  13.418
58101W        W31169   7.777  27.525   3.921
58102W        W31170   3.610   5.964  11.791
58103W        W31171  43.561  37.125  12.053
58104W        W31172   0.251  28.096   1.225
58105W        W31173  33.514   2.252   2.297
58106W        W31174  21.416  33.847   2.496
58107W        W31175   7.128  31.158  12.962
58108W        W31176   7.213  26.171  11.594
58109W        W31177  17.151  41.415   4.525
58110W        W31178   0.689  23.735  12.920
58111W        W31179   9.872  20.092   4.333
58112W        W31180   4.225  12.357  12.989
58113W        W31181  12.175  16.870  12.431
58114W        W31182  31.707  30.532  11.911
58115W        W31183  19.153  33.931   0.513
58116W        W31184  19.504  27.469  10.686
58117W        W31185  22.458  22.534   2.339
58118W        W31186  27.108   3.910  11.734
58119W        W31187  23.905  27.104  12.959
58120W        W31188  34.593  35.521  12.672
58121W        W31189  18.488   3.506   2.303
58122W        W31190   2.868  29.828  14.284
58123W        W31191   1.928  33.819   4.584
58124W        W31192  43.430  27.580   4.482
58125W        W31193   0.434   5.968   3.243
58126W        W31194  35.528  37.397  12.994
58127W        W31195  27.920  19.563   1.323
58128W        W31196  31.025   5.733   4.342
58129W        W31197  22.974  38.364  11.560
58130W        W31198  24.202   7.397   4.176
58131W        W31199  20.126  32.018  12.914
58132W        W31200  29.620  31.366   4.574
58133W        W31201   3.304  34.888  13.890
58134W        W31202  39.059  22.636  12.777
58135W        W31203  31.124  29.981  12.934
58136W        W31204   3.768  29.036  11.468
58137W        W31205  36.566  13.255   1.532
58138W        W31206  32.629   5.014  13.928
58139W        W31207  15.072  36.150  11.296
58140W        W31208  11.023  12.593   2.151
58141W        W31209  14.869  19.655  12.110
58142W        W31210  17.591  38.925  12.629
58143W        W31211  26.840  15.862  12.387
58144W        W31212  40.553  27.049  12.639
58145W        W31213  36.501  39.346  11.180
58146W        W31214  42.926  26.568  13.783
58147W        W31215  19.779  43.812   4.283
58148W        W31216  18.648  27.039  14.092
58149W        W31217  17.059  29.884   1.939
58150W        W31218   0.227   6.463  14.867
58151W        W31219   6.671  20.638  10.726
58152W        W31220  30.314  38.455   4.559
58153W        W31221  20.885   2.847   4.691
58154W        W31222  19.056  29.921  12.400
58155W        W31223  19.349   2.711  14.022
58156W        W31224  16.879  35.930   4.341
58157W        W31225   7.772  15.882  13.151
58158W        W31226  26.405   5.340   2.171
58159W        W31227  12.574  24.655   0.376
58160W        W31228   6.730   4.690   4.440
58161W        W31229  22.618  29.450  12.884
58162W        W31230  13.906  17.519   3.582
58163W        W31231  26.537  32.362   0.245
58164W        W31232  27.705  29.459  11.204
58165W        W31233  28.165  31.405   2.373
58166W        W31234  20.253  22.045  14.457
58167W        W31235   7.149  25.078   3.468
58168W        W31236   2.517  30.109  11.993
58169W        W31237  25.655  11.191  12.511
58170W        W31238  13.620  19.683  14.635
58171W        W31239   1.864  12.159  12.975
58172W        W31240  13.046  17.251  12.870
58173W        W31241  22.224  10.489   2.966
58174W        W31242  22.045  12.749   3.110
58175W        W31243   6.969   6.110   1.265
58176W        W31244  42.019   9.335   3.251
58177W        W31245  10.805   5.779   0.559
58178W        W31246  24.047  32.097  12.108
58179W        W31247  12.315   7.781   4.722
58180W        W31248  21.247  31.370   0.102
58181W        W31249  35.075  34.890  13.787
58182W        W31250  42.045   9.303   0.725
58183W        W31251  18.994  41.367  13.037
58184W        W31252   6.296  28.095  10.845
58185W        W31253  39.050  10.069  14.185
58186W        W31254  32.374   6.947   2.855
58187W        W31255  24.029  22.799  13.271
58188W        W31256  33.593  42.515   3.590
58189W        W31257  32.987  44.464   1.933
58190W        W31258   6.854   3.841   4.076
58191W        W31259  29.877  28.605  14.778
58192W        W31260  20.753  28.148   3.743
58193W        W31261   8.808  10.860   4.509
58194W        W31262   1.076  29.501  11.081
58195W        W31263  21.350  24.181  12.110
58196W        W31264  35.013   7.470   1.749
58197W        W31265   7.258  40.324  10.914
58198W        W31266  44.447  30.535  14.335
58199W        W31267   4.849   4.234  13.878
58200W        W31268  19.122   9.381   2.090
58201W        W31269   1.195  42.207  10.565
58202W        W31270  38.859  41.763   0.415
58203W        W31271  25.090  12.599   1.695
58204W        W31272  24.698  36.789   3.496
58205W        W31273  26.974   6.842   4.606
58206W        W31274  19.489  27.114   3.169
58207W        W31275  17.478   9.267  12.814
58208W        W31276  20.626  12.745  10.762
58209W        W31277  14.382  34.545   1.541
58210W        W31278  16.181  15.662   2.120
58211W        W31279  29.184  32.560  12.380
58212W        W31280  43.362  17.287   1.385
58213W        W31281  11.514  38.241   2.440
58214W        W31282   1.984  29.739   1.943
58215W        W31283  33.770  12.887  13.853
58216W        W31284  30.908  12.611   3.632
58217W        W31285  11.885  34.288  13.827
58218W        W31286  44.521  37.088  12.284
58219W        W31287  27.880  43.207   2.265
58220W        W31288   6.880  16.752  10.742
58221W        W31289  25.216  37.643  13.537
58222W        W31290  30.628  44.647   4.175
58223W        W31291   0.724  25.737  11.078
58224W        W31292  33.437  40.512  12.484
58225W        W31293  13.638  19.029  14.858
58226W        W31294  36.852  11.473   1.269
58227W        W31295   9.327  24.037  12.611
58228W        W31296  31.567  28.128   0.562
58229W        W31297  12.398  29.544  13.235
58230W        W31298  13.699  37.043  11.176
58231W        W31299  19.128  32.942   4.609
58232W        W31300   8.271  13.806   0.835
58233W        W31301   2.422   1.253  11.541
58234W        W31302  11.073  28.068   0.894
58235W        W31303  39.412   0.031   0.536
58236W        W31304  18.145  12.797  12.781
58237W        W31305   1.451  35.822  14.763
58238W        W31306  20.681   9.131  12.906
58239W        W31307  14.709   9.851   4.450
58240W        W31308  23.705  27.428   1.770
58241W        W31309  42.715  42.986   4.727
58242W        W31310  36.567  31.453  12.926
58243W        W31311  14.062  13.565  12.810
58244W        W31312   2.806  30.325  10.749
58245W        W31313  27.059  42.441  12.961
58246W        W31314  17.202  44.959   4.886
58247W        W31315  38.617  14.330   0.820
58248W        W31316  39.115  16.106  10.623
58249W        W31317  34.607  40.557   2.202
58250W        W31318   0.435   5.953   4.176
58251W        W31319  15.151  34.566  14.013
58252W        W31320  24.457  41.380  12.547
58253W        W31321  27.947  17.935   2.245
58254W        W31322  22.505  33.096  10.685
58255W        W31323   7.301  15.200   3.148
58256W        W31324  31.620  33.395  11.623
58257W        W31325  39.426  32.961  14.432
58258W        W31326   2.849  12.302  10.616
58259W        W31327  21.504  27.776   2.206
58260W        W31328  40.991   5.907   4.183
58261W        W31329  19.704  38.564  12.666
58262W        W31330  19.987  27.174   3.274
58263W        W31331  11.186  12.075  12.512
58264W        W31332   6.099  11.479  12.548
58265W        W31333  16.064  25.221   3.179
58266W        W31334  43.236  27.651  11.880
58267W        W31335  22.429   5.952  11.151
58268W        W31336  40.116  16.615  11.486
58269W        W31337  30.882  29.361  10.846
58270W        W31338  16.328  24.987  11.235
58271W        W31339  42.733  36.408   4.088
58272W        W31340  44.402  15.683   9.875
58273W        W31341  11.619  25.936  13.570
58274W        W31342  22.223  23.829   4.882
58275W        W31343  10.274  17.073  12.552
58276W        W31344  19.815  32.172   0.509
58277W        W31345   4.700   1.042   4.566
58278W        W31346  35.122   6.570  11.798
58279W        W31347   6.977  30.010   0.362
58280W        W31348   4.083  35.672   2.890
58281W        W31349  36.202  15.125   1.775
58282W        W31350   4.917   2.273   4.894
58283W        W31351  37.059  42.835  11.096
58284W        W31352  23.996  21.578   2.544
58285W        W31353  25.454  24.716  13.065
58286W        W31354  34.276  44.897  14.714
58287W        W31355  32.527  33.908   4.656
58288W        W31356  22.608  12.557  11.770
58289W        W31357  12.607   4.584  14.004
58290W        W31358  29.675  15.750   3.207
58291W        W31359   3.082  27.154   0.256
58292W        W31360  33.473  20.346  14.124
58293W        W31361  32.100   1.814  13.411
58294W        W31362   1.323  16.123   2.665
58295W        W31363   6.413  13.352   4.743
58296W        W31364  36.605  37.336  11.746
58297W        W31365  12.861  24.181   3.172
58298W        W31366  30.696  12.786  14.958
58299W        W31367  14.239  33.168  12.318
58300W        W31368  16.323  41.723   1.150
58301W        W31369  23.508  24.328  12.710
58302W        W31370   0.818   0.279  12.678
58303W        W31371  21.670  30.352   1.139
58304W        W31372   4.932  16.197  14.121
58305W        W31373  38.888  27.125  10.922
58306W        W31374  18.505  22.143  12.096
58307W        W31375  30.522  23.024  14.022
58308W        W31376  20.002  28.073  13.013
58309W        W31377  24.991  12.618  13.382
58310W        W31378  35.444  11.093   4.299
58311W        W31379  25.633  28.139  11.450
58312W        W31380   9.776  25.619   4.489
58313W        W31381  22.203  43.598   3.175
58314W        W31382  28.656  10.317  14.765
58315W        W31383   0.914   2.308   1.420
58316W        W31384  34.595   3.913  12.633
58317W        W31385  40.062  20.178  14.965
58318W        W31386  24.581   9.613   0.228
58319W        W31387   8.442  32.369   1.722
58320W        W31388  40.255  24.853   4.376
58321W        W31389  17.533  18.141  13.999
58322W        W31390  33.189  34.623   3.676
58323W        W31391  20.217  34.464  12.851
58324W        W31392  22.018  35.453   0.549
58325W        W31393  32.039   9.795   3.871
58326W        W31394  16.000  16.424   4.092
58327W        W31395  13.154  23.147  11.412
58328W        W31396  41.056   0.088  14.853
58329W        W31397  15.482  43.750  12.867
58330W        W31398  10.481  30.903  12.884
58331W        W31399  31.678   2.450   1.309
58332W        W31400  33.355  15.488   0.366
58333W        W31401  17.551  42.808  12.587
58334W        W31402  31.733  20.083   4.271
58335W        W31403  33.358   1.304  12.361
58336W        W31404   3.917  40.095   0.681
58337W        W31405  42.791  26.192  10.700
58338W        W31406  20.049  22.755   1.893
58339W        W31407  17.634  44.969   1.276
58340W        W31408  11.401  15.637   2.131
58341W        W31409  32.574  42.726   4.566
58342W        W31410  26.469  34.644   4.692
58343W        W31411  36.230  32.609  14.880
58344W        W31412  35.406   3.123   4.061
58345W        W31413  39.003  31.795   1.880
58346W        W31414  21.111   9.177   2.652
58347W        W31415   4.872   4.211   3.276
58348W        W31416  34.224   3.510  11.044
58349W        W31417  36.779  32.908  14.898
58350W        W31418  36.385  35.393  13.030
58351W        W31419  36.241  22.945   2.792
58352W        W31420  44.758  15.794   1.706
58353W        W31421   1.327   5.280  13.681
58354W        W31422  32.404  33.147   0.935
58355W        W31423  18.053  24.462   2.282
58356W        W31424  14.188  16.118   2.425
58357W        W31425  12.684   3.625  11.830
58358W        W31426   9.509   8.894   4.989
58359W        W31427  21.076  30.212   1.584
58360W        W31428  38.313  29.433   3.330
58361W        W31429  41.286  42.906   0.946
58362W        W31430  30.729  32.682   3.674
58363W        W31431  15.107  39.549  14.307
58364W        W31432  36.756  12.355  14.553
58365W        W31433   3.206  22.161  11.761
58366W        W31434  27.921  37.256  12.891
58367W        W31435  33.184  11.898  12.851
58368W        W31436  24.187   0.319  14.811
58369W        W31437  11.743  42.439   1.273
58370W        W31438   0.911   9.208  13.513
58371W        W31439  36.657  15.633   1.267
58372W        W31440  39.851  44.948   0.218
58373W        W31441  37.948   7.304  11.117
58374W        W31442  24.570  11.829   0.827
58375W        W31443  32.204  31.086   0.698
58376W        W31444  25.913  27.753  12.981
58377W        W31445  14.569  36.844  11.178
58378W        W31446  17.206   5.186   4.839
58379W        W31447  33.385  26.726  11.700
58380W        W31448  11.766  28.459   3.812
58381W        W31449  33.390  27.987   2.659
58382W        W31450  36.927  34.921   0.212
58383W        W31451  15.827  38.559   4.532
58384W        W31452  29.082  34.673   3.632
58385W        W31453   6.434   2.136   0.338
58386W        W31454  20.541  11.892   4.568
58387W        W31455  36.537  21.531  12.781
58388W        W31456   7.188   3.894  12.092
58389W        W31457  37.115  21.318  13.943
58390W        W31458  28.175  19.043  14.970
58391W        W31459  40.522  10.544   2.790
58392W        W31460  18.675   9.447   4.652
58393W        W31461  40.302   4.799   2.465
58394W        W31462  13.260  24.965   4.944
58395W        W31463  17.299  35.572   0.325
58396W        W31464  19.732   6.147   2.753
58397W        W31465  11.214  44.979  13.574
58398W        W31466  11.611   7.096   0.391
58399W        W31467   4.757  24.188  11.660
58400W        W31468   9.398  28.413   0.784
58401W        W31469  19.253  18.601  12.178
58402W        W31470  21.587  21.493   0.553
58403W        W31471   9.944  10.099  11.493
58404W        W31472  38.084  34.484   4.636
58405W        W31473  38.071   4.307   3.674
58406W        W31474  24.994  15.211   3.073
58407W        W31475  14.684  14.449  12.607
58408W        W31476  32.758  41.812  13.069
58409W        W31477  28.548  22.067  13.764
58410W        W31478  32.556  38.340  14.971
58411W        W31479  13.750   2.876   4.651
58412W        W31480  33.980  33.053   4.185
58413W        W31481  20.198  34.885   4.287
58414W        W31482  32.488  27.617  11.299
58415W        W31483  30.237  27.199  13.439
58416W        W31484  10.806  31.850   3.172
58417W        W31485   5.929  16.811   0.207
58418W        W31486  14.625   6.755   2.791
58419W        W31487   6.733   9.744   1.881
58420W        W31488   6.750  10.491  10.410
58421W        W31489   4.407  16.659  12.013
58422W        W31490  38.383  29.816   4.099
58423W        W31491  41.717  17.882  13.436
58424W        W31492  14.830  43.123   5.215
58425W        W31493  34.557  23.589   0.693
58426W        W31494   9.665  12.829   3.082
58427W        W31495  41.607  36.961  14.927
58428W        W31496  31.609  41.937  11.562
58429W        W31497  13.322  19.298  10.729
58430W        W31498  17.276  24.056   3.620
58431W        W31499  20.501  31.689   2.793
58432W        W31500   2.924  37.438  14.352
58433W        W31501   0.303  24.522  11.472
58434W        W31502  19.377  44.371  10.614
58435W        W31503  21.747  14.532   2.913
58436W        W31504  32.064  13.804   0.770
58437W        W31505  39.887  21.630   1.160
58438W        W31506  11.316  26.069  12.925
58439W        W31507  33.659   2.844  14.734
58440W        W31508  25.260   8.167  10.848
58441W        W31509  41.274  33.882   2.253
58442W        W31510   5.073  20.119   3.590
58443W        W31511  32.288  31.963  12.860
58444W        W31512  15.501   7.909   3.535
58445W        W31513  29.851   9.899   2.561
58446W        W31514   3.399   2.507  13.562
58447W        W31515  24.793  26.965  13.034
58448W        W31516  27.469  12.951   0.362
58449W        W31517   4.633  22.199   1.787
58450W        W31518  18.773  32.573  12.875
58451W        W31519  16.772  31.035  14.997
58452W        W31520  32.263  10.131   0.199
58453W        W31521   3.947  15.329  10.819
58454W        W31522  29.504  33.974  12.422
58455W        W31523  33.591  11.178   3.137
58456W        W31524  12.060   6.857   0.378
58457W        W31525  14.704  44.945  11.018
58458W        W31526   4.668   1.526   1.001
58459W        W31527  30.981  42.633   0.782
58460W        W31528  28.680  37.565  11.617
58461W        W31529  39.547  27.147   0.090
58462W        W31530  25.216  32.832   0.700
58463W        W31531  16.751   4.023   3.128
58464W        W31532  25.241  18.885   0.309
58465W        W31533  17.223  11.886   2.203
58466W        W31534  36.074   6.239   0.500
58467W        W31535  40.999  21.211   0.048
58468W        W31536  12.392   2.760  11.809
58469W        W31537  14.588  29.316  13.327
58470W        W31538  13.245  39.857   3.109
58471W        W31539   6.182  44.807  12.470
58472W        W31540  10.076  11.812  11.524
58473W        W31541  22.148  18.076   2.308
58474W        W31542   5.695   4.367   1.415
58475W        W31543  44.433  42.225   1.657
58476W        W31544  27.636  16.335  14.808
58477W        W31545   6.114   4.537  11.941
58478W        W31546  34.995  31.518   4.534
58479W        W31547  19.976  26.612   3.676
58480W        W31548   9.925   4.475   0.377
58481W        W31549  37.088   4.656  12.593
58482W        W31550   5.962  38.384   4.228
58483W        W31551  14.344  13.736   3.748
58484W        W31552  19.796  18.859   2.822
58485W        W31553  32.338  20.567  13.281
58486W        W31554  44.404  27.590  11.420
58487W        W31555  15.762  24.660   0.698
58488W        W31556  35.616   3.457  12.084
58489W        W31557   4.476  22.727   0.652
58490W        W31558  32.313   9.607   0.200
58491W        W31559  18.630  38.976  10.615
58492W        W31560  39.791  24.489  14.449
58493W        W31561  27.942   6.174  13.043
58494W        W31562  14.656  18.256  13.437
58495W        W31563  15.313  44.909  14.886
58496W        W31564  14.565   6.997   3.711
58497W        W31565  13.115  37.651  12.980
58498W        W31566  26.998  10.906  13.517
58499W        W31567  28.943  23.483  11.849
58500W        W31568   1.759  40.115   1.800
58501W        W31569  44.475   2.350  13.796
58502W        W31570  25.605  13.162   0.056
58503W        W31571  41.797  13.021  10.760
58504W        W31572  26.008  14.667   4.538
58505W        W31573   0.338  34.519  13.718
58506W        W31574  30.044   2.804   2.155
58507W        W31575  39.906  24.495   3.696
58508W        W31576  38.912   1.395  10.706
58509W        W31577  13.321   7.154  13.376
58510W        W31578   0.948  16.105   4.904
58511W        W31579  23.813  38.091  13.469
58512W        W31580  14.607   5.487   3.128
58513W        W31581  25.627  31.870   1.234
58514W        W31582  10.873  33.623   3.724
58515W        W31583  13.596  13.795   3.295
58516W        W31584  13.339  22.553   0.603
58517W        W31585   3.740  38.323   2.643
58518W        W31586   3.284  21.743  10.376
58519W        W31587  26.173   7.417  13.336
58520W        W31588  31.526  43.785   4.594
58521W        W31589   7.899  11.684   1.414
58522W        W31590  42.562  14.651  12.027
58523W        W31591  41.885  24.265  14.200
58524W        W31592   8.399  36.226   1.321
58525W        W31593  28.989  35.350  14.832
58526W        W31594  38.571  14.254   2.651
58527W        W31595  20.511  39.989  11.116
58528W        W31596  27.643  15.584   1.262
58529W        W31597  21.733  34.279   3.608
58530W        W31598   3.018  26.617   3.240
58531W        W31599  23.154  30.210  13.825
58532W        W31600  42.407  35.351  11.588
58533W        W31601  31.305  41.965   0.647
58534W        W31602  27.696  12.633   1.307
58535W        W31603  16.270  34.549   2.593
58536W        W31604  40.704  26.362   2.217
58537W        W31605  36.879  39.524  14.884
58538W        W31606  41.501  29.001   2.956
58539W        W31607   2.712  26.650  10.668
58540W        W31608   3.323  18.036   2.882
58541W        W31609   5.445  25.354   4.975
58542W        W31610  36.758  17.228   0.231
58543W        W31611   7.523  19.548   0.235
58544W        W31612  22.799  39.840   1.475
58545W        W31613  28.767  43.681   1.358
58546W        W31614  11.767  10.686   1.934
58547W        W31615  31.256  10.694   3.981
58548W        W31616  28.160  19.783   0.816
58549W        W31617  19.668  32.248  12.976
58550W        W31618  31.779  33.145  12.058
58551W        W31619  26.796  39.651   2.687
58552W        W31620  38.753  25.552   3.687
58553W        W31621  24.152  11.977   1.939
58554W        W31622  30.157  11.835  13.307
58555W        W31623  23.991  17.423  12.537
58556W        W31624  42.755  43.713   4.116
58557W        W31625  21.291  43.312  14.768
58558W        W31626  41.035  26.255   0.663
58559W        W31627   1.755  20.563   1.216
58560W        W31628   6.286  25.359  10.387
58561W        W31629  26.479   5.438  10.709
58562W        W31630  34.446  35.868   4.790
58563W        W31631  25.740  19.125  14.444
58564W        W31632  31.192  32.521  12.012
58565W        W31633  43.873   0.327  10.401
58566W        W31634  36.014  38.343   1.843
58567W        W31635  17.430  14.389   3.723
58568W        W31636  14.309   1.598  11.955
58569W        W31637  40.749  23.191   1.505
58570W        W31638  30.474  17.109   0.698
58571W        W31639  30.165   4.383   2.790
58572W        W31640  19.155  21.062  11.517
58573W        W31641  13.725  10.660   3.249
58574W        W31642  24.704  37.553  13.394
58575W        W31643  14.764  40.551  12.115
58576W        W31644   3.004   3.897   1.811
58577W        W31645  37.027  29.546   0.627
58578W        W31646  17.245  18.834  14.274
58579W        W31647  27.058  24.059  11.614
58580W        W31648   5.894  13.102  12.130
58581W        W31649  19.137  27.516   3.717
58582W        W31650   5.399  32.581   4.257
58583W        W31651  37.104  28.485   3.119
58584W        W31652  27.593  15.640  10.319
58585W        W31653  29.640  18.802   4.139
58586W        W31654   6.673  29.123   3.692
58587W        W31655  26.464  36.016   3.135
58588W        W31656   5.621  20.590  10.807
58589W        W31657   6.252  28.491  13.955
58590W        W31658   5.706  37.434  12.011
58591W        W31659   1.844  15.141   1.382
58592W        W31660  11.985  22.447   0.819
58593W        W31661  37.517  35.673  14.250
58594W        W31662  23.635  38.316  13.956
58595W        W31663  41.509  26.804   2.815
58596W        W31664   4.156  40.466   0.975
58597W        W31665  42.102  39.565  11.189
58598W        W31666  44.345  13.796   4.143
58599W        W31667  19.205  35.871   2.317
58600W        W31668  36.879  37.452  11.174
58601W        W31669  32.161  18.453   0.116
58602W        W31670  21.596  36.560   3.357
58603W        W31671  30.851  39.566   0.395
58604W        W31672   3.367  35.519   2.264
58605W        W31673  16.196  23.199  14.482
58606W        W31674  39.813  20.558  14.261
58607W        W31675  43.430  16.747  14.818
58608W        W31676  35.567  24.975  13.347
58609W        W31677   8.117   3.811  12.376
58610W        W31678  38.415  18.042   1.954
58611W        W31679   9.962  35.227   1.294
58612W        W31680  20.594  33.540  11.590
58613W        W31681  28.988   1.892   3.090
58614W        W31682  41.505  36.282   1.362
58615W        W31683  29.605  32.870   3.758
58616W        W31684  12.115  31.519   0.829
58617W        W31685  41.692  21.001   4.655
58618W        W31686  42.778  12.348  14.374
58619W        W31687  43.046  42.140  14.747
58620W        W31688   6.433   2.253   3.704
58621W        W31689  17.529   2.886   4.562
58622W        W31690   5.929   0.402   1.245
58623W        W31691  19.465  27.075   0.997
58624W        W31692  17.736  43.298  11.213
58625W        W31693  27.983  25.789  14.605
58626W        W31694  12.070   8.142   2.260
58627W        W31695  28.667  17.861   4.104
58628W        W31696  25.966  14.665   2.108
58629W        W31697  14.410  44.519  11.713
58630W        W31698   9.321  22.105  10.614
58631W        W31699   8.997  27.830   3.349
58632W        W31700  43.290  37.496   1.003
58633W        W31701  38.263  44.819  11.573
58634W        W31702  40.515  38.286  13.505
58635W        W31703  21.618  33.496   4.803
58636W        W31704   1.526  26.407   3.726
58637W        W31705   0.729   3.095  10.846
58638W        W31706  13.093   4.475   2.781
58639W        W31707  13.887  39.516  13.280
58640W        W31708   6.307   9.561   2.083
58641W        W31709  13.397  16.182  13.334
58642W        W31710   3.538  36.588   2.928
58643W        W31711  25.692  42.704  14.351
58644W        W31712  28.973  43.572   0.245
58645W        W31713  27.163  33.936  14.872
58646W        W31714   2.415  20.684  11.755
58647W        W31715   4.529  32.455   3.313
58648W        W31716   3.595  16.487   2.845
58649W        W31717  39.386  16.778  11.963
58650W        W31718   9.932  43.959  10.850
58651W        W31719  34.217  26.640   3.832
58652W        W31720  24.058  36.470  11.984
58653W        W31721  40.330   6.519   4.297
58654W        W31722   9.397  44.137   2.909
58655W        W31723   9.470  43.484  13.831
58656W        W31724   3.249  20.521   0.280
58657W        W31725  22.124  14.440   0.293
58658W        W31726  20.582   5.582   2.854
58659W        W31727  19.140   0.335   1.505
58660W        W31728  17.024  41.973  13.063
58661W        W31729  37.352  20.657  14.455
58662W        W31730  36.339  17.416  12.506
58663W        W31731  32.064  34.054  10.912
58664W        W31732  37.268  16.624   0.731
58665W        W31733   0.260  10.831   2.764
58666W        W31734  13.241  12.937   4.133
58667W        W31735  34.531  13.102  10.782
58668W        W31736   3.404  31.398   4.647
58669W        W31737  19.012   8.779  12.485
58670W        W31738  24.959  31.003   2.151
58671W        W31739  10.423  14.843   1.310
58672W        W31740  20.780   0.281   2.905
58673W        W31741   6.366  26.040  13.878
58674W        W31742  42.984  39.214  13.819
58675W        W31743  21.802  34.854  13.660
58676W        W31744  18.438   5.360   0.319
58677W        W31745  29.838  10.009   1.969
58678W        W31746  25.279  23.955   1.844
58679W        W31747  34.766  12.217   2.287
58680W        W31748  22.053  38.261   4.607
58681W        W31749   0.389  28.167  12.919
58682W        W31750  43.981   6.972  14.248
58683W        W31751  28.652  27.917   3.718
58684W        W31752  28.499  26.664  14.365
58685W        W31753  24.621  14.258   3.991
58686W        W31754  21.059  29.494   4.668
58687W        W31755  41.090   8.941  13.961
58688W        W31756   4.759   8.203   9.919
58689W        W31757  43.941  17.548   3.286
58690W        W31758  29.467   2.038   2.884
58691W        W31759  14.495  42.449  10.914
58692W        W31760  43.522   0.351  11.616
58693W        W31761  40.947  23.771  12.904
58694W        W31762  30.956  38.337   0.344
58695W        W31763  18.063   7.185   4.566
58696W        W31764  42.366  26.078   4.391
58697W        W31765   6.318  27.574  12.501
58698W        W31766  15.655  12.106   2.094
58699W        W31767  26.527  28.410  14.624
58700W        W31768  26.130  17.793  14.289
58701W        W31769   2.144  17.125  12.174
58702W        W31770   7.679  31.388   0.351
58703W        W31771  38.547  25.069  13.022
58704W        W31772  32.664  38.029  12.314
58705W        W31773  39.899  13.363  11.078
58706W        W31774  26.940  31.794   0.905
58707W        W31775  21.034  29.284  10.767
58708W        W31776  11.636   2.917   3.151
58709W        W31777   4.708   2.974   1.074
58710W        W31778  39.628  22.972  10.633
58711W        W31779  13.751  33.757  14.700
58712W        W31780  15.689  31.990   4.708
58713W        W31781  16.747  24.704  13.485
58714W        W31782  21.039  34.141   0.117
58715W        W31783  24.132  11.804   1.435
58716W        W31784  12.207   2.715  14.510
58717W        W31785  37.547  32.887   3.557
58718W        W31786  37.981  12.061  12.970
58719W        W31787  21.606  15.048  10.950
58720W        W31788  37.981  41.945   1.638
58721W        W31789  42.433  39.309  14.252
58722W        W31790   7.743  13.745  13.950
58723W        W31791  38.787  15.335  12.442
58724W        W31792  28.522   2.850   1.252
58725W        W31793  15.589  36.874   0.768
58726W        W31794  22.595  43.327  14.336
58727W        W31795   6.939  14.180   2.432
58728W        W31796  34.695  42.979  14.888
58729W        W31797  31.361  18.108   3.637
58730W        W31798  35.023  17.113  13.138
58731W        W31799  21.613  13.261  14.561
58732W        W31800   8.366  28.519  11.962
58733W        W31801  13.788  33.888  13.099
58734W        W31802  44.927   2.437  13.527
58735W        W31803   6.235   3.451  11.617
58736W        W31804  16.627  40.359   3.734
58737W        W31805  18.200  37.285   0.814
58738W        W31806  44.766  14.925  10.744
58739W        W31807  44.008   0.567  14.904
58740W        W31808  38.510  20.665  12.685
58741W        W31809  17.817  28.713  13.236
58742W        W31810  12.684   8.841  13.035
58743W        W31811  25.421  22.418  12.438
58744W        W31812  14.586   2.908   4.152
58745W        W31813  44.723  35.155   0.890
58746W        W31814   1.251  19.762   3.285
58747W        W31815  15.297  32.985  10.668
58748W        W31816  17.173  44.062   4.327
58749W        W31817  33.688   5.295  10.806
58750W        W31818   8.942  10.691   1.448
58751W        W31819  31.700  27.114  11.001
58752W        W31820  13.618  33.158  11.272
58753W        W31821  29.760   3.472   3.716
58754W        W31822   3.669  20.065  13.219
58755W        W31823  16.118  40.939   0.954
58756W        W31824  41.348  27.634  14.462
58757W        W31825  41.539  42.675   3.261
58758W        W31826  18.432   0.754   3.162
58759W        W31827  31.436  44.309  11.566
58760W        W31828  24.713   5.821   2.174
58761W        W31829  12.925  12.879  14.053
58762W        W31830  31.259  15.105   2.263
58763W        W31831  12.239  20.072  11.466
58764W        W31832  11.146  29.527   2.695
58765W        W31833  18.864  25.555   3.466
58766W        W31834   9.583  24.740  11.649
58767W        W31835  35.996  23.287   0.303
58768W        W31836  28.559  30.265   0.864
58769W        W31837  19.225   6.757   1.383
58770W        W31838   8.406  34.535   4.597
58771W        W31839   7.044  20.641  12.966
58772W        W31840  25.180  33.397   3.273
58773W        W31841  34.928  32.918   4.124
58774W        W31842  15.659  34.554  14.354
58775W        W31843   4.218  33.924   2.403
58776W        W31844  39.518  10.447   1.868
58777W        W31845  24.549   4.311  14.872
58778W        W31846  35.087  37.799   4.553
58779W        W31847   9.778   8.749  14.808
58780W        W31848  39.335  38.251  14.560
58781W        W31849  42.956   4.982  12.802
58782W        W31850  31.034  33.459   1.007
58783W        W31851  27.719   4.750   4.255
58784W        W31852  37.248  36.305   3.679
58785W        W31853  11.226  35.630  11.477
58786W        W31854  30.068  13.532   0.252
58787W        W31855  31.035  24.445   2.625
58788W        W31856  10.308  38.480   4.686
58789W        W31857  37.920  30.415   4.859
58790W        W31858  36.157  13.154   4.621
58791W        W31859  40.067  27.737  13.569
58792W        W31860  28.586  36.046  12.558
58793W        W31861  33.798  19.319  14.954
58794W        W31862  40.959  41.707   4.146
58795W        W31863   2.885  21.145  13.333
58796W        W31864  35.614   1.150  11.692
58797W        W31865  40.464  21.745   3.661
58798W        W31866  14.487  38.536  13.867
58799W        W31867  23.778   5.148   1.905
58800W        W31868  30.433  38.637   4.093
58801W        W31869  39.609  37.886  14.826
58802W        W31870  20.257   6.992   3.165
58803W        W31871  22.753  12.731   0.486
58804W        W31872  25.422  16.348  11.058
58805W        W31873   7.724  26.117   4.579
58806W        W31874  25.133  18.808  12.855
58807W        W31875  35.255  11.658  12.040
58808W        W31876  18.844   6.312  13.015
58809W        W31877  26.678  26.467   1.585
58810W        W31878  28.053  32.143  13.801
58811W        W31879  14.122  44.513   0.882
58812W        W31880  19.287  25.305  13.462
58813W        W31881  23.695  21.454  11.608
58814W        W31882  22.480  24.026   2.295
58815W        W31883  20.718   7.717  10.744
58816W        W31884  20.694  27.673   3.966
58817W        W31885  41.109   6.118   1.883
58818W        W31886  18.027  35.501   2.179
58819W        W31887  31.196  10.223   2.294
58820W        W31888  24.709   5.642  13.186
58821W        W31889  24.942  26.411  14.422
58822W        W31890   3.865  10.680  11.569
58823W        W31891  29.760  28.563   4.042
58824W        W31892  42.712   9.352  11.545
58825W        W31893  27.698  39.422  10.663
58826W        W31894  15.042  39.998   0.854
58827W        W31895  33.596   6.756  14.489
58828W        W31896  40.961  11.783   4.901
58829W        W31897  24.649  19.672  11.553
58830W        W31898  41.583  23.493  14.373
58831W        W31899   4.140  13.995   2.141
58832W        W31900  27.625  43.511   1.916
58833W        W31901   3.855  42.318   2.463
58834W        W31902  32.878  21.881  11.994
58835W        W31903   0.328  22.969  14.701
58836W        W31904  42.400  10.328   1.734
58837W        W31905  17.275  16.638   0.742
58838W        W31906  28.110   4.758  10.637
58839W        W31907  33.577  24.284  11.563
58840W        W31908  35.408  34.361   0.351
58841W        W31909  33.432   0.669   0.924
58842W        W31910  37.975  11.194   0.264
58843W        W31911  37.471   3.470   2.676
58844W        W31912  13.813  29.511  10.798
58845W        W31913   5.777  37.029  13.381
58846W        W31914  29.061  37.596  14.963
58847W        W31915  17.510  19.411   3.674
58848W        W31916  32.196  29.824  13.516
58849W        W31917  15.464  13.430   5.112
58850W        W31918  27.777  39.000   2.193
58851W        W31919   3.712  37.801  10.935
58852W        W31920  23.994  19.228  12.631
58853W        W31921  41.283  43.774   4.923
58854W        W31922  15.182  39.257   1.249
58855W        W31923  43.016  28.451   4.088
58856W        W31924  10.400  43.330   0.990
58857W        W31925  20.818  14.849  13.383
58858W        W31926  39.407   8.286   3.004
58859W        W31927  36.575  30.884   1.399
58860W        W31928  16.894  37.026  13.025
58861W        W31929  30.514  35.579   0.527
58862W        W31930  34.569  29.454   4.123
58863W        W31931  23.542  40.904   3.703
58864W        W31932   0.302  33.830   1.778
58865W        W31933   2.476  11.634  14.770
58866W        W31934  11.267   5.905   1.744
58867W        W31935  10.994   8.288  14.667
58868W        W31936  24.069  21.281   1.150
58869W        W31937   6.045   1.660  12.096
58870W        W31938  43.758   4.713   0.763
58871W        W31939  24.706  44.563   1.802
58872W        W31940  36.388  42.198   1.906
58873W        W31941   0.046  30.664  12.045
58874W        W31942  36.061  20.876   0.437
58875W        W31943  41.351   6.664   4.772
58876W        W31944   6.671  13.771   3.184
58877W        W31945   0.493   1.169   4.465
58878W        W31946  13.141   5.046   4.466
58879W        W31947   3.780   0.953   3.753
58880W        W31948  30.691  37.315   0.787
58881W        W31949   0.980  12.752  10.867
58882W        W31950   2.030  41.483   1.193
58883W        W31951   6.409  29.410   4.738
58884W        W31952  10.733  32.977   2.368
58885W        W31953  34.032  34.855  14.870
58886W        W31954  32.408  41.874   1.825
58887W        W31955  13.846   9.204   3.767
58888W        W31956  26.019  27.646   4.659
58889W        W31957  19.630   3.981   1.720
58890W        W31958   6.559  21.810  13.841
58891W        W31959   5.662   9.321   2.776
58892W        W31960   4.035  28.542  11.493
58893W        W31961  14.063  15.518  10.199
58894W        W31962  36.493   0.445  11.430
58895W        W31963   9.652  40.776  11.996
58896W        W31964   5.794  27.207   2.362
58897W        W31965   8.684  28.006   4.978
58898W        W31966  33.686  12.910   5.005
58899W        W31967  17.166   7.899  14.826
58900W        W31968  43.481   0.418   4.047
58901W        W31969  27.497  30.488  13.435
58902W        W31970  19.100  32.442  11.880
58903W        W31971  39.393   5.324  14.471
58904W        W31972  33.537  19.744   3.296
58905W        W31973  15.797  35.484  14.798
58906W        W31974  42.439  19.548   1.010
58907W        W31975  15.914  34.609  12.042
58908W        W31976  29.977   7.329   2.756
58909W        W31977  38.894  29.638   4.817
58910W        W31978  21.900  17.836  13.420
58911W        W31979  44.707  31.920   1.044
58912W        W31980  29.709  38.872  11.140
58913W        W31981  29.940   2.532   3.341
58914W        W31982  17.728   8.383   4.203
58915W        W31983   0.982  43.863  13.591
58916W        W31984  10.622  21.704   4.040
58917W        W31985  19.774  35.760   4.023
58918W        W31986  30.569  44.233   1.290
58919W        W31987   0.084  30.582   0.772
58920W        W31988   9.703  12.742  10.615
58921W        W31989  44.570  11.968   3.771
58922W        W31990   7.861  37.067   2.306
58923W        W31991   3.372   9.854  14.877
58924W        W31992  22.505  17.336  14.105
58925W        W31993  40.505  14.189   3.660
58926W        W31994   9.501   7.691  11.434
58927W        W31995  20.689  13.407   0.474
58928W        W31996  34.836   7.733   3.556
58929W        W31997  41.780  39.825   2.660
58930W        W31998  33.378  43.278  12.176
58931W        W31999   8.396  18.510   3.164
58932W        W32000   2.044  20.743  13.268
58933W        W32001  41.409  33.901  11.196
58934W        W32002  25.793  33.048  13.457
58935W        W32003  28.780   1.036  13.329
58936W        W32004   7.233  10.943  12.912
58937W        W32005  37.563  41.917  12.050
58938W        W32006  21.978   6.452   0.895
58939W        W32007  38.118  24.652   0.012
58940W        W32008  14.210  10.574   4.546
58941W        W32009  33.902  11.858   0.915
58942W        W32010  40.616  13.722   9.553
58943W        W32011  29.989  11.800   1.181
58944W        W32012  34.782   5.743  11.951
58945W        W32013  33.125  43.395   3.802
58946W        W32014  35.867  16.700  13.437
58947W        W32015  32.916  23.592   4.771
58948W        W32016  30.023  30.856  11.621
58949W        W32017  26.660  14.710   3.749
58950W        W32018  14.276  35.448   4.484
58951W        W32019   7.289  31.105   3.644
58952W        W32020   4.281  25.843   0.391
58953W        W32021  24.980  33.014  13.972
58954W        W32022  41.957  34.282  11.061
58955W        W32023   6.950  39.747  14.361
58956W        W32024  36.977   1.059   3.124
58957W        W32025  27.201  14.222   2.385
58958W        W32026  34.887  12.639   2.931
58959W        W32027  26.602  11.012   3.266
58960W        W32028   0.242   6.225   4.901
58961W        W32029   4.704  39.035  14.346
58962W        W32030  17.327  18.977  10.986
58963W        W32031   2.558   9.163   4.672
58964W        W32032   1.240  21.547   2.631
58965W        W32033  21.285  21.698  11.887
58966W        W32034  15.203  38.070   1.952
58967W        W32035  25.078   6.222  10.674
58968W        W32036  32.674   0.491  11.913
58969W        W32037  39.432  44.696  13.433
58970W        W32038  43.389  35.363  13.326
58971W        W32039  36.824  42.997   3.279
58972W        W32040  10.300  13.892   0.944
58973W        W32041  30.131  10.059  12.542
58974W        W32042  34.580  44.475  10.681
58975W        W32043  25.001  25.138  10.575
58976W        W32044  22.301  34.843  11.536
58977W        W32045  35.414  21.005  11.535
58978W        W32046  20.526  37.688  14.379
58979W        W32047  11.513   1.754  12.066
58980W        W32048   4.306   1.553  13.519
58981W        W32049  33.145  25.506   1.806
58982W        W32050  32.092  33.094  13.447
58983W        W32051  41.481   0.464  14.134
58984W        W32052  40.077   9.764  11.973
58985W        W32053  11.525  41.366   2.231
58986W        W32054   1.913  31.490   0.032
58987W        W32055   1.582  41.400   4.930
58988W        W32056  37.980  21.620  11.697
58989W        W32057  18.198  40.344  11.632
58990W        W32058  34.123  23.631   3.803
58991W        W32059  20.158  10.227   1.883
58992W        W32060  42.913  20.587   1.302
58993W        W32061  22.026  39.986   1.733
58994W        W32062   2.960  25.396   2.384
58995W        W32063  13.996  26.155  14.807
58996W        W32064  24.431  41.348  13.561
58997W        W32065  42.253  26.345   3.989
58998W        W32066  14.251  17.234  11.544
58999W        W32067   5.935   0.129  14.024
59000W        W32068  29.511  23.256  14.250
59001W        W32069  29.920  25.711  10.599
59002W        W32070  34.114   1.571  14.450
59003W        W32071  34.520  42.813  11.727
59004W        W32072  33.336  40.813   1.424
59005W        W32073  24.207  43.744   1.864
59006W        W32074  29.841  33.886   4.584
59007W        W32075   4.635   5.940   0.845
59008W        W32076  22.776  37.152   4.969
59009W        W32077  17.698  36.163  14.027
59010W        W32078  27.240   3.110   5.065
59011W        W32079  42.985   1.053   1.303
59012W        W32080  28.892   4.231  12.947
59013W        W32081   5.829  19.050  13.242
59014W        W32082  30.983   0.935  13.435
59015W        W32083  16.595   6.707   0.348
59016W        W32084   0.698  24.740  12.477
59017W        W32085  26.906  42.070   0.334
59018W        W32086   7.323  16.210   4.127
59019W        W32087   4.404  20.227   2.123
59020W        W32088  29.757  12.592   4.264
59021W        W32089  31.870   6.832   0.313
59022W        W32090   2.145  28.598  14.008
59023W        W32091  43.084  10.839   0.736
59024W        W32092  43.016  28.935  14.806
59025W        W32093  33.901  18.353   0.390
59026W        W32094   9.186  12.927  10.765
59027W        W32095  41.762   0.767   0.794
59028W        W32096  27.174  32.451   1.482
59029W        W32097  40.168   5.781  14.434
59030W        W32098  38.880  27.910  14.327
59031W        W32099  22.063   3.034  13.985
59032W        W32100  17.887   5.350   3.806
59033W        W32101  29.622  19.658  11.763
59034W        W32102  13.079  17.870  10.731
59035W        W32103   9.356  20.623   2.893
59036W        W32104  17.783  37.025   1.745
59037W        W32105  22.685  19.290   3.702
59038W        W32106  24.042  25.293  14.795
59039W        W32107  17.034   9.482  14.290
59040W        W32108  43.012  26.955  14.793
59041W        W32109  41.924  22.193   1.571
59042W        W32110  23.789  40.160  12.161
59043W        W32111  30.852  43.009   0.479
59044W        W32112   1.784  40.890   2.838
59045W        W32113  17.129   2.712   0.436
59046W        W32114   9.296   7.643   5.065
59047W        W32115  22.096  28.967   2.384
59048W        W32116  21.142   4.707  13.566
59049W        W32117   6.292  29.071  14.369
59050W        W32118   4.555  20.928   5.027
59051W        W32119  26.006  41.759   3.762
59052W        W32120  15.925   4.880   3.126
59053W        W32121  23.185  27.935  12.643
59054W        W32122  31.915  18.692  10.692
59055W        W32123   4.899  18.594   3.106
59056W        W32124   5.841  28.730   0.339
59057W        W32125  22.296  40.580  13.746
59058W        W32126  18.196  41.948  13.809
59059W        W32127  30.491  38.540   0.443
59060W        W32128   4.937   5.660  11.507
59061W        W32129  38.461   6.092   2.259
59062W        W32130  21.992  43.855   3.592
59063W        W32131   8.905  10.903  14.472
59064W        W32132  11.097   4.219  12.018
59065W        W32133  36.067   9.841  11.981
59066W        W32134  36.266  40.454  14.916
59067W        W32135   0.511   8.717   2.295
59068W        W32136   6.197  21.794   2.650
59069W        W32137  11.700   2.602   2.749
59070W        W32138  24.547   9.587  14.080
59071W        W32139  33.130  11.308   0.828
59072W        W32140  16.886  19.984  13.984
59073W        W32141  31.708  34.011   3.081
59074W        W32142  33.341  22.068  12.101
59075W        W32143  25.656  22.721  12.934
59076W        W32144  22.656  12.054   3.254
59077W        W32145  11.419  11.195  12.558
59078W        W32146   9.392   6.676   0.741
59079W        W32147   0.284  31.333   1.481
59080W        W32148  14.705  36.071   2.909
59081W        W32149  26.534   8.202  11.033
59082W        W32150  41.878  41.750   4.171
59083W        W32151  23.178  33.546   4.047
59084W        W32152  40.539  22.987   2.128
59085W        W32153  26.992  11.452  14.701
59086W        W32154  21.894  23.229   2.594
59087W        W32155   2.804   2.727  13.593
59088W        W32156  17.733  10.270   2.721
59089W        W32157  31.088  42.275   2.285
59090W        W32158   2.666  38.288  11.776
59091W        W32159  34.172  44.942  11.018
59092W        W32160  43.484  11.486  10.706
59093W        W32161  13.166  22.262  11.462
59094W        W32162  14.844  32.629   0.014
59095W        W32163   4.197  29.488  14.205
59096W        W32164   7.706  22.690   2.277
59097W        W32165  10.685  12.649   2.529
59098W        W32166  44.683   8.720   1.942
59099W        W32167  14.278  15.290   3.396
59100W        W32168  33.481  16.328   2.783
59101W        W32169  31.943  16.337  12.366
59102W        W32170   5.312  31.568  11.082
59103W        W32171  10.176  23.477   2.841
59104W        W32172  41.511   7.222   4.277
59105W        W32173  19.799  22.292   1.842
59106W        W32174   0.229  35.574  11.270
59107W        W32175   0.486  12.122  13.722
59108W        W32176  38.865  10.127   3.176
59109W        W32177  14.232  16.556  14.742
59110W        W32178   6.236  33.382   4.972
59111W        W32179  16.132  18.665  14.363
59112W        W32180  37.522  19.872   2.738
59113W        W32181  13.260  23.176   4.367
59114W        W32182   8.903  21.941   4.399
59115W        W32183   4.866  13.488   4.099
59116W        W32184  32.028  27.170  14.580
59117W        W32185   9.903  40.959  12.397
59118W        W32186   8.426  14.633  13.975
59119W        W32187   6.341  14.163   4.207
59120W        W32188   4.173   1.199  12.636
59121W        W32189  32.571  37.867   4.341
59122W        W32190  18.596  26.896   4.734
59123W        W32191  42.683   7.027   3.447
59124W        W32192  22.713  33.771  11.924
59125W        W32193  11.277  31.325  13.306
59126W        W32194   2.243  35.761   3.654
59127W        W32195  37.369   6.692  10.731
59128W        W32196  25.085   2.375  11.560
59129W        W32197  13.879  32.944   4.113
59130W        W32198  16.718  12.369  11.959
59131W        W32199  30.004  38.061  12.850
59132W        W32200  20.645  29.982  14.178
59133W        W32201  20.129  37.167   1.315
59134W        W32202  33.824   1.301  12.166
59135W        W32203  18.686  44.966   3.694
59136W        W32204   1.778  22.339  13.943
59137W        W32205  13.862  32.691  11.571
59138W        W32206  26.523  15.380   3.187
59139W        W32207  11.352  33.942   3.828
59140W        W32208  44.774  38.412   3.783
59141W        W32209  37.297  20.371   4.059
59142W        W32210  24.724   2.155  14.925
59143W        W32211  38.746  10.856  10.426
59144W        W32212  10.225  24.239  10.991
59145W        W32213   0.916  39.787  14.508
59146W        W32214  41.126  25.139   2.775
59147W        W32215  26.717  14.796  12.436
59148W        W32216  29.666  40.280   2.151
59149W        W32217   2.399  21.403   1.845
59150W        W32218  38.699  11.505   3.052
59151W        W32219  34.325  30.500  12.879
59152W        W32220  40.166  21.593   2.187
59153W        W32221  10.845  43.355   1.224
59154W        W32222   5.206  12.410   3.243
59155W        W32223  33.918   2.249  11.688
59156W        W32224  41.467  36.349  13.028
59157W        W32225  11.759  22.398  11.928
59158W        W32226  42.093  43.672   1.635
59159W        W32227  39.803  44.477  12.919
59160W        W32228  43.058  37.294   1.831
59161W        W32229  38.696  30.882   4.021
59162W        W32230  39.975  20.996  14.485
59163W        W32231  25.297  12.124  10.701
59164W        W32232  38.617  12.931  14.419
59165W        W32233  31.207  13.705  10.479
59166W        W32234  15.139  43.786   1.986
59167W        W32235  26.991  43.299   4.751
59168W        W32236  28.241   2.956  14.422
59169W        W32237   1.588   7.399   2.763
59170W        W32238  13.889  17.072  14.439
59171W        W32239  40.322  25.035   2.363
59172W        W32240  12.773  44.051  14.792
59173W        W32241  18.289  44.402   2.053
59174W        W32242  44.044  15.210  10.810
59175W        W32243  21.428  39.468   4.725
59176W        W32244   6.979  15.628  14.671
59177W        W32245  14.805  39.932  12.868
59178W        W32246   3.283  14.278  12.984
59179W        W32247  15.108  30.894   3.051
59180W        W32248  43.973  24.788  14.624
59181W        W32249  22.906  15.615  14.514
59182W        W32250  37.068   8.493   4.283
59183W        W32251  14.824  10.191   1.451
59184W        W32252  13.499  22.738   1.458
59185W        W32253  37.579  44.907   0.920
59186W        W32254  17.328  41.303   4.993
59187W        W32255   6.633  42.869  12.944
59188W        W32256  42.533  32.472   3.323
59189W        W32257  12.930  32.099   1.500
59190W        W32258   3.648  31.469   1.373
59191W        W32259  33.870   8.310   0.195
59192W        W32260  38.820  16.227   1.446
59193W        W32261   5.966  39.506  14.619
59194W        W32262  13.820  20.458  13.952
59195W        W32263  22.019  12.238   1.863
59196W        W32264  24.162   8.221  13.810
59197W        W32265  37.528  42.812   4.007
59198W        W32266  34.456  15.171   3.481
59199W        W32267  26.269  34.364  11.167
59200W        W32268  27.648  29.660   1.368
59201W        W32269   8.635   3.796  12.350
59202W        W32270  10.963  11.585   4.061
59203W        W32271  28.285  30.934  14.486
59204W        W32272  12.226   4.217   4.550
59205W        W32273  42.532  13.826  13.939
59206W        W32274  14.783  31.441  10.487
59207W        W32275  36.148  27.938  11.139
59208W        W32276   0.013  34.438   1.676
59209W        W32277   1.999   8.601   5.143
59210W        W32278  35.092  43.130   3.369
59211W        W32279  13.787  44.276  13.140
59212W        W32280  23.927  11.403  11.124
59213W        W32281  38.217   0.238   2.950
59214W        W32282  37.950  41.979   1.133
59215W        W32283   8.700   2.983  10.642
59216W        W32284  42.319  14.218  11.885
59217W        W32285  11.284  30.461  14.368
59218W        W32286  21.510  42.957   3.857
59219W        W32287   9.764  15.210  14.457
59220W        W32288  39.423  33.264  14.932
59221W        W32289  21.137  21.552   4.433
59222W        W32290   3.050  14.232  10.678
59223W        W32291  18.646   7.650  13.371
59224W        W32292  10.883  39.800  13.860
59225W        W32293   5.858  35.918   2.691
59226W        W32294   9.166   9.611  11.216
59227W        W32295   7.018   1.021   3.374
59228W        W32296  25.095  13.653   4.478
59229W        W32297  24.674  44.419  14.783
59230W        W32298  34.253  31.465   2.298
59231W        W32299  27.172  14.703   0.424
59232W        W32300  16.003  27.743  11.476
59233W        W32301  26.470  39.867   0.281
59234W        W32302   8.344  23.462  14.098
59235W        W32303  40.198   4.749   4.231
59236W        W32304  15.694   6.898   1.246
59237W        W32305  16.092  25.129  10.805
59238W        W32306  42.489  15.154   4.573
59239W        W32307  12.670   9.355  12.947
59240W        W32308   8.101  44.348  12.529
59241W        W32309  23.692  11.325  11.572
59242W        W32310  17.424  39.092   1.339
59243W        W32311  37.454  25.260   1.724
59244W        W32312   8.397  33.044   4.667
59245W        W32313  20.068   5.565  12.487
59246W        W32314  31.890  12.611   2.448
59247W        W32315  30.254  21.277  12.472
59248W        W32316  43.853  40.400  13.932
59249W        W32317   1.367  10.347   4.196
59250W        W32318  10.088   8.511  13.499
59251W        W32319   7.923  31.088   1.686
59252W        W32320  22.523   1.902   3.256
59253W        W32321  14.073  30.231  14.940
59254W        W32322   4.762  40.757  13.268
59255W        W32323  16.177  31.133  14.213
59256W        W32324   0.828  19.027  13.534
59257W        W32325  30.522   6.037   5.040
59258W        W32326  40.319  24.537  14.509
59259W        W32327  20.455  16.321   4.524
59260W        W32328  42.749  20.632   4.172
59261W        W32329  41.816   7.917   3.770
59262W        W32330  25.100  21.408   0.106
59263W        W32331  40.072  18.099   1.826
59264W        W32332  44.397  28.568   3.266
59265W        W32333  24.246  35.015  14.058
59266W        W32334  11.092  31.203  13.784
59267W        W32335  30.135   4.968  13.849
59268W        W32336  34.394  12.216   3.727
59269W        W32337  43.501   4.844   1.893
59270W        W32338  35.580   1.916  12.117
59271W        W32339  22.524  32.929   2.252
59272W        W32340   2.313   6.956   1.773
59273W        W32341  17.589   5.791  14.499
59274W        W32342  15.873   1.869   2.037
59275W        W32343  19.064  13.325  13.398
59276W        W32344   6.896  20.961   4.091
59277W        W32345  21.948  11.881  11.526
59278W        W32346   3.388  34.142   4.431
59279W        W32347  41.682  27.215   2.558
59280W        W32348  28.210  30.574   5.099
59281W        W32349  25.672   8.931   4.511
59282W        W32350  13.245  27.997   2.207
59283W        W32351  22.715  31.095   3.884
59284W        W32352  44.887   5.975   0.386
59285W        W32353  31.556   2.246   0.832
59286W        W32354  37.641  21.637   3.151
59287W        W32355   7.265  30.622   3.875
59288W        W32356  30.833  27.962  11.592
59289W        W32357   8.422  43.663   1.898
59290W        W32358  38.455   0.994  13.872
59291W        W32359  34.006  32.605  14.086
59292W        W32360   2.986   5.373   3.239
59293W        W32361  22.768  15.268   4.652
59294W        W32362  38.828  28.542  13.062
59295W        W32363  14.260   4.254   0.281
59296W        W32364  35.471  36.439   2.782
59297W        W32365  34.364   7.729   3.788
59298W        W32366  21.606   7.431  11.559
59299W        W32367  19.974  13.064  11.795
59300W        W32368  22.058   0.866  14.965
59301W        W32369  33.131  41.805   0.784
59302W        W32370   5.218   0.974   4.614
59303W        W32371  13.716  44.844   0.855
59304W        W32372  16.556  23.551  10.827
59305W        W32373  39.818  39.827  13.377
59306W        W32374  23.886  20.068  10.729
59307W        W32375  44.232  26.901  11.954
59308W        W32376  43.789  37.296  14.919
59309W        W32377  44.325  40.759   2.840
59310W        W32378  25.124  41.779   2.241
59311W        W32379   9.758  12.193  10.638
59312W        W32380   7.763   7.437  12.958
59313W        W32381  12.825  16.068  12.607
59314W        W32382  21.592  23.125  11.298
59315W        W32383  33.175  32.934  14.352
59316W        W32384  29.587  25.086  12.694
59317W        W32385  17.783  43.513  13.668
59318W        W32386  22.484  27.699  12.212
59319W        W32387  39.507   5.359  13.202
59320W        W32388  39.576  29.999   3.316
59321W        W32389  31.988  30.741   4.668
59322W        W32390   0.740  21.088  12.577
59323W        W32391  22.393  10.717   4.917
59324W        W32392   4.877  29.736   1.854
59325W        W32393  31.698  36.387  11.483
59326W        W32394  20.110  15.300   2.140
59327W        W32395  34.393  38.714  14.288
59328W        W32396  34.913   4.747  14.224
59329W        W32397  42.578  10.835   1.828
59330W        W32398  28.110  23.152   0.727
59331W        W32399   8.763   0.372   3.404
59332W        W32400  11.610   0.921  13.120
59333W        W32401  30.500  16.753   4.807
59334W        W32402  18.243   0.909  13.517
59335W        W32403  13.139  16.039  13.821
59336W        W32404  12.082  12.014  12.492
59337W        W32405  34.476   0.884   0.496
59338W        W32406  21.169   9.105  13.678
59339W        W32407  30.615  40.802   1.639
59340W        W32408  12.602  43.398   4.574
59341W        W32409   8.433  28.033  11.830
59342W        W32410   0.277  26.572  10.372
59343W        W32411   0.516  34.934   3.262
59344W        W32412   3.172  10.093   2.240
59345W        W32413  32.455   9.733   3.189
59346W        W32414  43.869   6.915  11.327
59347W        W32415  17.046  40.892  13.279
59348W        W32416  10.249  43.559   2.869
59349W        W32417  19.049  31.043   1.779
59350W        W32418   8.420  43.266  12.514
59351W        W32419   8.759  18.626   4.166
59352W        W32420   6.192  27.496   2.176
59353W        W32421  12.135  40.957  14.484
59354W        W32422   8.176  18.211   4.633
59355W        W32423  13.708   7.616   0.367
59356W        W32424   2.884   8.283   2.971
59357W        W32425  28.623   7.124  14.881
59358W        W32426  33.421  24.276  13.438
59359W        W32427  34.416   4.780   2.135
59360W        W32428  35.681   5.951  12.095
59361W        W32429  26.397  42.862  11.327
59362W        W32430  40.783  23.625  14.890
59363W        W32431  20.905  32.993   4.695
59364W        W32432  18.579   6.812  14.415
59365W        W32433   9.085  11.781  14.092
59366W        W32434   2.308   4.776   1.496
59367W        W32435  42.496  23.098   1.750
59368W        W32436   5.407  11.107  11.102
59369W        W32437  21.588  23.408  10.466
59370W        W32438  17.323   9.404  14.934
59371W        W32439   3.504   7.347  13.978
59372W        W32440   4.294   3.447  14.525
59373W        W32441  39.991  27.635  14.082
59374W        W32442  21.785   9.898  10.746
59375W        W32443  13.753  36.789  10.738
59376W        W32444  31.918  12.812  13.623
59377W        W32445  43.930  37.815  13.996
59378W        W32446  17.290  41.362   1.249
59379W        W32447   6.819  10.096  11.234
59380W        W32448   4.479  11.607  12.086
59381W        W32449  30.005  14.834  12.024
59382W        W32450  35.157   2.291  14.194
59383W        W32451  21.655  19.122  14.368
59384W        W32452  25.923  22.676   4.428
59385W        W32453  36.394  19.702  12.890
59386W        W32454   5.878  25.662   0.349
59387W        W32455  10.679  33.885   4.182
59388W        W32456  44.411  10.814   1.453
59389W        W32457  20.126  14.596   3.773
59390W        W32458   3.674   8.148   4.627
59391W        W32459  17.619  41.981   3.355
59392W        W32460  15.210  14.739   1.007
59393W        W32461  28.594   4.926   2.680
59394W        W32462  44.336  40.072   1.661
59395W        W32463  22.841  24.712  10.605
59396W        W32464  20.158  36.196  12.475
59397W        W32465  40.810  16.248  11.857
59398W        W32466  20.751  38.529   2.715
59399W        W32467  18.154   1.752   2.315
59400W        W32468  26.592  15.201   1.034
59401W        W32469  23.180  36.627   1.045
59402W        W32470  15.662  18.519   1.372
59403W        W32471  38.866  34.283   5.036
59404W        W32472  40.682   4.774   1.373
59405W        W32473  14.698  24.522  12.948
59406W        W32474   6.729   2.154   4.110
59407W        W32475  29.960  28.993  10.931
59408W        W32476  30.808  33.846  11.243
59409W        W32477  18.402  30.577   3.756
59410W        W32478  25.152   0.688  14.887
59411W        W32479   2.189  44.176  11.496
59412W        W32480   0.866  21.367  13.033
59413W        W32481  34.178  26.678  12.004
59414W        W32482  34.302  20.540   2.284
59415W        W32483  17.388  13.699  14.552
59416W        W32484  16.134  32.529  13.479
59417W        W32485  10.232  43.436  12.147
59418W        W32486  10.100  42.850   4.652
59419W        W32487  43.545  36.631  13.746
59420W        W32488  18.163  12.093  13.602
59421W        W32489  20.718  10.748  14.919
59422W        W32490  31.001   8.340   4.307
59423W        W32491   7.475  29.095   0.243
59424W        W32492  38.681  27.390  13.405
59425W        W32493  11.664  19.602  12.370
59426W        W32494  23.057   7.386   0.019
59427W        W32495  44.065   2.924  10.255
59428W        W32496  40.561  20.813   1.667
59429W        W32497  18.217  34.989   1.392
59430W        W32498  39.999  16.643  14.158
59431W        W32499  31.409  22.833  11.856
59432W        W32500  16.662  35.045   1.019
59433W        W32501  26.917  28.939   0.316
59434W        W32502  20.408  22.746   1.136
59435W        W32503  28.778   6.666   4.690
59436W        W32504  25.753  38.515   2.303
59437W        W32505  11.886   0.471   4.823
59438W        W32506   8.536   1.027   0.964
59439W        W32507   1.262   9.338  10.669
59440W        W32508  41.360  34.482   4.883
59441W        W32509  11.279   9.578  11.109
59442W        W32510   4.780  19.496  10.703
59443W        W32511  30.868  38.034   3.550
59444W        W32512  44.869  16.147   1.321
59445W        W32513  42.210  42.859   5.090
59446W        W32514  28.205  12.798  13.045
59447W        W32515  38.074   1.173   9.701
59448W        W32516   0.505  41.089  12.534
59449W        W32517   2.860  19.104  11.498
59450W        W32518  15.637  39.251  11.637
59451W        W32519  17.982  14.294  12.892
59452W        W32520   2.505  15.757  14.936
59453W        W32521  39.834  34.959  12.566
59454W        W32522  41.776  43.289   1.822
59455W        W32523  33.187  32.657  11.179
59456W        W32524  40.527  24.337  12.081
59457W        W32525   6.201   4.725  10.283
59458W        W32526  24.216  32.505  10.853
59459W        W32527  32.903  36.584   4.147
59460W        W32528  41.474  31.082   1.336
59461W        W32529  14.665  40.121  13.321
59462W        W32530   1.119  39.813  10.771
59463W        W32531  43.500  37.035  14.531
59464W        W32532  19.226  29.429  12.587
59465W        W32533  18.772  40.089   3.160
59466W        W32534   4.732  20.018  10.678
59467W        W32535  29.923   4.774  12.479
59468W        W32536  35.407  39.531   4.645
59469W        W32537  35.561  13.731   2.599
59470W        W32538  16.354   1.301   1.331
59471W        W32539  34.668  10.619  12.356
59472W        W32540  24.741  17.318  13.001
59473W        W32541   5.660  43.502   1.792
59474W        W32542   2.780  26.846  13.007
59475W        W32543  20.309  42.193   3.566
59476W        W32544  25.342  22.620   5.170
59477W        W32545  13.474  16.555   2.309
59478W        W32546  26.333  10.555   3.272
59479W        W32547   2.668  43.441  11.170
59480W        W32548   1.287  14.866  12.970
59481W        W32549   6.889  23.433   1.753
59482W        W32550  33.716   7.786   0.164
59483W        W32551  37.354  44.728   0.457
59484W        W32552  19.538  34.706   2.892
59485W        W32553  26.230   6.222   1.938
59486W        W32554   8.440  29.017  12.016
59487W        W32555  31.183  11.147  11.158
59488W        W32556  18.545  38.880  13.432
59489W        W32557  44.795  43.284   3.200
59490W        W32558  20.215  24.979  11.196
59491W        W32559  20.984  25.792   3.222
59492W        W32560  19.333  11.193  11.977
59493W        W32561  34.148  16.633  13.303
59494W        W32562  23.122  26.624   0.801
59495W        W32563  29.176   2.451   4.687
59496W        W32564  11.275   6.231   1.229
59497W        W32565   7.283  36.259   0.666
59498W        W32566  28.415  13.616   1.819
59499W        W32567  30.480  14.819  10.687
59500W        W32568  23.178  30.870  14.722
59501W        W32569   1.324  42.529  13.184
59502W        W32570  38.781  31.350   2.716
59503W        W32571   3.268  43.932   3.942
59504W        W32572  29.856  12.458  14.062
59505W        W32573  30.611   0.687   3.208
59506W        W32574  10.340   7.467   0.520
59507W        W32575   9.722  18.650  12.880
59508W        W32576  41.440  28.002   2.027
59509W        W32577  42.349  22.384   1.021
59510W        W32578   1.881  17.065   4.233
59511W        W32579  43.154  21.041   1.380
59512W        W32580  41.863   5.720   0.170
59513W        W32581  41.621   9.246  12.481
59514W        W32582   1.265  20.701   2.984
59515W        W32583  18.734  39.228   2.836
59516W        W32584  14.767  24.953   3.585
59517W        W32585  35.959   3.169  14.938
59518W        W32586  30.942  11.786  12.408
59519W        W32587  40.221  43.249  14.385
59520W        W32588   2.512  30.173   0.958
59521W        W32589  31.476  34.926  13.431
59522W        W32590  11.960  42.691  10.948
59523W        W32591   1.813  11.447  12.569
59524W        W32592   7.812  44.708   4.274
59525W        W32593  14.244  36.823   4.773
59526W        W32594  11.249  42.505  12.321
59527W        W32595  38.983  35.326  12.953
59528W        W32596  12.269   2.250  12.549
59529W        W32597  23.129  20.266   4.028
59530W        W32598  37.426  38.954  11.986
59531W        W32599   2.616  12.354   2.861
59532W        W32600   3.002   4.061  13.489
59533W        W32601  12.614  21.377  13.949
59534W        W32602  12.368  32.200   2.729
59535W        W32603   9.230  39.294   5.256
59536W        W32604  21.799  26.078  14.070
59537W        W32605  19.736  22.959   3.708
59538W        W32606   5.752  41.808  11.278
59539W        W32607  43.025  19.171   2.830
59540W        W32608   6.465  40.976  13.973
59541W        W32609  27.674  15.710   0.414
59542W        W32610  19.554  15.523  10.726
59543W        W32611  10.889   5.252  11.238
59544W        W32612  17.022  27.681  14.034
59545W        W32613   7.639  22.544  13.995
59546W        W32614  13.114  38.183  12.948
59547W        W32615  18.977  15.698  12.890
59548W        W32616  40.679  17.365  11.134
59549W        W32617  33.811   8.864   3.547
59550W        W32618  20.045  13.329   0.922
59551W        W32619  21.458  14.221  13.538
59552W        W32620   8.234   6.703   2.723
59553W        W32621  24.189  17.064   0.983
59554W        W32622  15.592  32.619   0.758
59555W        W32623   4.852  12.611   1.405
59556W        W32624  26.984  35.971   2.244
59557W        W32625   4.279  25.494   2.650
59558W        W32626  36.473  35.782   4.520
59559W        W32627  39.443  37.789  14.326
59560W        W32628  39.545  20.632   4.152
59561W        W32629  18.226   0.036  12.045
59562W        W32630  34.751  19.490   1.090
59563W        W32631  16.826  10.136   2.806
59564W        W32632  44.616   5.843  12.786
59565W        W32633  42.547  20.780  13.846
59566W        W32634  22.369  24.640  11.480
59567W        W32635   0.410  22.164   3.709
59568W        W32636  35.930   6.466  11.133
59569W        W32637  39.970   0.324  12.964
59570W        W32638  16.795  35.646  13.945
59571W        W32639  38.824  28.192  13.459
59572W        W32640  24.637  36.279   3.495
59573W        W32641   9.807   4.452   3.086
59574W        W32642   6.185  44.460   3.381
59575W        W32643  27.533   0.667   3.684
59576W        W32644  38.571  17.249   2.433
59577W        W32645  16.085  17.840  11.681
59578W        W32646   9.928  32.027   0.240
59579W        W32647   9.521  34.380  12.254
59580W        W32648  39.310  22.752  10.269
59581W        W32649  24.981   5.730  11.435
59582W        W32650   5.513   9.702   0.833
59583W        W32651  15.619  40.148   0.050
59584W        W32652   9.222  16.304   4.253
59585W        W32653  32.633   8.464   2.921
59586W        W32654  20.944  38.465  10.203
59587W        W32655  24.208  27.463   2.892
59588W        W32656  19.572  28.915  13.094
59589W        W32657  26.406   0.353  14.315
59590W        W32658   7.497  32.846  11.588
59591W        W32659  31.233  25.198   4.623
59592W        W32660  31.651  38.025   0.438
59593W        W32661   9.230   2.214  11.306
59594W        W32662  20.454  32.536   2.937
59595W        W32663  27.568  26.735   1.421
59596W        W32664   5.937   4.558   0.450
59597W        W32665   7.073  39.972  14.929
59598W        W32666  11.780  28.061   1.207
59599W        W32667   6.766  39.570   1.339
59600W        W32668  14.508  38.284   2.241
59601W        W32669   9.890  21.649   4.796
59602W        W32670   6.507  25.966   0.067
59603W        W32671  35.433   7.983  10.634
59604W        W32672   9.233  25.959   0.384
59605W        W32673  20.559  13.873   0.268
59606W        W32674   5.494  27.695   3.081
59607W        W32675  20.689   6.858   3.402
59608W        W32676  28.349  30.403   2.113
59609W        W32677  16.621  34.471   2.975
59610W        W32678  11.775  28.935  13.327
59611W        W32679  15.343  19.316   2.247
59612W        W32680   1.373   7.676  12.887
59613W        W32681  11.211  10.743   0.741
59614W        W32682  24.480  18.822  12.032
59615W        W32683   9.116  23.428  14.687
59616W        W32684  13.355  24.181   3.338
59617W        W32685   4.543   8.694  12.068
59618W        W32686  25.170   3.987  13.611
59619W        W32687  36.872  24.575  14.491
59620W        W32688   6.828  23.422  10.734
59621W        W32689   6.659  26.457  12.469
59622W        W32690   3.359  31.488   3.659
59623W        W32691  39.960  38.295  13.858
59624W        W32692  31.470   6.286  14.478
59625W        W32693   2.489  40.349  11.634
59626W        W32694  12.947  10.182  11.082
59627W        W32695  29.235   8.344   1.488
59628W        W32696  35.475  36.936  14.505
59629W        W32697  25.466  11.357   4.453
59630W        W32698  41.432  18.706   5.080
59631W        W32699   4.479  39.492  14.408
59632W        W32700  43.826  29.468  13.003
59633W        W32701  20.457  31.172   2.771
59634W        W32702  19.305  11.342   4.221
59635W        W32703  28.256  38.971   1.241
59636W        W32704   1.688  38.596  13.270
59637W        W32705  33.554  15.911  13.006
59638W        W32706   9.773  42.910  13.246
59639W        W32707   5.805  25.694  11.104
59640W        W32708   3.970  14.584   3.732
59641W        W32709  19.007  14.767  14.938
59642W        W32710  44.407   5.192  14.867
59643W        W32711  37.251   4.479  10.924
59644W        W32712   3.450  40.061   2.236
59645W        W32713  22.775  11.782  10.613
59646W        W32714   8.643   7.551  14.410
59647W        W32715   4.374   8.614   2.836
59648W        W32716   5.820   6.695  11.495
59649W        W32717  33.814  35.887   1.609
59650W        W32718   0.332  17.477   4.087
59651W        W32719  40.352  14.023   4.375
59652W        W32720  44.082  17.675  11.634
59653W        W32721   2.455  37.357  10.616
59654W        W32722  37.650  21.501  12.097
59655W        W32723  22.741   5.715  12.040
59656W        W32724   7.287  42.609  12.275
59657W        W32725  41.919  14.976   4.074
59658W        W32726  32.453  37.574  14.330
59659W        W32727  15.037   0.375   2.692
59660W        W32728  15.277  41.236   3.136
59661W        W32729  28.691  13.819   2.766
59662W        W32730  44.260  28.016  10.357
59663W        W32731  16.604  38.510   4.112
59664W        W32732  39.219  23.126  12.460
59665W        W32733  30.109   2.380  10.732
59666W        W32734  32.935  11.584   1.788
59667W        W32735   7.401  24.678  14.438
59668W        W32736   6.252  32.542   3.799
59669W        W32737  32.950  14.982   1.355
59670W        W32738  25.061  22.950  12.793
59671W        W32739   7.288  13.856  12.321
59672W        W32740  15.308  44.200   0.240
59673W        W32741  26.131  24.562  12.562
59674W        W32742  27.171  27.864   0.078
59675W        W32743  38.935  25.126   1.886
59676W        W32744  40.693  10.322  11.640
59677W        W32745  36.377  28.649   2.183
59678W        W32746  21.941  24.628   1.440
59679W        W32747  36.158  15.723  10.128
59680W        W32748  33.325  15.266  10.568
59681W        W32749  28.031  17.998  14.863
59682W        W32750  12.683  23.565   4.607
59683W        W32751  37.431   0.017   2.673
59684W        W32752  32.669  38.131  11.314
59685W        W32753   7.552  12.564   3.786
59686W        W32754  23.078   9.526   3.071
59687W        W32755  29.713  33.384   0.969
59688W        W32756   5.106  30.893   1.363
59689W        W32757  13.032  19.729   3.687
59690W        W32758  33.880  25.956   3.987
59691W        W32759  35.397  34.570  11.033
59692W        W32760  18.542  19.569  11.705
59693W        W32761   9.912  30.219  14.189
59694W        W32762  40.855  20.659   3.731
59695W        W32763  26.212  42.355   3.289
59696W        W32764  25.023  41.290   0.337
59697W        W32765  13.348  35.748  14.181
59698W        W32766  35.315  10.817   1.619
59699W        W32767  30.458  44.265   0.771
59700W        W32768   0.544  20.257  14.448
59701W        W32769  10.250  40.277  12.215
59702W        W32770  12.673  12.157   4.113
59703W        W32771  42.288  36.304   1.309
59704W        W32772  11.762  10.076  13.562
59705W        W32773  12.110  22.006   3.674
59706W        W32774   4.615  38.398   3.641
59707W        W32775  40.536  20.231  14.061
59708W        W32776   4.459  44.007  13.086
59709W        W32777   7.477  39.463   9.971
59710W        W32778  40.401  24.506  10.634
59711W        W32779  32.543  35.489  14.297
59712W        W32780  43.605  14.183   3.038
59713W        W32781  29.422  36.424  13.842
59714W        W32782  21.244  20.220   4.623
59715W        W32783   2.512  42.942   3.960
59716W        W32784  12.530   9.190   2.822
59717W        W32785  40.771  17.666   0.815
59718W        W32786  44.863  18.776  14.381
59719W        W32787   8.527  34.588   0.276
59720W        W32788  10.057  32.504  13.850
59721W        W32789  36.934   0.935   0.918
59722W        W32790  21.141  14.489  13.052
59723W        W32791   5.032  27.613  10.085
59724W        W32792  24.072  29.528  13.893
59725W        W32793   8.072   4.829   0.438
59726W        W32794   0.491  32.281   0.943
59727W        W32795   0.929  23.976  10.309
59728W        W32796  17.081  43.635  11.463
59729W        W32797  10.273   3.087   4.294
59730W        W32798  11.415  41.807   4.136
59731W        W32799  42.927   5.842  11.923
59732W        W32800   7.505  16.116   3.671
59733W        W32801  43.306  37.538  13.442
59734W        W32802  32.467  19.443  10.363
59735W        W32803  35.828   0.247   0.568
59736W        W32804  31.388  31.358   1.178
59737W        W32805  14.802  36.318  14.892
59738W        W32806  23.098  38.810   3.365
59739W        W32807  22.162  15.850  13.018
59740W        W32808  28.425   9.158  12.667
59741W        W32809  39.814  16.996   0.460
59742W        W32810  42.020   7.451   3.752
59743W        W32811  21.161  21.591   0.256
59744W        W32812  28.470  14.213   5.177
59745W        W32813  44.664   3.880   1.420
59746W        W32814  19.879   2.754   2.695
59747W        W32815  38.873  11.064  13.135
59748W        W32816   4.281  19.449   5.006
59749W        W32817   5.918   1.946  14.845
59750W        W32818  17.978   5.923  12.338
59751W        W32819   5.344  24.964   4.607
59752W        W32820  35.586  43.094   5.093
59753W        W32821   5.176  36.057  10.914
59754W        W32822  18.427  43.103   5.068
59755W        W32823  16.388  21.111  13.038
59756W        W32824  11.717  31.446   1.953
59757W        W32825  40.051  21.000  14.996
59758W        W32826  38.086  27.176  14.721
59759W        W32827  14.357  17.261  13.491
59760W        W32828  31.900   7.469   3.227
59761W        W32829   5.196  24.199   3.259
59762W        W32830  17.885  19.530  11.098
59763W        W32831  41.471  11.241   4.086
59764W        W32832  20.320  41.537   1.010
59765W        W32833  11.415  34.382  13.046
59766W        W32834  27.452  32.898   2.837
59767W        W32835  39.034  36.153  13.489
59768W        W32836  24.234  14.102   1.273
59769W        W32837  14.766  17.114  10.569
59770W        W32838  33.674  40.871   3.320
59771W        W32839   0.019   8.195   3.212
59772W        W32840  36.202  26.176   0.427
59773W        W32841   7.476  28.750  14.077
59774W        W32842   8.330  43.952  13.124
59775W        W32843  39.948   8.169  14.391
59776W        W32844   6.347  16.841   2.247
59777W        W32845  11.765  26.253   0.191
59778W        W32846  15.188  37.439  13.001
59779W        W32847  32.700  40.028  12.036
59780W        W32848  21.788  43.820  12.002
59781W        W32849  21.973   3.882   3.682
59782W        W32850  23.945  41.339  13.753
59783W        W32851  13.055  32.473   2.327
59784W        W32852   6.288  38.594   0.691
59785W        W32853  15.061  32.065  13.841
59786W        W32854  24.016  22.401  11.530
59787W        W32855   2.614   9.638  11.924
59788W        W32856  30.759  31.936   1.311
59789W        W32857   1.708  30.648   0.910
59790W        W32858  41.865  12.341   3.580
59791W        W32859  10.380  38.298   4.195
59792W        W32860   0.213  10.247   2.759
59793W        W32861   3.274  15.017   0.454
59794W        W32862  14.867  41.176   5.056
59795W        W32863  16.647   2.239   3.700
59796W        W32864  42.224  44.964   0.901
59797W        W32865  14.663  11.903   1.676
59798W        W32866  10.270  37.874  14.528
59799W        W32867   0.411  16.073   0.295
59800W        W32868   4.719  11.071  10.486
59801W        W32869  18.822  39.392   1.335
59802W        W32870  16.114  22.742  13.828
59803W        W32871  36.123   1.352  14.860
59804W        W32872  14.113  43.360  14.162
59805W        W32873  16.505  31.922   0.251
59806W        W32874   8.662  17.300   2.763
59807W        W32875  28.594  20.613   0.244
59808W        W32876  33.053  31.527   2.699
59809W        W32877  13.674  33.799   3.703
59810W        W32878   4.697  19.775   1.826
59811W        W32879  26.429  31.481  15.000
59812W        W32880   5.406  42.255   1.324
59813W        W32881   8.388  35.407   0.162
59814W        W32882  28.649   3.208   2.948
59815W        W32883  15.188  43.259  11.519
59816W        W32884   3.360   3.830   0.480
59817W        W32885  29.429   5.269   2.196
59818W        W32886  14.245  34.071   2.800
59819W        W32887   3.600  15.575  13.660
59820W        W32888  36.881  30.247   1.893
59821W        W32889   0.331  44.682  13.822
59822W        W32890  10.082  29.650   2.179
59823W        W32891  34.357  19.067   2.386
59824W        W32892   9.881   1.967   0.266
59825W        W32893   3.980  24.211  14.766
59826W        W32894   9.401  11.491  10.370
59827W        W32895  22.045  11.426  12.456
59828W        W32896   8.808  10.430  13.771
59829W        W32897  19.709  35.027   4.568
59830W        W32898  42.394   2.770  11.708
59831W        W32899   6.871  18.727   3.403
59832W        W32900  32.610  33.281  11.650
59833W        W32901  12.048  22.252   3.226
59834W        W32902  36.921  39.889   4.194
59835W        W32903  29.969   4.527   3.275
59836W        W32904   0.298  21.594  13.874
59837W        W32905  35.476  38.768   1.828
59838W        W32906  18.250  26.452   0.880
59839W        W32907   9.490  30.572  13.020
59840W        W32908   8.631  31.959  13.767
59841W        W32909   5.186  23.508  11.191
59842W        W32910  20.184  35.410   4.146
59843W        W32911  32.745  19.236   4.936
59844W        W32912  40.240   1.548  11.507
59845W        W32913  15.692  28.894  12.911
59846W        W32914  14.725   6.256  12.346
59847W        W32915  35.034  16.768  10.678
59848W        W32916  34.422  14.433  11.933
59849W        W32917  26.256   8.379  10.615
59850W        W32918  24.387  14.285   1.793
59851W        W32919  27.551   0.518   4.549
59852W        W32920  29.524  44.354   4.572
59853W        W32921   3.718  40.386  12.215
59854W        W32922  29.176  17.032  13.299
59855W        W32923  14.366   2.857   4.663
59856W        W32924  33.341  40.840  14.584
59857W        W32925  41.287  14.320  12.510
59858W        W32926  39.678  22.007   0.487
59859W        W32927  37.833  10.090   2.412
59860W        W32928   3.265  44.469   4.699
59861W        W32929  21.737  36.615   2.180
59862W        W32930  31.068  23.150   0.836
59863W        W32931  36.643  34.598   2.861
59864W        W32932  37.642  19.856  11.154
59865W        W32933  19.459   5.941   4.608
59866W        W32934  17.874  38.518  12.815
59867W        W32935  23.937   9.402   1.780
59868W        W32936  33.902  37.458   4.330
59869W        W32937  11.964  13.656   4.836
59870W        W32938  40.023  37.507  14.545
59871W        W32939   9.650  34.943  14.765
59872W        W32940  19.119  27.461   3.192
59873W        W32941  13.594  39.546   1.908
59874W        W32942   2.293  44.536   2.195
59875W        W32943   0.966  19.494  11.138
59876W        W32944  13.671  28.642   0.271
59877W        W32945   0.747   0.698  10.703
59878W        W32946  27.401  14.220  11.207
59879W        W32947  26.695  34.833   0.361
59880W        W32948  34.302   8.314   1.286
59881W        W32949  13.147  23.912  10.777
59882W        W32950  18.018  25.526  13.944
59883W        W32951  25.132  21.146  11.324
59884W        W32952  18.753  35.925  10.690
59885W        W32953  25.199  29.952  10.713
59886W        W32954  17.340  15.796  11.115
59887W        W32955  30.964   0.895   3.997
59888W        W32956  36.556  42.354   3.257
59889W        W32957  24.058  41.560   4.517
59890W        W32958  21.642  42.416   3.883
59891W        W32959  18.169  34.919   1.893
59892W        W32960  34.037  11.715   0.177
59893W        W32961  24.565  25.556  13.784
59894W        W32962   9.893  36.659  12.035
59895W        W32963  29.558   8.974   2.379
59896W        W32964  37.938  10.297   0.152
59897W        W32965  36.333  44.399   4.684
59898W        W32966  31.897  36.581   0.008
59899W        W32967  23.082  10.312   1.129
59900W        W32968   2.209   1.160  10.694
59901W        W32969  26.157   9.292   3.771
59902W        W32970  11.274  21.500  12.939
59903W        W32971  23.025  19.138   2.187
59904W        W32972   4.778  41.491   0.207
59905W        W32973  40.372  17.005   2.110
59906W        W32974   4.853  32.517   0.503
59907W        W32975  42.962   6.143  11.532
59908W        W32976  38.815  42.740   0.308
59909W        W32977  26.604  24.198   2.265
59910W        W32978  34.838  33.183   4.588
59911W        W32979  39.234   4.414   0.085
59912W        W32980  26.640  20.957  13.517
59913W        W32981  27.138   6.979   4.136
59914W        W32982   5.268  16.107  14.778
59915W        W32983  20.324  40.863   3.804
59916W        W32984  34.876  15.201   3.760
59917W        W32985  40.862  14.433  12.083
59918W        W32986  28.943  26.676   1.177
59919W        W32987  36.570  44.014  14.989
59920W        W32988   8.752   8.155  13.481
59921W        W32989   2.409  21.011  10.946
59922W        W32990   8.683  22.324   9.970
59923W        W32991  32.348  13.255  11.594
59924W        W32992  43.821  32.058   4.495
59925W        W32993  25.020  29.605   3.710
59926W        W32994  22.163  20.162   4.992
59927W        W32995   2.579  25.583  13.757
59928W        W32996   6.400  40.980  12.048
59929W        W32997   8.210   0.278  11.448
59930W        W32998   9.313  34.114  14.656
59931W        W32999  20.297   7.398   1.785
59932W        W33000  17.185  20.275  10.785
59933W        W33001  44.884  28.500  10.573
59934W        W33002  31.607  21.277  12.943
59935W        W33003  20.674  34.407  12.446
59936W        W33004  27.199  29.090   3.624
59937W        W33005  33.985  43.712  11.557
59938W        W33006   2.309  33.326   1.410
59939W        W33007  25.504  12.363  11.130
59940W        W33008  11.736  21.487   0.392
59941W        W33009  38.486  23.114  13.803
59942W        W33010  20.402  16.103   3.661
59943W        W33011  20.250  27.479  14.256
59944W        W33012  38.698   7.589   0.912
59945W        W33013  15.641  42.820   4.763
59946W        W33014  44.435  12.120  14.117
59947W        W33015  36.462  35.210  10.415
59948W        W33016  43.145  44.890   0.728
59949W        W33017  23.923  29.780  11.113
59950W        W33018  17.197  36.292   0.837
59951W        W33019  21.058  22.495  14.784
59952W        W33020  13.630  10.739  13.549
59953W        W33021  41.876  27.659   3.371
59954W        W33022  14.807   8.223   3.012
59955W        W33023  16.188  31.542  12.654
59956W        W33024  34.052  29.932  10.713
59957W        W33025  12.038  14.630  13.856
59958W        W33026  30.463  13.330  13.013
59959W        W33027   9.281  18.178   0.882
59960W        W33028  27.920   0.312  14.741
59961W        W33029  39.447  28.324   3.756
59962W        W33030   2.447  33.489  13.938
59963W        W33031  14.414   4.856  14.005
59964W        W33032  40.248  29.326  11.055
59965W        W33033  43.317  36.521   2.766
59966W        W33034  30.960  15.637   3.775
59967W        W33035  40.722  33.197  14.872
59968W        W33036  31.367  22.670   3.262
59969W        W33037   4.498  12.815   0.736
59970W        W33038  10.393  15.667  12.059
59971W        W33039  20.969  18.079  13.973
59972W        W33040  32.524   6.836   1.018
59973W        W33041   8.612  31.465  10.218
59974W        W33042  22.738  11.374  10.289
59975W        W33043  42.918  40.017   0.860
59976W        W33044  16.574  30.400   0.892
59977W        W33045  20.027  37.838  14.503
59978W        W33046  27.267   2.352  11.877
59979W        W33047  24.018  25.124   0.339
59980W        W33048  14.826  24.313   2.258
59981W        W33049  35.079  26.982   5.265
59982W        W33050  21.330  32.444   4.222
59983W        W33051  20.317  43.307   1.353
59984W        W33052  17.688   6.022   1.288
59985W        W33053   8.750  21.458  13.051
59986W        W33054  23.985  41.066   4.453
59987W        W33055  40.054  22.040   0.879
59988W        W33056  11.296   7.326  11.624
59989W        W33057  27.729   8.871   0.896
59990W        W33058  38.929  22.474   4.112
59991W        W33059  10.729   7.865  12.556
59992W        W33060  11.106  34.947   2.255
59993W        W33061  18.435  10.049  14.378
59994W        W33062   6.859   4.790   0.732
59995W        W33063  24.654  37.453  12.852
59996W        W33064  16.155  28.576   4.111
59997W        W33065  41.136   4.375  11.598
59998W        W33066  33.354  11.397  14.006
59999W        W33067  24.611   3.520   0.440
60000W        W33068  22.282  43.266   2.760
60001W        W33069  12.414  14.784   0.177
60002W        W33070  40.323  27.030  12.172
60003W        W33071  20.155  40.389   3.132
60004W        W33072  40.586  35.876  12.863
60005W        W33073   7.238   5.817  12.001
60006W        W33074  14.358   0.948  14.852
60007W        W33075  14.291   4.794  12.148
60008W        W33076  18.762   4.740  13.861
60009W        W33077  21.104   4.147  11.960
60010W        W33078  13.120  43.428  14.932
60011W        W33079  19.225  42.064  13.936
60012W        W33080  10.287  35.833  10.577
60013W        W33081  29.922  28.703  12.583
60014W        W33082  42.373  13.449   1.413
60015W        W33083   4.756  33.939  10.116
60016W        W33084  18.935   5.398   0.445
60017W        W33085  41.281  36.084   3.120
60018W        W33086  21.490  17.591   0.831
60019W        W33087  21.832  43.045   2.862
60020W        W33088  34.969  32.069   2.765
60021W        W33089  33.570  16.073  12.377
60022W        W33090   0.002   4.848  10.311
60023W        W33091   0.823  44.015   2.706
60024W        W33092  14.801  37.833   3.446
60025W        W33093  40.538  10.520  10.343
60026W        W33094   2.497  41.461   4.698
60027W        W33095  28.128  27.581  12.197
60028W        W33096  39.308   7.234  12.619
60029W        W33097  39.903   6.624   0.145
60030W        W33098   2.519  25.200   3.175
60031W        W33099  44.868  25.422   0.762
60032W        W33100  38.839  33.595   0.822
60033W        W33101  42.913  30.526   3.784
60034W        W33102  10.074  44.215  12.765
60035W        W33103  43.967  19.495   0.946
60036W        W33104   6.531  27.523   2.822
60037W        W33105  31.819  44.922  12.836
60038W        W33106  14.285  22.975  10.620
60039W        W33107  15.588   6.973  10.691
60040W        W33108  37.121  17.663  11.602
60041W        W33109   0.066  26.044   4.444
60042W        W33110  15.532  14.705  14.826
60043W        W33111  34.742  37.931  11.406
60044W        W33112  17.219  27.443   2.726
60045W        W33113  30.931   3.672   2.612
60046W        W33114  44.049  37.122  14.509
60047W        W33115  36.986  29.348   3.320
60048W        W33116  34.879  41.863   1.436
60049W        W33117  21.485  10.790  10.944
60050W        W33118  26.890  22.269   4.245
60051W        W33119  28.386  29.457  14.788
60052W        W33120  22.957  13.568  14.470
60053W        W33121   5.270  19.383  12.383
60054W        W33122   4.757  12.574   2.252
60055W        W33123  21.176  25.468  12.027
60056W        W33124   1.183  39.351   4.768
60057W        W33125  21.022  14.057  10.406
60058W        W33126  21.316  16.652   0.336
60059W        W33127  11.514  12.602  14.549
60060W        W33128  19.238  42.559  11.535
60061W        W33129  13.098   7.958   0.581
60062W        W33130  11.726  22.771  12.879
60063W        W33131  34.927   4.884   0.628
60064W        W33132   4.008   5.496   3.058
60065W        W33133   1.021  20.292   0.369
60066W        W33134  32.359  31.104   4.657
60067W        W33135  34.096  39.578  13.024
60068W        W33136  30.051  42.873   3.893
60069W        W33137  10.446  39.846   1.147
60070W        W33138  25.605  33.916   1.623
60071W        W33139   5.712  10.247   0.204
60072W        W33140  44.866   8.919  11.799
60073W        W33141  17.482   5.860  12.247
60074W        W33142  38.864  41.238  13.933
60075W        W33143  14.832  19.428   5.265
60076W        W33144  22.001  22.414  14.809
60077W        W33145   0.750   9.084   4.175
60078W        W33146  36.869  29.939   4.007
60079W        W33147  15.889  32.706  12.081
60080W        W33148   1.039  21.098   2.742
60081W        W33149  44.368  16.785  12.022
60082W        W33150  33.124  18.159  11.913
60083W        W33151   6.267  14.741   3.377
60084W        W33152  11.268   0.920  13.512
60085W        W33153  34.472   5.715   4.920
60086W        W33154  12.172  41.786   4.576
60087W        W33155  24.141  44.600   4.110
60088W        W33156  10.380   1.189  11.623
60089W        W33157  22.708  20.856   0.173
60090W        W33158   4.796  32.019  10.493
60091W        W33159  32.518  31.949   4.433
60092W        W33160  20.117  14.868  13.935
60093W        W33161   1.840   4.300  11.428
60094W        W33162  37.187   7.731   0.345
60095W        W33163  43.042  33.135   4.204
60096W        W33164  41.714  28.936   1.968
60097W        W33165   3.932  37.606   3.968
60098W        W33166  43.937  38.378  10.723
60099W        W33167   7.158   7.977  13.513
60100W        W33168   2.727  38.257  12.288
60101W        W33169   7.191  38.235  11.935
60102W        W33170  30.283   7.646   0.792
60103W        W33171  19.545   8.157   1.933
60104W        W33172  44.356  43.791   1.704
60105W        W33173  37.915  35.444  14.927
60106W        W33174  30.540  42.407   2.203
60107W        W33175  31.338  30.068   1.926
60108W        W33176   6.936   9.621  11.432
60109W        W33177  44.952   2.723   2.465
60110W        W33178  25.631  30.476   2.187
60111W        W33179  13.062  34.262  12.149
60112W        W33180  16.686  29.837  12.103
60113W        W33181  20.341  16.712  10.505
60114W        W33182   9.168  21.343   0.814
60115W        W33183  33.479  11.597   4.645
60116W        W33184  12.199  22.638  12.615
60117W        W33185  29.233  15.200  11.415
60118W        W33186  39.579  17.219   1.804
60119W        W33187   5.692  17.695   1.275
60120W        W33188  36.892  31.252   0.341
60121W        W33189   6.311  31.037  14.284
60122W        W33190   2.784   7.285   0.795
60123W        W33191  41.762  17.082  13.850
60124W        W33192  20.982  27.616  12.107
60125W        W33193  15.257  37.417  12.094
60126W        W33194  34.480  33.872   2.365
60127W        W33195  14.932  19.497   3.530
60128W        W33196  19.178  11.874   2.458
60129W        W33197  22.110   1.273  10.667
60130W        W33198  42.836  17.269  13.025
60131W        W33199  11.822  34.706  12.279
60132W        W33200   0.370  31.428  14.009
60133W        W33201  27.702   8.625   3.843
60134W        W33202  27.545   4.992  12.417
60135W        W33203  36.119  18.207   3.168
60136W        W33204   7.247  11.837   2.767
60137W        W33205  29.161   9.805  12.144
60138W        W33206  32.697  16.545  13.771
60139W        W33207  41.118  17.285  12.446
60140W        W33208  30.010  10.908   1.095
60141W        W33209  14.318   0.989   0.817
60142W        W33210  18.263  39.375   1.630
60143W        W33211  15.677   6.149   1.828
60144W        W33212   1.946  39.878  12.960
60145W        W33213  12.939  14.543  12.409
60146W        W33214   9.450  19.126  10.557
60147W        W33215   7.653   2.748   0.366
60148W        W33216  11.933   0.217  12.031
60149W        W33217  43.217  43.450  12.465
60150W        W33218   0.869  30.187   1.298
60151W        W33219  15.046  26.032   2.913
60152W        W33220  43.336   5.229  11.422
60153W        W33221  13.986  34.512  12.422
60154W        W33222  31.453   8.365  14.785
60155W        W33223   7.440  19.674   2.834
60156W        W33224   3.848  32.372  10.594
60157W        W33225  38.129   9.127  12.417
60158W        W33226   7.396  17.344   2.372
60159W        W33227  35.190  33.135  11.122
60160W        W33228  41.757  23.789  11.127
60161W        W33229   9.308  16.161  12.288
60162W        W33230  18.947  27.208  11.137
60163W        W33231  24.009  15.072   3.164
60164W        W33232  28.723  10.320   1.733
60165W        W33233  23.525  24.801  12.993
60166W        W33234  14.076  12.337  10.441
60167W        W33235  40.044  10.993   3.259
60168W        W33236  23.565  25.082  14.841
60169W        W33237  11.133  42.416   3.557
60170W        W33238   3.285  33.174   4.628
60171W        W33239  19.153  32.523   1.471
60172W        W33240  27.472  19.605  12.033
60173W        W33241  42.038  16.522   2.724
60174W        W33242  21.751  32.786   3.663
60175W        W33243  23.938  11.962  14.915
60176W        W33244  20.063  34.391   4.124
60177W        W33245  19.712  37.107  11.289
60178W        W33246   0.831  10.435  14.028
60179W        W33247  28.676  32.601  11.306
60180W        W33248  18.467  18.749  14.919
60181W        W33249  30.548  17.063   3.157
60182W        W33250  29.729   1.246   0.600
60183W        W33251   3.871  34.434   3.230
60184W        W33252  39.940  44.312  11.381
60185W        W33253  38.103   7.917   3.802
60186W        W33254  31.973  24.533   2.039
60187W        W33255  41.927  13.128   3.165
60188W        W33256  44.523   7.817  14.358
60189W        W33257   0.025  44.803  12.008
60190W        W33258  19.649  29.962   0.412
60191W        W33259  13.184  13.182   0.801
60192W        W33260   4.816   0.509   4.268
60193W        W33261  38.767  10.883  14.042
60194W        W33262  25.995  11.953   0.019
60195W        W33263  19.516   3.916  10.689
60196W        W33264  23.460  16.843  12.913
60197W        W33265   1.060  16.549  11.485
60198W        W33266   1.853  34.675  14.400
60199W        W33267  29.162  33.623   1.812
60200W        W33268  10.009  30.368  10.326
60201W        W33269  37.749  39.846   4.515
60202W        W33270  24.995  34.312   4.561
60203W        W33271  39.575  15.622   0.550
60204W        W33272  36.345   8.729  10.579
60205W        W33273  40.992  44.429  11.906
60206W        W33274  38.894   9.210  13.127
60207W        W33275   1.509  36.958  12.582
60208W        W33276  39.093  38.044   0.863
60209W        W33277   9.374  19.334  12.658
60210W        W33278  13.293  25.940   1.770
60211W        W33279  18.694  30.433  11.576
60212W        W33280  34.018  40.809   2.305
60213W        W33281   3.341  14.288  12.449
60214W        W33282  41.032  19.505   0.562
60215W        W33283   9.807  35.896   2.391
60216W        W33284  26.158   7.402  10.676
60217W        W33285   7.703  33.964  10.415
60218W        W33286  44.733   7.204   3.266
60219W        W33287  17.571   7.288  10.777
60220W        W33288  15.863  20.965  14.835
60221W        W33289  23.564  17.716   3.171
60222W        W33290   0.328  22.078   1.254
60223W        W33291  37.032  19.005  14.091
60224W        W33292  19.994   0.039   3.708
60225W        W33293  43.750  19.749  13.327
60226W        W33294  43.778  42.410  10.558
60227W        W33295  21.614  42.761  11.010
60228W        W33296   9.449  36.974  13.811
60229W        W33297  20.684  11.119  12.039
60230W        W33298   9.581  40.125  14.044
60231W        W33299  34.722  29.140   1.694
60232W        W33300  24.579   8.111  13.005
60233W        W33301  44.501  38.459   4.240
60234W        W33302  31.651   9.463  12.563
60235W        W33303  43.259  24.232   4.645
60236W        W33304  13.731  14.336   0.372
60237W        W33305   4.930  18.924  10.633
60238W        W33306   6.765   0.572  11.229
60239W        W33307  17.843   8.185  12.615
60240W        W33308  25.881  42.303  12.997
60241W        W33309  33.754  19.710   2.786
60242W        W33310  42.770  27.956  14.933
60243W        W33311  19.737  15.039  12.881
60244W        W33312   6.819   7.947   0.817
60245W        W33313  23.662  23.500   3.603
60246W        W33314  17.689   1.441  10.419
60247W        W33315  21.944   8.909   3.089
60248W        W33316  40.392  33.561  10.328
60249W        W33317  24.168  10.177   1.388
60250W        W33318  22.491  28.061  10.846
60251W        W33319  12.831  40.111   2.280
60252W        W33320  20.093  14.385  13.072
60253W        W33321  16.309   2.948  11.722
60254W        W33322   8.959  10.152   4.150
60255W        W33323  33.026  38.273   0.314
60256W        W33324   3.236  40.489   1.805
60257W        W33325  18.109  34.434  12.978
60258W        W33326  36.961  19.551  12.163
60259W        W33327  43.971  16.471  11.978
60260W        W33328   0.350  19.204  13.539
60261W        W33329  43.373   3.794   0.993
60262W        W33330  33.659  32.138  11.501
60263W        W33331  10.168  29.866   3.664
60264W        W33332   8.122  10.119  10.899
60265W        W33333   0.253  36.444  14.783
60266W        W33334  28.086  19.223  13.978
60267W        W33335  16.594   8.688  12.925
60268W        W33336  21.006  41.725  10.678
60269W        W33337  19.556  22.446   0.668
60270W        W33338   0.765  17.537   0.738
60271W        W33339  10.111  28.513  14.386
60272W        W33340  13.133  28.569  14.363
60273W        W33341   8.540  10.044  12.036
60274W        W33342  14.279   7.599  13.447
60275W        W33343  24.171  11.419   3.666
60276W        W33344  11.290  36.644  11.279
60277W        W33345  25.614   8.292   4.557
60278W        W33346  31.618  19.032  14.325
60279W        W33347  11.544   1.455   2.265
60280W        W33348  29.587  21.055   1.605
60281W        W33349  21.543   2.141   0.225
60282W        W33350  16.705  11.896  11.159
60283W        W33351  40.017  38.770  14.558
60284W        W33352   2.881   5.108   0.289
60285W        W33353   6.826  21.003   1.501
60286W        W33354  26.084  44.521  13.824
60287W        W33355  28.423  40.367   3.426
60288W        W33356  29.664  23.936   3.210
60289W        W33357  42.221  28.044   0.814
60290W        W33358  17.050  11.233  13.934
60291W        W33359   8.373   8.654   1.734
60292W        W33360  18.608  38.486   2.440
60293W        W33361   4.402  13.582   4.311
60294W        W33362   9.727  19.182   1.098
60295W        W33363  35.053  41.726   0.972
60296W        W33364  20.894  13.731  14.443
60297W        W33365  34.799  25.231   4.317
60298W        W33366   6.465  42.807   0.920
60299W        W33367   6.691   3.281  11.070
60300W        W33368  36.676   5.968   4.683
60301W        W33369   4.162  16.549   0.760
60302W        W33370  13.683  42.863   0.451
60303W        W33371  25.091  13.886  11.873
60304W        W33372  23.469  12.728   2.704
60305W        W33373  28.955  34.774  12.511
60306W        W33374  31.928  42.822   4.032
60307W        W33375  21.668  43.667   9.819
60308W        W33376  26.440  10.613  14.998
60309W        W33377  31.887  19.691  12.124
60310W        W33378  22.360   8.351  11.449
60311W        W33379  31.493   9.138  13.938
60312W        W33380  16.406   3.762  11.567
60313W        W33381  32.013  20.580   2.268
60314W        W33382  17.765  43.559   0.192
60315W        W33383   9.431   7.211   0.811
60316W        W33384  31.634  36.287  13.702
60317W        W33385  44.512  42.650  13.016
60318W        W33386  17.293  30.876  14.961
60319W        W33387  34.890  33.322  14.931
60320W        W33388  16.862  15.096  11.500
60321W        W33389  35.014  26.632  10.225
60322W        W33390  12.760   7.085  11.613
60323W        W33391  24.431  40.234   3.553
60324W        W33392  25.520  36.088   3.443
60325W        W33393  18.021  27.749  10.788
60326W        W33394  25.042  18.647   0.715
60327W        W33395  10.757  29.444   1.381
60328W        W33396  42.455  28.764   3.277
60329W        W33397  43.749  11.689   4.122
60330W        W33398  20.213  24.063   3.188
60331W        W33399  13.614  37.799  13.741
60332W        W33400  27.245  12.923   1.015
60333W        W33401  34.859  16.105  13.874
60334W        W33402  30.218  22.435  13.409
60335W        W33403  30.447   0.828  12.341
60336W        W33404   9.543  12.946  11.112
60337W        W33405  27.919  31.077  10.636
60338W        W33406  37.917  40.842   3.643
60339W        W33407  35.011  11.814   1.079
60340W        W33408  17.652  13.093  11.575
60341W        W33409   3.339  15.249  13.377
60342W        W33410   9.852  34.010  14.564
60343W        W33411  35.898  36.111   1.271
60344W        W33412  24.591  23.055   3.234
60345W        W33413  20.731  31.134   0.965
60346W        W33414  21.095  24.960  14.998
60347W        W33415  20.254   4.679  10.707
60348W        W33416  38.806  17.345  12.412
60349W        W33417  18.280   4.258   4.528
60350W        W33418  34.047   8.441   3.800
60351W        W33419  33.579   4.911  12.537
60352W        W33420  37.740   3.337  13.038
60353W        W33421   4.973  18.197   4.081
60354W        W33422   5.260  10.626   2.809
60355W        W33423  30.551  12.685  10.623
60356W        W33424   2.366  15.345  11.514
60357W        W33425  25.576  31.750   3.232
60358W        W33426   4.708  17.065  12.504
60359W        W33427  43.713  15.089   1.831
60360W        W33428  24.393  43.397   2.255
60361W        W33429  33.088  24.723  10.850
60362W        W33430  38.033   8.638  13.321
60363W        W33431   2.785  14.118   3.196
60364W        W33432   0.904  12.887  14.052
60365W        W33433  26.479  33.371   2.225
60366W        W33434  21.247   2.400  13.932
60367W        W33435  20.312  39.931   3.315
60368W        W33436  43.192  44.399  11.039
60369W        W33437   7.608  25.533  12.108
60370W        W33438  40.807  10.837   3.359
60371W        W33439  26.452  13.182   4.702
60372W        W33440  37.002  20.544   3.645
60373W        W33441  38.821  39.341  10.492
60374W        W33442  15.092  41.956   3.585
60375W        W33443  11.890  35.915   4.672
60376W        W33444   3.276  17.932   2.361
60377W        W33445  28.782  16.023  12.906
60378W        W33446  42.003  15.604   2.280
60379W        W33447   4.009  23.080  10.502
60380W        W33448   6.158  36.246   4.652
60381W        W33449  39.090  32.847  11.606
60382W        W33450   5.875  10.107   0.893
60383W        W33451   2.365   2.200   4.903
60384W        W33452  28.651   7.967   3.231
60385W        W33453  31.885  16.182  11.490
60386W        W33454  11.315  38.539   1.769
60387W        W33455  14.752  22.724  10.693
60388W        W33456  31.007  39.999   1.915
60389W        W33457  37.191  20.992  12.902
60390W        W33458  40.857  26.362  14.238
60391W        W33459   8.330  31.824   9.993
60392W        W33460  13.857  16.854  11.682
60393W        W33461  21.971  17.156   1.278
60394W        W33462  24.257  21.706  14.999
60395W        W33463  43.544  18.278   0.994
60396W        W33464  22.545  36.347   4.855
60397W        W33465  23.016  18.298   2.691
60398W        W33466  30.899  28.977  12.858
60399W        W33467  36.059  35.785  11.108
60400W        W33468  19.511  34.967   1.977
60401W        W33469  29.071  15.546   3.795
60402W        W33470  12.528  29.725   2.319
60403W        W33471  10.192  17.358  12.988
60404W        W33472  26.845  25.174  14.336
60405W        W33473  25.787  26.565  11.489
60406W        W33474  44.867   7.331   3.762
60407W        W33475   4.959  42.120   3.090
60408W        W33476  11.346  17.164   4.544
60409W        W33477  31.557  27.208  13.448
60410W        W33478  42.400  17.386   4.007
60411W        W33479  19.846   4.393   1.417
60412W        W33480  36.325  11.232  14.676
60413W        W33481   1.641  35.757   1.823
60414W        W33482   5.006   4.724  10.973
60415W        W33483  43.392   4.720  12.854
60416W        W33484  32.838   7.316  10.783
60417W        W33485  18.140  25.280  13.505
60418W        W33486   2.193  20.115   2.456
60419W        W33487  13.600   9.640  13.867
60420W        W33488  20.448  18.724  14.955
60421W        W33489   7.286  31.624   4.985
60422W        W33490  25.781  37.071  12.649
60423W        W33491  37.865  34.884  14.209
60424W        W33492  14.878   7.233  12.128
60425W        W33493  12.002  13.923  10.462
60426W        W33494  35.003   3.604   2.475
60427W        W33495   5.785  21.796  11.692
60428W        W33496   2.861   2.422  12.425
60429W        W33497  44.846   6.856  11.975
60430W        W33498  13.651  11.422   0.817
60431W        W33499  42.625  41.854  11.393
60432W        W33500  26.067  44.907   3.367
60433W        W33501  12.176  25.987  12.480
60434W        W33502   5.172  43.192   0.181
60435W        W33503   5.716  34.427   2.806
60436W        W33504  11.801  30.372  14.392
60437W        W33505  28.224  39.421   3.447
60438W        W33506  32.480  17.860   1.800
60439W        W33507  25.419   1.242  12.043
60440W        W33508  39.892  37.838  12.365
60441W        W33509  36.620  39.336   2.123
60442W        W33510  35.940  28.022   1.721
60443W        W33511  42.734  24.258   4.626
60444W        W33512   9.351  21.605   0.391
60445W        W33513  32.034  22.712  10.536
60446W        W33514  15.240  15.089  13.808
60447W        W33515  15.258  24.859  10.899
60448W        W33516   4.436   4.863  13.337
60449W        W33517  22.019   5.767  11.579
60450W        W33518  14.433  23.501   4.981
60451W        W33519  39.003  34.602  14.221
60452W        W33520  42.952   7.225   1.459
60453W        W33521  27.696  18.017   4.014
60454W        W33522  24.914  21.683   1.632
60455W        W33523   7.943  29.018   3.600
60456W        W33524  24.111   1.820  12.325
60457W        W33525  34.567  13.421   3.360
60458W        W33526  20.304  16.158  13.975
60459W        W33527   4.025   3.358   3.686
60460W        W33528  14.041  29.957   3.289
60461W        W33529  29.609  23.044  12.414
60462W        W33530  38.953  13.169   3.349
60463W        W33531  15.828  29.000   1.027
60464W        W33532  37.154  30.114  12.143
60465W        W33533  41.349  13.789   0.465
60466W        W33534  28.150   8.841   4.588
60467W        W33535  40.785   6.947   2.125
60468W        W33536  37.987  42.238  12.177
60469W        W33537  20.506  22.734   3.279
60470W        W33538   9.371  20.647  12.601
60471W        W33539  10.743  23.516  12.361
60472W        W33540   1.028  35.410   0.993
60473W        W33541  13.089  17.225  12.359
60474W        W33542  32.093  20.419   4.079
60475W        W33543  43.509  25.264   5.023
60476W        W33544   5.336   3.836   0.771
60477W        W33545  27.148  42.848  14.748
60478W        W33546   9.479  38.332  14.493
60479W        W33547  10.499  17.431  10.732
60480W        W33548   5.841  26.244   3.324
60481W        W33549  18.766  36.958  12.905
60482W        W33550  32.480  27.129  13.432
60483W        W33551  42.882   8.899   4.628
60484W        W33552  44.867  34.955   1.814
60485W        W33553  27.175  44.412   1.479
60486W        W33554  25.482  42.520   4.131
60487W        W33555  12.187   3.881  12.546
60488W        W33556   5.976  35.559   4.117
60489W        W33557  35.791  12.255   0.724
60490W        W33558  31.696  19.146  13.068
60491W        W33559   9.649  32.202   3.950
60492W        W33560  13.714   5.455  13.956
60493W        W33561  31.418  39.894  10.704
60494W        W33562  44.738  29.320   4.273
60495W        W33563   9.378  27.877  12.189
60496W        W33564   2.902   0.704  12.042
60497W        W33565  12.663  16.284  13.974
60498W        W33566  34.881  14.719  12.545
60499W        W33567  38.936   0.310   0.683
60500W        W33568  40.595   7.379   3.231
60501W        W33569  38.304   0.739  11.069
60502W        W33570  13.185   0.395   1.299
60503W        W33571  38.565  34.127   0.280
60504W        W33572  25.769  30.320   4.985
60505W        W33573   0.090  21.454  11.550
60506W        W33574  44.447  41.597  12.299
60507W        W33575  30.539  43.645   4.497
60508W        W33576   0.761  39.216   4.491
60509W        W33577  29.669  11.953  14.082
60510W        W33578  24.650  44.752   2.732
60511W        W33579  35.934  22.535   4.326
60512W        W33580  12.002  32.483   3.064
60513W        W33581  33.081  15.299  11.025
60514W        W33582   3.800  36.350  11.180
60515W        W33583  13.596   3.769  12.604
60516W        W33584  36.750  44.105  13.927
60517W        W33585  17.198  39.040  13.910
60518W        W33586   6.358   4.824   4.110
60519W        W33587  38.926  38.233  13.627
60520W        W33588  17.687  21.572   2.111
60521W        W33589  14.228  38.430   1.801
60522W        W33590   4.728  26.045   4.105
60523W        W33591   2.259   8.340   4.123
60524W        W33592  26.425   7.229  14.990
60525W        W33593  33.421  19.869   4.667
60526W        W33594  14.822  18.538   3.716
60527W        W33595  33.933  24.178   1.803
60528W        W33596   7.754  31.070  12.235
60529W        W33597  38.371  16.609  14.549
60530W        W33598  44.897  11.063   0.917
60531W        W33599  24.505  32.905  11.116
60532W        W33600  25.264  26.499  11.485
60533W        W33601  29.919   5.806  10.407
60534W        W33602  22.634  12.268   3.726
60535W        W33603  17.260  18.184   2.794
60536W        W33604  15.687  40.016   3.728
60537W        W33605   8.362  21.172  14.013
60538W        W33606  14.267   8.893   3.580
60539W        W33607  21.194  19.101  10.602
60540W        W33608  23.479  17.188   3.155
60541W        W33609  32.367   1.296  13.753
60542W        W33610  38.527  31.075   4.830
60543W        W33611  41.140   3.271  11.180
60544W        W33612  43.775   4.660   3.767
60545W        W33613  12.778  27.591  14.968
60546W        W33614  37.696   2.826   4.288
60547W        W33615  16.611  35.351  12.527
60548W        W33616   5.163   0.528  14.276
60549W        W33617  22.732   6.107  13.396
60550W        W33618   1.409  32.511   4.913
60551W        W33619   6.898  34.559   0.486
60552W        W33620  19.578  26.989   1.496
60553W        W33621  16.573  26.218   1.781
60554W        W33622  20.286  29.568  11.597
60555W        W33623  10.889  18.815   1.759
60556W        W33624  25.154  13.111  14.772
60557W        W33625  17.961   7.604   4.157
60558W        W33626  32.344  37.382   1.887
60559W        W33627   5.791  10.413  13.334
60560W        W33628  17.428  42.206   2.906
60561W        W33629  40.507  13.583   0.243
60562W        W33630  30.065  38.560  10.927
60563W        W33631  41.459  26.849  14.912
60564W        W33632   8.709  26.842   3.158
60565W        W33633  19.900   0.260  10.208
60566W        W33634  43.303  37.441  14.805
60567W        W33635  18.837  30.416  12.505
60568W        W33636  26.380  34.436  11.799
60569W        W33637   1.808  12.575  14.905
60570W        W33638  22.494  26.013   4.102
60571W        W33639  35.674  14.699  13.899
60572W        W33640  20.247   6.062   2.870
60573W        W33641  43.307  33.460  13.275
60574W        W33642  21.497  32.222   0.626
60575W        W33643   2.019  20.166   1.471
60576W        W33644  39.091  33.807  14.288
60577W        W33645   5.270  15.015  13.072
60578W        W33646   9.204  15.402  11.094
60579W        W33647  25.611  17.081  14.286
60580W        W33648  35.148  29.502   1.972
60581W        W33649   4.416   5.991  10.766
60582W        W33650   0.009  33.476   1.503
60583W        W33651   4.454  27.200   0.887
60584W        W33652  39.330  18.657   1.761
60585W        W33653  34.013  29.026  13.082
60586W        W33654  23.139  25.710   0.475
60587W        W33655  25.931  44.467  11.405
60588W        W33656  29.638  19.584   3.126
60589W        W33657  29.628  11.438  13.877
60590W        W33658   4.737  20.798  14.655
60591W        W33659  31.312  43.676   1.092
60592W        W33660  43.876  25.509  13.878
60593W        W33661  25.013  32.152   1.942
60594W        W33662   5.759  28.991  14.391
60595W        W33663  38.333   0.278   2.459
60596W        W33664  14.676  11.402  12.434
60597W        W33665   2.394  24.651  10.734
60598W        W33666  26.988  22.586   1.184
60599W        W33667  40.401  14.616   2.586
60600W        W33668  27.758  10.909   0.744
60601W        W33669  18.867  23.655  11.069
60602W        W33670  38.219  41.505  12.524
60603W        W33671  29.092   4.971   2.906
60604W        W33672  36.169   9.752  14.803
60605W        W33673  26.831   2.049   5.045
60606W        W33674  36.495  25.575   3.803
60607W        W33675  25.274  25.402   0.835
60608W        W33676  44.116   4.651  13.949
60609W        W33677  20.586  17.814   0.823
60610W        W33678  30.490   5.298   3.746
60611W        W33679   7.374  28.907   3.794
60612W        W33680  35.151  43.928   1.364
60613W        W33681  20.311   8.703   2.183
60614W        W33682  12.877  21.115  11.705
60615W        W33683  12.851  11.695   0.967
60616W        W33684  11.295  30.664  14.866
60617W        W33685  22.904  35.964  12.462
60618W        W33686  37.108  27.376  12.391
60619W        W33687  11.813  10.550   4.147
60620W        W33688  24.703  14.747   4.209
60621W        W33689  44.199  32.217  12.143
60622W        W33690   1.252   9.309   1.441
60623W        W33691  36.112   4.405  11.370
60624W        W33692  28.620  17.525  11.692
60625W        W33693   7.592  34.030   4.274
60626W        W33694  18.783  16.388   1.392
60627W        W33695  19.144   8.078  11.984
60628W        W33696  13.273  11.625   4.491
60629W        W33697  19.679   3.670  12.462
60630W        W33698   5.331   5.869  12.318
60631W        W33699  40.847  20.326   1.540
60632W        W33700   4.509   1.806  14.347
60633W        W33701  42.292   0.813   3.771
60634W        W33702  18.061  41.274  11.935
60635W        W33703   8.618  43.760  14.393
60636W        W33704   6.379   8.698  12.103
60637W        W33705  35.920  12.751   1.796
60638W        W33706  38.849  21.470   4.231
60639W        W33707  29.956  30.488   0.884
60640W        W33708  36.361  10.642   3.160
60641W        W33709  19.526  41.037  12.531
60642W        W33710   0.266  44.571   0.418
60643W        W33711  16.645   4.283  12.690
60644W        W33712  44.143   2.100   5.006
60645W        W33713  20.330  13.163   1.860
60646W        W33714  14.738  39.385  12.814
60647W        W33715   9.373  21.121   4.217
60648W        W33716   8.768  10.740  12.077
60649W        W33717   6.698  14.586   3.131
60650W        W33718  34.931   3.375   3.347
60651W        W33719  42.353  27.195   0.202
60652W        W33720  28.350  34.863   2.519
60653W        W33721  34.139  24.446  10.460
60654W        W33722  41.352  18.152   0.292
60655W        W33723  36.780  28.874   3.220
60656W        W33724  19.210  12.464  13.900
60657W        W33725  19.063  32.931  12.088
60658W        W33726  14.407  33.000   4.163
60659W        W33727   9.051  31.438  11.634
60660W        W33728  19.302  24.143   1.718
60661W        W33729  20.735   1.088  13.019
60662W        W33730  18.202  36.853   4.497
60663W        W33731  24.749   4.011   0.288
60664W        W33732  33.205  31.884  13.046
60665W        W33733  44.572  25.956  11.076
60666W        W33734   8.223  33.050  13.250
60667W        W33735  21.908  15.790   3.234
60668W        W33736   0.140   4.707  13.937
60669W        W33737  15.977  29.426   1.255
60670W        W33738  23.243  26.156  11.195
60671W        W33739  16.763  42.011   2.295
60672W        W33740   3.155  21.675   2.188
60673W        W33741  44.783  18.873  12.027
60674W        W33742  41.027   8.804   4.977
60675W        W33743   2.245   6.176   4.670
60676W        W33744  38.450   8.441   2.692
60677W        W33745   5.415  14.122  13.956
60678W        W33746  41.705   7.045  14.843
60679W        W33747   5.569  42.967  14.859
60680W        W33748  24.465  35.102   4.548
60681W        W33749  23.454   2.301   3.300
60682W        W33750   4.847  22.393  14.798
60683W        W33751  39.096  26.608  13.891
60684W        W33752  38.601  21.359  13.332
60685W        W33753  24.696  29.918   1.433
60686W        W33754  23.086   0.259   4.129
60687W        W33755  18.460  35.786   1.951
60688W        W33756  36.348  28.830   3.709
60689W        W33757  39.761  43.768   0.267
60690W        W33758  24.196  42.598  12.931
60691W        W33759   2.751  37.288   4.339
60692W        W33760  33.065  10.883  14.916
60693W        W33761  14.108  15.144   2.383
60694W        W33762  13.017  33.139  13.765
60695W        W33763  26.674  35.021  13.519
60696W        W33764  25.723   1.352   3.655
60697W        W33765  14.828  36.785   4.263
60698W        W33766   1.012  27.168  12.158
60699W        W33767  40.820  14.735   1.635
60700W        W33768   7.301  32.459   2.289
60701W        W33769   9.324   3.457   1.267
60702W        W33770  19.129  38.406  10.698
60703W        W33771  35.352   2.631   1.983
60704W        W33772  40.867  10.686   3.876
60705W        W33773  31.579   4.842   2.924
60706W        W33774   4.805  33.369   3.139
60707W        W33775  23.901   3.487   2.990
60708W        W33776   2.692   6.566   1.783
60709W        W33777  14.400  37.329  14.089
60710W        W33778  22.557  28.432   3.629
60711W        W33779  28.420  42.748   4.759
60712W        W33780  42.286  16.939  14.676
60713W        W33781   4.397  15.693  10.876
60714W        W33782  37.032   9.425  10.521
60715W        W33783  25.369  28.174  12.943
60716W        W33784  38.081  13.349  14.856
60717W        W33785  17.907  38.852   0.496
60718W        W33786  26.718  17.191   1.361
60719W        W33787  44.657   0.913  11.426
60720W        W33788  27.601  28.131  11.575
60721W        W33789  11.395  36.760   0.500
60722W        W33790  30.517  17.695   3.980
60723W        W33791  42.495  16.102  13.499
60724W        W33792  15.556  43.459   0.763
60725W        W33793  35.751  10.604  14.774
60726W        W33794  32.183  24.602   3.221
60727W        W33795   9.608  36.837   4.797
60728W        W33796  17.409  10.536   3.552
60729W        W33797   9.045   9.649   4.369
60730W        W33798   1.225  18.062   3.782
60731W        W33799  23.538  12.284   4.293
60732W        W33800   2.428  33.880   3.604
60733W        W33801   8.197  22.902  12.860
60734W        W33802  20.264   6.859  13.115
60735W        W33803  26.732   6.301   1.872
60736W        W33804  43.323  13.684   2.883
60737W        W33805  29.128  40.850  11.496
60738W        W33806   0.428   2.500  14.291
60739W        W33807  25.094  28.254   0.851
60740W        W33808  12.302  34.838  11.064
60741W        W33809  29.393  30.747  12.761
60742W        W33810   8.212  26.033  12.559
60743W        W33811  34.555  31.590  14.567
60744W        W33812  31.491  17.755   4.907
60745W        W33813  16.710  42.351  14.013
60746W        W33814  11.370  38.466  12.009
60747W        W33815  28.541  31.838   4.611
60748W        W33816   7.165  43.978  12.591
60749W        W33817  37.596  20.668  13.929
60750W        W33818  40.573  22.252   4.559
60751W        W33819  16.158   8.250  11.117
60752W        W33820  41.387  19.888  12.037
60753W        W33821  11.241  14.032  14.586
60754W        W33822  36.781  15.566   3.830
60755W        W33823   1.404   3.862  13.401
60756W        W33824  29.362  27.028  11.575
60757W        W33825  37.117  23.720   3.590
60758W        W33826  32.432  37.701  11.504
60759W        W33827  37.678  15.533   3.603
60760W        W33828  18.645  21.618   0.746
60761W        W33829  26.646   4.760   2.844
60762W        W33830  40.406   1.407  12.024
60763W        W33831  16.294   9.005  10.410
60764W        W33832  28.905   3.183   1.404
60765W        W33833   9.796  24.371  14.815
60766W        W33834  22.092  13.349  12.899
60767W        W33835  35.845   4.017  11.561
60768W        W33836  33.412  37.380  14.381
60769W        W33837  19.326   4.408   3.282
60770W        W33838  38.999   8.556   3.287
60771W        W33839  25.575  24.063   2.284
60772W        W33840  14.144  17.075  14.885
60773W        W33841  35.068  10.154  11.065
60774W        W33842  21.298  18.754   1.312
60775W        W33843  41.065   1.410   5.276
60776W        W33844  25.518  10.690   0.397
60777W        W33845  39.952   8.653   1.286
60778W        W33846  29.377  43.522  10.665
60779W        W33847  31.073  39.828   2.954
60780W        W33848  37.585   4.453  13.237
60781W        W33849   7.551  17.712  10.489
60782W        W33850  18.982  17.302   1.011
60783W        W33851  33.698  43.042   4.197
60784W        W33852   2.037   6.394   3.609
60785W        W33853   9.913  29.852   1.210
60786W        W33854  13.013  37.059  14.741
60787W        W33855  23.535  35.251  11.502
60788W        W33856  10.261  15.513  14.427
60789W        W33857  23.958  27.656  12.991
60790W        W33858  23.730  14.293   4.593
60791W        W33859  17.489  24.949   1.183
60792W        W33860   7.351  10.512  14.850
60793W        W33861  38.791  28.031   3.371
60794W        W33862  35.679  18.051  11.589
60795W        W33863   4.832   9.376  11.032
60796W        W33864  13.091   2.015   1.838
60797W        W33865  40.551  13.440  14.731
60798W        W33866  29.677   5.293  14.437
60799W        W33867   4.082  33.566   2.763
60800W        W33868  37.393   3.200   5.252
60801W        W33869  21.187   8.539  10.796
60802W        W33870  33.554  40.569   4.725
60803W        W33871  33.413   5.462   2.756
60804W        W33872  26.590  17.775  13.893
60805W        W33873  28.405  37.877   1.508
60806W        W33874  16.673  10.819  13.904
60807W        W33875  30.574   8.433   4.610
60808W        W33876  36.775  40.424   2.431
60809W        W33877  26.086   0.756   3.333
60810W        W33878  27.022  37.998   2.115
60811W        W33879  30.581  28.191  12.076
60812W        W33880  43.517   7.271  14.810
60813W        W33881  17.902  19.201   3.368
60814W        W33882  44.916   6.393   1.339
60815W        W33883  10.703  22.569   1.737
60816W        W33884   6.246   8.207  11.062
60817W        W33885  26.055  38.072  12.194
60818W        W33886   0.747  25.207   1.245
60819W        W33887  16.354   2.499  11.440
60820W        W33888  14.281  40.409   4.124
60821W        W33889  10.907   6.772   4.595
60822W        W33890   0.948   7.695  11.609
60823W        W33891  37.668   5.385  14.372
60824W        W33892  15.576  25.201   2.422
60825W        W33893  22.646  11.275   0.055
60826W        W33894  27.308  15.184  11.097
60827W        W33895  24.997  36.323  11.205
60828W        W33896  15.631  19.044   1.379
60829W        W33897  27.439  38.023   2.451
60830W        W33898  40.355  32.386   0.880
60831W        W33899  15.929  41.698  13.838
60832W        W33900   9.503  28.000  10.994
60833W        W33901   1.399  24.378  14.500
60834W        W33902   6.010  16.161  11.014
60835W        W33903  27.747   5.202  12.952
60836W        W33904  35.828  27.065  13.580
60837W        W33905  34.480  18.581   4.573
60838W        W33906  25.232  26.879   3.969
60839W        W33907   7.381  36.954  14.327
60840W        W33908  34.444  39.952  12.924
60841W        W33909   2.379  38.088   4.328
60842W        W33910  24.184  27.569   3.390
60843W        W33911   4.559  40.442  11.188
60844W        W33912  41.109   7.958   4.486
60845W        W33913   1.507   4.763  11.512
60846W        W33914   5.588  17.583   4.211
60847W        W33915  12.712   2.866   2.175
60848W        W33916  18.679   8.952   0.297
60849W        W33917  29.489  33.769  12.892
60850W        W33918  32.099  10.195  14.347
60851W        W33919  15.779  20.599   3.714
60852W        W33920   9.467  30.297  12.557
60853W        W33921  42.053  41.310   3.306
60854W        W33922   7.578  40.883  14.671
60855W        W33923  27.516   5.003  13.391
60856W        W33924  15.724  22.492  12.182
60857W        W33925   8.482  39.921  12.416
60858W        W33926   3.209  23.746   1.598
60859W        W33927  16.601  20.651  12.889
60860W        W33928  38.903   2.893   3.217
60861W        W33929  35.641  11.575  12.386
60862W        W33930  15.151  11.747   2.744
60863W        W33931  15.855  22.921  14.233
60864W        W33932  15.654   3.937  11.831
60865W        W33933  14.962  26.910   4.403
60866W        W33934  18.690   2.179  10.750
60867W        W33935  18.061  11.192  12.470
60868W        W33936  43.898  18.535  12.141
60869W        W33937  19.512  32.507   1.095
60870W        W33938   4.403  39.133   0.951
60871W        W33939   7.391   3.358  10.535
60872W        W33940  39.679  24.982   1.252
60873W        W33941  40.760   9.282   0.803
60874W        W33942  38.878   6.840  14.431
60875W        W33943  37.143  11.156  14.750
60876W        W33944  16.357  12.595   3.800
60877W        W33945  19.515  41.380  14.324
60878W        W33946  18.643  33.437   1.612
60879W        W33947   0.128  15.768   3.634
60880W        W33948   0.455  15.724  11.604
60881W        W33949  31.598  29.576   1.824
60882W        W33950  42.941  38.610   1.389
60883W        W33951  44.803  31.422   3.618
60884W        W33952   4.309  34.398   2.572
60885W        W33953  24.721  14.563  13.845
60886W        W33954  33.722  43.916   3.118
60887W        W33955  40.531  15.730   0.892
60888W        W33956  18.323  40.335   3.150
60889W        W33957  32.160  26.030  11.120
60890W        W33958  17.806  12.262   3.617
60891W        W33959   8.856  38.977  10.609
60892W        W33960  24.567  43.451  14.937
60893W        W33961  43.187  28.200   3.656
60894W        W33962  24.201  12.624   1.086
60895W        W33963  33.497  36.475  12.327
60896W        W33964  42.705  16.181   3.280
60897W        W33965   9.363  23.394   3.204
60898W        W33966  18.109  21.636   2.407
60899W        W33967  31.423  13.194  10.805
60900W        W33968  31.517   8.812   0.750
60901W        W33969  21.464  39.141  14.084
60902W        W33970   7.057  37.927   2.338
60903W        W33971  10.130   4.869   2.235
60904W        W33972  17.261   2.297   1.216
60905W        W33973  25.877   0.907   0.465
60906W        W33974   3.309  28.378  13.799
60907W        W33975  43.432  44.830   1.270
60908W        W33976   7.438   8.573  10.122
60909W        W33977   5.713   2.960   0.673
60910W        W33978  39.418  30.099   2.261
60911W        W33979  26.232   5.773  11.179
60912W        W33980  42.831  22.522  10.735
60913W        W33981  32.491  40.084  12.881
60914W        W33982   2.370   1.549  14.724
60915W        W33983  15.905  16.548  10.688
60916W        W33984   4.370  25.776   1.697
60917W        W33985  10.204  19.054  11.353
60918W        W33986  18.363   2.170   0.688
60919W        W33987  38.891  10.682   2.603
60920W        W33988  39.579  13.228  13.176
60921W        W33989  27.610   8.040   2.231
60922W        W33990   7.586  13.506   4.614
60923W        W33991  17.612  41.403   3.726
60924W        W33992  23.684  33.482  13.933
60925W        W33993  39.590  15.067  14.743
60926W        W33994  11.624  35.320  11.491
60927W        W33995  42.543   3.484   2.843
60928W        W33996   6.983  18.186   3.369
60929W        W33997  29.763  26.047   1.249
60930W        W33998  31.557  31.445  13.985
60931W        W33999  44.008  33.422  10.132
60932W        W34000  41.174   4.757   3.268
60933W        W34001   9.574   5.739   2.294
60934W        W34002   2.842   2.366   3.249
60935W        W34003  22.491  42.609   0.481
60936W        W34004  30.122  41.083   0.910
60937W        W34005   2.208  34.500  10.597
60938W        W34006  37.247  33.590   5.039
60939W        W34007  14.775  23.652  10.112
60940W        W34008  44.368  17.575  12.536
60941W        W34009  25.161  22.899  13.834
60942W        W34010   8.810   1.550  14.254
60943W        W34011  36.905  22.719   4.776
60944W        W34012   4.758  14.783   4.179
60945W        W34013  29.142  44.363  11.468
60946W        W34014   8.863   5.731  14.402
60947W        W34015  43.384   4.710   4.129
60948W        W34016  17.148   3.770   2.357
60949W        W34017  13.252  42.242  13.408
60950W        W34018  43.936  36.904   4.315
60951W        W34019  10.830  39.659  11.673
60952W        W34020  17.719   3.845  14.800
60953W        W34021  38.937  36.350   3.704
60954W        W34022  21.514  26.538   1.282
60955W        W34023  34.529   7.575   0.496
60956W        W34024  12.327   3.676   0.866
60957W        W34025  17.139  18.914   3.833
60958W        W34026  15.474  42.541  12.011
60959W        W34027  39.365  17.073   0.818
60960W        W34028  14.562  39.811   1.809
60961W        W34029  33.000  27.624   0.348
60962W        W34030  24.569   6.676   4.836
60963W        W34031  10.804  24.283   2.543
60964W        W34032  16.310   6.739  14.063
60965W        W34033  34.150  39.089  14.543
60966W        W34034  36.364  25.596  13.463
60967W        W34035  16.550   7.933   4.449
60968W        W34036  32.054  17.205  13.458
60969W        W34037  25.393  26.680   2.241
60970W        W34038  31.160  36.992  11.096
60971W        W34039  15.805  20.994  11.646
60972W        W34040  14.561  44.614   9.967
60973W        W34041  10.230  18.521  14.278
60974W        W34042  17.585  20.004  11.205
60975W        W34043  35.355  43.062  11.199
60976W        W34044  37.617  37.354  12.369
60977W        W34045  37.632  41.228   1.247
60978W        W34046  38.441  29.675   2.851
60979W        W34047  39.484   0.463  13.026
60980W        W34048   0.938   5.655  14.391
60981W        W34049  44.560  23.068   2.879
60982W        W34050   6.915  33.981  12.025
60983W        W34051  21.238  14.287  10.817
60984W        W34052  41.511  38.452   2.345
60985W        W34053  37.344  24.669  13.568
60986W        W34054   1.119  21.245  12.276
60987W        W34055  30.139  19.067   2.624
60988W        W34056   1.402  29.699  12.915
60989W        W34057  34.517  17.815  11.054
60990W        W34058  27.907  22.745   0.984
60991W        W34059  38.339  37.300   4.339
60992W        W34060  18.691  44.991  10.673
60993W        W34061  31.827   8.445  14.073
60994W        W34062  29.681  28.505   1.698
60995W        W34063   8.461   1.593  14.962
60996W        W34064  37.250  40.928   1.958
60997W        W34065  20.542   1.392   0.538
60998W        W34066  20.583   4.298   0.713
60999W        W34067  44.650  11.118  11.157
61000W        W34068  38.248  22.173  10.703
61001W        W34069  35.576   1.678   0.338
61002W        W34070  18.051  30.377   0.474
61003W        W34071  44.692  10.027   1.010
61004W        W34072  43.367  18.768  11.961
61005W        W34073   2.519  23.236   3.316
61006W        W34074   3.083  35.699   2.749
61007W        W34075  18.797   9.988   0.416
61008W        W34076  12.812  11.078   0.494
61009W        W34077  20.132  31.206  13.196
61010W        W34078  44.500  19.558   2.081
61011W        W34079  17.869  28.155  11.055
61012W        W34080   0.329  41.086  14.466
61013W        W34081  16.093  43.452  10.549
61014W        W34082  24.439  21.683   2.803
61015W        W34083  41.889   6.183   3.765
61016W        W34084  14.649  37.627   4.676
61017W        W34085   0.349   8.066  14.538
61018W        W34086   5.212  33.483   1.682
61019W        W34087  36.187   4.406   3.600
61020W        W34088  18.233  38.518  13.237
61021W        W34089  39.268  23.007  14.369
61022W        W34090   0.343  22.151  11.508
61023W        W34091  40.936  25.277   2.310
61024W        W34092  11.256  44.071  14.933
61025W        W34093  43.258  32.433  14.887
61026W        W34094  44.427  13.197   1.212
61027W        W34095  24.230   9.315   0.589
61028W        W34096  11.734  36.553  13.882
61029W        W34097  31.077  35.624  14.330
61030W        W34098  35.501   3.811   2.310
61031W        W34099   2.824  19.229  14.727
61032W        W34100   9.375  33.394   2.344
61033W        W34101  26.239  20.663  12.959
61034W        W34102  29.177  23.747  11.501
61035W        W34103  11.868  34.154  11.053
61036W        W34104  40.956   9.375  11.608
61037W        W34105  44.525  18.240   4.063
61038W        W34106   6.321  28.641  12.942
61039W        W34107  25.450  25.356  13.289
61040W        W34108  14.996  23.171   2.845
61041W        W34109  17.481   3.604  14.377
61042W        W34110  27.753   7.186   2.698
61043W        W34111  35.773  41.223  12.160
61044W        W34112  39.946  36.477   3.790
61045W        W34113  28.258  19.653   1.706
61046W        W34114  11.834   3.082   3.603
61047W        W34115  17.766  33.139   1.803
61048W        W34116  20.290  35.422  13.008
61049W        W34117  20.021  29.759  13.428
61050W        W34118   3.689  30.072   4.548
61051W        W34119  28.042  22.252   0.921
61052W        W34120   4.322  29.465  10.821
61053W        W34121   0.550  42.905   4.242
61054W        W34122  16.424  13.789  14.405
61055W        W34123  33.943  24.940   0.008
61056W        W34124  22.122   0.366   2.755
61057W        W34125   2.504  13.751  13.486
61058W        W34126   7.438  37.879   1.986
61059W        W34127  28.207   7.928  12.450
61060W        W34128  31.527   8.301   0.803
61061W        W34129  37.980   2.723   2.910
61062W        W34130  15.929  11.777  13.464
61063W        W34131  21.011  10.103   3.723
61064W        W34132   0.939  15.449   4.256
61065W        W34133  42.975  16.587   2.325
61066W        W34134   1.309  20.451  12.029
61067W        W34135  37.115  42.800   2.907
61068W        W34136  13.254   5.674   4.583
61069W        W34137  18.837  18.114   1.963
61070W        W34138  10.700   2.812  10.673
61071W        W34139   4.690  35.538  14.050
61072W        W34140  30.697  32.942  11.684
61073W        W34141  17.071  25.111  14.298
61074W        W34142  43.943  40.390  12.506
61075W        W34143  36.572  16.902   3.230
61076W        W34144  38.339  29.883   3.597
61077W        W34145  38.435  22.651  14.071
61078W        W34146  32.548  23.928   4.560
61079W        W34147  30.865  19.420  14.334
61080W        W34148  30.934  22.401   4.167
61081W        W34149  17.835  42.270  10.561
61082W        W34150  25.912  43.795   3.740
61083W        W34151  15.529   5.211  12.060
61084W        W34152   4.470   0.803   1.397
61085W        W34153  33.873  10.675  11.623
61086W        W34154  42.237  36.161   2.120
61087W        W34155   2.955  23.110  11.371
61088W        W34156  36.111  44.111   3.345
61089W        W34157  18.441   3.259  12.617
61090W        W34158  36.153  17.647   1.557
61091W        W34159   0.906  20.330  13.902
61092W        W34160  25.358  33.978  14.495
61093W        W34161   6.103  24.931  14.437
61094W        W34162   5.567  42.619   1.878
61095W        W34163   1.496  39.462  10.546
61096W        W34164  30.688  24.168  11.008
61097W        W34165  26.515  28.378   2.775
61098W        W34166  21.294  37.941  13.308
61099W        W34167   3.251  19.860  14.738
61100W        W34168  25.377  15.637  10.419
61101W        W34169  23.757   9.948  12.511
61102W        W34170   2.650  33.994   1.360
61103W        W34171  17.070  35.552  11.308
61104W        W34172  32.027  37.576   3.779
61105W        W34173  23.526  10.796   3.565
61106W        W34174  42.839  40.906  11.616
61107W        W34175  16.561  10.046   4.047
61108W        W34176  41.454  24.387  13.904
61109W        W34177  17.713  42.505   1.435
61110W        W34178   3.245  37.819  11.248
61111W        W34179  37.537  22.246  11.422
61112W        W34180  29.790  34.469   2.086
61113W        W34181  13.869  24.175   3.311
61114W        W34182  22.269  21.180  13.791
61115W        W34183  24.645  14.313   4.969
61116W        W34184   1.921  15.677  12.930
61117W        W34185  39.867  33.072  14.749
61118W        W34186   7.579   6.248  10.216
61119W        W34187  17.162   2.069   4.523
61120W        W34188  38.549  44.824  11.154
61121W        W34189  36.638  12.288   2.356
61122W        W34190  15.317   0.231  10.792
61123W        W34191   3.713  12.180   2.141
61124W        W34192   4.505  35.370  14.532
61125W        W34193   2.805  42.360   3.290
61126W        W34194  25.767  30.939  12.499
61127W        W34195  30.723  41.778   4.526
61128W        W34196  19.083   3.809   4.039
61129W        W34197  12.736  27.182   2.427
61130W        W34198  30.555  31.146  14.004
61131W        W34199  39.882  22.947   0.895
61132W        W34200  26.675   0.086   1.163
61133W        W34201  33.369  29.129   0.889
61134W        W34202   8.695  35.706  12.670
61135W        W34203  37.991   5.503  11.439
61136W        W34204  30.385  27.883  13.303
61137W        W34205  15.713  11.163  11.585
61138W        W34206  16.404  36.951  13.951
61139W        W34207   7.699  24.158   4.635
61140W        W34208   1.239   9.635  10.247
61141W        W34209  40.553  40.286  13.497
61142W        W34210  25.466  18.398  12.847
61143W        W34211   3.993   3.086   5.137
61144W        W34212  42.367  40.822   4.824
61145W        W34213   3.336   7.210  13.489
61146W        W34214   2.405  13.265   1.357
61147W        W34215  10.542  42.965   0.638
61148W        W34216  31.670  34.425  11.724
61149W        W34217   9.924   3.073   3.175
61150W        W34218  43.641  28.704   2.655
61151W        W34219   8.711  38.595  13.864
61152W        W34220  16.113  30.958   0.384
61153W        W34221  32.483  11.585  11.568
61154W        W34222  40.436  37.359   0.906
61155W        W34223  24.496  35.340  11.521
61156W        W34224  42.907  35.693   2.932
61157W        W34225  27.950   8.803  11.162
61158W        W34226  29.698  37.855   4.114
61159W        W34227  44.693   5.985  11.439
61160W        W34228  27.871  23.654   2.751
61161W        W34229  23.625  25.129   2.618
61162W        W34230  28.707  15.395  14.786
61163W        W34231  43.638   4.327  14.809
61164W        W34232   1.013   6.699   3.702
61165W        W34233  19.570  19.347  11.998
61166W        W34234  27.451  32.973  10.876
61167W        W34235  29.143  42.175   0.854
61168W        W34236  36.834  38.901  10.780
61169W        W34237  24.927  17.362   0.408
61170W        W34238  38.742  34.984  13.987
61171W        W34239  10.465  18.249  12.081
61172W        W34240  40.532  27.188  10.763
61173W        W34241   6.228  34.424   1.768
61174W        W34242  20.853  17.149  12.880
61175W        W34243  38.237  30.595  11.582
61176W        W34244   7.744  26.554   3.588
61177W        W34245  15.326  19.800   3.672
61178W        W34246  37.351  29.185  11.209
61179W        W34247  25.190   1.902  10.577
61180W        W34248  32.363  38.042   2.278
61181W        W34249  42.145  10.270  13.969
61182W        W34250  21.385  27.192   1.889
61183W        W34251  44.075  40.849  12.974
61184W        W34252  39.882  30.115   2.479
61185W        W34253  26.518  36.426   1.828
61186W        W34254  29.346  18.288   2.170
61187W        W34255  44.114  21.807  12.401
61188W        W34256  10.238  13.091   1.909
61189W        W34257  27.662  15.066   2.333
61190W        W34258  28.790  25.642  12.975
61191W        W34259  18.104  12.122  12.268
61192W        W34260   2.859  13.752   2.344
61193W        W34261  22.601  20.596   4.764
61194W        W34262   5.159  32.213  10.856
61195W        W34263  37.399   0.974  12.629
61196W        W34264  13.629  23.549  12.000
61197W        W34265  26.357  15.575   1.772
61198W        W34266  22.948   7.393   2.606
61199W        W34267  23.176  21.965  14.019
61200W        W34268   8.833   1.228  12.010
61201W        W34269   2.282  11.748  13.512
61202W        W34270  44.635  22.798  13.326
61203W        W34271  44.737  28.188   1.285
61204W        W34272  24.612  15.272  12.085
61205W        W34273  24.655  31.593  14.896
61206W        W34274   7.302  26.080  13.879
61207W        W34275   3.157  24.506  11.158
61208W        W34276  20.610  20.514  11.898
61209W        W34277  24.018  12.242   4.096
61210W        W34278  38.455   0.146   3.714
61211W        W34279  24.530  42.338  12.302
61212W        W34280  26.794   3.823  12.123
61213W        W34281  14.251  19.104   1.396
61214W        W34282  38.401  14.284   0.300
61215W        W34283  14.799  34.902   0.976
61216W        W34284  39.936  17.533   2.856
61217W        W34285  20.516  40.762   1.424
61218W        W34286  26.521  42.759  10.309
61219W        W34287  16.582   6.297  13.359
61220W        W34288  29.039  42.018   1.334
61221W        W34289   4.201  17.507  13.868
61222W        W34290  12.957  35.368  10.925
61223W        W34291  10.456  40.267   4.504
61224W        W34292  24.192  25.118  12.384
61225W        W34293  22.339  40.716   1.247
61226W        W34294   1.963  41.766  13.329
61227W        W34295  41.292   5.939   0.881
61228W        W34296  32.839  23.679   2.253
61229W        W34297  38.579   7.804  14.939
61230W        W34298  13.315  23.097  14.826
61231W        W34299  24.195  20.821   3.766
61232W        W34300  25.422  13.613  14.128
61233W        W34301  32.543  43.922  13.398
61234W        W34302  19.694  10.856   2.959
61235W        W34303  32.166  40.285   1.835
61236W        W34304  39.586  36.565   0.485
61237W        W34305  15.511  29.118  10.661
61238W        W34306  28.243  36.944   3.624
61239W        W34307  32.114  29.483   1.617
61240W        W34308  28.277  13.819   2.310
61241W        W34309  29.165  42.906  14.128
61242W        W34310   4.379  36.207  10.562
61243W        W34311  15.830   2.855  14.779
61244W        W34312  16.966  35.935  14.411
61245W        W34313  41.598  43.588  13.505
61246W        W34314  31.347  34.185  14.683
61247W        W34315   0.745  10.613   0.991
61248W        W34316  26.138  23.136  11.927
61249W        W34317  19.506  12.501  11.760
61250W        W34318  21.206  26.169  11.533
61251W        W34319  31.858  23.294   1.389
61252W        W34320  42.440   6.974   2.734
61253W        W34321  16.333   6.175   1.369
61254W        W34322  35.359   9.154  12.923
61255W        W34323   4.649  35.580  12.930
61256W        W34324  21.979   4.382  13.610
61257W        W34325  10.509  13.470   0.688
61258W        W34326  19.603  23.762   1.950
61259W        W34327  33.078   6.399   1.742
61260W        W34328  10.794   5.159  12.147
61261W        W34329   3.673  12.388   0.842
61262W        W34330  42.141   8.277  13.000
61263W        W34331   6.217  16.214   4.535
61264W        W34332  26.010  19.710  12.020
61265W        W34333   6.284  17.182   1.521
61266W        W34334  18.691  16.509   3.684
61267W        W34335   2.744  38.584  13.782
61268W        W34336  43.422   7.420   2.145
61269W        W34337  41.026   7.801   5.496
61270W        W34338  42.919  28.463   0.040
61271W        W34339  22.084   8.483  14.876
61272W        W34340  18.803  15.104  13.025
61273W        W34341  33.650   6.166  11.137
61274W        W34342  40.543  25.124  13.045
61275W        W34343  33.344  25.683   3.570
61276W        W34344  13.716  27.748  14.522
61277W        W34345  23.981  40.777   0.250
61278W        W34346  44.871  44.818   4.892
61279W        W34347  11.561  23.197   4.068
61280W        W34348  27.549  22.092  14.012
61281W        W34349   0.965  19.733  12.929
61282W        W34350  22.616  20.893  14.107
61283W        W34351   5.018   3.651  14.849
61284W        W34352  36.933  38.380   1.042
61285W        W34353   7.707  20.135  14.355
61286W        W34354  14.898   9.072  11.517
61287W        W34355  17.747  10.832  14.580
61288W        W34356  13.817   0.404  10.692
61289W        W34357  33.477  41.846   0.372
61290W        W34358   9.871  39.784   1.967
61291W        W34359  34.329  39.217  13.370
61292W        W34360  11.792   5.714   4.622
61293W        W34361  24.934  15.292  14.350
61294W        W34362  21.532  24.667   2.796
61295W        W34363  37.591  39.779   1.281
61296W        W34364  19.767  21.994   0.360
61297W        W34365  29.244  18.174   4.852
61298W        W34366   1.262  25.169  14.057
61299W        W34367  23.125  22.644   1.944
61300W        W34368  13.954  19.451  14.956
61301W        W34369  14.852   2.005  12.998
61302W        W34370  19.619  32.652  14.360
61303W        W34371   3.436  14.744   1.982
61304W        W34372  41.492   6.442   1.789
61305W        W34373  36.455  40.509  12.926
61306W        W34374   1.738   7.702   3.154
61307W        W34375  20.230  17.955  10.705
61308W        W34376  40.981  31.367   2.175
61309W        W34377   2.445  11.664   3.289
61310W        W34378   0.343  29.629  14.806
61311W        W34379  24.796   6.157   0.262
61312W        W34380  36.339  25.477  14.325
61313W        W34381  35.663   9.975  13.169
61314W        W34382  25.765  37.814   4.606
61315W        W34383  27.611  33.312   4.338
61316W        W34384  13.546  42.154   1.621
61317W        W34385   3.487  22.441  11.060
61318W        W34386  12.204   8.724  13.257
61319W        W34387   7.182  20.515  14.932
61320W        W34388  42.733   6.775   1.294
61321W        W34389  22.389  19.986  14.839
61322W        W34390  27.493  34.430   3.594
61323W        W34391  21.921   9.612  12.048
61324W        W34392  23.754  16.610   4.032
61325W        W34393  39.909  31.984  12.836
61326W        W34394  26.361   1.771   0.894
61327W        W34395  34.920   7.332  14.890
61328W        W34396  41.087   6.423   3.279
61329W        W34397  33.369  35.042  11.879
61330W        W34398  14.815   5.283  12.863
61331W        W34399  43.429  30.730  13.879
61332W        W34400  33.785   4.010   3.426
61333W        W34401  14.241  34.994  13.149
61334W        W34402  35.664  42.692   4.048
61335W        W34403  12.618  21.627   4.497
61336W        W34404  29.988  23.707  11.444
61337W        W34405  17.319  25.422   0.876
61338W        W34406   1.191  31.237  10.968
61339W        W34407  30.107   1.965   0.794
61340W        W34408  21.059  43.765  12.430
61341W        W34409  31.394  22.178  14.310
61342W        W34410  19.393  25.160  14.407
61343W        W34411  11.579  30.504  10.567
61344W        W34412  33.976  37.318  10.197
61345W        W34413  19.500  41.497   3.641
61346W        W34414  29.077  21.664   4.125
61347W        W34415   6.343  39.493   2.379
61348W        W34416  36.123  16.211   3.639
61349W        W34417  24.663  21.156  11.571
61350W        W34418  40.028  16.695   4.141
61351W        W34419  43.436   1.358   3.454
61352W        W34420  39.481   1.990  11.581
61353W        W34421   0.354  15.113   4.100
61354W        W34422   3.925  37.107  11.983
61355W        W34423  40.067  29.066  14.032
61356W        W34424  43.759  20.117   2.350
61357W        W34425  37.891  44.726  13.011
61358W        W34426  22.498  21.591  10.513
61359W        W34427   5.705  30.486  12.892
61360W        W34428  21.827  16.707   0.478
61361W        W34429  44.460  19.084  14.427
61362W        W34430  32.357  39.291  13.474
61363W        W34431  42.372   2.949  13.946
61364W        W34432  40.194  39.821  11.043
61365W        W34433  32.416  12.342  13.909
61366W        W34434   5.671  22.126   1.842
61367W        W34435  30.883  14.744   3.707
61368W        W34436  21.757  43.516  10.643
61369W        W34437  28.653  39.512  13.077
61370W        W34438  35.382  12.032  12.412
61371W        W34439  32.891  18.206  11.060
61372W        W34440   1.358   6.942  14.540
61373W        W34441  27.970  19.505  13.461
61374W        W34442  12.250  30.495  12.867
61375W        W34443  23.771  25.163  12.102
61376W        W34444   6.414  18.591   4.579
61377W        W34445   6.374  36.771   3.968
61378W        W34446  31.342  26.059   2.358
61379W        W34447  39.540  41.157  12.371
61380W        W34448  22.998   1.750   0.966
61381W        W34449  18.766  17.263  11.586
61382W        W34450  35.081  37.280  10.970
61383W        W34451  20.148  42.795   2.251
61384W        W34452  35.740  14.058   1.817
61385W        W34453  16.139  43.215  12.372
61386W        W34454  40.463  27.021   2.213
61387W        W34455  22.334   3.115  10.826
61388W        W34456  15.588  22.050   4.034
61389W        W34457  21.710   7.310   0.216
61390W        W34458   8.458  30.268   1.136
61391W        W34459  13.485  11.796  10.777
61392W        W34460  22.726  28.785   1.215
61393W        W34461  27.550  20.821  14.967
61394W        W34462   5.170   2.900  13.008
61395W        W34463  42.724  20.830   2.780
61396W        W34464  36.547   3.004  11.939
61397W        W34465  13.422  12.119   1.335
61398W        W34466  32.889   1.683  10.607
61399W        W34467  39.963  32.603  11.536
61400W        W34468  30.454  24.058   1.321
61401W        W34469   3.676  14.301   4.978
61402W        W34470   4.536  34.391  13.556
61403W        W34471  33.093  41.787  14.899
61404W        W34472  25.911  10.371  11.336
61405W        W34473  40.398  23.721  11.592
61406W        W34474  15.415  18.643  11.188
61407W        W34475  39.207  17.666  12.403
61408W        W34476  36.967   0.881   4.642
61409W        W34477  35.657  34.249   1.390
61410W        W34478  28.183   4.557   4.667
61411W        W34479   7.856  14.334  10.697
61412W        W34480   7.272  18.184   1.663
61413W        W34481  43.314  12.871   1.901
61414W        W34482  34.043   5.247  10.433
61415W        W34483  13.833  38.745   3.649
61416W        W34484  24.995   3.258  11.928
61417W        W34485  15.081   0.766   1.403
61418W        W34486   9.844  36.653  13.978
61419W        W34487  22.707  35.805  12.019
61420W        W34488  34.038  12.538  11.996
61421W        W34489  19.103  39.253   3.224
61422W        W34490   9.699  12.268   4.289
61423W        W34491  28.539  41.811   1.368
61424W        W34492  43.626   1.387   0.388
61425W        W34493  18.697  10.913  13.191
61426W        W34494  29.564  35.868  10.737
61427W        W34495  42.080   6.165  13.398
61428W        W34496  11.181   5.481  11.605
61429W        W34497   3.854  10.687   0.471
61430W        W34498   2.374  37.413  11.618
61431W        W34499  35.714   8.051  11.970
61432W        W34500  20.600   9.730   0.289
61433W        W34501  21.523  10.911  13.237
61434W        W34502  30.190  22.203   4.371
61435W        W34503  25.517  39.070  11.716
61436W        W34504  17.452  27.694   2.317
61437W        W34505  40.164  20.134   2.647
61438W        W34506  31.237  32.911   0.335
61439W        W34507   8.900  36.896   2.282
61440W        W34508  17.758  37.385  14.430
61441W        W34509   4.850  23.597  13.056
61442W        W34510  37.268  11.642  14.345
61443W        W34511  44.450  17.361   3.281
61444W        W34512  41.617   2.550   2.312
61445W        W34513  27.136  13.277  13.911
61446W        W34514   7.795  18.328   3.704
61447W        W34515   7.618  15.032   3.549
61448W        W34516   3.414  10.744  14.046
61449W        W34517  34.773   9.673  12.967
61450W        W34518  23.898   4.343   2.417
61451W        W34519  22.982  19.542   0.526
61452W        W34520  43.813  22.912   3.590
61453W        W34521  11.069  27.207  14.805
61454W        W34522  15.654   4.744  14.672
61455W        W34523  44.905  26.625  13.721
61456W        W34524   4.667   6.230   0.423
61457W        W34525  28.511   0.926  14.313
61458W        W34526  12.834  18.060   0.948
61459W        W34527  39.621  40.450   0.781
61460W        W34528   8.483  30.654   0.431
61461W        W34529   6.231   9.724   2.676
61462W        W34530  35.683  44.909   2.243
61463W        W34531  21.654  29.786  13.007
61464W        W34532   9.816  18.257  13.324
61465W        W34533   9.121  38.847  13.347
61466W        W34534   9.791  23.273  13.847
61467W        W34535   0.388  10.959  12.098
61468W        W34536  15.758  18.203   2.745
61469W        W34537   8.147  20.512  11.829
61470W        W34538  41.986  19.214   9.628
61471W        W34539  29.952  42.775   2.820
61472W        W34540  41.558  34.837  14.577
61473W        W34541  37.095   5.821  11.146
61474W        W34542   8.075  34.064  11.447
61475W        W34543  17.521  13.332   2.295
61476W        W34544  40.583  29.491   4.808
61477W        W34545  10.953  40.386   4.650
61478W        W34546   2.017  40.285  14.907
61479W        W34547  10.569   8.271   1.442
61480W        W34548  34.911   9.262  12.007
61481W        W34549  38.039  29.625   0.653
61482W        W34550  35.138  13.732  13.897
61483W        W34551   3.940  16.089   2.872
61484W        W34552  19.272  14.858   1.648
61485W        W34553  18.574  34.112  10.624
61486W        W34554  22.297  25.541  12.861
61487W        W34555  31.671  41.250  11.126
61488W        W34556  38.982  34.161  13.929
61489W        W34557  36.449  39.061  12.572
61490W        W34558  22.000  26.008   2.291
61491W        W34559  20.009  28.729  14.863
61492W        W34560  33.876  17.994   3.789
61493W        W34561   0.383  14.550  11.231
61494W        W34562  23.129  44.225  14.329
61495W        W34563  12.720  40.859   1.737
61496W        W34564  18.125  25.531  12.919
61497W        W34565  36.923  14.625   1.901
61498W        W34566  13.032  22.074   3.626
61499W        W34567  26.206  34.980   0.453
61500W        W34568  39.250  18.278   1.365
61501W        W34569  21.853  43.553   2.753
61502W        W34570  41.909  43.959   4.628
61503W        W34571  18.714  13.704   1.049
61504W        W34572   2.249  21.155  11.636
61505W        W34573   4.839   9.557   0.344
61506W        W34574  22.012  32.649   0.662
61507W        W34575  20.932   9.845   3.238
61508W        W34576  14.165  19.579   3.179
61509W        W34577   4.512  11.550  10.682
61510W        W34578  26.327  32.826  12.499
61511W        W34579  15.328   5.673   0.930
61512W        W34580   0.034   5.033  11.561
61513W        W34581  44.873   6.445  13.605
61514W        W34582  17.665  43.772   1.199
61515W        W34583  35.046  20.096   1.809
61516W        W34584  19.559  18.701  14.928
61517W        W34585  20.373  44.648   1.430
61518W        W34586  16.616  10.285   1.979
61519W        W34587  40.494   9.365   3.839
61520W        W34588  27.181   3.700   3.823
61521W        W34589  37.001  14.807  12.898
61522W        W34590  41.014   9.896   2.937
61523W        W34591  41.308  10.920   3.678
61524W        W34592   0.423   9.659   1.328
61525W        W34593   5.531  42.240  11.458
61526W        W34594  15.628  44.501   1.873
61527W        W34595   3.348  33.453   1.311
61528W        W34596  30.556  19.349   2.663
61529W        W34597  41.207   5.934  13.492
61530W        W34598  21.227  24.484  13.604
61531W        W34599  34.158  25.407   2.788
61532W        W34600   7.451  30.542  11.544
61533W        W34601   7.981   7.826   4.554
61534W        W34602   3.342  44.243  14.364
61535W        W34603   8.383   9.817  14.529
61536W        W34604  40.973   6.615  11.141
61537W        W34605  33.641   8.869   1.759
61538W        W34606  22.519  42.034  12.474
61539W        W34607   7.870  10.637  11.937
61540W        W34608  17.215  33.556   0.363
61541W        W34609   8.572  27.109   2.702
61542W        W34610  22.487   3.955   2.784
61543W        W34611  32.345  19.018  13.236
61544W        W34612  44.967   8.089  11.242
61545W        W34613  12.238  27.016   3.246
61546W        W34614  16.742  25.529   4.176
61547W        W34615  23.784  44.009  11.939
61548W        W34616   0.378  26.403  14.677
61549W        W34617   4.570   3.617  12.464
61550W        W34618  28.393  20.186   2.834
61551W        W34619   7.356   3.264  13.821
61552W        W34620  31.658  30.430   2.346
61553W        W34621   3.753  23.523   2.946
61554W        W34622   5.099   6.183  11.518
61555W        W34623  38.876  16.011  11.469
61556W        W34624  24.000  14.560  12.469
61557W        W34625  15.652  41.470   1.838
61558W        W34626  29.197   9.707   3.561
61559W        W34627  21.738   2.538  12.010
61560W        W34628   4.435  31.583   0.801
61561W        W34629  44.588  17.647  13.029
61562W        W34630  18.160  37.250   4.848
61563W        W34631  22.101   1.901   1.143
61564W        W34632  34.856  15.576   2.589
61565W        W34633   2.563  27.774  11.346
61566W        W34634  23.375  40.903   1.270
61567W        W34635  34.329  40.349  14.963
61568W        W34636  39.114   8.991   4.168
61569W        W34637   6.700   5.407  11.096
61570W        W34638   2.698  15.652   2.712
61571W        W34639  14.523  28.435  14.501
61572W        W34640   9.238   1.025   1.878
61573W        W34641   9.902  14.739   3.692
61574W        W34642   4.795  36.914   0.406
61575W        W34643  37.038  13.364  14.200
61576W        W34644   9.305  13.116  14.532
61577W        W34645   3.320  30.068   0.575
61578W        W34646  41.476  13.800  10.876
61579W        W34647  38.312  18.249   0.498
61580W        W34648   0.011  18.810  10.683
61581W        W34649   1.996   1.700  11.554
61582W        W34650  24.549  33.562   3.719
61583W        W34651  16.583  27.553   0.235
61584W        W34652  26.421  17.292  14.848
61585W        W34653   4.858  41.730  13.474
61586W        W34654  18.008  31.549   3.863
61587W        W34655   8.236  15.466  12.664
61588W        W34656  33.498  36.661   1.777
61589W        W34657  22.377   3.709  11.312
61590W        W34658  17.789   5.314   1.924
61591W        W34659  28.567   4.156  12.547
61592W        W34660  21.690  13.158   1.873
61593W        W34661  24.770  22.230   1.778
61594W        W34662  24.169  17.043  11.788
61595W        W34663  34.981  39.978   3.378
61596W        W34664  22.662  44.813   2.252
61597W        W34665  22.157  25.038  12.078
61598W        W34666  19.071  42.249  13.469
61599W        W34667  40.082  34.393   1.301
61600W        W34668   3.633  37.931  10.449
61601W        W34669  42.165  27.782  12.826
61602W        W34670  32.093  11.760  11.887
61603W        W34671  33.856  34.501  11.144
61604W        W34672  38.872  34.577  10.276
61605W        W34673  24.283  17.313   2.833
61606W        W34674   7.296  35.991   2.102
61607W        W34675  23.557  10.427  12.551
61608W        W34676  38.625  38.285  11.912
61609W        W34677  28.876  19.676  13.065
61610W        W34678  32.447  39.292   1.747
61611W        W34679  44.218  14.294  14.991
61612W        W34680  41.710  33.487   3.337
61613W        W34681  19.524  42.172  12.007
61614W        W34682  27.076  24.431   2.418
61615W        W34683  10.711  34.834  13.968
61616W        W34684   7.410  34.946   1.714
61617W        W34685  40.763   8.316   0.970
61618W        W34686   6.925  13.222   1.949
61619W        W34687  34.327  19.144   1.153
61620W        W34688  39.677  42.326  13.412
61621W        W34689  12.634  31.478   0.690
61622W        W34690   4.932  17.635   0.468
61623W        W34691  40.343  12.466   2.706
61624W        W34692  38.013  41.652  14.887
61625W        W34693  16.521  29.915   1.941
61626W        W34694  16.805  41.504  12.390
61627W        W34695  23.701  12.259  11.609
61628W        W34696  37.494   0.965  14.095
61629W        W34697  35.840  26.479   1.352
61630W        W34698  30.943  37.840  12.535
61631W        W34699  17.871  22.574  11.415
61632W        W34700  42.374   6.478  14.968
61633W        W34701   0.487  42.517  14.819
61634W        W34702  31.441  22.073  10.720
61635W        W34703  28.511  11.651  11.828
61636W        W34704  25.528   2.893   0.887
61637W        W34705  14.788  30.402  14.467
61638W        W34706  27.418  14.197   4.595
61639W        W34707   5.281  16.126   0.323
61640W        W34708  39.358  23.329  14.908
61641W        W34709  22.559  14.506   2.825
61642W        W34710  41.206  14.833   4.043
61643W        W34711  36.535  37.656  13.153
61644W        W34712  42.195  34.928  12.472
61645W        W34713  20.150  24.565   1.514
61646W        W34714  37.628  29.567   1.605
61647W        W34715  44.276  19.315   3.192
61648W        W34716  34.029  31.719  11.023
61649W        W34717   7.429   0.946   3.689
61650W        W34718  10.911  15.531   3.499
61651W        W34719  16.753   3.948  11.886
61652W        W34720  15.900  11.162   3.643
61653W        W34721   8.700   9.882   1.375
61654W        W34722  12.810   5.192  11.413
61655W        W34723  32.151  41.989  11.588
61656W        W34724  11.151  20.803   4.098
61657W        W34725  43.279   8.202  12.443
61658W        W34726  39.879  43.458  13.777
61659W        W34727  15.914  38.026   1.454
61660W        W34728  34.414  29.394   0.178
61661W        W34729  26.709  30.162  11.588
61662W        W34730  12.734   5.695  13.330
61663W        W34731  34.344  21.516   2.675
61664W        W34732  15.091   2.428  14.789
61665W        W34733   2.438  31.112  13.463
61666W        W34734  21.163  36.007  11.623
61667W        W34735  34.881   0.426   3.585
61668W        W34736   3.382  41.047   2.478
61669W        W34737  31.304   1.133  10.463
61670W        W34738  38.669  43.056  14.934
61671W        W34739   2.750   8.950  10.801
61672W        W34740  41.024  21.771  12.020
61673W        W34741  40.949  16.673  13.783
61674W        W34742   8.468  30.758  13.943
61675W        W34743   2.727   4.302  12.154
61676W        W34744  18.820   6.078  12.067
61677W        W34745   9.085  33.206  13.576
61678W        W34746  21.256  21.120   3.633
61679W        W34747  31.413  16.142  13.499
61680W        W34748  17.753  26.718   4.281
61681W        W34749  27.929  42.483  14.461
61682W        W34750  24.114  26.070   3.361
61683W        W34751  31.119   5.535  13.343
61684W        W34752  28.951  27.616  10.778
61685W        W34753  41.429  22.245  11.530
61686W        W34754  37.266  40.761  12.912
61687W        W34755  26.330  15.562   4.568
61688W        W34756  20.649  14.600  12.056
61689W        W34757  14.947  26.698   4.882
61690W        W34758   8.889   5.751   0.796
61691W        W34759   7.343  21.727  14.456
61692W        W34760  41.400  17.455  11.650
61693W        W34761  18.859  13.617   2.009
61694W        W34762   7.759  12.334  11.257
61695W        W34763  34.083  33.679  14.001
61696W        W34764   8.980  19.289  10.742
61697W        W34765  21.252   8.923  11.103
61698W        W34766  21.242  30.659  12.339
61699W        W34767  32.611  18.299  14.729
61700W        W34768  23.470  35.608   1.985
61701W        W34769  41.783  39.438  11.561
61702W        W34770  12.902  25.145   0.353
61703W        W34771   4.870   2.909   2.354
61704W        W34772  25.301   1.201   2.243
61705W        W34773  41.725  33.136   1.682
61706W        W34774   9.277  14.276  11.701
61707W        W34775  14.026  24.113  12.616
61708W        W34776  30.475  43.329   1.762
61709W        W34777  14.885  32.522  14.036
61710W        W34778  40.785   4.979  12.616
61711W        W34779  17.759  33.858   4.194
61712W        W34780  15.762  14.645   3.801
61713W        W34781   8.245  18.284  10.947
61714W        W34782  35.134  14.510   2.767
61715W        W34783  25.717   3.759   1.295
61716W        W34784  26.155  15.264   1.361
61717W        W34785  40.636  35.010  13.992
61718W        W34786  26.510   3.038  13.066
61719W        W34787  13.174  35.002  13.852
61720W        W34788  39.088  18.867   2.354
61721W        W34789   6.373  16.499  14.417
61722W        W34790  24.869  10.666  10.039
61723W        W34791  10.685  43.297   0.153
61724W        W34792  14.660   0.156  11.639
61725W        W34793  12.414  17.244   2.902
61726W        W34794   4.877  19.915   4.023
61727W        W34795   0.905  29.650   4.069
61728W        W34796  33.306  43.044   0.479
61729W        W34797  41.951  20.974  12.549
61730W        W34798   1.361   9.149   4.908
61731W        W34799  33.198  37.395   4.511
61732W        W34800   7.319  19.649  11.964
61733W        W34801   5.666   0.885  13.517
61734W        W34802  22.624  22.627   4.038
61735W        W34803  30.531  21.937  10.787
61736W        W34804  25.413  16.513  12.682
61737W        W34805  14.153   0.746   1.889
61738W        W34806   3.866  18.170  11.600
61739W        W34807   7.869  17.841  14.777
61740W        W34808  10.928  38.403  13.514
61741W        W34809  16.096  36.906   0.656
61742W        W34810   0.801  39.696   3.179
61743W        W34811  28.880  22.354  10.693
61744W        W34812  41.214  28.215  13.779
61745W        W34813  36.374   0.399   1.268
61746W        W34814  17.685  20.759  10.603
61747W        W34815  33.138  19.089  10.926
61748W        W34816   5.409   0.668   0.668
61749W        W34817   8.262   3.153  10.896
61750W        W34818  17.130  32.362  13.300
61751W        W34819  16.489  18.864   0.906
61752W        W34820  30.164  23.275  13.426
61753W        W34821  41.802  18.720   3.082
61754W        W34822  37.646  22.091   3.413
61755W        W34823  40.918  42.795   2.800
61756W        W34824  30.692   0.342   1.287
61757W        W34825  44.920  44.896   2.353
61758W        W34826  19.182  24.984  12.505
61759W        W34827   0.761   0.312   4.597
61760W        W34828   7.665  22.792  12.752
61761W        W34829  28.037  39.967  13.428
61762W        W34830   0.318  35.877   0.447
61763W        W34831   4.439  34.527   3.594
61764W        W34832  28.688   0.197  13.632
61765W        W34833  22.555  40.975  11.089
61766W        W34834  32.058  36.317  14.033
61767W        W34835  43.327  20.292  12.380
61768W        W34836   4.737  40.354  13.590
61769W        W34837   1.797  20.144  10.778
61770W        W34838  22.311  39.912  10.364
61771W        W34839  10.230  41.017   2.972
61772W        W34840  37.222  38.804  11.155
61773W        W34841  30.432  33.127  12.118
61774W        W34842  17.623  28.018   4.290
61775W        W34843  38.538  40.616  11.571
61776W        W34844   7.643  43.324   4.035
61777W        W34845  11.172  16.552  14.496
61778W        W34846   8.102  25.035   3.606
61779W        W34847  27.439  31.947   4.398
61780W        W34848   5.438  35.894   3.475
61781W        W34849  26.208  34.308  12.574
61782W        W34850   9.585  15.612   0.813
61783W        W34851  43.515  21.945  11.507
61784W        W34852  15.813  16.633   4.531
61785W        W34853  23.751  31.660   2.290
61786W        W34854  44.867  27.174   0.097
61787W        W34855  29.106  16.093   2.676
61788W        W34856   0.446  17.903  13.989
61789W        W34857   5.419  17.630   1.725
61790W        W34858  20.587  24.559   2.410
61791W        W34859  27.952   5.699   1.549
61792W        W34860  28.963   6.656   2.432
61793W        W34861   8.559  22.463  13.913
61794W        W34862  22.630  40.922  10.159
61795W        W34863  39.047   7.397  11.162
61796W        W34864   3.060  28.863  13.909
61797W        W34865  19.946  43.377   0.967
61798W        W34866  20.275  40.121  14.414
61799W        W34867  26.046  30.401   4.176
61800W        W34868  26.988  22.326  11.099
61801W        W34869  22.579  42.523   1.351
61802W        W34870  40.463  28.949  13.124
61803W        W34871  34.297  19.277  14.887
61804W        W34872  27.157  14.048   4.149
61805W        W34873   1.367  43.021   3.098
61806W        W34874  40.019  33.050  14.254
61807W        W34875  27.540  10.877   2.951
61808W        W34876  23.730  41.327  10.664
61809W        W34877  18.564  38.523   4.897
61810W        W34878   9.827  44.336   1.348
61811W        W34879  24.612  15.724   2.225
61812W        W34880   2.662   0.759   0.291
61813W        W34881  42.018  43.333   5.007
61814W        W34882  21.482  33.638  13.683
61815W        W34883   5.793  33.034   3.412
61816W        W34884   4.679  36.701   2.621
61817W        W34885  21.171   0.095   2.401
61818W        W34886  34.607  18.557   1.675
61819W        W34887  19.159  21.677   0.893
61820W        W34888   4.914   9.611   4.497
61821W        W34889  24.847  34.971  13.927
61822W        W34890  41.386   4.945  10.662
61823W        W34891  22.970  23.686   1.756
61824W        W34892  11.165  39.555   3.951
61825W        W34893  26.466  11.235   1.563
61826W        W34894  37.045  35.610  11.652
61827W        W34895  24.708  14.305   0.666
61828W        W34896  14.046  20.612   0.940
61829W        W34897  41.795   9.751   4.338
61830W        W34898   2.347  22.672  14.877
61831W        W34899  40.784   9.380  12.552
61832W        W34900   9.428  15.103   2.952
61833W        W34901  28.088  14.807  10.836
61834W        W34902   4.625  10.230   2.377
61835W        W34903   6.953  17.536  11.521
61836W        W34904  31.095  30.519   0.673
61837W        W34905   7.710  44.970  14.593
61838W        W34906  18.344  35.603  14.521
61839W        W34907   6.202  34.987  11.508
61840W        W34908  39.526  21.275   1.365
61841W        W34909   6.247   0.319  12.341
61842W        W34910   8.642   4.798  14.962
61843W        W34911  37.542  43.337   0.332
61844W        W34912  40.356  11.911   0.085
61845W        W34913  10.314  17.784  11.057
61846W        W34914  42.495  11.316   4.254
61847W        W34915  30.304  12.370   2.792
61848W        W34916  16.323  30.930  10.940
61849W        W34917  31.965  17.322   3.415
61850W        W34918  15.142  27.305  14.575
61851W        W34919  15.753  19.774   4.817
61852W        W34920  10.671  38.236   0.850
61853W        W34921  15.560  27.916   2.290
61854W        W34922  19.654  29.950   4.682
61855W        W34923   4.705  25.615   0.667
61856W        W34924   7.262  32.964  11.150
61857W        W34925  20.780  12.461   0.381
61858W        W34926  30.513   7.312   1.384
61859W        W34927  42.552   1.912   1.797
61860W        W34928  33.520   8.609  14.941
61861W        W34929  25.537  24.899  12.056
61862W        W34930  17.632  30.503   3.145
61863W        W34931  32.673  36.386   4.566
61864W        W34932   8.771  17.001   4.215
61865W        W34933  43.188  44.361   1.939
61866W        W34934  15.224  20.343   2.296
61867W        W34935  22.127  15.646   0.899
61868W        W34936  15.579  28.484   1.434
61869W        W34937   6.204  33.085  11.233
61870W        W34938   2.400  10.363   2.632
61871W        W34939   9.395  35.399  11.920
61872W        W34940  40.850  27.504   1.291
61873W        W34941  13.508  21.271   1.420
61874W        W34942  12.069  43.310   0.860
61875W        W34943   8.275  38.737   4.131
61876W        W34944  23.399  21.048  13.833
61877W        W34945  39.392  17.882  14.016
61878W        W34946  36.798   8.328  12.218
61879W        W34947  19.718  14.195  11.035
61880W        W34948   6.889  32.934  14.779
61881W        W34949   4.467  11.374  14.276
61882W        W34950  10.830  16.604   5.014
61883W        W34951  22.598  42.484  14.980
61884W        W34952  31.376  21.088  11.179
61885W        W34953  14.998  36.090   4.141
61886W        W34954  11.832   7.365  11.589
61887W        W34955   8.257  43.501   1.405
61888W        W34956   5.192  42.469   4.322
61889W        W34957  22.674  28.709  13.363
61890W        W34958  38.108  41.319   3.349
61891W        W34959  29.587  30.341   9.826
61892W        W34960   7.642  28.624   0.839
61893W        W34961  31.341   5.239   3.703
61894W        W34962  43.198  40.442  10.804
61895W        W34963   0.297   4.306  13.629
61896W        W34964  28.448  37.976   4.831
61897W        W34965  38.344  15.256  11.487
61898W        W34966  35.563  33.118   0.828
61899W        W34967   6.001  20.472   3.820
61900W        W34968   8.439  31.471   2.723
61901W        W34969  33.411   2.690  12.941
61902W        W34970  12.046  16.384  12.380
61903W        W34971  20.213  20.545   4.276
61904W        W34972  16.274  17.816   3.770
61905W        W34973   6.931   7.316   2.311
61906W        W34974  13.635  10.849   4.416
61907W        W34975  13.163   3.647   1.265
61908W        W34976  16.690  22.860   4.833
61909W        W34977   4.892  29.280  12.820
61910W        W34978  23.692   8.123  12.031
61911W        W34979  31.050  22.216  14.933
61912W        W34980  22.852  17.033   4.174
61913W        W34981   1.328  14.103   1.605
61914W        W34982  31.171  10.118   0.737
61915W        W34983  14.888  19.056  14.869
61916W        W34984  31.912  36.909   4.765
61917W        W34985  35.591  24.707  14.919
61918W        W34986  34.993  43.270   3.845
61919W        W34987   6.235  34.645   1.249
61920W        W34988   5.337  26.000   1.714
61921W        W34989  41.301  19.251  10.442
61922W        W34990  11.782  11.800  11.016
61923W        W34991  40.090  40.334  12.118
61924W        W34992   0.002  33.480   0.771
61925W        W34993  35.977  43.890  14.298
61926W        W34994   2.231  34.024  11.147
61927W        W34995  24.582   2.138   3.156
61928W        W34996  26.910  16.700   0.281
61929W        W34997   1.491  12.155  14.296
61930W        W34998  26.711  36.427   3.332
61931W        W34999  30.188  16.554   2.811
61932W        W35000  36.826   6.271  10.393
61933W        W35001   9.775  18.479   4.404
61934W        W35002  32.630   6.186  11.178
61935W        W35003  18.876  29.572   4.920
61936W        W35004  27.406  14.711  13.008
61937W        W35005   6.742  38.816   2.017
61938W        W35006  22.645  33.588   1.768
61939W        W35007   6.528  37.053   4.814
61940W        W35008  28.676   9.560  14.973
61941W        W35009  18.307  13.303   0.003
61942W        W35010  36.967  42.431   4.150
61943W        W35011  19.352  20.432  11.431
61944W        W35012  37.355  26.987  11.825
61945W        W35013  32.627  38.003   3.325
61946W        W35014   3.383  15.526  11.865
61947W        W35015  27.409  43.565   4.815
61948W        W35016  22.495  20.115   4.065
61949W        W35017  28.291  30.418  11.154
61950W        W35018  40.815  10.641   1.497
61951W        W35019  40.225   8.401   5.403
61952W        W35020   0.052  40.582  13.785
61953W        W35021  34.907   6.362  13.734
61954W        W35022  43.600  19.814  12.002
61955W        W35023  30.964  30.942   0.338
61956W        W35024   7.295  27.523  12.650
61957W        W35025  38.769  15.201   4.569
61958W        W35026  14.277   8.886   0.500
61959W        W35027  29.643  22.966   1.650
61960W        W35028  17.221  44.972   3.846
61961W        W35029  23.615  43.781  12.495
61962W        W35030  17.101  35.796   0.765
61963W        W35031  30.683  26.214  12.011
61964W        W35032  13.288  35.132   3.277
61965W        W35033  10.198  21.084  13.532
61966W        W35034  12.833   3.976   2.209
61967W        W35035  40.849  25.544  11.686
61968W        W35036  20.562  17.079   2.658
61969W        W35037  10.335  38.473  12.075
61970W        W35038   6.912  18.588  10.789
61971W        W35039  36.870  33.960   9.793
61972W        W35040   9.129  26.555  10.583
61973W        W35041  37.301  15.785  11.170
61974W        W35042  14.781  29.497  14.626
61975W        W35043  36.072  35.559  10.410
61976W        W35044  34.042  33.552   2.341
61977W        W35045  19.576  44.761   3.685
61978W        W35046   2.510   8.737  13.073
61979W        W35047  34.162  36.100  13.113
61980W        W35048  29.012  44.280   4.586
61981W        W35049   0.757  44.312  13.368
61982W        W35050  37.715  22.193  12.455
61983W        W35051  28.619  21.241  13.905
61984W        W35052  37.542  28.217   2.785
61985W        W35053  39.328  30.984  13.267
61986W        W35054  34.829  29.036   0.130
61987W        W35055  41.061  40.363  14.887
61988W        W35056  37.881  19.249  11.544
61989W        W35057  43.093  44.349   5.083
61990W        W35058  22.971  32.518  12.659
61991W        W35059  43.965  35.958  13.287
61992W        W35060  44.210   1.702   2.478
61993W        W35061  31.398  37.410   4.051
61994W        W35062  34.405  14.791  12.315
61995W        W35063  13.920  27.900   0.856
61996W        W35064  17.425  13.448  12.329
61997W        W35065  10.319  42.874  14.671
61998W        W35066  28.600  10.963   4.057
61999W        W35067  43.854  39.715   4.342
62000W        W35068  41.807  18.108  13.888
62001W        W35069   4.899  30.444   4.231
62002W        W35070  23.278  34.407  10.673
62003W        W35071  20.794  37.939   4.171
62004W        W35072  12.998  25.504   1.831
62005W        W35073  27.287   1.404  14.307
62006W        W35074  10.320  12.988  13.608
62007W        W35075   6.442  44.322  10.752
62008W        W35076  34.677  10.167   3.661
62009W        W35077  19.134  31.398  12.072
62010W        W35078   6.397  44.994  11.950
62011W        W35079  37.458  36.207   0.372
62012W        W35080  24.046   8.881   0.366
62013W        W35081   9.381  19.897  11.978
62014W        W35082  41.418   6.676   4.249
62015W        W35083  19.957  24.122  13.906
62016W        W35084   9.066  22.527  13.783
62017W        W35085  17.661  29.067  10.493
62018W        W35086  13.418  41.594   3.307
62019W        W35087  37.488   6.916  13.051
62020W        W35088  14.124  33.446   0.749
62021W        W35089  17.257   9.669   2.409
62022W        W35090  29.582  30.453  11.554
62023W        W35091   4.230  42.576   0.621
62024W        W35092   6.500   6.191  10.387
62025W        W35093  10.240   2.425  13.359
62026W        W35094  28.310  28.770  11.647
62027W        W35095  22.146  13.331   3.993
62028W        W35096  32.406  44.772   1.791
62029W        W35097  16.032   0.490   3.156
62030W        W35098  18.184  38.311   1.634
62031W        W35099  31.436  21.416   4.601
62032W        W35100  23.512   8.298  10.830
62033W        W35101   3.163   0.614   0.409
62034W        W35102  18.575  42.396   2.683
62035W        W35103  35.048  28.690   4.300
62036W        W35104  33.119  40.877   4.387
62037W        W35105  43.804  22.263   4.887
62038W        W35106  25.581  37.089   0.055
62039W        W35107  41.996   1.313  14.235
62040W        W35108  18.417  16.047   0.415
62041W        W35109  40.873  18.334  14.740
62042W        W35110   9.118  12.826   3.701
62043W        W35111  41.868  43.189   4.240
62044W        W35112  39.334   7.953  13.163
62045W        W35113  33.111  42.782   4.278
62046W        W35114   0.148  13.683   0.379
62047W        W35115  36.464  20.672  14.803
62048W        W35116   1.810  41.311  13.057
62049W        W35117  36.768  33.093  12.992
62050W        W35118  19.650  35.497  13.993
62051W        W35119  31.978   3.202  11.628
62052W        W35120  23.590   6.916  14.392
62053W        W35121  10.702  25.243   5.408
62054W        W35122  32.839  11.588   3.201
62055W        W35123   9.648  36.423   3.001
62056W        W35124  44.982  38.376   2.825
62057W        W35125  27.778  12.827   9.961
62058W        W35126  16.142  29.661   0.793
62059W        W35127  35.535  37.509  11.112
62060W        W35128  14.308  10.277  12.469
62061W        W35129  16.227   0.269   0.957
62062W        W35130  40.589  43.747   3.739
62063W        W35131   2.864  30.937  12.901
62064W        W35132  42.799  15.730  14.493
62065W        W35133  10.813  18.844   3.827
62066W        W35134  20.223   8.707  14.297
62067W        W35135   2.582  39.482  11.653
62068W        W35136  25.896  33.874   0.757
62069W        W35137  11.266  38.882  11.330
62070W        W35138  16.156  18.361  11.722
62071W        W35139  13.708   3.407   4.557
62072W        W35140  39.904  33.946  12.760
62073W        W35141  15.284  22.840   1.408
62074W        W35142   8.404  41.335   1.545
62075W        W35143  29.429  40.364   0.888
62076W        W35144  35.509   0.999  13.550
62077W        W35145  23.432   2.295  13.347
62078W        W35146  21.951  28.437   1.352
62079W        W35147   5.265  19.746   2.387
62080W        W35148  29.058  29.833  11.193
62081W        W35149  23.853  30.526   4.127
62082W        W35150  20.958   3.351  12.539
62083W        W35151   8.820  11.747  10.702
62084W        W35152  34.922  21.157   3.695
62085W        W35153  26.375  42.284   4.128
62086W        W35154  15.735  27.419   0.801
62087W        W35155  38.243  34.130  14.357
62088W        W35156  19.573   3.709  13.966
62089W        W35157   9.289   2.605  11.711
62090W        W35158  29.469  34.213   0.746
62091W        W35159   0.397  44.889  12.863
62092W        W35160  11.139  30.601  11.521
62093W        W35161  29.953  23.995  14.487
62094W        W35162   2.209  39.427  11.281
62095W        W35163  34.998  44.287   3.726
62096W        W35164  40.353  26.534  14.287
62097W        W35165   0.487  29.908   2.769
62098W        W35166   8.458   2.186  13.873
62099W        W35167  27.298  40.544   4.381
62100W        W35168  44.785  40.573  12.370
62101W        W35169  31.573   2.827  13.773
62102W        W35170  16.590  21.467  14.886
62103W        W35171  38.593   5.190   4.847
62104W        W35172  34.138  40.798  14.776
62105W        W35173  20.527   3.707  11.620
62106W        W35174  34.036  12.517   0.749
62107W        W35175  20.093  38.814  11.615
62108W        W35176  38.910  16.061   4.082
62109W        W35177  42.383  32.648  13.522
62110W        W35178  25.449  23.953  13.487
62111W        W35179   9.429  39.292  10.098
62112W        W35180  35.514  13.908  14.928
62113W        W35181  17.835  21.318  14.835
62114W        W35182  17.234  33.079   2.316
62115W        W35183  11.230  12.175   0.480
62116W        W35184  10.756  33.484   2.202
62117W        W35185  28.900  31.022  13.610
62118W        W35186  31.623  31.619   2.698
62119W        W35187   4.973  32.501  13.086
62120W        W35188  19.701  44.553  14.310
62121W        W35189  39.181  26.010   9.727
62122W        W35190  15.593  12.678  13.092
62123W        W35191  43.541  19.045   1.710
62124W        W35192  42.990  38.548   0.220
62125W        W35193   0.834  13.390  14.075
62126W        W35194  37.390   7.417  12.227
62127W        W35195   4.799  24.571   1.587
62128W        W35196  15.574  13.728   4.598
62129W        W35197  39.360  39.631   2.802
62130W        W35198  31.357  40.872   3.740
62131W        W35199   7.273  12.723  11.630
62132W        W35200  41.063  35.552  14.822
62133W        W35201  19.655  21.299  14.879
62134W        W35202   2.873  13.401  13.454
62135W        W35203   0.744  24.543  13.484
62136W        W35204  37.307  10.575   5.067
62137W        W35205  39.140  12.127   1.317
62138W        W35206  25.501  31.153  12.933
62139W        W35207  29.035  26.507   0.699
62140W        W35208  35.952  35.083   2.393
62141W        W35209   7.815  29.678  11.996
62142W        W35210   5.388   7.408   1.670
62143W        W35211  39.592  28.683  13.471
62144W        W35212  12.388   5.265   2.971
62145W        W35213  10.109   8.649  12.595
62146W        W35214  17.383   1.402   2.750
62147W        W35215  20.202  23.090   1.473
62148W        W35216  26.972  31.170   3.847
62149W        W35217  16.769  38.611   0.908
62150W        W35218  33.695  29.598  11.144
62151W        W35219  15.040   5.870  13.444
62152W        W35220  27.399  16.565   3.303
62153W        W35221  42.384  19.265   1.536
62154W        W35222   2.475  26.111  11.140
62155W        W35223  25.295  31.326  12.427
62156W        W35224  34.340  40.827   1.234
62157W        W35225  22.042  26.819  12.893
62158W        W35226  34.417  36.549  12.393
62159W        W35227   3.942  19.835   4.982
62160W        W35228  34.478  24.612  14.836
62161W        W35229  38.849  42.012   1.885
62162W        W35230   2.367  34.945  13.348
62163W        W35231  32.131  32.917   1.914
62164W        W35232  30.575  26.516  10.750
62165W        W35233  18.329  41.767  12.625
62166W        W35234   3.817   1.992  11.612
62167W        W35235  37.982  33.838   2.253
62168W        W35236  16.726  38.088   0.902
62169W        W35237  20.731  35.080   4.021
62170W        W35238  44.006  22.629   2.328
62171W        W35239  14.693   8.618  12.975
62172W        W35240  29.028  28.072   3.268
62173W        W35241  14.112  39.889  13.580
62174W        W35242  38.480  17.633   2.777
62175W        W35243  32.528  11.074   1.264
62176W        W35244  39.242  36.648   0.855
62177W        W35245  14.746  15.635   0.800
62178W        W35246  23.832  10.648   1.279
62179W        W35247   8.646  37.930   2.379
62180W        W35248  18.328  37.197  13.085
62181W        W35249  10.730  16.126  11.442
62182W        W35250  16.690   2.291   4.627
62183W        W35251  44.835  30.959  14.020
62184W        W35252   6.070   0.944   2.837
62185W        W35253   3.446  37.365  14.335
62186W        W35254  27.472  24.555   0.750
62187W        W35255  16.560  18.697  11.921
62188W        W35256  18.491  20.771  12.254
62189W        W35257   6.878   6.886   4.519
62190W        W35258  41.150  30.086   0.436
62191W        W35259  19.607  39.747   2.717
62192W        W35260  30.098  30.314  11.482
62193W        W35261  14.741  34.744   3.230
62194W        W35262   7.657  38.233   3.688
62195W        W35263  21.726   6.737  14.583
62196W        W35264  36.822  30.590  11.002
62197W        W35265  43.504  39.845   3.190
62198W        W35266  29.733   8.015   4.930
62199W        W35267  20.088  39.539  13.549
62200W        W35268  37.575  20.157  10.748
62201W        W35269   5.402  23.964  14.030
62202W        W35270  32.788  31.594   3.578
62203W        W35271  37.572  44.404   1.781
62204W        W35272   5.464  44.904  12.092
62205W        W35273  24.435  13.086   2.375
62206W        W35274  23.060  24.663  12.187
62207W        W35275   4.750  16.517  11.652
62208W        W35276   5.335  29.617   1.660
62209W        W35277  29.850  36.272   4.743
62210W        W35278  18.041   1.719  10.699
62211W        W35279  28.731  17.048  10.795
62212W        W35280   9.071  32.628   0.941
62213W        W35281   4.166   6.868   0.748
62214W        W35282  35.362  37.587  12.496
62215W        W35283   7.696  16.079   3.210
62216W        W35284  27.075  37.910   4.161
62217W        W35285  14.207  10.855   3.237
62218W        W35286  30.532   9.898  13.789
62219W        W35287  37.804  33.401   1.044
62220W        W35288   5.309   3.371   1.826
62221W        W35289  22.139  41.770   2.311
62222W        W35290   9.217  17.634   0.871
62223W        W35291  39.618   1.543   1.803
62224W        W35292  38.920   8.770   1.873
62225W        W35293  41.304  16.703   2.887
62226W        W35294  18.210  10.327   2.321
62227W        W35295  23.047  29.844   2.645
62228W        W35296  35.677  19.768   2.765
62229W        W35297  31.082  36.582  12.974
62230W        W35298  40.979   5.435  10.899
62231W        W35299  25.830   6.317  14.912
62232W        W35300   1.656  27.579   2.825
62233W        W35301  41.208  30.694   1.879
62234W        W35302  39.066  32.693  10.604
62235W        W35303  33.143   5.632   1.293
62236W        W35304   3.969  12.310  14.365
62237W        W35305  39.483   5.082   2.861
62238W        W35306  20.184  28.138  10.807
62239W        W35307   9.801  29.913  12.395
62240W        W35308  21.503  21.292   1.483
62241W        W35309  18.588  21.175   1.210
62242W        W35310  32.527  31.488  11.226
62243W        W35311   5.349  32.084  14.867
62244W        W35312  44.590   6.016   3.659
62245W        W35313  16.391   9.646   2.221
62246W        W35314  42.347  27.491   2.279
62247W        W35315  41.238  15.300  14.443
62248W        W35316  42.938  17.058  10.736
62249W        W35317  35.808  42.078  14.874
62250W        W35318  26.034  26.172   4.590
62251W        W35319  28.026   7.492   4.013
62252W        W35320  28.042  22.305   0.393
62253W        W35321   2.380   3.045  13.447
62254W        W35322   8.194  40.795   3.218
62255W        W35323  15.295  30.499   1.291
62256W        W35324  34.431  40.810  10.607
62257W        W35325  24.755  40.396  10.239
62258W        W35326  13.925  21.534   3.348
62259W        W35327  27.502  36.768  11.168
62260W        W35328  23.241  21.061   3.196
62261W        W35329  39.937  11.253  14.368
62262W        W35330  31.854  40.486  14.025
62263W        W35331  23.206  15.114  12.070
62264W        W35332  34.447  41.769  11.684
62265W        W35333  22.533  13.123   4.903
62266W        W35334  22.097  30.028   1.183
62267W        W35335   4.602  16.747   0.955
62268W        W35336   5.313  27.185   2.164
62269W        W35337   9.329   6.755  13.443
62270W        W35338   8.780  32.187   2.394
62271W        W35339  24.424  34.567   1.435
62272W        W35340  15.693   7.374   1.442
62273W        W35341   1.672  32.527  12.591
62274W        W35342  28.539  21.981  13.265
62275W        W35343  28.063  24.691  13.420
62276W        W35344  35.000  10.152   4.517
62277W        W35345  19.941  35.782  11.018
62278W        W35346  43.123   3.849   1.546
62279W        W35347  22.243  26.739   1.769
62280W        W35348  12.325   8.373   3.293
62281W        W35349  35.631  30.931  13.919
62282W        W35350  28.368  40.914  11.206
62283W        W35351  28.915   2.316  14.358
62284W        W35352   4.890  20.483   2.816
62285W        W35353  39.151  12.367   2.683
62286W        W35354   8.661  35.165  14.334
62287W        W35355  23.269  39.414  12.392
62288W        W35356  36.397  33.954  14.373
62289W        W35357  22.075   8.642   1.720
62290W        W35358  28.225  11.167  11.565
62291W        W35359  15.857  32.636  14.914
62292W        W35360  16.359   4.195   1.861
62293W        W35361  44.847  17.957  14.841
62294W        W35362  17.586  31.579   3.139
62295W        W35363  19.283  40.048   1.824
62296W        W35364  15.074   3.964  11.155
62297W        W35365  28.480  22.525   4.851
62298W        W35366  38.830  10.512   2.095
62299W        W35367  24.256  38.120  10.268
62300W        W35368   0.782  16.138  11.679
62301W        W35369   9.201  40.457   3.663
62302W        W35370  11.171  38.719   3.310
62303W        W35371  35.872   4.896   2.224
62304W        W35372  31.853  34.520  12.563
62305W        W35373   6.881  12.650   2.677
62306W        W35374  32.051  25.201   3.229
62307W        W35375  40.336   0.681  12.952
62308W        W35376  36.064   7.194   3.625
62309W        W35377   4.487  14.770   1.867
62310W        W35378  37.810  32.609  13.571
62311W        W35379   1.606  26.244  14.861
62312W        W35380  44.381  16.362   4.287
62313W        W35381  22.385  28.985  12.152
62314W        W35382   3.630   2.853  13.951
62315W        W35383  17.839  27.567   4.391
62316W        W35384  19.233  43.341  11.920
62317W        W35385   1.501  30.416   3.207
62318W        W35386  17.786  21.125  12.944
62319W        W35387  34.951   2.290   3.222
62320W        W35388   7.711  11.542  12.384
62321W        W35389   9.704  18.125   0.334
62322W        W35390   0.493  38.650   1.357
62323W        W35391  26.049  35.916   2.316
62324W        W35392  14.863   6.362  10.769
62325W        W35393  15.397  12.425   1.759
62326W        W35394  25.673   3.218   3.199
62327W        W35395  15.977  27.585   2.286
62328W        W35396  42.223  40.500   4.072
62329W        W35397   2.137   8.873  14.935
62330W        W35398  44.183  13.684  11.586
62331W        W35399   3.977  11.557  12.908
62332W        W35400   2.475  10.038  11.583
62333W        W35401   9.826   6.935   0.987
62334W        W35402   4.742  27.031  10.639
62335W        W35403  11.367   2.066  11.237
62336W        W35404  33.495  42.769   1.745
62337W        W35405  40.009  13.560   0.459
62338W        W35406  40.613   8.005   1.380
62339W        W35407  24.233  31.552   3.313
62340W        W35408  40.044   2.074   3.883
62341W        W35409  13.307  21.261   2.622
62342W        W35410   1.819  12.206  13.863
62343W        W35411  36.154   5.682  11.552
62344W        W35412  40.996   4.613  14.877
62345W        W35413  36.897   5.331  14.004
62346W        W35414  40.323  37.646  10.555
62347W        W35415   3.469  39.544  14.353
62348W        W35416   6.184  24.375   2.653
62349W        W35417  24.654  33.142   0.769
62350W        W35418  20.177  41.896   4.834
62351W        W35419  32.836   6.853   2.287
62352W        W35420  29.686   8.603   1.365
62353W        W35421  42.048  41.520   0.278
62354W        W35422  17.842  37.528   1.703
62355W        W35423   9.097  41.978  12.242
62356W        W35424   0.015  26.240   2.700
62357W        W35425  25.748  20.035  14.388
62358W        W35426   0.115  43.819   4.145
62359W        W35427  20.743  22.069   0.438
62360W        W35428  17.272   4.864  13.262
62361W        W35429  27.055   2.681   4.573
62362W        W35430  23.043   0.750   2.789
62363W        W35431  25.540  36.496  10.464
62364W        W35432  17.738  43.305   1.405
62365W        W35433  41.412  22.509   2.386
62366W        W35434  34.037  14.409   5.082
62367W        W35435   0.889   6.996   1.935
62368W        W35436   6.796   3.326   1.201
62369W        W35437  22.527  29.021  10.542
62370W        W35438  18.197  17.733   3.228
62371W        W35439   5.993  16.810   1.795
62372W        W35440  32.827  44.475   4.158
62373W        W35441  38.441  39.548  14.038
62374W        W35442   9.246   8.833  10.649
62375W        W35443   8.415  22.231   2.251
62376W        W35444  30.661   8.800   4.998
62377W        W35445   6.678   1.770   0.030
62378W        W35446  26.674  39.451   3.141
62379W        W35447  10.240  13.508  14.439
62380W        W35448  21.670   8.439   3.723
62381W        W35449  21.659  38.277  11.871
62382W        W35450  28.405  35.842   2.249
62383W        W35451  41.863  32.060   1.369
62384W        W35452  38.571  33.299   1.795
62385W        W35453  37.238   7.798   0.864
62386W        W35454  24.105  32.125   4.499
62387W        W35455  18.828  22.550  13.605
62388W        W35456  41.803   1.465  13.373
62389W        W35457  42.090  10.757  13.044
62390W        W35458   1.449  18.009  11.920
62391W        W35459   6.391  22.496   3.226
62392W        W35460   5.520   2.475  12.083
62393W        W35461  36.715  32.397  14.799
62394W        W35462  29.370  32.520  11.863
62395W        W35463  12.389   8.231  13.410
62396W        W35464  12.643   2.444   1.900
62397W        W35465   0.038  34.494   2.818
62398W        W35466  41.799   6.862   4.547
62399W        W35467  39.476  40.563  10.525
62400W        W35468  33.466  18.771  10.687
62401W        W35469   4.488  33.123  14.354
62402W        W35470   2.318  26.094   1.301
62403W        W35471  21.199  19.394  13.259
62404W        W35472   8.755  39.913  10.916
62405W        W35473  14.741   2.752   0.480
62406W        W35474  35.667  19.117   1.266
62407W        W35475  24.077  11.079  13.312
62408W        W35476  31.390  37.442   3.035
62409W        W35477  28.284   2.294   2.537
62410W        W35478   0.788  12.066   1.278
62411W        W35479  38.596   5.387  10.565
62412W        W35480  14.823  42.147  10.680
62413W        W35481  37.344  37.127   3.465
62414W        W35482  38.585  30.317  13.230
62415W        W35483  14.445   3.338  13.374
62416W        W35484  18.080  20.956  11.213
62417W        W35485  13.256  33.997   0.380
62418W        W35486  22.461  31.904   0.778
62419W        W35487  29.022  39.968   4.578
62420W        W35488  29.250  18.117  14.846
62421W        W35489   0.482   0.837   3.774
62422W        W35490  33.925   4.302  10.588
62423W        W35491  28.031  13.773  11.492
62424W        W35492  21.570  11.111   2.890
62425W        W35493  13.618  24.627   3.251
62426W        W35494  11.680  13.264   4.580
62427W        W35495   7.029  24.981  11.994
62428W        W35496  14.105  26.117  12.544
62429W        W35497   2.501  40.949  12.410
62430W        W35498  10.741  43.398  11.992
62431W        W35499  42.229  27.493  11.599
62432W        W35500   6.464   1.050   2.285
62433W        W35501  36.590  11.554  14.975
62434W        W35502  43.399  18.961  14.255
62435W        W35503  40.896   9.116  11.160
62436W        W35504  24.552  40.202  12.337
62437W        W35505  21.151  20.277   2.791
62438W        W35506  37.851  26.930  11.943
62439W        W35507   0.463   0.577  11.855
62440W        W35508  27.723  13.154   2.148
62441W        W35509   0.285  12.398   0.639
62442W        W35510  18.318  29.041   1.420
62443W        W35511   0.367   6.122   0.255
62444W        W35512   7.272  27.380  11.020
62445W        W35513  28.887  32.347  11.941
62446W        W35514  26.006  37.535  13.099
62447W        W35515  11.492  36.178   3.867
62448W        W35516  14.117  40.789   1.297
62449W        W35517  13.292  39.530   3.640
62450W        W35518  40.891  36.961  14.384
62451W        W35519  27.059  41.335   1.343
62452W        W35520  14.094   7.928  13.809
62453W        W35521  13.201  12.864  14.499
62454W        W35522  28.999  11.876   0.182
62455W        W35523  31.379   1.420  14.888
62456W        W35524   2.394  22.728   1.391
62457W        W35525  44.330  28.513  11.675
62458W        W35526  39.506  36.990  14.950
62459W        W35527  34.991  29.076  12.928
62460W        W35528  42.737  31.637   3.060
62461W        W35529  12.571   7.639  13.889
62462W        W35530  14.269  10.355  11.621
62463W        W35531  29.143  41.820  12.646
62464W        W35532   1.351  38.840   0.325
62465W        W35533  17.703  19.925   4.577
62466W        W35534   7.795   4.520   1.802
62467W        W35535  27.366  33.806  10.959
62468W        W35536  34.288  13.190   1.259
62469W        W35537   0.727  40.226   3.229
62470W        W35538   6.818  12.350   4.736
62471W        W35539   7.354  40.462  13.036
62472W        W35540  33.016  11.893   2.275
62473W        W35541  11.333  24.198   2.661
62474W        W35542  28.164  13.466   4.573
62475W        W35543  30.099  10.846  12.982
62476W        W35544   9.750   4.896  12.852
62477W        W35545   8.392  12.162  13.379
62478W        W35546   0.860  19.801  13.882
62479W        W35547  12.183  34.654   1.766
62480W        W35548  10.192   3.498   3.307
62481W        W35549  36.448  39.595   3.531
62482W        W35550  22.037  37.071   0.875
62483W        W35551   5.197   4.311  11.187
62484W        W35552  42.997  36.075   4.428
62485W        W35553  16.725  29.515   0.727
62486W        W35554  28.758   8.113   4.670
62487W        W35555  32.459   4.940  12.939
62488W        W35556  20.188   7.699  14.358
62489W        W35557   2.992  22.265  13.555
62490W        W35558   4.438   2.692  12.513
62491W        W35559  44.345   7.677   1.477
62492W        W35560  12.159  13.975  11.682
62493W        W35561  41.780  26.072   3.319
62494W        W35562   5.754  44.137   0.781
62495W        W35563   0.557  40.340   4.532
62496W        W35564  42.706  16.332  13.938
62497W        W35565  29.049   9.141   4.847
62498W        W35566  40.104  30.516   2.737
62499W        W35567  38.086  34.966   1.212
62500W        W35568  25.667  24.414  13.528
62501W        W35569  42.767   0.873  11.519
62502W        W35570  16.732  41.633   3.351
62503W        W35571  14.297  39.351  11.929
62504W        W35572   4.684  41.770   1.824
62505W        W35573  16.365  41.364   3.014
62506W        W35574  10.659   5.837   3.178
62507W        W35575  28.086   4.847   1.017
62508W        W35576  19.201  31.431  14.243
62509W        W35577  10.184   5.103   4.303
62510W        W35578  31.374  44.918   1.717
62511W        W35579  31.131  30.062   1.440
62512W        W35580  29.489  21.031  10.733
62513W        W35581  41.399  34.451   1.420
62514W        W35582  42.234  13.523   0.385
62515W        W35583  37.594  39.821   2.262
62516W        W35584   7.985   2.161   3.942
62517W        W35585  24.709  17.231   9.948
62518W        W35586  40.440   0.053   1.506
62519W        W35587   6.317  40.661   1.799
62520W        W35588   1.257  41.590   0.741
62521W        W35589  30.290  33.882   1.423
62522W        W35590  40.830  15.051   0.292
62523W        W35591  11.951  41.252  14.079
62524W        W35592  33.955  10.737  11.125
62525W        W35593  24.586  14.281  14.265
62526W        W35594  26.654   8.926  11.538
62527W        W35595  39.174   3.786   4.097
62528W        W35596  30.956  44.936   0.815
62529W        W35597   7.709  19.210  11.508
62530W        W35598  44.747  42.322  14.442
62531W        W35599  43.004   4.662   3.323
62532W        W35600  18.850  21.207  12.814
62533W        W35601  24.922  36.398   0.624
62534W        W35602  13.039  37.828   0.970
62535W        W35603  13.207  36.000   1.175
62536W        W35604  15.119   2.780  12.389
62537W        W35605   1.505  42.930   4.038
62538W        W35606  37.474  20.126   1.588
62539W        W35607  18.757   8.367  12.181
62540W        W35608   1.757   5.276  13.979
62541W        W35609  29.889  23.146   2.887
62542W        W35610  40.086  15.392  13.898
62543W        W35611   1.552  37.912  12.467
62544W        W35612   3.380  30.825  12.874
62545W        W35613  10.799  15.578   0.032
62546W        W35614  29.623  28.213   3.694
62547W        W35615   2.802  32.983   4.444
62548W        W35616   9.940  25.765   3.696
62549W        W35617  36.384  31.683   3.740
62550W        W35618  22.855  42.127   1.659
62551W        W35619   9.241  21.112  14.448
62552W        W35620  42.200   9.267  10.596
62553W        W35621  35.171   4.685   1.565
62554W        W35622  38.591  43.065   3.303
62555W        W35623  42.416   3.987   2.849
62556W        W35624   3.832  44.977  11.000
62557W        W35625  44.674  30.189   1.859
62558W        W35626  32.980   3.100  11.518
62559W        W35627  14.132  17.341   1.658
62560W        W35628   3.959  25.150   1.276
62561W        W35629  17.555  18.690   4.065
62562W        W35630  17.310  13.333   3.776
62563W        W35631   7.880  21.295   4.437
62564W        W35632   7.111  29.911  12.873
62565W        W35633  10.564  17.986  12.502
62566W        W35634  16.063  10.267   0.814
62567W        W35635  40.517  11.355   4.157
62568W        W35636  31.547  16.081   1.669
62569W        W35637  24.462  25.885   0.812
62570W        W35638  35.375  36.007  10.574
62571W        W35639  37.818  23.392   3.893
62572W        W35640  34.512  37.249  14.303
62573W        W35641  12.985  10.677  12.553
62574W        W35642   9.931  14.397  12.990
62575W        W35643   3.792  14.441   0.092
62576W        W35644  44.278  15.134   0.971
62577W        W35645  19.519  12.002  11.607
62578W        W35646  23.697  15.604  10.969
62579W        W35647  37.118  38.837   1.209
62580W        W35648  41.362  15.750   0.453
62581W        W35649  34.753  22.268   0.934
62582W        W35650  31.027  26.020   3.686
62583W        W35651  39.892  12.294  10.359
62584W        W35652   3.008  32.640  14.347
62585W        W35653   3.767   8.142   2.819
62586W        W35654  37.184  43.869  12.124
62587W        W35655  41.803  17.089   0.821
62588W        W35656  30.070  11.292   1.950
62589W        W35657   8.377  14.250  11.337
62590W        W35658  32.486   8.997  13.864
62591W        W35659  13.522  34.429   3.252
62592W        W35660   8.227  23.563  10.672
62593W        W35661   0.309  18.105   1.415
62594W        W35662   7.349  21.750  11.996
62595W        W35663   2.562  27.258   2.761
62596W        W35664  40.904   6.126   3.719
62597W        W35665  31.167   5.289   1.223
62598W        W35666  40.105  21.827  12.013
62599W        W35667   7.411  19.088   2.027
62600W        W35668  23.451  28.054   0.488
62601W        W35669  13.094   5.411  12.729
62602W        W35670  10.492  27.659   9.902
62603W        W35671  24.808  32.506  12.854
62604W        W35672  41.468  35.160   2.246
62605W        W35673  25.568  26.087  11.444
62606W        W35674  36.333  39.235  11.871
62607W        W35675  27.920  38.339  11.169
62608W        W35676  29.467  24.123  14.023
62609W        W35677  39.355  14.713   3.485
62610W        W35678  39.586   9.300   2.172
62611W        W35679  21.815  10.191  13.570
62612W        W35680   9.334  40.519   2.317
62613W        W35681   5.954   2.374   2.624
62614W        W35682  20.720  26.585   4.897
62615W        W35683   0.499  36.188  12.581
62616W        W35684   8.644  23.150   0.348
62617W        W35685  42.470  18.304  11.967
62618W        W35686  27.930  11.822  14.523
62619W        W35687  18.302  27.642   4.235
62620W        W35688  23.876   7.449   3.353
62621W        W35689   5.910  43.452  11.497
62622W        W35690   6.230  15.905   4.127
62623W        W35691  22.803   0.168   1.498
62624W        W35692  29.240  22.510  13.348
62625W        W35693  24.087  43.906   2.742
62626W        W35694   8.878  26.396  12.886
62627W        W35695  28.139   2.887   4.336
62628W        W35696  26.580  31.186  13.129
62629W        W35697  11.621  10.537  13.425
62630W        W35698   1.030  13.744  12.289
62631W        W35699   2.954   8.722  11.900
62632W        W35700  42.320  21.955   2.347
62633W        W35701  29.142   8.267   3.890
62634W        W35702  40.339  24.478   4.017
62635W        W35703  31.926   4.272   3.141
62636W        W35704  19.772  31.087   4.656
62637W        W35705   7.158  44.479   4.425
62638W        W35706  15.285  11.088   1.431
62639W        W35707  22.990  38.068   1.244
62640W        W35708  26.612  34.954   1.398
62641W        W35709  42.261   6.851  11.600
62642W        W35710  30.168  43.837   2.977
62643W        W35711  17.116  11.845   3.123
62644W        W35712   5.254   7.283  11.242
62645W        W35713  30.008  32.412   1.646
62646W        W35714  15.273  22.075   0.929
62647W        W35715  28.128  26.162  14.925
62648W        W35716   5.676   5.787   0.910
62649W        W35717  31.536  33.633   0.991
62650W        W35718   1.432   1.502  13.955
62651W        W35719   3.466  40.070  13.152
62652W        W35720  11.256  37.997   4.329
62653W        W35721  13.905  31.052   0.858
62654W        W35722  40.409  32.599  12.521
62655W        W35723  39.824   8.259  11.149
62656W        W35724  11.763  24.288  13.956
62657W        W35725  29.308  43.047  10.287
62658W        W35726   0.374  10.530  13.815
62659W        W35727  19.792   3.189   3.854
62660W        W35728  43.287  25.400  12.435
62661W        W35729   5.313  39.972   2.951
62662W        W35730  26.851   9.308   2.667
62663W        W35731  12.303  27.915  14.319
62664W        W35732  21.313   7.383  10.105
62665W        W35733  34.054   6.265  13.776
62666W        W35734   9.744  43.342  11.015
62667W        W35735   3.018   8.829  12.866
62668W        W35736  19.795  20.610   3.064
62669W        W35737   9.313  33.608  11.613
62670W        W35738  14.506  22.680   4.923
62671W        W35739   1.623  39.935  10.733
62672W        W35740  20.146  18.888  14.544
62673W        W35741  29.356  17.278   2.122
62674W        W35742  30.516  12.838   0.438
62675W        W35743  25.936  29.598  14.511
62676W        W35744  43.421   0.471  12.114
62677W        W35745  16.556  22.696  11.001
62678W        W35746  20.524  24.982  11.642
62679W        W35747   3.066   5.833   1.016
62680W        W35748   3.692  41.048   1.851
62681W        W35749  35.073  29.001   2.056
62682W        W35750  16.224   8.895  11.819
62683W        W35751  40.540  39.424   4.599
62684W        W35752  40.942   9.198   1.777
62685W        W35753   7.828  30.937   2.899
62686W        W35754   7.110  31.111  12.401
62687W        W35755  37.161  12.227   2.281
62688W        W35756  22.430  19.257   1.230
62689W        W35757  17.740   4.045   3.326
62690W        W35758  24.426  31.926   4.126
62691W        W35759  21.580   3.339   0.777
62692W        W35760  37.336  24.104  11.703
62693W        W35761   8.192  35.618  11.085
62694W        W35762  38.433  40.748   0.642
62695W        W35763  31.071  44.493   1.743
62696W        W35764  20.736  21.573   3.049
62697W        W35765  19.349  24.160  11.414
62698W        W35766  13.217  16.779  14.973
62699W        W35767  23.380  43.858  12.998
62700W        W35768  40.346  42.848  14.094
62701W        W35769  26.622   4.643  14.952
62702W        W35770  20.909  44.951  12.625
62703W        W35771   1.241   3.997   0.300
62704W        W35772  42.545  20.991   2.331
62705W        W35773  26.657  41.844   2.173
62706W        W35774  21.046   8.261   0.338
62707W        W35775  32.585  38.795   4.634
62708W        W35776  24.355  27.128   3.607
62709W        W35777   4.179   1.169   4.577
62710W        W35778  18.538  24.684   4.448
62711W        W35779  10.452  18.244   3.249
62712W        W35780  34.216  27.136   3.621
62713W        W35781   3.708  20.131   3.301
62714W        W35782  38.388   1.137  10.692
62715W        W35783   0.794  33.635  14.685
62716W        W35784  26.914   3.719  13.536
62717W        W35785   9.174  34.547   1.608
62718W        W35786  25.928  43.338   1.917
62719W        W35787  36.528  11.118   0.972
62720W        W35788   6.980   0.864   1.950
62721W        W35789  17.378  38.726  14.298
62722W        W35790  26.556  26.060  10.645
62723W        W35791  43.725  42.044   3.188
62724W        W35792  19.630  28.246   2.325
62725W        W35793  13.140   5.232  14.420
62726W        W35794   8.673  20.330  11.622
62727W        W35795  11.082  11.115   2.852
62728W        W35796   6.372   0.460  12.815
62729W        W35797   8.736  15.592   1.907
62730W        W35798  35.806  32.585   5.206
62731W        W35799   0.716  43.118   4.671
62732W        W35800  23.942  13.672   2.620
62733W        W35801   2.902  26.211   4.577
62734W        W35802  34.470   2.221   3.421
62735W        W35803  13.135  27.470   0.924
62736W        W35804  43.195   8.707  14.048
62737W        W35805  20.827   9.146  14.613
62738W        W35806  33.972  35.313   4.319
62739W        W35807  33.988  24.433  14.754
62740W        W35808  17.319  32.923  10.973
62741W        W35809  11.398  24.916   3.273
62742W        W35810  11.710  27.177   2.326
62743W        W35811   7.656  22.660   3.636
62744W        W35812  44.721  23.806  13.827
62745W        W35813  22.853  34.457   0.242
62746W        W35814   3.889  36.602  10.729
62747W        W35815  20.757   6.391   0.523
62748W        W35816  40.311  11.178   3.689
62749W        W35817  21.915  44.721   4.495
62750W        W35818  21.436   2.707   3.295
62751W        W35819  26.404   1.251  11.218
62752W        W35820  19.566  25.417   1.283
62753W        W35821   8.627  15.654   4.639
62754W        W35822   3.790  26.258   3.907
62755W        W35823   2.691  37.128  13.944
62756W        W35824  16.591  36.571  11.223
62757W        W35825   4.459   5.213  11.953
62758W        W35826  14.113  29.136  13.419
62759W        W35827  20.559  33.115  11.982
62760W        W35828  32.161  29.471  11.133
62761W        W35829  27.709  24.223  12.024
62762W        W35830   0.833  20.107   3.620
62763W        W35831   2.433  42.530  11.996
62764W        W35832  20.769  12.875   1.893
62765W        W35833  36.075  24.539  14.026
62766W        W35834  30.284  42.117  12.044
62767W        W35835  16.477   7.222  13.845
62768W        W35836  19.747  37.009  14.387
62769W        W35837  25.872  19.892   0.717
62770W        W35838  34.164  16.630  13.808
62771W        W35839   2.385  35.909  12.386
62772W        W35840   1.034   5.706  10.337
62773W        W35841  18.674  13.138   2.788
62774W        W35842  29.512  28.779  12.207
62775W        W35843  15.222  40.368   3.265
62776W        W35844   3.873  16.821   2.573
62777W        W35845  44.540  26.305   0.027
62778W        W35846   0.726  42.270  12.568
62779W        W35847   9.381  31.973  10.000
62780W        W35848  29.628  41.044   3.246
62781W        W35849  39.861  11.297   2.307
62782W        W35850  36.092  37.385   0.808
62783W        W35851  39.649  33.818  14.081
62784W        W35852   7.232  37.430   3.631
62785W        W35853  24.046   9.305  14.589
62786W        W35854   6.561  33.841  11.666
62787W        W35855  24.421   1.451  11.981
62788W        W35856  33.361   3.942  10.761
62789W        W35857  11.849  34.057   2.694
62790W        W35858  16.640  39.100   1.907
62791W        W35859  31.963  20.613  10.822
62792W        W35860  39.414  25.438  11.885
62793W        W35861  18.275  15.056   4.875
62794W        W35862  39.585  42.554  12.948
62795W        W35863  40.545  40.710   4.581
62796W        W35864  10.562  34.174  14.824
62797W        W35865  11.814   0.897   1.784
62798W        W35866  24.251  40.931   1.200
62799W        W35867   1.789  13.651   3.327
62800W        W35868  41.141  29.586  13.605
62801W        W35869  16.215  43.847  13.591
62802W        W35870  39.261   7.357  10.671
62803W        W35871  21.651  28.484  13.761
62804W        W35872  32.433  24.653  10.802
62805W        W35873   5.132  34.018  11.488
62806W        W35874  19.679  31.226   2.391
62807W        W35875  23.595  33.587  10.540
62808W        W35876  18.726  12.721  13.961
62809W        W35877  34.579  36.451  13.814
62810W        W35878   8.269   6.600  14.567
62811W        W35879  34.361   7.843   2.463
62812W        W35880  15.258  15.210  12.375
62813W        W35881  24.507  28.031   4.383
62814W        W35882  35.201  29.507  11.170
62815W        W35883  37.988  28.485   2.899
62816W        W35884   8.445  44.133   2.828
62817W        W35885  22.604  16.887   0.813
62818W        W35886  22.293  16.859  13.456
62819W        W35887  28.688  13.321   3.117
62820W        W35888  22.550  22.459   1.482
62821W        W35889  11.257   8.415   1.829
62822W        W35890   0.470  37.927  14.128
62823W        W35891  24.099  10.921   2.710
62824W        W35892  21.653  26.999   4.015
62825W        W35893  24.728  14.121  12.892
62826W        W35894  27.257  16.712  11.893
62827W        W35895  34.040   8.004  14.282
62828W        W35896  20.004  35.514   1.714
62829W        W35897  44.387  23.674   1.282
62830W        W35898  22.284  29.956   2.286
62831W        W35899  27.601  38.434   4.615
62832W        W35900  44.181   6.399   1.901
62833W        W35901  29.635  20.591   2.294
62834W        W35902  11.446   9.688  13.457
62835W        W35903  34.188  24.693   3.250
62836W        W35904  32.610   5.811   4.700
62837W        W35905  38.858  37.132   4.129
62838W        W35906  25.393  17.676  11.580
62839W        W35907   8.861  38.024  13.488
62840W        W35908  30.758  32.298  13.355
62841W        W35909  41.320  15.793  10.365
62842W        W35910  28.262  29.349  14.294
62843W        W35911  24.482  28.102   4.984
62844W        W35912  15.920  22.704   0.501
62845W        W35913  28.565  10.038   1.301
62846W        W35914  16.736  38.084   3.782
62847W        W35915  30.259  43.289   3.682
62848W        W35916  24.652   3.772  11.017
62849W        W35917  25.983  32.813  14.776
62850W        W35918  23.097   2.321   5.001
62851W        W35919  39.491  35.842   3.239
62852W        W35920  42.366  26.956  14.431
62853W        W35921  39.132  15.312  14.852
62854W        W35922   1.915  43.827   1.061
62855W        W35923  38.119  31.701   4.920
62856W        W35924  35.198  12.148   1.988
62857W        W35925   6.911   6.306  12.846
62858W        W35926  38.328   5.951  12.689
62859W        W35927  40.366  17.503  13.456
62860W        W35928  25.696   2.673  12.553
62861W        W35929  11.247  38.253   0.389
62862W        W35930  11.282  27.977   2.309
62863W        W35931  25.539  26.179   0.398
62864W        W35932   8.725   8.137  12.154
62865W        W35933  31.687  20.548   1.538
62866W        W35934  17.629  36.508   4.528
62867W        W35935  19.032  12.810   4.580
62868W        W35936  34.669  35.950   2.835
62869W        W35937  30.461  34.428   2.679
62870W        W35938  39.932  13.701   4.817
62871W        W35939  44.970   0.160  12.969
62872W        W35940  28.401  26.166  14.485
62873W        W35941   9.743  16.381   0.052
62874W        W35942  11.547   8.048   4.562
62875W        W35943  23.652  18.233   3.219
62876W        W35944  18.094   4.280  10.701
62877W        W35945   7.480  18.872  12.596
62878W        W35946   7.914   3.366   1.093
62879W        W35947  28.795  42.252   1.827
62880W        W35948  38.471   1.969   3.151
62881W        W35949  41.810  14.542  10.811
62882W        W35950  43.779  41.914  10.731
62883W        W35951  27.766  18.254  10.050
62884W        W35952  10.933  42.589  13.047
62885W        W35953  35.087  25.071  14.486
62886W        W35954  41.305  39.370   1.947
62887W        W35955  25.621  40.371   0.731
62888W        W35956   8.931  42.763   1.661
62889W        W35957   8.240   3.276  10.411
62890W        W35958   0.046  11.969   3.597
62891W        W35959  14.905  32.339  11.979
62892W        W35960  23.209  29.448  12.429
62893W        W35961  12.374   4.222   2.183
62894W        W35962  30.856  20.213  11.144
62895W        W35963  26.188  20.398   2.225
62896W        W35964  24.466  27.757   2.133
62897W        W35965   6.345  32.337  13.024
62898W        W35966  10.688   0.857   0.505
62899W        W35967   5.174  26.494  13.407
62900W        W35968  41.175  28.055   0.706
62901W        W35969   3.410  23.194   3.136
62902W        W35970  13.737  36.741  13.078
62903W        W35971  36.120   8.870  12.002
62904W        W35972  41.776  16.020   0.272
62905W        W35973  40.816  33.970   2.762
62906W        W35974  15.005  33.827  10.762
62907W        W35975  34.607  32.586  12.015
62908W        W35976  37.594  18.720  14.924
62909W        W35977  17.152  13.553   4.231
62910W        W35978  39.987   6.424  10.382
62911W        W35979  19.305  29.186  13.448
62912W        W35980  18.908   0.404  11.402
62913W        W35981  21.931  19.225   4.993
62914W        W35982  22.752  25.869  10.210
62915W        W35983  23.512  27.972  13.052
62916W        W35984  13.104   0.920   4.632
62917W        W35985  11.783  25.774  14.985
62918W        W35986  10.652  22.661  11.618
62919W        W35987   4.782   7.394  11.371
62920W        W35988   1.607  21.185  12.399
62921W        W35989   9.365  28.445  12.080
62922W        W35990   5.268  30.711  12.122
62923W        W35991  30.844   1.285  11.652
62924W        W35992  25.465  38.603  11.924
62925W        W35993  16.972  30.038  14.720
62926W        W35994  34.067   2.416  10.715
62927W        W35995  12.930  13.283  11.049
62928W        W35996   0.919  13.373  11.964
62929W        W35997  32.793  37.510   3.226
62930W        W35998  42.909   7.827   2.847
62931W        W35999  10.786  36.500  12.590
62932W        W36000  39.655  28.008  12.403
62933W        W36001  30.946  10.862  11.500
62934W        W36002  28.062  31.997  14.712
62935W        W36003  10.759  36.494  13.925
62936W        W36004  39.982  20.571   3.349
62937W        W36005  40.131  43.753  14.350
62938W        W36006   8.301  18.365   4.127
62939W        W36007  37.468  31.706  10.359
62940W        W36008  29.192  13.345   4.956
62941W        W36009  28.907  40.003  14.754
62942W        W36010  23.593  35.047   4.365
62943W        W36011   8.822  37.526   4.226
62944W        W36012  43.550  12.810  14.979
62945W        W36013   8.372   1.943  14.566
62946W        W36014   9.014  18.344  10.754
62947W        W36015   9.149  44.447  10.307
62948W        W36016  25.985   2.973   2.229
62949W        W36017  44.258  10.899  12.437
62950W        W36018  37.528  33.391  10.263
62951W        W36019  10.231  24.200   3.929
62952W        W36020  36.558   0.708  12.672
62953W        W36021   0.967  31.871   4.098
62954W        W36022   9.262   2.778  14.006
62955W        W36023  19.066  37.760   4.870
62956W        W36024  43.321   4.859  13.349
62957W        W36025  12.315  30.230   4.854
62958W        W36026  18.552  18.624   4.637
62959W        W36027  10.869  33.843  11.063
62960W        W36028  14.495  27.985   3.123
62961W        W36029   5.351  14.862  14.348
62962W        W36030   1.707  40.402   2.671
62963W        W36031  14.092  17.854  12.157
62964W        W36032  20.320  35.414  11.797
62965W        W36033  22.183  43.765   5.021
62966W        W36034   0.362  26.202  10.727
62967W        W36035  37.611  14.345  10.157
62968W        W36036  40.920  32.334  11.872
62969W        W36037  37.513  22.363  14.850
62970W        W36038  11.662  29.726   3.316
62971W        W36039  44.711  21.067  10.691
62972W        W36040  25.986   6.046  12.435
62973W        W36041  37.977  14.075   3.432
62974W        W36042   4.163  27.045   0.428
62975W        W36043  41.024   0.685  10.209
62976W        W36044  27.206  34.679   4.247
62977W        W36045  44.881  31.108   2.629
62978W        W36046   9.698  34.970   1.882
62979W        W36047  42.171  41.979  14.994
62980W        W36048  18.837   7.653  14.265
62981W        W36049  16.584   0.957   0.419
62982W        W36050  20.304  21.244   2.931
62983W        W36051  12.877  36.136  11.623
62984W        W36052  26.114  15.765  12.909
62985W        W36053   5.732  17.997  13.096
62986W        W36054  29.178  25.729   2.815
62987W        W36055  24.435  11.306   4.150
62988W        W36056   0.204  27.953  11.930
62989W        W36057  44.806  17.758  13.494
62990W        W36058  19.170  12.468  14.829
62991W        W36059  15.595  13.103   3.743
62992W        W36060  34.874  39.061   4.200
62993W        W36061   7.874  37.583  12.852
62994W        W36062  21.272  17.626   2.204
62995W        W36063  41.483  38.680   1.190
62996W        W36064  41.881  43.569   3.253
62997W        W36065  28.067   9.915  10.085
62998W        W36066   1.759  32.445   0.327
62999W        W36067  38.434  17.389   4.171
63000W        W36068  42.671  16.059   1.869
63001W        W36069  38.496  13.209  12.001
63002W        W36070  43.160  34.171   1.723
63003W        W36071   7.614  38.030  12.988
63004W        W36072  43.838   9.897  13.740
63005W        W36073  44.976  42.381  13.982
63006W        W36074   5.721   3.009   4.411
63007W        W36075  41.863  25.909  12.975
63008W        W36076   6.858  19.321  13.126
63009W        W36077   4.323   1.648   2.791
63010W        W36078  22.073   0.535  13.979
63011W        W36079  13.794  16.233   0.110
63012W        W36080  38.651  26.666  11.047
63013W        W36081  33.811  14.005   0.778
63014W        W36082  24.085  33.135   1.438
63015W        W36083  29.848  21.552  11.153
63016W        W36084   2.421   4.217  12.544
63017W        W36085  31.976  16.098  10.660
63018W        W36086   0.468   6.399   4.467
63019W        W36087  19.684   4.006  12.027
63020W        W36088  41.089  12.185   0.329
63021W        W36089  33.329  37.843  10.676
63022W        W36090  38.004  38.458   2.853
63023W        W36091  24.277  35.361   4.988
63024W        W36092  16.055   6.474  12.472
63025W        W36093   4.197  17.805   1.361
63026W        W36094  31.190  34.309  11.989
63027W        W36095   8.953   5.197   3.777
63028W        W36096  16.298  18.575   0.493
63029W        W36097  28.885  17.455   1.958
63030W        W36098  40.471   2.552   2.061
63031W        W36099   1.183  10.440   0.757
63032W        W36100  23.099  19.182   9.979
63033W        W36101  41.548   3.191   3.213
63034W        W36102   8.295  23.048  12.351
63035W        W36103  26.482  15.688   1.260
63036W        W36104  31.028  13.091   3.807
63037W        W36105  10.623  20.421  12.170
63038W        W36106  31.208  16.342  13.945
63039W        W36107  30.879   8.801   1.242
63040W        W36108   8.696  42.922  10.104
63041W        W36109   2.751  37.390  13.470
63042W        W36110  18.215  38.031   2.885
63043W        W36111  12.877   7.317   0.972
63044W        W36112  15.926  35.203  13.583
63045W        W36113  15.734   0.747   4.541
63046W        W36114  24.479  32.327  14.466
63047W        W36115  28.807   9.913  10.774
63048W        W36116  32.556  34.641   1.256
63049W        W36117  30.724  37.983   3.042
63050W        W36118   0.377  19.703  13.747
63051W        W36119  22.596   4.663   2.132
63052W        W36120   0.921   6.329  12.496
63053W        W36121   5.201  43.392  12.842
63054W        W36122   1.478  40.832  14.086
63055W        W36123  39.461  44.180   1.879
63056W        W36124  11.880  14.187   1.805
63057W        W36125  20.597   0.779  11.156
63058W        W36126  27.158  14.347  14.853
63059W        W36127  17.243   1.919  14.371
63060W        W36128   2.027  42.043  14.517
63061W        W36129   6.882  19.245   3.284
63062W        W36130  33.634  11.128  11.602
63063W        W36131   7.576  13.135   0.796
63064W        W36132  19.291  15.283  13.933
63065W        W36133  37.593  20.103   3.692
63066W        W36134  30.219  10.130  14.746
63067W        W36135  17.063   6.889   1.398
63068W        W36136  42.918   4.856   1.204
63069W        W36137  44.208  21.800   1.822
63070W        W36138  10.388  20.876   3.236
63071W        W36139  17.291  30.312   4.943
63072W        W36140  21.021   9.650   0.618
63073W        W36141  44.911   4.372   3.652
63074W        W36142  36.507   9.901  12.355
63075W        W36143   4.317  44.045   2.348
63076W        W36144  32.177   3.423   0.783
63077W        W36145  40.053  18.620   1.383
63078W        W36146  16.549   7.412  10.811
63079W        W36147   1.719   3.966   1.279
63080W        W36148  13.502  17.542   0.218
63081W        W36149   5.260  34.007  12.313
63082W        W36150   0.351  21.612   2.272
63083W        W36151  43.529  37.464  11.484
63084W        W36152  41.558   2.930  11.867
63085W        W36153  38.263  31.153   0.874
63086W        W36154  39.057  28.407  14.392
63087W        W36155  29.516  23.961   2.030
63088W        W36156  23.459   2.763   4.067
63089W        W36157  39.057  26.980  12.552
63090W        W36158  14.905   4.399  11.977
63091W        W36159  32.382  28.232   4.066
63092W        W36160   3.589  36.367  14.286
63093W        W36161  25.032   6.031   3.389
63094W        W36162  10.224  24.945  11.577
63095W        W36163   6.145  33.931  11.380
63096W        W36164   0.503  11.778  12.842
63097W        W36165  13.152  42.756   2.361
63098W        W36166   0.247  34.174  11.979
63099W        W36167  35.535  11.606  13.335
63100W        W36168   2.433   5.769  13.785
63101W        W36169  20.347  43.991  10.714
63102W        W36170  32.959  14.304   2.235
63103W        W36171  23.510  26.081  12.201
63104W        W36172  37.556   0.183  10.062
63105W        W36173  26.857  33.761  12.905
63106W        W36174  24.960   5.236  12.896
63107W        W36175  17.261  15.395  10.326
63108W        W36176  17.923   7.693  12.534
63109W        W36177  30.286  26.084   2.379
63110W        W36178  20.142  39.485   1.667
63111W        W36179  29.580  37.873  12.451
63112W        W36180  17.712  44.412   2.264
63113W        W36181  35.015   0.049  11.171
63114W        W36182  11.096  31.764  10.689
63115W        W36183  22.745  36.812   4.601
63116W        W36184  16.862  22.949   3.214
63117W        W36185  23.034  44.265   9.838
63118W        W36186  11.868  44.769  13.575
63119W        W36187  26.693  30.448  11.159
63120W        W36188  34.159   0.279  10.636
63121W        W36189   1.761  12.951   2.190
63122W        W36190  16.324  11.882  11.517
63123W        W36191   8.449  25.005   3.230
63124W        W36192  29.501  32.784  13.171
63125W        W36193  31.071  24.335  10.723
63126W        W36194  18.454   2.831  13.552
63127W        W36195  26.607  16.200   4.515
63128W        W36196  34.837   9.255  13.754
63129W        W36197  28.035  42.570  13.554
63130W        W36198  35.823  27.514  11.146
63131W        W36199  39.359  35.742  14.414
63132W        W36200  28.078   8.084  11.624
63133W        W36201  42.492   7.893   1.798
63134W        W36202  27.169  11.847  11.243
63135W        W36203  19.595   6.231  14.938
63136W        W36204  23.639  33.872   2.368
63137W        W36205  20.651  20.807   4.183
63138W        W36206  42.075   8.422   4.667
63139W        W36207  11.697  11.711  13.351
63140W        W36208   3.411  23.359  14.334
63141W        W36209  19.711  12.949  10.434
63142W        W36210  29.542   9.758  13.105
63143W        W36211  34.969   9.623   0.214
63144W        W36212  13.219  10.071   1.256
63145W        W36213  42.283  34.922   1.925
63146W        W36214  25.106  44.221   3.325
63147W        W36215   6.876  22.806  13.116
63148W        W36216  11.205  17.685   3.650
63149W        W36217  23.249  35.119   3.646
63150W        W36218   8.338   4.670  13.946
63151W        W36219  41.250  31.114   3.115
63152W        W36220  11.729  33.445   0.313
63153W        W36221  13.878   2.259  12.575
63154W        W36222  33.852  32.068  14.983
63155W        W36223  14.201   2.303   0.517
63156W        W36224  26.946  17.078   3.159
63157W        W36225  13.412  17.141  13.213
63158W        W36226  14.813  43.477   2.239
63159W        W36227  26.090  41.188  12.113
63160W        W36228  36.551  34.759  14.013
63161W        W36229  35.850   3.875  13.404
63162W        W36230   8.774  10.920  13.955
63163W        W36231  37.614   5.839   5.481
63164W        W36232   5.484   3.468   3.584
63165W        W36233  16.078  43.226   0.816
63166W        W36234  27.458   5.846   0.807
63167W        W36235  25.266  12.688   2.187
63168W        W36236   3.938  18.286   4.376
63169W        W36237   6.715  32.464  10.736
63170W        W36238   0.830  18.128   1.277
63171W        W36239   1.202   0.729  11.462
63172W        W36240   9.808  22.172  10.396
63173W        W36241  25.686  31.359  12.097
63174W        W36242   9.570  25.183   4.707
63175W        W36243  40.249   7.237   9.863
63176W        W36244   8.604  40.340   2.823
63177W        W36245  11.124  39.401  12.056
63178W        W36246  24.622  42.798   4.554
63179W        W36247  32.623  42.205  12.332
63180W        W36248  10.758  37.790  11.151
63181W        W36249  44.035  14.388  14.490
63182W        W36250  31.138  44.293  12.007
63183W        W36251  39.581  22.127   4.480
63184W        W36252  44.449  37.795   0.280
63185W        W36253  40.872  15.331   0.758
63186W        W36254   8.190   3.438   3.562
63187W        W36255  41.390   8.043   4.891
63188W        W36256  33.872  41.421  12.268
63189W        W36257   9.846  24.781  13.825
63190W        W36258  38.246   5.631   3.556
63191W        W36259  39.747  44.532   3.153
63192W        W36260   2.304  41.191  13.861
63193W        W36261  36.513   1.317  10.670
63194W        W36262   5.443   2.227   3.832
63195W        W36263  14.684  33.088   3.700
63196W        W36264  43.385  44.322  11.511
63197W        W36265  16.805  41.813   3.952
63198W        W36266  22.643   9.596  10.994
63199W        W36267  24.678  28.754  14.805
63200W        W36268   8.840  28.555   0.031
63201W        W36269   6.833  18.045   1.401
63202W        W36270  32.232  41.950   4.946
63203W        W36271  33.871  11.619   1.789
63204W        W36272  10.612   8.711  10.635
63205W        W36273  11.685  43.059  10.681
63206W        W36274   8.255  16.568  10.578
63207W        W36275   3.798  43.043   0.105
63208W        W36276   1.438  28.360   1.298
63209W        W36277  19.583  28.470  14.947
63210W        W36278  42.996  31.589  14.520
63211W        W36279  25.682  14.583  10.645
63212W        W36280  38.487  20.501  11.194
63213W        W36281   9.327  29.709  11.140
63214W        W36282   5.249   8.822  10.435
63215W        W36283  28.178   1.293  14.469
63216W        W36284  16.123   2.848   3.144
63217W        W36285  42.924  15.179  13.117
63218W        W36286  37.259  15.371  14.344
63219W        W36287   1.375   8.188  12.990
63220W        W36288  37.917   3.351   1.880
63221W        W36289  33.586  32.601  14.393
63222W        W36290  25.536  19.309   3.707
63223W        W36291   1.409  16.958   3.049
63224W        W36292  16.061  39.567  12.494
63225W        W36293  44.350  16.343   3.230
63226W        W36294  27.871  12.376   3.251
63227W        W36295   6.591  15.106   1.476
63228W        W36296   6.794  36.499  12.915
63229W        W36297  25.193  12.992   1.365
63230W        W36298  39.482   7.125  11.078
63231W        W36299   8.341  13.346  12.031
63232W        W36300  32.459   9.205   0.517
63233W        W36301  37.842  25.748   3.603
63234W        W36302  41.529   0.024   1.765
63235W        W36303  16.328  34.944  13.327
63236W        W36304  15.956  16.236  11.143
63237W        W36305  27.133  42.872  12.053
63238W        W36306   0.838  25.617   3.840
63239W        W36307  38.749   5.465   3.628
63240W        W36308  18.279  16.498   1.343
63241W        W36309  28.410  30.942  13.424
63242W        W36310  17.756   8.981   2.243
63243W        W36311  43.318  30.193  14.392
63244W        W36312  14.559   0.190   4.079
63245W        W36313  29.632  12.125  11.488
63246W        W36314  23.183  28.162  14.555
63247W        W36315  43.501  42.159  11.663
63248W        W36316  21.444  17.956  13.805
63249W        W36317  36.487   7.182  11.616
63250W        W36318  38.275   9.466   1.157
63251W        W36319   6.390  41.062   4.230
63252W        W36320  30.011   9.198   4.188
63253W        W36321  31.389   6.369  10.742
63254W        W36322  19.552   6.350   1.309
63255W        W36323   0.215  33.406  13.457
63256W        W36324  17.310  27.238  13.936
63257W        W36325  33.160  14.727   0.942
63258W        W36326  30.033   8.636   4.324
63259W        W36327   1.367  37.371   2.225
63260W        W36328   2.264  43.912  12.167
63261W        W36329  27.371  32.543  13.110
63262W        W36330  37.109  44.931   3.733
63263W        W36331  32.291  37.505   3.354
63264W        W36332  28.533  26.716  10.756
63265W        W36333  37.544  22.551   3.771
63266W        W36334  28.983  23.105   4.178
63267W        W36335  28.484  35.969   4.488
63268W        W36336  24.755  35.971   1.688
63269W        W36337  16.434  38.541  12.214
63270W        W36338  12.958   9.682  12.564
63271W        W36339   8.873   3.185   2.866
63272W        W36340   2.323  23.539   1.983
63273W        W36341   1.886  33.217   3.321
63274W        W36342  17.054  10.788   0.784
63275W        W36343   6.939   8.810   1.697
63276W        W36344   1.517  28.801   4.072
63277W        W36345  18.655  23.307   3.040
63278W        W36346  42.379  16.114  11.199
63279W        W36347  15.185  33.960   4.288
63280W        W36348  34.908  18.767  11.599
63281W        W36349  28.777  25.471  13.467
63282W        W36350  27.978  39.442  11.921
63283W        W36351  40.553  20.294  13.390
63284W        W36352  35.139  23.729  12.042
63285W        W36353   5.208  30.071  11.704
63286W        W36354  14.483  40.401   1.136
63287W        W36355  14.675  43.440  12.983
63288W        W36356   7.742  44.020  14.907
63289W        W36357  33.671  25.546   5.097
63290W        W36358  33.647  20.769   3.095
63291W        W36359  33.520   8.408  10.958
63292W        W36360  43.039  15.647   2.225
63293W        W36361   5.926  27.450  11.013
63294W        W36362   6.811  12.452  11.597
63295W        W36363  25.378  32.662   3.898
63296W        W36364  33.449  43.038  12.627
63297W        W36365   0.931  26.309   4.594
63298W        W36366  12.642  13.194  10.622
63299W        W36367  30.065  27.322   3.568
63300W        W36368  24.605   2.406  11.745
63301W        W36369  12.306   5.220   2.056
63302W        W36370  34.511   2.179   0.621
63303W        W36371   3.429  28.877  12.487
63304W        W36372   9.289  29.547   3.151
63305W        W36373  22.258  18.616   0.289
63306W        W36374   2.315  18.106  12.140
63307W        W36375  32.096  41.024  11.667
63308W        W36376  38.633   0.908  12.184
63309W        W36377  32.155  20.474   0.430
63310W        W36378  31.512   3.336  13.884
63311W        W36379   5.678  33.441   1.416
63312W        W36380  31.024  24.649   3.921
63313W        W36381   2.897   9.254  11.607
63314W        W36382   5.740   8.219  14.037
63315W        W36383   0.550   8.851   4.623
63316W        W36384  34.019  25.895   2.672
63317W        W36385  27.512  38.829   3.229
63318W        W36386   9.303   8.640  14.084
63319W        W36387   0.994  25.399   0.407
63320W        W36388  21.016   1.784   0.767
63321W        W36389  18.099  28.602   1.175
63322W        W36390   8.190  32.079  13.509
63323W        W36391  12.853  43.545  11.199
63324W        W36392   3.047  20.574   4.757
63325W        W36393   4.171   1.191  13.913
63326W        W36394  15.867  32.162   0.682
63327W        W36395  27.605  11.848  14.122
63328W        W36396  19.558  43.614  12.211
63329W        W36397  18.235  42.883   4.427
63330W        W36398  18.593  14.626  13.952
63331W        W36399  28.535   0.290  11.698
63332W        W36400  24.149  19.583   5.519
63333W        W36401  22.588  10.253   2.139
63334W        W36402  10.228  26.272  10.969
63335W        W36403  41.770  44.894  10.794
63336W        W36404   1.046  15.014  13.672
63337W        W36405   9.763  32.687   4.257
63338W        W36406  13.692  23.468   2.864
63339W        W36407  17.091  16.032   3.567
63340W        W36408  19.747  13.981  13.413
63341W        W36409   7.949  15.868  14.404
63342W        W36410  43.748  44.204  12.493
63343W        W36411  39.581   9.142   4.029
63344W        W36412  37.389  38.875  10.154
63345W        W36413  42.451  29.561  13.199
63346W        W36414  44.980   9.626   4.226
63347W        W36415  13.063  37.817  12.103
63348W        W36416  17.533  28.998  12.902
63349W        W36417  33.645   7.265  14.397
63350W        W36418  33.318  22.794   3.253
63351W        W36419  14.049   6.642   0.490
63352W        W36420  13.236  34.365   4.433
63353W        W36421  10.862  34.141   3.740
63354W        W36422  32.854   0.433   3.282
63355W        W36423  38.930   5.601   4.732
63356W        W36424  43.523   5.425  11.910
63357W        W36425  23.604  19.517   3.713
63358W        W36426  15.626   7.519  13.645
63359W        W36427  21.097   2.106  10.255
63360W        W36428  30.589  18.636   0.754
63361W        W36429  15.062  39.244  10.488
63362W        W36430  22.792  39.020  11.091
63363W        W36431  37.821   7.120   4.151
63364W        W36432  35.904  33.467  11.570
63365W        W36433  15.332  41.020  12.397
63366W        W36434   6.204  24.609  14.917
63367W        W36435  42.393  35.042   0.860
63368W        W36436  23.530  34.914   3.244
63369W        W36437  39.013  38.382  14.113
63370W        W36438  25.241   7.638   3.220
63371W        W36439  43.019  43.852   1.205
63372W        W36440  32.363  19.637   2.465
63373W        W36441   8.455  15.916  14.324
63374W        W36442  35.835  21.204   3.369
63375W        W36443  10.865  11.860  12.081
63376W        W36444  41.786  19.708  12.917
63377W        W36445  25.589  43.027   0.661
63378W        W36446  44.007  13.739  14.891
63379W        W36447  11.586  20.580   2.772
63380W        W36448  10.265  22.161  13.821
63381W        W36449   7.618  42.954  12.486
63382W        W36450  38.810  30.216   0.904
63383W        W36451  12.046   3.535   0.434
63384W        W36452  18.549  38.868   3.740
63385W        W36453  18.150   4.404  11.205
63386W        W36454  13.690   0.019   2.801
63387W        W36455  22.830  41.352   1.056
63388W        W36456   9.389  39.037   1.339
63389W        W36457  44.961  21.244   0.397
63390W        W36458  22.724  10.859  10.766
63391W        W36459  24.046  35.070  11.285
63392W        W36460  39.409  13.870   0.651
63393W        W36461  36.186  26.045   1.302
63394W        W36462  10.243   5.132  12.957
63395W        W36463  22.752  31.056   4.933
63396W        W36464  36.519  17.626   1.909
63397W        W36465  18.129   0.694  11.451
63398W        W36466   4.820  28.078  10.972
63399W        W36467  30.766  31.388  12.700
63400W        W36468  25.536  14.793   1.848
63401W        W36469  11.678   0.314   3.395
63402W        W36470  19.701  23.211   1.360
63403W        W36471  26.928   1.990  13.865
63404W        W36472  18.129  15.162  11.822
63405W        W36473  31.437  12.771  13.774
63406W        W36474   8.349  34.931  14.873
63407W        W36475  24.004  26.976   1.876
63408W        W36476  23.624  21.488  13.652
63409W        W36477   3.090  19.689  14.273
63410W        W36478  17.605  42.695   2.788
63411W        W36479  31.980  42.459   3.687
63412W        W36480  23.810  28.385   3.109
63413W        W36481  39.846   0.213   2.365
63414W        W36482  35.635   3.913  10.847
63415W        W36483  44.917   5.352   0.987
63416W        W36484   3.463  18.807   1.816
63417W        W36485  10.873  35.514  14.912
63418W        W36486  10.468  21.865   3.551
63419W        W36487  37.870   3.971   1.219
63420W        W36488  38.976  24.741   1.135
63421W        W36489  28.755  13.630   0.440
63422W        W36490   8.347  37.518   0.679
63423W        W36491  28.069  36.438   3.680
63424W        W36492  22.206  36.785   1.805
63425W        W36493  22.189   7.727   0.410
63426W        W36494  23.546  36.904   3.592
63427W        W36495   5.502  36.111  12.917
63428W        W36496  18.504  31.029  11.505
63429W        W36497  14.272  44.859  13.304
63430W        W36498   8.450  44.179   0.368
63431W        W36499  31.660  41.101  14.898
63432W        W36500  44.591  18.424   2.761
63433W        W36501  40.352  44.252   0.858
63434W        W36502  44.746  34.115   3.194
63435W        W36503  24.193   8.432   3.571
63436W        W36504  38.450  19.118   3.614
63437W        W36505  33.329  25.793  12.365
63438W        W36506  14.718  21.227  10.440
63439W        W36507  14.765  12.618   0.724
63440W        W36508  26.816  38.353   3.939
63441W        W36509  28.577  24.646  13.316
63442W        W36510  23.034  30.106   4.070
63443W        W36511  29.530   5.182   0.873
63444W        W36512   5.707   3.618  11.102
63445W        W36513  22.185  22.982   1.692
63446W        W36514  24.932   0.970   3.878
63447W        W36515  12.210   0.490   2.477
63448W        W36516  21.272  13.411  12.584
63449W        W36517   6.665  37.511   3.281
63450W        W36518  35.110  37.631   3.648
63451W        W36519   4.349   8.965  10.743
63452W        W36520  20.065  39.873   3.751
63453W        W36521  42.490  11.327   3.233
63454W        W36522  38.301  25.594   3.388
63455W        W36523  16.621  32.839   3.750
63456W        W36524  43.521  31.446  14.717
63457W        W36525   5.331  26.374   2.669
63458W        W36526  12.439  26.021   3.843
63459W        W36527  38.882   4.833   2.138
63460W        W36528  39.364   2.542   5.299
63461W        W36529  39.552  20.022  13.603
63462W        W36530  39.876  37.857  11.573
63463W        W36531  41.744   9.262   1.147
63464W        W36532  33.016  38.048   4.094
63465W        W36533  14.999   2.446  12.017
63466W        W36534  41.746  41.416  12.883
63467W        W36535  17.564  27.951  14.528
63468W        W36536  41.850  14.606   0.816
63469W        W36537  24.735  18.150  13.334
63470W        W36538  28.635   2.501   0.911
63471W        W36539  30.475  12.065  11.326
63472W        W36540  19.723  31.730   2.337
63473W        W36541   9.299  26.021  13.424
63474W        W36542  37.780  39.912   3.155
63475W        W36543  15.642   7.750  11.714
63476W        W36544  21.478  39.117  11.719
63477W        W36545  22.492  18.730  13.476
63478W        W36546  29.121  40.399  10.224
63479W        W36547  29.564   0.277   1.058
63480W        W36548  15.673  10.749   0.753
63481W        W36549  23.736  26.196  14.931
63482W        W36550  43.337  20.864  14.189
63483W        W36551  24.520  34.571   4.603
63484W        W36552  32.957  27.949  13.933
63485W        W36553  21.946  16.291   0.765
63486W        W36554  44.951  34.682  14.015
63487W        W36555  35.558  29.130   2.704
63488W        W36556  30.150  31.048   0.756
63489W        W36557  28.025  33.214   0.840
63490W        W36558  26.962  38.321  13.991
63491W        W36559  40.978  18.247  14.252
63492W        W36560  25.478  13.216  13.805
63493W        W36561  41.144  36.406  12.334
63494W        W36562   1.823  33.878  12.827
63495W        W36563   0.233  34.085   1.332
63496W        W36564  39.032  38.911   0.034
63497W        W36565   3.290  28.539   2.486
63498W        W36566  23.934  37.721  10.237
63499W        W36567   5.946  34.842  14.930
63500W        W36568  13.745  28.935   0.685
63501W        W36569   6.621  20.189   0.903
63502W        W36570   1.904   2.279   2.144
63503W        W36571  13.281  28.113   1.545
63504W        W36572  38.889  26.543  12.352
63505W        W36573  12.777   0.724   1.264
63506W        W36574  12.692  15.799  11.976
63507W        W36575  14.223  38.353  14.302
63508W        W36576  23.436  20.857  10.809
63509W        W36577  41.767  14.648  13.179
63510W        W36578  20.625   7.829   2.536
63511W        W36579  41.733  41.963   0.919
63512W        W36580  34.982  43.638  10.580
63513W        W36581   7.663  27.026   2.652
63514W        W36582  44.440  35.106  13.247
63515W        W36583  20.994  41.446   3.676
63516W        W36584  22.957  38.457   4.254
63517W        W36585  22.735  38.208  11.028
63518W        W36586  20.569  10.935   4.849
63519W        W36587  16.237  39.714   1.202
63520W        W36588  37.031   6.647  11.220
63521W        W36589  37.495  20.334  12.493
63522W        W36590  36.995   6.673   3.691
63523W        W36591  22.264  33.183   4.388
63524W        W36592  19.632  34.216   2.097
63525W        W36593  15.271  42.080  14.350
63526W        W36594   6.197  32.367  11.622
63527W        W36595   4.406  32.225   4.161
63528W        W36596   5.885  39.464  13.682
63529W        W36597  38.505  38.276   2.785
63530W        W36598   9.247   6.824   2.926
63531W        W36599  30.837  19.311   3.892
63532W        W36600  30.204   6.275   2.729
63533W        W36601  43.796   8.835  12.966
63534W        W36602   3.470  15.209   3.065
63535W        W36603  12.228  35.756  12.960
63536W        W36604  12.354   4.984  10.252
63537W        W36605  12.073  17.365   3.276
63538W        W36606  34.364  15.820  12.161
63539W        W36607  16.110  31.632   0.052
63540W        W36608  24.648  30.485   3.719
63541W        W36609  42.813  19.257   4.128
63542W        W36610  20.003  30.114  12.473
63543W        W36611  21.105  29.687  14.469
63544W        W36612  31.928  43.273   4.282
63545W        W36613  32.478  19.631   4.731
63546W        W36614   7.760  24.582  13.565
63547W        W36615  35.007  18.969   3.755
63548W        W36616   0.476  21.007   0.283
63549W        W36617  10.029  32.805   1.971
63550W        W36618  22.232  26.740   0.856
63551W        W36619  30.007  17.743  14.019
63552W        W36620  30.737  42.664   4.306
63553W        W36621  34.866  11.746  11.668
63554W        W36622  33.986   1.741   2.767
63555W        W36623  18.748  33.444  10.137
63556W        W36624  15.283  33.073   2.247
63557W        W36625  36.351  40.036  13.862
63558W        W36626  35.851   5.955   4.080
63559W        W36627  22.194  17.508  11.238
63560W        W36628  19.177  24.194  10.924
63561W        W36629   4.796  28.921   2.489
63562W        W36630  23.002  17.057   2.877
63563W        W36631  23.028  10.758   1.761
63564W        W36632   7.422  22.099   1.344
63565W        W36633  39.257   9.277  14.919
63566W        W36634  19.236  18.129  13.829
63567W        W36635   0.053  41.499   2.588
63568W        W36636   3.382  37.472  10.705
63569W        W36637  31.598  35.413  13.302
63570W        W36638  30.530  11.365   1.721
63571W        W36639  28.073   4.158  12.037
63572W        W36640  18.248  22.550   3.715
63573W        W36641   9.346  43.366  14.334
63574W        W36642  20.781  19.698   2.369
63575W        W36643  30.890   1.696  10.734
63576W        W36644  12.088  33.056  14.168
63577W        W36645  36.551  31.857  13.284
63578W        W36646  30.634  43.022  13.335
63579W        W36647  10.162  23.632  13.921
63580W        W36648   8.878  21.746   0.232
63581W        W36649  21.563  10.264  11.027
63582W        W36650  35.071  24.848   2.592
63583W        W36651  27.684   8.802  12.365
63584W        W36652   6.073  41.650   1.690
63585W        W36653  17.261  25.085   3.533
63586W        W36654   2.245   7.651  12.064
63587W        W36655  32.885   9.767   3.909
63588W        W36656  25.121  29.115   1.372
63589W        W36657  37.289  37.153  14.290
63590W        W36658   7.463  31.480  12.349
63591W        W36659  31.823  16.837   4.275
63592W        W36660   1.001  17.478   4.656
63593W        W36661  30.176  31.371   0.306
63594W        W36662  39.004  20.490  10.641
63595W        W36663   2.640   7.322   4.899
63596W        W36664  10.241   3.484   1.796
63597W        W36665  28.875  21.012  13.012
63598W        W36666   5.730  39.924  14.485
63599W        W36667   4.550  13.305  11.206
63600W        W36668  16.345  29.506   0.342
63601W        W36669  20.701  27.498   2.889
63602W        W36670  31.636  30.505  13.428
63603W        W36671  21.217  41.409  14.533
63604W        W36672  21.390  37.513   3.257
63605W        W36673   8.841  14.087  11.187
63606W        W36674   4.973  27.190   2.565
63607W        W36675  10.315  39.900   4.130
63608W        W36676   8.709   9.026  11.969
63609W        W36677  13.642  18.307  13.129
63610W        W36678   9.325  43.839   2.362
63611W        W36679   5.531  44.724   2.741
63612W        W36680  34.129   1.298  10.712
63613W        W36681  25.607  27.375  14.857
63614W        W36682   4.636   1.061   3.513
63615W        W36683   9.557  26.300   2.267
63616W        W36684  39.399  44.688   4.744
63617W        W36685  17.542  11.771  14.411
63618W        W36686  43.352  27.058   3.095
63619W        W36687   2.829  31.109  13.898
63620W        W36688  25.699   8.817  13.903
63621W        W36689  31.333   9.839  12.373
63622W        W36690  36.844  41.323  12.014
63623W        W36691  10.311  26.514  14.575
63624W        W36692   6.642  28.645   0.979
63625W        W36693  12.860  31.577  11.986
63626W        W36694  35.956  26.216  11.527
63627W        W36695   8.721  23.538   0.001
63628W        W36696  44.984  25.159  13.622
63629W        W36697  33.951  17.977   1.696
63630W        W36698  11.223   0.513   2.417
63631W        W36699  32.432   6.974   1.965
63632W        W36700  13.516  41.516  11.052
63633W        W36701   1.803  15.237  13.940
63634W        W36702   7.656   2.346  11.242
63635W        W36703   2.309  31.696   0.799
63636W        W36704  35.080  41.569   3.107
63637W        W36705   6.004  25.080   2.087
63638W        W36706  11.738   6.848   3.408
63639W        W36707   2.223   4.352  13.830
63640W        W36708  25.113  21.068   3.329
63641W        W36709  31.543  39.909  12.392
63642W        W36710  33.543  43.030   2.712
63643W        W36711   7.353  16.978  10.916
63644W        W36712  35.222   4.784  11.627
63645W        W36713  12.018   7.178   2.097
63646W        W36714  13.271  12.151  14.891
63647W        W36715  43.546  16.735  11.817
63648W        W36716  29.697  25.151  12.182
63649W        W36717  43.020  22.005   4.397
63650W        W36718  20.466   1.371  10.921
63651W        W36719   5.760  30.273   2.289
63652W        W36720  38.897  10.234  10.232
63653W        W36721  22.473  31.479  14.789
63654W        W36722   1.391  19.251  12.492
63655W        W36723   9.714  12.845   4.352
63656W        W36724  14.442  24.507   0.424
63657W        W36725  36.071   7.174  14.160
63658W        W36726  36.622  43.066  12.051
63659W        W36727  29.043  10.050  11.717
63660W        W36728   2.683  23.120   0.528
63661W        W36729  11.728  21.725  12.718
63662W        W36730  25.513  35.596   3.703
63663W        W36731  27.082   6.466  10.685
63664W        W36732   9.430   6.990  11.048
63665W        W36733  23.653  34.409   3.270
63666W        W36734  24.762  31.241   1.702
63667W        W36735  18.044   0.973  12.302
63668W        W36736   5.382  11.131   0.682
63669W        W36737  13.518  44.329   3.206
63670W        W36738  39.468  33.567   0.356
63671W        W36739  40.916   9.666  11.194
63672W        W36740  25.168  11.752  11.018
63673W        W36741  39.332  44.985   2.387
63674W        W36742   0.848  11.684   3.192
63675W        W36743  30.137  18.037   4.664
63676W        W36744  44.172  17.744  10.469
63677W        W36745  43.989  40.792  14.243
63678W        W36746  41.026  42.048   1.455
63679W        W36747  26.295   0.373  13.384
63680W        W36748   8.270  43.871   2.378
63681W        W36749  15.348   0.545  12.968
63682W        W36750  10.300  44.668  12.644
63683W        W36751   2.138  28.203  12.006
63684W        W36752  38.399  25.765   0.774
63685W        W36753  44.300   4.761   4.668
63686W        W36754  43.946  34.425   4.238
63687W        W36755   4.326  42.932   2.882
63688W        W36756  11.881  16.642  11.095
63689W        W36757  18.327   9.131  13.469
63690W        W36758  26.549  20.291   0.413
63691W        W36759  42.181  22.661   1.791
63692W        W36760  32.665   0.780  14.979
63693W        W36761   4.509   8.833  12.554
63694W        W36762  16.586  36.546   2.734
63695W        W36763   8.272  17.183  12.296
63696W        W36764  25.402  39.434   0.247
63697W        W36765  38.075   7.347   2.215
63698W        W36766  25.599  34.867   3.146
63699W        W36767   9.684  17.755  12.528
63700W        W36768  44.810  22.566  12.504
63701W        W36769  22.186  27.157  13.733
63702W        W36770  11.027  35.892  11.868
63703W        W36771  44.060  19.064   1.766
63704W        W36772  18.800  17.345  12.482
63705W        W36773  14.703   2.270  11.633
63706W        W36774  39.803  30.888   4.465
63707W        W36775  13.131  33.482  10.715
63708W        W36776  23.763  11.417  10.479
63709W        W36777   5.509  22.074   0.384
63710W        W36778  33.469  13.546  10.679
63711W        W36779  36.881  33.665   0.419
63712W        W36780  20.553  34.284  11.071
63713W        W36781  41.528  21.643  10.704
63714W        W36782  44.988  30.097   0.943
63715W        W36783   7.836  36.454  10.590
63716W        W36784  43.624  30.724   0.987
63717W        W36785   2.724  27.057  12.543
63718W        W36786  21.039  28.018   2.193
63719W        W36787   0.295  13.759   4.205
63720W        W36788  31.566  24.033  10.318
63721W        W36789  20.730  19.603  12.985
63722W        W36790  18.876  30.136   1.726
63723W        W36791  38.286   4.432  10.962
63724W        W36792  14.284  12.103   0.249
63725W        W36793  38.212  12.207   4.144
63726W        W36794   0.905  18.090   2.253
63727W        W36795  22.742  30.958   3.398
63728W        W36796   7.651  24.441  12.603
63729W        W36797  25.651   3.845   3.702
63730W        W36798  10.172   5.971  14.986
63731W        W36799  40.820  36.542   2.135
63732W        W36800  25.663  43.180  10.292
63733W        W36801  33.837  21.639   2.611
63734W        W36802  37.625  37.556  14.255
63735W        W36803   8.069  33.968  14.863
63736W        W36804  13.051  40.871  14.420
63737W        W36805  24.511   5.319  12.020
63738W        W36806   4.212  14.605  11.541
63739W        W36807  39.499  21.618   0.792
63740W        W36808  20.305   9.681  12.600
63741W        W36809  32.078  30.184   2.203
63742W        W36810  41.376  24.493  14.404
63743W        W36811  38.710  30.908  11.858
63744W        W36812  44.719  17.788   0.397
63745W        W36813   1.448  15.114   4.896
63746W        W36814  33.664  37.964   2.681
63747W        W36815  16.196  43.438  11.918
63748W        W36816  11.802  15.027   1.378
63749W        W36817  18.954  28.227   1.651
63750W        W36818  28.654  40.839   0.741
63751W        W36819  39.834  28.632  14.812
63752W        W36820  25.689  36.083  14.188
63753W        W36821  36.659   5.521  14.480
63754W        W36822  13.176  22.617  10.717
63755W        W36823  22.610   7.521   5.005
63756W        W36824  35.481  36.789   0.404
63757W        W36825  17.196  43.855   0.272
63758W        W36826  21.115  36.934  11.668
63759W        W36827  30.450  24.060   2.038
63760W        W36828  29.896  35.518  14.868
63761W        W36829  34.981  29.017  12.000
63762W        W36830  27.139   9.227   0.663
63763W        W36831  43.142  11.515   9.943
63764W        W36832   0.257  30.073  14.520
63765W        W36833   8.945  22.429  12.829
63766W        W36834  13.865   4.733   0.284
63767W        W36835  29.957  24.532  12.040
63768W        W36836  13.029  12.671   2.008
63769W        W36837   5.402  40.862  12.244
63770W        W36838  12.181  20.243  13.085
63771W        W36839  33.073  19.419   4.136
63772W        W36840  37.044  14.262   2.861
63773W        W36841  28.022   6.337   2.154
63774W        W36842  15.823  42.908  12.100
63775W        W36843  44.771  39.871   1.824
63776W        W36844   6.649  33.298  11.607
63777W        W36845  15.156  22.637  14.902
63778W        W36846  16.911  32.443  11.109
63779W        W36847   6.682   2.610   1.888
63780W        W36848  42.368  39.292   0.426
63781W        W36849  41.481  31.973   2.281
63782W        W36850  11.714  40.694  10.539
63783W        W36851  39.306  27.154   3.271
63784W        W36852  42.111  41.322   2.208
63785W        W36853   2.053  30.956   3.641
63786W        W36854  38.102  19.954   4.871
63787W        W36855   8.781  10.775  10.663
63788W        W36856  43.790  27.602   0.305
63789W        W36857  16.049  12.115   4.548
63790W        W36858   9.313  13.670  12.001
63791W        W36859   9.283   0.013  13.438
63792W        W36860  36.280   1.327   4.169
63793W        W36861  22.194  13.259   2.657
63794W        W36862  43.758  38.953  12.034
63795W        W36863   7.362  19.971   1.846
63796W        W36864  26.391  12.258   0.292
63797W        W36865  32.863   1.267  14.918
63798W        W36866  37.805   9.359   0.891
63799W        W36867   4.841  14.086   0.042
63800W        W36868  43.452  16.699   3.327
63801W        W36869  15.984  15.928   1.643
63802W        W36870   9.398  24.109   4.231
63803W        W36871  39.434  22.643  12.419
63804W        W36872  12.125  32.605  13.035
63805W        W36873  33.534  27.103  13.584
63806W        W36874  14.647  24.215   4.253
63807W        W36875  10.386  31.975   0.941
63808W        W36876   5.412  32.603   0.765
63809W        W36877  23.786  18.713  14.778
63810W        W36878   9.552  36.382   2.493
63811W        W36879  18.154   3.346   4.061
63812W        W36880   1.071   5.377   3.530
63813W        W36881   9.407  22.543  14.199
63814W        W36882  40.116  23.241  11.021
63815W        W36883  15.444   4.630   1.823
63816W        W36884  44.857  34.012   4.157
63817W        W36885   4.738   5.536   9.907
63818W        W36886  32.399  35.777  10.123
63819W        W36887  20.002  16.230   3.177
63820W        W36888  35.950  19.982   4.322
63821W        W36889  17.223  40.259   0.395
63822W        W36890  37.363   6.689  11.613
63823W        W36891  19.200  22.210   1.008
63824W        W36892  44.951  20.741  11.023
63825W        W36893  20.162  38.408   4.845
63826W        W36894  27.233  28.399   4.472
63827W        W36895  19.328   2.950   1.273
63828W        W36896  21.132  12.883   1.512
63829W        W36897  27.149  30.380  12.917
63830W        W36898  39.429  32.106   4.717
63831W        W36899   6.536  32.040  14.303
63832W        W36900  11.591  44.587  12.792
63833W        W36901  15.462  38.501   0.831
63834W        W36902  16.705  20.452   0.280
63835W        W36903  37.104   9.522   2.263
63836W        W36904  44.187   9.221   2.399
63837W        W36905   2.322  11.158   4.649
63838W        W36906   2.768  15.270   3.488
63839W        W36907  41.971  27.020   1.126
63840W        W36908  34.406  27.120   1.044
63841W        W36909  11.719  40.472  13.347
63842W        W36910  23.189  43.365  13.000
63843W        W36911  14.831  19.115   1.815
63844W        W36912  23.618   3.359   2.567
63845W        W36913  23.076  17.776   1.537
63846W        W36914  21.188   7.817   4.772
63847W        W36915  24.148  21.192   1.661
63848W        W36916  11.948  20.088   2.701
63849W        W36917  11.701  42.038   3.753
63850W        W36918  43.230  19.146   0.986
63851W        W36919  17.500  40.038  10.989
63852W        W36920  36.134  31.719  13.002
63853W        W36921  29.507  43.446   3.239
63854W        W36922  32.121  19.252   1.152
63855W        W36923   0.920   2.415  14.408
63856W        W36924  39.985   8.743  11.055
63857W        W36925  14.752  39.593  13.296
63858W        W36926  24.016  16.772  10.562
63859W        W36927  21.944  13.564  14.287
63860W        W36928   9.813  14.732   0.282
63861W        W36929  23.454  14.607   0.865
63862W        W36930  19.025  29.425  14.943
63863W        W36931  39.065  28.659  12.197
63864W        W36932  33.478   4.182  14.336
63865W        W36933  32.992  18.310   1.389
63866W        W36934   8.970  40.221   1.996
63867W        W36935  20.655  11.858   5.077
63868W        W36936   4.021  24.664  12.926
63869W        W36937  32.619  28.145   1.674
63870W        W36938  26.631  41.970  13.804
63871W        W36939  35.544  15.329   0.078
63872W        W36940   4.664  21.834   0.863
63873W        W36941  19.519   2.763  10.923
63874W        W36942  31.919   7.574   0.790
63875W        W36943   8.953  44.007   0.387
63876W        W36944  29.040  25.247  13.838
63877W        W36945  36.374  22.278   1.320
63878W        W36946  33.893  31.387  12.607
63879W        W36947  14.529   3.400  13.983
63880W        W36948  44.069  32.057   3.616
63881W        W36949  14.730  14.552   1.700
63882W        W36950   9.157  41.901  12.755
63883W        W36951  39.590  14.240  14.914
63884W        W36952  34.988   2.767  13.293
63885W        W36953  28.501   5.411  14.276
63886W        W36954  38.909  17.102   0.150
63887W        W36955  41.237  17.348   4.646
63888W        W36956  18.320  10.908   0.258
63889W        W36957  29.940  18.281  13.873
63890W        W36958   1.705   4.229   0.110
63891W        W36959  29.062  33.632  13.177
63892W        W36960  32.645   4.038  14.263
63893W        W36961  19.757  29.657  11.777
63894W        W36962   7.273   2.416   4.165
63895W        W36963  10.324  28.158  12.311
63896W        W36964  21.169  16.927   1.065
63897W        W36965  24.385  30.555  14.301
63898W        W36966  40.862  11.401  10.732
63899W        W36967  31.124  31.982   1.687
63900W        W36968   5.769  40.870  10.763
63901W        W36969  20.512   1.411   4.481
63902W        W36970  11.368  42.428  14.299
63903W        W36971  12.590  10.483   1.062
63904W        W36972   6.648  40.760   2.628
63905W        W36973  25.298   8.167  11.497
63906W        W36974  36.473   4.628   3.119
63907W        W36975  37.984  14.834   2.347
63908W        W36976   4.381   9.323   0.493
63909W        W36977  10.261  39.408   4.899
63910W        W36978   4.247  25.969   4.644
63911W        W36979   0.054  16.103  10.824
63912W        W36980   4.339  21.713  11.139
63913W        W36981  34.371  40.398   0.886
63914W        W36982  25.930  14.687   2.625
63915W        W36983   6.175  38.071  10.208
63916W        W36984  13.311  23.529   0.574
63917W        W36985  19.708  27.979   4.970
63918W        W36986  15.606  39.837   1.748
63919W        W36987   2.173  22.681  10.226
63920W        W36988  22.250  35.036  12.012
63921W        W36989  35.646   7.320   3.342
63922W        W36990  22.983   2.253  10.669
63923W        W36991  22.607  28.118  13.976
63924W        W36992   4.515  21.150   2.244
63925W        W36993   2.398  28.380   0.800
63926W        W36994  25.451   2.880  14.903
63927W        W36995  36.921  29.388   1.485
63928W        W36996  44.031  33.394   4.135
63929W        W36997  31.457  22.206  11.212
63930W        W36998  19.514  31.652  10.446
63931W        W36999  41.419   9.607  11.577
63932W        W37000  22.858  25.727   2.644
63933W        W37001  19.789  16.644   4.073
63934W        W37002  37.928  23.764  13.001
63935W        W37003  17.664  25.242   4.279
63936W        W37004  17.375  35.469  13.247
63937W        W37005  23.948  25.034  13.850
63938W        W37006  37.253  25.124   0.413
63939W        W37007  18.054  42.453  13.875
63940W        W37008  10.774   3.273   4.251
63941W        W37009   0.190  12.378  11.571
63942W        W37010  24.601  13.507  10.729
63943W        W37011   4.555  33.021   2.802
63944W        W37012   2.032  30.058   3.532
63945W        W37013  42.216  24.228  14.608
63946W        W37014  23.711  40.864  13.684
63947W        W37015  36.301   7.217   0.780
63948W        W37016  36.012   7.425  13.171
63949W        W37017  27.892   3.748   4.468
63950W        W37018  21.016  31.697  14.693
63951W        W37019  13.628  11.740   4.105
63952W        W37020  22.562   2.940   0.639
63953W        W37021  23.771  10.118  13.564
63954W        W37022  34.337  41.251  12.556
63955W        W37023  35.417  22.984  14.588
63956W        W37024  32.985  38.024   4.621
63957W        W37025  44.541   5.213   4.557
63958W        W37026  16.293  26.203   2.231
63959W        W37027   7.176   1.240   1.320
63960W        W37028   8.436   1.735  11.058
63961W        W37029  20.823   7.519   4.578
63962W        W37030   4.554  24.710  14.133
63963W        W37031  32.219  12.249   4.713
63964W        W37032  33.008  12.998   4.372
63965W        W37033  33.515   3.814   4.269
63966W        W37034  11.353  17.730  13.967
63967W        W37035   8.650  29.527   2.979
63968W        W37036   1.218   0.929  10.579
63969W        W37037  30.527   7.818   1.292
63970W        W37038  26.937  37.427   4.322
63971W        W37039  37.525  20.014  12.921
63972W        W37040  15.811   2.933  11.870
63973W        W37041  15.731   7.650  14.514
63974W        W37042  12.260  44.293   4.098
63975W        W37043  13.716   8.328   1.354
63976W        W37044   0.262  14.627  14.774
63977W        W37045  11.531  29.528   0.738
63978W        W37046  22.190  43.248   1.557
63979W        W37047  21.752  25.997   2.781
63980W        W37048  21.210   9.406   3.135
63981W        W37049  38.630  25.711  13.912
63982W        W37050  15.650  21.497  14.317
63983W        W37051  35.054  30.517   1.757
63984W        W37052  41.432  23.464   2.186
63985W        W37053  33.293  25.779  11.763
63986W        W37054  14.119  18.819  14.898
63987W        W37055  44.943  25.168   4.583
63988W        W37056   4.918   5.436  13.746
63989W        W37057  15.730   1.000  12.448
63990W        W37058  13.375   3.458   4.157
63991W        W37059  13.367   3.478  10.796
63992W        W37060  20.818  33.305  11.191
63993W        W37061   6.864  14.367  11.441
63994W        W37062  21.846  21.130   4.803
63995W        W37063  32.068  40.771  14.957
63996W        W37064  37.409  38.830   3.498
63997W        W37065  44.986   4.137   3.192
63998W        W37066  31.224   4.978  10.566
63999W        W37067   9.790  14.316   1.972
64000W        W37068  16.237   8.171   2.297
64001W        W37069  40.497   7.387  11.955
64002W        W37070  25.520  19.154  11.594
64003W        W37071  36.152   2.666   1.782
64004W        W37072   2.505  27.547   3.183
64005W        W37073   5.778  11.244   0.326
64006W        W37074   0.991  37.464   4.987
64007W        W37075  17.116   0.929   0.379
64008W        W37076  24.405   3.946   2.630
64009W        W37077   4.372   9.455   4.515
64010W        W37078  17.023  39.936   2.247
64011W        W37079   9.840  40.024  11.385
64012W        W37080  34.544  42.922   0.822
64013W        W37081   5.698  44.226  12.112
64014W        W37082  29.518  10.912   3.285
64015W        W37083  15.548  26.055  14.389
64016W        W37084  40.512  27.567  13.359
64017W        W37085   7.325   6.373  10.650
64018W        W37086  12.051   2.401  11.659
64019W        W37087  43.287  36.187  12.062
64020W        W37088  23.699  26.874  10.727
64021W        W37089  23.091   4.311   4.857
64022W        W37090   0.029  38.975  10.744
64023W        W37091  40.439  21.260   3.178
64024W        W37092  28.578   5.642   2.371
64025W        W37093  40.316   3.841  14.055
64026W        W37094   8.393  43.401  14.763
64027W        W37095  37.662  19.365   2.679
64028W        W37096  22.271  15.163   4.466
64029W        W37097  23.825  25.313  13.065
64030W        W37098  20.942   8.129  12.533
64031W        W37099  30.647  27.208  14.635
64032W        W37100  35.834  24.966  13.811
64033W        W37101  19.803   8.531  14.584
64034W        W37102   1.039  20.558  13.432
64035W        W37103  36.281  25.782   0.867
64036W        W37104  23.216  16.623   4.127
64037W        W37105  26.693  43.048   2.794
64038W        W37106  13.376  16.293  14.811
64039W        W37107  29.152   5.221   4.072
64040W        W37108   5.368   6.027  10.823
64041W        W37109  34.977  33.452   5.004
64042W        W37110  39.425  11.949  14.890
64043W        W37111   4.300   6.799   4.398
64044W        W37112  39.897  32.368  12.044
64045W        W37113   6.232  33.645   3.181
64046W        W37114  25.089  13.219   1.869
64047W        W37115   6.415  31.592  13.539
64048W        W37116  12.946  25.194  13.601
64049W        W37117  15.838  16.172   2.333
64050W        W37118  30.687  10.185   2.293
64051W        W37119  17.898  35.547   0.788
64052W        W37120   8.016  40.994  13.851
64053W        W37121   9.926   4.427  10.939
64054W        W37122  18.926  30.372   2.824
64055W        W37123  13.348  39.473   0.478
64056W        W37124  29.156  42.478   4.814
64057W        W37125   9.818  34.811   2.383
64058W        W37126   3.364  20.306   1.796
64059W        W37127  35.820  32.057   4.539
64060W        W37128  31.976  25.116   4.725
64061W        W37129  19.784  22.805  13.369
64062W        W37130  30.158  41.559   1.805
64063W        W37131  29.940  15.587   4.007
64064W        W37132  14.745   6.652  11.465
64065W        W37133  21.492  26.751  10.936
64066W        W37134  38.286  40.543   0.191
64067W        W37135   9.412  42.928   0.240
64068W        W37136  16.274  19.944   0.936
64069W        W37137  13.618  23.739  10.935
64070W        W37138  16.598  14.105  11.615
64071W        W37139  25.103  16.335   1.255
64072W        W37140  41.537  25.483   2.818
64073W        W37141   3.414  40.944   4.211
64074W        W37142  25.770  40.015  10.678
64075W        W37143  36.614  33.634   3.720
64076W        W37144  44.274  37.488  12.542
64077W        W37145   5.781  30.442  12.017
64078W        W37146  35.895  39.994  11.636
64079W        W37147   4.864  10.298   2.843
64080W        W37148  29.661  15.139  13.566
64081W        W37149  28.220  23.917   4.228
64082W        W37150  32.788  27.130  11.987
64083W        W37151  38.260   4.007  11.238
64084W        W37152  19.260  31.944  11.183
64085W        W37153  29.421  35.593   2.290
64086W        W37154  44.390  37.934   3.126
64087W        W37155  38.391  27.097  11.143
64088W        W37156  23.207  37.883   3.293
64089W        W37157  25.587   8.621  13.419
64090W        W37158   0.702  16.469   4.125
64091W        W37159  19.095  42.255   2.795
64092W        W37160  11.402  35.488  14.819
64093W        W37161  14.421  27.027  14.347
64094W        W37162  43.807   8.854  13.933
64095W        W37163   3.762  22.615  10.081
64096W        W37164  11.484  42.688  11.617
64097W        W37165  40.447  35.365  12.914
64098W        W37166  37.124  41.833  12.863
64099W        W37167  10.416   4.827  14.131
64100W        W37168  16.820  12.817   1.103
64101W        W37169  38.469   2.171  10.768
64102W        W37170  21.771   4.414  11.476
64103W        W37171  18.607  40.664   4.160
64104W        W37172  30.350  44.846   2.860
64105W        W37173  15.813   5.341  14.500
64106W        W37174   1.747  26.836   4.073
64107W        W37175  19.534  23.247  10.745
64108W        W37176  27.973  36.989   4.508
64109W        W37177  23.114  28.792   2.717
64110W        W37178  40.279  30.981   4.293
64111W        W37179  12.191   5.744  13.480
64112W        W37180  35.264   2.017  13.756
64113W        W37181  11.395  39.913  13.943
64114W        W37182   6.679   0.405   4.605
64115W        W37183  35.380  24.387   1.343
64116W        W37184   2.476  40.573   2.128
64117W        W37185  17.117  40.263   3.205
64118W        W37186  43.799   8.206   1.877
64119W        W37187  29.823  38.579   4.644
64120W        W37188  11.385  10.853   3.932
64121W        W37189   5.441  12.497  11.330
64122W        W37190  43.856  41.123  15.000
64123W        W37191   3.855  13.162   0.467
64124W        W37192   1.281  18.771   1.778
64125W        W37193   5.909  19.107   3.223
64126W        W37194  11.701  17.038   0.188
64127W        W37195  25.185  31.883  11.685
64128W        W37196  44.946  14.269  11.657
64129W        W37197   4.983  26.410   1.812
64130W        W37198  10.584  30.549   1.783
64131W        W37199  34.165   5.288  12.559
64132W        W37200  20.769  36.680  14.377
64133W        W37201  44.420  37.048  12.804
64134W        W37202  11.882  11.138  11.108
64135W        W37203  10.006   6.314  11.568
64136W        W37204  18.344  24.730   3.220
64137W        W37205  25.912   0.888   3.789
64138W        W37206   4.298  11.411   0.358
64139W        W37207  13.606   1.802  12.552
64140W        W37208   5.682  27.715   4.870
64141W        W37209   1.982   3.805   2.845
64142W        W37210  29.175  15.227   1.864
64143W        W37211  16.117  30.147   3.621
64144W        W37212  22.062  23.555  10.624
64145W        W37213   5.777   6.290   1.070
64146W        W37214  36.581   1.859   3.139
64147W        W37215  27.480  39.580  12.984
64148W        W37216  41.466   8.747   1.657
64149W        W37217  15.662  21.671   3.097
64150W        W37218  24.142  39.696   0.174
64151W        W37219  26.705  34.225  11.402
64152W        W37220  20.002   9.323  14.881
64153W        W37221  29.046  14.574  14.020
64154W        W37222   9.302   2.162   1.101
64155W        W37223  24.198  29.192   2.358
64156W        W37224   2.610  19.693  14.024
64157W        W37225  12.415  28.603  12.912
64158W        W37226  41.313   2.050  10.543
64159W        W37227   0.077  19.168  13.023
64160W        W37228  25.124  23.074   1.637
64161W        W37229  24.110  40.995  13.342
64162W        W37230  11.467  16.661   9.933
64163W        W37231   9.656   1.854   2.946
64164W        W37232   2.876  11.152  11.857
64165W        W37233   9.906  26.114   3.271
64166W        W37234   5.824  18.220   2.416
64167W        W37235   7.699  29.876  10.696
64168W        W37236  11.537  34.952  13.023
64169W        W37237  39.542   8.727   2.733
64170W        W37238  11.229  10.112  14.888
64171W        W37239  29.399  40.982   3.709
64172W        W37240  21.623  30.967  12.983
64173W        W37241   7.442  28.008   2.680
64174W        W37242  12.149  24.770  13.055
64175W        W37243  25.618  27.363  12.129
64176W        W37244   0.490  26.054   1.789
64177W        W37245  37.092   3.864   0.005
64178W        W37246  40.334  26.657  11.463
64179W        W37247  34.884   1.986   1.316
64180W        W37248  35.798   8.289  13.157
64181W        W37249   8.867  16.042  11.636
64182W        W37250  34.377  32.601   5.227
64183W        W37251  21.797   8.784   2.597
64184W        W37252  14.103  41.392   4.809
64185W        W37253  35.371  15.826   2.348
64186W        W37254  20.693  44.457   0.934
64187W        W37255  15.667  37.403   0.794
64188W        W37256   0.759  18.397   9.913
64189W        W37257  41.968   9.398   2.331
64190W        W37258  34.894  40.391   0.872
64191W        W37259   4.799   2.734  14.579
64192W        W37260  18.527  14.980  10.876
64193W        W37261  24.977  13.501  11.087
64194W        W37262   9.172  24.745   3.849
64195W        W37263  11.260   4.882   0.218
64196W        W37264   7.274  43.923   4.618
64197W        W37265  39.391   9.246  14.008
64198W        W37266  44.351  28.049  13.959
64199W        W37267  30.122  27.589  13.815
64200W        W37268  36.948  35.600   2.124
64201W        W37269  20.541   9.018   1.383
64202W        W37270  20.204  44.241  10.261
64203W        W37271  33.926  28.378  13.209
64204W        W37272  23.515  20.589   1.967
64205W        W37273  41.016  18.645   4.767
64206W        W37274  15.787  44.468  12.691
64207W        W37275  25.625  23.568   3.274
64208W        W37276  39.981   0.880   3.265
64209W        W37277  35.551  20.316  11.043
64210W        W37278   8.382   4.095  12.715
64211W        W37279   2.962   6.142  13.359
64212W        W37280  19.315  37.494  10.717
64213W        W37281  20.746  29.501   4.252
64214W        W37282  19.771  29.533   4.024
64215W        W37283  25.041  29.038  11.111
64216W        W37284   6.377  26.743  11.094
64217W        W37285   6.220  13.308   0.668
64218W        W37286  28.691  41.019   2.169
64219W        W37287  23.082   9.852   4.056
64220W        W37288  23.835  16.144   4.347
64221W        W37289  18.775  21.685   4.658
64222W        W37290  41.256   8.272   0.068
64223W        W37291  40.828  18.024  13.802
64224W        W37292  15.229  25.576   3.075
64225W        W37293  19.159  26.575   4.047
64226W        W37294   5.382  13.384  14.477
64227W        W37295  43.437  25.650   4.697
64228W        W37296   0.210  14.729   2.778
64229W        W37297   0.546  18.208   2.608
64230W        W37298  12.309  23.104   2.190
64231W        W37299  36.722  28.790   0.167
64232W        W37300   2.619  24.931   1.872
64233W        W37301  27.232  39.088  12.918
64234W        W37302   1.405  39.702  13.138
64235W        W37303  17.738  38.918   4.309
64236W        W37304  33.547  35.220   2.307
64237W        W37305  27.466  10.361   2.794
64238W        W37306   8.864   1.365  12.851
64239W        W37307  40.431   9.126  10.435
64240W        W37308  26.393  25.433   3.976
64241W        W37309  16.670  27.477  10.397
64242W        W37310  38.093  17.277   1.532
64243W        W37311  13.506   8.792  11.296
64244W        W37312  41.448  20.200   1.266
64245W        W37313   4.987  12.345  12.534
64246W        W37314  38.890  23.985  11.589
64247W        W37315  13.533  13.930  10.724
64248W        W37316  19.608  38.364  11.105
64249W        W37317  39.529   7.272  12.071
64250W        W37318  28.736   6.787  13.062
64251W        W37319  28.467  35.383  14.972
64252W        W37320  38.478  20.497  12.158
64253W        W37321  42.436  42.770  14.992
64254W        W37322  28.844  25.963  13.399
64255W        W37323  43.298  41.771  10.844
64256W        W37324  20.395   0.739   3.147
64257W        W37325   0.229  23.564  11.705
64258W        W37326  42.015  15.048   2.728
64259W        W37327   6.874  44.074  11.072
64260W        W37328  37.146   3.884  10.412
64261W        W37329  24.389  10.242   2.796
64262W        W37330  25.522   3.296   2.418
64263W        W37331  11.373  30.158  10.896
64264W        W37332   2.229   9.330   1.154
64265W        W37333  12.801  24.473  11.448
64266W        W37334  40.289  34.511   3.247
64267W        W37335  13.193  33.797  10.300
64268W        W37336  14.920   7.122  12.993
64269W        W37337  34.882   9.138   2.756
64270W        W37338  15.286   9.392  11.583
64271W        W37339  16.218  25.494   2.754
64272W        W37340  32.425   4.204  10.702
64273W        W37341  23.055  16.643   3.198
64274W        W37342  35.227  36.850   4.262
64275W        W37343  36.049  18.071   4.570
64276W        W37344  40.138  23.908  13.219
64277W        W37345  35.874   2.851   4.117
64278W        W37346   2.339  20.185  12.059
64279W        W37347  33.197  23.683   3.472
64280W        W37348  25.952  20.238  11.403
64281W        W37349   7.343  11.668   4.169
64282W        W37350  26.629  15.943   4.067
64283W        W37351  20.923  40.537  14.923
64284W        W37352  31.064  24.374  14.270
64285W        W37353  23.740  21.257  12.751
64286W        W37354   9.973  18.476   3.534
64287W        W37355  17.542  25.593  13.783
64288W        W37356  41.623   6.709  12.172
64289W        W37357  39.288   9.809   1.434
64290W        W37358  42.866   6.771  13.494
64291W        W37359  40.686  16.017  11.428
64292W        W37360  19.658  17.343   4.579
64293W        W37361   3.137  39.940  14.329
64294W        W37362  41.511  32.147  14.823
64295W        W37363  21.183  30.578   2.629
64296W        W37364  13.790  16.338   2.715
64297W        W37365  15.097  36.888  11.228
64298W        W37366   6.425  16.146   1.410
64299W        W37367  37.967  39.003   3.602
64300W        W37368  41.572  42.336  11.145
64301W        W37369  14.270  22.473  10.710
64302W        W37370   4.199   3.874  12.925
64303W        W37371  31.924  27.347   4.747
64304W        W37372   5.893   7.176   0.207
64305W        W37373  18.083   3.164  10.794
64306W        W37374  34.528  16.521  10.673
64307W        W37375  14.788  40.353  11.644
64308W        W37376   3.903  22.506   3.938
64309W        W37377   8.592   2.171   4.004
64310W        W37378   9.813  11.670  10.632
64311W        W37379   4.511   0.978   0.315
64312W        W37380  18.398  37.551   1.213
64313W        W37381   8.216  42.391   4.193
64314W        W37382  15.146  39.080  11.683
64315W        W37383   4.467  37.344   0.379
64316W        W37384   4.182  18.840   1.298
64317W        W37385   7.940  14.641  13.755
64318W        W37386  40.262  39.575  12.328
64319W        W37387  14.272  43.920   2.351
64320W        W37388  30.891   5.742   2.450
64321W        W37389  37.152  24.629  11.727
64322W        W37390   9.615  16.184  10.811
64323W        W37391  17.981  34.815  14.533
64324W        W37392   1.423  20.482   4.161
64325W        W37393  14.691  41.440  13.780
64326W        W37394  38.522  20.119   3.526
64327W        W37395   1.703   0.712  11.396
64328W        W37396   2.177  24.618  11.612
64329W        W37397  39.148   2.930  11.552
64330W        W37398  14.495  42.507   0.891
64331W        W37399  16.883   2.290  14.315
64332W        W37400  27.076  37.292  13.816
64333W        W37401  24.207  20.033  14.409
64334W        W37402   5.732  34.640   1.384
64335W        W37403   7.700  15.982   2.701
64336W        W37404   3.113  26.286   5.048
64337W        W37405   9.144  24.558  10.771
64338W        W37406   9.179  38.259  14.062
64339W        W37407  30.947  18.832   1.586
64340W        W37408  28.925  36.957   2.422
64341W        W37409  17.141  44.217  11.582
64342W        W37410  25.265  28.588  11.198
64343W        W37411   1.918  14.587   0.018
64344W        W37412  22.208  32.602  12.198
64345W        W37413   3.026  18.179  11.521
64346W        W37414  10.640  15.961   3.441
64347W        W37415   4.642  19.138   5.231
64348W        W37416  33.905  35.689  11.828
64349W        W37417  19.168  39.019  12.564
64350W        W37418  25.448  27.308   3.726
64351W        W37419   5.468   0.302  11.733
64352W        W37420  36.526  11.671  10.246
64353W        W37421  16.149  14.736  13.820
64354W        W37422   2.989   9.394   3.312
64355W        W37423  33.460  32.597  11.614
64356W        W37424  25.017  15.344  10.662
64357W        W37425   8.398  21.652   4.562
64358W        W37426  26.562   7.169  13.054
64359W        W37427  24.043  10.900   3.602
64360W        W37428  14.036   5.774  14.944
64361W        W37429  10.868   9.863   3.705
64362W        W37430  11.061  13.213  12.016
64363W        W37431   4.805  37.541   0.838
64364W        W37432  27.543  22.187   0.824
64365W        W37433  31.546  10.692  11.521
64366W        W37434  44.876  32.930   3.891
64367W        W37435  34.057   0.738   4.330
64368W        W37436  32.455  26.733  10.705
64369W        W37437  40.022  34.104   3.112
64370W        W37438  19.080   7.762   2.317
64371W        W37439   3.207   4.389   4.103
64372W        W37440  24.022   1.767  11.829
64373W        W37441   5.280  26.174  13.022
64374W        W37442  36.526  33.997  10.921
64375W        W37443  42.253  27.905   3.671
64376W        W37444  12.338  20.232   0.483
64377W        W37445  12.724  22.025  11.615
64378W        W37446  15.285  20.719   4.701
64379W        W37447  17.251  30.300  12.878
64380W        W37448  34.773  17.276  13.572
64381W        W37449  42.602  39.895   4.864
64382W        W37450  24.658  44.198   1.259
64383W        W37451  13.839   2.299   3.141
64384W        W37452  25.576   3.752  11.443
64385W        W37453   6.276  25.940   2.341
64386W        W37454  34.320  33.615  10.631
64387W        W37455  42.522  40.476  11.648
64388W        W37456   6.680   2.790  11.978
64389W        W37457  22.590   2.980  13.917
64390W        W37458  31.808  26.054  13.146
64391W        W37459  12.409  28.703   0.830
64392W        W37460  31.362  15.412  13.862
64393W        W37461  43.701  24.663  10.778
64394W        W37462  14.633   1.484  11.208
64395W        W37463  39.856   5.935   4.665
64396W        W37464  10.318   5.625   4.431
64397W        W37465   1.852  20.161  14.029
64398W        W37466  23.023  10.448  11.119
64399W        W37467  10.436   1.252  13.461
64400W        W37468  21.978  44.885   2.718
64401W        W37469   9.356  17.695  14.892
64402W        W37470  22.579   9.663  12.574
64403W        W37471  13.844  43.433  12.357
64404W        W37472   5.439  30.180  10.874
64405W        W37473  42.514  42.267  14.731
64406W        W37474   5.567  43.734   3.128
64407W        W37475  11.327  13.519   3.245
64408W        W37476  19.983   9.026   0.668
64409W        W37477   8.859  43.298  14.561
64410W        W37478  24.292  31.954  12.551
64411W        W37479  20.572  32.244  14.155
64412W        W37480  40.243  11.823  10.671
64413W        W37481  32.990  13.261   2.768
64414W        W37482  21.622  44.855  11.404
64415W        W37483  37.925   9.851   1.073
64416W        W37484  21.790   0.873   1.219
64417W        W37485  40.473  30.419  14.398
64418W        W37486  31.132  30.519   1.690
64419W        W37487  34.402   3.463   1.387
64420W        W37488   8.313   8.933  13.480
64421W        W37489   8.125   5.336   0.522
64422W        W37490  11.286  38.504   4.362
64423W        W37491  20.692  42.060   4.572
64424W        W37492   2.915  37.949   2.587
64425W        W37493  19.442  11.007  14.494
64426W        W37494   8.321  14.125   0.255
64427W        W37495   9.844  28.667  12.050
64428W        W37496  12.546  12.798   3.361
64429W        W37497   6.502  40.862  14.814
64430W        W37498  43.205  37.078   0.659
64431W        W37499  23.808  37.141  11.593
64432W        W37500  41.152  13.089  14.539
64433W        W37501  38.556  25.274  11.647
64434W        W37502  30.416  36.723  14.906
64435W        W37503   8.204  43.906   3.259
64436W        W37504  30.582   8.682  14.086
64437W        W37505   9.639  11.570   3.697
64438W        W37506  43.002   0.200  12.917
64439W        W37507  12.167  14.145   3.186
64440W        W37508  32.062  31.582  14.034
64441W        W37509   5.149  18.315   1.191
64442W        W37510  33.201   5.549   0.425
64443W        W37511  38.969  16.580   3.219
64444W        W37512   5.647  41.357   1.885
64445W        W37513   0.293  14.107  13.900
64446W        W37514  38.956  29.743  12.527
64447W        W37515  15.215  23.458   2.069
64448W        W37516  31.862   3.897  13.577
64449W        W37517  11.251  24.945  13.084
64450W        W37518   6.340  42.838   3.571
64451W        W37519  26.119   3.294   0.419
64452W        W37520   5.649  10.402  11.645
64453W        W37521  20.390  13.722  12.079
64454W        W37522  26.498  22.590  11.097
64455W        W37523  39.234  30.892  12.737
64456W        W37524  14.462  18.696   4.044
64457W        W37525  36.004   3.954  13.897
64458W        W37526  21.823   7.375   4.573
64459W        W37527  15.773  44.268   0.425
64460W        W37528   8.706   5.531   2.799
64461W        W37529  29.955  10.226   3.778
64462W        W37530  28.933  38.023  11.617
64463W        W37531  11.804  41.560   2.688
64464W        W37532  13.235  29.435  13.881
64465W        W37533  18.764  19.680   0.906
64466W        W37534  10.220   9.304  14.052
64467W        W37535  17.727   0.286   4.623
64468W        W37536  17.015   6.710  10.528
64469W        W37537  19.606  35.064   0.356
64470W        W37538   0.898  24.487  12.065
64471W        W37539  14.766  29.537   3.551
64472W        W37540  17.226   7.746  11.983
64473W        W37541  38.108  15.558  11.921
64474W        W37542  20.105  20.541  11.958
64475W        W37543   8.660  22.783  13.545
64476W        W37544  21.624  16.879   4.733
64477W        W37545   7.825  41.804  13.146
64478W        W37546  20.310   3.332  11.938
64479W        W37547  38.898   9.724   4.562
64480W        W37548   9.464  25.043  12.040
64481W        W37549  34.585  16.506  12.475
64482W        W37550   0.724  13.589  10.663
64483W        W37551  17.289   9.155   2.391
64484W        W37552  18.518  29.547   1.384
64485W        W37553  20.774  31.363  12.545
64486W        W37554  36.065  30.127  13.959
64487W        W37555  32.955  25.800   4.130
64488W        W37556  33.794  10.841  12.121
64489W        W37557  20.940  33.392  12.509
64490W        W37558  21.806  40.319   0.086
64491W        W37559  13.264  12.715   0.011
64492W        W37560  13.120   2.888   2.969
64493W        W37561  13.451   9.429   4.176
64494W        W37562  22.828  11.066   0.915
64495W        W37563  35.404   5.135   0.787
64496W        W37564  43.855  13.659   2.873
64497W        W37565  26.184  17.119   3.705
64498W        W37566  10.227  19.798   4.077
64499W        W37567  36.474  17.785  14.318
64500W        W37568   6.105  42.592   1.851
64501W        W37569  34.783  31.915  11.953
64502W        W37570   8.576  36.021   3.892
64503W        W37571  17.857  33.272  12.515
64504W        W37572  17.297   3.202   2.785
64505W        W37573  29.548  20.701  13.312
64506W        W37574  25.003  41.928   4.645
64507W        W37575  37.852   7.253  14.970
64508W        W37576   0.966  34.495   3.278
64509W        W37577   2.991  35.244  11.574
64510W        W37578  36.100  35.193   3.352
64511W        W37579  39.568  30.017  11.971
64512W        W37580  31.599  38.776  12.039
64513W        W37581   5.481  40.352  14.330
64514W        W37582   1.270  26.035  12.993
64515W        W37583  24.980  11.740   2.060
64516W        W37584  31.671  34.031   0.064
64517W        W37585   8.926  36.450   5.096
64518W        W37586   5.622   0.813   3.753
64519W        W37587  29.593  32.835   3.251
64520W        W37588  39.635   1.597   4.625
64521W        W37589   3.014  27.683  11.960
64522W        W37590  22.518  28.537  11.995
64523W        W37591  17.420  39.810   3.161
64524W        W37592  28.025   3.178   2.294
64525W        W37593  42.863  41.549   4.550
64526W        W37594  15.204  28.430   2.729
64527W        W37595   8.960  39.522  14.841
64528W        W37596  16.232   7.262  13.377
64529W        W37597  14.530   5.358  11.865
64530W        W37598  35.473  44.824  11.178
64531W        W37599   6.892  16.517   0.401
64532W        W37600  25.625  39.551   2.954
64533W        W37601  44.294   7.172  10.226
64534W        W37602   6.251  30.157  14.512
64535W        W37603  43.032  19.738   2.765
64536W        W37604  25.304  15.848   4.444
64537W        W37605  42.957  24.987  12.465
64538W        W37606  31.474  13.145   3.201
64539W        W37607  42.285  24.597  14.236
64540W        W37608  40.344  23.198   3.595
64541W        W37609  31.445  16.335  10.675
64542W        W37610  43.374  11.496  11.522
64543W        W37611  44.834  24.118  11.146
64544W        W37612  36.676   0.807   1.358
64545W        W37613  20.100  14.742  12.137
64546W        W37614  19.867  16.748  11.183
64547W        W37615  19.191   7.288   0.685
64548W        W37616  32.896  38.470   4.918
64549W        W37617   1.434  14.217  13.407
64550W        W37618  10.188  34.609  12.896
64551W        W37619  34.688  27.930  14.327
64552W        W37620   4.694  43.846   5.290
64553W        W37621  26.982   4.578   4.144
64554W        W37622  28.157  38.477  11.603
64555W        W37623  12.537  21.273   1.218
64556W        W37624  19.249  27.101   4.015
64557W        W37625  29.050  24.176   1.931
64558W        W37626  34.134  17.574   3.658
64559W        W37627   8.550   7.200  13.520
64560W        W37628  32.525  23.550   2.704
64561W        W37629  41.822  37.435   2.182
64562W        W37630  11.693  14.074   0.385
64563W        W37631   8.743  36.680  10.713
64564W        W37632  20.954  17.902  14.488
64565W        W37633  14.702  29.636   2.585
64566W        W37634  39.405  20.768  10.408
64567W        W37635  44.976  32.851  12.128
64568W        W37636  13.205  39.471  10.623
64569W        W37637  22.945   0.254  13.355
64570W        W37638  21.576  24.664  12.007
64571W        W37639   5.515   6.276  14.213
64572W        W37640   5.817  44.735   3.162
64573W        W37641  33.609  41.060   1.018
64574W        W37642  10.728  21.145   1.785
64575W        W37643   2.906  24.717  10.770
64576W        W37644  36.987  44.373  10.432
64577W        W37645  16.142  24.216   1.260
64578W        W37646  12.936   0.436  10.978
64579W        W37647  37.566  37.919  11.202
64580W        W37648  28.536  31.875   2.903
64581W        W37649  13.727  23.124   4.061
64582W        W37650   8.596  25.479   4.174
64583W        W37651  43.889   2.757  11.648
64584W        W37652  22.143  34.478   3.374
64585W        W37653   0.869   5.990  12.069
64586W        W37654  42.793  23.091  11.532
64587W        W37655  18.243  39.631  14.199
64588W        W37656  32.293  41.436  11.896
64589W        W37657  12.793  40.260   4.220
64590W        W37658  22.184  26.965   3.864
64591W        W37659  33.769  44.196   4.052
64592W        W37660  36.999  30.920  12.540
64593W        W37661  27.481  13.661  13.961
64594W        W37662  14.601  21.837   0.252
64595W        W37663  41.793   3.858   0.376
64596W        W37664  30.589  23.111   4.149
64597W        W37665  14.302  44.549   4.946
64598W        W37666  44.987  30.323   2.266
64599W        W37667  26.418  36.038  10.674
64600W        W37668  17.171   7.257   3.173
64601W        W37669  17.118  10.429  14.574
64602W        W37670  13.925   4.432  12.041
64603W        W37671   5.171  24.571  13.417
64604W        W37672  44.337  15.544  13.833
64605W        W37673   5.697  19.058   1.452
64606W        W37674  30.491  14.795   2.762
64607W        W37675   9.663   1.503  14.218
64608W        W37676   1.553  20.651  11.612
64609W        W37677   7.295  41.738   3.629
64610W        W37678  44.079  43.865   0.226
64611W        W37679  33.416   2.831  11.486
64612W        W37680   8.224  26.639   0.009
64613W        W37681  43.911  30.410   1.352
64614W        W37682  17.468  26.973  13.450
64615W        W37683  29.957  40.985  11.366
64616W        W37684  22.644  18.264   3.797
64617W        W37685  19.098  35.533   1.913
64618W        W37686  34.518  38.778  12.485
64619W        W37687   8.135  28.538   3.699
64620W        W37688  12.126  17.228   1.020
64621W        W37689  14.847   4.459  13.517
64622W        W37690  36.006   3.937   3.177
64623W        W37691   6.226   7.679  10.642
64624W        W37692   8.104  44.283   0.747
64625W        W37693  37.565  41.744   1.387
64626W        W37694  13.732  44.782  13.963
64627W        W37695   3.135  38.434   3.450
64628W        W37696   2.779  23.267  13.577
64629W        W37697  20.699  35.578   3.251
64630W        W37698   9.806  38.546   4.514
64631W        W37699  12.017   4.840  12.567
64632W        W37700  41.541  43.483   0.281
64633W        W37701  36.510  32.864   2.633
64634W        W37702  12.378  17.760  13.922
64635W        W37703  34.258   0.827  14.929
64636W        W37704  31.057  37.818   2.284
64637W        W37705  10.904   9.817   2.667
64638W        W37706  17.780  43.537  14.172
64639W        W37707  42.859  30.928   2.386
64640W        W37708  37.770   3.104  13.978
64641W        W37709  23.775  32.505   0.908
64642W        W37710  25.552  27.657  10.841
64643W        W37711   2.376  21.617  12.185
64644W        W37712  15.067   4.105   3.753
64645W        W37713   8.918  13.156   0.714
64646W        W37714   3.534  39.467  10.777
64647W        W37715  18.091  40.861   2.438
64648W        W37716  10.725  42.444  11.619
64649W        W37717  27.177  36.694   2.640
64650W        W37718   6.448  20.972  12.472
64651W        W37719  33.191  16.146  10.109
64652W        W37720  11.660  17.619   2.975
64653W        W37721  13.730  17.174   3.205
64654W        W37722  28.604  43.746   3.748
64655W        W37723  10.324  39.844  11.513
64656W        W37724  15.777  16.391  14.953
64657W        W37725  14.711  32.846   0.710
64658W        W37726  21.112   3.672   4.998
64659W        W37727  10.118  16.346  13.026
64660W        W37728   1.885  13.951  13.610
64661W        W37729  38.575  24.480   1.878
64662W        W37730  13.116  23.720   1.480
64663W        W37731   8.457  39.314   2.402
64664W        W37732  38.095  38.826  11.299
64665W        W37733   2.373  19.743   3.171
64666W        W37734   3.328   7.187  11.222
64667W        W37735  31.722  36.513   0.484
64668W        W37736  40.105  34.170  10.976
64669W        W37737   0.738  18.120  10.656
64670W        W37738  43.456  20.722   3.182
64671W        W37739   3.338  22.658  11.494
64672W        W37740  35.537  42.287  14.488
64673W        W37741  38.095  20.506  13.933
64674W        W37742   3.735   8.312  11.996
64675W        W37743  10.693   3.056  12.888
64676W        W37744  20.492   2.892  10.637
64677W        W37745  25.330   6.094  10.233
64678W        W37746  12.032   1.338   2.185
64679W        W37747  26.984  23.789  11.069
64680W        W37748  26.007  29.124  11.155
64681W        W37749  20.758  12.957   0.176
64682W        W37750   2.743   9.461   2.869
64683W        W37751  19.216  41.155  11.565
64684W        W37752  37.486  18.156   1.987
64685W        W37753   1.248   3.935  12.010
64686W        W37754   4.405  36.877  13.895
64687W        W37755  32.442   0.586  13.263
64688W        W37756  11.659  44.461   1.878
64689W        W37757   0.895  33.549   4.787
64690W        W37758  32.198  26.607   0.883
64691W        W37759   1.860  15.663   4.270
64692W        W37760  12.891  36.507  13.830
64693W        W37761   9.270  16.179   3.257
64694W        W37762   4.930  30.170   0.838
64695W        W37763   8.453  42.392  11.551
64696W        W37764  21.503   4.136   1.782
64697W        W37765  37.874  24.659  14.544
64698W        W37766  37.369   0.346   3.490
64699W        W37767  22.181  38.779   4.717
64700W        W37768  11.154   4.928   4.825
64701W        W37769  28.689  39.208  13.487
64702W        W37770  30.141  29.586   3.293
64703W        W37771  28.060  25.186  12.584
64704W        W37772   7.450   5.098   2.650
64705W        W37773  18.002  12.415   3.117
64706W        W37774  38.817  28.535  11.206
64707W        W37775  44.807  34.866   4.583
64708W        W37776  34.199  44.677  11.449
64709W        W37777   6.384  33.106   3.169
64710W        W37778  36.577  23.628  13.281
64711W        W37779  37.556  13.810   3.240
64712W        W37780  25.255  14.627   2.357
64713W        W37781  39.615  32.187  13.954
64714W        W37782  38.758  34.167  14.413
64715W        W37783  40.327  12.979   1.596
64716W        W37784  31.275  10.215   4.158
64717W        W37785  21.781  17.762   2.896
64718W        W37786  32.178  22.833   1.484
64719W        W37787  35.400  43.009   0.474
64720W        W37788   6.913  17.155  11.124
64721W        W37789  41.639   1.325  13.866
64722W        W37790  24.301  15.486  12.942
64723W        W37791  17.450   5.267  10.605
64724W        W37792  30.459  36.007  10.779
64725W        W37793  40.026  32.275   3.581
64726W        W37794  31.016  40.560  14.455
64727W        W37795   3.050  37.930  14.447
64728W        W37796  12.061   5.820  11.785
64729W        W37797  15.578  32.701  14.454
64730W        W37798   8.242   1.284  13.514
64731W        W37799  22.023  15.985  11.051
64732W        W37800  31.500  17.120   2.160
64733W        W37801  23.257  26.076  14.045
64734W        W37802  43.950  42.411  12.551
64735W        W37803  25.200  11.189  14.213
64736W        W37804  33.069  39.493  14.707
64737W        W37805  10.548   1.791   0.893
64738W        W37806   0.454  39.462   2.387
64739W        W37807   2.288  26.368   0.843
64740W        W37808  34.007  32.674   0.910
64741W        W37809   2.240  31.374   2.372
64742W        W37810  37.060  37.019  14.780
64743W        W37811  37.550  13.359   4.319
64744W        W37812  10.309  38.062   0.024
64745W        W37813  38.719  22.487   3.338
64746W        W37814  12.224  15.861  13.251
64747W        W37815  19.639  16.584   3.227
64748W        W37816  35.433  44.495  14.765
64749W        W37817  27.883  41.686  10.874
64750W        W37818  28.949  14.811   1.626
64751W        W37819  41.249  39.530   0.693
64752W        W37820  38.482  20.836  14.045
64753W        W37821  11.383  35.001   1.142
64754W        W37822  17.060  24.677   1.295
64755W        W37823  18.777   4.911   0.259
64756W        W37824  37.550   9.974   0.337
64757W        W37825  12.501  32.148  13.942
64758W        W37826  13.164  15.086  14.072
64759W        W37827  19.865  28.890  11.129
64760W        W37828  23.038  22.019   2.239
64761W        W37829   9.649  28.738  14.480
64762W        W37830  17.728  13.876   2.994
64763W        W37831  38.049   7.263   3.223
64764W        W37832  22.762  26.578  13.463
64765W        W37833   0.876   5.285   1.397
64766W        W37834   8.704  37.127   0.908
64767W        W37835  15.140  36.640   0.893
64768W        W37836   4.292  26.953  11.365
64769W        W37837  28.979   8.401  12.275
64770W        W37838  31.699  38.068   1.921
64771W        W37839  10.795  25.634  14.377
64772W        W37840   7.844   3.219   3.217
64773W        W37841  12.124  29.966  14.859
64774W        W37842   5.772  31.736  12.604
64775W        W37843  28.496  39.481   2.179
64776W        W37844  22.475  27.142  12.889
64777W        W37845  25.578  25.603  12.846
64778W        W37846  38.957  21.972   0.937
64779W        W37847  13.088  13.376   3.729
64780W        W37848   4.998  18.650  11.459
64781W        W37849  33.725   3.953   1.417
64782W        W37850  36.670  23.227  12.661
64783W        W37851  43.740   9.965   0.863
64784W        W37852  14.547  19.197   0.914
64785W        W37853  10.601   4.554   5.057
64786W        W37854  44.332  11.716   1.169
64787W        W37855  26.877   6.856   0.676
64788W        W37856  40.500  20.123   4.165
64789W        W37857  32.381  20.605  10.508
64790W        W37858  13.765   3.778   0.793
64791W        W37859  39.406  30.671  10.777
64792W        W37860   6.424  23.075  13.114
64793W        W37861  25.971   5.304  12.015
64794W        W37862  41.151  10.350  14.013
64795W        W37863  26.927  26.525   4.027
64796W        W37864  24.998  31.013  10.667
64797W        W37865  21.219  18.568   4.616
64798W        W37866  29.535  31.780  14.742
64799W        W37867  24.363  32.018  10.986
64800W        W37868   4.136  13.085  14.996
64801W        W37869  36.566  16.220  12.994
64802W        W37870  14.982   1.914   4.120
64803W        W37871  20.170   8.929  11.925
64804W        W37872   6.191  26.098   0.502
64805W        W37873  41.409  17.800  10.689
64806W        W37874  28.761  34.412  12.011
64807W        W37875  33.331  26.837  10.535
64808W        W37876  17.858  12.708   4.305
64809W        W37877   6.580   1.832  10.850
64810W        W37878  18.654  25.644  12.914
64811W        W37879  15.332  43.440  11.056
64812W        W37880  39.398  16.289   0.367
64813W        W37881  43.838  43.991   2.268
64814W        W37882  37.856  16.196  14.144
64815W        W37883  11.243  17.031   2.226
64816W        W37884  28.001  34.126  14.207
64817W        W37885   5.822  30.118  13.889
64818W        W37886  30.558  38.393  14.922
64819W        W37887  41.778  16.226   9.826
64820W        W37888  35.621  10.238  10.395
64821W        W37889  25.126  16.595  13.088
64822W        W37890  21.983  25.490  12.378
64823W        W37891  27.440  26.546  14.321
64824W        W37892  35.591  12.104   0.247
64825W        W37893   1.830  32.187  10.672
64826W        W37894  30.607  33.449  14.257
64827W        W37895  39.302  31.522  12.076
64828W        W37896  40.098   7.356   3.379
64829W        W37897  43.359   3.949   4.020
64830W        W37898  10.592  10.351  12.116
64831W        W37899  36.163  36.047   3.755
64832W        W37900  44.343  35.510   3.649
64833W        W37901   5.851   0.626  11.149
64834W        W37902  21.508  26.266  10.734
64835W        W37903  31.168  21.206   2.241
64836W        W37904  39.357  36.992   4.148
64837W        W37905   0.466   9.834  11.491
64838W        W37906   4.011  28.526   2.088
64839W        W37907   0.887  43.341   4.229
64840W        W37908   2.945  44.039  14.860
64841W        W37909  36.985  29.541  12.893
64842W        W37910  44.808   5.009  12.884
64843W        W37911  15.783  32.485   1.733
64844W        W37912  19.245   1.432   2.863
64845W        W37913  27.086  36.516   4.794
64846W        W37914  33.376  28.631  13.454
64847W        W37915  33.506  38.292  14.808
64848W        W37916  26.489  12.608   2.593
64849W        W37917  40.073  22.766   3.775
64850W        W37918  19.105  43.536  10.589
64851W        W37919  19.257  32.043   2.243
64852W        W37920  28.510  32.651  11.793
64853W        W37921  44.840   2.795  10.725
64854W        W37922   3.448  12.750   0.509
64855W        W37923  29.125   1.343   2.880
64856W        W37924   0.975  41.516   2.785
64857W        W37925  22.175  22.009   2.716
64858W        W37926  40.369   8.151  12.389
64859W        W37927   3.335  16.289  13.354
64860W        W37928  44.918  25.926  10.683
64861W        W37929  42.514  21.243   4.875
64862W        W37930   4.040  15.214  14.461
64863W        W37931  31.550   8.355   4.426
64864W        W37932   7.157  22.251   4.144
64865W        W37933   8.857   8.396  13.976
64866W        W37934  40.805  34.807   0.807
64867W        W37935   3.260  35.415  13.921
64868W        W37936   2.485  22.719   3.344
64869W        W37937  34.471  31.937  11.151
64870W        W37938  15.133  28.226  12.169
64871W        W37939   1.240  23.222   4.637
64872W        W37940  34.526  40.983  12.990
64873W        W37941  36.135   6.505  13.634
64874W        W37942   8.945  32.893  13.996
64875W        W37943   1.707  14.630  10.728
64876W        W37944   0.530  32.331   1.870
64877W        W37945  29.995  37.555  14.017
64878W        W37946   0.740  14.095  12.047
64879W        W37947  28.546  38.474   0.663
64880W        W37948   4.224  27.267  10.848
64881W        W37949  22.204  15.711   1.407
64882W        W37950  36.816   4.434   4.148
64883W        W37951  23.530  32.924  12.128
64884W        W37952  14.056  44.909  10.405
64885W        W37953  15.168  33.450  13.833
64886W        W37954  37.415   4.219   1.272
64887W        W37955  40.514   9.525   4.349
64888W        W37956  39.107  33.210   2.824
64889W        W37957   3.724  17.768   2.608
64890W        W37958  18.389  19.102   3.169
64891W        W37959  12.100  38.438  11.620
64892W        W37960  44.086  25.033   2.892
64893W        W37961  12.621  15.824   1.713
64894W        W37962   3.824  13.136  12.118
64895W        W37963   0.023   5.174  14.901
64896W        W37964   1.983  32.006  11.982
64897W        W37965   8.794  26.980   1.814
64898W        W37966  31.919  25.609   1.181
64899W        W37967  29.832   2.673   1.701
64900W        W37968  14.354   9.357  11.543
64901W        W37969  34.778  12.155  14.921
64902W        W37970   7.213  41.721   0.790
64903W        W37971  42.609   4.006   4.674
64904W        W37972  17.923  22.152   3.340
64905W        W37973  16.832   6.604   3.173
64906W        W37974  31.862  23.232   4.709
64907W        W37975  25.104  40.468   4.502
64908W        W37976  23.571  11.772  12.967
64909W        W37977  27.545  38.480   2.222
64910W        W37978  15.693  18.716   2.726
64911W        W37979  20.231  13.232   4.680
64912W        W37980  11.409  23.730  11.102
64913W        W37981  28.904  39.306   0.226
64914W        W37982  12.546  12.780   2.111
64915W        W37983  42.897  28.000  13.864
64916W        W37984  29.377  21.778  11.211
64917W        W37985  26.438  24.633  14.817
64918W        W37986   7.659  31.167  11.053
64919W        W37987  34.902   9.925   3.231
64920W        W37988  10.416  14.067   2.672
64921W        W37989  11.217   4.339  12.517
64922W        W37990  19.228  16.503   1.663
64923W        W37991  35.042   0.478  13.809
64924W        W37992   2.213  42.517  11.111
64925W        W37993  43.795   4.785   4.814
64926W        W37994  12.420  33.402  11.397
64927W        W37995  41.860  28.533   4.261
64928W        W37996  32.896   0.073  13.905
64929W        W37997   4.040  39.313  10.791
64930W        W37998   6.222  17.046  14.358
64931W        W37999  18.244  40.735   0.720
64932W        W38000  11.215  43.756  13.488
64933W        W38001  29.400  38.826  13.476
64934W        W38002   8.277  22.550  13.265
64935W        W38003  25.695  40.355   2.706
64936W        W38004  19.125   2.501  10.721
64937W        W38005  39.783   8.797   0.788
64938W        W38006  19.307  39.062   0.820
64939W        W38007  27.455  32.140  10.610
64940W        W38008   1.990   6.978   0.872
64941W        W38009   3.831  26.709   3.680
64942W        W38010  42.883  43.386  10.597
64943W        W38011  13.788   3.420   3.199
64944W        W38012  21.276  23.107  14.349
64945W        W38013   6.024  19.216  12.805
64946W        W38014  43.358  40.864  12.445
64947W        W38015  25.614  23.762   3.738
64948W        W38016   6.415  32.899  13.959
64949W        W38017   4.460  41.813  13.871
64950W        W38018   9.395   5.944  14.062
64951W        W38019  41.036  39.839  10.700
64952W        W38020  24.134  27.236   4.113
64953W        W38021  15.942  43.003  10.775
64954W        W38022  33.691  43.361  13.044
64955W        W38023  26.141  22.961  10.426
64956W        W38024  31.118  38.823   2.174
64957W        W38025   5.198  29.872  11.236
64958W        W38026  21.337  18.161  12.536
64959W        W38027  11.222  25.759  11.960
64960W        W38028  31.951  41.680   3.034
64961W        W38029  43.533   0.702   2.855
64962W        W38030  36.870   6.225   3.117
64963W        W38031  12.539  23.609   2.391
64964W        W38032   2.872  43.051   2.635
64965W        W38033  10.236   4.867  11.468
64966W        W38034  31.559  31.584  14.899
64967W        W38035   6.752  40.810   2.072
64968W        W38036   1.611  39.357   0.856
64969W        W38037  36.278  20.740   4.219
64970W        W38038  15.808  35.822   1.785
64971W        W38039   6.765  24.482   2.164
64972W        W38040   7.337  27.000  11.923
64973W        W38041  36.483  16.404   1.044
64974W        W38042   2.424  23.157  13.973
64975W        W38043  19.025   3.871   3.534
64976W        W38044  12.694   5.938  14.286
64977W        W38045  42.597  23.376  11.915
64978W        W38046   2.383  23.214   4.640
64979W        W38047  11.857  42.859   0.182
64980W        W38048  20.994  44.175   4.894
64981W        W38049   6.132  25.186   0.377
64982W        W38050   3.300  13.599  13.635
64983W        W38051   3.292  12.664  14.046
64984W        W38052  36.512  16.314   0.018
64985W        W38053   8.033  25.197  14.842
64986W        W38054  28.606   6.528   1.672
64987W        W38055  36.093   1.961  11.504
64988W        W38056  29.942   9.119  11.582
64989W        W38057  14.574  31.018  10.919
64990W        W38058  40.878  25.156  13.865
64991W        W38059  26.772  33.466   4.890
64992W        W38060  28.280  36.095  11.600
64993W        W38061  27.896  22.525  13.939
64994W        W38062   8.706   6.465   1.302
64995W        W38063   8.286  26.831  13.340
64996W        W38064  39.492   3.460   0.998
64997W        W38065  34.779  16.656  11.530
64998W        W38066  40.979  34.516  12.382
64999W        W38067   6.411   3.885   2.960
65000W        W38068  11.108   2.413   1.097
65001W        W38069   4.661  40.764   2.787
65002W        W38070   4.667  22.563  10.548
65003W        W38071  38.547  29.000   3.492
65004W        W38072  11.606  19.739   3.619
65005W        W38073  44.127  11.828  10.238
65006W        W38074  26.944  20.085  11.199
65007W        W38075  12.422   1.838  14.026
65008W        W38076   7.116  44.567   0.863
65009W        W38077  23.463  42.128  11.859
65010W        W38078   9.448  20.787   1.981
65011W        W38079  16.685  19.522   2.834
65012W        W38080  44.692  25.760   3.771
65013W        W38081   1.901  30.530  14.988
65014W        W38082   3.777  12.660   3.575
65015W        W38083  42.073  43.114  10.225
65016W        W38084  34.104  28.670   1.475
65017W        W38085  31.433  41.429  13.399
65018W        W38086  36.648  11.981   1.228
65019W        W38087  15.694  17.900  11.157
65020W        W38088   3.795  12.456   4.900
65021W        W38089  30.294   3.669  14.008
65022W        W38090  14.363   3.696   3.276
65023W        W38091  37.785  36.371   0.818
65024W        W38092  21.736   5.941  14.761
65025W        W38093  19.754  24.771  11.133
65026W        W38094  44.648  23.775   2.598
65027W        W38095  12.456  18.492   0.297
65028W        W38096   3.233  40.940   1.503
65029W        W38097  32.439  11.834  14.956
65030W        W38098  43.748  37.584  11.968
65031W        W38099  26.951  13.229  11.845
65032W        W38100  31.041  17.674  10.617
65033W        W38101  10.722  40.268  12.473
65034W        W38102   4.767   2.289  11.658
65035W        W38103  40.847   6.330   2.308
65036W        W38104  36.010  34.047   2.525
65037W        W38105  20.911   5.901   4.597
65038W        W38106   5.904  30.921   0.269
65039W        W38107  43.918  37.223  12.870
65040W        W38108  11.264  44.865  11.050
65041W        W38109  33.917  32.634   3.892
65042W        W38110   2.678   2.022  12.149
65043W        W38111  28.893  43.521  14.448
65044W        W38112  41.335  43.432   2.083
65045W        W38113  36.174  12.050   2.384
65046W        W38114   0.491  16.351  14.874
65047W        W38115  39.793  39.512   0.035
65048W        W38116  17.684  42.454  13.493
65049W        W38117  32.911  17.842  10.711
65050W        W38118  22.471  30.145  11.138
65051W        W38119  43.301  37.013  14.025
65052W        W38120  10.841  11.805   2.721
65053W        W38121  13.614  43.177  14.928
65054W        W38122   3.325  20.262   4.158
65055W        W38123  30.903   9.208  12.047
65056W        W38124  38.013   7.779   3.325
65057W        W38125  34.797   4.420  12.442
65058W        W38126   0.711   0.847  11.493
65059W        W38127  21.668   7.675   4.954
65060W        W38128   5.121  42.299  12.383
65061W        W38129  41.613   5.693  14.190
65062W        W38130  12.181   7.067   1.623
65063W        W38131  41.541  25.267   0.839
65064W        W38132   1.023  22.603  12.426
65065W        W38133   5.331  36.642   3.819
65066W        W38134   9.239  11.900   2.758
65067W        W38135  38.545  14.904  13.673
65068W        W38136  25.739  40.409  11.009
65069W        W38137  35.198  35.498  12.672
65070W        W38138  38.587  32.898   1.468
65071W        W38139  24.372  15.223  13.392
65072W        W38140   5.032   9.848   3.193
65073W        W38141   6.651  35.248  11.513
65074W        W38142  24.956  34.668   1.427
65075W        W38143  34.895  34.346  14.774
65076W        W38144  14.371  20.734   3.624
65077W        W38145  15.808  32.324   2.670
65078W        W38146  31.636  10.401   4.518
65079W        W38147  36.952  32.237   0.257
65080W        W38148  17.288  36.407  12.821
65081W        W38149  28.906  40.251  12.144
65082W        W38150  21.055  39.500   1.477
65083W        W38151   6.818  25.510  11.585
65084W        W38152  22.577  26.376  14.796
65085W        W38153  34.381  10.883   1.831
65086W        W38154  39.311  20.195  11.663
65087W        W38155   6.464  23.068   1.093
65088W        W38156  40.312  44.590  11.598
65089W        W38157  43.515  10.908   2.134
65090W        W38158  40.453  30.983  14.939
65091W        W38159  21.448  15.690  14.287
65092W        W38160  37.376  31.171   3.976
65093W        W38161  38.498  33.101   3.910
65094W        W38162  19.792  21.072   1.850
65095W        W38163  30.200   1.974  11.424
65096W        W38164   9.782  41.765   1.426
65097W        W38165   4.226   2.332   2.669
65098W        W38166  32.375  17.128  11.786
65099W        W38167  11.724  14.606  13.089
65100W        W38168  16.798   6.790  10.996
65101W        W38169  21.201   7.626   2.287
65102W        W38170   8.304  42.117  10.284
65103W        W38171  31.210  26.624  11.353
65104W        W38172  32.425  41.838  10.697
65105W        W38173  41.860   8.494  10.947
65106W        W38174  29.558  22.797  13.909
65107W        W38175   7.793  23.178   3.663
65108W        W38176  14.799  35.442  13.347
65109W        W38177  10.801   2.423   3.409
65110W        W38178  35.575  44.046   0.012
65111W        W38179  36.398   0.622  13.964
65112W        W38180  22.799   7.336  11.346
65113W        W38181  35.594  28.213   0.955
65114W        W38182  17.327  43.984  11.176
65115W        W38183  22.574  43.217  13.831
65116W        W38184  17.223  43.105   2.790
65117W        W38185  21.040  16.009  14.379
65118W        W38186   5.429  38.063  11.103
65119W        W38187  10.701  41.071  14.713
65120W        W38188  19.752   0.452  12.465
65121W        W38189   4.252  29.041  14.534
65122W        W38190  24.650   9.123   3.742
65123W        W38191   4.409  14.958   2.340
65124W        W38192  11.223  17.391  11.122
65125W        W38193  31.603  12.385   0.710
65126W        W38194  38.451  24.930  14.575
65127W        W38195  20.185  22.533  13.244
65128W        W38196   4.319  44.231  14.845
65129W        W38197  17.674  16.809   3.048
65130W        W38198  20.181  19.121  12.399
65131W        W38199  29.045  22.131   4.301
65132W        W38200  18.523  37.934   1.592
65133W        W38201  44.987  17.342   0.418
65134W        W38202  15.103   8.505   0.976
65135W        W38203  29.179  40.723   3.174
65136W        W38204  13.191  24.997  14.485
65137W        W38205   0.707   1.818   4.663
65138W        W38206  36.422  32.610   1.676
65139W        W38207  22.199  32.668   4.430
65140W        W38208  36.083  13.240   1.712
65141W        W38209   1.652  22.981  14.462
65142W        W38210   0.408   4.699   0.762
65143W        W38211   0.918  25.480  10.676
65144W        W38212  27.721  18.352  13.858
65145W        W38213  34.489  36.293   3.830
65146W        W38214  38.669   3.708   4.112
65147W        W38215  25.146  20.112   0.429
65148W        W38216  20.630  35.925   1.443
65149W        W38217  34.042  18.291  14.874
65150W        W38218  24.244  30.548   1.575
65151W        W38219  26.020   4.084  13.282
65152W        W38220  37.487   1.728   2.208
65153W        W38221  34.494  38.020   3.299
65154W        W38222  36.791   5.245   3.102
65155W        W38223  25.457  17.011  12.582
65156W        W38224  11.895  12.323  14.868
65157W        W38225  44.633  17.648   3.663
65158W        W38226  33.947  40.086  10.718
65159W        W38227  38.806  26.120  12.640
65160W        W38228   4.822  36.521  13.722
65161W        W38229  32.198  32.316  11.050
65162W        W38230  32.917   4.988   3.711
65163W        W38231  24.241  34.682  10.925
65164W        W38232   9.300   8.624  12.546
65165W        W38233  26.770   6.209   2.924
65166W        W38234  22.060   3.701  13.309
65167W        W38235  38.534  12.990  11.544
65168W        W38236  25.841  15.401  12.142
65169W        W38237  35.033  29.952   0.306
65170W        W38238  19.364   6.398  11.308
65171W        W38239  22.602  35.136   1.819
65172W        W38240   7.986  37.673  11.067
65173W        W38241  25.688  40.291   0.230
65174W        W38242   4.893  15.952  11.724
65175W        W38243  20.314  30.997   0.709
65176W        W38244  10.273  32.161   2.286
65177W        W38245   6.884  29.022  10.917
65178W        W38246  41.361  23.408  13.895
65179W        W38247  15.088  35.866   2.621
65180W        W38248  17.557  42.358   4.709
65181W        W38249  12.694  35.442  12.187
65182W        W38250  14.397  23.910  14.316
65183W        W38251  28.872  36.105   2.184
65184W        W38252  24.662  30.413  13.868
65185W        W38253  35.536  38.811  10.548
65186W        W38254  24.908  25.715  11.950
65187W        W38255  30.948   2.744   4.920
65188W        W38256   2.066  20.518   4.671
65189W        W38257  37.555  35.893   3.812
65190W        W38258  20.315  44.027   1.672
65191W        W38259  31.774  42.824   2.818
65192W        W38260  26.025  30.455  12.535
65193W        W38261  27.616   7.889  14.663
65194W        W38262  43.208  33.520  11.221
65195W        W38263  23.213  18.052  11.976
65196W        W38264  15.600   6.674   0.317
65197W        W38265   0.310  34.120   4.373
65198W        W38266  11.187   0.310   1.017
65199W        W38267  28.882  30.081  12.489
65200W        W38268  18.030  30.809   3.102
65201W        W38269  36.065  19.248  10.974
65202W        W38270  30.869   2.921  13.355
65203W        W38271  39.299  43.764   2.642
65204W        W38272  38.482   1.832  13.087
65205W        W38273  37.844  18.759  11.467
65206W        W38274  28.114  19.232   0.970
65207W        W38275  32.596  31.448   0.722
65208W        W38276  23.429  22.554  12.556
65209W        W38277  24.132  37.964  12.014
65210W        W38278   0.017  22.278   1.872
65211W        W38279   9.965   7.016  14.401
65212W        W38280  39.812  15.080   4.163
65213W        W38281   3.332  22.686  13.633
65214W        W38282  42.563  35.792   4.257
65215W        W38283  21.838  19.175  11.475
65216W        W38284  38.411  10.869  14.404
65217W        W38285  43.502  10.591   1.684
65218W        W38286   7.764  27.908   0.255
65219W        W38287  39.355  23.640   0.783
65220W        W38288  36.233  24.259   5.170
65221W        W38289   9.787  39.128   3.180
65222W        W38290   9.278   8.726   2.260
65223W        W38291  22.144  42.287   2.236
65224W        W38292  13.704   1.401   1.935
65225W        W38293  15.283  24.463   1.994
65226W        W38294  25.459  34.997  11.520
65227W        W38295  32.696  43.730  14.330
65228W        W38296  44.396  21.076   2.227
65229W        W38297   2.170  26.911  13.351
65230W        W38298  35.460  11.258   2.915
65231W        W38299  16.646  36.547   0.002
65232W        W38300   8.176  11.704   0.053
65233W        W38301  29.325  14.468  11.058
65234W        W38302  25.723  41.428  13.086
65235W        W38303   0.001   4.403   0.807
65236W        W38304  21.932  22.251  13.726
65237W        W38305  33.913  41.099  10.690
65238W        W38306  40.020  41.225   0.149
65239W        W38307  26.864   6.151  11.006
65240W        W38308   7.646  40.775  12.469
65241W        W38309  11.320  36.052  14.531
65242W        W38310  24.517   5.770   4.466
65243W        W38311  18.215  23.656   0.284
65244W        W38312   0.840   6.606  11.181
65245W        W38313  18.015  35.912  12.893
65246W        W38314   5.185  39.271  12.482
65247W        W38315  40.356   6.187   3.802
65248W        W38316   5.795  17.165  10.605
65249W        W38317  36.605  31.774  11.525
65250W        W38318  22.700  29.119   2.704
65251W        W38319  36.145  42.296   4.733
65252W        W38320  22.380  26.038  12.921
65253W        W38321  34.044  12.402  13.802
65254W        W38322  29.027   7.342   4.144
65255W        W38323  32.649  40.100   2.423
65256W        W38324   6.964  34.098   1.321
65257W        W38325   5.310  36.510  10.691
65258W        W38326  36.342   3.831  11.593
65259W        W38327  29.366  27.690  14.877
65260W        W38328  12.679  25.460  13.005
65261W        W38329  21.149  18.524   2.126
65262W        W38330  33.280  21.522   4.397
65263W        W38331  43.021   5.421   1.418
65264W        W38332  16.993  13.682  12.122
65265W        W38333  44.428  15.161   3.675
65266W        W38334  23.654  15.299   4.522
65267W        W38335  31.222  35.123  12.986
65268W        W38336  25.970  37.831  10.172
65269W        W38337   0.536   2.371  12.871
65270W        W38338  38.581  20.687   3.356
65271W        W38339  10.445   9.693  14.354
65272W        W38340  11.114  18.053   1.329
65273W        W38341  16.851   9.087   1.372
65274W        W38342   9.884  15.174   0.900
65275W        W38343  33.470  27.573  13.386
65276W        W38344  18.114   7.965  14.405
65277W        W38345  37.907  30.324   3.402
65278W        W38346  10.102  21.099  12.313
65279W        W38347   4.910  34.912   0.817
65280W        W38348  33.647  44.588  12.549
65281W        W38349   1.498   9.825  11.355
65282W        W38350  16.625   8.612   0.353
65283W        W38351  39.795   2.213  14.877
65284W        W38352  24.066   9.301  14.049
65285W        W38353   5.294  10.269  10.279
65286W        W38354   1.345  28.163   0.808
65287W        W38355  38.585  43.401  10.345
65288W        W38356  37.910  19.716   0.560
65289W        W38357  41.335  34.016   2.749
65290W        W38358   0.778  24.094   1.854
65291W        W38359   9.278  34.104  13.604
65292W        W38360  35.625  34.125  10.503
65293W        W38361  13.648  25.188  12.493
65294W        W38362  29.660  27.682   1.158
65295W        W38363   3.159  41.548  11.075
65296W        W38364   3.829  42.771  14.234
65297W        W38365   5.931  11.143  11.191
65298W        W38366   7.420  13.270   2.221
65299W        W38367  42.060  32.344   3.220
65300W        W38368   7.277  43.610   3.754
65301W        W38369   3.814  29.223  12.412
65302W        W38370   6.904  35.420   0.984
65303W        W38371  18.733   5.558  12.082
65304W        W38372   5.669  12.557  12.975
65305W        W38373  43.152  13.348   2.056
65306W        W38374  19.339  10.109  11.086
65307W        W38375  31.201  19.138  14.007
65308W        W38376  43.215  33.945   0.797
65309W        W38377  43.977  10.575   1.905
65310W        W38378  14.830   5.019   3.787
65311W        W38379  25.233  11.660   2.913
65312W        W38380  11.983   5.710  14.342
65313W        W38381  10.094  35.817   5.095
65314W        W38382  39.813  32.297  10.572
65315W        W38383  38.948  35.379  10.729
65316W        W38384   7.625  16.834  12.880
65317W        W38385  36.837   5.193  14.854
65318W        W38386  27.080  36.094   3.537
65319W        W38387  35.590  36.047  12.024
65320W        W38388  42.919  12.716  14.737
65321W        W38389  11.290  38.166   1.426
65322W        W38390  25.884   4.631   3.316
65323W        W38391  18.054   2.508  13.577
65324W        W38392  15.872  11.380   4.098
65325W        W38393  43.202  25.748  11.156
65326W        W38394  26.042  35.882  14.940
65327W        W38395  36.007  29.176  14.086
65328W        W38396   4.801  10.078   0.360
65329W        W38397  27.759   5.360   0.827
65330W        W38398  14.780  28.622   2.449
65331W        W38399  41.900  22.778  12.044
65332W        W38400   6.960   8.261  11.598
65333W        W38401   7.824  34.970  12.174
65334W        W38402  26.576  23.917   4.376
65335W        W38403   6.462  32.269  12.067
65336W        W38404  19.711  11.263  13.049
65337W        W38405  10.278   3.389  14.325
65338W        W38406  12.656  25.957  13.140
65339W        W38407  38.527   7.752  12.390
65340W        W38408  38.843   2.205  11.115
65341W        W38409  42.412   5.494   3.755
65342W        W38410  30.909   1.792   2.844
65343W        W38411  12.005  35.622   1.782
65344W        W38412  14.742  24.994   2.843
65345W        W38413  21.608  14.356   0.951
65346W        W38414  42.759  32.187   5.040
65347W        W38415  32.976   1.019   2.101
65348W        W38416  32.233  30.401  10.537
65349W        W38417  12.225  25.118  14.047
65350W        W38418  12.273  12.344   1.311
65351W        W38419  27.716  17.588  11.845
65352W        W38420  34.017   6.934   3.812
65353W        W38421  36.451   6.505  11.158
65354W        W38422  29.015   4.881   1.521
65355W        W38423  34.064  31.083   4.892
65356W        W38424  25.052   2.420  14.443
65357W        W38425  32.445  38.608   2.385
65358W        W38426   9.756  16.418   4.187
65359W        W38427  41.923  35.380  11.905
65360W        W38428  37.296   5.312   1.156
65361W        W38429  39.006  38.817   2.060
65362W        W38430   3.187  41.781   1.917
65363W        W38431   6.153  42.556   3.962
65364W        W38432  19.547  42.982  13.495
65365W        W38433  16.065   9.373   4.432
65366W        W38434   0.774  43.933  11.674
65367W        W38435   2.882  33.487   3.138
65368W        W38436  17.242  13.062   4.610
65369W        W38437  22.337  19.660  12.187
65370W        W38438  39.474  24.105   0.560
65371W        W38439  11.784  37.132   0.430
65372W        W38440   2.976  14.028  14.397
65373W        W38441  13.467  25.165   0.453
65374W        W38442  20.931  34.910  12.373
65375W        W38443  20.620  19.631   3.769
65376W        W38444  35.575  41.980   0.346
65377W        W38445  24.124  23.595   3.299
65378W        W38446  25.958  29.608   0.053
65379W        W38447  20.088  37.482  11.275
65380W        W38448  19.267  12.163   4.657
65381W        W38449  20.125  27.082   0.903
65382W        W38450  14.963  21.923  12.080
65383W        W38451   3.680  29.668   0.601
65384W        W38452  26.488  37.663  13.022
65385W        W38453  34.972  40.139   4.899
65386W        W38454  40.534  43.303   3.504
65387W        W38455  14.683  29.213  10.986
65388W        W38456  19.163   3.262   0.900
65389W        W38457  22.599  14.361   1.907
65390W        W38458  39.615  25.102  13.400
65391W        W38459  12.949  26.319   0.845
65392W        W38460   0.810   0.267   3.166
65393W        W38461  25.768  18.168   4.238
65394W        W38462   5.676  10.947   2.867
65395W        W38463  32.077  18.949   0.104
65396W        W38464  35.025  27.198   2.175
65397W        W38465  22.941  17.183   1.244
65398W        W38466  21.638  31.321  14.314
65399W        W38467  28.762  33.257   3.339
65400W        W38468  36.521   7.530  11.995
65401W        W38469  10.076  10.271  11.965
65402W        W38470   1.269  31.481  13.531
65403W        W38471   8.872   5.674   4.493
65404W        W38472  16.235  43.694  13.104
65405W        W38473  42.191   0.984   3.314
65406W        W38474   8.342  14.147   1.722
65407W        W38475  12.818  39.841  12.983
65408W        W38476  15.208  28.992   3.075
65409W        W38477  14.486  36.633   0.171
65410W        W38478  37.642   5.273  12.500
65411W        W38479  26.640   9.895  11.007
65412W        W38480  22.479  37.858   3.823
65413W        W38481  34.950   9.846  10.599
65414W        W38482  44.729  25.259  14.118
65415W        W38483  41.145  44.918  11.918
65416W        W38484   7.448   8.401  13.622
65417W        W38485  22.752  29.190  12.453
65418W        W38486  28.453  37.398  13.867
65419W        W38487  27.502   5.246  14.049
65420W        W38488  16.108  13.388  11.189
65421W        W38489  12.396  31.940   0.855
65422W        W38490  14.237  19.882  13.956
65423W        W38491  38.824  37.340  14.140
65424W        W38492  10.224  15.335  11.639
65425W        W38493  11.189   3.321   1.418
65426W        W38494  24.108  42.094   2.162
65427W        W38495   0.537  30.383  11.989
65428W        W38496   7.507  37.288  11.042
65429W        W38497   1.703  36.469  14.782
65430W        W38498  36.983   5.897   4.255
65431W        W38499  37.153  22.220   3.638
65432W        W38500  44.989  24.122  12.548
65433W        W38501  42.330  29.709  14.032
65434W        W38502   2.748   6.356   0.880
65435W        W38503  30.903  24.725  14.765
65436W        W38504  30.626  31.812  12.446
65437W        W38505  43.770  43.921   0.654
65438W        W38506  27.869  27.500  13.912
65439W        W38507  35.333  34.047   1.766
65440W        W38508  33.738  19.707  10.971
65441W        W38509  37.202  26.747  12.975
65442W        W38510  40.546  42.303   4.729
65443W        W38511   8.214  32.503   1.232
65444W        W38512  22.246   1.314   2.425
65445W        W38513  32.564  19.635  11.571
65446W        W38514  29.715  10.454  11.595
65447W        W38515   4.927  44.342  11.684
65448W        W38516   4.000  23.467  13.289
65449W        W38517   8.177  27.346  13.406
65450W        W38518  43.492  10.436   0.784
65451W        W38519   9.261  41.039   3.787
65452W        W38520  19.461  32.414   2.741
65453W        W38521  40.029  13.869  14.308
65454W        W38522  20.357   9.525   1.360
65455W        W38523  29.109  34.819  14.817
65456W        W38524  15.504  24.417  10.965
65457W        W38525  11.545  35.830   4.252
65458W        W38526  40.334   5.749   4.785
65459W        W38527  21.151  24.044   4.408
65460W        W38528  37.724   8.456   2.814
65461W        W38529  11.119  32.534  12.931
65462W        W38530  44.230  40.947   3.680
65463W        W38531   8.205   7.262   0.176
65464W        W38532   8.100  29.149  13.531
65465W        W38533  10.052  18.910   4.500
65466W        W38534   9.605  38.937  12.554
65467W        W38535  14.705   9.007   4.191
65468W        W38536   7.173  39.642  13.369
65469W        W38537  17.913   0.273  11.690
65470W        W38538  27.470  28.683  14.118
65471W        W38539  42.391   7.938   4.524
65472W        W38540  27.486  28.051   1.493
65473W        W38541  43.057  27.071  10.653
65474W        W38542  24.567  44.944   4.114
65475W        W38543  43.968   0.506  11.392
65476W        W38544  25.086  35.916   3.687
65477W        W38545   8.773  43.742   2.280
65478W        W38546  31.992  15.353   3.121
65479W        W38547  37.524  37.441   5.050
65480W        W38548  39.253  29.167  11.040
65481W        W38549  15.315  13.846   0.921
65482W        W38550   4.837  18.053  13.370
65483W        W38551  40.945  36.848  11.442
65484W        W38552  28.613  29.675  13.396
65485W        W38553  18.670  40.541   5.083
65486W        W38554  18.036  29.136  11.988
65487W        W38555  40.341  11.503   2.319
65488W        W38556  44.421  24.299   3.332
65489W        W38557  21.920  15.351   0.442
65490W        W38558  24.712  23.178  11.610
65491W        W38559  10.169  44.003   1.147
65492W        W38560  26.837  20.098   1.991
65493W        W38561   9.064   3.906   1.213
65494W        W38562  37.886  11.276   3.718
65495W        W38563   1.408  30.244   1.006
65496W        W38564  42.004  19.126  14.014
65497W        W38565  16.788  44.980   2.329
65498W        W38566  17.865   7.406  12.960
65499W        W38567  21.795  35.431  11.146
65500W        W38568  30.652  28.412   1.827
65501W        W38569  37.007   9.412  13.541
65502W        W38570  12.483   0.504   2.994
65503W        W38571  15.135  24.023   0.639
65504W        W38572  35.078   4.702   0.153
65505W        W38573  26.162  20.161  13.167
65506W        W38574  18.799   9.752   1.885
65507W        W38575  35.735  20.381  12.891
65508W        W38576  33.899   1.924   2.288
65509W        W38577  12.910  17.929   3.282
65510W        W38578  33.522  18.288  13.094
65511W        W38579   6.251  19.468   3.105
65512W        W38580   8.227   2.297   2.192
65513W        W38581   0.403  20.773  12.267
65514W        W38582  19.743  12.678  13.804
65515W        W38583  23.569  23.327  12.906
65516W        W38584  17.645  30.957   1.350
65517W        W38585  19.567  14.669   4.534
65518W        W38586   0.707  42.832   0.143
65519W        W38587  31.817  19.268   3.662
65520W        W38588  15.160  28.789   1.697
65521W        W38589  12.398  11.305  13.685
65522W        W38590  39.574   2.045   1.712
65523W        W38591  41.828  14.212   2.316
65524W        W38592   9.261  17.754   4.110
65525W        W38593  11.992  40.313  14.831
65526W        W38594  44.287  40.360   3.188
65527W        W38595  32.562   1.286  12.491
65528W        W38596  17.008  27.209  13.516
65529W        W38597   7.337  38.380   0.282
65530W        W38598  24.139   7.127   0.835
65531W        W38599   9.973  18.786   5.397
65532W        W38600  16.111  18.782   1.310
65533W        W38601  26.548  41.293   3.220
65534W        W38602   0.101  39.284  13.382
65535W        W38603  11.885   7.403  10.831
65536W        W38604  26.757   0.544  13.474
65537W        W38605  12.106  17.831   2.881
65538W        W38606  20.804  31.132  14.926
65539W        W38607   4.418  15.979  13.860
65540W        W38608  14.223   2.437   0.015
65541W        W38609  24.965  10.852  13.427
65542W        W38610   3.325  26.157  11.678
65543W        W38611  44.506   1.509   0.271
65544W        W38612  24.182  44.539  14.604
65545W        W38613  29.423   4.888  12.442
65546W        W38614  41.894  32.086  11.263
65547W        W38615   9.122  10.181  13.401
65548W        W38616  18.208  31.941  14.066
65549W        W38617  30.958  23.223  12.299
65550W        W38618  39.318  13.553   2.842
65551W        W38619  39.556  21.280   3.098
65552W        W38620  35.137  29.736  12.480
65553W        W38621  20.347  43.416  12.834
65554W        W38622  28.723   0.775   3.804
65555W        W38623  25.915  35.803  12.554
65556W        W38624  13.443   4.295  12.121
65557W        W38625  37.904   3.663  14.404
65558W        W38626   5.065  17.196   4.948
65559W        W38627   7.948  26.289   3.186
65560W        W38628   1.404   0.547   1.663
65561W        W38629  41.350  26.402   3.308
65562W        W38630  43.257  21.657  13.762
65563W        W38631   5.247  24.104  10.740
65564W        W38632  28.632  39.608  11.670
65565W        W38633  21.211  15.340  11.060
65566W        W38634  25.478  21.570   2.659
65567W        W38635  39.046  22.568  11.422
65568W        W38636  24.688  34.636  11.183
65569W        W38637  43.193  27.943   1.376
65570W        W38638  23.127  24.228   2.858
65571W        W38639   7.226  29.500   2.603
65572W        W38640   3.325  39.291   3.361
65573W        W38641  16.321  23.468   3.258
65574W        W38642  17.354  31.285  10.259
65575W        W38643  21.722  33.521  14.121
65576W        W38644  43.445   6.354   3.375
65577W        W38645  14.396  22.509   1.883
65578W        W38646   7.188   3.341   1.959
65579W        W38647   0.287  21.200   1.272
65580W        W38648  41.421  22.014   1.242
65581W        W38649  37.655  26.051   2.752
65582W        W38650   5.435  28.745  11.945
65583W        W38651  14.196  20.181   2.147
65584W        W38652   7.227  27.000   3.383
65585W        W38653  17.296  28.537  12.604
65586W        W38654  29.562   3.860  10.744
65587W        W38655  19.502  14.354   1.581
65588W        W38656   9.766  39.035   4.248
65589W        W38657   5.262  23.390   4.615
65590W        W38658   3.655  35.014  12.021
65591W        W38659  14.264  15.535  14.907
65592W        W38660   6.108  42.863  12.998
65593W        W38661   1.368  44.013  10.939
65594W        W38662  43.368  22.627   0.462
65595W        W38663  37.082  42.350  11.244
65596W        W38664  24.019  39.462  13.311
65597W        W38665  19.029  30.802   0.272
65598W        W38666   3.809   5.214   2.671
65599W        W38667   2.519  27.028  10.360
65600W        W38668   2.863  22.161  13.069
65601W        W38669   2.183   0.630  10.806
65602W        W38670  17.995  20.107  12.571
65603W        W38671  32.602   2.490   1.338
65604W        W38672  21.759  32.089  14.808
65605W        W38673  30.357  36.059  11.762
65606W        W38674  25.501  20.499  14.271
65607W        W38675  18.241  21.478   4.335
65608W        W38676  14.207  13.803  11.520
65609W        W38677   5.148  22.135   1.747
65610W        W38678  38.833  20.773  14.470
65611W        W38679  35.559   8.319   3.716
65612W        W38680   6.437   1.345   3.889
65613W        W38681  29.852   4.799  14.274
65614W        W38682  34.878  15.355   4.441
65615W        W38683  23.104  19.618  14.357
65616W        W38684   0.088   9.030  13.807
65617W        W38685  15.742   5.191  12.540
65618W        W38686   1.159   3.292  14.446
65619W        W38687  37.173   5.272   2.689
65620W        W38688   1.747  35.544  11.378
65621W        W38689  43.496  36.843  11.174
65622W        W38690   1.992  32.132   1.751
65623W        W38691  42.500  28.939   3.798
65624W        W38692  31.975   6.422   4.556
65625W        W38693  36.439  30.275   0.227
65626W        W38694  24.425  32.066  13.561
65627W        W38695  16.797   7.906   1.877
65628W        W38696  32.952  15.626  13.851
65629W        W38697  11.952   1.370  13.224
65630W        W38698  18.668  17.565  14.290
65631W        W38699  19.139  31.811   0.137
65632W        W38700  44.573  16.080  14.962
65633W        W38701  33.696  32.627  11.159
65634W        W38702  10.639  35.726   3.720
65635W        W38703   2.825  37.429  11.351
65636W        W38704  29.440  12.310   2.713
65637W        W38705  22.389  32.022   4.836
65638W        W38706  43.675  28.581  14.216
65639W        W38707   3.505  41.586   1.130
65640W        W38708  14.979  42.691   2.346
65641W        W38709  24.816  43.816  14.193
65642W        W38710  26.880  14.055  12.142
65643W        W38711  17.429  41.844   4.621
65644W        W38712  28.421  43.425  12.126
65645W        W38713  17.883  23.478  13.914
65646W        W38714  34.014  20.878  14.713
65647W        W38715  39.316  39.784  10.997
65648W        W38716   4.887  11.992  12.125
65649W        W38717  11.662   5.485   2.314
65650W        W38718   0.240  41.579  14.563
65651W        W38719  31.719   6.977  13.050
65652W        W38720  32.812  18.849   2.413
65653W        W38721  23.235  25.652   4.112
65654W        W38722  20.060  19.765   4.531
65655W        W38723  22.958  35.918  14.415
65656W        W38724  33.345  38.975   2.464
65657W        W38725  17.459  44.488  14.383
65658W        W38726  15.750  40.801   2.310
65659W        W38727  43.373  15.324  12.861
65660W        W38728  20.294  10.134  11.177
65661W        W38729  14.008  15.003  14.991
65662W        W38730  13.365   2.266  12.586
65663W        W38731  33.159  28.081  11.917
65664W        W38732  25.461  38.546   0.541
65665W        W38733  19.269   6.111  12.774
65666W        W38734  35.911   0.416   1.529
65667W        W38735  42.472  33.617  13.583
65668W        W38736  42.929  12.087  12.965
65669W        W38737  25.083  42.444   2.858
65670W        W38738  14.508  41.382  11.162
65671W        W38739  24.675  22.317  12.065
65672W        W38740  25.499  26.176   4.619
65673W        W38741   9.850  33.309   2.165
65674W        W38742  19.631   1.717   0.792
65675W        W38743  13.700  18.521   0.002
65676W        W38744  24.261  19.744  10.855
65677W        W38745   5.726  39.553  11.070
65678W        W38746  11.176  16.047  14.407
65679W        W38747  17.124  32.686   3.684
65680W        W38748  37.078  37.064   0.803
65681W        W38749  27.424  17.662   4.598
65682W        W38750  36.808  38.909   1.877
65683W        W38751  43.496  26.175  11.988
65684W        W38752  31.699  40.456   4.543
65685W        W38753  15.550  43.370  10.605
65686W        W38754   4.477  44.394   0.312
65687W        W38755  27.024  32.423  13.472
65688W        W38756  28.957   9.427  10.599
65689W        W38757  41.737  20.185   3.259
65690W        W38758   8.738  32.033  14.246
65691W        W38759   6.788  24.891   3.138
65692W        W38760  20.714  28.941   0.000
65693W        W38761   8.792   7.262  11.703
65694W        W38762  44.817  38.996  12.077
65695W        W38763  20.013  26.532  14.062
65696W        W38764   5.783  35.956  13.750
65697W        W38765  17.009  14.743  11.142
65698W        W38766   8.721  23.524   3.898
65699W        W38767  39.630  31.428  13.947
65700W        W38768   5.436  10.107  13.931
65701W        W38769  26.475  25.094  13.587
65702W        W38770  31.549  12.678  10.713
65703W        W38771  18.997  23.528   2.739
65704W        W38772  35.512   2.483   3.883
65705W        W38773  39.999   9.956  11.247
65706W        W38774  29.565  12.626   1.731
65707W        W38775  18.346  31.527   4.816
65708W        W38776  36.672  33.031  14.022
65709W        W38777  44.961  16.077   4.494
65710W        W38778  28.182  23.406  12.838
65711W        W38779   1.397  13.579   4.872
65712W        W38780   2.649   4.453  13.464
65713W        W38781  13.607  23.452  13.751
65714W        W38782  23.096  16.599  14.464
65715W        W38783  32.224  36.572   0.425
65716W        W38784  38.744  13.108   0.411
65717W        W38785  28.545  30.561   0.432
65718W        W38786  41.125  38.308  10.793
65719W        W38787  38.394  30.434  14.039
65720W        W38788  14.340  37.689   2.385
65721W        W38789  38.567  33.886   3.116
65722W        W38790   8.879  10.394   0.623
65723W        W38791  26.115  22.192  14.241
65724W        W38792   9.844   5.431   4.118
65725W        W38793  36.487  15.709   4.831
65726W        W38794  14.351  11.255   4.133
65727W        W38795  26.641  35.208   2.158
65728W        W38796  44.087  29.608  13.428
65729W        W38797  14.987  14.065   2.134
65730W        W38798   7.419  32.489   2.792
65731W        W38799   6.493   3.410   0.726
65732W        W38800  13.693  19.696   1.231
65733W        W38801  42.740  35.760  11.556
65734W        W38802  11.308  36.088  10.586
65735W        W38803   4.005  34.056  14.362
65736W        W38804  10.027  44.824  14.632
65737W        W38805  27.714  26.803  12.790
65738W        W38806  41.968  23.027  10.710
65739W        W38807  19.313  25.673   0.815
65740W        W38808  14.183  33.414   1.293
65741W        W38809  13.592  12.245   3.957
65742W        W38810  23.631  23.609   4.643
65743W        W38811  17.850  44.957   0.189
65744W        W38812   2.854  30.587   2.131
65745W        W38813  14.052   9.647   2.728
65746W        W38814  34.527   1.446  11.538
65747W        W38815  11.241  18.637   1.340
65748W        W38816  16.255   2.371  10.635
65749W        W38817  14.138   2.021  14.172
65750W        W38818  13.571  28.211   1.118
65751W        W38819  27.207   2.493  14.714
65752W        W38820   5.510   8.671   4.569
65753W        W38821  11.371  26.696   2.700
65754W        W38822  18.806   2.379   0.463
65755W        W38823  29.357  29.611  10.547
65756W        W38824  40.679  28.204  12.408
65757W        W38825   2.436  11.250  13.636
65758W        W38826  24.011  20.681   2.815
65759W        W38827  34.399   6.383   1.313
65760W        W38828  15.516  27.968   1.491
65761W        W38829  36.151  17.313   4.123
65762W        W38830  24.075  10.319  12.653
65763W        W38831  16.639  29.767  11.066
65764W        W38832  20.126  41.963   1.818
65765W        W38833  37.360  32.583  11.282
65766W        W38834  31.939  35.894  14.328
65767W        W38835  43.411  16.615   1.242
65768W        W38836  23.065  26.604   3.762
65769W        W38837  17.639  15.139   2.257
65770W        W38838  39.578  13.107   2.760
65771W        W38839  27.953   1.966   3.358
65772W        W38840  24.743   0.747   4.572
65773W        W38841  39.050  33.778   3.864
65774W        W38842   7.352  18.689   1.707
65775W        W38843  18.003   0.251   3.257
65776W        W38844  23.407  26.233  14.525
65777W        W38845  39.116   0.918  11.032
65778W        W38846   6.139   2.155  12.170
65779W        W38847  29.846   0.606  11.646
65780W        W38848  37.334  32.903  11.990
65781W        W38849  17.512   9.707  14.333
65782W        W38850  44.183   2.831  13.821
65783W        W38851  16.522  23.361  14.912
65784W        W38852  34.673   4.731   1.685
65785W        W38853  24.291   5.746   1.583
65786W        W38854   2.170  11.331  14.425
65787W        W38855  34.120  40.344   1.383
65788W        W38856   5.243  42.736  13.177
65789W        W38857  38.517  30.697   2.808
65790W        W38858  30.485  25.460   4.124
65791W        W38859  22.863   6.177   0.410
65792W        W38860   4.893  32.062  13.358
65793W        W38861   9.655   0.286  13.808
65794W        W38862  24.594  16.241  14.341
65795W        W38863  20.022   4.449   2.283
65796W        W38864   8.178  34.121   0.726
65797W        W38865  27.709  42.589   1.984
65798W        W38866  20.011  43.749   1.337
65799W        W38867  27.054  24.641   1.937
65800W        W38868  14.252  12.749  12.574
65801W        W38869   1.664  24.689  12.557
65802W        W38870   9.140  18.147  14.922
65803W        W38871   2.889   4.926  13.847
65804W        W38872   8.871   9.726  14.329
65805W        W38873   3.211   7.892   3.605
65806W        W38874   2.360   0.703  13.679
65807W        W38875  30.380  11.839  14.780
65808W        W38876  18.203  22.850   4.705
65809W        W38877  12.108  17.147  11.999
65810W        W38878   6.423  29.296  14.828
65811W        W38879  11.192  41.465   3.368
65812W        W38880   6.524   9.572   1.084
65813W        W38881   5.160  11.332  13.513
65814W        W38882   3.212  19.288   4.134
65815W        W38883  22.603   4.839  10.312
65816W        W38884  43.129   2.249   0.505
65817W        W38885  23.248  19.147   1.729
65818W        W38886   2.406  16.002  14.303
65819W        W38887  44.286  37.415   2.340
65820W        W38888  41.238  19.083  14.414
65821W        W38889  21.967  30.453   3.325
65822W        W38890   8.276  27.554  11.618
65823W        W38891  41.139   8.349  11.570
65824W        W38892   7.310  39.091  11.666
65825W        W38893  15.130  13.157   4.405
65826W        W38894  34.834  43.447  14.772
65827W        W38895  14.689  33.433  14.988
65828W        W38896  19.565  41.197  10.706
65829W        W38897  26.260   7.293   5.163
65830W        W38898   2.547  27.583   4.074
65831W        W38899  23.540  15.728   4.245
65832W        W38900  24.751   1.129   2.138
65833W        W38901   1.010  26.630  12.880
65834W        W38902  43.835  20.253  14.565
65835W        W38903  42.522  43.239   0.183
65836W        W38904   8.643  30.062  12.898
65837W        W38905  44.778  33.154   0.424
65838W        W38906  33.181   2.080  12.288
65839W        W38907  15.636  37.136  13.451
65840W        W38908  24.544  22.896  13.271
65841W        W38909  24.592   6.969   1.952
65842W        W38910  34.196  13.712   3.133
65843W        W38911  23.706  44.186  11.452
65844W        W38912  24.635  18.464  10.682
65845W        W38913   9.637  41.539  10.674
65846W        W38914   6.968  29.067   3.230
65847W        W38915  34.631  26.454   2.283
65848W        W38916  44.883   9.152   4.040
65849W        W38917  43.779  38.999   3.720
65850W        W38918  17.022  15.587  13.059
65851W        W38919  44.221  13.414   1.984
65852W        W38920  21.759  43.364   3.272
65853W        W38921  37.879  35.980  14.046
65854W        W38922  24.968  17.865   0.222
65855W        W38923   7.868  19.601  11.222
65856W        W38924  13.027  32.740   3.138
65857W        W38925   3.291  22.063  10.783
65858W        W38926  39.027  40.314  10.313
65859W        W38927  28.830  15.047  13.953
65860W        W38928  43.996  25.801   1.758
65861W        W38929  13.108  25.193   3.985
65862W        W38930  42.726  24.715  14.476
65863W        W38931  36.532  25.139   2.477
65864W        W38932  10.073  29.546   2.862
65865W        W38933  34.819  39.399  13.387
65866W        W38934  11.960  13.894   0.948
65867W        W38935  25.663  22.720   0.985
65868W        W38936   4.802  38.951  12.136
65869W        W38937  42.735  23.627   1.948
65870W        W38938  32.911  21.210   2.695
65871W        W38939  28.489  40.807  10.712
65872W        W38940  30.540  23.079   4.748
65873W        W38941  17.662  19.271  13.393
65874W        W38942  41.855  28.945   3.354
65875W        W38943  25.142  30.548   2.385
65876W        W38944  19.719  26.880   2.730
65877W        W38945  39.701   2.215   4.240
65878W        W38946  29.546  23.142   1.162
65879W        W38947  34.119  38.468   1.897
65880W        W38948  26.344  34.896   1.870
65881W        W38949  22.503  13.525   3.647
65882W        W38950  24.190  39.201   0.409
65883W        W38951  43.094  44.001  10.291
65884W        W38952  16.297  36.576  14.291
65885W        W38953   2.823  12.840   3.658
65886W        W38954  30.372  29.459  13.912
65887W        W38955  20.384  38.325  11.619
65888W        W38956  23.661  30.896   4.841
65889W        W38957  23.438   4.935  11.553
65890W        W38958   3.721  17.571  10.768
65891W        W38959  15.611  33.124  11.998
65892W        W38960  20.131  17.559   4.581
65893W        W38961  16.688   9.646  13.332
65894W        W38962  23.204  31.158   4.653
65895W        W38963   1.286   0.734   2.362
65896W        W38964  10.640   4.882   1.489
65897W        W38965  44.435   4.417   4.273
65898W        W38966  17.691  35.659  14.049
65899W        W38967   3.520   5.443   3.251
65900W        W38968  21.072  18.397  14.383
65901W        W38969   2.723  35.202   3.161
65902W        W38970  17.330  31.887   2.418
65903W        W38971  36.444  22.242   2.390
65904W        W38972   8.097  15.615   4.558
65905W        W38973  27.182  14.865   2.300
65906W        W38974  36.751  14.059  12.498
65907W        W38975  18.032  21.538  10.968
65908W        W38976   3.091  25.551  13.741
65909W        W38977  36.559  20.196   1.019
65910W        W38978  20.602  20.340   3.966
65911W        W38979   4.363  26.711   2.169
65912W        W38980  15.586  37.608  10.681
65913W        W38981  26.020  19.577   2.098
65914W        W38982   6.919  14.172   2.940
65915W        W38983  19.818   1.011  12.079
65916W        W38984  42.798  24.069  12.410
65917W        W38985  37.051   9.880  11.593
65918W        W38986  44.312  31.389  14.069
65919W        W38987  37.321  32.020   2.369
65920W        W38988  23.952   8.306  12.445
65921W        W38989  23.008  29.544   3.280
65922W        W38990  15.033  41.960   4.626
65923W        W38991  27.583  15.068   1.203
65924W        W38992  42.793  25.150  10.604
65925W        W38993  43.817  42.540  11.052
65926W        W38994  39.760  10.883  10.698
65927W        W38995  30.854  42.369  12.927
65928W        W38996   2.535   6.307   2.242
65929W        W38997  28.901  27.572   3.427
65930W        W38998  39.370   1.012  13.928
65931W        W38999  43.498  14.683   2.068
65932W        W39000  33.713  26.893  11.109
65933W        W39001  18.070  37.304  10.232
65934W        W39002  19.178  37.131  13.179
65935W        W39003  12.679  16.102   2.336
65936W        W39004   7.363   2.394   2.679
65937W        W39005  31.688  25.562   4.577
65938W        W39006   8.250  39.512   4.577
65939W        W39007   6.613   3.347  13.421
65940W        W39008  10.228  12.223  14.970
65941W        W39009  22.237  12.334   3.361
65942W        W39010  24.000  37.155   4.320
65943W        W39011  20.082  40.598  11.617
65944W        W39012  43.017  32.566   3.437
65945W        W39013  15.624  42.787   1.292
65946W        W39014  25.594  21.236  10.633
65947W        W39015  39.243  19.797   0.837
65948W        W39016  41.591  25.737  13.378
65949W        W39017   5.730  35.944   4.545
65950W        W39018  43.155  23.917   0.728
65951W        W39019  10.906  15.938   0.974
65952W        W39020  11.199   5.762  13.481
65953W        W39021   3.557  17.188  10.453
65954W        W39022  19.191  16.170  13.001
65955W        W39023   1.430  44.534  13.946
65956W        W39024  39.106  26.199   0.368
65957W        W39025   3.372  13.975   2.397
65958W        W39026  29.160  19.109   4.233
65959W        W39027  11.744  20.268   1.833
65960W        W39028  26.860  29.077   3.201
65961W        W39029  42.012  35.043  11.507
65962W        W39030  13.322   6.424  13.858
65963W        W39031  39.436   6.695   0.344
65964W        W39032  23.615  21.908   2.763
65965W        W39033  38.796  16.108  12.946
65966W        W39034  32.514  34.856   4.407
65967W        W39035  32.517  44.487  11.718
65968W        W39036  43.732   4.476   2.779
65969W        W39037  30.407  28.944  12.565
65970W        W39038  26.141   2.301   0.007
65971W        W39039   4.990  40.352   1.329
65972W        W39040  10.236  20.813   0.008
65973W        W39041   1.388  13.372  13.109
65974W        W39042  42.453  11.666   4.620
65975W        W39043  18.058  29.304  10.737
65976W        W39044  32.969  12.747  12.535
65977W        W39045  16.278  39.452   3.164
65978W        W39046   3.182  43.847   2.898
65979W        W39047  40.335  35.654   1.099
65980W        W39048  31.832  27.600   3.287
65981W        W39049  36.045  23.418   4.656
65982W        W39050  44.417  32.063   5.328
65983W        W39051  41.704  43.023  10.634
65984W        W39052   6.265  27.931   2.632
65985W        W39053  14.556  26.231   2.305
65986W        W39054   6.952  10.705   4.100
65987W        W39055  42.233  27.607   0.502
65988W        W39056  29.717   6.274  13.519
65989W        W39057  31.113  16.776  13.307
65990W        W39058  39.501   2.410  10.129
65991W        W39059  24.539  24.793   4.050
65992W        W39060  30.548  17.445   3.529
65993W        W39061  11.635  43.265  12.381
65994W        W39062  23.504  29.047  13.160
65995W        W39063   1.964   2.720  13.713
65996W        W39064  12.341  10.265   4.221
65997W        W39065  32.540  35.147   3.237
65998W        W39066  15.684  31.626   2.314
65999W        W39067   8.442  28.976   0.756
66000W        W39068  22.600  44.039  14.796
66001W        W39069  39.756  35.354   3.347
66002W        W39070  33.370   4.810  13.440
66003W        W39071  27.938  35.623   2.351
66004W        W39072   9.891  37.092  14.285
66005W        W39073  18.629  38.478   1.433
66006W        W39074  16.556  12.090   0.780
66007W        W39075  25.921  39.089  14.786
66008W        W39076   2.589  26.750  12.120
66009W        W39077   7.853  32.201   4.154
66010W        W39078  25.030  16.035   0.853
66011W        W39079   1.284  21.339   0.938
66012W        W39080  22.533  20.034  12.531
66013W        W39081   4.515  14.179  11.534
66014W        W39082  30.460  15.147   1.373
66015W        W39083   1.360  43.557   4.191
66016W        W39084  43.516  12.667   5.025
66017W        W39085   5.421   1.339  10.537
66018W        W39086   0.499  24.134  12.481
66019W        W39087  40.756   3.857   1.471
66020W        W39088  15.342  18.999   1.824
66021W        W39089   0.894  21.254  14.994
66022W        W39090  25.468  21.705   0.379
66023W        W39091  38.558   8.280   3.186
66024W        W39092  33.901  20.866  10.868
66025W        W39093   5.186  25.152   3.070
66026W        W39094  42.431  28.090   0.329
66027W        W39095   4.049  18.772   0.365
66028W        W39096   0.759  15.381   2.401
66029W        W39097  33.311   5.329  14.978
66030W        W39098   8.804  25.532  13.025
66031W        W39099  41.549  39.880   3.733
66032W        W39100   3.182  37.509  13.195
66033W        W39101  36.255  29.893  14.404
66034W        W39102  38.000   2.342  10.678
66035W        W39103   9.829  42.282   1.366
66036W        W39104  28.750  25.664   0.193
66037W        W39105  34.022  34.299  13.053
66038W        W39106  11.150  13.341   4.567
66039W        W39107  18.253  27.549  13.495
66040W        W39108  32.917  44.442  11.357
66041W        W39109  21.527   3.370   4.231
66042W        W39110  24.520  28.375  12.085
66043W        W39111  19.582   8.315  14.167
66044W        W39112  32.723  17.218   0.545
66045W        W39113  24.219  41.534  12.095
66046W        W39114   2.047  29.063   1.259
66047W        W39115  23.995   3.834  14.279
66048W        W39116  39.819  34.592  10.934
66049W        W39117  36.881  35.236  14.804
66050W        W39118  38.778   3.829   3.169
66051W        W39119   8.368  21.174   4.270
66052W        W39120   4.461  17.686  14.302
66053W        W39121   7.179  21.778  11.132
66054W        W39122   2.407  28.501   1.678
66055W        W39123  37.058  13.038   3.159
66056W        W39124  26.997  17.620   0.219
66057W        W39125  34.088  18.111   0.823
66058W        W39126  32.566   2.600  12.412
66059W        W39127   3.354   9.061  13.588
66060W        W39128  27.488  28.649   4.088
66061W        W39129  36.403  15.415   0.865
66062W        W39130  29.210  10.288  13.820
66063W        W39131  30.133   2.849  12.835
66064W        W39132  33.938  35.402  10.958
66065W        W39133  20.725   1.208  11.908
66066W        W39134  21.701  17.180  11.484
66067W        W39135   0.259   9.195   4.374
66068W        W39136  28.612  37.560   0.779
66069W        W39137  42.862  10.660   4.714
66070W        W39138   8.844   1.380   0.689
66071W        W39139  16.530  42.121   3.085
66072W        W39140  27.703  22.589   2.231
66073W        W39141   9.325  27.333  12.949
66074W        W39142  17.104  37.661   4.028
66075W        W39143  11.722  35.999   2.473
66076W        W39144  23.024  13.726  12.126
66077W        W39145  17.739  26.305  10.450
66078W        W39146  12.125  20.179  10.495
66079W        W39147  12.644  27.984  11.145
66080W        W39148  22.683  35.299  12.169
66081W        W39149  33.972  23.192   4.071
66082W        W39150  16.162  23.972  13.309
66083W        W39151  38.048  21.447  14.085
66084W        W39152  20.039  15.415   0.326
66085W        W39153  29.207  44.334  13.917
66086W        W39154   9.779  23.593  14.276
66087W        W39155  20.753   4.268  14.507
66088W        W39156  19.178  39.288  13.003
66089W        W39157  41.577   6.471  10.484
66090W        W39158  14.137  22.684   2.815
66091W        W39159  34.543  19.668  10.627
66092W        W39160  15.324  43.262   2.792
66093W        W39161  32.876  38.574  10.633
66094W        W39162  33.645  31.868   3.654
66095W        W39163  16.815   0.499   2.278
66096W        W39164  17.556  10.965   1.313
66097W        W39165  10.567  31.916  12.519
66098W        W39166  12.375  18.077   0.662
66099W        W39167  17.620  35.573  12.140
66100W        W39168   9.580  16.399   2.915
66101W        W39169  25.245  19.702  12.432
66102W        W39170  38.404  28.977   2.007
66103W        W39171  37.262  17.619   1.284
66104W        W39172  30.939  41.520  14.062
66105W        W39173  44.998  43.806  12.061
66106W        W39174  29.999  42.458  11.775
66107W        W39175   3.877  22.033   2.699
66108W        W39176   6.465  17.747   3.266
66109W        W39177   2.252  22.587   2.033
66110W        W39178  32.187  11.715   2.456
66111W        W39179  41.520  40.038   3.223
66112W        W39180  10.112  36.529  13.097
66113W        W39181  35.900   0.834   1.842
66114W        W39182  17.756  32.082  14.307
66115W        W39183  30.534  39.595   3.750
66116W        W39184   7.824  39.548   4.100
66117W        W39185  15.161  40.085  14.386
66118W        W39186  11.635  10.332  12.161
66119W        W39187  24.811   1.311  13.727
66120W        W39188  43.030  11.391   4.003
66121W        W39189  33.907  27.067   1.220
66122W        W39190  15.130  14.234   4.155
66123W        W39191  30.972  30.849  13.944
66124W        W39192  21.222  41.865  13.138
66125W        W39193  12.621   2.272  10.784
66126W        W39194  39.337  12.840   0.878
66127W        W39195  21.633  21.927   3.733
66128W        W39196  29.038  12.561  12.011
66129W        W39197  18.894  37.820  12.222
66130W        W39198   2.196   2.492   2.963
66131W        W39199  43.679  19.121   0.660
66132W        W39200  21.391  26.340  12.009
66133W        W39201   8.229  16.102   1.985
66134W        W39202  34.502  19.863   3.734
66135W        W39203  32.841  26.906  13.909
66136W        W39204  20.203  29.620  12.505
66137W        W39205  17.511   1.743   3.142
66138W        W39206  33.103  32.684   1.386
66139W        W39207  21.568  18.810   4.112
66140W        W39208  30.132  29.573  14.391
66141W        W39209  22.629  32.571   1.846
66142W        W39210  15.227   4.826   4.075
66143W        W39211   6.433  34.384   0.247
66144W        W39212  34.464  21.853   0.867
66145W        W39213  14.620   9.776  14.434
66146W        W39214  44.702  21.121  11.614
66147W        W39215  14.456   2.533   5.119
66148W        W39216   8.934   7.893  13.902
66149W        W39217  24.392  33.864   4.133
66150W        W39218  39.771  17.214  12.524
66151W        W39219  34.312  18.970   1.665
66152W        W39220   2.293  42.857   2.313
66153W        W39221  11.880   2.281   0.744
66154W        W39222  16.811  15.161  12.912
66155W        W39223  23.475  33.978   0.034
66156W        W39224  24.435  14.610  12.742
66157W        W39225  21.476  37.199  10.203
66158W        W39226  43.781  18.079  13.032
66159W        W39227  31.370  30.613  10.966
66160W        W39228  13.275  40.278  13.703
66161W        W39229  43.398  29.161  11.255
66162W        W39230   3.089  26.018   1.165
66163W        W39231   5.691  42.535  12.984
66164W        W39232  29.596  14.870   1.265
66165W        W39233  26.131  31.430   4.191
66166W        W39234  13.596  35.137   1.384
66167W        W39235  34.837  18.058  14.490
66168W        W39236  18.594   1.549  14.309
66169W        W39237   3.893   4.867  12.442
66170W        W39238   9.554  32.447   0.946
66171W        W39239  34.763  26.629  11.181
66172W        W39240  28.093   4.876  14.979
66173W        W39241  24.709  24.490   3.638
66174W        W39242   0.716  40.548  10.305
66175W        W39243   8.236  44.905  12.555
66176W        W39244  10.259  35.696   4.301
66177W        W39245  36.546   5.962   3.450
66178W        W39246  29.064  10.748   1.158
66179W        W39247  43.241   8.578   0.526
66180W        W39248   9.913  40.450  12.558
66181W        W39249  13.563  21.569   2.988
66182W        W39250   5.251  13.683   4.431
66183W        W39251  44.524  18.746   4.046
66184W        W39252   9.584  29.605   2.724
66185W        W39253  38.969  32.329  11.602
66186W        W39254   4.951  44.716   1.943
66187W        W39255  11.346  31.075   3.567
66188W        W39256  28.538  30.328   3.797
66189W        W39257  43.869  34.411   0.708
66190W        W39258  12.545  29.418   0.344
66191W        W39259  31.131  34.947   1.389
66192W        W39260  18.883   1.499   0.124
66193W        W39261   3.631  18.054  12.136
66194W        W39262   3.276  44.251  11.966
66195W        W39263  43.158  22.131   0.959
66196W        W39264   2.393  43.937  10.668
66197W        W39265  37.797  42.679   3.595
66198W        W39266  12.902   8.823  10.649
66199W        W39267  43.466  29.685   4.598
66200W        W39268  13.164   1.741  10.714
66201W        W39269  11.617  40.894  14.233
66202W        W39270  11.568  19.475   4.067
66203W        W39271  37.357  37.304  10.979
66204W        W39272  33.489   6.496   4.489
66205W        W39273  39.786  32.119   2.201
66206W        W39274  42.980  40.450   2.868
66207W        W39275   0.409   2.209   0.890
66208W        W39276  26.115  41.713  10.712
66209W        W39277  25.442   1.187  11.076
66210W        W39278   2.809  29.987   0.418
66211W        W39279  38.593  35.027   3.810
66212W        W39280  42.016  12.549   4.052
66213W        W39281  28.444  18.680   1.331
66214W        W39282  30.516   3.772  13.359
66215W        W39283  43.717   0.745   2.346
66216W        W39284   9.904   9.305   1.098
66217W        W39285  25.309  33.641  12.789
66218W        W39286  25.615  21.141   3.225
66219W        W39287  32.728  35.426   1.725
66220W        W39288  17.059  31.221   1.863
66221W        W39289  42.769  34.065   0.392
66222W        W39290  12.594  41.566  14.820
66223W        W39291  16.606  33.900   1.697
66224W        W39292  37.153  29.077   4.151
66225W        W39293   0.480  26.420   0.857
66226W        W39294   7.862  11.383  14.803
66227W        W39295  15.805  27.090  10.708
66228W        W39296  14.218   3.831  13.391
66229W        W39297  40.772  34.543   4.197
66230W        W39298  37.337  42.731   5.003
66231W        W39299  27.360  28.189   1.970
66232W        W39300  26.739  37.353  14.357
66233W        W39301  22.712   8.436   0.547
66234W        W39302  24.297  43.942   4.754
66235W        W39303  11.085  25.400   4.576
66236W        W39304  32.131  40.020  14.517
66237W        W39305  39.997  37.820  13.689
66238W        W39306  22.292  13.857  14.830
66239W        W39307  13.823  38.016  12.525
66240W        W39308  17.316  16.701  14.331
66241W        W39309   6.592  37.777   0.488
66242W        W39310  11.727  22.339   3.754
66243W        W39311   4.154  22.918  11.955
66244W        W39312  36.480  42.581  14.828
66245W        W39313  15.231  35.350  12.562
66246W        W39314   8.709   2.448  10.596
66247W        W39315  20.982  24.246   2.604
66248W        W39316   9.295  35.165  12.415
66249W        W39317  33.677  21.281   3.221
66250W        W39318  20.652  28.995  10.946
66251W        W39319  36.439  33.379   2.230
66252W        W39320  30.688  41.920   2.278
66253W        W39321   2.759  42.883  10.766
66254W        W39322  33.767  39.833   0.586
66255W        W39323  35.841  12.584  12.537
66256W        W39324  15.211  34.288  11.638
66257W        W39325  43.518   5.878   2.600
66258W        W39326  28.985  29.578  12.506
66259W        W39327  18.583  18.560   1.906
66260W        W39328  14.438   6.164  11.928
66261W        W39329  34.419  31.834   0.941
66262W        W39330   1.813  37.126  14.128
66263W        W39331  20.767  42.414   0.098
66264W        W39332  31.666   2.637   2.347
66265W        W39333  35.428  43.309  10.364
66266W        W39334   6.974  10.509  14.244
66267W        W39335   0.075  40.983  12.806
66268W        W39336  23.247  44.391   4.586
66269W        W39337  18.126  13.625   3.751
66270W        W39338  43.246  35.846   4.028
66271W        W39339   3.007  27.200  14.747
66272W        W39340   9.678   6.520   2.719
66273W        W39341  27.717  11.343   4.535
66274W        W39342  31.379  19.778   2.043
66275W        W39343  39.499  33.572  11.958
66276W        W39344   5.346  31.601   2.346
66277W        W39345   6.277   0.604  14.939
66278W        W39346  21.578   3.887  12.035
66279W        W39347  38.858  21.717  12.983
66280W        W39348   7.624  41.628   1.916
66281W        W39349  33.173  23.277   2.219
66282W        W39350  15.766  25.372  13.712
66283W        W39351  11.603  30.612   0.900
66284W        W39352  23.353  25.798   2.491
66285W        W39353  31.824  26.231   2.325
66286W        W39354  12.568  13.626  10.963
66287W        W39355   4.355   5.491  10.696
66288W        W39356  17.235  23.485   0.712
66289W        W39357  23.129   9.241  12.573
66290W        W39358   2.886  42.907  11.276
66291W        W39359   1.843   5.206  12.957
66292W        W39360  13.626  31.494  13.772
66293W        W39361   2.348  27.440   1.838
66294W        W39362  42.501  12.832  10.898
66295W        W39363   9.914  41.999  12.616
66296W        W39364  43.049  38.281  12.103
66297W        W39365  43.873  26.909  14.934
66298W        W39366  14.607  28.085   1.174
66299W        W39367  24.579  16.973   3.823
66300W        W39368  13.756  12.734  10.800
66301W        W39369   6.452  29.148   1.890
66302W        W39370   7.307   7.249  13.107
66303W        W39371  39.024  14.826  13.891
66304W        W39372  13.217  11.423  12.073
66305W        W39373   6.876  38.757  14.426
66306W        W39374  18.993  27.487  10.701
66307W        W39375   9.891   8.079  12.850
66308W        W39376  26.647  33.211  11.631
66309W        W39377  17.615  40.841  10.653
66310W        W39378  19.074  33.739  11.085
66311W        W39379   3.924  22.162  13.624
66312W        W39380  19.960  16.569  13.897
66313W        W39381  22.233  18.901   2.695
66314W        W39382   2.266   8.827   9.849
66315W        W39383  40.250  16.006   2.271
66316W        W39384  25.669   3.802   1.835
66317W        W39385   6.917  24.797  14.143
66318W        W39386  32.584  11.832  11.121
66319W        W39387  18.879  18.087  11.044
66320W        W39388  10.874  36.760   1.795
66321W        W39389   5.731  24.133   1.393
66322W        W39390  20.709  24.223  12.142
66323W        W39391  37.095  39.563  12.207
66324W        W39392  27.356  13.873   1.626
66325W        W39393  24.444  12.204   4.459
66326W        W39394   0.756  17.630  13.315
66327W        W39395  14.543  21.609   0.781
66328W        W39396  13.329   3.023   0.589
66329W        W39397   4.200  22.423   2.192
66330W        W39398  27.890   7.451  13.895
66331W        W39399  32.147  34.631   2.243
66332W        W39400  30.502  42.284   4.551
66333W        W39401   1.929   5.656  11.527
66334W        W39402   8.747   5.055  11.544
66335W        W39403   1.722  14.765   2.654
66336W        W39404  32.318   3.314  13.478
66337W        W39405  42.293  26.344   1.159
66338W        W39406  36.613  29.089  13.067
66339W        W39407  25.266   8.824  14.197
66340W        W39408  23.726  26.596   2.932
66341W        W39409   7.432  30.224   3.135
66342W        W39410  33.067  20.512   1.876
66343W        W39411  33.107  16.044  14.133
66344W        W39412  32.121  35.522   4.856
66345W        W39413   4.311  13.674   0.812
66346W        W39414  10.205  17.145   2.376
66347W        W39415  16.778  20.568   3.715
66348W        W39416  23.920  19.817   5.115
66349W        W39417  41.554   9.105   3.411
66350W        W39418   3.226  26.686  10.551
66351W        W39419   0.256   1.818   4.919
66352W        W39420   9.482   9.736  10.739
66353W        W39421  42.963  23.019  10.715
66354W        W39422  25.722  37.061   4.882
66355W        W39423   0.252  24.569  13.331
66356W        W39424  36.091  19.143   4.398
66357W        W39425  36.447  21.984   1.907
66358W        W39426   5.335  44.162  12.476
66359W        W39427   6.641  41.220   3.810
66360W        W39428  10.470  17.657   2.378
66361W        W39429  14.229   9.635   0.697
66362W        W39430   9.649  40.522   4.117
66363W        W39431   4.242  28.182  12.221
66364W        W39432  44.965   8.095   0.911
66365W        W39433   6.860  36.015   2.400
66366W        W39434  30.185  20.193  12.720
66367W        W39435  33.175  10.154  12.006
66368W        W39436   3.274   9.841  10.631
66369W        W39437   0.652  23.820  13.949
66370W        W39438  32.358  11.692   4.182
66371W        W39439  28.081  25.018  13.869
66372W        W39440  26.743  35.991   0.936
66373W        W39441   6.369  24.473   4.307
66374W        W39442  41.373  41.096   0.855
66375W        W39443  10.428  24.022   4.389
66376W        W39444  42.437  25.009  12.468
66377W        W39445  10.822   2.013   0.247
66378W        W39446  35.672  19.537   2.291
66379W        W39447  16.459  34.169  12.837
66380W        W39448  38.891  21.799   2.827
66381W        W39449  10.099  44.299   2.353
66382W        W39450  15.791   8.166  14.456
66383W        W39451   9.359  30.931  14.536
66384W        W39452  22.681  31.466   2.315
66385W        W39453  37.357  35.959  11.449
66386W        W39454  33.253  10.333  11.514
66387W        W39455  32.965  24.031   1.895
66388W        W39456  33.905  36.745   1.351
66389W        W39457  26.569  10.195   9.876
66390W        W39458  22.531   8.260  14.725
66391W        W39459  14.737   6.669   4.073
66392W        W39460  39.514  18.557   2.248
66393W        W39461  21.078  20.467  13.441
66394W        W39462  20.561  42.271  11.165
66395W        W39463  28.976   2.994   1.923
66396W        W39464  19.145  23.951  12.357
66397W        W39465   8.828   7.906  11.040
66398W        W39466   7.411   8.883   1.248
66399W        W39467  29.586   7.258   2.392
66400W        W39468  11.315  19.926  13.380
66401W        W39469  12.318  30.575  12.371
66402W        W39470  40.482  42.260  12.944
66403W        W39471  18.615  14.311   1.591
66404W        W39472  23.325  33.513   0.362
66405W        W39473  31.005  38.292  12.297
66406W        W39474  17.706   3.625   4.227
66407W        W39475  29.499  13.835  11.590
66408W        W39476   5.355  44.805   1.023
66409W        W39477  29.799  22.417   4.604
66410W        W39478  41.765  28.425   1.804
66411W        W39479  16.233  10.392  14.393
66412W        W39480  15.325  29.728  13.984
66413W        W39481  29.524  26.714  14.867
66414W        W39482  26.703  30.174  13.021
66415W        W39483  20.967   1.445  11.041
66416W        W39484   5.992  10.529   1.756
66417W        W39485   3.345  35.450   4.018
66418W        W39486  42.423  24.495   3.814
66419W        W39487  44.178   6.335   3.736
66420W        W39488  12.057   0.051   0.311
66421W        W39489   8.919  38.599  14.348
66422W        W39490  32.598  23.680   1.783
66423W        W39491   2.919  21.634  12.911
66424W        W39492  29.463   2.486   2.594
66425W        W39493  19.760  21.534   1.570
66426W        W39494   0.973  19.312   0.268
66427W        W39495   3.779   4.791  10.609
66428W        W39496   4.406  16.175   2.648
66429W        W39497  28.682   5.385  12.937
66430W        W39498  36.939   7.218  12.955
66431W        W39499  28.556  26.203  12.488
66432W        W39500  43.421  24.693   3.910
66433W        W39501   5.645  33.421   1.936
66434W        W39502  40.714  38.815  10.345
66435W        W39503  11.345  18.046  10.297
66436W        W39504  25.081  28.474  14.957
66437W        W39505  36.250  31.971   1.010
66438W        W39506   9.858  35.081   2.826
66439W        W39507  35.904  33.750   5.282
66440W        W39508  24.747   1.343  14.237
66441W        W39509  34.922  44.446  12.473
66442W        W39510  41.754  11.329   2.202
66443W        W39511   7.830  44.451   0.293
66444W        W39512  13.144   0.155  11.534
66445W        W39513  33.899  22.150   0.292
66446W        W39514  24.782  12.851  14.969
66447W        W39515  28.636  24.431  11.576
66448W        W39516   0.932  16.273  12.670
66449W        W39517   8.446   2.018  12.448
66450W        W39518  31.906  18.781   1.177
66451W        W39519   3.430   2.855   4.363
66452W        W39520  38.963  11.322   4.589
66453W        W39521   7.259   1.920   2.949
66454W        W39522  28.541   9.200   4.701
66455W        W39523  30.967  41.359   3.185
66456W        W39524   5.689   8.737  14.944
66457W        W39525   8.815  40.519   2.387
66458W        W39526  24.166  13.509  13.013
66459W        W39527  18.216  22.463  12.383
66460W        W39528  40.786  36.318  10.935
66461W        W39529  37.605   5.338   4.898
66462W        W39530   3.839  39.272  13.022
66463W        W39531  39.493   7.798  11.396
66464W        W39532   2.538  11.401  10.227
66465W        W39533  37.334  27.749  13.252
66466W        W39534  38.132  41.813   3.112
66467W        W39535  42.760   9.760   2.903
66468W        W39536  31.921  27.714  13.911
66469W        W39537  39.982   3.627   0.840
66470W        W39538   7.826   6.967   1.345
66471W        W39539  34.139  38.046   2.445
66472W        W39540  12.702  37.299  12.907
66473W        W39541   4.520  12.170   3.734
66474W        W39542  11.532  36.978  14.131
66475W        W39543  38.084  32.985   0.888
66476W        W39544  11.601  43.497  10.941
66477W        W39545  20.339  24.775   1.982
66478W        W39546  10.624  16.177   2.149
66479W        W39547  14.198  32.090   2.172
66480W        W39548   1.804   8.483  14.807
66481W        W39549  10.335  34.620   2.364
66482W        W39550  28.994  20.926   0.463
66483W        W39551   9.321  12.121  14.937
66484W        W39552  10.658  35.846   0.321
66485W        W39553  37.571  30.956  11.186
66486W        W39554  44.884  41.214  13.387
66487W        W39555  12.247  40.417  10.676
66488W        W39556  27.900  31.237   0.404
66489W        W39557   4.665  29.832   2.871
66490W        W39558  28.475  37.055  11.192
66491W        W39559  35.425  14.252   2.406
66492W        W39560  27.142  44.830   3.267
66493W        W39561  23.240   1.476   3.705
66494W        W39562  15.541   2.045   2.404
66495W        W39563  27.534  44.769   3.980
66496W        W39564   3.426  26.901  14.848
66497W        W39565   5.908   2.491   0.793
66498W        W39566   0.915   6.361   2.171
66499W        W39567   1.343  44.704   0.277
66500W        W39568   3.528  39.406  14.845
66501W        W39569  23.111  16.310   0.318
66502W        W39570  40.882  23.611  11.406
66503W        W39571  30.957  40.910   3.436
66504W        W39572  11.094  26.879   1.401
66505W        W39573  31.524  10.827  12.890
66506W        W39574  25.005  28.359  11.609
66507W        W39575   1.927  19.489  11.559
66508W        W39576   6.226  36.535  12.054
66509W        W39577  25.002  16.396  10.732
66510W        W39578  22.209  28.904  12.626
66511W        W39579  23.755  39.508  14.313
66512W        W39580  38.992  14.332   1.678
66513W        W39581  20.028  27.107  12.008
66514W        W39582  33.948  38.464   0.045
66515W        W39583  36.395  26.553  10.435
66516W        W39584  24.762  41.445   4.257
66517W        W39585  23.044   0.747   5.115
66518W        W39586  34.030  19.013   2.838
66519W        W39587  22.275  17.915   3.918
66520W        W39588  10.384  39.251  13.054
66521W        W39589  31.490   1.261  12.549
66522W        W39590   2.182   3.517   4.559
66523W        W39591   1.589   6.167   0.957
66524W        W39592  10.772   8.563   2.384
66525W        W39593  23.410  33.401  14.398
66526W        W39594  31.889  30.034  11.791
66527W        W39595  12.934  26.552   0.384
66528W        W39596  41.519  44.005   0.300
66529W        W39597  16.244  29.562  11.321
66530W        W39598  40.558  29.544   1.262
66531W        W39599  28.034  33.021  12.122
66532W        W39600  21.603  18.267  14.234
66533W        W39601  13.719  18.430   1.343
66534W        W39602   6.436  23.969   0.889
66535W        W39603   0.604  32.655  12.150
66536W        W39604  25.286  23.619   2.273
66537W        W39605  36.800  14.660   0.980
66538W        W39606  13.790  15.057  11.317
66539W        W39607  11.447  16.327   1.759
66540W        W39608  19.147  41.042  13.887
66541W        W39609  11.657  15.133  13.033
66542W        W39610  30.993  18.518  12.489
66543W        W39611  32.480  10.737  11.521
66544W        W39612   3.964  41.811   2.293
66545W        W39613  37.670  32.722   0.007
66546W        W39614  29.429  15.061  11.919
66547W        W39615  32.408   0.379   2.691
66548W        W39616  36.354  20.605   2.826
66549W        W39617   2.347  10.318  12.964
66550W        W39618   7.630  21.904   4.109
66551W        W39619  36.836  17.567  13.927
66552W        W39620  29.595  35.163  12.987
66553W        W39621  19.597  19.866  13.316
66554W        W39622   4.744  32.496   2.846
66555W        W39623  26.437  27.840  13.842
66556W        W39624  18.000   3.923  11.060
66557W        W39625  22.714  31.543  13.812
66558W        W39626  37.879  28.889  12.057
66559W        W39627   2.508   8.500   2.730
66560W        W39628  34.446  32.725   4.718
66561W        W39629  30.684  40.435   4.723
66562W        W39630  29.239  20.203   2.104
66563W        W39631  40.474   8.494   1.370
66564W        W39632  20.305   8.305  13.454
66565W        W39633  41.868  26.597  12.496
66566W        W39634   1.838   8.258   1.658
66567W        W39635  21.722  16.193   4.137
66568W        W39636  24.696  25.124   1.490
66569W        W39637  20.272  18.217  11.379
66570W        W39638  37.751  14.681  13.451
66571W        W39639  40.978  35.819  13.523
66572W        W39640  11.351  15.919   5.044
66573W        W39641   4.891  16.827  12.075
66574W        W39642  37.722  40.815  12.072
66575W        W39643  38.573   8.804   3.055
66576W        W39644   0.422  10.896  12.969
66577W        W39645  42.018  30.906  13.855
66578W        W39646  41.954  40.519   5.040
66579W        W39647  23.902  25.443   1.725
66580W        W39648  38.356  42.876   5.006
66581W        W39649   5.235  10.949   4.562
66582W        W39650  31.351  36.320   3.493
66583W        W39651  25.619  37.451   5.621
66584W        W39652  22.337  10.704  12.928
66585W        W39653  27.129  25.436   2.261
66586W        W39654  22.985  39.444   1.168
66587W        W39655   9.345  21.781   0.990
66588W        W39656  22.447  34.458  10.248
66589W        W39657  18.326   5.824  11.981
66590W        W39658   5.327  18.615   3.444
66591W        W39659  24.967   0.445  12.325
66592W        W39660  18.465  11.968  11.580
66593W        W39661  34.965  21.431  10.322
66594W        W39662  28.714  25.601   4.158
66595W        W39663   3.045  21.728   3.822
66596W        W39664  14.738  16.350   1.437
66597W        W39665  26.458  29.863   3.770
66598W        W39666  16.870  18.783   1.764
66599W        W39667  44.595  22.466  12.047
66600W        W39668   5.329   4.385   1.778
66601W        W39669  40.108   8.139   1.283
66602W        W39670  25.984  40.076  11.521
66603W        W39671  15.720  22.177  12.567
66604W        W39672  18.311   2.468  13.063
66605W        W39673  25.577  10.576   2.297
66606W        W39674  32.099  15.594   3.672
66607W        W39675   1.198  27.973  12.220
66608W        W39676  44.280  29.396  10.501
66609W        W39677  39.411  35.640  10.610
66610W        W39678  26.594   1.305  13.207
66611W        W39679  33.527  42.670  10.539
66612W        W39680   0.413  19.572  14.303
66613W        W39681   9.854  20.347  10.709
66614W        W39682  30.771  18.382  12.043
66615W        W39683  32.441  38.785  13.635
66616W        W39684  11.592  33.841  13.993
66617W        W39685   4.755  35.579   1.894
66618W        W39686   4.208  20.574  11.806
66619W        W39687  30.176   5.410   0.336
66620W        W39688   6.201   4.273  13.337
66621W        W39689  30.542  13.098  14.042
66622W        W39690  41.399   6.180   1.331
66623W        W39691   8.470  28.499   1.180
66624W        W39692  14.872  14.944  12.585
66625W        W39693  32.080   0.942   3.217
66626W        W39694   4.422  25.408   1.353
66627W        W39695  31.862   1.196  11.667
66628W        W39696  27.706  17.325  10.621
66629W        W39697  29.424  34.661   2.402
66630W        W39698  31.696  37.681   1.578
66631W        W39699  32.500  30.882  13.437
66632W        W39700   1.237  38.927  14.831
66633W        W39701  36.009  18.621   2.415
66634W        W39702  12.546  17.802   5.019
66635W        W39703   0.498  20.664  10.515
66636W        W39704  17.773  35.962   4.534
66637W        W39705   0.315  30.267  13.505
66638W        W39706  28.646   5.381   4.893
66639W        W39707  21.827   2.925  13.523
66640W        W39708  28.131  31.917   1.418
66641W        W39709  34.525  12.369  12.145
66642W        W39710   4.727  37.488  11.008
66643W        W39711  41.378  40.803  13.918
66644W        W39712  38.992  42.146   1.373
66645W        W39713  43.812  38.404  12.529
66646W        W39714   7.850  26.957  13.617
66647W        W39715  19.326  14.766  14.546
66648W        W39716  30.853  27.642   3.602
66649W        W39717  12.974  15.185  12.902
66650W        W39718  25.442  18.012  11.122
66651W        W39719  22.085  16.546   1.364
66652W        W39720  38.259   9.170   0.720
66653W        W39721  10.220  10.697   0.914
66654W        W39722  11.767  30.025   2.671
66655W        W39723  36.940  15.093  10.714
66656W        W39724  16.093  31.639  11.614
66657W        W39725  25.185  24.001  14.420
66658W        W39726  37.572   7.863   3.663
66659W        W39727  26.425  18.846  13.024
66660W        W39728   6.402  28.511  14.836
66661W        W39729  29.029   8.166   0.711
66662W        W39730  38.884  38.545  13.153
66663W        W39731  17.749  26.756   0.903
66664W        W39732  44.519  10.573   4.000
66665W        W39733  17.743  26.161  10.939
66666W        W39734  18.621  20.742  12.743
66667W        W39735  20.405  35.929  12.961
66668W        W39736  11.886   4.987   3.609
66669W        W39737  15.694  34.948   4.729
66670W        W39738   8.648  44.764  12.870
66671W        W39739   1.712  24.410  11.711
66672W        W39740   2.316  43.454  12.515
66673W        W39741   2.584  24.645  13.858
66674W        W39742  17.096  43.726   2.458
66675W        W39743  32.979  27.382   0.809
66676W        W39744  23.403   6.275  11.212
66677W        W39745  30.454  26.530   2.211
66678W        W39746  21.745  39.987  14.652
66679W        W39747  24.216  29.675  13.379
66680W        W39748   3.356  36.694   0.886
66681W        W39749   6.777  14.019  10.531
66682W        W39750  18.337  24.259  11.233
66683W        W39751   4.206  28.559  13.651
66684W        W39752  24.184  11.630  10.753
66685W        W39753   1.868  21.733  11.071
66686W        W39754   7.629  36.546   2.444
66687W        W39755   3.674  17.133   4.527
66688W        W39756  12.359   9.716   0.345
66689W        W39757  15.276  33.931   1.813
66690W        W39758   8.425  14.733   2.622
66691W        W39759   7.686  13.095   2.678
66692W        W39760  43.510  13.519   2.376
66693W        W39761  17.609   2.296  12.117
66694W        W39762  12.082  15.164  10.501
66695W        W39763  32.017  44.370   5.061
66696W        W39764  32.162  10.666   0.267
66697W        W39765  43.893  28.156  10.677
66698W        W39766  28.248  25.072  12.129
66699W        W39767   6.377  34.952  11.975
66700W        W39768  44.025  11.404   5.070
66701W        W39769  37.220  41.462  11.059
66702W        W39770  43.437   4.559   0.362
66703W        W39771   0.751  19.090  12.186
66704W        W39772   2.487  29.088   0.310
66705W        W39773  13.620   9.660  11.200
66706W        W39774   6.937  24.552   1.315
66707W        W39775  23.773  25.958  13.996
66708W        W39776  11.746  15.543  10.294
66709W        W39777  41.907   4.267   3.769
66710W        W39778  22.993   6.215   1.855
66711W        W39779  12.188   2.252   4.637
66712W        W39780  13.226   4.821   3.321
66713W        W39781  29.136  32.994   3.070
66714W        W39782  10.043  33.677   4.118
66715W        W39783  36.782  36.933  11.449
66716W        W39784  38.733  14.273   4.563
66717W        W39785  42.017  24.750   3.552
66718W        W39786  12.659   3.205   2.949
66719W        W39787  11.338   3.533   1.869
66720W        W39788  27.422  12.716  10.406
66721W        W39789   6.931  27.425   0.788
66722W        W39790  21.632   6.512  13.090
66723W        W39791  33.702  14.698  11.350
66724W        W39792  43.857  12.744  14.509
66725W        W39793  17.072  15.130  13.410
66726W        W39794  37.694  41.357  13.181
66727W        W39795  21.588  18.658   0.882
66728W        W39796  18.569  29.195  14.990
66729W        W39797   7.616  27.952   3.629
66730W        W39798   7.902  10.327   1.813
66731W        W39799  24.188  10.020  11.709
66732W        W39800  10.777  15.286  12.077
66733W        W39801  35.496  33.872  10.917
66734W        W39802  40.620  27.494   4.752
66735W        W39803   4.062  41.946   3.176
66736W        W39804  23.626   0.855   0.242
66737W        W39805  10.214  16.198   3.295
66738W        W39806  27.509  44.647  14.723
66739W        W39807  36.441  40.888   3.812
66740W        W39808  13.787   7.309   3.089
66741W        W39809  17.741   1.396   0.925
66742W        W39810  17.267  28.729   3.375
66743W        W39811  16.645  43.579   3.711
66744W        W39812  12.694  25.917   2.924
66745W        W39813  24.919   3.510   1.244
66746W        W39814  24.466  36.975   4.210
66747W        W39815  26.158   1.455  10.736
66748W        W39816   8.437  37.266  10.518
66749W        W39817  19.027  13.349   2.459
66750W        W39818  39.608  37.992  11.113
66751W        W39819  27.717  14.050   2.349
66752W        W39820   8.865  17.596  11.200
66753W        W39821  23.571   1.451   2.714
66754W        W39822  29.068  18.760   3.311
66755W        W39823  42.814  41.600  10.801
66756W        W39824  29.838  10.604  10.726
66757W        W39825  12.786   9.654   1.403
66758W        W39826  25.940  38.994   4.986
66759W        W39827  10.313  29.480  13.360
66760W        W39828   2.247  31.854   1.391
66761W        W39829  26.171  10.590  12.766
66762W        W39830  29.511   8.164  14.082
66763W        W39831  12.272   3.442  13.354
66764W        W39832  12.676  24.947  12.866
66765W        W39833   5.064  32.662   1.389
66766W        W39834  24.114   0.947  10.900
66767W        W39835   8.152  28.528   0.754
66768W        W39836   1.492   8.874   1.135
66769W        W39837   4.837  38.047  13.733
66770W        W39838  23.221  29.413  13.468
66771W        W39839  22.867  10.607  12.955
66772W        W39840  34.543  39.477   0.219
66773W        W39841  26.718   8.664   3.202
66774W        W39842  10.346   7.076  12.629
66775W        W39843  30.420  24.234  14.560
66776W        W39844  44.508  21.011  13.782
66777W        W39845  17.210  40.878  11.883
66778W        W39846  23.865  37.882   5.062
66779W        W39847  31.666  12.681   4.293
66780W        W39848   9.597  15.111   4.700
66781W        W39849   5.679   7.816   2.380
66782W        W39850  16.575  30.014  11.556
66783W        W39851   0.661   2.538   3.404
66784W        W39852  16.936  21.478   0.310
66785W        W39853   7.121  10.684  11.527
66786W        W39854  25.208  35.984   0.761
66787W        W39855  24.476   4.463   4.054
66788W        W39856  44.192  31.954   1.777
66789W        W39857   1.025  23.955  11.591
66790W        W39858  43.685  40.935  13.830
66791W        W39859  23.766  25.075   1.386
66792W        W39860  39.981  30.922   2.412
66793W        W39861  15.665  16.087  10.754
66794W        W39862   7.669  42.535   3.331
66795W        W39863   4.784  43.913   1.499
66796W        W39864  43.789  21.806  11.958
66797W        W39865  29.004   8.264  11.270
66798W        W39866  32.045   4.777  11.134
66799W        W39867  26.158  32.950   3.386
66800W        W39868  33.523  24.073   3.296
66801W        W39869  16.944  42.883  10.634
66802W        W39870  16.742  42.267   4.160
66803W        W39871   8.470  29.878   0.751
66804W        W39872  19.063  44.904   1.806
66805W        W39873  21.174   9.302  12.847
66806W        W39874  23.594  16.349   0.512
66807W        W39875   3.387  28.094   4.785
66808W        W39876  32.432  15.823   1.995
66809W        W39877  44.756  40.616   3.076
66810W        W39878  42.521  10.807  14.933
66811W        W39879   4.915   1.802   1.362
66812W        W39880   1.229  34.900  13.477
66813W        W39881  31.917  19.657  10.797
66814W        W39882  23.556  40.732  14.931
66815W        W39883  25.887  38.261  11.100
66816W        W39884  11.370  20.088   1.378
66817W        W39885   7.241  20.228  12.640
66818W        W39886  14.145  16.052   0.931
66819W        W39887  14.044  43.391   3.309
66820W        W39888  13.580  31.395   2.582
66821W        W39889  16.563  20.043  11.435
66822W        W39890   6.366   4.215  14.541
66823W        W39891   7.602  19.356   3.742
66824W        W39892   4.385  28.547   1.120
66825W        W39893   1.744  30.017  11.298
66826W        W39894  22.150  38.569   3.730
66827W        W39895  44.522   9.745   4.565
66828W        W39896   1.758  23.640   0.936
66829W        W39897  23.688  35.588   1.507
66830W        W39898   0.362   6.026  14.047
66831W        W39899  16.497  11.353  13.954
66832W        W39900  25.193   7.478  14.095
66833W        W39901   7.309  28.784   1.785
66834W        W39902  13.771   1.053   1.534
66835W        W39903  35.117  25.225  11.154
66836W        W39904  12.813  19.288   0.444
66837W        W39905  17.557   4.361   4.732
66838W        W39906  20.298  19.394  10.399
66839W        W39907   0.706  16.637  12.351
66840W        W39908  41.862  39.485   1.259
66841W        W39909  17.581  14.367   1.700
66842W        W39910  24.768  21.576  13.790
66843W        W39911  34.335  18.620   4.076
66844W        W39912  31.580  21.181   4.150
66845W        W39913   9.800  29.653  12.865
66846W        W39914  16.151  31.755   4.599
66847W        W39915  43.193  27.178   3.578
66848W        W39916  43.249  40.085  11.172
66849W        W39917  42.483   0.376  13.840
66850W        W39918  35.270  21.060  14.990
66851W        W39919  22.022  44.267   3.260
66852W        W39920  31.495  24.145   1.358
66853W        W39921  29.985  36.895   1.240
66854W        W39922  39.284  44.210  13.407
66855W        W39923  33.887  14.690  12.540
66856W        W39924  36.062  24.160  14.470
66857W        W39925  32.130  29.921  14.941
66858W        W39926  30.656  39.501  14.924
66859W        W39927  44.082   6.914   2.034
66860W        W39928  29.955   0.843  13.781
66861W        W39929  14.950  39.087  11.220
66862W        W39930  24.479   8.617  14.471
66863W        W39931  24.662  43.476   0.937
66864W        W39932   7.478   3.142  11.449
66865W        W39933  40.760   5.197   3.709
66866W        W39934   4.269  24.945  12.552
66867W        W39935  12.755  39.845   1.827
66868W        W39936  37.131  10.760   4.298
66869W        W39937  14.287   4.358   1.146
66870W        W39938  13.723  33.084   0.818
66871W        W39939  43.847  12.466  13.043
66872W        W39940   5.836  14.181  14.760
66873W        W39941   3.876  28.427   1.189
66874W        W39942  24.884  41.454  14.880
66875W        W39943  35.305  17.970  13.305
66876W        W39944  18.334  32.867   4.099
66877W        W39945  25.533  15.831   1.836
66878W        W39946  42.875   9.405  12.053
66879W        W39947   3.979  39.611  14.364
66880W        W39948  35.890  37.525  10.714
66881W        W39949  27.461  39.919  12.543
66882W        W39950  25.980  29.056  13.044
66883W        W39951  31.509  42.406   0.421
66884W        W39952  12.639  27.918   4.670
66885W        W39953  17.053  28.193   5.033
66886W        W39954  37.538  34.559   1.865
66887W        W39955  30.377  44.307  14.860
66888W        W39956  34.839  35.969   2.249
66889W        W39957  24.917  20.194  10.741
66890W        W39958  36.985  25.253   2.703
66891W        W39959  10.234  33.844  10.764
66892W        W39960   3.037   4.800   2.738
66893W        W39961  20.003  33.491   3.607
66894W        W39962  33.448  34.216  12.337
66895W        W39963   7.932  22.168   1.409
66896W        W39964  24.508  28.486   3.606
66897W        W39965  23.156   4.434   3.311
66898W        W39966   5.727  31.667  13.964
66899W        W39967   2.274  35.133  14.644
66900W        W39968  31.520   2.704  12.533
66901W        W39969   2.489  30.421   4.154
66902W        W39970  30.706  31.666   2.807
66903W        W39971  14.650   7.743  12.106
66904W        W39972  37.785  25.048  12.370
66905W        W39973  44.570  17.530  11.678
66906W        W39974  32.018  31.949   0.927
66907W        W39975  43.771  36.277  14.919
66908W        W39976  42.653  27.552  12.956
66909W        W39977   3.468  24.622   1.823
66910W        W39978  44.889   7.783   4.591
66911W        W39979  30.285  30.116   1.724
66912W        W39980   6.131   8.083   2.390
66913W        W39981  35.287  34.306   2.224
66914W        W39982  42.490  15.296  12.834
66915W        W39983  24.761   2.846   3.688
66916W        W39984  42.529  29.868  11.695
66917W        W39985  30.448  40.493  11.115
66918W        W39986  41.626  42.201  14.085
66919W        W39987  21.710  34.339  14.472
66920W        W39988  26.089  42.279   0.908
66921W        W39989   5.742  40.392  11.621
66922W        W39990  15.367  17.362   3.606
66923W        W39991  38.508   0.507  12.935
66924W        W39992  41.302  26.881   4.734
66925W        W39993  31.726   8.910  11.944
66926W        W39994  39.045  18.491  11.366
66927W        W39995  42.989  16.236   4.759
66928W        W39996  25.950   6.362  11.103
66929W        W39997  30.542   1.709  13.868
66930W        W39998  11.323   9.860  11.532
66931W        W39999  23.711  22.722  11.199
66932W        W40000  11.688   4.591   2.547
66933W        W40001  31.233  24.243  13.008
66934W        W40002  14.249   0.019   0.783
66935W        W40003   2.393  15.227   2.700
66936W        W40004   3.806  42.560   0.279
66937W        W40005  13.332  10.370  12.099
66938W        W40006  43.501  37.881   0.707
66939W        W40007  13.625  33.324  10.767
66940W        W40008   6.991  21.493   0.261
66941W        W40009  41.252  26.336   5.338
66942W        W40010  42.366   7.432   0.768
66943W        W40011  29.918  36.499  14.822
66944W        W40012  37.038  29.078  11.717
66945W        W40013  33.509  44.370   1.753
66946W        W40014  33.120  27.738   2.266
66947W        W40015  28.539  35.425   4.424
66948W        W40016  21.584  43.939  11.549
66949W        W40017  36.377  24.141  12.640
66950W        W40018  44.527  19.556   3.591
66951W        W40019  28.590  23.466   3.239
66952W        W40020  11.626  12.330   4.362
66953W        W40021  43.442   8.140   3.863
66954W        W40022  10.166  21.464   1.430
66955W        W40023  37.099  30.399  12.564
66956W        W40024  35.876  14.446  12.470
66957W        W40025  31.778   1.285  11.152
66958W        W40026  44.686  40.840  10.605
66959W        W40027  40.511   1.039   1.688
66960W        W40028  15.619  17.947   3.248
66961W        W40029  28.518  28.982  13.033
66962W        W40030  30.994   5.303  14.804
66963W        W40031  39.350  33.385   0.824
66964W        W40032  37.407   5.157  13.944
66965W        W40033  27.418  23.471   1.387
66966W        W40034   7.675   9.111  11.638
66967W        W40035  26.312   6.251  12.094
66968W        W40036  24.971  12.944   3.631
66969W        W40037  22.461  21.348   0.054
66970W        W40038  29.086  15.982   2.175
66971W        W40039  38.658  41.534  11.488
66972W        W40040  10.303  16.280   4.884
66973W        W40041  14.441  36.409  10.876
66974W        W40042  28.995  12.969   0.896
66975W        W40043  18.949  26.033  11.623
66976W        W40044   2.794  23.107  12.501
66977W        W40045  40.749   2.215  13.829
66978W        W40046  41.693  19.209  11.239
66979W        W40047  18.069  39.503  10.723
66980W        W40048   2.198  36.008   2.629
66981W        W40049   4.266   3.131   0.798
66982W        W40050  26.207  41.439  14.332
66983W        W40051  13.403  18.274   3.831
66984W        W40052  39.545   6.294   4.228
66985W        W40053  30.207  39.361  12.160
66986W        W40054   1.835  29.720   2.915
66987W        W40055  33.151   4.851  14.832
66988W        W40056   2.094  38.110   1.487
66989W        W40057   8.244   5.237   3.133
66990W        W40058  19.900  29.191  11.562
66991W        W40059  16.737  14.120  13.458
66992W        W40060  25.733  28.418  14.085
66993W        W40061  25.613  42.372  11.140
66994W        W40062  40.248  19.777   0.891
66995W        W40063   7.185   9.231  13.024
66996W        W40064  34.580  10.577  13.917
66997W        W40065  37.953  12.718   0.437
66998W        W40066  30.524  14.702   1.692
66999W        W40067   0.907  10.236   2.321
67000W        W40068  25.127  40.715  13.964
67001W        W40069   4.717  14.408  12.483
67002W        W40070  13.788  23.140  10.625
67003W        W40071  34.786  36.923  11.236
67004W        W40072  38.618  28.943  13.944
67005W        W40073   6.662  16.684  13.004
67006W        W40074   7.225  11.381   0.023
67007W        W40075  12.575  43.233  14.023
67008W        W40076  19.615  40.064   0.332
67009W        W40077  35.470  22.031   1.616
67010W        W40078  21.311  27.277  13.417
67011W        W40079  22.806  11.920   1.828
67012W        W40080   1.146  26.756  10.746
67013W        W40081  37.387  36.970  13.387
67014W        W40082  18.737  37.404   0.871
67015W        W40083  41.686  10.448  10.490
67016W        W40084  17.195  18.267   0.980
67017W        W40085  25.500  28.611  12.676
67018W        W40086  25.724   2.163  12.389
67019W        W40087  23.375  40.097  13.576
67020W        W40088  39.999  14.208   3.600
67021W        W40089  12.133   1.948  11.418
67022W        W40090   1.407  17.259  13.603
67023W        W40091  23.850  33.441   4.776
67024W        W40092  39.944   7.275  13.432
67025W        W40093  33.748   6.350   3.139
67026W        W40094  32.564  44.050   3.342
67027W        W40095  35.180  20.500  13.953
67028W        W40096  39.236  16.235  13.898
67029W        W40097  35.396   9.025   2.218
67030W        W40098  39.589  32.121  10.997
67031W        W40099   7.611  38.600  12.002
67032W        W40100  33.605   5.399   1.323
67033W        W40101  40.280  35.304  13.774
67034W        W40102  28.692  19.697   3.056
67035W        W40103   1.342   9.408  12.058
67036W        W40104  10.427  34.110  11.167
67037W        W40105   4.756  23.794   3.880
67038W        W40106  15.835   1.186  11.822
67039W        W40107  12.947  22.908  13.521
67040W        W40108   7.697  13.060   3.860
67041W        W40109   8.735   1.801   1.759
67042W        W40110  39.107  11.848   1.795
67043W        W40111  23.562   8.619   1.339
67044W        W40112  29.608   1.502   1.480
67045W        W40113  38.745   9.347  14.817
67046W        W40114  25.145  15.762   3.944
67047W        W40115  23.207   1.811   2.723
67048W        W40116  32.624  15.920  12.541
67049W        W40117  18.854  34.226  12.105
67050W        W40118   0.256  32.430  13.618
67051W        W40119  21.810   1.898  14.365
67052W        W40120  32.956  19.046  14.823
67053W        W40121  27.198  39.768  11.991
67054W        W40122  16.085  39.923  12.034
67055W        W40123  40.543   4.904  11.296
67056W        W40124  41.127  24.604   1.269
67057W        W40125  42.387  23.558   4.271
67058W        W40126  24.877  30.897  13.012
67059W        W40127   1.870   6.666   4.085
67060W        W40128  30.654  41.970  13.432
67061W        W40129  42.996   9.750   4.353
67062W        W40130   4.451  24.611  11.553
67063W        W40131  43.950   3.296  13.830
67064W        W40132  24.007  28.155   1.310
67065W        W40133  18.280   4.388   1.302
67066W        W40134   7.672  37.746   2.872
67067W        W40135  19.879   9.714   1.394
67068W        W40136  28.716  26.589   3.763
67069W        W40137  31.221  25.456   2.876
67070W        W40138  36.424  32.271  10.245
67071W        W40139   8.372  12.076  10.637
67072W        W40140  34.003   7.777  11.590
67073W        W40141   5.790  39.782   3.107
67074W        W40142   9.392   3.996   3.678
67075W        W40143  29.403  43.569  14.348
67076W        W40144  10.882  29.989  13.993
67077W        W40145  17.619   2.037  13.411
67078W        W40146  25.130  11.586   1.583
67079W        W40147   4.204  37.740   3.215
67080W        W40148   9.855   5.646   3.621
67081W        W40149  38.896  19.467  10.669
67082W        W40150  26.606  19.093   1.467
67083W        W40151  42.876  15.229   4.217
67084W        W40152  33.308  23.712  11.048
67085W        W40153  16.754   4.351   4.102
67086W        W40154  38.855  34.512   3.636
67087W        W40155  20.873  12.959  12.432
67088W        W40156  41.885  25.888   2.838
67089W        W40157  25.560  25.946   1.715
67090W        W40158  29.720   9.835   4.745
67091W        W40159   3.664  17.690  14.723
67092W        W40160  30.436  20.524  14.877
67093W        W40161  27.408  38.353  11.152
67094W        W40162  38.360  38.835  13.407
67095W        W40163  26.725  18.126  12.586
67096W        W40164  17.040  18.865   2.243
67097W        W40165   4.061  12.422  12.363
67098W        W40166   6.940  25.663   2.691
67099W        W40167   5.785  44.140  10.852
67100W        W40168  38.490  25.363  13.525
67101W        W40169  12.307   7.521  13.464
67102W        W40170  30.456   0.830  13.545
67103W        W40171  34.393   8.833   1.148
67104W        W40172  23.032  22.668   1.441
67105W        W40173  10.893   1.449   2.793
67106W        W40174  30.820   1.281  14.786
67107W        W40175  28.422   8.143  14.946
67108W        W40176  23.220  13.163   4.569
67109W        W40177   8.845  37.561  10.428
67110W        W40178  32.141  38.833  11.160
67111W        W40179  32.456  10.376  13.493
67112W        W40180  43.873  32.108  14.868
67113W        W40181  16.208   7.700   0.319
67114W        W40182  31.859  32.509   1.734
67115W        W40183  25.210  11.106   2.870
67116W        W40184  27.730  14.624  13.547
67117W        W40185  44.511  44.425   9.873
67118W        W40186  31.210  35.492   9.897
67119W        W40187  14.545  41.576   1.053
67120W        W40188  15.289  33.585   0.480
67121W        W40189  39.092  11.640  14.506
67122W        W40190   5.017  38.640   2.303
67123W        W40191   5.399   7.332  14.992
67124W        W40192  42.310  39.610   0.010
67125W        W40193   7.352   4.342  13.361
67126W        W40194  27.233  12.194  12.425
67127W        W40195  30.564  40.512   1.186
67128W        W40196   5.810  13.736   2.152
67129W        W40197  34.942   5.415   3.182
67130W        W40198  11.269  37.252   0.492
67131W        W40199  26.638  29.720   0.261
67132W        W40200  23.961  22.553  10.676
67133W        W40201  19.698  16.895   1.199
67134W        W40202  40.555  12.538  14.511
67135W        W40203  35.017  17.633  13.886
67136W        W40204   6.138  42.012  14.964
67137W        W40205  40.012  41.393  14.670
67138W        W40206  15.688  39.747  13.522
67139W        W40207  39.405  31.123   3.748
67140W        W40208  34.648  26.523  14.098
67141W        W40209  21.284  43.554  11.357
67142W        W40210  38.784  43.244  12.597
67143W        W40211  28.880  43.634  13.512
67144W        W40212  43.928  13.779  11.012
67145W        W40213  21.821  40.978   2.130
67146W        W40214  38.412   1.965  14.956
67147W        W40215  14.132  13.267   3.685
67148W        W40216  17.905   3.341  11.981
67149W        W40217  16.294   4.545  11.154
67150W        W40218   3.434  44.332  10.922
67151W        W40219  36.401  26.644   0.471
67152W        W40220  16.370  41.705   2.191
67153W        W40221  28.366  26.026   0.372
67154W        W40222  28.876  34.699   2.334
67155W        W40223  16.516  42.034  13.127
67156W        W40224  44.448  10.074   5.200
67157W        W40225  18.029  27.581  14.470
67158W        W40226  11.364  43.864   4.876
67159W        W40227  28.026  23.457   4.112
67160W        W40228   3.817  33.848   4.577
67161W        W40229  26.932  22.677  10.718
67162W        W40230  31.383  12.288   1.458
67163W        W40231   2.759  13.174   4.073
67164W        W40232  29.437   1.742   3.309
67165W        W40233  41.740  31.161  14.668
67166W        W40234   8.739  38.525  11.326
67167W        W40235   8.931  16.631  13.775
67168W        W40236  23.629  39.480  11.591
67169W        W40237  28.352   3.403   4.190
67170W        W40238  30.083  12.119  10.575
67171W        W40239  15.133  29.432   2.810
67172W        W40240  39.339  21.735   1.265
67173W        W40241   4.235  12.413  10.752
67174W        W40242  33.535  17.597  11.356
67175W        W40243  10.482  33.587  12.950
67176W        W40244  43.944  43.323  11.580
67177W        W40245   1.459  17.666   0.948
67178W        W40246  18.181  24.507  12.967
67179W        W40247  36.425  14.300  13.567
67180W        W40248  31.452  26.040   1.058
67181W        W40249  36.970  17.868   3.269
67182W        W40250   6.150  39.581   0.522
67183W        W40251  27.941  37.378   1.468
67184W        W40252   5.149  17.590  12.617
67185W        W40253  29.180  30.245   4.112
67186W        W40254  32.139   6.154   0.783
67187W        W40255  32.881   7.284  11.277
67188W        W40256  21.493  22.948  12.551
67189W        W40257  30.525  11.233   3.418
67190W        W40258  18.780  37.043   0.385
67191W        W40259  19.273  14.349   2.783
67192W        W40260   1.890  26.256  10.528
67193W        W40261   3.679  21.474  10.567
67194W        W40262  40.490  14.649  14.234
67195W        W40263  23.799  44.972  10.754
67196W        W40264  21.776  15.103  12.622
67197W        W40265  31.890  44.556   4.562
67198W        W40266  38.730   8.264  14.722
67199W        W40267   3.476  41.984   3.944
67200W        W40268  29.024  33.329  13.593
67201W        W40269   7.462   6.070   1.477
67202W        W40270  23.785   7.185  11.159
67203W        W40271  19.251  14.569  12.481
67204W        W40272  34.337  43.538  14.806
67205W        W40273  26.486   5.913   1.117
67206W        W40274  12.621  23.664  12.458
67207W        W40275   3.136  35.761  13.530
67208W        W40276  37.504  18.196  14.017
67209W        W40277   2.529   0.672  12.401
67210W        W40278  16.636  20.259   0.756
67211W        W40279  18.044  26.121  13.336
67212W        W40280  32.066   3.909   2.125
67213W        W40281  39.473  44.815   4.166
67214W        W40282  38.959  41.992  11.216
67215W        W40283  33.664  12.774   0.500
67216W        W40284  32.389  14.303   1.210
67217W        W40285  18.193  14.055   1.324
67218W        W40286  24.023  17.776   0.263
67219W        W40287  36.523  20.865   3.801
67220W        W40288  38.581  19.768   1.322
67221W        W40289  22.746  41.759   0.133
67222W        W40290  11.697  22.650  12.375
67223W        W40291  18.714  23.679  12.325
67224W        W40292   2.821  31.059   1.902
67225W        W40293  29.985  11.772   2.417
67226W        W40294  18.083  24.578  11.574
67227W        W40295  11.800  33.015  13.221
67228W        W40296   7.965  36.390  11.475
67229W        W40297  15.821  23.832  14.542
67230W        W40298  31.743  11.269   2.083
67231W        W40299  44.073   9.921   3.729
67232W        W40300  21.924  25.687   4.867
67233W        W40301  23.291  23.771  14.327
67234W        W40302  39.009  35.919   1.305
67235W        W40303   1.920  29.266   4.641
67236W        W40304   9.942  18.501   1.678
67237W        W40305  28.859  39.945  10.385
67238W        W40306  38.976  38.696  10.199
67239W        W40307  34.622  34.676  11.719
67240W        W40308  18.799  12.297   3.819
67241W        W40309   6.007  10.260  12.840
67242W        W40310  43.331  43.170  10.414
67243W        W40311  12.295  27.547   0.701
67244W        W40312  10.197  18.797  12.877
67245W        W40313  19.745  28.838   2.957
67246W        W40314  29.653  22.260   0.266
67247W        W40315  37.440  35.951   4.338
67248W        W40316  15.739  24.313   3.183
67249W        W40317  14.911  14.078  10.862
67250W        W40318  30.876   3.400   1.302
67251W        W40319  12.638  26.273  11.283
67252W        W40320  29.953  19.135   3.880
67253W        W40321   1.540  43.487   2.418
67254W        W40322  24.003  18.206   3.638
67255W        W40323  28.594  29.081   4.116
67256W        W40324  29.481  42.845   3.879
67257W        W40325  41.946  17.118   4.105
67258W        W40326  21.088   8.727   3.274
67259W        W40327  12.583  37.540   0.759
67260W        W40328  36.029  23.500  11.091
67261W        W40329  32.037  33.686   0.261
67262W        W40330  44.839  16.583   4.363
67263W        W40331  11.824  13.606  11.635
67264W        W40332  15.984  30.863  13.303
67265W        W40333  15.609   2.204  10.696
67266W        W40334  28.890  34.772  10.600
67267W        W40335   2.823   7.911   4.609
67268W        W40336  15.696   7.814   1.708
67269W        W40337  17.268  40.546  14.107
67270W        W40338  30.666  15.169   1.869
67271W        W40339  41.108   0.537  12.584
67272W        W40340  33.332   5.053  12.992
67273W        W40341  41.942   8.663   4.228
67274W        W40342  11.873  38.866   0.762
67275W        W40343  27.394  22.572  13.792
67276W        W40344  39.378  41.590   4.090
67277W        W40345  22.207  34.470  14.606
67278W        W40346   0.866   3.163   2.129
67279W        W40347  20.108  16.306  11.246
67280W        W40348  38.416  27.127  13.832
67281W        W40349  12.178  16.877   4.100
67282W        W40350  28.898   6.102   1.698
67283W        W40351  21.331  23.741   0.359
67284W        W40352  17.589   8.121   1.763
67285W        W40353  39.461  29.505  12.082
67286W        W40354  20.145  42.792   1.309
67287W        W40355  28.044  15.632  11.154
67288W        W40356  39.036  38.335  12.672
67289W        W40357  11.739  25.482   3.780
67290W        W40358  41.245  24.600   2.655
67291W        W40359  43.477  28.664  11.193
67292W        W40360  14.493  41.333   3.429
67293W        W40361  12.215  43.482  11.748
67294W        W40362   7.416  35.094  14.842
67295W        W40363  37.556   2.298   3.725
67296W        W40364  17.696  44.928   2.296
67297W        W40365  15.298  20.561  12.356
67298W        W40366  16.698  28.219   2.335
67299W        W40367   1.489  11.117  13.361
67300W        W40368   0.091   4.774  11.139
67301W        W40369  35.433  40.411   0.917
67302W        W40370  27.225  23.636   0.351
67303W        W40371   7.366  17.884   2.415
67304W        W40372  37.893  26.772  14.438
67305W        W40373  37.875  22.933   3.679
67306W        W40374  18.323   4.874   0.524
67307W        W40375  44.682  29.969   0.543
67308W        W40376  13.057  39.788   4.052
67309W        W40377   0.547  26.739   3.307
67310W        W40378  33.690  32.036  12.936
67311W        W40379  41.936  11.096   1.717
67312W        W40380  19.351  36.446   0.530
67313W        W40381  31.671  23.771  11.952
67314W        W40382  25.534  35.153  14.842
67315W        W40383  30.391  23.528  11.716
67316W        W40384  40.786  25.425  14.614
67317W        W40385  28.686  44.440   2.000
67318W        W40386  31.643   9.040   2.773
67319W        W40387  17.217  22.877  14.857
67320W        W40388   9.442   7.385  12.294
67321W        W40389   9.241   5.307   0.787
67322W        W40390  30.154  29.798  10.456
67323W        W40391   7.140  26.663   4.183
67324W        W40392  29.700  44.693   2.395
67325W        W40393   1.340  17.455   3.095
67326W        W40394  13.868  32.309   2.902
67327W        W40395   2.558   8.091  10.961
67328W        W40396   0.214   4.349   2.752
67329W        W40397  39.237  18.751  10.951
67330W        W40398   0.434  33.862   0.029
67331W        W40399  28.547   8.505  11.966
67332W        W40400  41.291  11.044   2.225
67333W        W40401  10.084   0.752   4.590
67334W        W40402  35.326  16.499   3.589
67335W        W40403  40.102  42.555   3.372
67336W        W40404  13.407   6.357  12.932
67337W        W40405  27.594  12.414  14.209
67338W        W40406  25.534   0.719  10.532
67339W        W40407  36.304  16.461  12.629
67340W        W40408  42.448  16.302   0.803
67341W        W40409  37.044  26.973   0.378
67342W        W40410  26.665   8.863  12.449
67343W        W40411  20.211  33.581  11.955
67344W        W40412  23.296  21.543  11.261
67345W        W40413  44.190  28.010   3.572
67346W        W40414   6.678  17.614  12.443
67347W        W40415  31.198  15.169   3.696
67348W        W40416   6.685  22.990   1.941
67349W        W40417  26.620  44.859   3.083
67350W        W40418   6.172   3.133  13.276
67351W        W40419  13.480   6.449  12.019
67352W        W40420  16.226  32.973  12.674
67353W        W40421   9.976  10.194   4.980
67354W        W40422   6.184  24.420   0.832
67355W        W40423  26.027  41.845   0.140
67356W        W40424   4.490  23.403  12.530
67357W        W40425  19.426   6.321   1.844
67358W        W40426  43.796  28.195   1.906
67359W        W40427  31.931  42.791  13.531
67360W        W40428   0.827  21.103   3.214
67361W        W40429  23.172   2.372   1.926
67362W        W40430  42.540   4.286   4.180
67363W        W40431  43.512  15.039  14.717
67364W        W40432  35.050   7.639  11.310
67365W        W40433   3.706  18.670   1.371
67366W        W40434  28.963  38.446   3.139
67367W        W40435  36.151  37.992  14.440
67368W        W40436  19.776  40.009   3.288
67369W        W40437  13.254   7.483   0.641
67370W        W40438  25.503  31.340  14.784
67371W        W40439  44.544  18.977   1.327
67372W        W40440   1.328  15.097   4.364
67373W        W40441  14.378  26.672   2.862
67374W        W40442  30.345  26.851  12.389
67375W        W40443  39.878  22.763  11.045
67376W        W40444  38.156  18.707  14.200
67377W        W40445   3.922  12.355   2.615
67378W        W40446  18.057  15.156   1.837
67379W        W40447  11.751  16.092  10.168
67380W        W40448   3.315   0.844   4.559
67381W        W40449  13.944  13.090   1.832
67382W        W40450  22.026  20.235  13.268
67383W        W40451   2.852  10.725  11.581
67384W        W40452   6.712  24.610  12.242
67385W        W40453  29.155   0.707  11.125
67386W        W40454  18.992  37.388  13.583
67387W        W40455   1.824  20.579   3.261
67388W        W40456  32.354  42.144   3.223
67389W        W40457   8.308  16.599   2.153
67390W        W40458  13.079  25.103   2.678
67391W        W40459  34.469   0.768   4.706
67392W        W40460  16.261   7.284  14.777
67393W        W40461  26.546  37.763   2.246
67394W        W40462  43.773   7.440   4.764
67395W        W40463  15.564  35.910  14.455
67396W        W40464  28.621  11.224  12.138
67397W        W40465  34.167  36.303   1.290
67398W        W40466  22.008  11.426  13.891
67399W        W40467  22.133   3.887   2.276
67400W        W40468  18.719   6.561   0.150
67401W        W40469  12.331   0.054   2.735
67402W        W40470  21.568  29.057   0.492
67403W        W40471  23.679  29.500   2.913
67404W        W40472  21.436  40.973   3.065
67405W        W40473  42.705  10.138   1.368
67406W        W40474  32.961  32.006   4.175
67407W        W40475  23.232   9.197  12.030
67408W        W40476  25.524  43.492   1.655
67409W        W40477  34.035  29.631   3.422
67410W        W40478   0.013  11.285  13.521
67411W        W40479  15.148  13.605   0.006
67412W        W40480   1.526  37.394   3.491
67413W        W40481  28.110  16.177   1.871
67414W        W40482  30.602  13.544   3.126
67415W        W40483  22.865   0.167   3.628
67416W        W40484  31.979  37.983   0.839
67417W        W40485  36.764  16.146   3.666
67418W        W40486  15.533  28.614  14.383
67419W        W40487  41.284  13.714   2.859
67420W        W40488  18.251  38.827   4.519
67421W        W40489  18.214  25.876  14.270
67422W        W40490  21.986  11.298   3.184
67423W        W40491  43.873  31.645  13.923
67424W        W40492  23.692   7.716   4.603
67425W        W40493  18.309   0.964  10.351
67426W        W40494  16.673  37.848   1.389
67427W        W40495   5.218  15.387  11.708
67428W        W40496  13.400  43.071   1.675
67429W        W40497  25.803  40.921  10.621
67430W        W40498   0.335  30.971  14.284
67431W        W40499  35.545  37.901   1.267
67432W        W40500  20.603  16.629  14.783
67433W        W40501   8.411   2.669  10.936
67434W        W40502   7.977   3.727  11.420
67435W        W40503   9.714  40.077  10.587
67436W        W40504  40.417  18.045   4.144
67437W        W40505  25.004  16.399  12.382
67438W        W40506  34.902  43.276  14.015
67439W        W40507  19.071  12.615  12.994
67440W        W40508  21.688   6.396  12.260
67441W        W40509  11.676   1.320   4.268
67442W        W40510  41.931  39.924  13.880
67443W        W40511  43.550  41.311  13.456
67444W        W40512  40.523   1.619  14.501
67445W        W40513  14.637  25.466   3.712
67446W        W40514  14.496  20.330  11.491
67447W        W40515  20.537  22.503  14.406
67448W        W40516  43.038  41.462   1.053
67449W        W40517  14.671  23.676   4.226
67450W        W40518   0.191   3.666   5.203
67451W        W40519  39.011  19.186  14.325
67452W        W40520  34.478   7.705  10.685
67453W        W40521  39.594  37.443   0.461
67454W        W40522  24.093  40.068   4.556
67455W        W40523   4.880  18.563  12.453
67456W        W40524  22.378  26.439  14.312
67457W        W40525  12.730  11.720  12.758
67458W        W40526  18.675  15.483   2.372
67459W        W40527  40.201  27.928  11.109
67460W        W40528  30.446  26.048  14.126
67461W        W40529   5.356  38.943   4.530
67462W        W40530  29.887  30.893   0.340
67463W        W40531  20.089  10.000   1.021
67464W        W40532  22.211  18.733   3.207
67465W        W40533   1.336  13.733   2.495
67466W        W40534  22.687   6.884  12.960
67467W        W40535   0.949  13.303   3.604
67468W        W40536  23.317  40.197  11.913
67469W        W40537  21.279  12.155  12.093
67470W        W40538  32.141   9.235  10.730
67471W        W40539  44.352  15.625  12.828
67472W        W40540  37.318  43.480   3.527
67473W        W40541  17.717  12.593  12.510
67474W        W40542  33.108  41.324   2.359
67475W        W40543  43.381   2.904  14.318
67476W        W40544  17.883  15.661   1.826
67477W        W40545  31.555   0.484  12.095
67478W        W40546  20.064  15.645  10.771
67479W        W40547   3.961   9.772  10.579
67480W        W40548  26.501  17.663   1.213
67481W        W40549   8.348  12.599  10.675
67482W        W40550   9.439  11.128   3.211
67483W        W40551  25.090  34.352  11.073
67484W        W40552  21.077  14.775  13.849
67485W        W40553  32.828  26.195   2.199
67486W        W40554  35.642   7.086  12.477
67487W        W40555  34.407  23.932   2.887
67488W        W40556  29.217   3.842  11.619
67489W        W40557   5.295  38.219  13.938
67490W        W40558  11.502  33.972  10.238
67491W        W40559  26.018  13.884   0.411
67492W        W40560   6.959   5.385  12.062
67493W        W40561   9.408  20.019  10.680
67494W        W40562  29.248  43.779  14.863
67495W        W40563  17.475  33.002  11.537
67496W        W40564  11.689  18.988   4.153
67497W        W40565  10.266  18.863   9.971
67498W        W40566  33.689  14.344   2.780
67499W        W40567  37.308  29.565   2.478
67500W        W40568  10.549  28.878  10.527
67501W        W40569  40.089  43.462  11.503
67502W        W40570  15.528   4.992  14.201
67503W        W40571  29.141  21.261  12.585
67504W        W40572  32.824   6.381   3.955
67505W        W40573  30.500  30.089   0.609
67506W        W40574  12.796  31.039   2.005
67507W        W40575  17.032  25.592  12.871
67508W        W40576  23.633  27.479   4.588
67509W        W40577   3.117   5.376  11.092
67510W        W40578   6.878  19.710  14.112
67511W        W40579  17.981   6.212   4.170
67512W        W40580  34.436   4.984  14.253
67513W        W40581   1.749   0.096  13.574
67514W        W40582  25.782   6.319   0.450
67515W        W40583   1.111  16.988  10.337
67516W        W40584  23.999  43.506   1.363
67517W        W40585  26.669   4.957  13.811
67518W        W40586   5.724   8.312   2.664
67519W        W40587  21.677  17.058   1.696
67520W        W40588   1.098  36.984   4.191
67521W        W40589  23.174  36.002  14.901
67522W        W40590  37.502  19.026   3.656
67523W        W40591  23.348  34.363   0.358
67524W        W40592   1.937  33.030   4.111
67525W        W40593   9.447  22.942   1.422
67526W        W40594   5.894   0.481   0.728
67527W        W40595   5.388   0.538  10.923
67528W        W40596  35.977   4.893  12.009
67529W        W40597  27.689  18.095   4.524
67530W        W40598  41.795   8.880   4.668
67531W        W40599  20.231  37.269   2.606
67532W        W40600  18.706  34.671   1.147
67533W        W40601   6.789  30.057   2.219
67534W        W40602  42.297  31.531  12.461
67535W        W40603  37.521  17.465  12.884
67536W        W40604  42.967  23.547   1.496
67537W        W40605   7.846  42.171  14.456
67538W        W40606  30.988  21.650   2.445
67539W        W40607   2.549  37.836  12.007
67540W        W40608   6.690  30.423   0.279
67541W        W40609  24.956  20.290  14.900
67542W        W40610  26.192   8.120   4.131
67543W        W40611  19.086  34.025  12.586
67544W        W40612  34.360   6.420  12.421
67545W        W40613   1.194   6.988   1.222
67546W        W40614   8.295  24.528  11.609
67547W        W40615  32.048  42.850   4.546
67548W        W40616  27.673  13.881   2.834
67549W        W40617  43.291   5.732  11.534
67550W        W40618  39.316  17.171   3.743
67551W        W40619   9.669  23.773  13.793
67552W        W40620  11.840  39.050   0.249
67553W        W40621   1.239   3.153   3.469
67554W        W40622   5.127  10.431  11.680
67555W        W40623  30.601  39.994   1.229
67556W        W40624  17.736   5.731  14.987
67557W        W40625  21.202  17.744   1.348
67558W        W40626  15.755  44.738  11.900
67559W        W40627  17.316  38.204  13.348
67560W        W40628  12.927  26.547   4.293
67561W        W40629  20.623  25.870  14.715
67562W        W40630   5.185  40.417   0.848
67563W        W40631  12.894   0.197  12.846
67564W        W40632  17.808  22.049   4.566
67565W        W40633   1.946  30.690  12.344
67566W        W40634  39.532  41.572  11.650
67567W        W40635  30.376  44.074   1.755
67568W        W40636  26.999  16.596   4.349
67569W        W40637  13.668  36.518   0.645
67570W        W40638  23.214  12.305   2.478
67571W        W40639  22.961  11.283  14.059
67572W        W40640   2.959   0.473   0.860
67573W        W40641  34.496  36.507   0.935
67574W        W40642  42.224  24.215  11.850
67575W        W40643  32.825   0.246  10.677
67576W        W40644  44.425   4.690  12.112
67577W        W40645   5.911  13.356  14.350
67578W        W40646   4.421  32.107   1.213
67579W        W40647  14.192   0.242   1.704
67580W        W40648  29.491   0.429  14.295
67581W        W40649  32.432  15.516  13.872
67582W        W40650  22.654  43.609  10.962
67583W        W40651  26.583   1.241   3.317
67584W        W40652  38.652  42.735  12.102
67585W        W40653   7.924  21.545   2.694
67586W        W40654  24.724  29.692  13.454
67587W        W40655  19.613  43.050   2.770
67588W        W40656  42.863  21.805  12.937
67589W        W40657  20.063  14.521  14.925
67590W        W40658  23.300   5.690   2.558
67591W        W40659   8.686  25.736   0.923
67592W        W40660  41.829  25.217   2.368
67593W        W40661  20.075   3.712   2.680
67594W        W40662  26.684  24.204  11.955
67595W        W40663  37.410  41.600   2.181
67596W        W40664  23.093   3.883   4.560
67597W        W40665  17.587   4.336   2.919
67598W        W40666  10.243  14.025  14.628
67599W        W40667  19.054   4.500  11.757
67600W        W40668  19.192   1.713   2.419
67601W        W40669  20.189  43.046  13.904
67602W        W40670  34.887   0.204   0.262
67603W        W40671  24.834  41.732  11.061
67604W        W40672  43.871  15.795   3.665
67605W        W40673  33.064  22.617  13.610
67606W        W40674   0.821  35.623   4.950
67607W        W40675  25.693   9.274   3.556
67608W        W40676  16.514   6.761  11.438
67609W        W40677  36.917   3.006   2.348
67610W        W40678  14.303   0.887  14.336
67611W        W40679  13.763  42.554   2.449
67612W        W40680  43.338  21.592   0.241
67613W        W40681   7.558  36.014   3.608
67614W        W40682  17.039  20.808   4.627
67615W        W40683  19.109  30.098   0.271
67616W        W40684   0.700  42.599   4.660
67617W        W40685   7.680  25.926   0.676
67618W        W40686  41.733  10.257  12.573
67619W        W40687   8.017  35.887  12.745
67620W        W40688  27.906  41.025   4.828
67621W        W40689  17.405   3.842   4.601
67622W        W40690   1.431  23.719   4.559
67623W        W40691   5.497  22.656  14.121
67624W        W40692  22.571  28.277   1.206
67625W        W40693   8.679  19.550  14.925
67626W        W40694  42.573  39.672   1.416
67627W        W40695  11.310  39.033   1.570
67628W        W40696  15.139   0.065  13.065
67629W        W40697   5.837  37.369   0.823
67630W        W40698  42.454  44.956  12.406
67631W        W40699   3.704  19.289   4.081
67632W        W40700  25.309   4.816  14.023
67633W        W40701  44.688  25.049   1.346
67634W        W40702  18.800   0.881   2.222
67635W        W40703  32.151  42.823  14.854
67636W        W40704  40.514  15.160   1.723
67637W        W40705   2.276  33.460   2.807
67638W        W40706  38.107  42.338  14.271
67639W        W40707   4.856  11.117  14.466
67640W        W40708  23.877  24.939  11.540
67641W        W40709  37.477  36.365   1.433
67642W        W40710  18.110  20.583  10.834
67643W        W40711   6.369  31.583   3.644
67644W        W40712  33.091  33.092   5.332
67645W        W40713   0.428  34.641  14.708
67646W        W40714  41.981  20.302  14.717
67647W        W40715  33.803  40.996  14.392
67648W        W40716  16.902   1.338   1.361
67649W        W40717  23.033  23.530   0.840
67650W        W40718  35.903  28.674   3.396
67651W        W40719   0.814   2.252  10.571
67652W        W40720  23.196  39.096  10.196
67653W        W40721  42.502  31.640  11.970
67654W        W40722  30.349  18.181  12.967
67655W        W40723  36.147  41.332  13.449
67656W        W40724   0.658  41.074  11.007
67657W        W40725  30.069  15.064  12.509
67658W        W40726  26.444   4.990   1.378
67659W        W40727  13.743  30.925  12.555
67660W        W40728  13.570   8.118   0.443
67661W        W40729  43.251  24.003  14.924
67662W        W40730  11.653  17.305  13.833
67663W        W40731  25.714   6.771   1.197
67664W        W40732  38.326  20.824   0.075
67665W        W40733   0.702   5.252   2.772
67666W        W40734  16.040  34.460  11.137
67667W        W40735   7.170  24.742   1.870
67668W        W40736  41.166  44.439  13.316
67669W        W40737  22.229  32.169  12.477
67670W        W40738   9.270   7.111   4.682
67671W        W40739  41.722  30.501  13.732
67672W        W40740  38.024  21.162  12.563
67673W        W40741  25.740  40.218  14.230
67674W        W40742  15.422   3.296  13.182
67675W        W40743   6.861  15.815  10.553
67676W        W40744  28.717  19.172   1.113
67677W        W40745  37.181  16.046   2.775
67678W        W40746  29.547  12.118   0.843
67679W        W40747  10.048   2.433  10.645
67680W        W40748  20.205   6.924  12.194
67681W        W40749  44.220  43.785   4.668
67682W        W40750   9.217  17.226   2.251
67683W        W40751  17.019   8.461   0.673
67684W        W40752  43.808   5.449  13.927
67685W        W40753  34.033   5.803  12.457
67686W        W40754  33.142   3.437  10.862
67687W        W40755  23.605   7.107   0.281
67688W        W40756  20.371  19.192   3.617
67689W        W40757  29.229  21.578  13.378
67690W        W40758  10.818  43.969   0.610
67691W        W40759  31.446   4.444   4.031
67692W        W40760  34.420  23.564  13.809
67693W        W40761   8.088  40.518   0.994
67694W        W40762  41.843  24.176   4.880
67695W        W40763  39.295  42.035  10.434
67696W        W40764  41.075  22.642  13.374
67697W        W40765  22.543  33.344  14.429
67698W        W40766   5.134  16.020  11.003
67699W        W40767   4.861  40.277  13.070
67700W        W40768  15.909  27.131   4.070
67701W        W40769  13.688   0.485  11.549
67702W        W40770  42.983  20.257  13.019
67703W        W40771   8.424  25.175  11.721
67704W        W40772  16.591  28.823  14.464
67705W        W40773   9.049  39.703  10.094
67706W        W40774  38.326   3.784  11.695
67707W        W40775  18.833  25.274  11.043
67708W        W40776   1.066  15.360   3.405
67709W        W40777  11.053   8.761  13.575
67710W        W40778  41.093  33.029  12.370
67711W        W40779  22.858  27.605   2.772
67712W        W40780  19.317  29.392  11.679
67713W        W40781  36.095   5.840   3.226
67714W        W40782  14.117  43.658   1.937
67715W        W40783   4.815  15.703   0.172
67716W        W40784   0.228   5.625   1.306
67717W        W40785   0.831  30.952  11.512
67718W        W40786  37.454  42.087   0.966
67719W        W40787  26.664  40.309   3.056
67720W        W40788  18.777   3.567  10.301
67721W        W40789  22.298  43.687  14.538
67722W        W40790  33.085  41.752  13.829
67723W        W40791  26.892  15.324   3.649
67724W        W40792  33.067   8.848   0.891
67725W        W40793  28.504  37.919  13.947
67726W        W40794  42.930  11.384   1.777
67727W        W40795  30.028  23.203  11.475
67728W        W40796  17.307  37.410   4.558
67729W        W40797   3.282  43.873  11.204
67730W        W40798  14.165  36.322   0.442
67731W        W40799  12.607  37.573  12.008
67732W        W40800   1.036  21.670  11.512
67733W        W40801  35.861  16.304  12.392
67734W        W40802  23.460  13.148   0.882
67735W        W40803  10.898   7.500   2.836
67736W        W40804  13.709  26.449   4.796
67737W        W40805   7.408  20.199   2.618
67738W        W40806  21.629  27.974   4.655
67739W        W40807   9.189  44.349  13.996
67740W        W40808  39.213  14.320   4.743
67741W        W40809  19.724  13.241  14.836
67742W        W40810  29.622  15.853   9.996
67743W        W40811   8.949  44.956  10.423
67744W        W40812  39.621  35.499  13.436
67745W        W40813  29.535  29.683  12.961
67746W        W40814  34.924  28.776  12.454
67747W        W40815  15.342  44.541   4.084
67748W        W40816  43.482  22.680   2.357
67749W        W40817   7.362   6.030  12.838
67750W        W40818  26.132  36.083   4.085
67751W        W40819   5.964  44.369  13.349
67752W        W40820  12.577  20.770  14.435
67753W        W40821   4.781  10.649  11.315
67754W        W40822  24.143  13.035  12.060
67755W        W40823  42.281   5.030   0.808
67756W        W40824  11.099   7.362  12.966
67757W        W40825  20.209  35.012  14.272
67758W        W40826  40.574  15.685  11.875
67759W        W40827  44.975  29.007  10.596
67760W        W40828  13.254  32.444  11.728
67761W        W40829  16.709  13.282   1.305
67762W        W40830  15.218  29.562   3.799
67763W        W40831   6.975  35.100  14.097
67764W        W40832  10.396  24.926   4.574
67765W        W40833  21.581   3.924  10.770
67766W        W40834  16.997  33.179   2.795
67767W        W40835  29.219  16.035  10.704
67768W        W40836  28.575  31.391   0.008
67769W        W40837   4.833  41.759  11.036
67770W        W40838  29.130  32.980   3.579
67771W        W40839  25.785  25.087  12.950
67772W        W40840  31.443   7.354  10.643
67773W        W40841  25.146  44.750   3.301
67774W        W40842  13.077  19.878   3.166
67775W        W40843  44.190  37.626  14.399
67776W        W40844  39.298   1.571   5.021
67777W        W40845   4.216  15.990   4.623
67778W        W40846  12.195   7.203  12.964
67779W        W40847  43.780  30.678   1.876
67780W        W40848  35.410  30.168  12.533
67781W        W40849  12.493   9.785  12.759
67782W        W40850  37.777   4.317   4.083
67783W        W40851  39.822   3.986  10.614
67784W        W40852  40.268  34.036   2.180
67785W        W40853  38.859  41.473   4.082
67786W        W40854  11.581  29.571   0.226
67787W        W40855  12.709  33.672  10.502
67788W        W40856  19.987  18.581   1.922
67789W        W40857  20.188  22.434  14.809
67790W        W40858   0.401  14.703  13.132
67791W        W40859  42.819   6.279  14.562
67792W        W40860  40.982  16.992  12.857
67793W        W40861  12.137   7.212   2.632
67794W        W40862  28.064  12.163   4.132
67795W        W40863  10.245  38.911  10.611
67796W        W40864  14.302  10.816   0.865
67797W        W40865  19.396  12.602  13.412
67798W        W40866  41.937  27.910   0.195
67799W        W40867   1.733  10.712   1.235
67800W        W40868   2.304   1.757   4.633
67801W        W40869   1.886  15.762  11.563
67802W        W40870  40.283   4.772  12.515
67803W        W40871  29.120  29.750   4.197
67804W        W40872  43.366  36.540  14.718
67805W        W40873  12.575  29.978   3.720
67806W        W40874   9.419   5.364  13.426
67807W        W40875  26.486   1.559   0.380
67808W        W40876  16.046  21.230  12.093
67809W        W40877  31.199  41.554   1.870
67810W        W40878   7.458  26.613  14.376
67811W        W40879  24.557  32.095  12.100
67812W        W40880  14.713   9.102  14.297
67813W        W40881  39.129  32.526   2.289
67814W        W40882  16.929  30.488  12.483
67815W        W40883  35.887  17.676  14.069
67816W        W40884  29.229  12.802   4.218
67817W        W40885  15.702  43.305   1.242
67818W        W40886  28.903  24.774  13.711
67819W        W40887  17.064   0.859   4.446
67820W        W40888  36.913  18.721   0.364
67821W        W40889  11.880  39.438  14.415
67822W        W40890  37.480  24.033   4.584
67823W        W40891   1.396   4.935  12.553
67824W        W40892  44.563   9.351   3.299
67825W        W40893  34.851  15.611   1.663
67826W        W40894   8.274  33.689   1.029
67827W        W40895  32.572  12.293   0.844
67828W        W40896  21.676  41.305  13.024
67829W        W40897  27.765   6.717  12.202
67830W        W40898  29.466  12.952  10.279
67831W        W40899  34.561   6.716   1.688
67832W        W40900  16.869  23.508  13.756
67833W        W40901  23.086  29.246  12.893
67834W        W40902  44.850  28.075  12.655
67835W        W40903  43.300   0.293   1.048
67836W        W40904  25.479   4.039  11.010
67837W        W40905   6.615  34.391  11.973
67838W        W40906  22.507   7.180  12.528
67839W        W40907  23.358   2.310   0.523
67840W        W40908  13.073  27.565   4.042
67841W        W40909  30.680  15.219   3.629
67842W        W40910   2.741  14.670  10.686
67843W        W40911  40.799  24.809   2.481
67844W        W40912  30.939  26.470   4.535
67845W        W40913  16.117   2.376   1.314
67846W        W40914  41.012  13.534   0.150
67847W        W40915  15.327  11.346   2.429
67848W        W40916  21.709  37.784  12.029
67849W        W40917  43.108  33.674  12.857
67850W        W40918  33.751   7.222  13.402
67851W        W40919  38.424  25.654  11.203
67852W        W40920  18.071  33.334   0.467
67853W        W40921   4.362  21.844   3.584
67854W        W40922  40.901  41.512  12.882
67855W        W40923  29.455  13.808  14.511
67856W        W40924  40.996   0.852   0.333
67857W        W40925  35.490  22.207  11.036
67858W        W40926  29.735  16.880   0.468
67859W        W40927   0.761  30.408   3.669
67860W        W40928   7.443  19.317  11.006
67861W        W40929  24.713   4.233  11.435
67862W        W40930  11.851  16.372   3.285
67863W        W40931  35.114  25.649  13.854
67864W        W40932  22.039   2.100   0.337
67865W        W40933  21.172   9.862  10.131
67866W        W40934   5.335   5.142  13.588
67867W        W40935  27.160  19.478  11.664
67868W        W40936   1.537  21.238   4.285
67869W        W40937  22.546  17.800   0.645
67870W        W40938  35.530  43.267   2.735
67871W        W40939  40.340   5.832   3.405
67872W        W40940  30.975   3.741   4.090
67873W        W40941  33.532   2.418   4.639
67874W        W40942  39.034   7.167  11.984
67875W        W40943   8.202  16.740   0.411
67876W        W40944  35.138  30.596  12.494
67877W        W40945  26.956  41.981   3.675
67878W        W40946  32.259  25.047  13.948
67879W        W40947   1.748   8.142  10.663
67880W        W40948   5.958   1.185   2.400
67881W        W40949  22.651  24.466  14.237
67882W        W40950   7.288   8.961  11.954
67883W        W40951  20.128  23.545   3.306
67884W        W40952   6.335   0.425  10.473
67885W        W40953  15.529  29.396  10.212
67886W        W40954  40.778  15.081  14.345
67887W        W40955   6.585  12.921   0.609
67888W        W40956  27.998  30.672   0.415
67889W        W40957  31.759   9.770   0.230
67890W        W40958  40.357   6.309   1.317
67891W        W40959  38.993  25.779   4.593
67892W        W40960   6.106   5.135   1.217
67893W        W40961  38.287  25.110   3.228
67894W        W40962  19.709  11.223   4.695
67895W        W40963  36.834  41.259   3.732
67896W        W40964  42.809   8.369   2.830
67897W        W40965  26.719  22.663  12.130
67898W        W40966   1.647  28.015  11.886
67899W        W40967  12.595   3.726   1.326
67900W        W40968  23.671  18.341  12.505
67901W        W40969  41.958  37.680  10.720
67902W        W40970  40.417  18.188  14.876
67903W        W40971  16.692  44.231  13.797
67904W        W40972  39.919  18.897  11.104
67905W        W40973  14.220  12.355  13.343
67906W        W40974  11.908  34.559   4.367
67907W        W40975  24.323   5.451   0.287
67908W        W40976   1.665  27.750   4.459
67909W        W40977  18.972  41.634  11.400
67910W        W40978  32.400  25.456   1.147
67911W        W40979   7.896  37.964   3.298
67912W        W40980  12.096  42.784   3.845
67913W        W40981  31.467  35.436   2.259
67914W        W40982  42.431  40.823  12.463
67915W        W40983   2.655  24.119  12.870
67916W        W40984  28.217  19.671  10.951
67917W        W40985  38.095  12.320  11.106
67918W        W40986  25.933  25.187   2.790
67919W        W40987  19.574  26.513  11.547
67920W        W40988  39.957  28.492  11.642
67921W        W40989  26.050  37.616   1.399
67922W        W40990  27.100   3.354  12.952
67923W        W40991  40.943  34.933   3.903
67924W        W40992   5.022  24.187  11.201
67925W        W40993  12.432  20.587   1.764
67926W        W40994  32.667  29.118  11.590
67927W        W40995   3.789   4.309  12.433
67928W        W40996   6.206  11.369  13.483
67929W        W40997  29.975  24.838  12.473
67930W        W40998  33.661  23.417  10.775
67931W        W40999   6.895  37.055   3.172
67932W        W41000  19.943  20.108   4.917
67933W        W41001   3.825  13.927  14.931
67934W        W41002  40.904  26.658   3.209
67935W        W41003  15.548  37.847  14.396
67936W        W41004   7.951   6.792  11.030
67937W        W41005  40.149  39.827  12.863
67938W        W41006  15.215  39.033   2.153
67939W        W41007  37.535   8.735  13.175
67940W        W41008  42.987   7.355  12.222
67941W        W41009   1.961   1.087  13.507
67942W        W41010  20.023  11.641  11.454
67943W        W41011  22.031  44.624   1.500
67944W        W41012  34.728  14.258  10.769
67945W        W41013  31.950  25.232  10.757
67946W        W41014  26.521   2.145   3.307
67947W        W41015  38.034  23.062  13.549
67948W        W41016  37.437  21.568   1.211
67949W        W41017  18.136  28.158   4.269
67950W        W41018  11.472  29.029  10.688
67951W        W41019  37.201   9.019  10.229
67952W        W41020  33.931  20.655   2.677
67953W        W41021  18.652   0.647   0.261
67954W        W41022  38.052   6.542  14.135
67955W        W41023  31.793  25.122   1.300
67956W        W41024  19.238  28.086  11.237
67957W        W41025  33.896   0.917   0.861
67958W        W41026   8.144   8.068  14.709
67959W        W41027  33.300  30.497   4.608
67960W        W41028  11.070  31.686  13.963
67961W        W41029   9.815  18.875   2.062
67962W        W41030  41.571   0.321   0.029
67963W        W41031  19.764  24.964  12.036
67964W        W41032  39.938  31.813   1.355
67965W        W41033  33.988  16.998  14.155
67966W        W41034   7.456  44.374   1.228
67967W        W41035  36.068  32.573  13.583
67968W        W41036  11.818  18.327   4.789
67969W        W41037  12.712  15.755  13.939
67970W        W41038  10.577  29.506  10.704
67971W        W41039   9.207  28.586  11.590
67972W        W41040  38.402  39.786  13.553
67973W        W41041  21.691  29.298   2.228
67974W        W41042   4.369  28.566  10.529
67975W        W41043  25.587  19.673   4.077
67976W        W41044  30.152  43.764   1.427
67977W        W41045  21.619  13.149  12.908
67978W        W41046  25.474  22.198   4.781
67979W        W41047   5.000  33.341   4.223
67980W        W41048  11.091  37.080   3.876
67981W        W41049  33.095   7.409  12.635
67982W        W41050  12.381  26.080  13.815
67983W        W41051  34.082  17.737  14.867
67984W        W41052  20.069  31.767   0.322
67985W        W41053   9.820  33.112   4.716
67986W        W41054  18.476  12.165  10.666
67987W        W41055   1.361  11.915   3.901
67988W        W41056  40.689  42.034   0.119
67989W        W41057   0.297   0.389  12.640
67990W        W41058   3.551  40.016  10.605
67991W        W41059  14.657   8.632   0.727
67992W        W41060  34.376  27.980   4.250
67993W        W41061  43.003  31.139  14.829
67994W        W41062  44.360  32.882  10.695
67995W        W41063  21.575  41.486   3.682
67996W        W41064  39.140  17.045  11.090
67997W        W41065  43.048  22.122  13.783
67998W        W41066  14.969  10.724  14.766
67999W        W41067  10.096   4.029   3.289
68000W        W41068   1.015  28.660   4.044
68001W        W41069   6.056  29.920   2.778
68002W        W41070   4.425  18.234   4.130
68003W        W41071  21.701  38.483  12.818
68004W        W41072   7.271  29.525  13.421
68005W        W41073  29.701  37.053   3.618
68006W        W41074  27.152  36.788   1.121
68007W        W41075  14.233  21.824  12.971
68008W        W41076  10.881  17.532  13.034
68009W        W41077   9.213  19.079   2.870
68010W        W41078  21.053  18.566  12.679
68011W        W41079  19.642  33.900   3.553
68012W        W41080  21.728  14.788   0.327
68013W        W41081   6.126  33.003  12.467
68014W        W41082  37.245  42.476   1.798
68015W        W41083   1.111  27.959  13.506
68016W        W41084  40.302  42.165  10.767
68017W        W41085  14.089   0.841  10.628
68018W        W41086  39.845   2.415   5.108
68019W        W41087  20.796  37.073  10.829
68020W        W41088  18.470   9.549   3.300
68021W        W41089  38.097  31.371  13.403
68022W        W41090   5.190   8.287  10.931
68023W        W41091   4.190  24.312   0.430
68024W        W41092  10.722  25.589   2.449
68025W        W41093  28.960  17.291   2.974
68026W        W41094   4.650  39.974  12.079
68027W        W41095   0.688  27.447  11.160
68028W        W41096  12.779  24.894  14.909
68029W        W41097  31.368  33.124   4.602
68030W        W41098  19.196   1.346   3.502
68031W        W41099  41.556  26.171   0.721
68032W        W41100  40.347   1.346  14.896
68033W        W41101  21.013  41.988   3.336
68034W        W41102  43.904  12.849   1.323
68035W        W41103  36.837  21.919  10.671
68036W        W41104  44.027  44.196  12.038
68037W        W41105   9.105  32.118   3.872
68038W        W41106  30.624   8.267   2.339
68039W        W41107  14.705  41.118   3.002
68040W        W41108  21.239   0.714   2.897
68041W        W41109  10.398  27.572  10.635
68042W        W41110  32.359  24.560   3.726
68043W        W41111   7.184   3.491   4.908
68044W        W41112  17.280  26.493  13.357
68045W        W41113  43.517  19.976   4.140
68046W        W41114  26.726  17.236  11.411
68047W        W41115  15.274  31.678   3.657
68048W        W41116  40.045  12.696   0.292
68049W        W41117  13.477  38.566   3.296
68050W        W41118   4.803  27.726   4.878
68051W        W41119  34.136  34.043   2.755
68052W        W41120  39.313  22.096   1.938
68053W        W41121  19.509  21.120   4.173
68054W        W41122  22.530  17.000   2.662
68055W        W41123  19.237  17.448  13.906
68056W        W41124  12.076  13.643  14.961
68057W        W41125  21.651  36.969  11.551
68058W        W41126  22.674  32.485   4.561
68059W        W41127  43.091   9.376   3.105
68060W        W41128  20.786  18.599  13.974
68061W        W41129  10.416  23.542   4.623
68062W        W41130  40.775  29.477  11.103
68063W        W41131  26.102  12.429   5.153
68064W        W41132   2.957  26.148   3.724
68065W        W41133  39.793  42.295   4.312
68066W        W41134  25.644  17.042   4.216
68067W        W41135  10.269  21.660   0.478
68068W        W41136  19.266   8.149   0.123
68069W        W41137  30.094  18.293   1.795
68070W        W41138  14.274  28.777   0.680
68071W        W41139  34.432   2.757  12.492
68072W        W41140  16.686  32.637   2.358
68073W        W41141  44.431  26.116  10.611
68074W        W41142  30.465  24.463  11.923
68075W        W41143  37.337  23.313  14.791
68076W        W41144  39.442  15.816  12.360
68077W        W41145   2.887  39.531   3.588
68078W        W41146  27.870  27.030   2.643
68079W        W41147  27.020  32.386   2.942
68080W        W41148  38.122  28.035  13.953
68081W        W41149  17.596   8.944  14.936
68082W        W41150   8.338   8.902   1.285
68083W        W41151   5.943  24.157  14.973
68084W        W41152  24.761  12.628   3.236
68085W        W41153  16.091  37.248   2.863
68086W        W41154  18.985  40.812  11.946
68087W        W41155  40.276  18.158   1.364
68088W        W41156  36.571  16.575   1.518
68089W        W41157   5.975  20.268   2.716
68090W        W41158  42.974  21.509  10.728
68091W        W41159  43.072  30.682  11.104
68092W        W41160  18.782   7.178   1.985
68093W        W41161  25.571  34.443   4.630
68094W        W41162  33.780  18.144   4.884
68095W        W41163  34.153  21.202   1.391
68096W        W41164   4.992  42.455  10.692
68097W        W41165  17.636  27.268   0.919
68098W        W41166  38.035  33.052   3.662
68099W        W41167   8.436  19.567   1.221
68100W        W41168  34.676  23.638  14.259
68101W        W41169  32.190  18.581   3.239
68102W        W41170  13.292  18.146   9.516
68103W        W41171  29.825  42.812   1.419
68104W        W41172  19.504  22.289   3.179
68105W        W41173  35.198  19.323   1.325
68106W        W41174  35.369  12.069  13.410
68107W        W41175  19.706  39.585   4.312
68108W        W41176   6.889  31.440  14.424
68109W        W41177   0.973  38.375  12.527
68110W        W41178  25.973  36.418  14.856
68111W        W41179  11.342  29.946   2.925
68112W        W41180  23.043  36.510   2.827
68113W        W41181  33.894  44.698   0.908
68114W        W41182  26.900  20.467  11.611
68115W        W41183  23.210  26.283   0.379
68116W        W41184  19.105   6.274   3.401
68117W        W41185   4.457   7.916  14.410
68118W        W41186  33.290  37.443   3.131
68119W        W41187   7.367  18.606   4.584
68120W        W41188  32.446   6.328  13.509
68121W        W41189  33.487  32.484   1.691
68122W        W41190  17.816  26.837   4.790
68123W        W41191  21.706  43.106   0.712
68124W        W41192   0.383  10.883   0.257
68125W        W41193  35.632  14.318   3.724
68126W        W41194  22.279  24.538   1.061
68127W        W41195  29.669  15.539   5.031
68128W        W41196  13.601  11.330   2.776
68129W        W41197  37.609  41.432  10.714
68130W        W41198  37.570  30.183  14.055
68131W        W41199   1.054  16.566  11.982
68132W        W41200  36.125  16.794   1.799
68133W        W41201   4.983   4.153  14.935
68134W        W41202   0.353  41.879  11.915
68135W        W41203  10.630  36.535  13.097
68136W        W41204  21.090   2.204   0.452
68137W        W41205  34.469   6.062  14.952
68138W        W41206  26.190  26.927  12.977
68139W        W41207  25.330  37.013   1.243
68140W        W41208   0.413  22.166   0.732
68141W        W41209  33.176  31.598  14.515
68142W        W41210  34.713  30.845  13.851
68143W        W41211  10.960  17.980   2.256
68144W        W41212   9.606  38.833  13.505
68145W        W41213  20.682  23.534  12.370
68146W        W41214  37.716  39.502  13.304
68147W        W41215  13.211   8.742  14.902
68148W        W41216  38.081  15.875   2.774
68149W        W41217   8.824  43.125  10.575
68150W        W41218   4.409  27.225   2.283
68151W        W41219   0.559  29.872   0.903
68152W        W41220  16.643  12.658  13.747
68153W        W41221  34.843  22.405  14.130
68154W        W41222  42.764   5.729  13.123
68155W        W41223  25.681  43.883  12.088
68156W        W41224  11.102  18.360   4.510
68157W        W41225   4.218   0.043  11.623
68158W        W41226  39.808   5.721   3.395
68159W        W41227  18.088   2.360  11.144
68160W        W41228  31.232   9.673   2.132
68161W        W41229  28.495  39.978  11.213
68162W        W41230   1.664  19.691   0.719
68163W        W41231  28.951   2.682  13.146
68164W        W41232   7.390  24.154  11.655
68165W        W41233  43.456   6.650  11.206
68166W        W41234   5.860  18.184  14.094
68167W        W41235  40.120  31.438   2.350
68168W        W41236  32.431  35.930   4.994
68169W        W41237  20.787   2.299   4.726
68170W        W41238  23.259  40.461  14.606
68171W        W41239  29.017  31.069   2.755
68172W        W41240  40.222  25.338  12.244
68173W        W41241   3.325  32.847   3.686
68174W        W41242  42.111  12.217   0.886
68175W        W41243  14.720  22.150   2.136
68176W        W41244  13.925   3.509  14.617
68177W        W41245  18.183   5.629   2.799
68178W        W41246  44.701  33.197   1.184
68179W        W41247   7.866  39.008   5.004
68180W        W41248  12.244  19.746   4.117
68181W        W41249  44.470   3.146   4.731
68182W        W41250   5.904  22.719   3.157
68183W        W41251   0.503   4.457  14.599
68184W        W41252  37.862  12.621   3.086
68185W        W41253  43.455  17.758   1.139
68186W        W41254   1.948  26.673   4.529
68187W        W41255  30.460  15.339  10.739
68188W        W41256   8.450  26.455  14.580
68189W        W41257  17.741  33.080  14.046
68190W        W41258  35.928  31.985   3.633
68191W        W41259  15.536   0.501   3.314
68192W        W41260  12.701  26.080   4.315
68193W        W41261  13.723  23.606   4.315
68194W        W41262  44.950  22.787  13.755
68195W        W41263   0.962  23.969   0.929
68196W        W41264  30.744   0.366   4.681
68197W        W41265  20.783  33.215  10.701
68198W        W41266   7.379  44.174   0.248
68199W        W41267   6.658  33.550  12.083
68200W        W41268  43.043   8.190  13.873
68201W        W41269  37.995   5.850   2.276
68202W        W41270   2.288  18.065   0.454
68203W        W41271  28.077  19.009  13.500
68204W        W41272   9.654  17.991   3.577
68205W        W41273  12.274   7.457  12.425
68206W        W41274  17.069  27.732  14.538
68207W        W41275  44.635  41.445  11.231
68208W        W41276  19.527  44.029  12.542
68209W        W41277  32.123  15.992  12.716
68210W        W41278  10.000  38.747   0.168
68211W        W41279   9.281   2.732  14.913
68212W        W41280  13.008  27.682   1.388
68213W        W41281  32.189  19.563   1.965
68214W        W41282  19.107  19.100  12.170
68215W        W41283  21.827  22.196  10.457
68216W        W41284  41.448  10.672   4.126
68217W        W41285  22.738  10.530   5.245
68218W        W41286  24.455  16.970  10.313
68219W        W41287  30.980  40.056   0.833
68220W        W41288  23.267  44.401  11.319
68221W        W41289  34.362  10.391   2.741
68222W        W41290   6.536  24.050   4.082
68223W        W41291  16.409   7.529  12.948
68224W        W41292  40.478  19.376  13.936
68225W        W41293  18.711  30.495   0.994
68226W        W41294  41.121  30.688  12.572
68227W        W41295  18.540  11.587  14.675
68228W        W41296   0.791  21.132   1.914
68229W        W41297   0.485  32.403  14.468
68230W        W41298  20.581  15.178   1.837
68231W        W41299  23.246  21.748   0.995
68232W        W41300   8.368   5.595  14.449
68233W        W41301  33.454  29.949  11.478
68234W        W41302  32.125   6.901  11.632
68235W        W41303  23.292   4.768   2.582
68236W        W41304  15.864   0.801  11.437
68237W        W41305  10.407   4.425  14.470
68238W        W41306  41.012  32.184  14.720
68239W        W41307  16.204   5.768  14.520
68240W        W41308  12.959  44.377   1.383
68241W        W41309   1.333   0.433  13.630
68242W        W41310  26.437  18.295  13.932
68243W        W41311  32.861   3.725  10.543
68244W        W41312  43.489   5.329  13.525
68245W        W41313  31.858  26.457  10.030
68246W        W41314  43.366  33.831  13.622
68247W        W41315  28.669  25.684   1.614
68248W        W41316  35.511  29.209   2.203
68249W        W41317  37.957  39.998  10.738
68250W        W41318  10.249   1.994  13.059
68251W        W41319  39.796  40.859   0.476
68252W        W41320  29.058   6.168   2.270
68253W        W41321   6.059  39.945  10.955
68254W        W41322  37.022  11.927   0.904
68255W        W41323  18.148  33.279  12.940
68256W        W41324  34.089  20.361  14.864
68257W        W41325  32.155  20.125  10.669
68258W        W41326   0.898   8.653  11.766
68259W        W41327  19.389   7.154   0.248
68260W        W41328  21.041  11.871  11.692
68261W        W41329  37.923  25.258   3.691
68262W        W41330  41.836  32.699  13.389
68263W        W41331  41.789  33.890   2.077
68264W        W41332  33.550   8.679   0.465
68265W        W41333  19.720   0.846  11.232
68266W        W41334  31.172   5.341   0.304
68267W        W41335  33.561   9.413  10.917
68268W        W41336  28.694  38.903   4.381
68269W        W41337  26.391  14.685  12.934
68270W        W41338  25.354  42.080   0.888
68271W        W41339   9.431  14.801  12.487
68272W        W41340   1.867  30.428   2.248
68273W        W41341   6.464  36.902  11.558
68274W        W41342   2.419   1.455   0.254
68275W        W41343  30.132  24.104  11.718
68276W        W41344  44.434   8.720  14.195
68277W        W41345  17.216  11.233  14.504
68278W        W41346  10.885   7.252   1.362
68279W        W41347   5.996  28.003  13.510
68280W        W41348  17.205  42.435  13.750
68281W        W41349   3.192  35.872  12.537
68282W        W41350  17.831  22.542   1.547
68283W        W41351  28.924  17.664  14.755
68284W        W41352  15.377  32.584  12.053
68285W        W41353   6.662   9.402   3.897
68286W        W41354   0.880  15.648  13.869
68287W        W41355  21.167  35.479  13.154
68288W        W41356  13.079  32.609  12.715
68289W        W41357   4.483  22.078   1.310
68290W        W41358   0.169  14.087  11.219
68291W        W41359  18.507  13.355  12.734
68292W        W41360   9.864  15.608   0.335
68293W        W41361  33.120  30.601   2.328
68294W        W41362  20.116   1.907   5.049
68295W        W41363   3.337  29.415  12.567
68296W        W41364  39.479   7.682  10.063
68297W        W41365  20.864   0.407   0.966
68298W        W41366   0.754  10.387   0.018
68299W        W41367  17.077  38.890   1.676
68300W        W41368  37.422   7.028  13.595
68301W        W41369   6.624  23.484  12.403
68302W        W41370  23.961   4.724   1.650
68303W        W41371  44.056  30.114  11.596
68304W        W41372  29.554  17.302   0.233
68305W        W41373  29.098   0.299   1.453
68306W        W41374  14.293  27.986  13.073
68307W        W41375  34.960  12.789  13.435
68308W        W41376  19.390  23.689  13.004
68309W        W41377   8.010   2.910  12.647
68310W        W41378  40.803  18.200  11.154
68311W        W41379  38.491   4.235  13.924
68312W        W41380   3.698  26.223  12.574
68313W        W41381  44.417   4.015  11.592
68314W        W41382   1.962  19.619  12.838
68315W        W41383  24.841  32.536   0.416
68316W        W41384   6.156  22.627   4.611
68317W        W41385   7.277  29.117   2.242
68318W        W41386  32.123   9.889  11.962
68319W        W41387  44.522  28.427  10.176
68320W        W41388  26.761   3.010  10.540
68321W        W41389  43.369   0.839   3.754
68322W        W41390  20.206  22.916  14.561
68323W        W41391  20.797  28.043  12.348
68324W        W41392  22.420  14.391  11.706
68325W        W41393  29.287  41.111   1.202
68326W        W41394  29.461  37.012   1.061
68327W        W41395   5.711  20.495  14.901
68328W        W41396  12.107  10.330  10.743
68329W        W41397   4.433  39.646   1.245
68330W        W41398  25.333   2.405  10.572
68331W        W41399   5.298   6.730  14.332
68332W        W41400  11.232   9.901   4.090
68333W        W41401  21.733  30.697   0.753
68334W        W41402  24.039  34.521  11.355
68335W        W41403  40.456  39.658  11.476
68336W        W41404   9.349  16.000   4.652
68337W        W41405  25.095   3.985   3.212
68338W        W41406  36.632  10.740  11.270
68339W        W41407   6.194  12.057   1.009
68340W        W41408   1.046  18.029  13.471
68341W        W41409  19.765  19.733   4.119
68342W        W41410   4.449   5.938   4.144
68343W        W41411  25.899   7.856   4.486
68344W        W41412  13.868  11.208   2.358
68345W        W41413  16.841   0.630  13.564
68346W        W41414  34.360   5.672   1.849
68347W        W41415  10.204  12.437  14.442
68348W        W41416  32.250  39.344  11.475
68349W        W41417  18.757  22.041  11.095
68350W        W41418  37.569  35.363   0.729
68351W        W41419  24.604  11.304   4.639
68352W        W41420   9.128   6.369  14.842
68353W        W41421  27.108  21.028  13.352
68354W        W41422  41.487   8.174  11.908
68355W        W41423  30.174   3.797  12.493
68356W        W41424  29.812   6.235  10.700
68357W        W41425  24.693   1.036   0.916
68358W        W41426  40.627  26.688  13.879
68359W        W41427  17.536  15.797  13.896
68360W        W41428  41.308  19.076  10.915
68361W        W41429  44.292  22.968   0.770
68362W        W41430  20.028  14.633   0.836
68363W        W41431   7.766   0.148  12.501
68364W        W41432  40.850  19.811  14.011
68365W        W41433  12.651  23.548  11.430
68366W        W41434  26.901  14.261   2.837
68367W        W41435  10.659  15.220   2.125
68368W        W41436   8.624   3.487  10.743
68369W        W41437   3.629  37.177   3.840
68370W        W41438  40.822  30.578   4.328
68371W        W41439   3.713  33.517   1.917
68372W        W41440  26.749   0.774  12.044
68373W        W41441  11.315  12.496   4.723
68374W        W41442  20.848  14.041   2.783
68375W        W41443  38.819  16.382   3.673
68376W        W41444  24.808  40.549   2.815
68377W        W41445  38.760  25.153   1.376
68378W        W41446  32.911  16.795   2.351
68379W        W41447  33.832  20.314   1.420
68380W        W41448  19.536  42.688  14.486
68381W        W41449   4.490  19.736   1.299
68382W        W41450  11.162  32.120   2.276
68383W        W41451  23.646   9.242  13.749
68384W        W41452  11.378  33.000  12.882
68385W        W41453  28.618  41.086   4.146
68386W        W41454  19.362  11.998  14.918
68387W        W41455  18.992   6.254  10.990
68388W        W41456  31.643  18.036   2.131
68389W        W41457  15.633  10.331   0.412
68390W        W41458  23.983  33.994  14.883
68391W        W41459  11.750  42.984   3.524
68392W        W41460  12.400  36.019   4.798
68393W        W41461  29.589  41.411   3.966
68394W        W41462  41.189  34.044  13.154
68395W        W41463   7.283  43.212  14.921
68396W        W41464  26.264  42.818   4.710
68397W        W41465  43.485  24.191   1.582
68398W        W41466  25.602  13.105  12.170
68399W        W41467  30.704  10.724   3.770
68400W        W41468  42.545   9.859  14.163
68401W        W41469  33.981  22.139  11.973
68402W        W41470  26.531  31.624  11.654
68403W        W41471   1.404  36.441  11.182
68404W        W41472  14.064  42.986   0.116
68405W        W41473  13.237   7.191  14.416
68406W        W41474   2.749  28.395  11.244
68407W        W41475  43.062  29.984  13.996
68408W        W41476  41.474  23.834  12.429
68409W        W41477  29.428  37.046  12.126
68410W        W41478   5.375  21.502  12.454
68411W        W41479  23.890  30.284  13.282
68412W        W41480  20.440   4.337  12.891
68413W        W41481   3.420  32.494   3.337
68414W        W41482  22.033   8.217  14.439
68415W        W41483  32.378  14.793   0.481
68416W        W41484  26.110   3.857  14.493
68417W        W41485  19.772  39.975   1.698
68418W        W41486  38.344  41.374  11.131
68419W        W41487   2.048   7.475  14.669
68420W        W41488  30.633  10.636  11.828
68421W        W41489  20.639  26.702  11.896
68422W        W41490   6.440  20.583   4.530
68423W        W41491   2.413   9.617   0.772
68424W        W41492   2.727  20.167   4.816
68425W        W41493  16.265   9.881  14.452
68426W        W41494  18.704  42.290   2.175
68427W        W41495   0.427  15.417  14.452
68428W        W41496  15.040   1.638  10.852
68429W        W41497  38.483  20.576   0.640
68430W        W41498  22.742  25.983   3.138
68431W        W41499  31.118  37.422  12.806
68432W        W41500  42.063  30.866   0.758
68433W        W41501   6.900   9.239   2.887
68434W        W41502  33.113  13.711   0.188
68435W        W41503  27.537  23.074   0.066
68436W        W41504  29.819  35.030   5.088
68437W        W41505  38.927  11.351  10.538
68438W        W41506  36.631  44.353   2.808
68439W        W41507  25.108  25.675   4.213
68440W        W41508   6.441  26.197   0.954
68441W        W41509   8.758  41.417  14.259
68442W        W41510   6.300   9.128   1.256
68443W        W41511   7.838  39.314   1.853
68444W        W41512  30.541  29.218  12.153
68445W        W41513  37.867  19.523   4.697
68446W        W41514  44.483  24.584   1.239
68447W        W41515  40.421  41.154  10.679
68448W        W41516  13.069   0.816  10.436
68449W        W41517  29.593  20.594   4.666
68450W        W41518  24.241   6.521  13.368
68451W        W41519  11.262  41.362   4.368
68452W        W41520  18.509  42.538   3.588
68453W        W41521  34.171  38.426   3.233
68454W        W41522  26.784  16.001   0.746
68455W        W41523  25.795  40.159   5.377
68456W        W41524  14.305  18.670   5.026
68457W        W41525   7.785  41.594   3.233
68458W        W41526   7.261   3.858   1.858
68459W        W41527  10.412  41.499   2.871
68460W        W41528  28.063  14.807   2.172
68461W        W41529  40.421  38.391   4.695
68462W        W41530  29.948  43.672   3.883
68463W        W41531  18.788   6.545   1.163
68464W        W41532  41.073  42.285  13.361
68465W        W41533  23.482  26.263   0.842
68466W        W41534  33.567  37.150   1.598
68467W        W41535  15.275  36.525   4.234
68468W        W41536  26.902  17.005  13.470
68469W        W41537   0.705  16.701   1.258
68470W        W41538  26.507   6.744   1.727
68471W        W41539  14.252  26.991  11.338
68472W        W41540   4.420  35.132  11.529
68473W        W41541  29.406  26.024  14.575
68474W        W41542  21.299  35.801  12.075
68475W        W41543  21.640  34.835  14.496
68476W        W41544   8.990  35.951  13.019
68477W        W41545  33.308  12.438  11.242
68478W        W41546  38.792  14.784  12.488
68479W        W41547  21.598  11.756  13.811
68480W        W41548   6.254   9.079  12.453
68481W        W41549   4.845  28.136  14.033
68482W        W41550  44.469  17.327  11.150
68483W        W41551  19.072  10.873  10.824
68484W        W41552  29.209  15.807   1.310
68485W        W41553  40.002   5.828   5.179
68486W        W41554  38.796  44.236  13.046
68487W        W41555   9.179  11.339  14.401
68488W        W41556  33.740   0.876  13.519
68489W        W41557  18.744  41.506   2.914
68490W        W41558  30.898  30.750  12.955
68491W        W41559  23.618   2.634  10.814
68492W        W41560   0.831  38.380  14.428
68493W        W41561  43.911  24.104  14.110
68494W        W41562  19.936  22.214  11.562
68495W        W41563  38.079  44.027   1.346
68496W        W41564  40.985  18.624  12.150
68497W        W41565  15.715  20.641  13.470
68498W        W41566   3.829  16.769  12.906
68499W        W41567  18.468  24.287  10.376
68500W        W41568  18.152   2.812  12.690
68501W        W41569   1.684  10.303  14.861
68502W        W41570   4.134   8.239   0.098
68503W        W41571   5.825   1.786  14.354
68504W        W41572  11.693  44.777   1.450
68505W        W41573  13.900   9.009   3.213
68506W        W41574  43.955   1.527   0.975
68507W        W41575  11.856   9.443   2.375
68508W        W41576  19.598  30.654  11.950
68509W        W41577  40.875   7.065  12.842
68510W        W41578   3.416  38.486   0.952
68511W        W41579   9.350  20.094  12.932
68512W        W41580  24.272  39.549  11.402
68513W        W41581  25.591   0.757   2.433
68514W        W41582  32.430  10.706   2.222
68515W        W41583  42.438  10.694  13.952
68516W        W41584  27.055  43.549   2.881
68517W        W41585  37.297   8.277  13.002
68518W        W41586  34.376  11.322   1.491
68519W        W41587  34.437  36.138  14.930
68520W        W41588   7.156  21.031  14.769
68521W        W41589  31.039  17.879   0.866
68522W        W41590   2.135  11.861   1.658
68523W        W41591  18.856  10.409   0.705
68524W        W41592  16.210  21.831   1.231
68525W        W41593   9.639  35.340  13.499
68526W        W41594   7.395  18.756   3.291
68527W        W41595  14.787   0.005   0.887
68528W        W41596  36.534   6.424   3.675
68529W        W41597   2.784  29.500   0.173
68530W        W41598  30.125  13.441   4.767
68531W        W41599  14.892   8.393  12.573
68532W        W41600  21.767  40.810  10.686
68533W        W41601   9.970  33.605   3.580
68534W        W41602  22.908   7.532   1.748
68535W        W41603  23.491  28.531  14.857
68536W        W41604  35.844  12.273  13.440
68537W        W41605  32.510  43.709  12.390
68538W        W41606  28.065  39.550  11.004
68539W        W41607   6.088  25.881   4.047
68540W        W41608  36.027  40.944   2.155
68541W        W41609  41.257   5.044   3.732
68542W        W41610  24.146  20.038  10.269
68543W        W41611  25.475  44.281   1.213
68544W        W41612  23.513  18.093   0.403
68545W        W41613  32.632  12.683  10.759
68546W        W41614  15.821   5.785   3.700
68547W        W41615  27.977  36.841  14.855
68548W        W41616  18.330  39.141  13.046
68549W        W41617  30.090  19.089  14.960
68550W        W41618  14.727  12.567  10.669
68551W        W41619   2.454  38.455   0.857
68552W        W41620  14.537  38.861   1.713
68553W        W41621  10.760  17.284   3.114
68554W        W41622  23.011  18.138  13.898
68555W        W41623  39.524   4.989   1.948
68556W        W41624  21.597   8.896   1.728
68557W        W41625  12.377  16.618  12.877
68558W        W41626  44.375  26.194   4.646
68559W        W41627  43.194  14.179   0.719
68560W        W41628  16.799  20.277  14.392
68561W        W41629  29.737  15.763   1.261
68562W        W41630  13.611  41.717   0.334
68563W        W41631  25.746  21.509  13.161
68564W        W41632   9.256  32.020  11.508
68565W        W41633  29.082  41.211   1.745
68566W        W41634  20.629  25.567  12.588
68567W        W41635   9.940  39.501  12.988
68568W        W41636  31.715  26.676  11.261
68569W        W41637  39.153  34.961   4.844
68570W        W41638  34.104  44.268  10.610
68571W        W41639   0.886  32.839   2.496
68572W        W41640  13.986  16.636   2.295
68573W        W41641  44.010  19.322   0.297
68574W        W41642  37.290  34.150  14.312
68575W        W41643  25.032  40.826   2.390
68576W        W41644  23.101  17.565  12.518
68577W        W41645  42.992  17.764   1.743
68578W        W41646  36.455   0.861  12.210
68579W        W41647  43.018  26.231  11.167
68580W        W41648  15.922  14.695  14.286
68581W        W41649  16.020  19.569   5.210
68582W        W41650  30.157   7.801   3.693
68583W        W41651  34.646  44.950  11.589
68584W        W41652  40.827   3.378   1.694
68585W        W41653  40.977  22.275  13.015
68586W        W41654  34.256  33.032   2.268
68587W        W41655  17.714   8.692   1.259
68588W        W41656  18.759  17.846   4.134
68589W        W41657  15.750   0.858  12.971
68590W        W41658  15.575  37.660   4.524
68591W        W41659  17.335  23.730  14.680
68592W        W41660  16.224  35.767  14.992
68593W        W41661  25.461   7.625   1.275
68594W        W41662  14.223  39.276  14.362
68595W        W41663  32.623  35.125  11.459
68596W        W41664  13.800  24.179   4.254
68597W        W41665  13.576   5.168   1.906
68598W        W41666  35.988  15.996   4.663
68599W        W41667  12.731  22.623  12.437
68600W        W41668   3.385  30.954  11.661
68601W        W41669  33.429  40.008  11.441
68602W        W41670  13.216  23.591   0.018
68603W        W41671  17.221  12.238  12.023
68604W        W41672   3.343   6.813  12.490
68605W        W41673   6.991  12.444   3.889
68606W        W41674  23.629  28.434   4.660
68607W        W41675   8.643   4.237   4.275
68608W        W41676  25.289  26.517   2.741
68609W        W41677  36.497  38.772  11.707
68610W        W41678  14.232  41.335  13.028
68611W        W41679  37.096  34.621   4.977
68612W        W41680  20.342  11.746  14.724
68613W        W41681  35.753  15.140   4.651
68614W        W41682  12.873  12.639   2.499
68615W        W41683  34.380   9.880   2.779
68616W        W41684   3.859  28.234  12.609
68617W        W41685  14.820  41.423   4.128
68618W        W41686   9.157  22.592  13.267
68619W        W41687  26.036   6.235  14.022
68620W        W41688   0.796  32.592  14.858
68621W        W41689  42.310  40.774  10.940
68622W        W41690  38.060  28.193   3.845
68623W        W41691   9.329  14.728   0.042
68624W        W41692  31.432   1.724   0.851
68625W        W41693   6.203  40.900   4.673
68626W        W41694  39.026  27.089   0.251
68627W        W41695  41.019  21.449   4.367
68628W        W41696  17.436  33.957  12.987
68629W        W41697  43.154   3.726  13.768
68630W        W41698  42.465   1.673  13.391
68631W        W41699  14.315  37.262  13.301
68632W        W41700  14.575  43.449   3.283
68633W        W41701  22.917  16.583   2.674
68634W        W41702  18.657  27.718   0.792
68635W        W41703  12.772  31.382  14.279
68636W        W41704  28.823  28.717  11.588
68637W        W41705  41.083  34.628  14.924
68638W        W41706  26.637  19.888   3.060
68639W        W41707  21.312  44.451  11.501
68640W        W41708  32.848  31.977   3.219
68641W        W41709   9.166   4.941  13.602
68642W        W41710  16.494  43.552  12.559
68643W        W41711  25.073  38.528  13.652
68644W        W41712  23.495  24.249  14.479
68645W        W41713  26.210  25.837   4.249
68646W        W41714  37.183  36.991  10.507
68647W        W41715  11.617  19.087  13.529
68648W        W41716  32.960  28.245  13.475
68649W        W41717  30.184  10.271   3.317
68650W        W41718  37.122   1.406  12.535
68651W        W41719  24.721  39.387  10.239
68652W        W41720  14.877  22.207  14.842
68653W        W41721  18.493  11.894  14.235
68654W        W41722  33.520  32.483   0.751
68655W        W41723  33.610  40.244  11.878
68656W        W41724   8.150  43.362  13.355
68657W        W41725  13.107  36.534  14.730
68658W        W41726  43.284  38.390  12.530
68659W        W41727  36.544  20.666   3.323
68660W        W41728  17.058  22.805  14.276
68661W        W41729  22.122  27.760  10.580
68662W        W41730  16.826  26.815   4.131
68663W        W41731  28.609  32.752   2.219
68664W        W41732  42.536  26.793  14.915
68665W        W41733  37.586  11.119   4.102
68666W        W41734  36.838   5.719  12.628
68667W        W41735  38.882  28.570   4.598
68668W        W41736  19.733   9.963   3.680
68669W        W41737  36.597  13.205  14.402
68670W        W41738  42.947  28.725   2.374
68671W        W41739  32.787  44.884   3.346
68672W        W41740  33.944  29.596   1.476
68673W        W41741  30.505  25.704   0.025
68674W        W41742  31.426  22.796   0.965
68675W        W41743  20.015   9.391  12.044
68676W        W41744  34.549  34.796   1.321
68677W        W41745  41.455  31.013   2.654
68678W        W41746  17.758  34.063   4.675
68679W        W41747  35.634  12.790  12.978
68680W        W41748  14.699  37.402   2.726
68681W        W41749  42.517   1.913  14.467
68682W        W41750  21.791   8.316  11.467
68683W        W41751  28.689  10.099  13.035
68684W        W41752  29.465  33.933  10.580
68685W        W41753  34.013  44.894  12.970
68686W        W41754   6.369  41.636   5.077
68687W        W41755  23.507  21.663   3.829
68688W        W41756  30.699  42.865  13.833
68689W        W41757  14.202   8.112   1.208
68690W        W41758  34.851  40.879   1.397
68691W        W41759  29.025  27.655  14.000
68692W        W41760  19.674  14.311   1.063
68693W        W41761  42.979   7.651   1.887
68694W        W41762  34.782   7.493   2.362
68695W        W41763  26.893  25.131   1.855
68696W        W41764  21.439   2.331   1.514
68697W        W41765  19.569  32.021  13.433
68698W        W41766  37.527  10.643   2.665
68699W        W41767  14.582   4.082   3.577
68700W        W41768  19.266  11.252   1.677
68701W        W41769  12.649  24.422  11.998
68702W        W41770  24.233  11.723  12.644
68703W        W41771  21.268   2.781   1.679
68704W        W41772  12.346  43.532  11.269
68705W        W41773  26.205  23.099  13.901
68706W        W41774  41.584  10.690  13.106
68707W        W41775  11.444   8.917   0.358
68708W        W41776  43.422  21.341  10.413
68709W        W41777   1.853  21.216  13.370
68710W        W41778   9.157  44.403   4.635
68711W        W41779  34.831  40.299  14.893
68712W        W41780   7.875   2.947  12.157
68713W        W41781  37.388  39.772  10.020
68714W        W41782   0.946  14.551  13.354
68715W        W41783   1.235  28.484  13.551
68716W        W41784  28.454  13.186  11.270
68717W        W41785  37.784  38.027  12.904
68718W        W41786  28.438  36.647   0.058
68719W        W41787  44.232  12.710   3.877
68720W        W41788   1.986  31.659  10.713
68721W        W41789   4.302   8.772  11.602
68722W        W41790  43.774   5.410   2.541
68723W        W41791  13.123   6.309  10.082
68724W        W41792  34.308  22.640   3.402
68725W        W41793  31.193   1.314   3.251
68726W        W41794   1.186  12.147  14.748
68727W        W41795  12.711  40.183  10.563
68728W        W41796   1.907  33.327  13.835
68729W        W41797  39.751  19.761   4.036
68730W        W41798   6.772   6.769  13.098
68731W        W41799  28.049  25.226   3.563
68732W        W41800  37.254  40.212  12.742
68733W        W41801   2.463   9.849  12.414
68734W        W41802  30.117   8.121   2.245
68735W        W41803  37.326  33.021  13.078
68736W        W41804  41.411  39.576   1.487
68737W        W41805  25.619  40.862  13.898
68738W        W41806  24.210   5.530  12.510
68739W        W41807  39.909  20.534   2.852
68740W        W41808  15.326   3.180   2.770
68741W        W41809  30.113  20.178   0.476
68742W        W41810  38.930  22.191   0.015
68743W        W41811  29.600   3.669   2.853
68744W        W41812  34.886  19.707   2.136
68745W        W41813  36.375  37.037  14.410
68746W        W41814  26.693   0.248  13.886
68747W        W41815  12.429  16.810   1.151
68748W        W41816  43.322   6.941   4.285
68749W        W41817  18.983  36.505   0.892
68750W        W41818  21.375  25.460   3.136
68751W        W41819  29.789   6.310  11.598
68752W        W41820  11.652  44.018   1.576
68753W        W41821  27.435  11.207  13.499
68754W        W41822  43.444  26.789   3.798
68755W        W41823  15.301   4.166  13.448
68756W        W41824  28.219  12.770   3.287
68757W        W41825  13.079  17.478   4.096
68758W        W41826  24.935  24.935  14.419
68759W        W41827  18.352   9.481   1.203
68760W        W41828   3.314  39.770   1.269
68761W        W41829  32.139  12.656   0.008
68762W        W41830  14.334  12.296  12.828
68763W        W41831   9.411  30.300  14.051
68764W        W41832  18.197  27.249  13.904
68765W        W41833   2.881   8.306   2.413
68766W        W41834  42.757  16.573  13.448
68767W        W41835  42.757  21.698  13.943
68768W        W41836  24.549  36.506   3.970
68769W        W41837  34.053   3.675  13.857
68770W        W41838  12.771  42.831  10.674
68771W        W41839  40.151  17.898   3.606
68772W        W41840  11.889   7.863  10.583
68773W        W41841  15.246   7.961  12.858
68774W        W41842  23.461   4.309  13.989
68775W        W41843  22.549  17.295  13.583
68776W        W41844  43.346  42.620  10.383
68777W        W41845  16.302   3.882  12.526
68778W        W41846  28.669  15.749   1.329
68779W        W41847  21.101   6.838   4.995
68780W        W41848  32.524  21.004  12.355
68781W        W41849  27.912  17.719   3.637
68782W        W41850  35.970   7.458  12.668
68783W        W41851  35.962  37.848  14.900
68784W        W41852  32.881   3.563  12.846
68785W        W41853  18.018   1.670   3.227
68786W        W41854  24.675  14.048   4.478
68787W        W41855  22.082  42.385  10.692
68788W        W41856  26.342  16.994   1.709
68789W        W41857  37.544  17.996   1.506
68790W        W41858  38.417  41.307   4.312
68791W        W41859  15.654  15.719   2.547
68792W        W41860  39.611  42.321   4.823
68793W        W41861  26.180  24.643  14.372
68794W        W41862  15.673   1.731   1.578
68795W        W41863  21.435   8.685   0.369
68796W        W41864  16.487  31.334   0.319
68797W        W41865  30.298  42.106   0.930
68798W        W41866  42.920   2.963   0.742
68799W        W41867  41.370  15.291   3.869
68800W        W41868  26.587   9.714   0.380
68801W        W41869  34.868  44.262   0.501
68802W        W41870  42.038  28.483   3.209
68803W        W41871  10.182  31.304  14.567
68804W        W41872  31.860  35.994   2.705
68805W        W41873  13.877  27.069  12.822
68806W        W41874  17.585   3.018  10.918
68807W        W41875  39.436  11.707  11.913
68808W        W41876  13.026   5.988   4.218
68809W        W41877  26.147   2.610  11.205
68810W        W41878  24.859   6.380  14.815
68811W        W41879  22.140  20.314  12.772
68812W        W41880  14.972  11.240   3.297
68813W        W41881   1.048  25.221  11.644
68814W        W41882  37.024  22.682   3.845
68815W        W41883  34.330  40.982  14.325
68816W        W41884  37.546  25.597   1.347
68817W        W41885  28.790  15.158   4.617
68818W        W41886   2.865   6.520  14.787
68819W        W41887  30.879  24.516   0.778
68820W        W41888  36.119  34.118   0.282
68821W        W41889  25.186  44.481   3.746
68822W        W41890   3.116  11.910   5.047
68823W        W41891  24.513  24.657  14.575
68824W        W41892  37.975  17.754   1.783
68825W        W41893  38.066  25.779  12.987
68826W        W41894   6.783  20.750   3.250
68827W        W41895  17.072  33.023   0.025
68828W        W41896   5.353  10.172   0.999
68829W        W41897  26.683  41.393  11.171
68830W        W41898  34.661  13.518  12.926
68831W        W41899  14.135  25.139   1.153
68832W        W41900  12.660   2.296   2.395
68833W        W41901  22.957  26.754   0.295
68834W        W41902  31.680  18.144   0.052
68835W        W41903  33.582  32.027  14.496
68836W        W41904  16.148  18.317  13.961
68837W        W41905  43.578  29.502  14.458
68838W        W41906  26.080  17.062  10.685
68839W        W41907  30.838  42.038   0.428
68840W        W41908  41.580  17.230  14.315
68841W        W41909  21.960  37.353   3.176
68842W        W41910   4.645  10.390  10.887
68843W        W41911  34.692  19.960   0.867
68844W        W41912  32.870   3.893   2.600
68845W        W41913  30.888   9.569   4.507
68846W        W41914  40.859   5.601  12.052
68847W        W41915   0.836  42.976  12.622
68848W        W41916  43.927  14.373   0.865
68849W        W41917  23.698  30.709  11.580
68850W        W41918  26.900  38.899  11.639
68851W        W41919   1.931  15.244  12.401
68852W        W41920   6.736  35.618  14.977
68853W        W41921  15.681  35.548   4.679
68854W        W41922  40.143  30.575  14.790
68855W        W41923   9.698   2.381  11.488
68856W        W41924  16.146  39.185  12.846
68857W        W41925  38.048  22.173   1.371
68858W        W41926  41.863  40.825  13.775
68859W        W41927  23.792  22.521   0.922
68860W        W41928  41.235  36.621   2.456
68861W        W41929  30.933  36.826   0.755
68862W        W41930  41.987  25.205  11.002
68863W        W41931   5.003  14.283   2.658
68864W        W41932   8.293  14.779  13.389
68865W        W41933  18.246  10.965  11.092
68866W        W41934  18.145  38.887   3.406
68867W        W41935  14.732   0.693  14.592
68868W        W41936   9.304  41.919   3.257
68869W        W41937  20.886  32.446  12.484
68870W        W41938  10.828  32.066   1.882
68871W        W41939  38.737   7.301  13.134
68872W        W41940  44.030  25.962   0.898
68873W        W41941  41.373  24.060   0.488
68874W        W41942  29.058  15.753  14.594
68875W        W41943  20.421  13.827  14.263
68876W        W41944  43.043  19.737   4.087
68877W        W41945   0.339  25.182   3.151
68878W        W41946  40.576  35.773  14.297
68879W        W41947  13.875   9.137   0.931
68880W        W41948  43.462  42.517  12.370
68881W        W41949  34.740  20.826   2.294
68882W        W41950  13.912  41.739  14.857
68883W        W41951  15.543  36.015  11.176
68884W        W41952  33.625  40.374   1.249
68885W        W41953   6.937  35.800   2.877
68886W        W41954  37.925  36.516  11.220
68887W        W41955  39.810  25.508  13.122
68888W        W41956  18.850  19.887   4.225
68889W        W41957  29.065  38.750  14.343
68890W        W41958   9.698  22.504   4.106
68891W        W41959  32.342   3.273  14.966
68892W        W41960   1.387   6.448   0.368
68893W        W41961   2.513  15.628   1.651
68894W        W41962  24.658  40.717   4.649
68895W        W41963  15.700   9.739   4.483
68896W        W41964   1.434   1.439   4.303
68897W        W41965  13.475  14.705   3.439
68898W        W41966  41.470   3.325  10.764
68899W        W41967  15.053  29.090   0.371
68900W        W41968  12.628  16.148   3.711
68901W        W41969  36.319  18.192   2.631
68902W        W41970   2.403   8.441  12.588
68903W        W41971  33.380  20.994   2.675
68904W        W41972  34.857  41.505   1.823
68905W        W41973  21.059  40.889   0.762
68906W        W41974  27.301  36.421   3.183
68907W        W41975  13.343  12.754   1.050
68908W        W41976   8.103   4.695  14.853
68909W        W41977  16.926   4.997   1.639
68910W        W41978   8.954  24.994  11.925
68911W        W41979   1.371  29.113  10.912
68912W        W41980  20.139   9.914  13.562
68913W        W41981  17.194   0.723  11.478
68914W        W41982  24.100  42.170  12.660
68915W        W41983  37.810  39.559  12.357
68916W        W41984  41.494  18.163  14.302
68917W        W41985  30.980  40.377   2.796
68918W        W41986  36.583  26.043   4.484
68919W        W41987  31.136  13.024  13.345
68920W        W41988   8.196   2.474   1.173
68921W        W41989  42.726  10.116  10.501
68922W        W41990  12.665   6.442  14.456
68923W        W41991  42.828  10.119  14.518
68924W        W41992  34.009   3.558   3.247
68925W        W41993   9.506   8.084  13.177
68926W        W41994   6.333  41.619   0.903
68927W        W41995  22.539  38.725   4.088
68928W        W41996   9.838   5.882  11.816
68929W        W41997  27.020  19.980   1.457
68930W        W41998  37.920  40.399   1.363
68931W        W41999  27.951  40.803   0.861
68932W        W42000   6.681  39.954  13.574
68933W        W42001  34.353  28.908   0.282
68934W        W42002  25.838  39.592   4.271
68935W        W42003   6.436   5.237  10.684
68936W        W42004  18.075   5.480   3.295
68937W        W42005  38.129   3.457  13.989
68938W        W42006   5.301  20.083   0.100
68939W        W42007  37.938  31.919  12.091
68940W        W42008   7.961   5.680   3.305
68941W        W42009  31.488   4.853  11.280
68942W        W42010  22.177  10.819   0.383
68943W        W42011  16.226  15.283   3.356
68944W        W42012  39.329  29.092   2.380
68945W        W42013  26.479  18.554  13.470
68946W        W42014  39.010  31.432   3.168
68947W        W42015  20.420  39.055   2.913
68948W        W42016  15.516  20.162  13.503
68949W        W42017   7.207   7.196  11.075
68950W        W42018  40.950  39.884  12.461
68951W        W42019   5.511  21.282   1.786
68952W        W42020  13.074  39.052  11.930
68953W        W42021   1.904  40.844  13.803
68954W        W42022  14.074  13.791  13.716
68955W        W42023  41.347  18.508   1.912
68956W        W42024  34.010  39.927   0.128
68957W        W42025   1.717   5.291   2.730
68958W        W42026  13.327  23.236   2.406
68959W        W42027  30.284  14.843   2.228
68960W        W42028  21.326  12.812  11.654
68961W        W42029  37.037   0.134   0.478
68962W        W42030  39.051  10.582  14.877
68963W        W42031  23.743   7.367  13.393
68964W        W42032  44.890  27.521   0.489
68965W        W42033   0.246  13.782  11.614
68966W        W42034  27.170   1.415   2.529
68967W        W42035  11.835  31.445  12.005
68968W        W42036   7.127   1.827   0.243
68969W        W42037   3.650   9.623  10.179
68970W        W42038  22.804   1.913  10.321
68971W        W42039  24.660  22.821  11.997
68972W        W42040  32.083  37.974   4.146
68973W        W42041   4.697  28.627  13.932
68974W        W42042  33.380  23.282   1.323
68975W        W42043  43.864  39.544   0.406
68976W        W42044  18.293   9.925   0.344
68977W        W42045   1.432  43.720  11.383
68978W        W42046  20.078  22.702  10.842
68979W        W42047  26.089  17.526  10.452
68980W        W42048  26.402  38.894   0.958
68981W        W42049  18.226  36.545   4.025
68982W        W42050  34.256   2.811  14.008
68983W        W42051  26.638   0.839  14.228
68984W        W42052  31.385  16.244   3.676
68985W        W42053  10.905  17.575   1.460
68986W        W42054  29.495   6.933  12.591
68987W        W42055  15.107  22.811   3.174
68988W        W42056  37.122   7.734  12.934
68989W        W42057   6.874  32.892  13.372
68990W        W42058  42.766  20.191   1.877
68991W        W42059  29.451   2.888  13.023
68992W        W42060  24.801  39.917  10.881
68993W        W42061  37.582  25.269  14.445
68994W        W42062  31.376  42.374   0.974
68995W        W42063  20.135  15.170  11.573
68996W        W42064   0.873  22.216  10.616
68997W        W42065   9.252   8.839   3.659
68998W        W42066  15.275   9.224   3.316
68999W        W42067   5.714  30.904   2.046
69000W        W42068  42.067  14.689   2.285
69001W        W42069  28.134  34.822   1.299
69002W        W42070  21.767  20.625  12.990
69003W        W42071  37.099   9.950  10.610
69004W        W42072  22.837  24.827   3.636
69005W        W42073  23.178  19.997  11.141
69006W        W42074  22.832  42.504  12.284
69007W        W42075  41.847   0.747   5.033
69008W        W42076   4.397  44.742  11.130
69009W        W42077  44.304  31.136   4.343
69010W        W42078  30.662  20.774  11.740
69011W        W42079  24.080  25.777  13.072
69012W        W42080  21.283  31.347   3.743
69013W        W42081  34.493  27.739  12.064
69014W        W42082  22.822  33.414   0.401
69015W        W42083  39.856  31.010   3.966
69016W        W42084   3.129  44.980  12.453
69017W        W42085   6.152  15.007   1.232
69018W        W42086  21.632  41.425   0.235
69019W        W42087  40.997   1.854  13.563
69020W        W42088  18.589   7.453   1.005
69021W        W42089  28.481  16.576   2.389
69022W        W42090  16.621  31.564  14.877
69023W        W42091  30.676   2.458   4.549
69024W        W42092  21.788  28.914   1.284
69025W        W42093   3.309   4.124  11.523
69026W        W42094   7.752  26.114  12.312
69027W        W42095  34.019  33.704  11.026
69028W        W42096  11.751  38.382   1.461
69029W        W42097   8.864  40.802   2.815
69030W        W42098  24.099  15.381  10.655
69031W        W42099  41.474  34.395  12.411
69032W        W42100  34.641  14.793  13.767
69033W        W42101  32.499   1.770   4.655
69034W        W42102  25.207  36.926   0.736
69035W        W42103  42.309  12.235  11.555
69036W        W42104  33.062  27.747  14.819
69037W        W42105  34.999  43.247   2.126
69038W        W42106  38.588  21.783  14.921
69039W        W42107   5.369  18.158  10.901
69040W        W42108  32.654   3.917  12.400
69041W        W42109  32.640  23.142   3.431
69042W        W42110   8.919  28.503   4.547
69043W        W42111  24.082  31.543   1.455
69044W        W42112  29.161  34.498   3.145
69045W        W42113   9.282  12.809   2.373
69046W        W42114   5.244  33.116  14.883
69047W        W42115  12.872   0.754  14.094
69048W        W42116  32.676  19.766   1.277
69049W        W42117   1.706  42.223  11.606
69050W        W42118  20.149  44.061  14.916
69051W        W42119  17.608  14.682   4.894
69052W        W42120  24.947  34.480   3.781
69053W        W42121  25.286  10.237   0.502
69054W        W42122  36.057  43.957  14.822
69055W        W42123  33.538  44.657   4.403
69056W        W42124  25.509  15.627   4.913
69057W        W42125  30.561  35.101   4.164
69058W        W42126  27.951  44.104  13.323
69059W        W42127  40.841  12.431  10.730
69060W        W42128  32.506  44.392   2.114
69061W        W42129  40.404  43.009   1.727
69062W        W42130   9.689  17.921   4.329
69063W        W42131  31.092  17.188  14.442
69064W        W42132   8.369  44.998   3.541
69065W        W42133  31.044  28.224   2.110
69066W        W42134   2.223   6.326   1.765
69067W        W42135   5.122  23.890   4.685
69068W        W42136  22.109  34.382   2.804
69069W        W42137  32.734  11.232   4.914
69070W        W42138  17.329   8.130  13.390
69071W        W42139  19.021   1.389   4.501
69072W        W42140  29.146   8.836  10.597
69073W        W42141   9.653  34.646   4.634
69074W        W42142  27.944  20.282   4.255
69075W        W42143   8.939  43.496   4.280
69076W        W42144  19.252  19.550   0.791
69077W        W42145   3.983  10.402   1.839
69078W        W42146   6.301   9.208   0.722
69079W        W42147  26.553  34.408  13.468
69080W        W42148   2.219  11.661   4.550
69081W        W42149  16.799  30.576  13.374
69082W        W42150  19.810  43.328  11.493
69083W        W42151  33.524  16.793  14.457
69084W        W42152  22.875  40.306  12.141
69085W        W42153  21.188  31.074  12.672
69086W        W42154   4.684  32.833  10.931
69087W        W42155  35.937   1.235   2.220
69088W        W42156   9.147  24.024  11.653
69089W        W42157  14.106  43.002  12.477
69090W        W42158  18.145  42.202  12.452
69091W        W42159  35.313  13.723  10.481
69092W        W42160  38.335  38.803   4.994
69093W        W42161  24.693  15.582  14.706
69094W        W42162  34.423  15.787   2.830
69095W        W42163   9.689  17.855   0.807
69096W        W42164  10.195  17.997   3.633
69097W        W42165  42.891  15.120  13.636
69098W        W42166  42.254  16.076   2.285
69099W        W42167  33.846  39.507   1.854
69100W        W42168  40.787  28.858  14.511
69101W        W42169  15.821  18.572  13.586
69102W        W42170  42.966  39.406   4.279
69103W        W42171  10.724  14.078   1.324
69104W        W42172  25.917  11.183   4.210
69105W        W42173  22.069  20.800  12.597
69106W        W42174   5.498  13.024  13.065
69107W        W42175  23.453  38.811  13.959
69108W        W42176   7.978   4.981  11.223
69109W        W42177  24.074  35.549   0.693
69110W        W42178  32.899   5.833   4.230
69111W        W42179  27.057  40.344  14.116
69112W        W42180   9.286  37.852   0.824
69113W        W42181   7.393  31.112   1.666
69114W        W42182  28.464   8.972  11.217
69115W        W42183  19.524  42.446   3.690
69116W        W42184  33.433  27.530  13.903
69117W        W42185  34.982  29.050   0.638
69118W        W42186  32.695  42.581   4.083
69119W        W42187  28.909  43.492  11.974
69120W        W42188   2.199  18.688   2.299
69121W        W42189  12.573  44.010  11.085
69122W        W42190  16.549   1.040  13.581
69123W        W42191   2.391   8.213   2.303
69124W        W42192  16.196  40.770  12.865
69125W        W42193  21.664  21.873   1.406
69126W        W42194  25.615   3.211   4.938
69127W        W42195  38.451  27.413  10.741
69128W        W42196  28.198   0.854   4.173
69129W        W42197  13.445  26.903   1.418
69130W        W42198  17.619   5.525  13.919
69131W        W42199  15.603  41.753   0.378
69132W        W42200  15.504  10.071  12.159
69133W        W42201  10.156  37.400  14.693
69134W        W42202  16.682  37.062   0.017
69135W        W42203   0.773  26.600  13.343
69136W        W42204  41.177  31.429   0.455
69137W        W42205  34.058  15.083  13.638
69138W        W42206  39.182   7.606   4.618
69139W        W42207  28.090  28.421  12.560
69140W        W42208   3.817  12.023  12.168
69141W        W42209  42.537  39.655   4.028
69142W        W42210  23.390  16.211  10.140
69143W        W42211   4.817  21.170   3.168
69144W        W42212  43.399  42.274   4.891
69145W        W42213   2.602  17.243   0.401
69146W        W42214  37.814  28.954   3.087
69147W        W42215  15.846  18.773   1.787
69148W        W42216  44.597  43.957   3.233
69149W        W42217  19.296  24.012   3.852
69150W        W42218   1.333  44.847   2.573
69151W        W42219  23.455   3.315   1.768
69152W        W42220  23.432   6.213  11.718
69153W        W42221  31.657  14.481   3.000
69154W        W42222  24.925   7.441   1.347
69155W        W42223   6.404  13.561  13.061
69156W        W42224  35.421  28.427  11.322
69157W        W42225  22.521  42.825  13.069
69158W        W42226  21.091   9.165   3.563
69159W        W42227  27.415  11.667  13.277
69160W        W42228  42.745  18.589  11.630
69161W        W42229  38.454  15.172  10.972
69162W        W42230  32.134  36.422   2.749
69163W        W42231  10.280   1.804   2.225
69164W        W42232   9.813  14.726  10.602
69165W        W42233  44.229  42.261  14.462
69166W        W42234   1.648   0.366  13.136
69167W        W42235  25.742  19.036  12.441
69168W        W42236   2.769   8.172   0.006
69169W        W42237  16.132  14.660   2.679
69170W        W42238   3.172   4.004   3.164
69171W        W42239  32.081   0.230  12.518
69172W        W42240  16.019   7.755   1.287
69173W        W42241   0.050  12.850   4.267
69174W        W42242   9.154  20.217   4.176
69175W        W42243  35.854  44.438   4.859
69176W        W42244  21.717  21.729  14.399
69177W        W42245  29.958  35.414   2.237
69178W        W42246  20.776  33.905   1.137
69179W        W42247  16.569  13.815  13.047
69180W        W42248  31.372  18.228  14.074
69181W        W42249  35.199  37.149  14.910
69182W        W42250  32.388  12.093  11.581
69183W        W42251  39.845  31.076   3.435
69184W        W42252  28.181  36.895   1.745
69185W        W42253   4.481  44.467  14.413
69186W        W42254   7.657  32.164  10.763
69187W        W42255  11.027  14.810   0.406
69188W        W42256   5.018  39.041  13.920
69189W        W42257   1.908  38.932   3.034
69190W        W42258   3.508  32.989  13.034
69191W        W42259  41.406  17.523   2.440
69192W        W42260   3.400  22.721   0.873
69193W        W42261   2.465  24.235   3.214
69194W        W42262  26.533   6.567   4.601
69195W        W42263  26.691  11.339   4.570
69196W        W42264  17.300  32.911   4.115
69197W        W42265  11.391  13.426   2.038
69198W        W42266  10.914  40.383   1.860
69199W        W42267  14.781  23.247   3.313
69200W        W42268  41.393  19.982  13.980
69201W        W42269  30.926  39.807  12.822
69202W        W42270  26.598  18.022  14.348
69203W        W42271   2.385   9.804  14.518
69204W        W42272  24.084  24.115   5.287
69205W        W42273  21.570  13.137   0.522
69206W        W42274  18.653  37.021  13.432
69207W        W42275  35.653  18.818  13.773
69208W        W42276  43.779  22.184  10.657
69209W        W42277  33.095   7.218   3.203
69210W        W42278  35.259  20.151  13.080
69211W        W42279  12.378   1.350  12.068
69212W        W42280  26.807   7.889  11.649
69213W        W42281  16.871  26.424   4.478
69214W        W42282  24.492  27.237  14.402
69215W        W42283  43.515  40.851   4.870
69216W        W42284  32.075  19.717   3.591
69217W        W42285  32.384   3.839   2.782
69218W        W42286  12.591  27.165  12.370
69219W        W42287  24.753   9.153   1.493
69220W        W42288  27.988  17.131   2.891
69221W        W42289  34.065   7.848   5.088
69222W        W42290   7.728  10.296   4.039
69223W        W42291  15.214  33.911   4.801
69224W        W42292  38.265   7.161  14.060
69225W        W42293  43.733  36.562   1.211
69226W        W42294  24.709   7.838   4.479
69227W        W42295  42.173  14.317   1.882
69228W        W42296  32.697  18.810  11.143
69229W        W42297  35.906  43.504   1.887
69230W        W42298   4.293  10.326  14.406
69231W        W42299  27.225  37.114   1.512
69232W        W42300  28.348  42.007  13.897
69233W        W42301   5.022  37.049  12.843
69234W        W42302  26.928  39.581   1.881
69235W        W42303  23.605   7.105  12.179
69236W        W42304  23.033   4.942   2.178
69237W        W42305  37.132   5.196  12.570
69238W        W42306  17.882  22.796   2.695
69239W        W42307  27.969  29.730   4.545
69240W        W42308  32.786  19.227  13.478
69241W        W42309  30.858   7.789   0.178
69242W        W42310   9.896  19.121   9.695
69243W        W42311   8.382   9.161  13.956
69244W        W42312  28.728  34.249  14.058
69245W        W42313   5.673  23.320  11.175
69246W        W42314   7.204  22.756   0.820
69247W        W42315  20.525  29.143   3.847
69248W        W42316   5.223  26.680   2.254
69249W        W42317  23.535  31.562  11.587
69250W        W42318   3.104  13.229  11.529
69251W        W42319  32.650  20.023   3.332
69252W        W42320  12.281  27.727  13.798
69253W        W42321  41.899   2.723   4.621
69254W        W42322  26.773  31.504   1.298
69255W        W42323  42.955  32.649  10.680
69256W        W42324  34.449  15.709  11.663
69257W        W42325  10.359  43.609   1.430
69258W        W42326  10.978  29.188  10.587
69259W        W42327   9.736  17.267  12.738
69260W        W42328  21.393  10.152  10.516
69261W        W42329   9.691  14.858  12.924
69262W        W42330  10.772  12.051   4.199
69263W        W42331  29.929  13.615   1.601
69264W        W42332  21.202  36.431  14.262
69265W        W42333  16.436  40.710   4.574
69266W        W42334  17.308  15.715  14.377
69267W        W42335  14.945  40.526   3.725
69268W        W42336  13.256   9.594   1.687
69269W        W42337  39.497   1.070   0.243
69270W        W42338  16.825  23.599   0.315
69271W        W42339  18.331  26.752  10.614
69272W        W42340  28.533   9.658   3.763
69273W        W42341  29.585  17.709  14.346
69274W        W42342  10.769   4.640  11.982
69275W        W42343  14.883   7.140   1.946
69276W        W42344  23.639  20.086   1.241
69277W        W42345  39.054  11.582  13.579
69278W        W42346  13.275  42.351  11.206
69279W        W42347  31.512  44.996  14.839
69280W        W42348  41.369  37.487   1.941
69281W        W42349  10.325  26.021  11.432
69282W        W42350  40.361   1.875   1.308
69283W        W42351  12.606   6.743   3.702
69284W        W42352   1.933  29.839  11.735
69285W        W42353   7.863  29.415   0.375
69286W        W42354   6.253  42.416   1.374
69287W        W42355  31.811  23.463   0.467
69288W        W42356  22.568  39.947  11.583
69289W        W42357  41.816  23.521  11.591
69290W        W42358  17.780  12.905  11.090
69291W        W42359   9.547   5.351  12.537
69292W        W42360   1.481   8.956   2.164
69293W        W42361  44.973  10.871   4.659
69294W        W42362  44.120  27.175  11.494
69295W        W42363  35.701   8.758   1.507
69296W        W42364  37.402  13.052  14.401
69297W        W42365  33.044  40.376  11.892
69298W        W42366  12.718  25.208   1.285
69299W        W42367  34.445  42.890   4.606
69300W        W42368  30.093   5.226   3.132
69301W        W42369  23.275  23.605  13.282
69302W        W42370   4.893   6.386   3.584
69303W        W42371  10.612  32.571  14.331
69304W        W42372  31.887  13.015  11.577
69305W        W42373   8.108  38.100  12.802
69306W        W42374  43.294   9.680   0.959
69307W        W42375  38.117  13.086  11.210
69308W        W42376   5.804  24.854  12.574
69309W        W42377  34.873  30.921  10.911
69310W        W42378  26.503  21.149  10.036
69311W        W42379  17.807  44.315   4.080
69312W        W42380  41.320  29.379   3.849
69313W        W42381  31.500  43.066  13.431
69314W        W42382   5.131   4.869  12.824
69315W        W42383  23.695  28.659  11.654
69316W        W42384  32.003  35.013  13.323
69317W        W42385  21.581   1.220   5.067
69318W        W42386  23.585  30.506   3.692
69319W        W42387  12.071  28.177   1.660
69320W        W42388  17.168   8.429  11.396
69321W        W42389  43.797  10.358   2.834
69322W        W42390  30.506   0.391   1.775
69323W        W42391  26.050  38.588  14.641
69324W        W42392  41.913  29.897   0.863
69325W        W42393  32.343  38.904  10.018
69326W        W42394   5.827   6.341   4.408
69327W        W42395  29.444  29.903   3.826
69328W        W42396  40.493  15.708  13.894
69329W        W42397  15.752  36.339   4.151
69330W        W42398   7.505  35.498   4.794
69331W        W42399   0.870  15.741  10.845
69332W        W42400   1.655  44.657  12.646
69333W        W42401  30.442  17.606  11.812
69334W        W42402  40.457  18.239  12.947
69335W        W42403   1.809  35.956   4.647
69336W        W42404  41.202   5.900  12.469
69337W        W42405  25.756  26.691   2.626
69338W        W42406  36.603  29.223   1.872
69339W        W42407  33.805  22.334   1.820
69340W        W42408  19.443  12.111  13.577
69341W        W42409  40.665  24.545   4.423
69342W        W42410  34.229  34.379   4.553
69343W        W42411  25.672   6.450   1.940
69344W        W42412  39.600  19.683  12.401
69345W        W42413  12.736  15.633   3.079
69346W        W42414  28.950  22.415   2.372
69347W        W42415  13.667   6.815  14.981
69348W        W42416   1.100  43.850  12.676
69349W        W42417  11.534   9.397   0.523
69350W        W42418   1.846  43.717  12.425
69351W        W42419   8.920  34.546  11.509
69352W        W42420  40.798   5.710   1.904
69353W        W42421  25.034   5.028  11.182
69354W        W42422  32.545   3.450   3.231
69355W        W42423  26.856  17.127   1.889
69356W        W42424  25.998  39.076  11.424
69357W        W42425  35.675  26.060   0.417
69358W        W42426  10.040  33.459   1.716
69359W        W42427  10.818  29.608  11.141
69360W        W42428  21.166  34.409   1.888
69361W        W42429  35.571  39.457  10.768
69362W        W42430   7.022  17.071   4.175
69363W        W42431  29.961  24.851  14.906
69364W        W42432  44.922  36.550  12.008
69365W        W42433   2.852  44.434  12.176
69366W        W42434  16.891  28.933   0.281
69367W        W42435  44.777  40.573   4.729
69368W        W42436  21.295  44.296  10.650
69369W        W42437  27.662  31.164   1.251
69370W        W42438  34.160  31.581  13.828
69371W        W42439  18.641  35.131   4.090
69372W        W42440  31.368  35.601  11.790
69373W        W42441   0.760  44.053  14.587
69374W        W42442  17.606  20.329  13.361
69375W        W42443  27.483  15.309   1.670
69376W        W42444  39.590   4.398   0.488
69377W        W42445  35.521   6.449   2.789
69378W        W42446  27.785  40.479   0.480
69379W        W42447  34.572  30.178   0.016
69380W        W42448  20.570  36.901  13.935
69381W        W42449   8.387  44.047   1.529
69382W        W42450   5.639  14.061  11.112
69383W        W42451  32.560  39.802   4.568
69384W        W42452  11.157  24.628   2.911
69385W        W42453   7.082  34.208  14.711
69386W        W42454  23.386   4.002  13.440
69387W        W42455   3.490  32.890  14.447
69388W        W42456  27.523  44.997  13.335
69389W        W42457  31.089  13.626   4.700
69390W        W42458   2.791  28.436   2.352
69391W        W42459  23.098  43.860  14.747
69392W        W42460   8.607  17.552  10.719
69393W        W42461  28.643  21.595   4.407
69394W        W42462  12.040  41.444  11.177
69395W        W42463  28.527   2.799   1.749
69396W        W42464  30.496  26.000  12.941
69397W        W42465  21.038  22.978  12.991
69398W        W42466  22.060  20.638   4.826
69399W        W42467  31.904  42.001   3.444
69400W        W42468  29.013  11.527  11.940
69401W        W42469  15.182   3.161   2.254
69402W        W42470  36.808  15.690   0.739
69403W        W42471  39.714   9.607   0.348
69404W        W42472  38.231   9.375  14.836
69405W        W42473   2.150   6.415  10.872
69406W        W42474  19.787  34.634  14.445
69407W        W42475  28.528  22.941   3.983
69408W        W42476  30.642   2.387  12.534
69409W        W42477  15.133  22.679  13.043
69410W        W42478  44.281  35.569  13.360
69411W        W42479  30.898  24.309   1.285
69412W        W42480  40.054  37.458   3.628
69413W        W42481  39.270  36.824   3.193
69414W        W42482  40.440  37.826   1.577
69415W        W42483   6.842  30.323   3.902
69416W        W42484  39.981  15.556   0.233
69417W        W42485  39.524  14.748  14.088
69418W        W42486  42.232   7.206   0.331
69419W        W42487  38.954  33.102   0.681
69420W        W42488  10.134  22.530   4.683
69421W        W42489  27.153  32.388   4.382
69422W        W42490  19.956   2.541  11.058
69423W        W42491  41.883  42.763   2.826
69424W        W42492   2.147  25.069   1.699
69425W        W42493  16.006  36.455   4.960
69426W        W42494  43.567  17.104  13.486
69427W        W42495  33.540   2.218  12.632
69428W        W42496   0.988  33.584  12.962
69429W        W42497  38.104  23.681   3.539
69430W        W42498  43.010   5.172   2.775
69431W        W42499   8.166   1.277  10.900
69432W        W42500  21.275  38.345   0.964
69433W        W42501  25.531   5.423  10.754
69434W        W42502  38.649  41.662  14.501
69435W        W42503  14.149   8.291  10.791
69436W        W42504  12.987  40.785  13.511
69437W        W42505  41.002  31.756  11.013
69438W        W42506  13.334   2.532  13.436
69439W        W42507  26.221  19.231  14.175
69440W        W42508  41.609  18.120   1.649
69441W        W42509  10.236  43.346   4.563
69442W        W42510  19.240  31.637  13.356
69443W        W42511  29.733   8.649  11.595
69444W        W42512  19.193  13.253  10.518
69445W        W42513  41.343   0.197   5.511
69446W        W42514  26.772   5.217   0.805
69447W        W42515  34.341  17.550  10.659
69448W        W42516   6.573  36.937  13.809
69449W        W42517  14.919  24.192   0.204
69450W        W42518  11.849  19.139  12.157
69451W        W42519  39.840  39.840  13.996
69452W        W42520  34.245  13.608   1.719
69453W        W42521  30.244  23.438  13.932
69454W        W42522  37.171  17.388  11.161
69455W        W42523  13.052  13.708   1.389
69456W        W42524  23.012  20.996  12.041
69457W        W42525  42.426  17.022   1.859
69458W        W42526  39.354  38.819  12.903
69459W        W42527  37.312  39.208   0.709
69460W        W42528  34.834  28.260  10.696
69461W        W42529  27.426  37.541   2.655
69462W        W42530  30.057  24.609   0.335
69463W        W42531  41.561  16.740   0.528
69464W        W42532  20.866  33.983   3.356
69465W        W42533  12.364  41.724  12.335
69466W        W42534   5.468  34.081  11.873
69467W        W42535   6.874  15.177  14.435
69468W        W42536  31.730  15.299  11.331
69469W        W42537  40.896   8.824   4.464
69470W        W42538  26.993   9.100   3.123
69471W        W42539   5.809   5.582  11.109
69472W        W42540  25.708  32.692  10.761
69473W        W42541  22.295  18.606  12.422
69474W        W42542   8.088   8.247   3.863
69475W        W42543   3.732  32.740  12.547
69476W        W42544  31.467  21.520  13.394
69477W        W42545  25.773  17.134   4.714
69478W        W42546  36.396  14.474  12.310
69479W        W42547  33.162   5.917   3.729
69480W        W42548  38.879  44.784  14.906
69481W        W42549  13.324   4.782   0.224
69482W        W42550  35.432  44.517   1.263
69483W        W42551  28.896  43.142  13.332
69484W        W42552  14.181  18.555   3.128
69485W        W42553  31.662  29.534   3.251
69486W        W42554   6.731  33.870  12.500
69487W        W42555  39.965   3.638  11.440
69488W        W42556  12.105   0.213  11.194
69489W        W42557  28.265  44.341   1.676
69490W        W42558   9.123  30.487   3.733
69491W        W42559  43.298  10.583   0.316
69492W        W42560   8.578  36.662   2.641
69493W        W42561   6.719  13.438   0.373
69494W        W42562  37.395   6.944   4.958
69495W        W42563   5.202   5.969  14.813
69496W        W42564  32.943  19.027   4.492
69497W        W42565   3.951  26.547  13.035
69498W        W42566  19.076   8.652  12.977
69499W        W42567   9.680  43.860   1.073
69500W        W42568  38.839  29.100  13.501
69501W        W42569  28.689   5.512   0.395
69502W        W42570  31.637  43.360  10.912
69503W        W42571   1.263  18.262  14.295
69504W        W42572  25.263  38.863   4.164
69505W        W42573  32.981  29.538  11.639
69506W        W42574  16.990   7.768   3.105
69507W        W42575   5.407  30.100   1.804
69508W        W42576  14.768  17.856   2.272
69509W        W42577  15.678  29.330   3.701
69510W        W42578  39.871  26.462   0.219
69511W        W42579   0.010  10.676  11.393
69512W        W42580  26.037  17.259   3.240
69513W        W42581  20.719   2.797   0.899
69514W        W42582  18.494  40.037  10.932
69515W        W42583  25.989  39.098  10.545
69516W        W42584  15.411  21.507   4.176
69517W        W42585  13.228   9.855   0.770
69518W        W42586  31.922  11.255   1.606
69519W        W42587  11.299  13.192   0.062
69520W        W42588  15.996  32.605  11.109
69521W        W42589  33.838  42.317  10.738
69522W        W42590  32.879  40.321   2.868
69523W        W42591  14.549  40.064  12.027
69524W        W42592   4.302  30.649  11.246
69525W        W42593  18.577   4.228  14.791
69526W        W42594  16.893  38.459  13.109
69527W        W42595  44.755  28.171  14.876
69528W        W42596  19.807  32.305  13.842
69529W        W42597   3.405  30.883  14.460
69530W        W42598   4.370  17.090  12.891
69531W        W42599   5.888  39.288   0.894
69532W        W42600  34.010  19.708  14.633
69533W        W42601  17.498   9.151  10.576
69534W        W42602  13.184  19.404   3.314
69535W        W42603  30.567  21.164   3.202
69536W        W42604  21.148  36.598  12.505
69537W        W42605  40.044  16.482   2.827
69538W        W42606  27.523  41.121  11.664
69539W        W42607  36.774   8.435  12.739
69540W        W42608  40.043  43.566   3.227
69541W        W42609  17.344   6.494  13.943
69542W        W42610  39.088   6.962  14.994
69543W        W42611  37.757  44.290   2.266
69544W        W42612  22.655  34.114  12.845
69545W        W42613  37.712  30.640  11.553
69546W        W42614  23.461  13.933   0.278
69547W        W42615   7.889   2.253  11.673
69548W        W42616  38.748  34.983   4.461
69549W        W42617  37.588  38.747  12.406
69550W        W42618  16.187  16.056  14.954
69551W        W42619  35.949  19.825   3.220
69552W        W42620  35.836   6.257   1.464
69553W        W42621  13.790   0.663  13.626
69554W        W42622   6.940  41.530   1.311
69555W        W42623  40.095  17.745  11.875
69556W        W42624  11.436   0.424   4.319
69557W        W42625  23.758  37.689   0.671
69558W        W42626  14.189  38.532  11.909
69559W        W42627  40.003  25.894   2.928
69560W        W42628  12.199  23.715  11.629
69561W        W42629  21.728  33.833  14.522
69562W        W42630  17.825   0.597   2.873
69563W        W42631  19.184  33.990   5.023
69564W        W42632  32.693  36.230   1.288
69565W        W42633  18.527  19.654  10.317
69566W        W42634  20.201   6.920   4.095
69567W        W42635  38.754  15.916   2.272
69568W        W42636  34.182   6.646  12.835
69569W        W42637  19.339   3.447   3.693
69570W        W42638  21.024   4.711   1.906
69571W        W42639  11.238  12.814   1.325
69572W        W42640  26.502  10.187  10.403
69573W        W42641  42.842  34.294   0.878
69574W        W42642  42.394   6.993  13.551
69575W        W42643  15.550  41.573   2.796
69576W        W42644  24.959  22.592   4.152
69577W        W42645  39.538  40.792  11.671
69578W        W42646  39.422  34.325   1.900
69579W        W42647  12.259  40.002   4.550
69580W        W42648  17.769  27.657   1.288
69581W        W42649  27.740  12.851   3.084
69582W        W42650  35.937  26.174   0.865
69583W        W42651  44.150  22.623  13.451
69584W        W42652  25.559   9.935   4.584
69585W        W42653  16.175   3.415  12.662
69586W        W42654  13.838  40.413  14.834
69587W        W42655  37.253  42.604  12.513
69588W        W42656  34.294   6.212  10.199
69589W        W42657  37.985  19.741  10.764
69590W        W42658   7.180  34.032  13.786
69591W        W42659  21.037  11.236  14.135
69592W        W42660   1.616  19.650   3.648
69593W        W42661  12.330  39.826   2.369
69594W        W42662   7.714   4.491  11.132
69595W        W42663  35.564   6.109   0.686
69596W        W42664  30.605  27.537  13.608
69597W        W42665   1.606  24.958   0.828
69598W        W42666   5.280  15.803  11.431
69599W        W42667  25.648  14.848  11.082
69600W        W42668  41.889  11.881  12.066
69601W        W42669   3.684   1.715  14.391
69602W        W42670  31.069  26.096  11.388
69603W        W42671  25.919   1.356  11.164
69604W        W42672  11.741  31.962   3.188
69605W        W42673  35.392  14.762   0.611
69606W        W42674   1.762  10.677   0.333
69607W        W42675  35.158  18.902  14.846
69608W        W42676   3.075  11.619  12.892
69609W        W42677   8.113   3.933  13.615
69610W        W42678  12.616   9.197  12.061
69611W        W42679  11.927  28.388  11.083
69612W        W42680  28.142  22.646   1.437
69613W        W42681  39.158  28.968  13.141
69614W        W42682  26.408  43.377  11.919
69615W        W42683  26.810  15.306  12.364
69616W        W42684  35.052   6.936   1.727
69617W        W42685  13.113  20.608  11.231
69618W        W42686  12.008   3.161  12.025
69619W        W42687  13.166  11.732  12.495
69620W        W42688  18.603  30.403  13.555
69621W        W42689  32.573  26.705  11.211
69622W        W42690  38.494   1.405   4.616
69623W        W42691  42.498   5.783  13.904
69624W        W42692  38.168  16.525  13.906
69625W        W42693  29.396   6.104  10.395
69626W        W42694  41.311   5.306   2.407
69627W        W42695   2.167  14.281   1.245
69628W        W42696  18.664  29.626   3.841
69629W        W42697  18.457  11.348   3.920
69630W        W42698  39.994  42.198  12.072
69631W        W42699   2.251  23.706  14.788
69632W        W42700  28.941  38.856  12.539
69633W        W42701   5.985   9.608  11.523
69634W        W42702  37.800   2.940  11.701
69635W        W42703  31.994   6.002  10.737
69636W        W42704  19.763  23.623  13.932
69637W        W42705  22.159  39.360  11.014
69638W        W42706  15.199  41.383  12.724
69639W        W42707  39.475  10.419  13.843
69640W        W42708   0.888  33.771   0.830
69641W        W42709  19.182  43.282   0.271
69642W        W42710  39.829  19.094  11.584
69643W        W42711  14.628  44.508   0.944
69644W        W42712  20.726  13.103   2.826
69645W        W42713   7.098  31.347  11.940
69646W        W42714   7.143   9.402  10.165
69647W        W42715  28.676   6.872   1.266
69648W        W42716  24.188  33.157   2.323
69649W        W42717  18.834  42.525   3.162
69650W        W42718   3.699  39.857  12.161
69651W        W42719  28.541  28.664  12.545
69652W        W42720  31.125  29.555  14.304
69653W        W42721  24.137  22.747  13.763
69654W        W42722   0.490  31.435  10.689
69655W        W42723  39.277  21.042   1.812
69656W        W42724  10.264   7.847   0.887
69657W        W42725  42.818  29.977   1.881
69658W        W42726  13.263  30.440  14.234
69659W        W42727  33.820  44.914   1.855
69660W        W42728   3.878  34.426   4.248
69661W        W42729  33.836  27.137  11.952
69662W        W42730  15.764  41.901  12.018
69663W        W42731  41.960  44.964  14.748
69664W        W42732  17.229  34.887  10.767
69665W        W42733  26.691  32.162  11.592
69666W        W42734  26.607   0.304   2.839
69667W        W42735  33.963  42.240   2.593
69668W        W42736   0.771  21.770   3.792
69669W        W42737  30.510   8.822  14.575
69670W        W42738  41.272  29.055   4.685
69671W        W42739  28.520  25.217  11.693
69672W        W42740  29.301  18.875  12.044
69673W        W42741  28.389  14.684   4.319
69674W        W42742   0.760  17.674  11.200
69675W        W42743  24.204  29.049  12.450
69676W        W42744  21.785  42.390  12.676
69677W        W42745   2.422  27.684   0.437
69678W        W42746   3.018  43.875  12.851
69679W        W42747   2.215  21.545   2.321
69680W        W42748  17.043   7.247  10.773
69681W        W42749   6.945  23.091   3.660
69682W        W42750  30.624   3.539   3.768
69683W        W42751   3.316   4.449   4.594
69684W        W42752  26.587  25.703  12.968
69685W        W42753  18.791  38.761   4.481
69686W        W42754  10.772  35.029   0.819
69687W        W42755  42.281  22.215   3.720
69688W        W42756  31.463   6.803   1.094
69689W        W42757  35.511   5.619  12.460
69690W        W42758  10.870  11.154   3.332
69691W        W42759  33.555  16.549  10.962
69692W        W42760  14.871  19.643   4.010
69693W        W42761  26.606  44.523  12.432
69694W        W42762  31.493  42.556   2.454
69695W        W42763   1.772  25.084  13.956
69696W        W42764  15.974  37.957  10.646
69697W        W42765  15.557  41.039   2.768
69698W        W42766  37.784   7.797  14.466
69699W        W42767   5.861  14.348  11.481
69700W        W42768  37.037  25.560   1.352
69701W        W42769  33.620  27.211  11.500
69702W        W42770  36.156   8.795  12.830
69703W        W42771  43.093  32.613  13.032
69704W        W42772  12.437  34.300  14.024
69705W        W42773  35.352  41.466  13.695
69706W        W42774  13.116  12.567  13.381
69707W        W42775  12.191  25.089  11.446
69708W        W42776  37.016  38.207   2.694
69709W        W42777  25.900  29.150  14.792
69710W        W42778  25.222  40.171  10.248
69711W        W42779  37.009  17.845  14.369
69712W        W42780  13.841  33.886   4.190
69713W        W42781  43.310   9.179   3.650
69714W        W42782   3.715  12.344  14.813
69715W        W42783  26.936   1.049  10.696
69716W        W42784  32.045  25.584  11.932
69717W        W42785  44.996   4.491  10.706
69718W        W42786  18.530  23.364   2.531
69719W        W42787  23.516  24.005  14.936
69720W        W42788   1.497  44.042  10.360
69721W        W42789  28.660  39.002  12.971
69722W        W42790  18.553  36.227  13.760
69723W        W42791  25.446  30.230  10.339
69724W        W42792  25.661   7.748   0.803
69725W        W42793   0.565   6.922  14.095
69726W        W42794  26.020  31.163   3.754
69727W        W42795  40.468  29.135  10.220
69728W        W42796  40.958  28.641  12.522
69729W        W42797  14.282  21.931  12.447
69730W        W42798  14.762  41.238  11.607
69731W        W42799   9.748  33.039  11.276
69732W        W42800  41.498  11.978   0.732
69733W        W42801  13.350   8.360   2.339
69734W        W42802  34.773  41.141   5.138
69735W        W42803   0.668   7.319   4.916
69736W        W42804  15.902   1.241   2.880
69737W        W42805   6.570  20.471  11.589
69738W        W42806  19.278  18.885   2.293
69739W        W42807  42.008  30.476  12.369
69740W        W42808  20.813  27.173  12.645
69741W        W42809   1.872  35.366  13.802
69742W        W42810  24.574  23.112  14.747
69743W        W42811   0.989  19.802  11.868
69744W        W42812  19.556  13.154  10.895
69745W        W42813  42.005  32.341  11.930
69746W        W42814  30.242  22.211  12.120
69747W        W42815  33.005  31.931  12.497
69748W        W42816  24.077  25.503  13.574
69749W        W42817   5.769  27.967  10.435
69750W        W42818  15.567  39.924  12.011
69751W        W42819   6.836  44.205  12.942
69752W        W42820   2.494  43.505   2.270
69753W        W42821  38.749  29.121  14.427
69754W        W42822  28.716  31.180  11.217
69755W        W42823  36.277   5.834  13.568
69756W        W42824  11.296  40.070   1.755
69757W        W42825  27.466  21.532   3.833
69758W        W42826  33.058   2.954   2.182
69759W        W42827  16.593  19.563  13.875
69760W        W42828   2.274  12.274   1.952
69761W        W42829  32.357   5.870   0.205
69762W        W42830  14.005  38.838  13.079
69763W        W42831  36.933   4.775   3.339
69764W        W42832  15.873   9.125  13.441
69765W        W42833  15.360  40.846  13.643
69766W        W42834  37.085  35.582  14.500
69767W        W42835  12.334   1.111   4.135
69768W        W42836  27.323   6.649   1.796
69769W        W42837  13.547  12.298  14.025
69770W        W42838  29.798   8.194   2.659
69771W        W42839   5.432  27.527  10.963
69772W        W42840  41.436  25.230  13.311
69773W        W42841  25.633  23.507  10.790
69774W        W42842  39.573  24.200   3.236
69775W        W42843   7.469  29.488   1.302
69776W        W42844  40.348  21.246  11.586
69777W        W42845   1.740   9.342   4.622
69778W        W42846   3.067  36.686   3.065
69779W        W42847   3.503   4.015   4.315
69780W        W42848  18.178   2.221  10.660
69781W        W42849  24.682  38.915  13.445
69782W        W42850  26.470  31.624   3.820
69783W        W42851  26.101  18.597   0.331
69784W        W42852   0.218   4.387  12.079
69785W        W42853  25.512  10.856  13.855
69786W        W42854  11.938  39.965   1.215
69787W        W42855  22.693  12.575   3.192
69788W        W42856   8.399  12.309   1.743
69789W        W42857   6.871   8.281   1.237
69790W        W42858  42.607  21.032   3.247
69791W        W42859  13.031   4.266  11.811
69792W        W42860  39.815  19.683   1.801
69793W        W42861  40.336  31.091   3.776
69794W        W42862  42.262  20.650   0.495
69795W        W42863  12.759   3.320   2.424
69796W        W42864  23.527   4.312   4.085
69797W        W42865  30.702   5.862   1.228
69798W        W42866   5.857  37.908  14.266
69799W        W42867  40.950  36.204   2.589
69800W        W42868  13.796   1.456   3.795
69801W        W42869  22.518  23.545   0.869
69802W        W42870   9.746  22.034  13.521
69803W        W42871  16.761   8.102   0.364
69804W        W42872  29.211  24.107   1.433
69805W        W42873  21.874  43.436   4.221
69806W        W42874  30.251  17.204  13.391
69807W        W42875  39.998  16.493  13.653
69808W        W42876  18.409  38.763   0.454
69809W        W42877  43.884   0.206   1.603
69810W        W42878  14.827  44.747  11.955
69811W        W42879   7.800  23.123  12.407
69812W        W42880  13.047   9.162   1.922
69813W        W42881  17.277  35.000   2.314
69814W        W42882   8.339  40.610  12.861
69815W        W42883  38.442   3.378  13.587
69816W        W42884   6.706  26.596   3.929
69817W        W42885  35.824  11.520   3.162
69818W        W42886  19.714   0.238   1.474
69819W        W42887  30.763  43.107   2.775
69820W        W42888   6.134  25.025  11.134
69821W        W42889  44.091  15.235  10.289
69822W        W42890  28.955  22.090   2.869
69823W        W42891  26.143  16.206  13.761
69824W        W42892  19.730  15.822   0.355
69825W        W42893  41.782   7.702  13.856
69826W        W42894  38.273  15.248  14.382
69827W        W42895   7.418  20.788   0.758
69828W        W42896   9.855  25.816  11.804
69829W        W42897   9.117  27.511  12.506
69830W        W42898  28.205  43.464   3.607
69831W        W42899  15.354  24.299  14.374
69832W        W42900  17.120  44.515   4.571
69833W        W42901  32.633  24.307  14.943
69834W        W42902  33.546   0.789   3.681
69835W        W42903  12.789  32.402  14.337
69836W        W42904  25.135  41.849  13.507
69837W        W42905  36.093  41.755  11.214
69838W        W42906  15.631  13.646  11.023
69839W        W42907   5.686  24.621  14.933
69840W        W42908  28.218  15.104   4.587
69841W        W42909  26.207  12.106  12.503
69842W        W42910  21.283  12.857   2.014
69843W        W42911   2.995  13.548  11.148
69844W        W42912   9.522  34.682   2.799
69845W        W42913  18.659   4.229   3.571
69846W        W42914  15.092  23.485  14.011
69847W        W42915  37.557  18.033   3.303
69848W        W42916   7.112  36.591   3.328
69849W        W42917  22.285  43.000  11.732
69850W        W42918  23.068   6.517  10.739
69851W        W42919  20.479   4.327  13.926
69852W        W42920  18.851   6.271   2.520
69853W        W42921  36.602  39.430  12.255
69854W        W42922   3.259  27.007   1.732
69855W        W42923  19.543  19.299   2.497
69856W        W42924   8.605  18.828   2.161
69857W        W42925  24.443  15.511   0.384
69858W        W42926  42.960  31.398  11.993
69859W        W42927  20.367  34.026  10.667
69860W        W42928   0.087   0.303  12.146
69861W        W42929  38.984  14.106  12.861
69862W        W42930  33.910  10.883  14.738
69863W        W42931  17.032  22.933  11.682
69864W        W42932  30.338  35.321  11.026
69865W        W42933  38.429  10.643   3.699
69866W        W42934  25.469   9.286   4.083
69867W        W42935  26.003  14.739   3.119
69868W        W42936  14.697  39.431   2.896
69869W        W42937  30.129  23.977   3.411
69870W        W42938  14.651  36.834  14.031
69871W        W42939   7.816  22.337  12.935
69872W        W42940   1.065  43.494   4.698
69873W        W42941  16.835  22.587   1.492
69874W        W42942   6.170  31.387  13.941
69875W        W42943  18.999   5.283   2.938
69876W        W42944  36.137  29.584  11.559
69877W        W42945  30.102  14.045   2.741
69878W        W42946  28.644  28.526   1.853
69879W        W42947  21.738  13.152  11.593
69880W        W42948  25.225   5.380   0.676
69881W        W42949  25.046  32.110  14.303
69882W        W42950  26.693  32.436   4.671
69883W        W42951  37.766   6.055  10.784
69884W        W42952  14.177   0.309  11.603
69885W        W42953  17.886  22.128   0.801
69886W        W42954  12.407  15.505   2.115
69887W        W42955  41.255  17.728  13.629
69888W        W42956   4.168   7.625   2.259
69889W        W42957   3.534  33.674  12.823
69890W        W42958  29.065  34.659   1.467
69891W        W42959  21.526   2.405  12.487
69892W        W42960  41.346  21.148  14.232
69893W        W42961  36.494  12.259   3.371
69894W        W42962  20.704  25.276  12.047
69895W        W42963   1.732  39.125  12.015
69896W        W42964   2.734  11.895   3.692
69897W        W42965  27.015  12.331  14.690
69898W        W42966  37.545   0.416  14.832
69899W        W42967   8.679  16.666  10.871
69900W        W42968  14.712  28.467  10.572
69901W        W42969  41.982   9.316  13.921
69902W        W42970  32.663   7.635  12.096
69903W        W42971  25.298   3.040   4.541
69904W        W42972  33.830  25.295  13.002
69905W        W42973  20.022   1.261  14.303
69906W        W42974  29.387   6.683  13.898
69907W        W42975  41.920  37.349   2.677
69908W        W42976  14.219  44.700   1.779
69909W        W42977   1.771  40.559   0.268
69910W        W42978  18.205  29.031  13.769
69911W        W42979   8.715   7.349   0.306
69912W        W42980  20.682   4.159   1.194
69913W        W42981   8.607  39.221  12.093
69914W        W42982  35.759  40.089   0.655
69915W        W42983  12.352  38.676  11.977
69916W        W42984  34.558   0.316   1.842
69917W        W42985  29.936  37.009  14.734
69918W        W42986  28.903  37.953  10.699
69919W        W42987  40.994  34.154  11.411
69920W        W42988   6.713   8.179   0.336
69921W        W42989  34.641  16.631   3.665
69922W        W42990  44.236  27.480  13.146
69923W        W42991  23.295  16.273   1.398
69924W        W42992  43.854  30.195  14.322
69925W        W42993  25.986   7.823   2.695
69926W        W42994  41.376  16.824  14.556
69927W        W42995  18.790   8.806   2.831
69928W        W42996  25.321  24.486   2.403
69929W        W42997   5.457   7.657  12.066
69930W        W42998   8.317  27.627  12.119
69931W        W42999   4.866  11.734  14.341
69932W        W43000   1.579  25.141   4.325
69933W        W43001  11.831  14.040   2.764
69934W        W43002  19.624  12.682   2.670
69935W        W43003  28.867  23.786   1.188
69936W        W43004  21.075  29.948  10.578
69937W        W43005  44.784  29.422  11.800
69938W        W43006  43.596  43.873  12.129
69939W        W43007  34.789  31.555  13.444
69940W        W43008  27.781  41.890   0.752
69941W        W43009  37.794  34.347   0.587
69942W        W43010   9.919   4.947  11.033
69943W        W43011  19.180  28.096   2.612
69944W        W43012  25.298  40.300   3.037
69945W        W43013  35.067  24.528   4.154
69946W        W43014  31.408   8.724  12.360
69947W        W43015  34.180   9.721  14.098
69948W        W43016  13.694  11.297  11.952
69949W        W43017  32.968   7.603   2.782
69950W        W43018   6.447   8.942  11.637
69951W        W43019   9.367  38.274   2.042
69952W        W43020  14.362  25.758  14.813
69953W        W43021  29.458  15.648   0.814
69954W        W43022   0.054  26.705  14.379
69955W        W43023  29.872   1.523   4.134
69956W        W43024  38.382   7.293  14.935
69957W        W43025   6.941  14.321  10.932
69958W        W43026  15.651  12.822  12.044
69959W        W43027  21.469  16.538   0.823
69960W        W43028   7.116   6.801   3.718
69961W        W43029  32.910  33.981   2.324
69962W        W43030  17.173  19.573   3.208
69963W        W43031  21.195   4.501   2.345
69964W        W43032  42.803  13.375  12.984
69965W        W43033  22.014  39.568  14.810
69966W        W43034  34.422  12.621  14.813
69967W        W43035  18.515  38.379   4.266
69968W        W43036  15.884  36.861  13.090
69969W        W43037  42.815   7.428  11.291
69970W        W43038  27.604  23.523  14.299
69971W        W43039  22.774  29.014   4.882
69972W        W43040  26.487  12.424  13.804
69973W        W43041  42.903  38.866  10.667
69974W        W43042  17.820  23.855   2.676
69975W        W43043  21.916  10.920   4.642
69976W        W43044  29.448   9.604   2.700
69977W        W43045   6.800  14.665   3.645
69978W        W43046  17.106  25.124  14.830
69979W        W43047  44.474  10.458   0.621
69980W        W43048  28.430  41.878   2.719
69981W        W43049   1.456  18.923   2.690
69982W        W43050  19.772  16.322  12.108
69983W        W43051   2.194  23.815  10.151
69984W        W43052  10.212  14.566   4.227
69985W        W43053  39.277  33.346   4.177
69986W        W43054  43.160  43.919  10.799
69987W        W43055  32.304   9.416   1.936
69988W        W43056  32.153  37.880   1.760
69989W        W43057   0.045   9.647   0.299
69990W        W43058   6.495   5.017   1.544
69991W        W43059  18.476  21.574  13.030
69992W        W43060  12.382  17.181  14.519
69993W        W43061   8.933  33.695  11.150
69994W        W43062  10.396  34.637  12.046
69995W        W43063  16.279  41.980  11.970
69996W        W43064  24.747  15.157   4.923
69997W        W43065   8.924  30.484  13.917
69998W        W43066  27.030   9.228   4.349
69999W        W43067  20.474  13.067  11.142
70000W        W43068  14.042  29.592  12.111
70001W        W43069   8.269  44.282  10.406
70002W        W43070  34.849   6.129  11.604
70003W        W43071   8.927  21.576   2.793
70004W        W43072  29.914  41.398   2.212
70005W        W43073   2.272  32.071   4.048
70006W        W43074  17.988  21.152   2.312
70007W        W43075  36.466  25.253  14.778
70008W        W43076   8.401  20.657   2.658
70009W        W43077  10.437  23.262   2.412
70010W        W43078  37.518  26.741  14.082
70011W        W43079  24.039  33.998  12.778
70012W        W43080  38.033  32.987   5.010
70013W        W43081  37.083  22.196   0.667
70014W        W43082  28.478  18.044   3.145
70015W        W43083  29.121  34.081  11.874
70016W        W43084  15.737  29.345   5.055
70017W        W43085   2.311  25.878   0.451
70018W        W43086  38.870  40.528  11.151
70019W        W43087  35.367  15.288  11.609
70020W        W43088  20.777  26.057   0.169
70021W        W43089   0.539  14.233   1.579
70022W        W43090  38.453  36.587  13.808
70023W        W43091  27.216  38.948   1.327
70024W        W43092  29.613  18.595   2.722
70025W        W43093  16.114  16.276   3.599
70026W        W43094   7.592  26.609   4.483
70027W        W43095  23.043  21.494   4.519
70028W        W43096  34.559  27.441  11.656
70029W        W43097  23.498  42.641  11.603
70030W        W43098  36.366  24.897  11.069
70031W        W43099  36.089   3.045  12.478
70032W        W43100  10.088  23.057  13.329
70033W        W43101  29.511  42.920   3.356
70034W        W43102  32.133  34.344   1.792
70035W        W43103  17.874  25.549  11.077
70036W        W43104  27.050  22.312  11.980
70037W        W43105  28.772  30.102  11.513
70038W        W43106  29.632  35.545  13.875
70039W        W43107  14.366  33.904   4.137
70040W        W43108  14.630   8.166  13.950
70041W        W43109  17.660  33.036   4.513
70042W        W43110   7.259  10.709  13.843
70043W        W43111  38.019  16.848   1.250
70044W        W43112   4.701   1.910  10.746
70045W        W43113  34.532  23.415  12.989
70046W        W43114  44.554  24.061  10.710
70047W        W43115  35.455   0.304  11.385
70048W        W43116   0.057  35.355  11.697
70049W        W43117  36.426  15.931   3.989
70050W        W43118  31.745  40.699  11.893
70051W        W43119   8.861  16.804  12.812
70052W        W43120   5.801  44.456  14.790
70053W        W43121  14.512  40.100  10.599
70054W        W43122  35.440  16.569  14.333
70055W        W43123  41.047  21.081  12.908
70056W        W43124  37.377   7.180  14.089
70057W        W43125  20.546  44.818  14.652
70058W        W43126  19.582  28.675   3.876
70059W        W43127  16.323  15.176  14.023
70060W        W43128  14.748  17.330  12.970
70061W        W43129  35.912  18.182   1.188
70062W        W43130  22.971  23.214   4.972
70063W        W43131  15.809  11.062   4.509
70064W        W43132   6.360  20.809   1.427
70065W        W43133  13.344  16.780   1.224
70066W        W43134  28.733  20.533  12.805
70067W        W43135   8.176  18.777  13.345
70068W        W43136  33.560  12.118  14.397
70069W        W43137  38.470  13.178  12.505
70070W        W43138  31.173  33.181  13.575
70071W        W43139  12.072  23.938  12.502
70072W        W43140  39.359  26.603  14.365
70073W        W43141   0.269  42.936   1.528
70074W        W43142  31.196  32.147  14.431
70075W        W43143  10.485  15.369   3.779
70076W        W43144  40.992   1.736  11.839
70077W        W43145   5.184  16.276  10.568
70078W        W43146  34.996  36.510   2.569
70079W        W43147  12.694  16.262  11.113
70080W        W43148   7.794  22.271  11.594
70081W        W43149  31.837  37.208   2.521
70082W        W43150  15.293  19.359  14.000
70083W        W43151   1.304  36.814  13.472
70084W        W43152  28.025  37.689  13.856
70085W        W43153  34.668   7.908  11.112
70086W        W43154  32.709  41.041   2.218
70087W        W43155   3.409   6.138  10.638
70088W        W43156  16.432   0.504  14.861
70089W        W43157  42.197   0.836   2.830
70090W        W43158  30.534  24.853  11.588
70091W        W43159  32.890  29.481  10.740
70092W        W43160   2.409  31.063  14.986
70093W        W43161  41.739  10.710   0.204
70094W        W43162  20.314  21.137   0.436
70095W        W43163  36.932  16.442  13.349
70096W        W43164  22.496  34.625   3.704
70097W        W43165  43.901  11.774  12.456
70098W        W43166  23.964  32.924   4.825
70099W        W43167   7.161  34.917   0.241
70100W        W43168  17.881  41.666   2.325
70101W        W43169  35.056  11.371   3.283
70102W        W43170  35.102  28.091  14.740
70103W        W43171  21.728  12.109   4.162
70104W        W43172  28.996  27.939  14.609
70105W        W43173  34.526   0.186   0.891
70106W        W43174  35.289  38.427  14.611
70107W        W43175  18.419  20.194   2.273
70108W        W43176  32.814  40.097   1.930
70109W        W43177  28.052  29.956   1.551
70110W        W43178  37.006  37.986  13.113
70111W        W43179  18.808  38.448   3.823
70112W        W43180  28.007  24.553  14.819
70113W        W43181  38.180  38.594   2.367
70114W        W43182   4.333  41.157   3.711
70115W        W43183  13.942  18.714   1.710
70116W        W43184  31.498  33.530   3.184
70117W        W43185  17.917  42.577   0.938
70118W        W43186  21.223  20.527   0.908
70119W        W43187  21.259  32.092  12.517
70120W        W43188  26.360  30.530   1.282
70121W        W43189  40.405  26.925  14.621
70122W        W43190  23.748  19.930  13.489
70123W        W43191  21.936  31.564  10.413
70124W        W43192  16.474  30.067  14.860
70125W        W43193  27.429  11.665   3.446
70126W        W43194  44.052  21.205   3.351
70127W        W43195   7.419  14.734  12.669
70128W        W43196  21.141  10.042   1.452
70129W        W43197   2.112  17.103   0.364
70130W        W43198  28.264  12.094  11.613
70131W        W43199  10.773   7.946   1.096
70132W        W43200   6.213  11.299   1.378
70133W        W43201  26.043  30.923   4.226
70134W        W43202  33.320  12.263   1.203
70135W        W43203  17.611  20.852  14.810
70136W        W43204  22.011  16.295   0.214
70137W        W43205  24.484  32.474   1.372
70138W        W43206  44.019  10.565   2.421
70139W        W43207  16.911  19.237  11.163
70140W        W43208  32.584  15.347  14.337
70141W        W43209  41.255  42.748  13.254
70142W        W43210   3.637   6.652   3.644
70143W        W43211   2.058  12.331  12.514
70144W        W43212  33.458   7.496   1.403
70145W        W43213  37.821  30.913  14.513
70146W        W43214  37.048  42.505  12.021
70147W        W43215  20.601  19.511   1.239
70148W        W43216   1.959  13.153  12.382
70149W        W43217  22.720  26.949   1.807
70150W        W43218  18.502  23.147   4.383
70151W        W43219  30.394   2.972  11.153
70152W        W43220  36.135  42.258   1.225
70153W        W43221  27.490   6.757  11.748
70154W        W43222  41.875  26.031   0.295
70155W        W43223  15.836  20.074   0.682
70156W        W43224   0.890  39.899  12.523
70157W        W43225  31.100  38.506   1.732
70158W        W43226  29.915  21.070   3.773
70159W        W43227  43.485   7.427   4.356
70160W        W43228   6.716  30.007   3.527
70161W        W43229  40.058  40.898  11.029
70162W        W43230  31.829  24.095  13.160
70163W        W43231  22.101  30.689  12.904
70164W        W43232  38.107  15.292   2.088
70165W        W43233  40.520  30.649   2.171
70166W        W43234  18.531  30.909   4.155
70167W        W43235  14.098   2.286   3.830
70168W        W43236  25.224  29.106   2.232
70169W        W43237   2.465   0.386  11.414
70170W        W43238   7.803  17.286  13.646
70171W        W43239   9.653  20.257  11.638
70172W        W43240  33.383  30.482  10.749
70173W        W43241   8.921  22.244  14.948
70174W        W43242  44.874  31.322  11.482
70175W        W43243  20.623  43.044   4.127
70176W        W43244   1.280  36.581   1.715
70177W        W43245  36.872  26.967  13.325
70178W        W43246  11.765   8.591   4.334
70179W        W43247  20.522  34.676   3.776
70180W        W43248   8.842  11.400  13.811
70181W        W43249   6.150   5.792  13.425
70182W        W43250   8.668  29.420   0.578
70183W        W43251   3.736  13.940  11.094
70184W        W43252  35.156  22.257   1.265
70185W        W43253  31.534  20.604   2.565
70186W        W43254  21.540   3.969   2.740
70187W        W43255  42.596  16.265   5.610
70188W        W43256  32.615  30.003   4.139
70189W        W43257  41.302   6.883   0.206
70190W        W43258  19.692  18.074   2.363
70191W        W43259  35.987  23.726   0.659
70192W        W43260  32.120  20.390   1.799
70193W        W43261   7.746   6.218   0.812
70194W        W43262  34.292  38.398  13.428
70195W        W43263   8.692  28.059   0.930
70196W        W43264  43.816   0.225  12.389
70197W        W43265  30.283  31.934   4.276
70198W        W43266   4.933  44.360   1.286
70199W        W43267  23.786  32.144   1.314
70200W        W43268  32.714  27.600   1.237
70201W        W43269  22.663   9.142   1.379
70202W        W43270  40.247  37.329  10.117
70203W        W43271  35.640   8.911   3.111
70204W        W43272  15.217  37.555   3.353
70205W        W43273   2.577   5.303  12.282
70206W        W43274  21.547  33.007   1.304
70207W        W43275  16.702  31.673   1.183
70208W        W43276  32.882  12.848   0.228
70209W        W43277  39.073   3.817  14.005
70210W        W43278  13.088  29.105  14.266
70211W        W43279  39.787  26.621   1.832
70212W        W43280   2.511   7.886   4.185
70213W        W43281  32.597  40.470  11.159
70214W        W43282  39.953  37.325  11.576
70215W        W43283   8.701   0.295  11.665
70216W        W43284  25.094  37.538   1.906
70217W        W43285  20.405   3.719   3.807
70218W        W43286  27.270  40.483   0.430
70219W        W43287  42.661  41.240  12.052
70220W        W43288  30.004  41.425   2.718
70221W        W43289  20.160  10.241   3.818
70222W        W43290  20.004   2.539  14.333
70223W        W43291  22.559  29.651   1.965
70224W        W43292  18.467   3.795  14.022
70225W        W43293  26.601   9.791   5.379
70226W        W43294   2.411  12.168   2.441
70227W        W43295  19.268  23.754   3.185
70228W        W43296  30.573  28.065  14.797
70229W        W43297  15.289  26.516   3.231
70230W        W43298  35.020   5.017   1.935
70231W        W43299   0.810  41.808   0.994
70232W        W43300  15.333   6.182   0.267
70233W        W43301  27.624  19.002   4.129
70234W        W43302  25.438  14.170   2.859
70235W        W43303  34.573  37.041   3.086
70236W        W43304  13.905  22.616  11.068
70237W        W43305  44.808  12.270   0.437
70238W        W43306   7.459  44.296  11.517
70239W        W43307  40.929  12.911  12.029
70240W        W43308  36.300  28.620   1.678
70241W        W43309  39.411   0.492   2.393
70242W        W43310  23.015  30.910  10.659
70243W        W43311  21.291  29.646   2.289
70244W        W43312  31.571  22.438   0.207
70245W        W43313  30.809  36.178   2.738
70246W        W43314  28.060   8.289  11.152
70247W        W43315  32.248  16.378  14.054
70248W        W43316   9.409  31.208   3.651
70249W        W43317  25.740  22.588  10.380
70250W        W43318  31.950   6.243   4.081
70251W        W43319  25.226  19.584   4.547
70252W        W43320  37.952  30.483  14.268
70253W        W43321  10.642  35.454  10.724
70254W        W43322  16.756  24.223   4.918
70255W        W43323   7.268  44.110   3.598
70256W        W43324   0.698  21.000  11.422
70257W        W43325  33.024  32.622   2.877
70258W        W43326  34.926   5.326   0.934
70259W        W43327   0.361   4.404   3.945
70260W        W43328  41.432  31.498  11.644
70261W        W43329  15.240  44.024  14.504
70262W        W43330  27.318  39.718   4.456
70263W        W43331  21.685  43.004   1.203
70264W        W43332  13.340  36.502   3.622
70265W        W43333  38.316  18.671  11.261
70266W        W43334  39.547   0.050   3.173
70267W        W43335   1.554  29.011   1.897
70268W        W43336   4.878  42.752   0.063
70269W        W43337   8.445  21.105  11.145
70270W        W43338   0.430   9.206  11.057
70271W        W43339  41.066  19.766  11.593
70272W        W43340  44.837  37.376  11.166
70273W        W43341  17.044  41.758  14.508
70274W        W43342  11.297  20.058  10.020
70275W        W43343  24.470   9.145  11.507
70276W        W43344  22.793  14.817   1.435
70277W        W43345  18.923   5.342   1.337
70278W        W43346  14.916  37.801  13.770
70279W        W43347   3.711   3.801  13.015
70280W        W43348  44.726  24.147  13.015
70281W        W43349   0.039  16.635  11.623
70282W        W43350  41.139  33.407  13.996
70283W        W43351   9.450   4.372  13.358
70284W        W43352  44.339  36.611  14.107
70285W        W43353   3.573  28.166   3.397
70286W        W43354  34.595  18.214   0.929
70287W        W43355  26.306   8.356   1.909
70288W        W43356  14.367   3.721   4.974
70289W        W43357   2.516   4.469  12.974
70290W        W43358  24.595   0.006   0.813
70291W        W43359  22.942  40.953  13.396
70292W        W43360  33.956   9.713  13.560
70293W        W43361  44.810  12.439   4.627
70294W        W43362   0.909  38.284  11.681
70295W        W43363  24.154  19.205  10.195
70296W        W43364  18.274  14.126   3.901
70297W        W43365  22.135  44.879   4.976
70298W        W43366  19.590  36.949   3.204
70299W        W43367  15.069  33.051  13.332
70300W        W43368  25.362  22.781   3.735
70301W        W43369  15.951   3.724  13.817
70302W        W43370  19.166  36.353   2.169
70303W        W43371  17.385  10.592  12.447
70304W        W43372   0.256  13.215  12.143
70305W        W43373  32.660   8.757   0.283
70306W        W43374  39.691  33.867  11.105
70307W        W43375  16.732   8.098  11.330
70308W        W43376   8.703  37.860   1.423
70309W        W43377  23.782  37.533  12.841
70310W        W43378   4.204  42.389   3.470
70311W        W43379  21.277  35.253   2.282
70312W        W43380   7.005   0.550  10.446
70313W        W43381  40.923  29.038   0.917
70314W        W43382  34.552  32.093   3.687
70315W        W43383  16.735  44.479  11.360
70316W        W43384  15.314  40.525   0.928
70317W        W43385  12.544   8.718  12.326
70318W        W43386  37.760  20.993  12.161
70319W        W43387  40.497  32.073   2.733
70320W        W43388  32.212  35.817  11.877
70321W        W43389  44.355  23.450  14.458
70322W        W43390  25.532  19.404   2.175
70323W        W43391  27.455   2.855  13.065
70324W        W43392  38.504   6.610   5.246
70325W        W43393  12.094   4.880   2.767
70326W        W43394  31.562  33.999   1.808
70327W        W43395  33.276  40.059  10.099
70328W        W43396  10.969  10.311  13.934
70329W        W43397  20.813  23.218   4.307
70330W        W43398   4.623   2.866   2.809
70331W        W43399  41.695   5.744  12.426
70332W        W43400   3.927  40.249  10.864
70333W        W43401   4.796  13.171   3.287
70334W        W43402  44.379  30.666   1.277
70335W        W43403  44.289  39.391  10.658
70336W        W43404   0.077  23.597   0.788
70337W        W43405  24.486  28.913   3.043
70338W        W43406  43.320   9.674  12.022
70339W        W43407  40.220  36.840  13.792
70340W        W43408  29.632  33.443  12.487
70341W        W43409  40.087  42.573  13.150
70342W        W43410  18.131   1.875   4.721
70343W        W43411  23.061  44.416   3.159
70344W        W43412   2.578  38.150  14.462
70345W        W43413  28.866   4.228   2.116
70346W        W43414  40.862  26.149   3.403
70347W        W43415   7.035  44.328  13.417
70348W        W43416   9.791  10.356  13.801
70349W        W43417  32.976  15.122  12.997
70350W        W43418  40.839  28.742   1.833
70351W        W43419  37.586  41.220  14.915
70352W        W43420   2.041  28.460   3.183
70353W        W43421   8.394   5.132  13.697
70354W        W43422   3.250  23.013  12.748
70355W        W43423   0.881  11.131   1.898
70356W        W43424   2.456  16.214   0.716
70357W        W43425  27.335  29.020  13.349
70358W        W43426  31.736  17.878   1.215
70359W        W43427  43.083  40.238   3.667
70360W        W43428  32.573   7.712   2.426
70361W        W43429  15.364   4.882  11.443
70362W        W43430  31.087  32.681  14.340
70363W        W43431  35.020  11.608  11.144
70364W        W43432  21.692   8.027   3.075
70365W        W43433   0.216  15.558   1.661
70366W        W43434  44.781  32.743   3.433
70367W        W43435  27.721  25.229  13.010
70368W        W43436  34.583  33.713  14.272
70369W        W43437   2.413  30.276   5.032
70370W        W43438  29.614  25.562   1.389
70371W        W43439  20.275   0.281  14.631
70372W        W43440  25.660   4.006   4.508
70373W        W43441  37.718  24.434   3.348
70374W        W43442  26.809  28.530   1.073
70375W        W43443  39.133  35.950   4.624
70376W        W43444  15.053  10.999   2.712
70377W        W43445  27.696  40.004  12.080
70378W        W43446  16.316  21.985  10.749
70379W        W43447  31.522  39.941   4.590
70380W        W43448   0.006   5.391   2.471
70381W        W43449  17.017  30.948   2.764
70382W        W43450  17.569  32.610  13.367
70383W        W43451   6.696   4.871  10.359
70384W        W43452  23.754  30.162  10.750
70385W        W43453  39.612  17.028  13.436
70386W        W43454  14.527  18.198  12.874
70387W        W43455  13.574  10.718   2.283
70388W        W43456   0.454  31.054   3.309
70389W        W43457  31.501  14.160   4.136
70390W        W43458   1.839  44.079  11.931
70391W        W43459   1.809  20.334  12.103
70392W        W43460   8.402  39.375  11.624
70393W        W43461  18.258  33.297  14.562
70394W        W43462  44.860  30.211  12.184
70395W        W43463  20.453  25.772   4.370
70396W        W43464  33.501  19.205  11.659
70397W        W43465  22.979  21.246   4.989
70398W        W43466  28.004  28.091  12.162
70399W        W43467   0.454  24.911  12.062
70400W        W43468  29.517  38.955   0.441
70401W        W43469  23.318  44.779   4.928
70402W        W43470   6.717  18.991   2.726
70403W        W43471  20.798   4.076  10.322
70404W        W43472  26.564  22.010   2.440
70405W        W43473  40.977  23.156  11.179
70406W        W43474  14.764  16.671   1.857
70407W        W43475   1.851  11.151   2.172
70408W        W43476   8.257   2.968  11.812
70409W        W43477  15.233  18.855   3.542
70410W        W43478   4.984  28.663  11.582
70411W        W43479  10.376   0.286   0.442
70412W        W43480   2.942  38.260  14.848
70413W        W43481  23.237  37.653  10.026
70414W        W43482  35.589  27.163   1.314
70415W        W43483   8.231  29.586  13.289
70416W        W43484   9.332  43.863  14.169
70417W        W43485   5.402  28.640   3.101
70418W        W43486   2.933  14.400   1.772
70419W        W43487   6.540  25.454  12.311
70420W        W43488  38.028  34.601   2.642
70421W        W43489   2.606   6.034  10.281
70422W        W43490  21.169  22.255   2.887
70423W        W43491   4.683  24.678  14.625
70424W        W43492  28.599  35.885  11.184
70425W        W43493   6.807  34.278   4.466
70426W        W43494  25.576  24.911   1.680
70427W        W43495  40.081  34.977   1.319
70428W        W43496  36.475  30.533   2.780
70429W        W43497  38.881  31.937  13.740
70430W        W43498  36.090   2.291   0.978
70431W        W43499  25.885  29.671   0.958
70432W        W43500  27.944  37.776   0.649
70433W        W43501  35.836   5.300  13.218
70434W        W43502  26.768  20.570  11.128
70435W        W43503  16.165  23.179   1.289
70436W        W43504  19.898   8.925   2.459
70437W        W43505  20.807  17.728   4.022
70438W        W43506  23.201  16.112   0.808
70439W        W43507  29.911  18.759  13.658
70440W        W43508  19.927  26.122  11.580
70441W        W43509  40.428  23.219   2.571
70442W        W43510  39.888   5.728   0.438
70443W        W43511  34.894  41.728  13.837
70444W        W43512   1.402  15.624   3.125
70445W        W43513  11.755  33.173  14.563
70446W        W43514  22.928   2.274   3.221
70447W        W43515  18.055  41.207   2.012
70448W        W43516   0.915  32.951  11.196
70449W        W43517  37.433  28.340  12.362
70450W        W43518  13.600  18.773   2.620
70451W        W43519   3.899  42.734  10.068
70452W        W43520  15.580  24.198   0.811
70453W        W43521  29.504  22.182  13.888
70454W        W43522  14.230   3.980   2.426
70455W        W43523   4.036  44.737  14.476
70456W        W43524  24.381  43.776   3.156
70457W        W43525   2.502  18.765   2.781
70458W        W43526  35.592  31.695   4.217
70459W        W43527  23.278  23.668   1.305
70460W        W43528  44.217  38.863   1.251
70461W        W43529  43.853   4.382   1.161
70462W        W43530  35.515   9.257   0.823
70463W        W43531   8.194  38.574   9.896
70464W        W43532  44.342   8.702   0.776
70465W        W43533  30.079  41.358  13.090
70466W        W43534  34.468   7.784  14.483
70467W        W43535  26.453  39.365  11.467
70468W        W43536   6.369  36.016  14.911
70469W        W43537  36.131  32.922   4.988
70470W        W43538  40.338  40.903  13.920
70471W        W43539  18.535  38.216  13.868
70472W        W43540  16.554  31.381   1.929
70473W        W43541   1.757  25.147   2.034
70474W        W43542  18.970  37.884  10.593
70475W        W43543  30.378   5.678   3.161
70476W        W43544  40.628  14.838   2.181
70477W        W43545  19.617  41.985   3.999
70478W        W43546  28.186  16.934   0.584
70479W        W43547  26.912   3.693  12.606
70480W        W43548  14.520  40.787  11.521
70481W        W43549  41.344  23.481  13.070
70482W        W43550  10.089  41.431  10.879
70483W        W43551  36.399  40.076  11.634
70484W        W43552  24.284  11.803   4.113
70485W        W43553  44.018  39.931   3.392
70486W        W43554  27.967  40.112  12.577
70487W        W43555  36.027  34.442  11.702
70488W        W43556  17.030   6.167  10.597
70489W        W43557  21.715  15.570  11.044
70490W        W43558   5.419  35.346  13.344
70491W        W43559  22.501   4.401   1.710
70492W        W43560   8.032  27.941  10.172
70493W        W43561   8.649  31.920  10.502
70494W        W43562  10.346  14.121   3.170
70495W        W43563   1.560  21.146   2.720
70496W        W43564  36.453  28.589  14.788
70497W        W43565  21.862  43.904  13.076
70498W        W43566  39.604  37.967   0.800
70499W        W43567  14.107  38.014  13.889
70500W        W43568  38.283   7.571  10.825
70501W        W43569  31.797   0.883   1.520
70502W        W43570  16.496  42.799  14.198
70503W        W43571  15.202  37.690   0.948
70504W        W43572   3.128   1.056  10.735
70505W        W43573   6.429  43.041   1.394
70506W        W43574   8.723  13.123  11.699
70507W        W43575  13.404  22.319   2.332
70508W        W43576   3.674  43.955  13.448
70509W        W43577  15.405  39.859   3.300
70510W        W43578  21.080  38.805   0.731
70511W        W43579  28.536  21.548  10.783
70512W        W43580   0.694  33.143  10.785
70513W        W43581  16.777  15.620  14.400
70514W        W43582  39.267  23.131   4.662
70515W        W43583  17.993  31.250   1.679
70516W        W43584  27.878  28.095  10.604
70517W        W43585  42.098  19.639  12.478
70518W        W43586  30.121  18.566   2.646
70519W        W43587  44.267  29.144   5.278
70520W        W43588   5.462  12.279  10.781
70521W        W43589  30.636   4.568   3.913
70522W        W43590  25.758   9.620   0.021
70523W        W43591  29.885  20.551  14.984
70524W        W43592  41.215  31.201   1.746
70525W        W43593  19.733  26.093  13.778
70526W        W43594  12.416   7.028  13.404
70527W        W43595  44.815  36.423  11.514
70528W        W43596   4.769   5.192  10.795
70529W        W43597  25.881  36.988  11.121
70530W        W43598  27.273  43.310   0.119
70531W        W43599  22.702  22.411  11.064
70532W        W43600  41.837   7.584   0.493
70533W        W43601  24.304  23.777  13.374
70534W        W43602   5.654  29.242   3.738
70535W        W43603   5.968  15.269   0.454
70536W        W43604  33.661  13.806  13.934
70537W        W43605  30.356  37.233  13.120
70538W        W43606  32.610  20.507  14.165
70539W        W43607   4.938  43.763  10.795
70540W        W43608  24.916   2.202   2.758
70541W        W43609  38.222   1.404  11.140
70542W        W43610  19.479  33.185   2.240
70543W        W43611   1.592  29.864  12.451
70544W        W43612  31.914  23.962   0.356
70545W        W43613  25.513   0.884  12.977
70546W        W43614   9.626  35.884  13.527
70547W        W43615   2.413  14.252  13.325
70548W        W43616   7.193  22.539   4.585
70549W        W43617  42.997  29.103   3.863
70550W        W43618  41.218  31.188  12.930
70551W        W43619   7.612  39.771   3.672
70552W        W43620  11.116  29.164   4.601
70553W        W43621   4.370  22.305   2.668
70554W        W43622   3.977  30.756   5.029
70555W        W43623   0.788  24.439   0.731
70556W        W43624  44.748  14.584   1.151
70557W        W43625  35.574  10.221  14.459
70558W        W43626  18.172  42.769   0.485
70559W        W43627  43.535  26.030   4.179
70560W        W43628  37.075  24.753   2.709
70561W        W43629  14.757  16.585   0.964
70562W        W43630   5.918  13.394   1.794
70563W        W43631  39.294  30.374   1.841
70564W        W43632  40.741   6.935  13.322
70565W        W43633  30.592  17.070   2.103
70566W        W43634   1.937  26.701   3.609
70567W        W43635   2.959  18.188   0.229
70568W        W43636  37.096  19.812   2.371
70569W        W43637  35.033  38.527   3.563
70570W        W43638  23.984   7.257  14.940
70571W        W43639  12.533  42.064   1.839
70572W        W43640  32.108   9.705   2.820
70573W        W43641  10.729   7.800  13.400
70574W        W43642  39.389  24.947  12.033
70575W        W43643   5.283   5.027  10.677
70576W        W43644  27.185  41.087  14.539
70577W        W43645   0.148   6.789  12.668
70578W        W43646  31.586  15.759  11.499
70579W        W43647  19.153  29.483   4.028
70580W        W43648   7.097  23.893   3.337
70581W        W43649  11.776  38.899   5.007
70582W        W43650  11.220  23.993  11.529
70583W        W43651  42.492  18.498   0.955
70584W        W43652  33.428  22.659  14.797
70585W        W43653  27.658   4.041   2.232
70586W        W43654  18.157  17.008   1.382
70587W        W43655  33.381  43.541   0.369
70588W        W43656  30.151  29.224  13.429
70589W        W43657   1.718  43.399   0.822
70590W        W43658  11.896  28.003  14.029
70591W        W43659  34.591  30.580  12.405
70592W        W43660  42.043  41.805   3.684
70593W        W43661  41.725  33.015  14.764
70594W        W43662  43.938  37.428   1.703
70595W        W43663  18.719   3.370  14.553
70596W        W43664  36.392   3.102   2.325
70597W        W43665  36.122  10.506   1.750
70598W        W43666  24.342   8.384  13.372
70599W        W43667  40.504  10.886  13.598
70600W        W43668  42.214   1.105  14.964
70601W        W43669   5.455  11.763   4.930
70602W        W43670  21.955  43.809  10.261
70603W        W43671  24.171  21.547  11.949
70604W        W43672  25.118  41.261   2.126
70605W        W43673  36.377  15.634  11.042
70606W        W43674   9.665  10.121   2.416
70607W        W43675  43.915  33.336  12.556
70608W        W43676  29.565  43.696  13.848
70609W        W43677   3.834   8.659   4.570
70610W        W43678  28.969   4.250  14.897
70611W        W43679   2.725  13.062  13.076
70612W        W43680  32.841  19.678  14.269
70613W        W43681  17.842  40.135   3.132
70614W        W43682  13.719   6.902  12.097
70615W        W43683   3.160  32.177   0.948
70616W        W43684  19.868  18.911  13.353
70617W        W43685   6.522  27.703  12.021
70618W        W43686  37.591  34.874   1.297
70619W        W43687  29.885  21.053   0.195
70620W        W43688  31.093  38.866   0.336
70621W        W43689  33.424  39.635  12.414
70622W        W43690   7.080  21.251   3.682
70623W        W43691  43.893  42.648  14.386
70624W        W43692  20.032  12.654  14.815
70625W        W43693   1.415  16.797  14.886
70626W        W43694  37.249   9.780   4.059
70627W        W43695  13.637  38.866   1.209
70628W        W43696  38.440  33.943   0.774
70629W        W43697   3.839  26.229   4.782
70630W        W43698  13.270  42.607   1.860
70631W        W43699  38.871  19.858   2.131
70632W        W43700  27.845  16.328  14.268
70633W        W43701  30.973  36.809   2.196
70634W        W43702  42.373  15.640  10.989
70635W        W43703  28.070  24.383  11.656
70636W        W43704  38.806  17.707   0.920
70637W        W43705  22.448  34.034  13.824
70638W        W43706  30.967   0.843   4.524
70639W        W43707  10.312   6.946   0.382
70640W        W43708  18.143  38.832   5.045
70641W        W43709  10.628  24.172   0.503
70642W        W43710  41.713  40.150   4.772
70643W        W43711  34.512  12.110  11.527
70644W        W43712  33.582  20.213  12.581
70645W        W43713  29.532  21.090   4.590
70646W        W43714   5.819  41.281  14.809
70647W        W43715  23.862   6.356  11.495
70648W        W43716  13.040  24.296  12.484
70649W        W43717  36.528  34.245   5.728
70650W        W43718   9.684   0.849   3.215
70651W        W43719  44.582  19.038   1.853
70652W        W43720  17.733  41.672  13.921
70653W        W43721  19.024  38.737   3.263
70654W        W43722  17.513   9.862   4.131
70655W        W43723  31.160   2.010   0.473
70656W        W43724  22.961   9.726  14.007
70657W        W43725   9.362  33.380   0.798
70658W        W43726  16.914  26.138  14.392
70659W        W43727  39.870  36.531  14.089
70660W        W43728   7.589  41.900   2.623
70661W        W43729  13.683  22.518  14.811
70662W        W43730   4.861  10.327  14.908
70663W        W43731  33.714  12.061  13.501
70664W        W43732  34.490   4.868  12.416
70665W        W43733  17.388  38.476  11.895
70666W        W43734  32.314  43.864   1.869
70667W        W43735  19.253  33.370   4.077
70668W        W43736  34.692   9.836   1.895
70669W        W43737   3.380  14.560   2.462
70670W        W43738  35.553  30.158  14.919
70671W        W43739  27.683  21.741   2.483
70672W        W43740  34.990  19.787  12.303
70673W        W43741  41.403  16.998   3.318
70674W        W43742  14.658  43.901   4.195
70675W        W43743  39.227  10.193   2.212
70676W        W43744  32.530  26.741   2.842
70677W        W43745   5.391   4.970  14.950
70678W        W43746  11.386  13.835   2.361
70679W        W43747   2.829  13.759  10.714
70680W        W43748  36.979  29.661  11.010
70681W        W43749   1.497  33.861  14.577
70682W        W43750  20.760   8.347   1.891
70683W        W43751   1.145  33.597  14.308
70684W        W43752  19.197  20.042  10.625
70685W        W43753   4.509  24.216  11.199
70686W        W43754   0.822   2.879   2.589
70687W        W43755   1.242  39.782  13.975
70688W        W43756  36.647   5.896   1.458
70689W        W43757  29.730  25.119   2.653
70690W        W43758  21.158   4.401   1.441
70691W        W43759  10.880  38.288  14.942
70692W        W43760  28.538   4.242  13.933
70693W        W43761  19.605  32.150  14.501
70694W        W43762  39.958  43.568   0.738
70695W        W43763  20.003  23.109   0.954
70696W        W43764  32.247  32.933  12.105
70697W        W43765  36.751  35.968  14.630
70698W        W43766  37.093  24.604  14.991
70699W        W43767  26.159   5.826  12.866
70700W        W43768   9.762  35.235   0.331
70701W        W43769  29.363  40.894  12.137
70702W        W43770  19.172  43.605  12.948
70703W        W43771  38.105  40.988   1.390
70704W        W43772  31.033   1.811   3.878
70705W        W43773  12.506   8.352   1.963
70706W        W43774  39.845  32.081   3.120
70707W        W43775  24.210  16.963   4.185
70708W        W43776  30.380   4.256  10.847
70709W        W43777  11.323   6.111   2.812
70710W        W43778   4.487  41.925   3.476
70711W        W43779  26.625  27.915  11.669
70712W        W43780  33.741  23.713   4.162
70713W        W43781  44.061  11.848   4.814
70714W        W43782  43.775  11.163   4.090
70715W        W43783  18.652   8.490   4.739
70716W        W43784  16.792  33.659  11.000
70717W        W43785  44.318  39.076  12.899
70718W        W43786  30.977   9.739   3.579
70719W        W43787  34.873  33.535   3.729
70720W        W43788  36.007  41.788   4.669
70721W        W43789  18.937   9.785  10.942
70722W        W43790  10.913   5.352   1.456
70723W        W43791  10.442  24.675   2.368
70724W        W43792  26.151  36.144  13.454
70725W        W43793  12.733  32.425  11.871
70726W        W43794   6.305  41.005   2.314
70727W        W43795  24.442  38.327  12.367
70728W        W43796  42.389  33.090   0.294
70729W        W43797   4.970   2.694  12.563
70730W        W43798  17.198  36.884   4.425
70731W        W43799   0.373  38.865   4.583
70732W        W43800   3.908   4.038  11.565
70733W        W43801   0.804  13.636   2.339
70734W        W43802  44.291  33.812  10.502
70735W        W43803  24.734   3.694  13.705
70736W        W43804  39.440  30.708   4.091
70737W        W43805  16.724  39.562   1.009
70738W        W43806  18.758  26.615  14.382
70739W        W43807  36.518  22.827  11.282
70740W        W43808   4.401  12.857   1.272
70741W        W43809   1.581   1.111   3.677
70742W        W43810  40.625  29.608  13.509
70743W        W43811  37.856  42.315   2.464
70744W        W43812  21.609  13.403   3.927
70745W        W43813  34.733  16.850  14.832
70746W        W43814  17.625  25.438   1.306
70747W        W43815  41.783  25.135   3.225
70748W        W43816  22.789  14.248  12.164
70749W        W43817  18.772  32.144   4.115
70750W        W43818   5.577  42.727  11.224
70751W        W43819  44.871  35.582   4.125
70752W        W43820  23.446  18.138  12.950
70753W        W43821   4.170  24.603  11.111
70754W        W43822  10.163  40.566   4.178
70755W        W43823  24.050  44.708  10.308
70756W        W43824  11.070  19.229   2.380
70757W        W43825  43.276  39.336   0.957
70758W        W43826  32.972  20.063  11.568
70759W        W43827  16.641  15.602   2.539
70760W        W43828  24.020  21.781   4.563
70761W        W43829   1.742  20.643   2.724
70762W        W43830  39.024  38.425  11.585
70763W        W43831  19.055   5.717  12.427
70764W        W43832  29.428  39.401  11.921
70765W        W43833  44.812  30.368   4.490
70766W        W43834  41.286  12.461   2.564
70767W        W43835  41.940  41.083  12.520
70768W        W43836  28.632  30.016   0.333
70769W        W43837   2.414  23.198   2.382
70770W        W43838  13.917   4.304   1.521
70771W        W43839  35.173  37.143  12.699
70772W        W43840  20.779  13.976   3.657
70773W        W43841   6.368  32.386  13.943
70774W        W43842   5.386  12.853  14.550
70775W        W43843  20.824  12.310  13.608
70776W        W43844   3.501   1.037   0.451
70777W        W43845  36.874  27.533   0.445
70778W        W43846  41.757  19.721  11.098
70779W        W43847  18.203   3.385   4.599
70780W        W43848   1.845  11.191   3.378
70781W        W43849  30.375  26.823   4.550
70782W        W43850   9.418  26.723   2.782
70783W        W43851  12.747  43.458  13.571
70784W        W43852  26.198  18.136   2.747
70785W        W43853  18.173   8.776  13.136
70786W        W43854  15.676  10.916  11.085
70787W        W43855  15.447  35.953   4.323
70788W        W43856  14.561  14.374  14.419
70789W        W43857  19.193  24.054   4.383
70790W        W43858   0.276  17.535  12.579
70791W        W43859   3.737   4.653  12.019
70792W        W43860  39.397  16.021  14.367
70793W        W43861  33.859  43.747   0.392
70794W        W43862  40.033  26.409   2.821
70795W        W43863  30.017  34.893  11.199
70796W        W43864  23.456  41.915  14.064
70797W        W43865  18.601   4.986  12.887
70798W        W43866   6.909  23.732   4.192
70799W        W43867   9.108  33.557  13.993
70800W        W43868  18.509   4.268  13.325
70801W        W43869  17.091  21.072   3.236
70802W        W43870  40.965  29.902  10.794
70803W        W43871  27.880   4.684  13.001
70804W        W43872   5.377  17.266   2.751
70805W        W43873   5.757  24.125  10.765
70806W        W43874  41.447  31.379   0.889
70807W        W43875  23.215   9.403  13.138
70808W        W43876  31.501  20.898  10.327
70809W        W43877  23.132  36.324  11.655
70810W        W43878  12.141  23.504   2.853
70811W        W43879  32.089  33.249   5.186
70812W        W43880  23.153   2.590   4.480
70813W        W43881  17.031  37.637  12.528
70814W        W43882  16.705  17.534   1.240
70815W        W43883  24.140  27.445  13.427
70816W        W43884   8.862  27.353   3.192
70817W        W43885  22.342  21.912  14.915
70818W        W43886  32.637  16.363   1.183
70819W        W43887   8.419  43.271  14.255
70820W        W43888  29.523  36.098   3.269
70821W        W43889  44.128  37.253   3.682
70822W        W43890  15.165   2.101  11.008
70823W        W43891  34.510  38.909  10.658
70824W        W43892  31.074   0.495  11.133
70825W        W43893  37.485   9.867   5.014
70826W        W43894  43.964  11.371  14.060
70827W        W43895  25.654   5.812  14.878
70828W        W43896  10.352   6.273  13.913
70829W        W43897  23.685  21.454   4.983
70830W        W43898  32.119  12.560  11.488
70831W        W43899  10.297  18.746   3.258
70832W        W43900  37.192  32.544  13.413
70833W        W43901  25.737   7.724  14.818
70834W        W43902  37.851  43.368   2.383
70835W        W43903   3.968  10.525   0.966
70836W        W43904  19.475  37.549  12.672
70837W        W43905   4.798   3.854  11.189
70838W        W43906  39.490  18.298   4.607
70839W        W43907  41.880   1.718   4.446
70840W        W43908  29.701  10.373   2.392
70841W        W43909  15.491  26.184  13.459
70842W        W43910  10.773   9.169  12.821
70843W        W43911  28.628  24.638   2.746
70844W        W43912  15.530  26.908  12.001
70845W        W43913  11.668   1.538  11.510
70846W        W43914  30.427  33.646  13.786
70847W        W43915  22.201   4.681   0.494
70848W        W43916   9.609  25.052  13.393
70849W        W43917  42.379   4.658  11.802
70850W        W43918  36.249   3.124   0.570
70851W        W43919   3.456  40.435  10.924
70852W        W43920  23.729   0.412  13.907
70853W        W43921   2.366   2.451  13.515
70854W        W43922  33.216   7.717   4.826
70855W        W43923  23.743   4.855  12.114
70856W        W43924  31.330  30.154   2.615
70857W        W43925  22.958  21.748  11.647
70858W        W43926  38.505  20.262  13.046
70859W        W43927   3.216  15.021   4.714
70860W        W43928  35.618  33.352   4.114
70861W        W43929  31.277  33.631   3.655
70862W        W43930   5.072   3.671  12.582
70863W        W43931  27.002  14.040   1.942
70864W        W43932   2.497   1.061  14.910
70865W        W43933  37.626  24.975  11.546
70866W        W43934  35.462   9.300   3.392
70867W        W43935   1.922  33.852   3.728
70868W        W43936  11.173   2.399   0.183
70869W        W43937   6.841  10.650  14.882
70870W        W43938  18.183  42.538   0.021
70871W        W43939  38.053   8.332   5.454
70872W        W43940   1.183  33.394   1.877
70873W        W43941   6.796  37.652   3.787
70874W        W43942  18.059   2.879   3.837
70875W        W43943  42.751  43.988   3.643
70876W        W43944  31.141  10.582   4.508
70877W        W43945   6.346  13.819  10.738
70878W        W43946   1.771  15.281  13.363
70879W        W43947  23.901  40.398   0.791
70880W        W43948   8.977  44.455   5.096
70881W        W43949   0.810  29.132   4.116
70882W        W43950   6.434  35.564   1.283
70883W        W43951  20.526  41.965   3.164
70884W        W43952  44.398   0.378   3.178
70885W        W43953  42.333  10.827  12.582
70886W        W43954  41.720  31.937  11.718
70887W        W43955   9.558  29.122  10.666
70888W        W43956  27.953  11.458   0.851
70889W        W43957  11.039  19.118  14.406
70890W        W43958   6.380   1.414  12.908
70891W        W43959  29.539  19.073   4.606
70892W        W43960   0.830  26.687   1.724
70893W        W43961  22.902  37.431   2.068
70894W        W43962  41.099  16.580   3.378
70895W        W43963   3.872  44.819   3.115
70896W        W43964   9.096  29.372  13.830
70897W        W43965   0.908  29.072  14.358
70898W        W43966  40.457  36.399   1.010
70899W        W43967  39.234  37.025   1.829
70900W        W43968   9.360  28.926   0.936
70901W        W43969  31.466  32.720  12.777
70902W        W43970  32.011  17.739   4.583
70903W        W43971   4.667   0.410  14.221
70904W        W43972  23.731  38.220   4.408
70905W        W43973  26.545  19.548  14.482
70906W        W43974   2.246   5.772   1.364
70907W        W43975  28.454  16.211   1.463
70908W        W43976  23.075   6.426   2.372
70909W        W43977  43.466  10.046  13.431
70910W        W43978  21.752  12.609  10.447
70911W        W43979  18.598  17.302   1.374
70912W        W43980  11.787  30.028  10.575
70913W        W43981  27.498  18.899   1.626
70914W        W43982  28.162  17.051  14.829
70915W        W43983  26.326  20.316  11.765
70916W        W43984  10.110   3.875   2.355
70917W        W43985  24.931  16.782   0.341
70918W        W43986  13.709  33.168   1.313
70919W        W43987  40.912  34.259  13.575
70920W        W43988   8.615  21.007   1.698
70921W        W43989   4.184  32.438  11.710
70922W        W43990  34.568   8.123  14.940
70923W        W43991  41.815  18.757   3.630
70924W        W43992  31.780  12.079   3.191
70925W        W43993  30.885  23.929  14.470
70926W        W43994   3.943  15.241   5.016
70927W        W43995   6.169  16.293  14.939
70928W        W43996  22.537  10.197  14.895
70929W        W43997  29.234  20.782   4.257
70930W        W43998  30.091   6.618  13.383
70931W        W43999  25.735   9.744   4.108
70932W        W44000   0.943  39.082  11.226
70933W        W44001   6.392  25.167   0.828
70934W        W44002  22.724  19.722   2.470
70935W        W44003  10.749  43.055   5.038
70936W        W44004  38.353   4.258   3.264
70937W        W44005  43.889  43.087  14.082
70938W        W44006  25.939  35.666   5.352
70939W        W44007   0.853  29.047  13.282
70940W        W44008   5.845  40.941   2.554
70941W        W44009   1.557  22.725   3.547
70942W        W44010  34.237  43.788   3.281
70943W        W44011  11.782  25.528  11.162
70944W        W44012  40.761  38.044  12.081
70945W        W44013  41.346  26.151   0.222
70946W        W44014  35.422  14.599  14.347
70947W        W44015  27.665  12.179  10.643
70948W        W44016  12.150   4.707   0.813
70949W        W44017  33.249  17.186  11.371
70950W        W44018   9.813  32.177   4.938
70951W        W44019  39.150  26.635   4.162
70952W        W44020  10.209  17.712  11.548
70953W        W44021  32.158  41.940   0.967
70954W        W44022  35.889  35.295   2.858
70955W        W44023  14.629  16.805  14.482
70956W        W44024   3.638   7.134  13.072
70957W        W44025  40.536  11.438   0.055
70958W        W44026  38.409   9.831   0.813
70959W        W44027  20.058  26.466   4.160
70960W        W44028  20.602  38.942  12.299
70961W        W44029   0.133   8.944  11.376
70962W        W44030   3.567   1.388   4.046
70963W        W44031  35.380  17.196  12.008
70964W        W44032  24.858  39.566  13.518
70965W        W44033  21.836  32.372   0.257
70966W        W44034  37.280   7.745  14.372
70967W        W44035  12.087   3.832  14.050
70968W        W44036   5.171   1.811   3.651
70969W        W44037   7.713  34.008   0.375
70970W        W44038  21.766   4.903   0.701
70971W        W44039   7.376  22.901   4.878
70972W        W44040   0.751  24.169   4.505
70973W        W44041   8.864  33.540   0.752
70974W        W44042  19.623   6.593   0.844
70975W        W44043  35.942  21.530  14.605
70976W        W44044  33.541  19.301  10.713
70977W        W44045   0.983  20.462  14.855
70978W        W44046  16.593   4.415   2.304
70979W        W44047  23.496  12.654  14.254
70980W        W44048   2.413  25.875   3.729
70981W        W44049   7.868  29.918   0.463
70982W        W44050   7.055   5.216   1.663
70983W        W44051  17.705  36.854  11.019
70984W        W44052  18.188  32.385  14.324
70985W        W44053   2.214  20.933  10.482
70986W        W44054  35.774   4.895  12.893
70987W        W44055  38.421  15.158  14.892
70988W        W44056  42.078  10.241   3.611
70989W        W44057  24.635   9.515  13.574
70990W        W44058  12.147   1.716  14.484
70991W        W44059  29.849  20.584  12.103
70992W        W44060   0.532  29.940   3.806
70993W        W44061  14.352  37.735  11.070
70994W        W44062  10.685   9.919  14.750
70995W        W44063  41.944  10.688   3.819
70996W        W44064  39.251  43.945  10.955
70997W        W44065  24.175  27.996  14.956
70998W        W44066  40.707   0.776   2.207
70999W        W44067  41.061   2.528   2.173
71000W        W44068   6.266  13.144  14.692
71001W        W44069  19.849  29.718   3.128
71002W        W44070   6.853   4.144   1.656
71003W        W44071  28.901  32.332   0.869
71004W        W44072  22.195  36.517  14.769
71005W        W44073  44.907  24.671  14.352
71006W        W44074  38.068  41.504   1.338
71007W        W44075  35.445   9.475   0.361
71008W        W44076   5.914  32.807  11.550
71009W        W44077  23.667  43.335   2.671
71010W        W44078  40.012  33.390  12.847
71011W        W44079   8.193   4.783  12.043
71012W        W44080  24.973  16.765   4.746
71013W        W44081  38.445  23.964   2.017
71014W        W44082   4.126  41.798  11.809
71015W        W44083   2.999   1.155   0.360
71016W        W44084  32.820  13.143   3.915
71017W        W44085  13.185  21.206   0.974
71018W        W44086  25.703  33.449   3.123
71019W        W44087  41.732  38.869  13.987
71020W        W44088  26.123  40.112  14.841
71021W        W44089  36.121  41.733  14.445
71022W        W44090  10.398   6.468   1.715
71023W        W44091  31.305  13.837  12.118
71024W        W44092  42.511  29.124   0.632
71025W        W44093  37.653  18.124   2.563
71026W        W44094   6.669  36.301   2.772
71027W        W44095  31.488   9.676  13.880
71028W        W44096  28.983   9.787   1.562
71029W        W44097  25.007  25.399   2.379
71030W        W44098  43.456  38.885   3.336
71031W        W44099  34.054  31.383   4.149
71032W        W44100   3.505  13.090  10.849
71033W        W44101  10.212   6.015  10.029
71034W        W44102  40.989   1.394  14.377
71035W        W44103  36.448  33.943   2.793
71036W        W44104  26.494  35.856   0.500
71037W        W44105  22.497  44.384   1.016
71038W        W44106  15.982  44.571   3.335
71039W        W44107  28.725  42.947  10.351
71040W        W44108  37.908  44.499   4.247
71041W        W44109  44.738  13.631   1.262
71042W        W44110   6.851  22.065   4.508
71043W        W44111  19.754   2.332   3.788
71044W        W44112   1.046   5.680  13.486
71045W        W44113  16.768  41.935  12.083
71046W        W44114  18.550  24.340  11.684
71047W        W44115   2.877  35.634   1.351
71048W        W44116   4.418  12.861  10.467
71049W        W44117  29.708  38.437  12.663
71050W        W44118  21.446  31.978   2.145
71051W        W44119   3.690   5.975   3.173
71052W        W44120  25.617  29.110   4.210
71053W        W44121  22.487   7.843   1.756
71054W        W44122  21.481  35.309  13.591
71055W        W44123  19.012  22.192   2.330
71056W        W44124  32.573  33.658  13.116
71057W        W44125  37.473   2.388  14.662
71058W        W44126  39.354  22.712  11.024
71059W        W44127  15.295  44.279  10.621
71060W        W44128   7.039   2.874  12.334
71061W        W44129  41.577   4.500   4.577
71062W        W44130   6.879  14.676   4.217
71063W        W44131   5.630  12.102   2.194
71064W        W44132  14.103  25.438  11.609
71065W        W44133   3.308  26.688   0.927
71066W        W44134  34.800   3.966   2.805
71067W        W44135  15.116  38.343  10.577
71068W        W44136   1.328  23.316   0.247
71069W        W44137  41.289   7.729   3.092
71070W        W44138   4.187   1.286   3.594
71071W        W44139   5.087  26.709  14.205
71072W        W44140  22.209   4.781  13.933
71073W        W44141  22.777  44.375  11.521
71074W        W44142  10.271  30.188  13.274
71075W        W44143  38.285   2.477  11.898
71076W        W44144  10.620  37.203   1.745
71077W        W44145  39.107  41.207  10.669
71078W        W44146  32.033  26.223  11.607
71079W        W44147  32.122  21.639  13.732
71080W        W44148  25.958  20.350  14.749
71081W        W44149  30.930   2.470   3.636
71082W        W44150   0.974  11.947   0.796
71083W        W44151  30.612  44.333   4.654
71084W        W44152  41.438  40.924  13.434
71085W        W44153  31.078  12.780   5.026
71086W        W44154   4.510  22.259  13.027
71087W        W44155  34.091  16.310   2.230
71088W        W44156   1.954  28.561  11.086
71089W        W44157  19.043  20.052  11.590
71090W        W44158  40.289  37.516  12.515
71091W        W44159  37.930  20.533  14.841
71092W        W44160  40.805  19.349  13.502
71093W        W44161  24.439  33.008   4.662
71094W        W44162  12.816  33.046  10.645
71095W        W44163  39.994  12.936  12.028
71096W        W44164  40.921  17.161  11.582
71097W        W44165  24.509   3.370   0.937
71098W        W44166   0.017  37.058  12.133
71099W        W44167  20.459   2.091   1.272
71100W        W44168  11.649  37.538   0.764
71101W        W44169  24.660   0.824  13.603
71102W        W44170  34.521  24.810   4.173
71103W        W44171   3.960  13.149  11.182
71104W        W44172  42.717  39.359  12.513
71105W        W44173  40.100  36.457   1.416
71106W        W44174   8.794  38.878   2.157
71107W        W44175  19.441  13.935  13.893
71108W        W44176   5.785   4.937  13.353
71109W        W44177   6.257  30.021   2.294
71110W        W44178  33.604  17.712  12.369
71111W        W44179   1.385  29.495   0.745
71112W        W44180  15.147   0.261  12.572
71113W        W44181  14.236  29.421  12.948
71114W        W44182  25.940   3.274   1.395
71115W        W44183   9.541  13.859   2.187
71116W        W44184  22.188  25.939  12.446
71117W        W44185  22.205  22.496   1.880
71118W        W44186   6.194   6.648  10.551
71119W        W44187   2.889  32.541   1.195
71120W        W44188  18.639  41.977  13.507
71121W        W44189  20.281  37.418  11.780
71122W        W44190  33.622  11.849  13.970
71123W        W44191  36.973  44.227   0.239
71124W        W44192  33.288  16.680  14.931
71125W        W44193  30.552  32.442  11.207
71126W        W44194   1.721  37.973   0.722
71127W        W44195  26.916  32.835   4.395
71128W        W44196  26.439  42.574   3.704
71129W        W44197  26.959  13.054  11.349
71130W        W44198   0.818  14.560   3.357
71131W        W44199  38.107  23.249   0.477
71132W        W44200  40.188  13.313   1.220
71133W        W44201   0.561   4.770  10.300
71134W        W44202  29.079  16.369  11.102
71135W        W44203  41.840  41.596   1.272
71136W        W44204  33.346   2.187  13.094
71137W        W44205   4.834  21.100   1.356
71138W        W44206  23.553  18.188   4.785
71139W        W44207   3.415  23.743  10.557
71140W        W44208  12.007  19.617   1.685
71141W        W44209  42.437  41.336  12.520
71142W        W44210   1.782   6.093   4.953
71143W        W44211   7.126   5.348   3.660
71144W        W44212  22.187  27.411  11.211
71145W        W44213  35.643   2.152  11.663
71146W        W44214  11.649  26.595  11.170
71147W        W44215  15.407  17.979   1.860
71148W        W44216   4.361  37.050  12.934
71149W        W44217  23.280   6.142  13.649
71150W        W44218   5.481   9.133   3.213
71151W        W44219  24.168  38.355   1.835
71152W        W44220  26.724  19.607   0.828
71153W        W44221  16.065  15.076   3.789
71154W        W44222  15.053  31.545   3.165
71155W        W44223  14.745  41.422  14.283
71156W        W44224  37.579  30.252   2.699
71157W        W44225   5.241  13.300   2.144
71158W        W44226   2.049  33.572   4.153
71159W        W44227  18.626  15.607   3.151
71160W        W44228  34.081  33.547   4.252
71161W        W44229  26.395   2.573   1.407
71162W        W44230   0.500   5.431   2.332
71163W        W44231   3.423  40.508  14.675
71164W        W44232  41.527  28.117  14.425
71165W        W44233  40.474  32.565   2.418
71166W        W44234  42.857  42.444  11.965
71167W        W44235   5.929  34.389   4.666
71168W        W44236  38.911   1.299   5.258
71169W        W44237   8.697  35.930  11.590
71170W        W44238   6.753  21.318   2.467
71171W        W44239   3.960   8.753  12.574
71172W        W44240  14.333  25.573  11.181
71173W        W44241  33.134  17.245  14.420
71174W        W44242   4.104  41.634  12.568
71175W        W44243   4.474  23.353   0.554
71176W        W44244  27.451   5.288  14.950
71177W        W44245   5.179  16.038   0.856
71178W        W44246  25.020  26.518   3.662
71179W        W44247  21.806  23.149   2.019
71180W        W44248  27.550  39.596   0.975
71181W        W44249  35.273  35.797   4.223
71182W        W44250  34.904  17.006  11.946
71183W        W44251  39.809  29.113  11.914
71184W        W44252  32.582  27.695  10.277
71185W        W44253  38.530  25.413   4.654
71186W        W44254  33.079   2.727  13.444
71187W        W44255  29.666  42.650  13.380
71188W        W44256   3.137  14.798  13.569
71189W        W44257  15.631  37.842   3.213
71190W        W44258  21.636  40.118  12.516
71191W        W44259  28.055  23.242  13.356
71192W        W44260  37.873  31.409  11.169
71193W        W44261  21.977  32.584  11.714
71194W        W44262  10.661  31.506  14.757
71195W        W44263  31.697   3.889   4.664
71196W        W44264  28.095  44.165  10.765
71197W        W44265  41.448  35.773   0.308
71198W        W44266  32.009  15.288   1.755
71199W        W44267   7.754  26.759   0.967
71200W        W44268  44.886   4.681   4.187
71201W        W44269   4.851  12.558   3.639
71202W        W44270  20.109  17.196  11.167
71203W        W44271  22.653  37.081   2.422
71204W        W44272  42.263  23.755  11.621
71205W        W44273  42.523  42.019   3.695
71206W        W44274  44.580  33.629  13.886
71207W        W44275  26.630  28.267  13.641
71208W        W44276   3.689  33.150   3.944
71209W        W44277  34.593  16.007  12.604
71210W        W44278  16.042  42.358  11.141
71211W        W44279   6.875  43.809  13.520
71212W        W44280  28.970  28.039  13.178
71213W        W44281  42.260  27.599   4.091
71214W        W44282   1.296   4.073   3.247
71215W        W44283  12.647   7.708   0.716
71216W        W44284   4.899   5.283   3.845
71217W        W44285  38.833  34.510   1.224
71218W        W44286  25.140  30.676   3.740
71219W        W44287  32.077  16.736   0.858
71220W        W44288  23.241  14.520  12.042
71221W        W44289  11.353   0.417   1.494
71222W        W44290  15.751   2.696  10.687
71223W        W44291  42.675  19.260   0.557
71224W        W44292  44.570  23.146   1.752
71225W        W44293  31.045   6.392  13.893
71226W        W44294  36.096  18.101   0.724
71227W        W44295  32.638  17.290  14.578
71228W        W44296  40.526  23.252  11.980
71229W        W44297  33.425  37.870  13.190
71230W        W44298   6.944   7.383  11.970
71231W        W44299  23.064  33.546   4.573
71232W        W44300  37.742  16.147  13.632
71233W        W44301   7.950  43.072   2.363
71234W        W44302  12.166  17.140  10.433
71235W        W44303  38.989   7.990   0.710
71236W        W44304  41.035  14.157   2.769
71237W        W44305  37.341  36.234  10.969
71238W        W44306  11.086  16.214  13.187
71239W        W44307   5.014  29.041  14.045
71240W        W44308   1.110  42.889   0.464
71241W        W44309  10.548   0.299  11.266
71242W        W44310  11.640  36.026   0.880
71243W        W44311  18.203  33.703  12.685
71244W        W44312  25.408  18.155   4.657
71245W        W44313  27.468  42.867  12.463
71246W        W44314  31.088  26.423  13.523
71247W        W44315  41.320  13.583   4.624
71248W        W44316  15.859  25.715   3.099
71249W        W44317  10.778   9.244  13.346
71250W        W44318   3.280  29.515  14.424
71251W        W44319   9.112  41.563  13.873
71252W        W44320  22.361   8.354   3.807
71253W        W44321  33.661  16.640  13.946
71254W        W44322   9.186  13.527   2.781
71255W        W44323   5.166  10.422  12.560
71256W        W44324  35.955  11.563   2.292
71257W        W44325  42.099  44.341  13.602
71258W        W44326  38.981  35.538  14.732
71259W        W44327  21.303   6.671   2.299
71260W        W44328  28.853  25.974   2.336
71261W        W44329  42.313  24.217  12.914
71262W        W44330   4.224  28.196   4.198
71263W        W44331  28.073   1.045   0.925
71264W        W44332  12.905  13.039  13.521
71265W        W44333  19.484  19.296   1.182
71266W        W44334  36.609   5.850   0.951
71267W        W44335  28.545  19.649   4.059
71268W        W44336   9.293  31.444  12.914
71269W        W44337  27.544  17.787  10.399
71270W        W44338  33.820  33.999   3.169
71271W        W44339  36.846   7.890  10.675
71272W        W44340   4.880   7.667   3.742
71273W        W44341  22.528  25.944   0.652
71274W        W44342  33.710  42.318   3.104
71275W        W44343  35.463  39.748  12.949
71276W        W44344  33.916  15.579  12.874
71277W        W44345  31.421   3.692  12.372
71278W        W44346  38.095   5.405   4.668
71279W        W44347  11.077   3.277  11.944
71280W        W44348  14.752  38.976   0.216
71281W        W44349  37.385   7.400  13.223
71282W        W44350  37.534  15.846   3.227
71283W        W44351  27.892  12.222  13.844
71284W        W44352  40.381  33.684   2.865
71285W        W44353   2.712  44.423   0.805
71286W        W44354  16.017  43.833  11.629
71287W        W44355  13.088  36.403   3.164
71288W        W44356  15.532  38.130  10.817
71289W        W44357   7.398  39.805   4.998
71290W        W44358  41.964   1.485  10.767
71291W        W44359  36.580  12.201  10.923
71292W        W44360  34.535  14.397  14.238
71293W        W44361  27.739  30.442  11.153
71294W        W44362  21.485   3.487  12.986
71295W        W44363  41.369   8.787  13.210
71296W        W44364  37.869  10.378   4.193
71297W        W44365   9.260  31.418  14.613
71298W        W44366   1.369  12.799  10.511
71299W        W44367  31.188  11.798  10.776
71300W        W44368  16.545  20.097   3.647
71301W        W44369   3.468  15.482   4.882
71302W        W44370  42.983  41.993   1.812
71303W        W44371  37.377  26.675   4.575
71304W        W44372  18.594  25.668   2.127
71305W        W44373  32.846  19.428  11.177
71306W        W44374  25.680  30.386   2.717
71307W        W44375  28.835   8.339   1.170
71308W        W44376  43.887  33.110  10.574
71309W        W44377   4.181  30.142   4.331
71310W        W44378  22.665  40.760  12.017
71311W        W44379   3.372   8.862   2.934
71312W        W44380  16.004  28.325  12.066
71313W        W44381  39.380  33.868   4.266
71314W        W44382  13.326  35.053  12.825
71315W        W44383  30.344  28.033   1.643
71316W        W44384  35.906  30.933  11.975
71317W        W44385  16.338  21.449   1.790
71318W        W44386  29.397  40.278   3.038
71319W        W44387  17.088   8.851  11.078
71320W        W44388  38.545  11.868  12.329
71321W        W44389  28.133  43.580  11.625
71322W        W44390  44.628  42.350   2.128
71323W        W44391  37.372  19.172   2.292
71324W        W44392  26.978  27.947  12.871
71325W        W44393  17.143  40.416   3.705
71326W        W44394  17.532   5.772  11.411
71327W        W44395  43.331  32.712   4.241
71328W        W44396  37.094  32.052   2.841
71329W        W44397  44.963  15.690   4.119
71330W        W44398  30.221  29.745  13.502
71331W        W44399  36.802  16.711   0.205
71332W        W44400   5.819  36.813  14.938
71333W        W44401  27.965   1.683  12.978
71334W        W44402  30.460  18.673  12.839
71335W        W44403  32.752  32.961  12.211
71336W        W44404  19.806  37.507  14.862
71337W        W44405  13.811  24.249  13.402
71338W        W44406  23.630  15.861   1.396
71339W        W44407  37.767  38.032  11.658
71340W        W44408  36.652  22.311   3.850
71341W        W44409  17.051  11.830   3.636
71342W        W44410  15.120  15.358  13.327
71343W        W44411  26.442  18.584   4.942
71344W        W44412   0.843  12.566   4.620
71345W        W44413  18.005   9.833  10.963
71346W        W44414  20.723  10.095  11.979
71347W        W44415  36.619  14.554   2.783
71348W        W44416  27.708  12.345  10.115
71349W        W44417  36.885  24.256   2.762
71350W        W44418  35.523  22.332   3.027
71351W        W44419  13.199  10.900  10.701
71352W        W44420  40.115  38.000  14.818
71353W        W44421  28.062  26.104  12.627
71354W        W44422  13.894   4.974  13.912
71355W        W44423  20.901  24.721  11.397
71356W        W44424  20.638   0.679   4.127
71357W        W44425  19.187  14.845   3.315
71358W        W44426  22.703   6.746   2.482
71359W        W44427  20.307  27.064   3.688
71360W        W44428  18.537  42.018   3.612
71361W        W44429  31.245  22.300   0.750
71362W        W44430  40.699  34.473   2.885
71363W        W44431  15.648   9.121  11.374
71364W        W44432   2.805  34.851  13.609
71365W        W44433  35.836  26.381   4.545
71366W        W44434  41.513  12.830  11.716
71367W        W44435  32.093  12.348  12.573
71368W        W44436   8.331  32.124  11.559
71369W        W44437  23.222   3.495  10.953
71370W        W44438  33.546  40.536   3.780
71371W        W44439   6.604   1.867  13.767
71372W        W44440   6.330  10.804  11.138
71373W        W44441  41.868  23.183   4.669
71374W        W44442  29.616  20.291  12.922
71375W        W44443  33.961  33.118  13.912
71376W        W44444  41.901   7.207  13.924
71377W        W44445   9.917  34.585  10.452
71378W        W44446  14.374  36.461  12.334
71379W        W44447  35.859  15.033  11.584
71380W        W44448  10.713  20.878  12.940
71381W        W44449  37.077  18.366   0.718
71382W        W44450  41.442  12.892   2.332
71383W        W44451  14.375  24.195   3.339
71384W        W44452  23.593  15.395  10.505
71385W        W44453   7.295  16.313   1.896
71386W        W44454  16.684  24.140  14.362
71387W        W44455  18.038  20.215  13.112
71388W        W44456  24.939  12.249   3.587
71389W        W44457  25.030  33.536   2.788
71390W        W44458  19.744  42.811  13.044
71391W        W44459   3.300  26.194   3.239
71392W        W44460  13.002   3.342  14.389
71393W        W44461  35.077  21.228   4.196
71394W        W44462   6.831   7.235  14.061
71395W        W44463   3.464  33.710   0.718
71396W        W44464  19.091  17.043  10.650
71397W        W44465  16.796   9.225  13.600
71398W        W44466   7.234  32.419  11.631
71399W        W44467  37.221  22.171  12.261
71400W        W44468   8.841  21.232   1.273
71401W        W44469  24.434  32.998   2.784
71402W        W44470  44.414   7.933   4.161
71403W        W44471  23.694  25.648   4.406
71404W        W44472   3.755  26.730  12.607
71405W        W44473  15.764   3.514   1.012
71406W        W44474   6.599  26.440  10.745
71407W        W44475  44.257  17.309  12.045
71408W        W44476   3.353   5.638   1.420
71409W        W44477  42.863   1.372   0.708
71410W        W44478  30.710  29.952   4.604
71411W        W44479  40.447   9.427  11.899
71412W        W44480   8.265   2.559   4.148
71413W        W44481  14.169   1.940   3.435
71414W        W44482   2.865  29.558   2.965
71415W        W44483  30.462  34.833  12.491
71416W        W44484  27.264  34.097  12.799
71417W        W44485  28.558  36.884  12.629
71418W        W44486  34.455   8.835   2.723
71419W        W44487  34.889  18.776  13.368
71420W        W44488  24.147  19.576  14.699
71421W        W44489  33.979  34.571  10.408
71422W        W44490  22.241   5.738  12.937
71423W        W44491  26.200  15.617   0.061
71424W        W44492  38.610  33.349   2.646
71425W        W44493   0.175  37.829   4.595
71426W        W44494  34.627   1.543  14.289
71427W        W44495  30.221  35.636   2.682
71428W        W44496  35.270  26.961  14.972
71429W        W44497  44.386  30.552  13.449
71430W        W44498  13.270  24.255   2.845
71431W        W44499  40.086  33.359   1.288
71432W        W44500  33.109  10.259  14.195
71433W        W44501  25.365   6.406  14.691
71434W        W44502  28.655  39.768  13.564
71435W        W44503  15.393  28.598  12.390
71436W        W44504  10.615  15.721  10.237
71437W        W44505  10.685  38.642  10.667
71438W        W44506  28.889  36.518   1.277
71439W        W44507  32.089  40.022  14.003
71440W        W44508  18.668   1.552   3.572
71441W        W44509  43.092   4.216   4.711
71442W        W44510   4.207   7.657   1.286
71443W        W44511  21.281  37.528  12.989
71444W        W44512  44.995  38.340  13.515
71445W        W44513  39.918  20.540  12.593
71446W        W44514  25.059  12.090   1.653
71447W        W44515  26.849   9.691   4.945
71448W        W44516  12.897  29.448  10.662
71449W        W44517  42.545   5.370  13.533
71450W        W44518  10.411  14.728   0.306
71451W        W44519  25.651  15.643  13.878
71452W        W44520   8.753  39.282   0.433
71453W        W44521  19.982   7.260   1.418
71454W        W44522   0.890  27.315   4.269
71455W        W44523  10.675  15.541  11.610
71456W        W44524  15.594  24.137  13.134
71457W        W44525  26.068  11.619  13.739
71458W        W44526  12.661  32.998   2.886
71459W        W44527   5.375  32.576  13.400
71460W        W44528  18.565  17.449  12.037
71461W        W44529  11.918  39.757  11.591
71462W        W44530  27.362  25.598   3.232
71463W        W44531  19.994  17.817   3.708
71464W        W44532  38.080  31.063   2.256
71465W        W44533  34.862  13.111  11.199
71466W        W44534  39.975   9.201   5.021
71467W        W44535   6.455  20.322  11.085
71468W        W44536  39.965   0.364   3.263
71469W        W44537  13.395  40.296  14.198
71470W        W44538  39.107  33.856  10.737
71471W        W44539  33.998   4.734  10.203
71472W        W44540  37.424  44.266   4.148
71473W        W44541  18.133  40.031  14.531
71474W        W44542  38.470  29.055   1.494
71475W        W44543   1.201  10.136  12.534
71476W        W44544  42.384  13.934  11.417
71477W        W44545  11.782  23.062   2.141
71478W        W44546  10.216  24.220   1.782
71479W        W44547  27.383   1.284   4.636
71480W        W44548   0.217  32.607  11.717
71481W        W44549  23.190  37.959  11.770
71482W        W44550   3.920  17.242  11.600
71483W        W44551  36.461  16.103   4.483
71484W        W44552  41.371  29.763   3.506
71485W        W44553  36.994  19.320  14.540
71486W        W44554   3.865  22.828   4.332
71487W        W44555  14.389   0.480  12.083
71488W        W44556  13.281  26.563  13.209
71489W        W44557   1.409  33.040  12.457
71490W        W44558  12.788  13.148  12.568
71491W        W44559   6.434  12.876   2.790
71492W        W44560   2.203   8.736   3.085
71493W        W44561  36.911  13.391  10.594
71494W        W44562   0.386  43.425   4.386
71495W        W44563   4.097  37.353   4.386
71496W        W44564  33.790   5.180   9.978
71497W        W44565  31.730  26.943   1.339
71498W        W44566  33.149  34.825   2.731
71499W        W44567  35.494  43.725   0.874
71500W        W44568  38.365  12.350   3.213
71501W        W44569  23.524  29.552   3.408
71502W        W44570  38.976  10.780   0.905
71503W        W44571  38.473  34.351  14.804
71504W        W44572  42.278  44.492  10.006
71505W        W44573  35.440  16.559   4.888
71506W        W44574  37.364  41.137   2.414
71507W        W44575  17.163  27.477  13.060
71508W        W44576   6.296  34.475  11.578
71509W        W44577  34.626  13.305  12.432
71510W        W44578  14.206  24.973  11.869
71511W        W44579  16.740  27.006   1.279
71512W        W44580  24.666  18.335  12.112
71513W        W44581  33.454  14.245  11.736
71514W        W44582   5.645  38.305   1.776
71515W        W44583   7.615  38.011  13.530
71516W        W44584   5.155   0.244  11.315
71517W        W44585  27.983  24.719   4.343
71518W        W44586   3.702   4.292   2.160
71519W        W44587  41.057  39.290   4.067
71520W        W44588  38.829  41.974   3.821
71521W        W44589   8.310  38.510  13.099
71522W        W44590  10.308  20.278   2.335
71523W        W44591  43.918   1.615   2.044
71524W        W44592  17.743  17.245  13.685
71525W        W44593  41.180   0.309  11.602
71526W        W44594  30.863  23.066   0.362
71527W        W44595  43.423  22.586  14.910
71528W        W44596  13.749  10.347   4.556
71529W        W44597  15.090  15.731  13.934
71530W        W44598  40.376  13.044  13.059
71531W        W44599  33.568  19.306   1.913
71532W        W44600  39.926  18.639  13.949
71533W        W44601  27.105   1.589   1.422
71534W        W44602  35.176  36.118   1.226
71535W        W44603  37.392  16.248  11.405
71536W        W44604  32.057  41.546   4.165
71537W        W44605  27.080   7.952  11.199
71538W        W44606  17.238  16.101  10.594
71539W        W44607   3.272  24.922   1.447
71540W        W44608  39.288  42.545   0.272
71541W        W44609  26.297  26.293   5.026
71542W        W44610  40.827  18.770  14.372
71543W        W44611  21.240  12.786   0.318
71544W        W44612   4.502  41.298   2.892
71545W        W44613   8.870  21.769  13.421
71546W        W44614  23.765   1.574   5.131
71547W        W44615  32.203  33.182   0.324
71548W        W44616   5.576  11.653  12.955
71549W        W44617  37.504   8.982  14.126
71550W        W44618  10.359   7.257  11.684
71551W        W44619  24.008  31.313  13.440
71552W        W44620  14.523   0.593  10.334
71553W        W44621  31.514   1.669   4.037
71554W        W44622  13.360   6.107   1.941
71555W        W44623  39.294  26.392   2.528
71556W        W44624  31.790  19.347  13.942
71557W        W44625   1.972  23.674  12.850
71558W        W44626  28.658  29.422   1.334
71559W        W44627  38.482  25.572   1.255
71560W        W44628  39.019  43.951   0.950
71561W        W44629  28.636   5.621  11.629
71562W        W44630  35.899  30.118   3.799
71563W        W44631  14.588  15.389  14.490
71564W        W44632  44.692  24.195   3.790
71565W        W44633  36.364  33.382  14.237
71566W        W44634  20.054  29.927   3.779
71567W        W44635  42.992  20.053   2.332
71568W        W44636   5.445   1.160   2.261
71569W        W44637  38.869   8.297   4.643
71570W        W44638  17.850  24.958   4.673
71571W        W44639  37.466  32.136   5.386
71572W        W44640  36.842  24.311   4.233
71573W        W44641  42.490  31.400  10.499
71574W        W44642  34.510  24.595   1.186
71575W        W44643  32.476  14.247   4.136
71576W        W44644  33.848  24.416  14.242
71577W        W44645  36.076  27.144  14.034
71578W        W44646  31.194  35.494  11.041
71579W        W44647  26.816  25.980  13.951
71580W        W44648  37.769  30.257   0.943
71581W        W44649  41.278   2.870  10.889
71582W        W44650  24.072  30.341   3.247
71583W        W44651   7.928  42.439  11.447
71584W        W44652  16.896  23.230   4.086
71585W        W44653  16.760  14.836   4.438
71586W        W44654   9.113  36.876   4.738
71587W        W44655  11.244   1.305  12.879
71588W        W44656   4.380  35.101   0.854
71589W        W44657   0.892  32.813   0.335
71590W        W44658  30.590   1.211   0.913
71591W        W44659   7.151  39.888   0.931
71592W        W44660  19.406  36.516  10.742
71593W        W44661   2.235  16.499  14.358
71594W        W44662  12.245  41.093   0.387
71595W        W44663  44.545  21.896  12.691
71596W        W44664  24.646   8.366  14.903
71597W        W44665   2.763   1.966   0.853
71598W        W44666  38.920  44.764   2.171
71599W        W44667  11.099  39.916   0.388
71600W        W44668  44.993   1.690   2.655
71601W        W44669  15.575  26.359   3.663
71602W        W44670  17.508  42.520   1.963
71603W        W44671  33.927   9.874  10.657
71604W        W44672  19.167  24.612   0.999
71605W        W44673   9.266  26.285  11.173
71606W        W44674  39.335  30.836   4.693
71607W        W44675  22.781  41.043  10.642
71608W        W44676  24.089  38.742  10.997
71609W        W44677  38.432  40.689   3.665
71610W        W44678  18.545   3.009  11.145
71611W        W44679  15.568  41.092  14.638
71612W        W44680  20.249  25.052  12.109
71613W        W44681  28.243   7.308   2.154
71614W        W44682  43.035  39.090  11.111
71615W        W44683  40.324  16.999   3.640
71616W        W44684   0.255   2.866   0.433
71617W        W44685  26.870  42.360   4.025
71618W        W44686  42.946  38.526  14.701
71619W        W44687  34.393   5.930  14.409
71620W        W44688  38.621  44.088   4.855
71621W        W44689   4.177  21.209  13.638
71622W        W44690   9.268   9.992  10.360
71623W        W44691  34.400  38.567   0.278
71624W        W44692  16.699  36.820  13.537
71625W        W44693  12.558  35.570   0.698
71626W        W44694  12.668   4.936   4.626
71627W        W44695  17.538  33.553  14.316
71628W        W44696  34.242  10.601  11.973
71629W        W44697   5.986  23.401  13.805
71630W        W44698   7.701  18.104   1.946
71631W        W44699  28.897  11.827   4.342
71632W        W44700  34.633  38.279  12.474
71633W        W44701   9.676  24.177   2.538
71634W        W44702   4.667  36.441  10.166
71635W        W44703   1.408  41.901   4.917
71636W        W44704  32.988  25.273  10.811
71637W        W44705   1.722  42.493   3.819
71638W        W44706  19.798  23.022   0.463
71639W        W44707  32.990  11.373  12.172
71640W        W44708  26.460  43.758   0.708
71641W        W44709  26.751  34.328   0.265
71642W        W44710  40.912   0.501   4.130
71643W        W44711  37.688   3.702  10.586
71644W        W44712  34.924  37.546   4.128
71645W        W44713   7.245  30.353  11.973
71646W        W44714  41.515  14.268   0.320
71647W        W44715   3.165  19.888  10.979
71648W        W44716  22.252  42.426  14.203
71649W        W44717  38.085  42.448   3.950
71650W        W44718  39.951   1.323  12.350
71651W        W44719  43.908  39.841  12.359
71652W        W44720   8.917   1.301   1.192
71653W        W44721  18.121   5.102   4.718
71654W        W44722  27.564   3.127  11.668
71655W        W44723  10.785  30.887  12.471
71656W        W44724  11.594  42.556   2.624
71657W        W44725   7.376  17.281   0.404
71658W        W44726   7.737  42.812   4.596
71659W        W44727   4.547   3.461   0.004
71660W        W44728  13.793  21.289  12.905
71661W        W44729  43.323  18.530   2.619
71662W        W44730  21.108  11.635   4.592
71663W        W44731  29.332   0.710   1.235
71664W        W44732   3.486  25.737   1.374
71665W        W44733  40.279  26.214  10.665
71666W        W44734  31.836  26.553  12.891
71667W        W44735  17.194  43.858   1.720
71668W        W44736  38.534  24.083   1.534
71669W        W44737  23.969  26.048  10.699
71670W        W44738   9.684  37.611  11.993
71671W        W44739  19.678  24.107   0.176
71672W        W44740  25.751  35.348   4.986
71673W        W44741   4.682  12.634  13.844
71674W        W44742  23.094  36.350   0.531
71675W        W44743  18.658   8.073   2.345
71676W        W44744  14.208  23.004   1.847
71677W        W44745  14.307  21.243   2.828
71678W        W44746   3.866  29.641   3.659
71679W        W44747   0.560  41.753   0.227
71680W        W44748  41.515  39.280  14.382
71681W        W44749  29.677  10.281   1.020
71682W        W44750  25.222  36.326  14.532
71683W        W44751   5.108  35.797   2.221
71684W        W44752  16.655  43.905   3.230
71685W        W44753   4.161   5.424  11.579
71686W        W44754  20.520  15.568  12.872
71687W        W44755  39.943  17.281   2.203
71688W        W44756  25.464  15.573   0.226
71689W        W44757  24.284  23.842  12.530
71690W        W44758  43.048  29.054  11.627
71691W        W44759  28.923  16.233  13.346
71692W        W44760  22.156   7.654  14.039
71693W        W44761  14.154  42.241   4.261
71694W        W44762  10.847   5.449  14.567
71695W        W44763  43.282   0.535  12.613
71696W        W44764  24.587  41.087  14.439
71697W        W44765  30.351   5.198   1.929
71698W        W44766  37.791  16.156   1.428
71699W        W44767  40.986  25.699   3.150
71700W        W44768  36.350  42.299   0.722
71701W        W44769   7.538  35.863  12.955
71702W        W44770  27.029   0.304   4.691
71703W        W44771  44.477  13.773   3.138
71704W        W44772  44.376   9.332   1.937
71705W        W44773  35.961  30.605  13.163
71706W        W44774   1.945  10.589   3.855
71707W        W44775  10.910   3.236   1.856
71708W        W44776  26.787   1.394   3.772
71709W        W44777  25.929   5.597  11.597
71710W        W44778  18.873  25.122  13.021
71711W        W44779  12.621  30.141  14.845
71712W        W44780  30.862  39.947  14.795
71713W        W44781  16.703  25.515  14.250
71714W        W44782   9.518  26.610  11.610
71715W        W44783  22.715  35.964   1.673
71716W        W44784  43.296  27.147  12.001
71717W        W44785   3.556  43.228  13.814
71718W        W44786   8.363  21.601  14.347
71719W        W44787  30.676  31.952   0.808
71720W        W44788  27.428  12.672   3.489
71721W        W44789  27.188  38.523   1.818
71722W        W44790  21.108   9.702   1.841
71723W        W44791   6.775  33.541   0.495
71724W        W44792   1.057  15.756  13.399
71725W        W44793  34.455  33.342  13.916
71726W        W44794  31.567  16.566  14.556
71727W        W44795  21.752  33.635   2.165
71728W        W44796  41.172  24.237   0.925
71729W        W44797  44.183  28.121   3.068
71730W        W44798   3.484   2.556   3.480
71731W        W44799  10.803  19.046  11.136
71732W        W44800  14.749  42.867   4.228
71733W        W44801  33.150  22.667   3.710
71734W        W44802  22.108  20.250   2.948
71735W        W44803  42.857  34.906  14.900
71736W        W44804  31.522  20.138  14.726
71737W        W44805  38.238  12.591   1.796
71738W        W44806  30.511  28.169  14.279
71739W        W44807  11.619  28.260   0.324
71740W        W44808  13.197  26.934   2.218
71741W        W44809  44.286  23.806   4.702
71742W        W44810   5.397  43.866  12.898
71743W        W44811  11.945   5.503  11.046
71744W        W44812  10.163  22.508   1.353
71745W        W44813  20.232  44.986   4.169
71746W        W44814  44.432  10.861   0.940
71747W        W44815  17.135  19.246   0.332
71748W        W44816  31.833  35.719   1.336
71749W        W44817  40.083  35.581   3.663
71750W        W44818   8.410   0.770  10.937
71751W        W44819  22.950  40.063  14.442
71752W        W44820  14.611  10.479   3.192
71753W        W44821  16.047  37.616  14.326
71754W        W44822  29.465  21.507   4.875
71755W        W44823  38.486   9.083  13.862
71756W        W44824  41.418  19.022   1.872
71757W        W44825  37.382   8.732  10.647
71758W        W44826  39.464  33.398  11.109
71759W        W44827  11.858   9.935   2.308
71760W        W44828  12.109  34.346   0.802
71761W        W44829  25.130  15.080   0.756
71762W        W44830  13.167  36.270  14.222
71763W        W44831   8.598  10.146  13.377
71764W        W44832  23.319  39.921   1.477
71765W        W44833  21.018  13.551   4.439
71766W        W44834  37.061  32.734  13.882
71767W        W44835   6.119  20.101   4.531
71768W        W44836  23.616   9.386  14.294
71769W        W44837  32.588   7.955   2.891
71770W        W44838  18.727  25.319  11.550
71771W        W44839  20.072   6.870  11.690
71772W        W44840  23.714  12.789  11.501
71773W        W44841  39.539  27.883  11.918
71774W        W44842  36.144  17.106  12.132
71775W        W44843  40.149   2.568   3.747
71776W        W44844  39.433  15.904   4.817
71777W        W44845  14.144  15.681  14.394
71778W        W44846  40.027  18.289   3.928
71779W        W44847  13.145   0.038   0.921
71780W        W44848  34.387  15.771   0.436
71781W        W44849  22.214  42.575  13.443
71782W        W44850  26.135  32.533  14.311
71783W        W44851  40.283  23.283  13.568
71784W        W44852  21.580  21.609  12.717
71785W        W44853  16.676  21.565  13.089
71786W        W44854   2.913  13.030   0.456
71787W        W44855  22.004   0.509   1.781
71788W        W44856  32.871  42.023   3.681
71789W        W44857   7.974  28.992   0.952
71790W        W44858  15.271  32.077  12.434
71791W        W44859  34.387  30.648   2.805
71792W        W44860   8.914  11.241  12.533
71793W        W44861  39.177   1.809   2.633
71794W        W44862  10.797  11.299  11.363
71795W        W44863  10.187  35.384  12.439
71796W        W44864  41.241   1.288  12.544
71797W        W44865  36.590   2.756  14.856
71798W        W44866  28.569  40.468  11.093
71799W        W44867  35.203  32.903  10.276
71800W        W44868  26.600  26.558  11.885
71801W        W44869  29.279  26.237   1.340
71802W        W44870  14.761  36.525   1.672
71803W        W44871   8.363   9.690   3.120
71804W        W44872  37.565  11.586  11.124
71805W        W44873  25.777  19.315  13.324
71806W        W44874  37.685   8.173   3.253
71807W        W44875  39.100  11.186   3.148
71808W        W44876  25.358  11.644  13.422
71809W        W44877   1.372  24.630  10.805
71810W        W44878  43.998  38.385   4.285
71811W        W44879  28.585   0.274   1.302
71812W        W44880  42.375  14.744   0.873
71813W        W44881  10.052   3.755   0.800
71814W        W44882   8.423   8.907   2.191
71815W        W44883  34.477  19.048   3.797
71816W        W44884  12.589  11.724  10.455
71817W        W44885  24.090  25.727  14.510
71818W        W44886   2.069   0.474   4.159
71819W        W44887  17.287  31.002   4.337
71820W        W44888  39.033  37.583  11.163
71821W        W44889  44.809  10.958   3.738
71822W        W44890  44.496  24.431  14.509
71823W        W44891  15.856  43.933   4.084
71824W        W44892  26.379  30.447   3.331
71825W        W44893  25.082  27.989  14.761
71826W        W44894  43.379  16.118   4.100
71827W        W44895  11.644  23.645   1.380
71828W        W44896   8.851  29.686   1.444
71829W        W44897  13.696  27.111   4.376
71830W        W44898  13.256  37.611  11.687
71831W        W44899  16.386  24.002   0.863
71832W        W44900  25.096   1.177  12.881
71833W        W44901  22.211  27.280  14.730
71834W        W44902   4.713   1.958  12.078
71835W        W44903  40.276  40.732   2.155
71836W        W44904  13.881  31.788   2.885
71837W        W44905  43.255  42.430   2.908
71838W        W44906  40.524  10.659   1.934
71839W        W44907  11.641  35.442   0.881
71840W        W44908   8.062  17.218   0.990
71841W        W44909  30.763  17.235  14.880
71842W        W44910  18.055   5.649   1.255
71843W        W44911  35.149  30.064  12.958
71844W        W44912  19.180  12.214  14.367
71845W        W44913  21.775  12.683  13.390
71846W        W44914  28.944  15.584  10.695
71847W        W44915  36.616  29.137  13.916
71848W        W44916  12.743  29.499  14.077
71849W        W44917  34.359  34.308  13.467
71850W        W44918   0.578  30.920   3.787
71851W        W44919  42.434  32.198  13.770
71852W        W44920  38.640  11.700   1.636
71853W        W44921  32.243  15.235  11.252
71854W        W44922  38.601   5.021   0.614
71855W        W44923  21.778  36.892   0.407
71856W        W44924  32.574   4.619  10.385
71857W        W44925  11.866  17.670   1.100
71858W        W44926   5.450  17.521   3.237
71859W        W44927   8.574  17.638  13.347
71860W        W44928  37.473  13.982   2.753
71861W        W44929  43.884  24.115   3.332
71862W        W44930  41.343  21.584   3.129
71863W        W44931  15.471  25.404   0.161
71864W        W44932  12.789  42.770  11.541
71865W        W44933   5.210  41.019  12.690
71866W        W44934  35.923  44.454   1.042
71867W        W44935  27.232  14.085   5.094
71868W        W44936   2.552   6.198   1.368
71869W        W44937  15.141   2.499   0.979
71870W        W44938  34.917  25.463   3.776
71871W        W44939  42.302  13.168  14.566
71872W        W44940  34.534  30.640  13.354
71873W        W44941  43.270  15.754   2.689
71874W        W44942  43.684  13.676  11.464
71875W        W44943  23.729   3.727  11.501
71876W        W44944   9.673  28.560   3.186
71877W        W44945  19.799   9.005   3.648
71878W        W44946   3.896   2.688  14.409
71879W        W44947  32.080  27.560   3.762
71880W        W44948  36.812   4.817  11.682
71881W        W44949  42.913  21.508   1.390
71882W        W44950  14.027  28.866  11.661
71883W        W44951  11.762  31.487   1.439
71884W        W44952  30.586   0.643  11.851
71885W        W44953  17.130  28.626  14.964
71886W        W44954  23.964   4.259  10.965
71887W        W44955  12.808  24.161  13.386
71888W        W44956  25.817   0.489  13.883
71889W        W44957   0.549  19.088   2.722
71890W        W44958  15.618  13.219  11.314
71891W        W44959  21.738   4.398   0.481
71892W        W44960  34.523   5.478  13.514
71893W        W44961  44.509  35.518  13.811
71894W        W44962  18.033  36.247   0.822
71895W        W44963   6.429  37.166   4.302
71896W        W44964  29.940  11.782  12.832
71897W        W44965  36.747  12.257   4.243
71898W        W44966  20.705  39.500   0.586
71899W        W44967  11.793  10.695  12.976
71900W        W44968  21.615  40.509   2.249
71901W        W44969  30.051  31.001  13.907
71902W        W44970  30.318  12.211  13.966
71903W        W44971  13.827  11.185   3.231
71904W        W44972   0.801  13.083   4.360
71905W        W44973   9.511  37.454  13.969
71906W        W44974  20.555  42.972   2.550
71907W        W44975  21.092  27.688  12.602
71908W        W44976  29.628   3.476  10.362
71909W        W44977  42.540   3.818  12.079
71910W        W44978  16.165  36.903  13.507
71911W        W44979  39.741   4.396  11.244
71912W        W44980  40.307  32.040   4.765
71913W        W44981   1.907   4.694  14.413
71914W        W44982  36.762  34.295  11.267
71915W        W44983  20.233  13.687   0.608
71916W        W44984  44.760  32.087   2.887
71917W        W44985  41.623  24.445   1.204
71918W        W44986  18.030  43.768   4.320
71919W        W44987  24.723   1.352  11.580
71920W        W44988  42.234   5.973  11.020
71921W        W44989  26.602  36.857   3.850
71922W        W44990  41.526  17.176  10.922
71923W        W44991  30.392  32.823  12.543
71924W        W44992  32.398  16.537  14.626
71925W        W44993  18.066  37.473  11.182
71926W        W44994  43.706  40.220  14.830
71927W        W44995   8.906  26.967  10.795
71928W        W44996  11.765   6.922  12.450
71929W        W44997  10.816  21.771   3.132
71930W        W44998  44.135   8.140   1.405
71931W        W44999  44.686  11.153   3.241
71932W        W45000   7.920   9.430  13.941
71933W        W45001   7.470  23.199   2.310
71934W        W45002  30.397  11.353  10.723
71935W        W45003  31.515  17.561   1.868
71936W        W45004  33.392  14.504   3.361
71937W        W45005  30.111   8.207   4.604
71938W        W45006  27.240   3.835   1.392
71939W        W45007  12.341  37.944  12.521
71940W        W45008   8.407  16.406   3.400
71941W        W45009  13.575   9.361  10.457
71942W        W45010   7.794  24.609   3.635
71943W        W45011   5.113  30.049   2.984
71944W        W45012  39.808  13.581   0.967
71945W        W45013  17.431  43.262   4.687
71946W        W45014   1.427   9.727   3.652
71947W        W45015  32.134  41.424  12.368
71948W        W45016  34.086  43.732   1.392
71949W        W45017   7.264  20.995  10.664
71950W        W45018  17.512  21.659  14.630
71951W        W45019  35.927   0.965  12.059
71952W        W45020  40.305   2.733  10.514
71953W        W45021  39.553  12.646   0.453
71954W        W45022   4.578  27.786  12.291
71955W        W45023   4.878  38.912   1.100
71956W        W45024  14.184  18.683   2.195
71957W        W45025   8.947  33.890   2.855
71958W        W45026   1.080  30.081   3.887
71959W        W45027  42.775  26.641  13.277
71960W        W45028  20.002  36.988  10.649
71961W        W45029  21.890  41.235  12.178
71962W        W45030   2.981  10.436   4.037
71963W        W45031  30.405  28.128  10.845
71964W        W45032  29.952  25.902   0.781
71965W        W45033   9.074  22.572  11.453
71966W        W45034  10.657  11.795  13.646
71967W        W45035  16.847   7.213  12.929
71968W        W45036  14.866  33.551   3.565
71969W        W45037   8.097  19.503  12.708
71970W        W45038   3.456  41.967   2.355
71971W        W45039  41.936  27.140   2.095
71972W        W45040  21.168  34.577  12.698
71973W        W45041  35.894  42.711  13.444
71974W        W45042  40.385  14.720  14.732
71975W        W45043  40.873  35.510  12.007
71976W        W45044  22.749  39.618   4.033
71977W        W45045  14.426   4.750   0.334
71978W        W45046   3.434  43.474   3.714
71979W        W45047   8.188  13.292   0.773
71980W        W45048   4.902  30.662  11.574
71981W        W45049  18.683  14.503   2.228
71982W        W45050  14.356  12.794   3.683
71983W        W45051   0.231  14.736   0.264
71984W        W45052   1.449   2.425  12.506
71985W        W45053  41.375  44.281   3.147
71986W        W45054  28.960  21.375  14.365
71987W        W45055   9.787   8.447  13.969
71988W        W45056   5.683  34.525   2.307
71989W        W45057  16.381  20.485  11.623
71990W        W45058  23.248  18.601  13.903
71991W        W45059  22.007  27.272   2.938
71992W        W45060  11.196  16.886   0.460
71993W        W45061  19.230  42.561  10.716
71994W        W45062  38.564  40.262  14.873
71995W        W45063  11.622   2.093   2.759
71996W        W45064  26.267   6.737   3.248
71997W        W45065  15.330   4.429   1.377
71998W        W45066  43.748  16.661   4.317
71999W        W45067  37.614   9.677  10.953
72000W        W45068   8.926  10.815  13.454
72001W        W45069  17.090  10.302  12.759
72002W        W45070  18.179  23.393   4.706
72003W        W45071  14.876   1.090   3.260
72004W        W45072  31.720   9.123  13.451
72005W        W45073  18.751   3.953   2.218
72006W        W45074   6.266   9.584  12.438
72007W        W45075   1.296  26.113   1.324
72008W        W45076  26.207  41.604  11.227
72009W        W45077  24.425  21.757   3.907
72010W        W45078   1.969   3.386  11.918
72011W        W45079  23.028  33.382  12.638
72012W        W45080  27.913  41.726  14.007
72013W        W45081  31.067  33.036   4.200
72014W        W45082  25.304  30.597  13.068
72015W        W45083  26.706   3.646   1.788
72016W        W45084  30.577  32.831   4.186
72017W        W45085   3.395  38.849   3.650
72018W        W45086  10.161  38.492  12.572
72019W        W45087  29.260  38.614  12.896
72020W        W45088  21.607  12.893   3.896
72021W        W45089  24.102  22.560  14.736
72022W        W45090   2.127   4.422  13.333
72023W        W45091   3.300  21.986  11.292
72024W        W45092   4.710  11.085   1.350
72025W        W45093  35.038  44.963  14.055
72026W        W45094  15.284  27.200  14.056
72027W        W45095  24.835  44.912  13.528
72028W        W45096  15.614  16.819   1.233
72029W        W45097  33.554   9.631  14.672
72030W        W45098  37.052   7.669  14.850
72031W        W45099  14.232  39.938  14.569
72032W        W45100  37.662  18.600  14.290
72033W        W45101  31.539   9.032  12.816
72034W        W45102  27.682  15.631  12.608
72035W        W45103  39.410  31.695  14.830
72036W        W45104  27.207  29.597   0.991
72037W        W45105   5.085  44.214   4.037
72038W        W45106   1.826  28.745   4.498
72039W        W45107   4.240  32.595   1.841
72040W        W45108  20.081  19.319   2.353
72041W        W45109  44.016  33.096  13.529
72042W        W45110  20.191  20.705  14.406
72043W        W45111  34.509  23.200  11.618
72044W        W45112  30.182  13.410  13.825
72045W        W45113  16.590  29.022  11.523
72046W        W45114  34.604  21.164  13.882
72047W        W45115  25.966  22.306  12.858
72048W        W45116  14.288  14.249   2.908
72049W        W45117  38.558  22.576  10.619
72050W        W45118  39.445  38.953  12.026
72051W        W45119  38.382  16.770   2.413
72052W        W45120  21.762  44.488  12.355
72053W        W45121  28.338  27.438  13.043
72054W        W45122  16.580   8.380   0.918
72055W        W45123   6.031  34.060  10.561
72056W        W45124  36.290  18.809  14.445
72057W        W45125  14.548   5.929  13.623
72058W        W45126   8.550  23.838  12.976
72059W        W45127  41.489  40.760  14.868
72060W        W45128  13.331   0.518  12.844
72061W        W45129  22.277  36.114  12.856
72062W        W45130  36.876  25.025  11.935
72063W        W45131   1.495  35.350   2.306
72064W        W45132  16.542   5.292  11.979
72065W        W45133  21.037   3.000   3.165
72066W        W45134  13.768  40.475  13.751
72067W        W45135  22.718   3.200  13.459
72068W        W45136   2.538  34.443  13.318
72069W        W45137   2.370  12.869  11.223
72070W        W45138  40.791   6.615  13.713
72071W        W45139   9.422  21.059   1.186
72072W        W45140  13.273   4.236   2.349
72073W        W45141   6.405   8.372  10.608
72074W        W45142   8.796  17.822  11.672
72075W        W45143  32.791  14.210   0.851
72076W        W45144   8.827   6.712  14.049
72077W        W45145   8.312   0.016   4.124
72078W        W45146  15.175   8.952  14.478
72079W        W45147  34.305   0.340  12.910
72080W        W45148  25.468  35.128   2.172
72081W        W45149  13.773   4.746   1.282
72082W        W45150  21.147  29.581   3.276
72083W        W45151  13.327  23.655   4.659
72084W        W45152  42.620   8.412   4.656
72085W        W45153   1.283  20.768  12.431
72086W        W45154  19.011   0.721  11.997
72087W        W45155  33.308  43.408   4.280
72088W        W45156  37.044   3.153  14.285
72089W        W45157  37.439   7.475   4.073
72090W        W45158   6.582  12.810   9.822
72091W        W45159   5.269  31.939  13.939
72092W        W45160  30.421  40.022   4.553
72093W        W45161  26.464   1.699  14.481
72094W        W45162  27.960   7.783  10.718
72095W        W45163   2.463   7.715   0.965
72096W        W45164   5.264  44.019   0.463
72097W        W45165   4.205  32.535   4.656
72098W        W45166  20.283  27.182  10.704
72099W        W45167  15.252  31.550  14.461
72100W        W45168  40.302   6.244   2.244
72101W        W45169  11.314  39.529   3.442
72102W        W45170  42.550  19.999  13.144
72103W        W45171  28.525  44.883  11.385
72104W        W45172  18.767  13.256  14.763
72105W        W45173   9.405  43.237  13.372
72106W        W45174  29.432  16.895  11.562
72107W        W45175  26.498   3.337  12.638
72108W        W45176  26.927  27.618   2.670
72109W        W45177  16.732  14.411   5.137
72110W        W45178  23.823  27.626  11.087
72111W        W45179  15.152  31.644   2.303
72112W        W45180  27.768   5.800  11.842
72113W        W45181   9.374  32.566  10.722
72114W        W45182   1.393  35.797  13.175
72115W        W45183  37.998  16.807   1.771
72116W        W45184  36.860  25.241   4.256
72117W        W45185   1.396  17.785   4.772
72118W        W45186  21.556  10.673   1.147
72119W        W45187  39.815  41.474  12.645
72120W        W45188   0.227  26.710   2.852
72121W        W45189  15.046  31.895   4.085
72122W        W45190  18.061  11.705  12.575
72123W        W45191   3.663  27.569   0.784
72124W        W45192  17.718  36.409  14.488
72125W        W45193  25.104  23.128   2.212
72126W        W45194  28.330  14.319  11.931
72127W        W45195  22.677   2.310  11.052
72128W        W45196  39.652  10.723  12.063
72129W        W45197  25.639  31.641  11.657
72130W        W45198  32.422  43.178   0.133
72131W        W45199   3.712  39.597   4.298
72132W        W45200   1.734   7.948   0.783
72133W        W45201   9.879  25.765  14.585
72134W        W45202   3.821  18.770   2.619
72135W        W45203  21.683   3.946  13.549
72136W        W45204  44.514  22.235   1.954
72137W        W45205  30.956  37.506   1.824
72138W        W45206  44.341  29.742  12.140
72139W        W45207  14.796  32.633  11.474
72140W        W45208  22.694  20.580  12.100
72141W        W45209  20.542  23.473   1.615
72142W        W45210   7.353  40.599   2.426
72143W        W45211  26.578  10.426   3.702
72144W        W45212  11.203  33.147   2.176
72145W        W45213  17.565   1.552  14.611
72146W        W45214  34.937  22.460   0.458
72147W        W45215  29.090  28.993   0.832
72148W        W45216  37.299  12.412   0.914
72149W        W45217   4.413  22.814  11.100
72150W        W45218  33.685  42.610  14.330
72151W        W45219  12.793  24.748  12.384
72152W        W45220  18.667  18.836   2.775
72153W        W45221  22.899  26.295  14.380
72154W        W45222  34.723   2.628   3.644
72155W        W45223   3.389  13.726  14.645
72156W        W45224  34.461  16.964   4.781
72157W        W45225  11.847  32.047   0.195
72158W        W45226  23.440  30.566  13.316
72159W        W45227  13.728  15.329   0.279
72160W        W45228   9.692  17.405   4.252
72161W        W45229   3.365  16.945   1.030
72162W        W45230  32.877  44.515  13.794
72163W        W45231  43.519  42.769   4.015
72164W        W45232  37.670  14.088  12.001
72165W        W45233   4.252  12.138   2.291
72166W        W45234  37.042  20.022  14.968
72167W        W45235  32.634  21.220  10.963
72168W        W45236  40.096   0.228  14.331
72169W        W45237  31.375   3.109   5.001
72170W        W45238  41.500  35.790   1.235
72171W        W45239  10.138  34.407  14.316
72172W        W45240  15.795  41.611   4.138
72173W        W45241  16.773  31.902  12.046
72174W        W45242  36.910  43.039   5.005
72175W        W45243  11.806  25.521   0.905
72176W        W45244  24.528  33.280   3.272
72177W        W45245  36.161   7.539  14.916
72178W        W45246  26.293  26.077  11.122
72179W        W45247   4.209   9.156   4.126
72180W        W45248  18.930  10.205  12.938
72181W        W45249  11.578  32.925   3.503
72182W        W45250  33.956   5.857   1.134
72183W        W45251  24.116  15.968   1.229
72184W        W45252  25.686  30.051  14.336
72185W        W45253  14.005  24.902   2.432
72186W        W45254  26.384  32.073   2.431
72187W        W45255   3.277  23.629   4.903
72188W        W45256  12.780  32.817   0.540
72189W        W45257  15.706  30.036  12.962
72190W        W45258   2.015  21.999  12.283
72191W        W45259  33.821   2.390  13.023
72192W        W45260  17.661  22.525  14.060
72193W        W45261  18.963  32.834  11.553
72194W        W45262  12.996  38.052   0.518
72195W        W45263  16.512  15.343   3.776
72196W        W45264  30.676  15.824  11.198
72197W        W45265  27.743  21.095   3.716
72198W        W45266  24.472  43.154  12.498
72199W        W45267   9.847  22.218  13.045
72200W        W45268  40.873  23.288  13.086
72201W        W45269  29.743   6.856   1.266
72202W        W45270  13.335  22.143   0.921
72203W        W45271   2.714  25.978  12.816
72204W        W45272  34.725  34.194  11.566
72205W        W45273  14.151   9.767  14.686
72206W        W45274   4.325  12.672   3.809
72207W        W45275  22.220   1.226  12.521
72208W        W45276  29.179  43.283  14.831
72209W        W45277  19.710  38.996  10.364
72210W        W45278  15.757  43.793  13.315
72211W        W45279  42.021   7.130   4.156
72212W        W45280   8.511  35.641   2.037
72213W        W45281  35.102   5.365   2.296
72214W        W45282  28.670  40.534  12.951
72215W        W45283  16.268  30.904   4.233
72216W        W45284  29.679  21.654   0.895
72217W        W45285  35.100  15.867   4.508
72218W        W45286  22.548  21.001  11.833
72219W        W45287  43.953   6.653   4.235
72220W        W45288  13.736   6.046  11.137
72221W        W45289  44.705   0.721  10.648
72222W        W45290  31.570   9.751   0.771
72223W        W45291  12.652  19.909  13.769
72224W        W45292  16.270  13.719  12.602
72225W        W45293  13.709   5.812  13.296
72226W        W45294  39.045  42.757  13.835
72227W        W45295  21.279  41.516   4.089
72228W        W45296  44.421  18.978  13.515
72229W        W45297  39.921  42.168  11.196
72230W        W45298  31.842  18.076  12.650
72231W        W45299  12.326  13.159  14.839
72232W        W45300  26.351  15.681  12.454
72233W        W45301  26.886  38.805   4.206
72234W        W45302  25.480   0.326   1.216
72235W        W45303  43.703   2.817   4.459
72236W        W45304  15.332  30.447   0.375
72237W        W45305  30.335  31.467  11.166
72238W        W45306  24.589  14.309  11.133
72239W        W45307  24.250  44.917   2.415
72240W        W45308  30.716  35.665  11.049
72241W        W45309  44.942   2.230   2.662
72242W        W45310   6.828   8.182  13.140
72243W        W45311   9.856  11.619   1.137
72244W        W45312  37.020  15.847   1.674
72245W        W45313  26.003  38.580   0.979
72246W        W45314  19.742  11.633   4.149
72247W        W45315   1.276  23.572  13.433
72248W        W45316  20.807  10.181   4.369
72249W        W45317   4.976   2.799   3.226
72250W        W45318  32.577  44.368  12.647
72251W        W45319  22.255  25.081  11.205
72252W        W45320  15.635  44.517  14.994
72253W        W45321  40.819   9.777   4.897
72254W        W45322  39.087  26.056   2.908
72255W        W45323  17.586  28.250   1.946
72256W        W45324  38.755  43.589  14.369
72257W        W45325  28.156  13.242   3.108
72258W        W45326  27.707  35.939   0.021
72259W        W45327  41.436  13.706   1.382
72260W        W45328  41.484  35.435   2.725
72261W        W45329  36.079  33.887  10.311
72262W        W45330  39.583  18.643   0.282
72263W        W45331  28.477  34.329   0.877
72264W        W45332  11.357  44.434   4.186
72265W        W45333  37.784  12.701   4.707
72266W        W45334  19.265   9.698   4.608
72267W        W45335  11.209   1.375  13.809
72268W        W45336  43.336   7.373   1.121
72269W        W45337  27.046  10.374  13.420
72270W        W45338  22.757  34.581  11.583
72271W        W45339  14.157   3.427   1.482
72272W        W45340  29.766  32.921   0.277
72273W        W45341   6.700  40.261   1.883
72274W        W45342  42.453  22.678   0.080
72275W        W45343  29.023  22.625  13.890
72276W        W45344  28.381  27.913   0.417
72277W        W45345  44.531  26.078   0.907
72278W        W45346  28.951   5.745  14.863
72279W        W45347  39.376  40.564  14.211
72280W        W45348   3.449  32.992   3.188
72281W        W45349   6.856   6.510   2.744
72282W        W45350   3.855  14.472  11.209
72283W        W45351   3.871  31.905   2.293
72284W        W45352   0.158  21.540  13.373
72285W        W45353  41.411  16.729  13.017
72286W        W45354  44.683  11.070   4.216
72287W        W45355  14.615  43.533  10.709
72288W        W45356  12.256   4.698  12.999
72289W        W45357  40.836  22.649   0.670
72290W        W45358   0.254  44.013  13.008
72291W        W45359  37.733  38.106   0.389
72292W        W45360   2.242  16.703  13.874
72293W        W45361   7.366  26.204   4.214
72294W        W45362  20.194  12.322   4.481
72295W        W45363  23.985  33.820   0.709
72296W        W45364  13.742   5.434   3.363
72297W        W45365  15.822  44.288   1.421
72298W        W45366   2.752  28.954   2.412
72299W        W45367  23.212  24.116   0.372
72300W        W45368  39.733  43.921  11.103
72301W        W45369   0.008  24.178   2.443
72302W        W45370  14.090  37.488   2.821
72303W        W45371  42.567  15.228   1.877
72304W        W45372  29.117   2.455  11.671
72305W        W45373  11.151  32.332   3.603
72306W        W45374  27.751  41.827   4.143
72307W        W45375   7.271  36.918   4.231
72308W        W45376  12.006  34.022  10.388
72309ION    NA+45377  18.514   6.170  11.166
72310ION    NA+45378  11.422   4.081  14.258
72311ION    NA+45379  10.834  39.759   2.524
72312ION    NA+45380  44.551   6.707   4.679
72313ION    NA+45381   6.572   4.116  12.091
72314ION    NA+45382  41.359  42.991  13.686
72315ION    NA+45383  35.805  17.978  13.316
72316ION    NA+45384  14.260  39.599   2.646
72317ION    NA+45385   6.913  33.381   4.345
72318ION    NA+45386  44.776  15.660  14.739
72319ION    NA+45387  44.053  17.107  14.510
72320ION    NA+45388  33.069   6.705  14.488
72321ION    NA+45389  42.968   6.596  12.936
72322ION    NA+45390  33.344  43.348  14.887
72323ION    NA+45391  25.523  26.372   3.712
72324ION    NA+45392  37.837  36.882   0.985
72325ION    NA+45393   8.216  16.959  10.248
72326ION    NA+45394  34.314  22.215   1.231
72327ION    NA+45395  14.748  42.016   1.780
72328ION    NA+45396  17.036  17.525   3.280
72329ION    NA+45397   5.000  19.274   2.304
72330ION    NA+45398  36.613  42.290   0.254
72331ION    NA+45399  36.272   9.770  10.919
72332ION    NA+45400   8.242  16.274   0.692
72333ION    NA+45401   7.539  27.231   4.289
72334ION    NA+45402   7.133  24.108   2.237
72335ION    NA+45403   5.475   0.109   3.078
72336ION    NA+45404  43.927   3.275   2.623
72337ION    NA+45405  39.333  12.477  13.241
72338ION    NA+45406  25.446  35.037  10.692
72339ION    NA+45407  43.331  10.141  11.134
72340ION    NA+45408  22.039  34.447  11.952
72341ION    NA+45409  36.336  36.511  12.270
72342ION    NA+45410  13.207  36.887  10.727
72343ION    NA+45411  39.509  37.542  11.402
72344ION    NA+45412   5.025  35.538  13.604
72345ION    NA+45413  27.100   9.204   5.692
72346ION    NA+45414  40.179  35.817  11.516
72347ION    NA+45415  43.226  12.574  11.985
72348ION    NA+45416  44.090  30.507   0.873
72349ION    NA+45417  17.149  29.163  12.148
72350ION    NA+45418  36.372   3.653  10.258
72351ION    NA+45419   7.958   0.673  13.578
72352ION    NA+45420  35.110  26.566  13.853
72353ION    NA+45421  33.326  42.022   2.904
72354ION    NA+45422  24.107   4.229   0.879
72355ION    NA+45423  37.958  29.993   4.324
72356ION    NA+45424  35.553  38.974   4.733
72357ION    NA+45425  44.314  14.134  12.881
72358ION    NA+45426  25.191  13.574   2.260
72359ION    NA+45427  26.334   2.392   2.855
72360ION    NA+45428  25.933  19.084   1.972
72361ION    NA+45429  34.367  15.511   1.413
72362ION    NA+45430  20.583   2.918   3.405
72363ION    NA+45431  43.026  26.899   2.704
72364ION    NA+45432   9.635  31.147  11.890
72365ION    NA+45433  25.297  43.959   4.704
72366ION    NA+45434  12.680  36.171   3.889
72367ION    NA+45435  13.113   0.936   5.282
72368ION    NA+45436  21.713  35.348  12.420
72369ION    NA+45437   3.645  31.731  12.896
72370ION    NA+45438  27.274  26.531   4.985
72371ION    NA+45439  29.247  10.373  11.391
72372ION    NA+45440  24.710  11.842  12.517
72373ION    NA+45441  17.101  12.565   4.795
72374ION    NA+45442  24.112  42.113  12.112
72375ION    NA+45443  42.604  35.329   3.156
72376ION    NA+45444  18.056  13.010   2.145
72377ION    NA+45445  31.451  29.152   4.012
72378ION    NA+45446  17.496  13.355  11.142
72379ION    NA+45447   9.624  29.095  14.857
72380ION    NA+45448   4.965  21.976  14.107
72381ION    NA+45449  32.841  36.334  12.099
72382ION    NA+45450  35.546  30.649  13.459
72383ION    NA+45451  11.371  15.843  12.160
72384ION    NA+45452  13.471  10.066  12.496
72385ION    NA+45453  38.526  31.114  13.393
72386ION    NA+45454  11.806  14.133  14.868
72387ION    NA+45455  39.459  39.013  13.893
72388ION    NA+45456   6.916   3.647  14.933
72389ION    NA+45457  34.201  32.744  11.100
72390ION    NA+45458  15.345  44.519   1.385
72391ION    NA+45459  10.374   7.855   4.008
72392ION    NA+45460  24.238  36.111   3.015
72393ION    NA+45461  25.128  25.152   1.767
72394ION    NA+45462  13.798  40.394  13.214
72395ION    NA+45463  29.871  15.840  12.076
72396ION    NA+45464  30.444  14.102   3.565
72397ION    NA+45465  11.604  19.008   1.159
72398ION    NA+45466  43.798  10.382  13.164
72399ION    NA+45467  22.935  12.741  13.494
72400ION    NA+45468  30.547  44.562   1.690
72401ION    NA+45469  19.882  33.162  11.950
72402ION    NA+45470  33.865  12.625   1.833
72403ION    NA+45471   0.887  20.817  12.125
72404ION    NA+45472  40.062  30.645   3.652
72405ION    NA+45473  30.651   9.023  12.769
72406ION    NA+45474  43.677  43.255   4.134
72407ION    NA+45475  31.604  34.264   2.463
72408ION    NA+45476  39.851   8.729   4.531
72409ION    NA+45477  34.855  25.384  13.460
72410ION    NA+45478  26.704  20.206  12.108
72411ION    NA+45479  26.678  34.196  14.771
72412ION    NA+45480  12.419  18.720   1.661
72413ION    NA+45481  34.750   0.696   0.109
72414ION    NA+45482   5.486  23.534  13.732
72415ION    NA+45483  22.630  20.063  11.998
72416ION    NA+45484   0.403  36.685   3.657
72417ION    NA+45485   3.315  16.389  11.508
72418ION    NA+45486   1.019  39.133  12.066
72419ION    NA+45487  18.498   0.712   0.871
72420ION    NA+45488  29.415  23.683   4.552
72421ION    NA+45489  31.651  15.443   9.777
72422ION    NA+45490  43.564  40.756   0.995
72423ION    NA+45491  16.647  32.021  13.817
72424ION    NA+45492  43.861  10.334   5.145
72425ION    NA+45493  36.601  37.607  13.654
72426ION    NA+45494  25.691  14.227   1.577
72427ION    NA+45495  17.699   0.962   1.235
72428ION    NA+45496  13.666   4.836  10.894
72429ION    NA+45497  10.208  40.800  13.956
72430ION    NA+45498  26.121   4.520  14.785
72431ION    NA+45499  18.718   9.829   0.901
72432ION    NA+45500   7.376  36.752  12.010
72433ION    NA+45501  36.613  23.720  12.793
72434ION    NA+45502  10.421  43.921   9.925
72435ION    NA+45503  37.879  19.714  11.765
72436ION    NA+45504  16.039  23.595   3.662
72437ION    NA+45505  10.287  10.164  12.974
72438ION    NA+45506  25.217  26.754   9.753
72439ION    NA+45507   0.554  26.991   4.045
72440ION    NA+45508   4.677  26.320  12.510
72441ION    NA+45509   5.984  26.040   0.023
72442ION    NA+45510  42.632   0.396   3.665
72443ION    NA+45511  43.447  14.502   2.637
72444ION    NA+45512  32.219  17.513  11.513
72445ION    NA+45513  19.521  28.126  14.563
72446ION    NA+45514  43.574  14.913  13.789
72447ION    NA+45515  43.443   4.904  14.964
72448ION    NA+45516  28.263  22.350  14.696
72449ION    NA+45517  29.008  26.749   0.210
72450ION    NA+45518  26.917  16.131   1.943
72451ION    NA+45519  32.897   3.456  12.343
72452ION    NA+45520  17.139  36.840  14.419
72453ION    NA+45521  15.972  32.640   4.629
72454ION    NA+45522  36.800  33.243  14.486
72455ION    NA+45523  37.848  41.773  13.985
72456ION    NA+45524   8.178  40.101  10.527
72457ION    NA+45525  36.001   7.525   0.390
72458ION    NA+45526   7.923  33.054  10.336
72459ION    NA+45527   5.495   2.769   3.113
72460ION    NA+45528   1.827  39.844   0.915
72461ION    NA+45529   6.718  29.888   4.724
72462ION    NA+45530  18.271  26.544  11.134
72463ION    NA+45531  11.445  15.731   3.034
72464ION    NA+45532  35.796   1.457   2.948
72465ION    NA+45533  37.847  44.540   3.333
72466ION    NA+45534  14.315   7.430   3.878
72467ION    NA+45535   3.026  15.449   1.596
72468ION    NA+45536   6.880  16.353  14.485
72469ION    NA+45537  13.423  29.635   2.560
72470ION    NA+45538  17.870  34.572   0.809
72471ION    NA+45539  20.872  13.705   1.279
72472ION    NA+45540  22.616  37.742   0.456
72473ION    NA+45541   6.099  26.368  10.823
72474ION    NA+45542   6.844   4.968  10.838
72475ION    NA+45543  44.409  16.179  11.962
72476ION    NA+45544  27.405  27.380  14.820
72477ION    NA+45545  37.884   0.779   0.044
72478ION    NA+45546   0.040  26.469   0.073
72479ION    NA+45547  41.745   7.237  11.550
72480ION    NA+45548  12.065  11.131   0.156
72481ION    NA+45549  40.658  34.124  12.251
72482ION    NA+45550  35.376   5.040  14.334
72483ION    NA+45551   1.681   2.960  13.335
72484ION    NA+45552   0.856  34.395   2.127
72485ION    NA+45553  19.495  23.117  12.288
72486ION    NA+45554  15.853  33.042   3.316
72487ION    NA+45555   3.411   5.064  14.762
72488ION    NA+45556  15.693  21.623  13.790
72489ION    NA+45557  41.098   8.204   1.351
72490ION    NA+45558   5.657  29.033  12.514
72491ION    NA+45559  36.699  12.165  12.798
72492ION    NA+45560  33.595  44.458   1.248
72493ION    NA+45561  30.285   1.387   2.319
72494ION    NA+45562  40.746  36.539   3.296
72495ION    NA+45563  25.598  18.440   0.252
72496ION    NA+45564  10.820  25.284  13.004
72497ION    NA+45565  37.673   7.941  13.971
72498ION    NA+45566  11.357  27.459   9.773
72499ION    NA+45567  21.163  28.514  13.970
72500ION    NA+45568  24.042  35.092   1.431
72501ION    NA+45569  17.006  22.614  11.266
72502ION    NA+45570  27.688  15.953   2.555
72503ION    NA+45571  14.281  41.087   3.840
72504ION    NA+45572  13.035  42.391  12.485
72505ION    NA+45573  16.377  39.627   1.735
72506ION    NA+45574  41.762  23.507   0.833
72507ION    NA+45575   3.733  36.674   3.708
72508ION    NA+45576  10.030  27.789  11.013
72509ION    NA+45577  38.085  32.211  13.411
72510ION    NA+45578  18.500  18.595   3.274
72511ION    NA+45579  41.515  24.311  10.691
72512ION    NA+45580   5.367  18.801  13.280
72513ION    NA+45581  35.420  16.763  13.130
72514ION    NA+45582  17.996   9.425   3.517
72515ION    NA+45583  44.381  20.466   3.032
72516ION    NA+45584  25.712   7.564  12.639
72517ION    NA+45585  21.978  12.585   3.779
72518ION    NA+45586  36.751  16.650  14.690
72519ION    NA+45587  38.815  36.930   1.372
72520ION    NA+45588  20.029  37.529  13.548
72521ION    NA+45589  42.522  38.301   1.352
72522ION    NA+45590  21.580  37.981  12.885
72523ION    NA+45591  14.860  40.545   2.135
72524ION    NA+45592  11.603   9.369   2.821
72525ION    NA+45593   6.071   3.947   1.453
72526ION    NA+45594  41.786   8.376   0.077
72527ION    NA+45595  26.665   6.412  14.893
72528ION    NA+45596  14.086  25.078  14.073
72529ION    NA+45597   7.925   7.418   2.846
72530ION    NA+45598  42.327   4.820  11.309
72531ION    NA+45599  30.882  36.966  10.662
72532ION    NA+45600   2.961  33.891   3.463
72533ION    NA+45601   7.478  24.922   2.444
72534ION    NA+45602   9.094  33.216  14.404
72535ION    NA+45603  21.594  13.031   2.971
72536ION    NA+45604  27.428  33.188   1.507
72537ION    NA+45605  31.289   9.233   4.451
72538ION    NA+45606  27.390   3.319   1.295
72539ION    NA+45607   9.300   9.790   3.957
72540ION    NA+45608   2.425  20.527   5.055
72541ION    NA+45609  38.071  31.606  10.743
72542ION    NA+45610   2.815  32.462  13.897
72543ION    NA+45611  23.881  15.055   3.683
72544ION    NA+45612  42.483   3.398  14.179
72545ION    NA+45613  14.359   1.185  11.542
72546ION    NA+45614  22.298  13.364   1.248
72547ION    NA+45615  26.567  37.784  10.876
72548ION    NA+45616  19.533  13.874   1.334
72549ION    NA+45617  15.011   9.839  12.080
72550ION    NA+45618  44.255  23.345  10.098
72551ION    NA+45619  12.326  35.261  11.862
72552ION    NA+45620  12.110  21.601  11.406
72553ION    NA+45621  14.902  34.654   1.450
72554ION    NA+45622  21.234   2.375  12.038
72555ION    NA+45623  39.044   2.493   1.355
72556ION    NA+45624   2.962  30.268  11.744
72557ION    NA+45625  23.996   2.615  12.465
72558ION    NA+45626   0.777  32.679  13.061
72559ION    NA+45627   4.054  37.958  12.012
72560ION    NA+45628   4.529  25.946   2.386
72561ION    NA+45629  35.904  38.639  10.954
72562ION    NA+45630  41.881  22.020  11.620
72563ION    NA+45631  26.027  10.561  14.671
72564ION    NA+45632   9.732  28.107   0.230
72565ION    NA+45633  14.444  28.955   2.218
72566ION    NA+45634  43.313  10.113   1.758
72567ION    NA+45635  14.060  33.114  13.200
72568ION    NA+45636  13.447   5.026  11.693
72569ION    NA+45637  39.129  23.083  11.295
72570ION    NA+45638   6.627  27.303   1.894
72571ION    NA+45639  24.733  18.608   0.252
72572ION    NA+45640   8.893   4.950   1.276
72573ION    NA+45641  15.865  36.536  13.881
72574ION    NA+45642  11.351  21.821   2.947
72575ION    NA+45643  43.509  28.475   0.281
72576ION    NA+45644  23.989  19.634   9.964
72577ION    NA+45645  16.781  12.245   2.431
72578ION    NA+45646   1.986  12.628  11.559
72579ION    NA+45647  37.010  20.993   3.895
72580ION    NA+45648  27.947   9.284   2.978
72581ION    NA+45649  10.587  19.543   0.387
72582ION    NA+45650  36.571   4.477   2.640
72583ION    NA+45651  38.521  39.606   3.087
72584ION    NA+45652  37.024  38.450   4.655
72585ION    NA+45653  39.836  33.085   2.233
72586ION    NA+45654  43.027  28.248   2.211
72587ION    NA+45655  27.061   4.454   3.269
72588ION    NA+45656  39.960  27.957   1.387
72589ION    NA+45657  22.235   7.185   4.109
72590ION    NA+45658  34.256  21.027   2.455
72591ION    NA+45659  32.692   1.463  14.113
72592ION    NA+45660  11.718  24.991   2.883
72593ION    NA+45661   4.701  39.862   4.554
72594ION    NA+45662  16.335  44.125   4.143
72595ION    NA+45663  40.091   1.831  12.396
72596ION    NA+45664  38.313  32.900  12.889
72597ION    NA+45665  35.435  42.252  11.739
72598ION    NA+45666  38.241   1.912   1.482
72599ION    NA+45667   4.840  15.899   2.142
72600ION    NA+45668   7.710   6.389   2.674
72601ION    NA+45669  12.701   3.712   2.758
72602ION    NA+45670  14.457   7.598   5.071
72603ION    NA+45671   6.775  11.628   2.750
72604ION    NA+45672  41.902   6.671   0.144
72605ION    NA+45673   1.352   8.803   3.116
72606ION    NA+45674  23.180   8.682   4.328
72607ION    NA+45675  29.190  29.802   9.646
72608ION    NA+45676  15.104   0.982  13.412
72609ION    NA+45677  39.346  37.902   0.351
72610ION    NA+45678  43.943   7.399   2.149
72611ION    NA+45679  44.735  24.271  14.070
72612ION    NA+45680  12.806  36.839   0.184
72613ION    NA+45681  16.342  34.766  14.955
72614ION    NA+45682   0.193  26.953   1.238
72615ION    NA+45683  24.690  36.816   0.820
72616ION    NA+45684  29.688  33.125   2.269
72617ION    NA+45685  38.122   8.809   2.733
72618ION    NA+45686  10.099  34.751   1.598
72619ION    NA+45687  15.572   6.772   2.628
72620ION    NA+45688  27.187  16.648  12.393
72621ION    NA+45689  28.944  37.844   4.393
72622ION    NA+45690  40.761  32.122   4.460
72623ION    NA+45691  38.182  37.100   3.503
72624ION    NA+45692  42.761  17.140  12.098
72625ION    NA+45693   9.880  21.516  12.596
72626ION    NA+45694  24.751  15.773  14.204
72627ION    NA+45695  18.951   6.161   1.967
72628ION    NA+45696  27.717  30.486  12.002
72629ION    NA+45697  12.082  19.928  12.490
72630ION    NA+45698  27.257  11.418  14.181
72631ION    NA+45699  44.369   2.081   3.726
72632ION    NA+45700  22.215  21.537   2.525
72633ION    NA+45701  13.084  30.736   0.601
72634ION    NA+45702  19.267  43.761  14.323
72635ION    NA+45703  22.053  15.351  12.986
72636ION    NA+45704  28.540  14.649   2.370
72637ION    NA+45705  11.442   5.607   2.787
72638ION    NA+45706  11.718  25.220  11.593
72639ION    NA+45707  21.389   5.330  12.914
72640ION    NA+45708  22.531   0.961  12.878
72641ION    NA+45709   6.926  38.512   3.106
72642ION    NA+45710  25.866  28.740   3.210
72643ION    NA+45711  23.880  16.877   5.397
72644ION    NA+45712  23.312  26.521   2.463
72645ION    NA+45713  18.125  23.978   4.352
72646ION    NA+45714  27.965  34.951   1.808
72647ION    NA+45715   2.510  21.802   1.455
72648ION    NA+45716  28.491  26.206  10.809
72649ION    NA+45717   9.184  21.606   4.095
72650ION    NA+45718  24.431  42.047   1.193
72651ION    NA+45719  23.467  38.556   1.174
72652ION    NA+45720  14.590  23.677  12.135
72653ION    NA+45721  15.983  24.219  10.894
72654ION    NA+45722  32.245  14.846  12.108
72655ION    NA+45723  29.203  19.308   1.474
72656ION    NA+45724  18.976   7.816  11.539
72657ION    NA+45725  17.616  22.321  12.043
72658ION    NA+45726  21.445  15.264   1.417
72659ION    NA+45727   7.421  42.872   4.178
72660ION    NA+45728  21.025  28.684  12.988
72661ION    NA+45729  30.448  19.864   2.760
72662ION    NA+45730  24.980  19.620   0.477
72663ION    NA+45731   0.239  36.685   0.905
72664ION    NA+45732  26.099  41.084  11.314
72665ION    NA+45733  32.914  31.221  13.951
72666ION    NA+45734   0.781   6.967  12.070
72667ION    NA+45735  35.430  11.621  14.286
72668ION    NA+45736  19.325   7.286  14.753
72669ION    NA+45737  19.655  26.323   2.849
72670ION    NA+45738  28.593  15.192  10.615
72671ION    NA+45739  34.910  34.977   2.803
72672ION    NA+45740  34.354  32.572  13.055
72673ION    NA+45741   2.980  28.196   2.774
72674ION    NA+45742  12.404  33.853   3.900
72675ION    NA+45743  24.855  40.330   3.272
72676ION    NA+45744  17.704  39.812  12.640
72677ION    NA+45745  30.511  20.158   1.195
72678ION    NA+45746  14.832  38.907  13.978
72679ION    NA+45747  30.034  32.597  11.250
72680ION    NA+45748  34.136  30.511   3.216
72681ION    NA+45749  32.673  44.342   1.544
72682ION    NA+45750  34.275   0.792  13.766
72683ION    NA+45751   4.649  19.076   3.810
72684ION    NA+45752  28.727  34.600   2.826
72685ION    NA+45753  15.133  10.601   1.441
72686ION    NA+45754  43.360  43.008  12.198
72687ION    NA+45755  16.254   5.463  11.540
72688ION    NA+45756  40.741   0.828  13.940
72689ION    NA+45757  19.100  36.850  13.616
72690ION    NA+45758  30.110  24.739   4.472
72691ION    NA+45759  23.506  41.524   4.553
72692ION    NA+45760   0.194  11.126   4.125
72693ION    NA+45761  43.142  12.988   4.783
72694ION    NA+45762   6.868  38.583   1.405
72695ION    NA+45763   7.826   8.404   4.288
72696ION    NA+45764   9.798  27.840   1.238
72697ION    NA+45765  40.497   0.695  10.639
72698ION    NA+45766  20.453   5.182  13.267
72699ION    NA+45767  20.031  27.550  12.428
72700ION    NA+45768  11.045  23.095  14.452
72701ION    NA+45769  18.716  12.404  11.680
72702ION    NA+45770  21.726   4.736  11.077
72703ION    NA+45771  16.288  34.011   0.385
72704ION    NA+45772  21.728  13.096  10.678
72705ION    NA+45773   8.162  39.944   2.315
72706ION    NA+45774  16.048  33.028  13.607
72707ION    NA+45775  24.576  20.204  12.647
72708ION    NA+45776   6.727  39.028  12.301
72709ION    NA+45777  38.092  34.712  10.660
72710ION    NA+45778  42.322   2.532   4.247
72711ION    NA+45779  30.933  17.084   0.373
72712ION    NA+45780   2.371   8.735  12.153
72713ION    NA+45781  40.196   5.748  12.471
72714ION    NA+45782   1.739  17.285  14.015
72715ION    NA+45783  12.670   2.720   3.223
72716ION    NA+45784  42.244  36.070   0.802
72717ION    NA+45785  43.716  25.615  11.174
72718ION    NA+45786  41.941   4.030  11.794
72719ION    NA+45787   4.258  21.098  11.661
72720ION    NA+45788   6.623  23.556   4.739
72721ION    NA+45789  25.935  25.049   0.475
72722ION    NA+45790  12.183  41.499  12.765
72723ION    NA+45791  26.979  39.049   1.785
72724ION    NA+45792   8.755  33.090   3.678
72725ION    NA+45793  12.285  29.714   4.902
72726ION    NA+45794  37.529  36.928   1.936
72727ION    NA+45795  33.210  25.361   4.900
72728ION    NA+45796  38.992  36.989  12.382
72729ION    NA+45797  28.035  39.663  13.881
72730ION    NA+45798   1.281  11.103  10.800
72731ION    NA+45799  34.095   7.277   1.206
72732ION    NA+45800   5.421  25.785   2.496
72733ION    NA+45801  18.692  17.337  10.767
72734ION    NA+45802  17.870   6.242  11.668
72735ION    NA+45803   7.298  12.258  12.783
72736ION    NA+45804  36.635  30.939  12.915
72737ION    NA+45805  33.469  16.628   5.025
72738ION    NA+45806  38.751  32.925  10.940
72739ION    NA+45807  39.145  11.806   4.707
72740ION    NA+45808  42.044   5.080   1.287
72741ION    NA+45809  31.213  16.234   1.289
72742ION    NA+45810  20.535  31.470  13.849
72743ION    NA+45811  39.898  11.300  13.529
72744ION    NA+45812  11.421  15.387  11.271
72745ION    NA+45813   9.089  15.760   0.912
72746ION    NA+45814  27.541   6.976   3.146
72747ION    NA+45815   0.775   2.023   4.171
72748ION    NA+45816   7.402   5.184  13.687
72749ION    NA+45817  28.436  43.874  12.402
72750ION    NA+45818   4.832  42.804   4.168
72751ION    NA+45819  39.786  16.503  13.149
72752ION    NA+45820   8.908  25.077  14.509
72753ION    NA+45821   1.780   5.381  13.460
72754ION    NA+45822  37.431  27.819  12.312
72755ION    NA+45823  39.042   7.054   1.782
72756ION    NA+45824   2.561  29.449  10.741
72757ION    NA+45825  19.176   5.661  13.769
72758ION    NA+45826  37.805   5.360   2.180
72759ION    NA+45827  17.085  33.586  13.053
72760ION    NA+45828  15.289   0.033   0.739
72761ION    NA+45829  14.103  10.749   2.295
72762ION    NA+45830  39.505  15.221   0.229
72763ION    NA+45831  16.088  26.120  12.766
72764ION    NA+45832  33.088  17.640   1.309
72765ION    NA+45833  37.812  34.848   2.202
72766ION    NA+45834  44.616  12.995   4.053
72767ION    NA+45835  15.468  26.793   0.207
72768ION    NA+45836  19.218  22.279  11.090
72769ION    NA+45837  14.351  30.842  11.517
72770ION    NA+45838   3.146   6.731  13.398
72771ION    NA+45839  41.055  29.311   2.989
72772ION    NA+45840  36.778  21.518  14.312
72773ION    NA+45841  18.514  15.870  12.679
72774ION    NA+45842  32.245  32.834  11.150
72775ION    NA+45843  13.019  13.084   0.312
72776ION    NA+45844   8.386  28.496   4.589
72777ION    NA+45845  14.832  19.392   2.259
72778ION    NA+45846  23.244   5.747  11.943
72779ION    NA+45847  10.688  21.644   2.162
72780ION    NA+45848  11.187   4.696  12.933
72781ION    NA+45849   2.795   6.020  14.677
72782ION    NA+45850   7.695  34.933   0.231
72783ION    NA+45851  22.470  41.557   3.979
72784ION    NA+45852  32.825  15.107   4.108
72785ION    NA+45853  16.781  22.110  14.936
72786ION    NA+45854  42.275  43.906  11.024
72787ION    NA+45855  27.208  19.750   1.912
72788ION    NA+45856   4.035  11.647   2.348
72789ION    NA+45857   2.430  36.428  13.648
72790ION    NA+45858  41.211  28.970   2.159
72791ION    NA+45859   8.414   4.149  14.045
72792ION    NA+45860  24.161  40.071  14.807
72793ION    NA+45861  15.794  17.063   2.422
72794ION    NA+45862  29.170  37.867  11.154
72795ION    NA+45863   8.645  29.582   1.947
72796ION    NA+45864  32.867  24.500  14.489
72797ION    NA+45865  16.657   3.858   4.035
72798ION    NA+45866  17.956   6.371  12.589
72799ION    NA+45867  22.956  16.158   2.995
72800ION    NA+45868   3.570  35.474  12.293
72801ION    NA+45869  11.557   6.289   1.978
72802ION    NA+45870   0.741  40.333   2.382
72803ION    NA+45871  21.725  14.018   2.855
72804ION    NA+45872   1.754   0.918  14.697
72805ION    NA+45873  10.469   7.973  12.986
72806ION    NA+45874  38.345   8.204   0.558
72807ION    NA+45875  42.303   8.959   2.918
72808ION    NA+45876  33.930  35.608  13.113
72809ION    NA+45877  18.946  36.134  10.277
72810ION    NA+45878   0.402  10.127   4.509
72811ION    NA+45879  40.855  24.536  11.408
72812ION    NA+45880  31.329   0.177  10.823
72813ION    NA+45881  11.968  24.030   2.187
72814ION    NA+45882  42.784  43.048   3.266
72815ION    NA+45883  18.443  25.192   1.961
72816ION    NA+45884  18.752   2.205   3.451
72817ION    NA+45885  35.170  21.676   4.003
72818ION    NA+45886  28.748  34.283  10.789
72819ION    NA+45887  31.674  37.016   3.008
72820ION    NA+45888  26.850   8.859  10.433
72821ION    NA+45889  29.042   6.460   3.290
72822ION    NA+45890  41.803  23.565  14.835
72823ION    NA+45891  13.086  18.541  11.379
72824ION    NA+45892  44.427  40.416   4.011
72825ION    NA+45893  29.122  36.196   4.465
72826ION    NA+45894  44.870  34.368  13.496
72827ION    NA+45895  16.145  19.134   3.528
72828ION    NA+45896  32.614  25.382   4.212
72829ION    NA+45897   1.076  29.536  13.389
72830ION    NA+45898  27.402  34.776  11.938
72831ION    NA+45899  36.810  16.403   2.727
72832ION    NA+45900   3.147  36.854   1.342
72833ION    NA+45901  15.725  18.757   3.852
72834ION    NA+45902  11.380  33.864   2.819
72835ION    NA+45903  17.903   5.700  11.014
72836ION    NA+45904  32.526  41.019  12.954
72837ION    NA+45905  10.797   7.910  11.254
72838ION    NA+45906  20.428  22.583   0.329
72839ION    NA+45907   3.784  27.902   2.985
72840ION    NA+45908  41.409   6.812  14.456
72841ION    NA+45909  37.615  11.458   1.982
72842ION    NA+45910  23.488  30.158   1.763
72843ION    NA+45911  39.030  16.810  12.387
72844ION    NA+45912  24.190  37.636   4.357
72845ION    NA+45913  21.150  20.146   1.347
72846ION    NA+45914  42.573   6.828  11.167
72847ION    NA+45915  39.984  16.254  12.200
72848ION    NA+45916  29.945  39.613   2.735
72849ION    NA+45917  20.747  10.387   1.740
72850ION    NA+45918  24.324  36.540  14.375
72851ION    NA+45919  17.232   0.746  13.237
72852ION    NA+45920  17.386  18.621   0.001
72853ION    NA+45921  44.519  32.186   4.511
72854ION    NA+45922  36.725  39.753  10.959
72855ION    NA+45923   4.226  27.728  13.325
72856ION    NA+45924   1.215  13.708   3.802
72857ION    NA+45925  38.259  14.688   2.796
72858ION    NA+45926  35.671  36.220   1.961
72859ION    NA+45927  21.126   4.844  14.580
72860ION    NA+45928   0.991  22.200  11.128
72861ION    NA+45929  26.008  36.880  13.952
72862ION    NA+45930   8.808  32.297   4.285
72863ION    NA+45931   8.549  11.748  14.057
72864ION    NA+45932  28.712  41.477  11.998
72865ION    NA+45933   4.174  40.884   2.005
72866ION    NA+45934  24.372  34.732   4.128
72867ION    NA+45935  13.800  37.257   2.147
72868ION    NA+45936   3.671  17.649   4.501
72869ION    NA+45937  16.174   9.777  12.583
72870ION    NA+45938  22.232  23.445  11.460
72871ION    NA+45939   2.136  27.415   0.087
72872ION    NA+45940  33.868  30.047  12.414
72873ION    NA+45941   1.914  16.037  14.490
72874ION    NA+45942  27.606  19.539  10.585
72875ION    NA+45943  12.807   8.619  13.995
72876ION    NA+45944   4.858  33.020  11.386
72877ION    NA+45945  15.609  30.506  13.204
72878ION    NA+45946  30.842  35.376   0.166
72879ION    NA+45947  14.426   4.833  11.651
72880ION    NA+45948  42.429  32.031   3.070
72881ION    NA+45949  31.381   6.993   4.247
72882ION    NA+45950   5.069  20.401  14.730
72883ION    NA+45951  25.575  43.313  13.440
72884ION    NA+45952   3.049  37.876  12.591
72885ION    NA+45953   5.738  30.623  13.851
72886ION    NA+45954  28.317   1.761   0.402
72887ION    NA+45955  14.110  18.825   2.701
72888ION    NA+45956   6.825  29.528  13.102
72889ION    NA+45957  35.192  29.709  13.780
72890ION    NA+45958  19.890  32.606   3.166
72891ION    NA+45959  30.516  44.368   3.738
72892ION    NA+45960  15.398  16.896   0.315
72893ION    NA+45961  12.392  34.974  13.353
72894ION    NA+45962  25.709   4.108   2.815
72895ION    NA+45963   3.376  41.979   1.483
72896ION    NA+45964  18.169  20.253  14.616
72897ION    NA+45965  15.490   4.831  10.204
72898ION    NA+45966  25.562   6.260   3.068
72899ION    NA+45967  27.621  40.900  14.747
72900ION    NA+45968  26.063  25.728  14.325
72901ION    NA+45969   4.518   8.963  13.090
72902ION    NA+45970  34.628  13.902  11.140
72903ION    NA+45971   5.955   4.492   4.104
72904ION    NA+45972  35.392   1.133   3.669
72905ION    NA+45973   8.706  35.606   0.959
72906ION    NA+45974   1.126  33.768   1.523
72907ION    NA+45975   8.876  33.050   1.200
72908ION    NA+45976  39.223  43.304   2.371
72909ION    NA+45977  29.010   4.743   2.026
72910ION    NA+45978  26.351  14.292  11.233
72911ION    NA+45979  39.542  25.960  13.126
72912ION    NA+45980  28.639  14.196  10.691
72913ION    NA+45981  24.826  22.727   2.409
72914ION    NA+45982  31.221   6.115   1.605
72915ION    NA+45983   3.538  28.477  14.841
72916ION    NA+45984  29.484   1.235   3.264
72917ION    NA+45985  18.593   1.700  11.585
72918ION    NA+45986  17.317   9.943   2.842
72919ION    NA+45987  15.890  26.902   4.563
72920ION    NA+45988  18.809   3.966  11.193
72921ION    NA+45989  27.571  12.380   1.749
72922ION    NA+45990  23.058  34.585  11.090
72923ION    NA+45991  29.759  21.277  13.998
72924ION    NA+45992  19.299  39.587   0.971
72925ION    NA+45993  10.246  28.806   4.401
72926ION    NA+45994   6.712   4.967   3.655
72927ION    NA+45995   4.485  40.180   1.342
72928ION    NA+45996  12.993  19.612  11.936
72929ION    NA+45997  36.335  31.409   4.169
72930ION    NA+45998  12.649  18.739  12.102
72931ION    NA+45999  40.894  41.571   1.273
72932ION    NA+46000  32.430  16.578  13.076
72933ION    NA+46001  32.794  10.307  11.331
72934ION    NA+46002   5.037   0.558   9.760
72935ION    NA+46003  41.009  14.177  11.607
72936ION    NA+46004  12.057  35.389   4.554
72937ION    NA+46005   9.056  33.390   2.755
72938ION    NA+46006  28.950   0.266  10.874
72939ION    NA+46007  36.745   7.940   0.746
72940ION    NA+46008  32.684   5.022   0.041
72941ION    NA+46009  18.052  18.608  12.434
72942ION    NA+46010  12.810  41.530  10.659
72943ION    NA+46011  20.912   0.361   3.708
72944ION    NA+46012  25.761  15.509  11.648
72945ION    NA+46013   6.271  37.930   1.872
72946ION    NA+46014  18.577  25.881  10.451
72947ION    NA+46015  10.072   2.103   3.163
72948ION    NA+46016   8.366  14.164   4.213
72949ION    NA+46017  18.063   5.850   3.646
72950ION    NA+46018  33.375  35.714  13.938
72951ION    NA+46019   7.929   4.241   2.230
72952ION    NA+46020   2.630  22.199   0.516
72953ION    NA+46021  16.963   0.411   4.147
72954ION    NA+46022  30.905  44.040   2.796
72955ION    NA+46023  13.831  43.366   0.394
72956ION    NA+46024  36.854   7.955  12.546
72957ION    NA+46025  11.872  42.182  10.784
72958ION    NA+46026  13.603  34.673   4.612
72959ION    NA+46027   7.927   6.550   0.433
72960ION    NA+46028   0.360   1.460  10.657
72961ION    NA+46029  18.075  12.767  14.276
72962ION    NA+46030  33.053  37.037   3.288
72963ION    NA+46031  40.361  37.522   2.334
72964ION    NA+46032  13.579  15.615  14.363
72965ION    NA+46033  38.835   5.829  10.679
72966ION    NA+46034  17.374   3.611   0.891
72967ION    NA+46035  31.405  29.084   3.130
72968ION    NA+46036  12.453  24.643   3.719
72969ION    NA+46037  22.315  43.837  14.033
72970ION    NA+46038   2.259  22.255   3.461
72971ION    NA+46039   5.263  13.217  14.977
72972ION    NA+46040  15.186   5.966  10.679
72973ION    NA+46041  23.485   4.819  12.536
72974ION    NA+46042  42.454  22.486  14.272
72975ION    NA+46043  13.588   0.359  12.432
72976ION    NA+46044  29.606  42.475  11.460
72977ION    NA+46045  23.977  16.371  14.430
72978ION    NA+46046  38.504   1.808   4.295
72979ION    NA+46047  18.550  15.261   1.925
72980ION    NA+46048  29.092  23.339   0.989
72981ION    NA+46049  27.359  10.329   0.342
72982ION    NA+46050   7.344  31.420   4.477
72983ION    NA+46051  42.005  15.513  12.827
72984ION    NA+46052  35.130  33.086  14.172
72985ION    NA+46053  20.184  43.805   9.948
72986ION    NA+46054   7.505  40.239   4.713
72987ION    NA+46055  34.098  19.776  12.623
72988ION    NA+46056  16.633  24.412   2.293
72989ION    NA+46057  32.018   3.927  11.061
72990ION    NA+46058  17.767  21.107   1.851
72991ION    NA+46059  29.722  27.188   0.887
72992ION    NA+46060  24.730  35.489   4.795
72993ION    NA+46061  39.410  17.294   4.656
72994ION    NA+46062  12.352  16.816  10.064
72995ION    NA+46063   2.937  40.013   3.806
72996ION    NA+46064  34.489  20.595   3.329
72997ION    NA+46065  22.590  36.414   1.420
72998ION    NA+46066  13.250   6.945  11.394
72999ION    NA+46067   5.719  14.721  14.737
73000ION    NA+46068  40.754  28.527  12.997
73001ION    NA+46069  13.885  16.755  13.842
73002ION    NA+46070   3.339  10.350   5.038
73003ION    NA+46071  16.621  11.857  11.954
73004ION    NA+46072  43.211  31.134  14.355
73005ION    NA+46073  33.950  40.111   0.953
73006ION    NA+46074  27.591  44.629   3.475
73007ION    NA+46075  23.707  35.689   2.439
73008ION    NA+46076  25.440   4.164   4.069
73009ION    NA+46077  23.537  10.256   2.922
73010ION    NA+46078  14.079  40.328  10.285
73011ION    NA+46079  31.921  41.483   3.554
73012ION    NA+46080  41.561  13.320  13.341
73013ION    NA+46081   2.116  20.969   1.844
73014ION    NA+46082  36.476  24.186   0.038
73015ION    NA+46083   3.062  33.670  13.156
73016ION    NA+46084  37.285  34.149  13.443
73017ION    NA+46085  30.279   5.263  10.904
73018ION    NA+46086   5.099   9.071  13.776
73019ION    NA+46087  16.515   5.307   4.337
73020ION    NA+46088  13.382  14.524  13.374
73021ION    NA+46089  12.924  14.752   3.081
73022ION    NA+46090  29.698  28.628  11.748
73023ION    NA+46091  40.162  41.035   1.371
73024ION    NA+46092   0.750  25.057   2.312
73025ION    NA+46093  30.220  36.366  13.489
73026ION    NA+46094  16.371  36.842   1.122
73027ION    NA+46095  33.656  34.107  14.673
73028ION    NA+46096   8.501  32.636  14.903
73029ION    NA+46097  30.377   2.505   4.965
73030ION    NA+46098  15.655  37.557  14.811
73031ION    NA+46099  23.517  34.920  14.521
73032ION    NA+46100   1.046  38.775   4.464
73033ION    NA+46101  24.408  33.568  14.422
73034ION    NA+46102  29.071  18.201   3.346
73035ION    NA+46103  31.970  27.490   2.806
73036ION    NA+46104  17.703  22.987  13.788
73037ION    NA+46105  37.695  25.066   1.286
73038ION    NA+46106  27.632  42.900   1.471
73039ION    NA+46107  22.879   9.957  14.464
73040ION    NA+46108  22.353   3.872   3.319
73041ION    NA+46109  10.847  35.376   1.822
73042ION    NA+46110  37.207  16.779   4.307
73043ION    NA+46111  41.062   2.114  11.504
73044ION    NA+46112   3.067  26.215   0.703
73045ION    NA+46113   4.895  29.728   4.668
73046ION    NA+46114  20.667  24.234  11.251
73047ION    NA+46115  13.571  30.784   9.852
73048ION    NA+46116   5.730   9.828   2.687
73049ION    NA+46117   9.618  35.864   1.899
73050ION    NA+46118   5.746  32.641  14.303
73051ION    NA+46119  33.744   1.592  14.045
73052ION    NA+46120  41.158   0.603  14.903
73053ION    NA+46121  31.023  41.714  13.145
73054ION    NA+46122  11.689  30.125   3.642
73055ION    NA+46123  42.707  11.620  13.618
73056ION    NA+46124  41.838  44.746  13.743
73057ION    NA+46125  24.612  35.984   3.934
73058ION    NA+46126  29.078  15.786  13.577
73059ION    NA+46127  18.227  21.242  14.485
73060ION    NA+46128   6.435  21.569   3.041
73061ION    NA+46129  26.093   7.004   2.409
73062ION    NA+46130  28.716  40.739  14.380
73063ION    NA+46131   0.748  38.016  12.097
73064ION    NA+46132  37.229  18.800   1.589
73065ION    NA+46133   6.487   7.894   1.764
73066ION    NA+46134   3.872  20.915  12.447
73067ION    NA+46135  43.759  25.548   0.181
73068ION    NA+46136  28.137  24.061   1.023
73069ION    NA+46137   4.527  29.403   2.625
73070ION    NA+46138  18.213  41.705   1.909
73071ION    NA+46139  27.396  19.782   0.024
73072ION    NA+46140  35.839  31.673  13.481
73073ION    NA+46141  44.352   0.388   1.724
73074ION    NA+46142  19.728   4.940   1.436
73075ION    NA+46143  30.578  19.844  14.274
73076ION    NA+46144  34.793  36.588  11.994
73077ION    NA+46145   2.211   3.056  10.997
73078ION    NA+46146  20.710  19.843  12.474
73079ION    NA+46147  15.335  25.999   3.341
73080ION    NA+46148  24.734   7.701   3.136
73081ION    NA+46149  19.277  29.866   2.537
73082ION    NA+46150   4.838  28.905  13.155
73083ION    NA+46151  14.176  14.375  12.416
73084ION    NA+46152  10.170   2.501   0.858
73085ION    NA+46153  11.553  31.412  13.720
73086ION    NA+46154  22.692  15.056   4.181
73087ION    NA+46155  28.858  38.037   3.415
73088ION    NA+46156   3.146   8.013  13.016
73089ION    NA+46157  29.934  41.269  10.657
73090ION    NA+46158  14.460  19.704   3.684
73091ION    NA+46159  27.031  21.782   3.144
73092ION    NA+46160  11.600  12.557   2.884
73093ION    NA+46161   5.290  19.926   3.145
73094ION    NA+46162   4.908   5.574   1.058
73095ION    NA+46163  38.125  16.454  14.969
73096ION    NA+46164  41.223  43.200  10.722
73097ION    NA+46165  15.642  17.676  13.406
73098ION    NA+46166   1.986  32.441   3.791
73099ION    NA+46167  29.407  44.724   0.699
73100ION    NA+46168   6.967   5.291  12.899
73101ION    NA+46169  37.751  22.633  14.476
73102ION    NA+46170  39.899   4.059   1.191
73103ION    NA+46171   0.866   5.936  13.961
73104ION    NA+46172  24.744  41.404   0.788
73105ION    NA+46173   1.855   1.208  12.467
73106ION    NA+46174  16.839  16.296   2.156
73107ION    NA+46175  40.467  38.806   3.258
73108ION    NA+46176  31.078  14.433   4.263
73109ION    NA+46177   7.513   3.475  14.266
73110ION    NA+46178   5.919  12.445  14.301
73111ION    NA+46179  40.557   3.231  13.285
73112ION    NA+46180  41.093  36.477   1.683
73113ION    NA+46181  20.249   1.043   5.040
73114ION    NA+46182   9.155   9.351  10.730
73115ION    NA+46183   4.918   9.454  12.317
73116ION    NA+46184  35.710  18.854  13.233
73117ION    NA+46185  38.202  37.515   4.797
73118ION    NA+46186  13.845  35.022  10.703
73119ION    NA+46187  34.972  17.074   9.721
73120ION    NA+46188  30.244  20.775   3.272
73121ION    NA+46189  39.189  35.002   2.170
73122ION    NA+46190  11.992  16.348  14.120
73123ION    NA+46191   8.910  14.069   0.129
73124ION    NA+46192  37.543  26.011  12.938
73125ION    NA+46193  11.203  36.942  12.799
73126ION    NA+46194  35.548  24.503  13.994
73127ION    NA+46195  40.520   5.739   5.585
73128ION    NA+46196  30.263  26.134   3.089
73129ION    NA+46197  18.915  14.755   2.832
73130ION    NA+46198  36.356  40.516  12.416
73131ION    NA+46199   7.343  32.466  12.586
73132ION    NA+46200  33.515   9.923   4.710
73133ION    NA+46201  18.127  37.908  13.944
73134ION    NA+46202  41.966  33.496   2.875
73135ION    NA+46203  30.098  24.592  11.549
73136ION    NA+46204   4.979  24.872  13.875
73137ION    NA+46205  34.863  34.620   4.618
73138ION    NA+46206  23.098  12.213   4.626
73139ION    NA+46207  41.410  38.789  12.666
73140ION    NA+46208  14.379   8.327   2.327
73141ION    NA+46209  30.366  11.097   2.926
73142ION    NA+46210  29.865  28.685   3.557
73143ION    NA+46211  10.404  10.755  10.234
73144ION    NA+46212  42.518  13.175  11.615
73145ION    NA+46213  37.367  15.989   0.125
73146ION    NA+46214  17.081  12.459  11.301
73147ION    NA+46215   2.391   7.795  14.503
73148ION    NA+46216   9.092  28.182  11.253
73149ION    NA+46217  12.497  22.508  11.653
73150ION    NA+46218  29.912  20.463  14.114
73151ION    NA+46219  14.664   6.300   1.892
73152ION    NA+46220  13.887  40.246  11.408
73153ION    NA+46221  36.367   9.539  14.253
73154ION    NA+46222  18.683   3.667  13.552
73155ION    NA+46223  44.205   2.886   4.368
73156ION    NA+46224  30.006   2.957  11.507
73157ION    NA+46225  44.018  11.989  13.045
73158ION    NA+46226   7.324  24.707   3.911
73159ION    NA+46227   5.522  40.048  10.900
73160ION    NA+46228  31.009   6.969  14.775
73161ION    NA+46229   7.392  14.295  11.554
73162ION    NA+46230  12.449  35.899   2.558
73163ION    NA+46231   4.425  12.736   0.235
73164ION    NA+46232  17.524   5.513   0.397
73165ION    NA+46233  36.746  18.241   0.279
73166ION    NA+46234   9.448  34.246   1.270
73167ION    NA+46235  34.721  35.206  13.574
73168ION    NA+46236  18.057  24.670  12.494
73169ION    NA+46237  25.723  44.363  12.624
73170ION    NA+46238  11.351  31.478   3.901
73171ION    NA+46239  29.892  33.245  12.056
73172ION    NA+46240  38.112  40.260   0.589
73173ION    NA+46241  16.114  16.961  12.590
73174ION    NA+46242  10.470  11.478   0.407
73175ION    NA+46243  42.168  19.744  11.953
73176ION    NA+46244  41.057   7.352   1.872
73177ION    NA+46245  29.938   1.830  14.867
73178ION    NA+46246   5.321  35.330  12.484
73179ION    NA+46247  14.864  41.613   3.110
73180ION    NA+46248  12.628  27.471   4.903
73181ION    NA+46249   8.390  36.991   2.298
73182ION    NA+46250  25.202  39.520   4.911
73183ION    NA+46251   5.505  19.321  11.122
73184ION    NA+46252  20.829   6.483  11.267
73185ION    NA+46253  19.535   7.573  10.746
73186ION    NA+46254  24.687   4.114  13.404
73187ION    NA+46255  31.511  25.936  12.523
73188ION    NA+46256  31.786  42.951   9.811
73189ION    NA+46257   6.819  30.940  10.709
73190ION    NA+46258  11.858  30.886  14.513
73191ION    NA+46259  27.718   4.220   0.383
73192ION    NA+46260  25.557  18.837   3.481
73193ION    NA+46261  37.188  41.188  13.244
73194ION    NA+46262  16.218  19.034   2.086
73195ION    NA+46263  34.051   4.689   0.109
73196ION    NA+46264  31.592  35.308  11.287
73197ION    NA+46265  39.374  41.883   0.260
73198ION    NA+46266  15.635  34.554   3.240
73199ION    NA+46267  25.991  33.875  13.931
73200ION    NA+46268  15.554   4.038  13.891
73201ION    NA+46269   1.961  15.324   2.975
73202ION    NA+46270   1.595  22.726   3.041
73203ION    NA+46271  28.912  31.907   2.559
73204ION    NA+46272  35.823  20.288   3.397
73205ION    NA+46273  10.254  30.833  10.347
73206ION    NA+46274   1.212  24.243   1.299
73207ION    NA+46275   8.929  21.975  10.938
73208ION    NA+46276  43.707  41.024   3.676
73209ION    NA+46277  14.794  15.310   2.172
73210ION    NA+46278  19.528  25.916  12.916
73211ION    NA+46279   9.416  13.474  11.125
73212ION    NA+46280   1.911   6.061  14.465
73213ION    NA+46281  40.566  43.856  14.632
73214ION    NA+46282  13.806  11.262   4.154
73215ION    NA+46283  20.123   8.380  10.793
73216ION    NA+46284  22.629   1.050   0.348
73217ION    NA+46285  20.351  32.426   0.533
73218ION    NA+46286   8.193   7.327  14.332
73219ION    NA+46287  32.983   5.293  12.083
73220ION    NA+46288   6.539   0.986  13.757
73221ION    NA+46289  37.591  14.837   4.466
73222ION    NA+46290   4.160  36.949  12.399
73223ION    NA+46291   3.809  36.073   0.176
73224ION    NA+46292  32.885  36.713   1.481
73225ION    NA+46293  25.587  22.181  14.035
73226ION    NA+46294  28.528   2.912  13.980
73227ION    NA+46295  38.077  33.677  14.554
73228ION    NA+46296  12.104  13.501   3.885
73229ION    NA+46297  31.115   3.097   3.355
73230ION    NA+46298  22.012   1.523  13.961
73231ION    NA+46299  15.820  25.493  14.781
73232ION    NA+46300   9.179  11.631  12.361
73233ION    NA+46301  41.403   6.096  14.876
73234ION    NA+46302  42.880   0.325   0.634
73235ION    NA+46303   9.324  20.095   0.280
73236ION    NA+46304  40.754   8.597  11.732
73237ION    NA+46305  43.737   7.437  14.359
73238ION    NA+46306  28.959  32.562   3.333
73239ION    NA+46307  13.386   3.376  11.758
73240ION    NA+46308  24.126  34.244   3.419
73241ION    NA+46309  22.695  32.594  14.877
73242ION    NA+46310   8.284  38.517  11.591
73243ION    NA+46311  19.814   1.094   3.913
73244ION    NA+46312  37.222  18.114   3.701
73245ION    NA+46313   7.300  29.607   3.110
73246ION    NA+46314  44.650  27.824  13.536
73247ION    NA+46315  43.962  20.826  11.183
73248ION    NA+46316  43.218  35.520  11.617
73249ION    NA+46317  39.370   1.020   2.969
73250ION    NA+46318  18.398  14.166  11.012
73251ION    NA+46319  31.162  25.045   3.610
73252ION    NA+46320   2.071  36.075   2.062
73253ION    NA+46321  11.777   2.908   4.920
73254ION    NA+46322   7.209   3.142   1.456
73255ION    NA+46323  20.625   1.646   1.472
73256ION    NA+46324  32.151  13.928  13.523
73257ION    NA+46325  37.234  24.497   3.137
73258ION    NA+46326   5.885  41.030  12.200
73259ION    NA+46327  25.837  11.560   0.813
73260ION    NA+46328  29.581  14.398   3.022
73261ION    NA+46329  17.413  14.054   3.346
73262ION    NA+46330  41.875   8.740  11.412
73263ION    NA+46331  40.320  36.088  12.468
73264ION    NA+46332   9.264   1.482   1.574
73265ION    NA+46333   7.945   0.011   2.567
73266ION    NA+46334  21.952   1.811   4.575
73267ION    NA+46335   1.278  24.772   3.000
73268ION    NA+46336  41.977  16.822   5.422
73269ION    NA+46337  37.823  32.724   1.799
73270ION    NA+46338  40.605  43.874   1.790
73271ION    NA+46339   8.854   3.485   1.460
73272ION    NA+46340  23.157  19.587   3.398
73273ION    NA+46341  33.721  28.336  14.731
73274ION    NA+46342  38.881  28.405   3.720
73275ION    NA+46343  37.228   9.983  11.122
73276ION    NA+46344  35.177  43.754  14.957
73277ION    NA+46345  19.046  10.288  11.653
73278ION    NA+46346  43.605  10.954   0.685
73279ION    NA+46347  44.178   7.737   3.742
73280ION    NA+46348  30.641  36.846   4.844
73281ION    NA+46349  14.779  39.033  12.047
73282ION    NA+46350  26.227  35.616  13.449
73283ION    NA+46351  32.006  30.878   1.172
73284ION    NA+46352  21.522   5.974  13.834
73285ION    NA+46353   1.888   7.683   1.720
73286ION    NA+46354  14.241  15.281   0.383
73287ION    NA+46355  40.994  37.731  14.970
73288ION    NA+46356  30.379  15.751  14.783
73289ION    NA+46357  40.463   1.772   4.098
73290ION    NA+46358  18.626  20.295   4.487
73291ION    NA+46359  17.951  10.174   4.177
73292ION    NA+46360  12.986   2.430   1.506
73293ION    NA+46361   6.111  12.210   0.523
73294ION    NA+46362  40.319   1.952   5.582
73295ION    NA+46363  21.622  44.425  13.615
73296ION    NA+46364  29.975  35.543  12.976
73297ION    NA+46365  10.369   0.745  12.525
73298ION    NA+46366  23.061  11.757   3.212
73299ION    NA+46367  34.430  32.801   4.197
73300ION    NA+46368  42.975  29.820  10.707
73301ION    NA+46369   4.912  31.343   2.512
73302ION    NA+46370  32.642  34.928   2.769
73303ION    NA+46371  22.260  11.470   4.572
73304ION    NA+46372  32.012  34.123   0.525
73305ION    NA+46373  39.676   3.176   0.600
73306ION    NA+46374  38.464  22.580   1.964
73307ION    NA+46375  42.133   7.130   1.912
73308ION    NA+46376   1.930   2.887   1.789
73309ION    NA+46377   6.378  25.900  12.969
73310ION    NA+46378   2.899  20.874  11.820
73311ION    NA+46379  14.343  36.341   1.973
73312ION    NA+46380  16.025  38.309  12.369
73313ION    NA+46381  13.293  42.501  13.856
73314ION    NA+46382  37.751  32.932  14.502
73315ION    NA+46383   7.969  44.810  13.606
73316ION    NA+46384  32.440  25.149   1.871
73317ION    NA+46385  35.069  23.404  13.308
73318ION    NA+46386  25.856  16.789   0.414
73319ION    NA+46387  34.914  28.694   2.977
73320ION    NA+46388  20.711  34.570  12.937
73321ION    NA+46389   5.143  43.891   2.261
73322ION    NA+46390  15.300  19.199  11.950
73323ION    NA+46391  12.288  34.322   4.654
73324ION    NA+46392  17.888  36.230  13.523
73325ION    NA+46393  35.659  44.059  12.109
73326ION    NA+46394  20.143  40.202  12.941
73327ION    NA+46395  29.135   3.492   1.792
73328ION    NA+46396  44.842  31.136  11.982
73329ION    NA+46397   0.398  18.378  13.802
73330ION    NA+46398  34.102   9.266   0.536
73331ION    NA+46399   5.946  23.356   3.780
73332ION    NA+46400   2.751  20.642   2.812
73333ION    NA+46401  15.533   0.478  11.669
73334ION    NA+46402   8.889  27.559   0.931
73335ION    NA+46403  43.574  43.399  13.805
73336ION    NA+46404  43.574  18.111   2.866
73337ION    NA+46405  22.547   9.845   3.943
73338ION    NA+46406  26.110  10.292  11.819
73339ION    NA+46407  34.455  27.440  12.461
73340ION    NA+46408   5.815  37.542   3.658
73341ION    NA+46409  41.333  25.377  14.026
73342ION    NA+46410  23.602  35.987  10.893
73343ION    NA+46411  25.044  11.568   4.753
73344ION    NA+46412  21.127  22.580  13.312
73345ION    NA+46413  20.061  13.385  11.204
73346ION    NA+46414   4.524   3.014  11.087
73347ION    NA+46415  18.285   6.130   2.712
73348ION    NA+46416   8.662  34.248   3.365
73349ION    NA+46417   3.993  17.117  10.742
73350ION    NA+46418  38.850  39.575  13.312
73351ION    NA+46419   4.800  27.462  14.305
73352ION    NA+46420   9.332  43.749  11.570
73353ION    NA+46421  31.552  33.932  14.295
73354ION    NA+46422  41.831  13.829   4.592
73355ION    NA+46423  23.458  16.358  11.422
73356ION    NA+46424  15.417   0.349   1.469
73357ION    NA+46425  18.441   6.625  13.167
73358ION    NA+46426  34.313  27.182   1.543
73359ION    NA+46427  35.301  37.804   1.700
73360ION    NA+46428  16.728  30.888  11.230
73361ION    NA+46429   1.771  37.071   2.366
73362ION    NA+46430  20.342  10.436  10.621
73363ION    NA+46431  37.684  33.824  10.444
73364ION    NA+46432  21.150  33.602   1.427
73365ION    NA+46433  44.994  40.031   1.370
73366ION    NA+46434  20.797  43.778  10.627
73367ION    NA+46435   8.761  40.112   4.152
73368ION    NA+46436   0.255  15.166  13.302
73369ION    NA+46437  14.883  25.660  13.818
73370ION    NA+46438  26.955   3.240   3.876
73371ION    NA+46439  33.687   9.156   3.099
73372ION    NA+46440  37.501   3.346  14.430
73373ION    NA+46441  15.574  29.685  12.002
73374ION    NA+46442  44.697  19.623   3.054
73375ION    NA+46443  43.734  41.534   4.577
73376ION    NA+46444   5.564  37.487   0.364
73377ION    NA+46445  38.760  18.262  13.468
73378ION    NA+46446  26.479  35.172   0.003
73379ION    NA+46447   6.249  18.973  12.421
73380ION    NA+46448   7.141  19.797   2.403
73381ION    NA+46449   7.278  36.588  14.671
73382ION    NA+46450   0.213   5.736  13.195
73383ION    NA+46451  26.483  36.749   2.264
73384ION    NA+46452  34.468  37.436   0.675
73385ION    NA+46453  37.312  37.488  14.681
73386ION    NA+46454  41.064  26.568   2.695
73387ION    NA+46455   7.887  15.175   2.099
73388ION    NA+46456  27.137  15.741  10.069
73389ION    NA+46457   2.563  34.873  14.980
73390ION    NA+46458  39.766   7.237  10.632
73391ION    NA+46459   8.269  33.163  14.219
73392ION    NA+46460  23.229  23.597   0.326
73393ION    NA+46461  13.283   0.534   0.313
73394ION    NA+46462  24.049   5.690  14.334
73395ION    NA+46463  29.046   2.663   2.345
73396ION    NA+46464  40.802  34.470   0.364
73397ION    NA+46465  27.316  35.278  11.266
73398ION    NA+46466  39.358   1.048   0.748
73399ION    NA+46467  42.310  27.787   2.734
73400ION    NA+46468  23.193  19.070   0.381
73401ION    NA+46469  35.160  19.825   1.139
73402ION    NA+46470  10.593  35.693   5.173
73403ION    NA+46471  43.325  18.459   3.770
73404ION    NA+46472  13.783  16.555   1.429
73405ION    NA+46473  13.643  37.132   3.052
73406ION    NA+46474   3.367   4.066   9.947
73407ION    NA+46475  33.471  17.984   4.083
73408ION    NA+46476  39.742  42.657  14.964
73409ION    NA+46477  14.852  16.565  11.957
73410ION    NA+46478  35.582  10.749   3.020
73411ION    NA+46479  10.870  21.654  12.590
73412ION    NA+46480  16.293  12.251  14.040
73413ION    NA+46481  44.232  16.376   0.239
73414ION    NA+46482  33.288   2.544  11.074
73415ION    NA+46483   9.427  17.164   0.764
73416ION    NA+46484  33.521  37.916  13.677
73417ION    NA+46485  31.949  33.334   3.340
73418ION    NA+46486  39.088  10.224   1.191
73419ION    NA+46487  34.442   5.412  14.539
73420ION    NA+46488  10.430  27.947   4.183
73421ION    NA+46489  24.113  41.801   0.466
73422ION    NA+46490  19.661  14.427  11.494
73423ION    NA+46491  17.680  37.201  12.358
73424ION    NA+46492  30.914  39.370   2.778
73425ION    NA+46493   1.231  19.870  11.359
73426ION    NA+46494   6.773   3.268  12.601
73427ION    NA+46495   3.276  12.799  11.199
73428ION    NA+46496  34.734  42.758  12.871
73429ION    NA+46497  20.203  37.142   3.698
73430ION    NA+46498   9.573  14.830  11.072
73431ION    NA+46499  42.086  28.711  11.374
73432ION    NA+46500  24.024  35.097   0.424
73433ION    NA+46501  29.554  39.076   1.337
73434ION    NA+46502  17.185   3.847  12.953
73435ION    NA+46503  44.911  12.005  14.306
73436ION    NA+46504  20.755  35.101   3.069
73437ION    NA+46505  34.088  17.639  12.854
73438ION    NA+46506  17.117  28.480  13.439
73439ION    NA+46507  16.694  23.304   4.571
73440ION    NA+46508  30.829  11.877   3.056
73441ION    NA+46509  19.532  29.262   3.140
73442ION    NA+46510  30.044  10.770  12.474
73443ION    NA+46511   1.374  33.786   0.076
73444ION    NA+46512  32.387  40.866  14.483
73445ION    NA+46513  19.360  15.804   2.819
73446ION    NA+46514  19.043  44.439   3.198
73447ION    NA+46515   7.910   6.195  14.481
73448ION    NA+46516   4.622  29.803   0.645
73449ION    NA+46517  12.397  28.020  14.830
73450ION    NA+46518   7.374  17.569   2.861
73451ION    NA+46519  31.893  14.029  11.652
73452ION    NA+46520  26.894   5.783   2.625
73453ION    NA+46521  17.874   1.249  13.703
73454ION    NA+46522  33.140  44.700   2.379
73455ION    NA+46523  12.574  40.669  13.212
73456ION    NA+46524  23.982  20.458  14.970
73457ION    NA+46525  43.036  42.017   0.380
73458ION    NA+46526  32.618   2.865   0.146
73459ION    NA+46527  28.311  27.103  10.405
73460ION    NA+46528  16.572  21.549  11.635
73461ION    NA+46529  20.965  31.357  10.509
73462ION    NA+46530   9.397  25.301  11.054
73463ION    NA+46531   1.452  38.482   1.110
73464ION    NA+46532  21.838  40.364   3.159
73465ION    NA+46533   4.491   7.688  13.933
73466ION    NA+46534  35.086  24.399   0.479
73467ION    NA+46535  18.750  33.500  13.792
73468ION    NA+46536  29.384  11.299  10.625
73469ION    NA+46537   6.347   1.812   4.130
73470ION    NA+46538   4.020   7.530  13.065
73471ION    NA+46539  20.297  27.898  13.946
73472ION    NA+46540  37.666  25.540   2.684
73473ION    NA+46541  40.134  24.917   3.889
73474ION    NA+46542  29.137  24.642  13.260
73475ION    NA+46543  36.655  27.040  14.571
73476ION    NA+46544  40.287  29.268   1.919
73477ION    NA+46545   1.965  42.340   0.041
73478ION    NA+46546  18.705  35.884   5.434
73479ION    NA+46547  26.754  35.923   1.769
73480ION    NA+46548  16.479  35.102  14.145
73481ION    NA+46549  18.637  11.273   0.075
73482ION    NA+46550  13.201  16.451  11.113
73483ION    NA+46551   3.099  35.090   3.553
73484ION    NA+46552  18.759  21.680   1.276
73485ION    NA+46553  15.037   5.292  11.998
73486ION    NA+46554   0.117  38.281   1.252
73487ION    NA+46555   6.628  35.581   3.845
73488ION    NA+46556  10.305  29.278   2.478
73489ION    NA+46557  20.739  32.875  10.020
73490ION    NA+46558   4.419  23.196  11.563
73491ION    NA+46559   8.906  16.524   3.386
73492ION    NA+46560  26.171  20.379   2.730
73493ION    NA+46561  18.596   5.931   4.488
73494ION    NA+46562  26.946  29.362   4.506
73495ION    NA+46563  19.510  11.149  10.775
73496ION    NA+46564  21.903  44.904   0.002
73497ION    NA+46565  13.131   9.891  13.889
73498ION    NA+46566  41.521  40.445  14.280
73499ION    NA+46567  12.636  43.863  11.558
73500ION    NA+46568  23.502  27.577  14.844
73501ION    NA+46569   9.811  22.744   1.715
73502ION    NA+46570  39.384  29.950   0.876
73503ION    NA+46571  23.597  32.436  11.540
73504ION    NA+46572  14.256  19.337   0.508
73505ION    NA+46573  34.768  44.159  12.025
73506ION    NA+46574  30.910   5.679  11.558
73507ION    NA+46575  11.146  20.892   2.637
73508ION    NA+46576   0.278  37.392   4.354
73509ION    NA+46577  27.840  11.906   0.527
73510ION    NA+46578  44.535  18.213   1.916
73511ION    NA+46579  22.501  35.227   2.829
73512ION    NA+46580  30.725   6.179   0.738
73513ION    NA+46581  11.716  15.306   0.883
73514ION    NA+46582  35.586  37.765   4.665
73515ION    NA+46583   2.115   6.629  13.285
73516ION    NA+46584  19.981  32.476  14.712
73517ION    NA+46585   1.452  37.066  10.308
73518ION    NA+46586  36.228  34.423   4.730
73519ION    NA+46587  31.339  15.889   4.047
73520ION    NA+46588  18.636  41.634  14.954
73521ION    NA+46589  29.103   2.899   0.987
73522ION    NA+46590   8.439   3.132  13.845
73523ION    NA+46591   5.604  35.855   4.006
73524ION    NA+46592  29.947   9.291  11.095
73525ION    NA+46593  38.249  30.411  12.873
73526ION    NA+46594  30.133  21.931   0.952
73527ION    NA+46595   3.261  12.502   2.076
73528ION    NA+46596  25.688  38.560   4.180
73529ION    NA+46597   9.713  11.057   3.673
73530ION    NA+46598   3.080  12.702  13.158
73531ION    NA+46599  41.585   4.959  12.063
73532ION    NA+46600  24.710   1.903  11.533
73533ION    NA+46601  19.800  29.934   1.369
73534ION    NA+46602  39.946  22.035  11.558
73535ION    NA+46603   2.339  35.546   0.523
73536ION    NA+46604   9.665   2.352   4.035
73537ION    NA+46605  20.241  14.047   4.364
73538ION    NA+46606  28.154  37.375  10.298
73539ION    NA+46607  36.666  31.522  14.735
73540ION    NA+46608  31.767  10.834   4.144
73541ION    NA+46609  18.199   8.968   1.229
73542ION    NA+46610  10.314  32.154  14.906
73543ION    NA+46611  41.843  34.631  12.664
73544ION    NA+46612  41.961  26.531   0.787
73545ION    NA+46613  11.114   3.983   2.014
73546ION    NA+46614  13.042  20.498  10.755
73547ION    NA+46615  17.925   2.813   1.304
73548ION    NA+46616  29.993  15.032  10.709
73549ION    NA+46617  36.617  40.511  11.448
73550ION    NA+46618  19.683  25.536  10.746
73551ION    NA+46619  41.007  21.939   4.513
73552ION    NA+46620   3.052   3.370   3.637
73553ION    NA+46621   4.431   2.904   3.309
73554ION    NA+46622  15.625  28.704   2.863
73555ION    NA+46623  30.484  15.733   5.368
73556ION    NA+46624  39.869  42.009   2.305
73557ION    NA+46625   4.988  21.244  10.994
73558ION    NA+46626  27.591   9.621   3.736
73559ION    NA+46627  35.792  26.769  14.570
73560ION    NA+46628  17.275  12.729  10.358
73561ION    NA+46629  35.341   8.871  11.597
73562ION    NA+46630  31.864  35.637   3.330
73563ION    NA+46631   3.234  18.251   1.105
73564ION    NA+46632  30.955  43.904   4.663
73565ION    NA+46633  28.109  24.440  14.331
73566ION    NA+46634  13.458  44.483  10.927
73567ION    NA+46635  42.919  23.785   3.442
73568ION    NA+46636  28.360  28.993   1.196
73569ION    NA+46637  37.853   2.445  11.603
73570ION    NA+46638  42.348  42.474   1.702
73571ION    NA+46639  25.498  21.810   3.979
73572ION    NA+46640  35.811  13.871   3.491
73573ION    NA+46641  44.309  10.959   5.345
73574ION    NA+46642  33.406  11.740  10.421
73575ION    NA+46643  11.522  22.723  11.600
73576ION    NA+46644  23.833  22.703   2.165
73577ION    NA+46645  19.494  11.820  14.399
73578ION    NA+46646   8.691  29.264  12.383
73579ION    NA+46647  23.747  15.000  12.569
73580ION    NA+46648  36.266  42.126  12.377
73581ION    NA+46649  21.493  26.122  14.526
73582ION    NA+46650  43.698  26.712  13.087
73583ION    NA+46651  21.784  38.298   0.900
73584ION    NA+46652  34.361  12.906  11.244
73585ION    NA+46653  33.756  25.735   3.085
73586ION    NA+46654   8.121  25.867   0.934
73587ION    NA+46655  31.500   7.280   2.899
73588ION    NA+46656  16.221   3.289   4.588
73589ION    NA+46657   1.576  37.817   3.092
73590ION    NA+46658  44.025  41.572  11.989
73591ION    NA+46659  20.998  14.906  12.332
73592ION    NA+46660   8.162  34.836  13.444
73593ION    NA+46661  14.730  12.011   9.813
73594ION    NA+46662   1.900  24.469  14.695
73595ION    NA+46663  14.492  37.707   3.062
73596ION    NA+46664  24.941   7.312  14.946
73597ION    NA+46665  20.272   7.768   4.546
73598ION    NA+46666  22.150  24.310   4.675
73599ION    NA+46667  14.911  14.655   3.348
73600ION    NA+46668  16.728   7.724  11.742
73601ION    NA+46669  17.940  37.770  12.558
73602ION    NA+46670  36.093   3.266  11.141
73603ION    NA+46671  10.817  44.808   2.805
73604ION    NA+46672  35.468   1.490   1.311
73605ION    NA+46673  34.036  24.712  12.035
73606ION    NA+46674  43.016   5.331  11.824
73607ION    NA+46675  44.051   0.919  12.823
73608ION    NA+46676  13.924  33.649   2.830
73609ION    NA+46677  28.565   9.252   0.951
73610ION    NA+46678   2.677  12.075  13.622
73611ION    NA+46679  44.931  20.600  12.373
73612ION    NA+46680  16.207  19.799   2.729
73613ION    NA+46681   3.464  35.618   4.583
73614ION    NA+46682  27.171  12.835  12.098
73615ION    NA+46683  24.239  28.743  14.511
73616ION    NA+46684  39.386  39.711  12.617
73617ION    NA+46685  39.584  17.414  14.670
73618ION    NA+46686  12.764  10.655  14.966
73619ION    NA+46687  27.975   2.858  10.922
73620ION    NA+46688  31.077  27.151   3.780
73621ION    NA+46689  17.179  13.370  12.760
73622ION    NA+46690  25.777  37.655  11.313
73623ION    NA+46691  10.410   1.956   4.049
73624ION    NA+46692  26.034  19.539   3.114
73625ION    NA+46693  44.995  14.484  12.238
73626ION    NA+46694   7.852  19.799   0.699
73627ION    NA+46695  31.522   1.387   1.801
73628ION    NA+46696   7.912  19.185  13.995
73629ION    NA+46697  16.673  41.622  12.874
73630ION    NA+46698  19.304  22.871   0.436
73631ION    NA+46699  27.936  22.524  11.477
73632ION    NA+46700  37.029  28.905  13.689
73633ION    NA+46701  26.801  41.628   2.666
73634ION    NA+46702  11.456  23.110  12.559
73635ION    NA+46703  25.639  15.274  13.147
73636ION    NA+46704   5.080  34.165   3.366
73637ION    NA+46705  22.457  43.337   1.999
73638ION    NA+46706  15.850  24.492  13.416
73639ION    NA+46707   2.692  29.421  11.762
73640ION    NA+46708  39.852  28.522  13.025
73641ION    NA+46709   7.278  38.872   2.138
73642ION    NA+46710  32.311  21.475  14.622
73643ION    NA+46711  34.474  19.029  14.441
73644ION    NA+46712  24.189  19.008  13.577
73645ION    NA+46713   6.457  14.991   2.942
73646ION    NA+46714   0.520  21.199   2.788
73647ION    NA+46715  28.375   5.929   0.377
73648ION    NA+46716  25.989  38.843   1.862
73649ION    NA+46717  35.466  11.787  12.856
73650ION    NA+46718  14.085  14.607  11.149
73651ION    NA+46719  38.090  14.763   3.779
73652ION    NA+46720  22.287  23.666   1.315
73653ION    NA+46721  35.005  15.186  14.509
73654ION    NA+46722   6.945  39.511   3.138
73655ION    NA+46723  19.846  24.475  14.834
73656ION    NA+46724   5.633   6.047   0.073
73657ION    NA+46725  12.176   1.632  13.609
73658ION    NA+46726  34.121  35.006   1.100
73659ION    NA+46727  43.270  19.521  11.438
73660ION    NA+46728  30.018  19.047   4.400
73661ION    NA+46729  18.178  21.512   3.821
73662ION    NA+46730  42.946  16.641   0.029
73663ION    NA+46731  13.738   8.362  12.330
73664ION    NA+46732   5.649  15.696   2.441
73665ION    NA+46733  35.434  40.325   2.458
73666ION    NA+46734  39.373   2.355  11.937
73667ION    NA+46735   7.918  17.650  14.277
73668ION    NA+46736  43.559  18.782   1.225
73669ION    NA+46737   1.803  32.351  11.162
73670ION    NA+46738  39.190  12.844   2.993
73671ION    NA+46739  44.182  28.963   0.571
73672ION    NA+46740  27.669  22.078   1.926
73673ION    NA+46741  19.267  10.428   1.535
73674ION    NA+46742  44.419  41.321  13.657
73675ION    NA+46743  35.025  24.075   4.417
73676ION    NA+46744  26.217  35.992   0.928
73677ION    NA+46745  25.701  34.022   5.041
73678ION    NA+46746  29.079  36.613  11.495
73679ION    NA+46747  16.833  14.038   2.711
73680ION    NA+46748  23.233   8.422   2.328
73681ION    NA+46749  17.716  13.033  13.533
73682ION    NA+46750  11.497  41.428  12.040
73683ION    NA+46751  38.165  29.009   4.071
73684ION    NA+46752  36.025  30.932   1.902
73685ION    NA+46753  39.251  12.361   3.751
73686ION    NA+46754  28.759  22.603   0.399
73687ION    NA+46755  17.695  21.298   1.000
73688ION    NA+46756  18.531  13.292   3.294
73689ION    NA+46757   6.619  21.477  12.462
73690ION    NA+46758  24.502  26.123   3.722
73691ION    NA+46759  35.759  20.905  12.768
73692ION    NA+46760  16.398  41.382   5.513
73693ION    NA+46761  11.792  18.233  12.585
73694ION    NA+46762  26.090  16.143   1.309
73695ION    NA+46763  17.552  21.245   3.088
73696ION    NA+46764  11.327  43.438   4.585
73697ION    NA+46765  28.317  43.022   2.066
73698ION    NA+46766  34.294  24.896  10.666
73699ION    NA+46767  34.459  22.382  12.093
73700ION    NA+46768  40.084  17.422  12.891
73701ION    NA+46769  38.366  41.119  11.594
73702ION    NA+46770  20.455   6.037  13.361
73703ION    NA+46771  16.777  11.774   4.100
73704ION    NA+46772  41.060   7.846  10.706
73705ION    NA+46773  38.479  33.145  14.113
73706ION    NA+46774   0.677   7.361   3.136
73707ION    NA+46775  34.328   9.363  13.732
73708ION    NA+46776  33.536  22.565   0.299
73709ION    NA+46777   0.246  18.826  14.745
73710ION    NA+46778  26.643  42.844  14.578
73711ION    NA+46779  38.878  30.457  10.786
73712ION    NA+46780  41.020  23.656  13.441
73713ION    NA+46781   8.843  12.812   4.136
73714ION    NA+46782  10.285  12.104  12.403
73715ION    NA+46783  16.571  19.522  11.412
73716ION    NA+46784  26.139  32.143  13.109
73717ION    NA+46785  29.080  28.865  10.975
73718ION    NA+46786  19.663  42.568   2.267
73719ION    NA+46787  41.924   8.042  12.115
73720ION    NA+46788   3.105  31.492  12.556
73721ION    NA+46789  20.407  19.019   1.150
73722ION    NA+46790  17.732   9.081  12.392
73723ION    NA+46791   6.771   8.948  13.667
73724ION    NA+46792  41.766   4.718  13.473
73725ION    NA+46793  37.662  24.095   2.327
73726ION    NA+46794   5.448  25.086  12.113
73727ION    NA+46795  37.808  18.304   0.663
73728ION    NA+46796  11.666   3.451   3.239
73729ION    NA+46797  42.168  31.054  14.374
73730ION    NA+46798  28.262  23.884   0.014
73731ION    NA+46799  19.714  41.653   2.698
73732ION    NA+46800  43.202  20.655   2.730
73733ION    NA+46801  37.320  23.606   3.130
73734ION    NA+46802  12.878  38.622  13.146
73735ION    NA+46803   6.638  23.692  14.834
73736ION    NA+46804  33.375  17.141   3.553
73737ION    NA+46805  12.313  19.642  14.275
73738ION    NA+46806  44.158  40.558   1.518
73739ION    NA+46807  41.159   3.499  14.207
73740ION    NA+46808  29.957  11.330  11.650
73741ION    NA+46809  28.408  37.261   2.675
73742ION    NA+46810   0.871  27.747  10.789
73743ION    NA+46811   9.112  17.901   3.272
73744ION    NA+46812  17.702  19.096   2.496
73745ION    NA+46813  19.664   7.211  13.391
73746ION    NA+46814  33.351  30.161   2.208
73747ION    NA+46815  43.954  32.376   2.012
73748ION    NA+46816  12.887  24.728  13.340
73749ION    NA+46817  36.605  44.405   5.105
73750ION    NA+46818   1.299  17.634   0.459
73751ION    NA+46819  27.507  30.607  10.714
73752ION    NA+46820  38.785  14.032   1.293
73753ION    NA+46821  42.527   8.622   0.513
73754ION    NA+46822  31.557  32.416  14.191
73755ION    NA+46823  13.821  13.333  10.759
73756ION    NA+46824  34.004  14.754   4.188
73757ION    NA+46825  42.140  24.238   3.415
73758ION    NA+46826   1.544  36.966  11.299
73759ION    NA+46827  29.896   4.819   1.568
73760ION    NA+46828  42.496   5.410  10.265
73761ION    NA+46829   7.646  40.761  13.437
73762ION    NA+46830  42.013  43.614  10.071
73763ION    NA+46831  27.158  15.599  14.442
73764ION    NA+46832  30.552   4.021   2.797
73765ION    NA+46833  18.292   8.690  10.740
73766ION    NA+46834  20.280  12.452  12.237
73767ION    NA+46835   3.596  31.548  10.312
73768ION    NA+46836  16.546  34.332  14.569
73769ION    NA+46837   3.410   2.937  14.426
73770ION    NA+46838   9.308   5.051  11.402
73771ION    NA+46839   5.547  22.191  13.066
73772ION    NA+46840  37.145   9.120  11.822
73773ION    NA+46841  44.860   0.219  10.749
73774ION    NA+46842  34.081   0.435   0.805
73775ION    NA+46843   6.352  24.947  12.517
73776ION    NA+46844  26.392  35.996  12.539
73777ION    NA+46845   7.357  15.234  14.265
73778ION    NA+46846  34.314   8.873  10.872
73779ION    NA+46847  19.362  43.471   2.616
73780ION    NA+46848  11.873  32.688  14.643
73781ION    NA+46849  39.268  18.193   2.794
73782ION    NA+46850   9.405  12.133  11.179
73783ION    NA+46851  13.085  28.995  10.810
73784ION    NA+46852   6.279   8.704   3.610
73785ION    NA+46853  29.015  32.090   4.579
73786ION    NA+46854  22.979  20.064  10.675
73787ION    NA+46855   0.443  14.960   2.363
73788ION    NA+46856  19.876  12.429  11.432
73789ION    NA+46857  35.913  34.152  14.254
73790ION    NA+46858  13.067  30.120  13.139
73791ION    NA+46859  30.395  20.165  13.345
73792ION    NA+46860   9.863  20.878  10.847
73793ION    NA+46861  13.842  32.950   2.255
73794ION    NA+46862  36.308  43.528   0.693
73795ION    NA+46863  34.545   0.247  11.173
73796ION    NA+46864  19.151   6.761  11.662
73797ION    NA+46865  33.055  44.183   0.649
73798ION    NA+46866   4.224  10.915   0.195
73799ION    NA+46867   4.194  35.757  13.093
73800ION    NA+46868  13.870   1.762   1.038
73801ION    NA+46869  27.931  18.660   3.896
73802ION    NA+46870  29.801  18.807  11.906
73803ION    NA+46871   7.262   3.931   0.843
73804ION    NA+46872   7.089  11.043  14.202
73805ION    NA+46873  18.395   6.349  14.514
73806ION    NA+46874  14.158  44.843  11.389
73807ION    NA+46875  44.910  41.389   0.958
73808ION    NA+46876  24.557  22.630   4.949
73809ION    NA+46877  14.201   3.926  14.842
73810ION    NA+46878  33.849  23.066   1.475
73811ION    NA+46879  39.513  30.128  14.901
73812ION    NA+46880  17.714  25.568   5.367
73813ION    NA+46881  32.750  20.544  11.482
73814ION    NA+46882  44.261  40.378   0.721
73815ION    NA+46883  44.112  24.952   0.100
73816ION    NA+46884   9.075   1.086   2.496
73817ION    NA+46885   0.979  14.361   0.674
73818ION    NA+46886  25.325  43.908   2.974
73819ION    NA+46887  14.196  30.920  12.882
73820ION    NA+46888  44.825   1.750   4.552
73821ION    NA+46889  36.875  13.518   0.562
73822ION    NA+46890  40.045   9.627  14.326
73823ION    NA+46891  24.638  21.201  12.593
73824ION    NA+46892   0.038  44.482  12.845
73825ION    NA+46893   6.815  37.856  14.109
73826ION    NA+46894   8.688   2.138   0.523
73827ION    NA+46895  21.418   2.959   3.768
73828ION    NA+46896  21.973  37.347   1.899
73829ION    NA+46897  43.865   4.897   1.247
73830ION    NA+46898  34.167  15.524  14.416
73831ION    NA+46899  11.519  32.874   4.154
73832ION    NA+46900  35.087  18.137  14.042
73833ION    NA+46901  27.043  20.396   4.975
73834ION    NA+46902  15.261  16.312   3.834
73835ION    NA+46903  33.290  23.125   4.654
73836ION    NA+46904  22.627   3.850   4.283
73837ION    NA+46905   4.854   0.697   3.226
73838ION    NA+46906  19.288  38.925  13.896
73839ION    NA+46907  31.543  40.758   1.595
73840ION    NA+46908  36.373  33.185  11.533
73841ION    NA+46909  24.617  12.363   1.825
73842ION    NA+46910  10.305  30.665  12.455
73843ION    NA+46911  16.833  11.698  13.783
73844ION    NA+46912  11.280  22.791   4.280
73845ION    NA+46913  35.357  22.568  14.251
73846ION    NA+46914   5.200  22.690  14.549
73847ION    NA+46915   0.022  44.322  11.159
73848ION    NA+46916  12.468   4.662   4.234
73849ION    NA+46917  32.624  15.569  11.135
73850ION    NA+46918  27.737  41.457   2.973
73851ION    NA+46919   8.947  31.307   4.300
73852ION    NA+46920   9.244   5.709   1.876
73853ION    NA+46921  17.064   0.442   1.807
73854ION    NA+46922  21.333   4.275  13.225
73855ION    NA+46923  41.521  19.815   2.961
73856ION    NA+46924  17.180   8.711   1.649
73857ION    NA+46925  17.772  39.411  14.368
73858ION    NA+46926  34.174  35.617   1.889
73859ION    NA+46927  16.932  39.342  12.212
73860ION    NA+46928  29.830  29.465  10.698
73861ION    NA+46929  43.299  41.273   2.744
73862ION    NA+46930  11.636  27.394   5.003
73863ION    NA+46931  26.195  13.949  14.800
73864ION    NA+46932  31.795  39.151  11.428
73865ION    NA+46933  28.161  32.146  12.950
73866ION    NA+46934  10.427  37.073   4.634
73867ION    NA+46935   8.687   5.255  10.761
73868ION    NA+46936  26.825  11.773   1.018
73869ION    NA+46937  35.999  19.969  13.026
73870ION    NA+46938  23.467  12.807  12.296
73871ION    NA+46939  20.877  38.040   2.796
73872ION    NA+46940  22.322  29.847   9.689
73873ION    NA+46941  41.075  30.704  13.656
73874ION    NA+46942  18.096  43.002  14.742
73875ION    NA+46943  39.013   7.794   3.799
73876ION    NA+46944   7.532   0.153  13.034
73877ION    NA+46945  41.736  17.882   4.528
73878ION    NA+46946  12.508   0.494  10.431
73879ION    NA+46947  22.487  22.438   0.020
73880ION    NA+46948  35.911  35.067   1.309
73881ION    NA+46949  27.406   6.388   3.788
73882ION    NA+46950   5.718   5.423   4.537
73883ION    NA+46951  13.946  22.095   1.691
73884ION    NA+46952  42.771  37.027  10.902
73885ION    NA+46953  38.060  35.740   0.703
73886ION    NA+46954  10.891   2.917   1.413
73887ION    NA+46955   4.216  43.938   0.333
73888ION    NA+46956  16.237  26.744  10.729
73889ION    NA+46957  20.608   4.844  12.015
73890ION    NA+46958  22.190  12.179  14.380
73891ION    NA+46959  41.389  13.519   5.433
73892ION    NA+46960  16.640  42.968  11.554
73893ION    NA+46961  32.831  34.313   4.374
73894ION    NA+46962  12.332   9.475  13.792
73895ION    NA+46963  34.474  15.706   3.336
73896ION    NA+46964   7.265  16.790   0.174
73897ION    NA+46965  29.528  13.303   2.806
73898ION    NA+46966   1.285  27.590   0.666
73899ION    NA+46967  33.503  36.528  11.375
73900ION    NA+46968  33.500   9.915  10.924
73901ION    NA+46969  27.867  23.940  10.937
73902ION    NA+46970  27.928  44.328  14.751
73903ION    NA+46971  17.811  10.200  13.851
73904ION    NA+46972   5.476   7.778  14.078
73905ION    NA+46973  29.283  17.112   2.605
73906ION    NA+46974  18.205  37.806   0.765
73907ION    NA+46975   9.721  10.335   1.630
73908ION    NA+46976  24.158  16.262  10.713
73909ION    NA+46977  10.965   0.236   4.413
73910ION    NA+46978  27.404  28.328   0.210
73911ION    NA+46979  26.087  43.315   3.944
73912ION    NA+46980   6.247  33.992   4.774
73913ION    NA+46981  22.829  28.130   4.200
73914ION    NA+46982   3.187  41.387   0.700
73915ION    NA+46983  38.602  13.270  14.822
73916ION    NA+46984  40.039  36.912  14.852
73917ION    NA+46985  38.342  25.430   1.956
73918ION    NA+46986   5.306  30.514   3.732
73919ION    NA+46987  30.965  33.153  14.517
73920ION    NA+46988  38.647  19.091  11.919
73921ION    NA+46989  24.759  39.735  12.251
73922ION    NA+46990  31.667  25.728   2.963
73923ION    NA+46991   2.814   4.165  11.671
73924ION    NA+46992  12.246  16.372   4.120
73925ION    NA+46993  32.870  38.770   2.138
73926ION    NA+46994   4.415  16.623   3.384
73927ION    NA+46995   0.859  31.309  13.252
73928ION    NA+46996  37.813   6.861   1.761
73929ION    NA+46997  37.858  20.265   0.625
73930ION    NA+46998   6.179   4.681   2.974
73931ION    NA+46999  10.704  40.512   0.577
73932ION    NA+47000  12.202  42.136  11.994
73933ION    NA+47001  29.235   1.905   0.772
73934ION    NA+47002  33.546  25.910  13.441
73935ION    NA+47003  36.409  38.824  14.046
73936ION    NA+47004   4.748  33.305   0.032
73937ION    NA+47005  32.423  10.639  13.938
73938ION    NA+47006  17.302  42.475  10.542
73939ION    NA+47007   2.839  24.161   2.408
73940ION    NA+47008  17.864  30.803  10.807
73941ION    NA+47009  39.559  31.177  10.650
73942ION    NA+47010  17.210  31.064  12.088
73943ION    NA+47011  36.078  43.615   1.304
73944ION    NA+47012  27.869  38.679  13.952
73945ION    NA+47013   7.910  10.037   0.902
73946ION    NA+47014  13.211   1.440   4.568
73947ION    NA+47015  37.445   3.524  13.448
73948ION    NA+47016  23.792  21.182  12.032
73949ION    NA+47017  17.979  30.640  12.565
73950ION    NA+47018   0.168  40.928   4.112
73951ION    NA+47019  37.375  43.843   3.874
73952ION    NA+47020  24.673  26.381   0.698
73953ION    NA+47021   6.948  39.815   2.185
73954ION    NA+47022  29.221  20.848  14.430
73955ION    NA+47023  40.505  17.525   3.628
73956ION    NA+47024  29.246  20.046   3.699
73957ION    NA+47025   9.399  18.680   0.809
73958ION    NA+47026  38.032  37.917  14.058
73959ION    NA+47027   0.748   4.120  14.913
73960ION    NA+47028  33.334  36.890  12.973
73961ION    NA+47029  37.273  17.084   0.424
73962ION    NA+47030  33.337   5.116   0.687
73963ION    NA+47031  33.010   1.810  13.230
73964ION    NA+47032  31.713  34.791   1.721
73965ION    NA+47033   4.725  31.847   3.245
73966ION    NA+47034   6.880  12.743  11.175
73967ION    NA+47035   7.402  12.219   0.685
73968ION    NA+47036  18.599   4.851   2.895
73969ION    NA+47037  28.726  11.196  11.616
73970ION    NA+47038  15.550  25.651  11.575
73971ION    NA+47039  36.088  19.171   2.698
73972ION    NA+47040  12.209  43.354  13.631
73973ION    NA+47041  20.474  17.644   3.603
73974ION    NA+47042   2.918  42.949  13.075
73975ION    NA+47043  40.461  25.264  13.550
73976ION    NA+47044   2.628   1.250   5.023
73977ION    NA+47045  35.157  13.175  10.703
73978ION    NA+47046  10.592  27.316  12.993
73979ION    NA+47047  25.338  18.180   2.759
73980ION    NA+47048  26.471  11.735   0.059
73981ION    NA+47049   5.501  31.574   3.904
73982ION    NA+47050  30.260  26.300   5.175
73983ION    NA+47051  40.676   5.559   4.408
73984ION    NA+47052  39.229  11.686   0.305
73985ION    NA+47053  19.450  32.626  11.525
73986ION    NA+47054  22.181  43.706  12.666
73987ION    NA+47055  43.509  18.955   2.922
73988ION    NA+47056  38.787   7.432  11.619
73989ION    NA+47057  21.980  21.235  14.252
73990ION    NA+47058  23.528  36.655   0.391
73991ION    NA+47059  40.827  10.323   3.164
73992ION    NA+47060  32.449  17.853   2.869
73993ION    NA+47061  36.649  29.121  12.070
73994ION    NA+47062  34.173   9.062   4.871
73995ION    NA+47063  24.617  10.492  13.911
73996ION    NA+47064  26.487   1.269   5.299
73997ION    NA+47065  41.808  15.221   0.265
73998ION    NA+47066  29.347  34.327  14.252
73999ION    NA+47067  16.071   6.247  13.370
74000ION    NA+47068  43.528  22.784  11.196
74001ION    NA+47069   6.083  18.957  14.212
74002ION    NA+47070  12.715  14.291   3.945
74003ION    NA+47071  18.294   9.653  13.023
74004ION    NA+47072   2.959  27.745   3.466
74005ION    NA+47073   6.265   1.094  14.769
74006ION    NA+47074  37.765   0.688  10.055
74007ION    NA+47075  12.335   0.001  14.357
74008ION    NA+47076  29.622  41.276   1.818
74009ION    NA+47077  15.701  29.497  14.760
74010ION    NA+47078  17.129  12.518  13.931
74011ION    NA+47079  19.695  42.354   0.922
74012ION    NA+47080   2.727  24.777  12.460
74013ION    NA+47081   1.482  44.482   3.874
74014ION    NA+47082   8.887   6.719   0.883
74015ION    NA+47083  24.806  14.458   0.166
74016ION    NA+47084  34.384  26.571   0.441
74017ION    NA+47085  18.554  30.075   4.233
74018ION    NA+47086   2.335   1.508   1.501
74019ION    NA+47087  16.300  26.147   3.122
74020ION    NA+47088   0.244  41.834   1.651
74021ION    NA+47089  37.516  16.673   1.314
74022ION    NA+47090   3.757  20.814  14.774
74023ION    NA+47091  36.006  39.600  13.800
74024ION    NA+47092   2.156  34.821   3.749
74025ION    NA+47093  19.503  17.828   4.575
74026ION    NA+47094  11.563   6.880   2.907
74027ION    NA+47095  43.078  35.193  14.529
74028ION    NA+47096  15.403  15.388  10.821
74029ION    NA+47097  20.599  40.715   2.416
74030ION    NA+47098  33.076  21.054  14.888
74031ION    NA+47099  41.339  12.342   3.507
74032ION    NA+47100   6.434   4.639   1.889
74033ION    NA+47101  43.561  32.959  12.466
74034ION    NA+47102  27.189   1.082  13.926
74035ION    NA+47103  12.942  41.810  14.489
74036ION    NA+47104  34.543  34.415  12.987
74037ION    NA+47105  23.587  18.300   2.331
74038ION    NA+47106  17.218   3.964  13.946
74039ION    NA+47107   7.331   0.592   2.753
74040ION    NA+47108  33.993   2.375   4.917
74041ION    NA+47109  41.467  38.001   0.654
74042ION    NA+47110  10.484  15.627  13.559
74043ION    NA+47111  19.320  42.130  12.786
74044ION    NA+47112  11.628  14.524  12.061
74045ION    NA+47113  40.342  29.257   3.756
74046ION    NA+47114  29.434  30.939   1.536
74047ION    NA+47115   0.050   5.052   2.873
74048ION    NA+47116  30.328  44.926  12.252
74049ION    NA+47117   9.923  10.180   0.210
74050ION    NA+47118   6.868  43.679  14.917
74051ION    NA+47119   5.239  32.944   2.695
74052ION    NA+47120  28.519  39.622   3.823
74053ION    NA+47121  31.439   4.673  14.061
74054ION    NA+47122  23.455  37.569   5.334
74055ION    NA+47123  23.125  44.771  11.635
74056ION    NA+47124  22.363  20.331  14.443
74057ION    NA+47125  16.864  35.581  12.151
74058ION    NA+47126  26.820  12.425  10.351
74059ION    NA+47127  29.753  18.072  14.737
74060ION    NA+47128  30.395  41.271  12.159
74061ION    NA+47129  20.052  30.425  11.985
74062ION    NA+47130  27.672  34.100  14.839
74063ION    NA+47131  24.043  26.014  13.554
74064ION    NA+47132  38.130  27.611   0.436
74065ION    NA+47133  39.176  14.799   2.868
74066ION    NA+47134  15.379  36.482  11.048
74067ION    NA+47135  30.496  30.212  10.698
74068ION    NA+47136  43.262  20.847  10.469
74069ION    NA+47137  35.139  11.822   2.402
74070ION    NA+47138   7.688   2.854   2.644
74071ION    NA+47139  38.990  29.540   1.699
74072ION    NA+47140   2.959  21.479   3.368
74073ION    NA+47141   7.611  30.477   2.721
74074ION    NA+47142  35.210   8.555   1.569
74075ION    NA+47143  15.123  22.854  11.211
74076ION    NA+47144  30.764   2.618  12.063
74077ION    NA+47145  37.945   1.647   3.995
74078ION    NA+47146  29.171  20.097  11.392
74079ION    NA+47147   6.758  18.267  11.641
74080ION    NA+47148  26.472   7.548   1.197
74081ION    NA+47149  44.056   1.980  12.306
74082ION    NA+47150  13.334  21.074  13.463
74083ION    NA+47151   2.461   3.905  10.772
74084ION    NA+47152   0.327  37.960   3.100
74085ION    NA+47153  36.124  24.298  11.392
74086ION    NA+47154  41.854  44.550  10.385
74087ION    NA+47155  22.822   9.521   4.857
74088ION    NA+47156  40.861  41.402   3.729
74089ION    NA+47157   1.467  38.964  13.969
74090ION    NA+47158  22.081   2.765  11.676
74091ION    NA+47159   3.703   0.565   2.722
74092ION    NA+47160  39.929  18.335   3.399
74093ION    NA+47161  15.001   0.756   3.627
74094ION    NA+47162   4.427  44.885   1.900
74095ION    NA+47163  15.727  41.331  11.909
74096ION    NA+47164  16.596  25.964   4.418
74097ION    NA+47165   4.450  28.909   3.832
74098ION    NA+47166  10.233  24.469  13.493
74099ION    NA+47167  32.245   8.253   2.642
74100ION    NA+47168  31.739  42.491   3.232
74101ION    NA+47169  23.693  11.909  14.296
74102ION    NA+47170   4.974  23.753   0.735
74103ION    NA+47171  40.526   5.723   2.871
74104ION    NA+47172  30.086  29.965  11.876
74105ION    NA+47173  24.515  15.627  12.437
74106ION    NA+47174  22.063  28.923  11.233
74107ION    NA+47175  10.184  38.384  10.671
74108ION    NA+47176  36.353  44.465  14.814
74109ION    NA+47177  26.799  41.285  13.482
74110ION    NA+47178  31.869  22.355  14.448
74111ION    NA+47179   7.699  21.370  13.251
74112ION    NA+47180   6.459  36.324   4.255
74113ION    NA+47181  23.877  20.576  10.621
74114ION    NA+47182   6.956  32.938  10.739
74115ION    NA+47183  20.815  30.714  12.611
74116ION    NA+47184  36.530  43.911  10.695
74117ION    NA+47185  42.430  12.178   0.452
74118ION    NA+47186   1.220  38.147   1.887
74119ION    NA+47187  15.116   1.005   4.501
74120ION    NA+47188   0.198  23.158   4.571
74121ION    NA+47189  33.786   0.649  14.627
74122ION    NA+47190   1.239  34.381  12.904
74123ION    NA+47191  22.687  24.975  14.480
74124ION    NA+47192   1.745  22.274   1.016
74125ION    NA+47193  39.128  18.223  14.300
74126ION    NA+47194   0.381  43.024  11.001
74127ION    NA+47195   0.769  18.588   3.259
74128ION    NA+47196  29.258  44.520  14.428
74129ION    NA+47197  21.486  22.911   0.595
74130ION    NA+47198   9.304  41.778   1.736
74131ION    NA+47199  18.274  11.223  10.634
74132ION    NA+47200  26.432  10.993   2.547
74133ION    NA+47201  36.568  18.553   2.298
74134ION    NA+47202  30.074  12.608  11.945
74135ION    NA+47203  30.735  10.588  10.918
74136ION    CL-47204  33.100  41.762   4.067
74137ION    CL-47205  13.651  37.030   3.501
74138ION    CL-47206  42.388  20.573  14.919
74139ION    CL-47207  43.844  23.450   0.388
74140ION    CL-47208  38.941  18.098  13.865
74141ION    CL-47209  28.799  10.396  11.408
74142ION    CL-47210  36.326  26.519   2.816
74143ION    CL-47211  14.017  21.292  11.237
74144ION    CL-47212  18.645  27.654   3.082
74145ION    CL-47213  28.372  44.843  13.421
74146ION    CL-47214  32.236   1.196  12.107
74147ION    CL-47215  23.942  36.303  14.295
74148ION    CL-47216   6.735  15.787  13.258
74149ION    CL-47217  15.807  26.623   4.932
74150ION    CL-47218  32.135  10.986  13.959
74151ION    CL-47219  44.981  11.837  10.712
74152ION    CL-47220  41.820  11.893   1.356
74153ION    CL-47221  43.421  24.201  13.955
74154ION    CL-47222  36.214   6.800   2.338
74155ION    CL-47223   1.955  22.885  12.299
74156ION    CL-47224   4.926  29.950   0.352
74157ION    CL-47225  13.842  22.468   1.929
74158ION    CL-47226  26.386   7.096   0.893
74159ION    CL-47227  41.022  38.894  12.448
74160ION    CL-47228  17.539  37.543  12.634
74161ION    CL-47229  35.165  24.835   0.542
74162ION    CL-47230   1.403   6.378   4.201
74163ION    CL-47231  15.607   6.731  12.487
74164ION    CL-47232   6.582  39.195   5.312
74165ION    CL-47233  24.666  36.832  14.457
74166ION    CL-47234   5.501  32.786   1.651
74167ION    CL-47235  23.930  20.901  14.941
74168ION    CL-47236   3.370  24.029  11.180
74169ION    CL-47237   5.940   6.273  13.927
74170ION    CL-47238  17.752  39.859   1.863
74171ION    CL-47239  41.041  16.284   9.418
74172ION    CL-47240   1.492  24.131   0.968
74173ION    CL-47241  28.987  14.489  14.903
74174ION    CL-47242   4.975  38.582  13.678
74175ION    CL-47243  39.618  31.719  11.648
74176ION    CL-47244  25.541  22.296   1.397
74177ION    CL-47245  41.092   5.597   4.637
74178ION    CL-47246   7.894  39.832   0.356
74179ION    CL-47247  40.928  33.893  10.957
74180ION    CL-47248  14.371  39.848   3.000
74181ION    CL-47249  29.351  20.082  10.984
74182ION    CL-47250  24.226  42.971   3.188
74183ION    CL-47251  39.949  33.584   3.158
74184ION    CL-47252  40.870   0.446  10.649
74185ION    CL-47253  39.432  35.109  10.750
74186ION    CL-47254  19.742   2.295  13.955
74187ION    CL-47255  41.712  38.764  13.010
74188ION    CL-47256   5.960  44.684  12.923
74189ION    CL-47257   7.112   0.068  12.871
74190ION    CL-47258  33.225   7.372  10.450
74191ION    CL-47259  29.492  41.666   2.009
74192ION    CL-47260  15.280  12.494  11.865
74193ION    CL-47261   3.055   4.279   1.426
74194ION    CL-47262  28.249  13.523   0.565
74195ION    CL-47263  30.229  36.805   5.066
74196ION    CL-47264  20.315  15.871   0.243
74197ION    CL-47265  23.228  35.613   0.976
74198ION    CL-47266   5.337  40.952   2.813
74199ION    CL-47267  19.053  19.082   0.893
74200ION    CL-47268  44.123  25.405  14.941
74201ION    CL-47269  19.832  44.335   0.856
74202ION    CL-47270   0.591  26.749   1.238
74203ION    CL-47271  42.466  15.229   3.610
74204ION    CL-47272   1.664  32.053  12.374
74205ION    CL-47273  15.173  25.460  11.719
74206ION    CL-47274   0.610  12.431  13.327
74207ION    CL-47275  40.234   5.617   4.305
74208ION    CL-47276  42.040  42.501  12.066
74209ION    CL-47277  43.316  28.129   0.050
74210ION    CL-47278  18.555  12.799  11.819
74211ION    CL-47279  13.640  37.725  12.921
74212ION    CL-47280  36.424  44.476   0.255
74213ION    CL-47281  10.996   5.583   2.818
74214ION    CL-47282  30.410  44.933   1.485
74215ION    CL-47283  31.365  29.199   3.567
74216ION    CL-47284  30.667   1.756  11.515
74217ION    CL-47285  22.483  26.596   5.128
74218ION    CL-47286  19.671  38.843  14.110
74219ION    CL-47287  16.414  39.110  10.776
74220ION    CL-47288   1.175  14.729   0.510
74221ION    CL-47289  18.607  12.520   4.596
74222ION    CL-47290   5.702  40.000  11.305
74223ION    CL-47291  34.062  21.172  13.891
74224ION    CL-47292  14.765   4.916  11.960
74225ION    CL-47293  10.898  14.570   1.331
74226ION    CL-47294   5.858  14.286  13.071
74227ION    CL-47295   8.962   5.164  11.111
74228ION    CL-47296   7.086  38.495   4.933
74229ION    CL-47297   9.101  15.374   0.686
74230ION    CL-47298  29.729  17.228   2.511
74231ION    CL-47299  42.921  44.797  12.612
74232ION    CL-47300  19.966  32.469   2.749
74233ION    CL-47301  10.935  32.983   0.364
74234ION    CL-47302  36.358  18.445   0.372
74235ION    CL-47303  38.378  15.106   0.960
74236ION    CL-47304  33.437  25.495  13.302
74237ION    CL-47305  37.778  13.377   1.740
74238ION    CL-47306  37.266  38.260   4.322
74239ION    CL-47307  31.755  41.926   4.640
74240ION    CL-47308  42.861  12.288   0.413
74241ION    CL-47309  11.700  25.436   2.843
74242ION    CL-47310  36.892  19.978  13.814
74243ION    CL-47311   7.856  44.897   5.087
74244ION    CL-47312  19.324  31.175  10.445
74245ION    CL-47313  40.540  41.298   1.353
74246ION    CL-47314  40.347  28.864  11.729
74247ION    CL-47315  25.502  43.877   0.239
74248ION    CL-47316  30.606  25.873   5.057
74249ION    CL-47317  40.872  37.440  14.644
74250ION    CL-47318   1.924   0.550  14.491
74251ION    CL-47319  13.111   4.998   2.826
74252ION    CL-47320  40.119  25.134  13.292
74253ION    CL-47321  37.057  13.114   0.624
74254ION    CL-47322  16.222  38.094  12.017
74255ION    CL-47323  29.062  44.887  12.699
74256ION    CL-47324  11.859  16.129   4.164
74257ION    CL-47325  38.792   4.630   0.318
74258ION    CL-47326  19.698  22.727  13.883
74259ION    CL-47327  37.495  14.858  11.220
74260ION    CL-47328  38.893  30.222   5.211
74261ION    CL-47329  13.988  34.781  10.352
74262ION    CL-47330  35.955   6.542   4.951
74263ION    CL-47331  14.187  25.907  12.995
74264ION    CL-47332   9.333  10.431   1.826
74265ION    CL-47333  26.171  37.744  11.102
74266ION    CL-47334  37.470  39.910  12.073
74267ION    CL-47335  20.064  17.782  11.580
74268ION    CL-47336  28.475  40.465   1.837
74269ION    CL-47337   6.213  40.504  13.983
74270ION    CL-47338   8.184  10.278   1.164
74271ION    CL-47339  38.989  26.580   3.274
74272ION    CL-47340  27.526  37.826  12.872
74273ION    CL-47341   6.744  19.528   1.436
74274ION    CL-47342  32.385  32.490   1.738
74275ION    CL-47343  26.452  11.354  11.108
74276ION    CL-47344   4.777  33.314  11.058
74277ION    CL-47345  14.347  20.678  10.242
74278ION    CL-47346   6.722  19.859  14.601
74279ION    CL-47347  27.665  30.896   0.766
74280ION    CL-47348   3.819  36.904   2.191
74281ION    CL-47349   6.216  25.978  14.645
74282ION    CL-47350  13.667   7.954  14.945
74283ION    CL-47351  40.064  20.620   2.373
74284ION    CL-47352  31.408  31.209  10.339
74285ION    CL-47353  34.169  14.068  14.426
74286ION    CL-47354  40.365  24.712   3.564
74287ION    CL-47355  20.424   5.093   0.370
74288ION    CL-47356  29.238  30.927   1.134
74289ION    CL-47357  25.129   9.746  11.532
74290ION    CL-47358  20.209  13.126   2.765
74291ION    CL-47359  26.679  21.991   3.322
74292ION    CL-47360  33.456  13.619  13.457
74293ION    CL-47361  19.858  26.023   1.895
74294ION    CL-47362  29.052  30.417  11.799
74295ION    CL-47363   8.257  37.268   2.620
74296ION    CL-47364  24.689   9.653   2.197
74297ION    CL-47365  15.742  27.610  10.652
74298ION    CL-47366  22.126   0.315   4.671
74299ION    CL-47367  42.224  11.737  11.662
74300ION    CL-47368  30.029  16.833   0.893
74301ION    CL-47369   1.997   8.751  12.396
74302ION    CL-47370  28.467  22.451   0.087
74303ION    CL-47371   8.368  23.943   4.991
74304ION    CL-47372   7.117  16.600  14.787
74305ION    CL-47373   9.088  13.926  14.732
74306ION    CL-47374  19.544  33.452   0.655
74307ION    CL-47375  21.178  25.319  13.367
74308ION    CL-47376  35.058  38.558  12.601
74309ION    CL-47377  29.588  22.529  12.453
74310ION    CL-47378   5.128  31.991  11.341
74311ION    CL-47379  41.547   8.623  11.715
74312ION    CL-47380  34.732  18.874   2.055
74313ION    CL-47381  14.556  17.308  11.099
74314ION    CL-47382  39.877  12.326   1.795
74315ION    CL-47383   1.296   2.430   2.817
74316ION    CL-47384  27.019  23.284  11.996
74317ION    CL-47385  23.246  42.926   4.105
74318ION    CL-47386  17.755  14.350   1.192
74319ION    CL-47387  31.592   8.834  11.467
74320ION    CL-47388  29.630  20.866  14.193
74321ION    CL-47389  34.076   1.997  12.749
74322ION    CL-47390  42.765  23.428  14.064
74323ION    CL-47391  42.402   8.729  12.982
74324ION    CL-47392  17.295  15.434  14.882
74325ION    CL-47393  27.793  10.071  10.496
74326ION    CL-47394  12.612  17.029  12.657
74327ION    CL-47395   2.667  19.984   0.730
74328ION    CL-47396  20.534  11.260  13.946
74329ION    CL-47397  25.711  39.080  13.242
74330ION    CL-47398  24.439  41.765   0.811
74331ION    CL-47399  29.873  40.858   4.526
74332ION    CL-47400  28.248  14.591  13.509
74333ION    CL-47401   8.276   5.912  13.457
74334ION    CL-47402   5.628  32.871   2.929
74335ION    CL-47403  42.057  37.117   1.351
74336ION    CL-47404  13.356  17.079   0.365
74337ION    CL-47405  37.341   7.437  11.732
74338ION    CL-47406  13.766   4.924  12.007
74339ION    CL-47407   3.353  31.129  13.976
74340ION    CL-47408  32.280  23.640  14.543
74341ION    CL-47409  43.807  15.231  13.576
74342ION    CL-47410  15.052   0.889   4.060
74343ION    CL-47411  10.115  14.733   0.730
74344ION    CL-47412  19.317  10.687   3.341
74345ION    CL-47413  36.225  12.572   0.742
74346ION    CL-47414  33.108  29.185   4.451
74347ION    CL-47415   8.487   8.373   2.163
74348ION    CL-47416  18.392   6.414  12.770
74349ION    CL-47417  42.995  19.145  14.554
74350ION    CL-47418  10.794   1.648   1.349
74351ION    CL-47419  15.563   4.472   3.113
74352ION    CL-47420  39.542   5.175  14.943
74353ION    CL-47421  42.449  42.864   1.514
74354ION    CL-47422  38.966  28.459   2.546
74355ION    CL-47423  43.404  39.319  11.969
74356ION    CL-47424  38.921  26.814   5.083
74357ION    CL-47425  37.299  24.054   3.023
74358ION    CL-47426  27.820  24.312   1.222
74359ION    CL-47427   9.443   7.291  13.560
74360ION    CL-47428  29.469   5.898  11.650
74361ION    CL-47429  30.565  43.903   4.930
74362ION    CL-47430   8.805  35.330  12.362
74363ION    CL-47431   8.477   3.352  12.588
74364ION    CL-47432   8.757  31.965   4.600
74365ION    CL-47433   1.331  44.971  12.960
74366ION    CL-47434  14.321  10.458  13.007
74367ION    CL-47435   5.015  24.203   0.790
74368ION    CL-47436  13.693  34.544   0.860
74369ION    CL-47437  15.211   6.848   4.111
74370ION    CL-47438  23.608  36.916   1.744
74371ION    CL-47439  39.332  38.552   1.740
74372ION    CL-47440  35.842  21.337  12.691
74373ION    CL-47441  44.162  35.920  13.769
74374ION    CL-47442  23.275   8.455  14.022
74375ION    CL-47443  30.121  38.276   0.734
74376ION    CL-47444  25.001  24.022   4.114
74377ION    CL-47445  25.025  30.048   1.010
74378ION    CL-47446   6.792  27.161   3.103
74379ION    CL-47447  28.494  25.287   1.340
74380ION    CL-47448  28.727  27.068   0.079
74381ION    CL-47449   8.631  12.104  14.312
74382ION    CL-47450  32.131  42.575  11.454
74383ION    CL-47451  29.241  24.394  13.620
74384ION    CL-47452  16.347   6.279  14.731
74385ION    CL-47453  39.212   1.075   3.385
74386ION    CL-47454  11.397   3.687  14.472
74387ION    CL-47455  36.831  26.651  11.225
74388ION    CL-47456  14.492   7.785   3.674
74389ION    CL-47457  39.571  18.264   3.125
74390ION    CL-47458  10.946   1.310  13.347
74391ION    CL-47459  33.193  44.285   1.086
74392ION    CL-47460  22.770   9.837   3.554
74393ION    CL-47461  44.560  27.376  13.536
74394ION    CL-47462  16.277   9.482  10.208
74395ION    CL-47463   0.313  31.394   3.706
74396ION    CL-47464   9.793  14.611  11.405
74397ION    CL-47465  11.133  30.211   4.694
74398ION    CL-47466  27.975  42.964   1.767
74399ION    CL-47467  17.493  12.671   9.947
74400ION    CL-47468  12.601  27.210   2.926
74401ION    CL-47469   0.610  36.541   1.167
74402ION    CL-47470  24.098  13.305   1.649
74403ION    CL-47471  22.677   2.219   3.664
74404ION    CL-47472  41.345  40.640   2.235
74405ION    CL-47473  30.419   5.783   2.654
74406ION    CL-47474  16.044  41.527  11.660
74407ION    CL-47475  28.657  15.840   2.921
74408ION    CL-47476  42.877  16.734   9.934
74409ION    CL-47477   2.081  18.210  11.160
74410ION    CL-47478   8.595  26.178   4.593
74411ION    CL-47479   1.445  19.621  11.671
74412ION    CL-47480  43.200  44.902   2.221
74413ION    CL-47481  44.102  43.573   2.407
74414ION    CL-47482  19.469  42.423  12.468
74415ION    CL-47483  14.808  20.770   1.343
74416ION    CL-47484  13.892   6.205  14.700
74417ION    CL-47485  36.404  18.938   2.472
74418ION    CL-47486  40.241  20.007  11.715
74419ION    CL-47487   6.841  19.613  10.648
74420ION    CL-47488   1.018  34.126   1.792
74421ION    CL-47489  31.956  39.298  11.029
74422ION    CL-47490   6.296  37.427   5.104
74423ION    CL-47491  23.436  37.979   2.359
74424ION    CL-47492   5.274   2.006   5.138
74425ION    CL-47493  28.670  41.189  14.433
74426ION    CL-47494  20.559   8.836   3.341
74427ION    CL-47495  14.724  12.929  12.574
74428ION    CL-47496  36.447  31.945  14.710
74429ION    CL-47497  12.415  24.073   2.168
74430ION    CL-47498  44.499  24.270   2.432
74431ION    CL-47499  22.409  41.475  14.828
74432ION    CL-47500  27.418  37.263  11.989
74433ION    CL-47501   9.667  29.257  14.445
74434ION    CL-47502   7.548  12.473  12.478
74435ION    CL-47503  32.841  10.496  13.830
74436ION    CL-47504  19.510   1.206  10.913
74437ION    CL-47505  35.422  41.251  10.675
74438ION    CL-47506  13.878  14.713  12.403
74439ION    CL-47507  13.842   9.846  12.377
74440ION    CL-47508  26.528  44.926   2.077
74441ION    CL-47509  29.194   6.797  12.142
74442ION    CL-47510  26.810  11.967  10.353
74443ION    CL-47511  27.616   0.978   1.847
74444ION    CL-47512  29.094  19.241   1.904
74445ION    CL-47513  18.087  11.446  10.987
74446ION    CL-47514   6.460   4.856   3.292
74447ION    CL-47515  30.645   8.577  12.751
74448ION    CL-47516  39.551  17.840  14.521
74449ION    CL-47517  20.325  39.024   3.404
74450ION    CL-47518  31.814   2.506  11.198
74451ION    CL-47519  14.119  24.643   3.272
74452ION    CL-47520  19.943  24.287  14.441
74453ION    CL-47521   2.364  40.783   1.012
74454ION    CL-47522  17.878  42.823   4.050
74455ION    CL-47523  16.335  21.640  12.001
74456ION    CL-47524   7.059  40.869   0.708
74457ION    CL-47525  19.034  43.276  11.026
74458ION    CL-47526  15.411   8.510   1.413
74459ION    CL-47527  33.859  16.348   5.040
74460ION    CL-47528  29.557  28.928   3.344
74461ION    CL-47529  24.534  17.534  10.964
74462ION    CL-47530  18.108   0.813   1.108
74463ION    CL-47531  33.936  25.843   3.479
74464ION    CL-47532  31.714   1.345   3.157
74465ION    CL-47533  15.164  22.289   3.830
74466ION    CL-47534  19.622  41.582   3.130
74467ION    CL-47535  41.282  16.058   5.254
74468ION    CL-47536  12.864  29.721  13.053
74469ION    CL-47537  37.469  21.752  11.467
74470ION    CL-47538   1.575  21.557  14.584
74471ION    CL-47539  10.680  34.135  10.683
74472ION    CL-47540  19.286  11.891   4.218
74473ION    CL-47541   1.223  25.704  13.399
74474ION    CL-47542   8.966  29.330   4.837
74475ION    CL-47543  22.721  21.466  12.032
74476ION    CL-47544  34.317  23.077  10.699
74477ION    CL-47545  35.854  18.423  13.238
74478ION    CL-47546  17.747  26.226   4.087
74479ION    CL-47547  18.518  39.028   1.946
74480ION    CL-47548  26.097  32.994   3.911
74481ION    CL-47549  12.275  31.051  14.525
74482ION    CL-47550  21.485  11.711   4.937
74483ION    CL-47551  34.133  11.482   0.628
74484ION    CL-47552   0.596   7.350  14.900
74485ION    CL-47553   6.960  26.863  14.866
74486ION    CL-47554  35.974   9.407  14.424
74487ION    CL-47555  31.384  19.315  11.095
74488ION    CL-47556  12.694  12.228  14.500
74489ION    CL-47557  37.925   3.695   2.858
74490ION    CL-47558  21.228  15.580   1.649
74491ION    CL-47559  22.635   7.380   4.156
74492ION    CL-47560  14.112  21.091   0.262
74493ION    CL-47561  28.161  37.446   2.998
74494ION    CL-47562   3.505  31.317  12.700
74495ION    CL-47563   8.724  35.635   3.534
74496ION    CL-47564  18.209  28.584   3.316
74497ION    CL-47565  15.352  37.819  11.204
74498ION    CL-47566  23.000  44.243   0.870
74499ION    CL-47567   5.340  30.438   1.396
74500ION    CL-47568  36.892  15.599  10.892
74501ION    CL-47569   9.413  15.079  10.728
74502ION    CL-47570  13.142  10.879  14.838
74503ION    CL-47571  12.360  10.787   0.155
74504ION    CL-47572  22.630  18.173  10.639
74505ION    CL-47573  32.182  26.218  10.628
74506ION    CL-47574  34.157   5.641  14.792
74507ION    CL-47575   9.793  24.483  13.415
74508ION    CL-47576   4.107  27.609   2.870
74509ION    CL-47577  20.313  18.590   1.066
74510ION    CL-47578  14.191   5.653  13.350
74511ION    CL-47579  32.861  16.642  13.253
74512ION    CL-47580  18.302  16.010  13.048
74513ION    CL-47581  40.239  19.496  12.965
74514ION    CL-47582  25.176  27.864  13.397
74515ION    CL-47583  14.939  33.381  12.560
74516ION    CL-47584  37.535  22.698  10.494
74517ION    CL-47585  29.717  40.998   1.475
74518ION    CL-47586  23.663  27.175  14.726
74519ION    CL-47587  12.612  35.544   2.781
74520ION    CL-47588  24.763   9.743  12.490
74521ION    CL-47589  40.587  43.985  14.206
74522ION    CL-47590  14.351  42.630   4.531
74523ION    CL-47591  32.121  16.678   2.831
74524ION    CL-47592  36.839  21.080   3.477
74525ION    CL-47593  26.283   7.386   2.581
74526ION    CL-47594  12.212  32.984  14.722
74527ION    CL-47595  44.971  36.317   1.914
74528ION    CL-47596  39.488  10.267   1.382
74529ION    CL-47597  38.960  26.154   4.249
74530ION    CL-47598  14.390  29.767  12.534
74531ION    CL-47599  24.736   4.538  10.650
74532ION    CL-47600   1.234  36.560  14.575
74533ION    CL-47601  11.751  44.371   3.330
74534ION    CL-47602  44.845  43.877  14.847
74535ION    CL-47603  36.538  32.887   2.109
74536ION    CL-47604  33.597  21.775   4.086
74537ION    CL-47605  27.961  22.129   2.260
74538ION    CL-47606  12.075  23.778   0.035
74539ION    CL-47607  38.784   1.967   4.641
74540ION    CL-47608  18.488  33.444   0.744
74541ION    CL-47609  23.198   6.205   3.320
74542ION    CL-47610   1.731  38.652  13.786
74543ION    CL-47611  43.523  37.039   1.061
74544ION    CL-47612   1.406  24.342  12.865
74545ION    CL-47613  14.460  26.506   3.636
74546ION    CL-47614  22.669  29.031   1.678
74547ION    CL-47615  26.531  27.044  11.372
74548ION    CL-47616  38.891  41.026  13.442
74549ION    CL-47617  18.620  17.510   2.733
74550ION    CL-47618  39.011  18.605  14.538
74551ION    CL-47619  16.179  22.233   2.800
74552ION    CL-47620   1.194  20.244  11.102
74553ION    CL-47621  34.593  15.377  14.478
74554ION    CL-47622  14.946  21.121  10.909
74555ION    CL-47623  35.137  22.305  14.537
74556ION    CL-47624  29.641  41.759  14.902
74557ION    CL-47625  36.187  26.994  14.539
74558ION    CL-47626   2.273  27.251  12.366
74559ION    CL-47627  43.253  10.353  14.345
74560ION    CL-47628  24.513  16.203  10.978
74561ION    CL-47629   9.453   4.793   2.808
74562ION    CL-47630   9.351  17.388  11.108
74563ION    CL-47631  17.701   6.468  12.965
74564ION    CL-47632  12.151  13.677   2.955
74565ION    CL-47633  36.560  22.744  10.279
74566ION    CL-47634  43.489   3.232   0.367
74567ION    CL-47635  38.513  18.793  12.220
74568ION    CL-47636  13.241  17.807   3.674
74569ION    CL-47637  44.001  26.592   3.223
74570ION    CL-47638   1.496  30.330   4.065
74571ION    CL-47639  27.147   8.721  10.758
74572ION    CL-47640  38.419   2.852  14.414
74573ION    CL-47641  38.819   9.171  12.080
74574ION    CL-47642   3.685  37.954  11.757
74575ION    CL-47643  22.128  31.540   2.334
74576ION    CL-47644  18.487   0.945   4.024
74577ION    CL-47645  21.224   1.042  11.947
74578ION    CL-47646  40.302  28.471  13.003
74579ION    CL-47647  35.392  43.437  10.872
74580ION    CL-47648  25.753  19.109   1.563
74581ION    CL-47649  10.476  11.211  10.284
74582ION    CL-47650  18.009  32.668   1.833
74583ION    CL-47651  41.638  27.044   1.677
74584ION    CL-47652  17.367  43.766   3.331
74585ION    CL-47653  39.631   3.295   2.374
74586ION    CL-47654  29.164  33.939  14.122
74587ION    CL-47655   4.965  29.434   2.717
74588ION    CL-47656  41.278  39.824   2.809
74589ION    CL-47657   9.970  43.086   4.181
74590ION    CL-47658  35.493  40.443  13.460
74591ION    CL-47659  26.337  22.670   4.715
74592ION    CL-47660   1.623  15.256  12.840
74593ION    CL-47661  35.583  10.507   0.349
74594ION    CL-47662   0.197  21.754   5.075
74595ION    CL-47663  42.135   7.987  13.596
74596ION    CL-47664  44.294  36.111   2.927
74597ION    CL-47665  31.582  15.875  13.951
74598ION    CL-47666   0.221  13.837   1.410
74599ION    CL-47667  25.714  16.717  10.836
74600ION    CL-47668   2.552  31.193  11.173
74601ION    CL-47669   1.119  21.730  13.338
74602ION    CL-47670  40.445  36.603   3.632
74603ION    CL-47671  27.884  20.998  11.617
74604ION    CL-47672  38.343  12.881   0.738
74605ION    CL-47673  43.909   7.868   3.409
74606ION    CL-47674  37.695   5.213   2.592
74607ION    CL-47675  29.193  36.085   0.070
74608ION    CL-47676  25.144  18.412   0.206
74609ION    CL-47677  30.818   0.450  13.361
74610ION    CL-47678   3.189  27.932   3.101
74611ION    CL-47679  18.920   0.723   0.707
74612ION    CL-47680  36.969  11.951  12.511
74613ION    CL-47681  29.366  13.411   2.396
74614ION    CL-47682  32.854  18.982   0.800
74615ION    CL-47683  41.445   8.793  12.695
74616ION    CL-47684  26.017  31.464   1.766
74617ION    CL-47685  27.289  11.022  13.970
74618ION    CL-47686  12.649  21.395   2.008
74619ION    CL-47687  42.337   8.921   3.365
74620ION    CL-47688   9.593   0.502  14.277
74621ION    CL-47689  41.528   8.570   4.999
74622ION    CL-47690   7.960  26.285   0.927
74623ION    CL-47691   3.523   2.970   4.909
74624ION    CL-47692  40.347  24.196   0.624
74625ION    CL-47693  18.334  30.586  12.298
74626ION    CL-47694  44.345   8.871  12.465
74627ION    CL-47695  38.103  37.398  11.423
74628ION    CL-47696   1.486  43.928  13.781
74629ION    CL-47697  40.520  11.203  12.471
74630ION    CL-47698  14.646   8.690  14.727
74631ION    CL-47699   0.357  35.409   0.230
74632ION    CL-47700  41.046  15.972  13.046
74633ION    CL-47701  13.162  18.160  12.879
74634ION    CL-47702  35.875  35.880  13.899
74635ION    CL-47703  33.302  28.217  14.829
74636ION    CL-47704  38.019  14.363   2.573
74637ION    CL-47705  18.380  10.998  10.233
74638ION    CL-47706  28.545  41.891  11.998
74639ION    CL-47707  12.863  22.285   2.411
74640ION    CL-47708   3.897  31.849  13.278
74641ION    CL-47709  17.995  35.818  13.385
74642ION    CL-47710  21.148  36.228   0.336
74643ION    CL-47711  35.167  10.888   3.122
74644ION    CL-47712   3.359   3.746   4.734
74645ION    CL-47713   7.801   0.563   4.809
74646ION    CL-47714  22.788  22.156  14.841
74647ION    CL-47715  10.283  13.811  12.423
74648ION    CL-47716  35.062  14.626   1.796
74649ION    CL-47717   4.325  44.503   2.107
74650ION    CL-47718  31.182  37.481   0.826
74651ION    CL-47719  16.072  28.629   1.275
74652ION    CL-47720  10.309  44.807  14.202
74653ION    CL-47721   4.950  23.298   0.709
74654ION    CL-47722  31.031  12.182   3.328
74655ION    CL-47723  42.611  44.978   0.546
74656ION    CL-47724  14.002  19.737  12.392
74657ION    CL-47725  20.010  12.529  11.861
74658ION    CL-47726  31.607  12.829  11.972
74659ION    CL-47727  35.434   2.815   0.788
74660ION    CL-47728  15.384   2.316  12.405
74661ION    CL-47729  18.192  39.065  11.999
74662ION    CL-47730  40.626  32.470   4.727
74663ION    CL-47731  39.787   8.832  10.482
74664ION    CL-47732  26.534  12.782  10.288
74665ION    CL-47733  18.082  37.422  12.297
74666ION    CL-47734  36.200  11.276   0.175
74667ION    CL-47735   7.283  43.759  11.193
74668ION    CL-47736  24.188   4.359   2.834
74669ION    CL-47737  36.559  15.142  12.849
74670ION    CL-47738   3.272  31.910  12.660
74671ION    CL-47739   5.255  22.353   3.595
74672ION    CL-47740  21.726  28.461   0.863
74673ION    CL-47741  35.140  25.716  12.040
74674ION    CL-47742  39.179  32.932  11.079
74675ION    CL-47743  31.093  33.078  12.644
74676ION    CL-47744  35.870  38.214  10.821
74677ION    CL-47745   1.118  16.558   2.914
74678ION    CL-47746   7.250   8.665  14.888
74679ION    CL-47747   7.139   8.929  10.374
74680ION    CL-47748  31.769  18.952   3.227
74681ION    CL-47749  29.866  13.083   3.010
74682ION    CL-47750  32.877   9.538  14.115
74683ION    CL-47751  15.156  28.185  11.664
74684ION    CL-47752   6.162  31.425   2.657
74685ION    CL-47753  42.639  20.703   5.061
74686ION    CL-47754  35.866  39.306   4.740
74687ION    CL-47755  35.178   7.807  13.140
74688ION    CL-47756  24.860  10.192  14.157
74689ION    CL-47757  16.359  26.405  12.999
74690ION    CL-47758   0.071  41.720   1.228
74691ION    CL-47759  41.836  17.563  12.998
74692ION    CL-47760  21.240  14.923   9.744
74693ION    CL-47761  14.391  38.451  13.070
74694ION    CL-47762  14.398  15.300   1.964
74695ION    CL-47763  13.572  25.430  10.867
74696ION    CL-47764  14.027  12.587   1.833
74697ION    CL-47765  31.233   0.206  10.363
74698ION    CL-47766  23.619  23.027   1.943
74699ION    CL-47767   4.382  19.007  12.768
74700ION    CL-47768   0.950  16.554  14.950
74701ION    CL-47769  39.628  42.229   0.071
74702ION    CL-47770  37.311  11.803   1.962
74703ION    CL-47771  19.153  26.758  13.984
74704ION    CL-47772  13.269  30.513  13.248
74705ION    CL-47773  36.478  22.063  12.953
74706ION    CL-47774  25.541   0.454   3.949
74707ION    CL-47775  43.060  21.205  14.481
74708ION    CL-47776   8.307  14.167  12.843
74709ION    CL-47777   4.294  25.665  12.138
74710ION    CL-47778   2.340   9.266   3.174
74711ION    CL-47779   7.431  32.089   3.360
74712ION    CL-47780   8.709   9.419  12.547
74713ION    CL-47781   4.909  21.667  11.120
74714ION    CL-47782  13.726  25.020  13.816
74715ION    CL-47783   5.127  42.291   0.879
74716ION    CL-47784  14.348   7.007  14.314
74717ION    CL-47785  20.767  28.532   4.560
74718ION    CL-47786  18.666  14.459  10.801
74719ION    CL-47787  12.605  22.433   4.297
74720ION    CL-47788   9.432  31.030   0.482
74721ION    CL-47789  38.253  39.263  14.745
74722ION    CL-47790  44.339  35.729   1.410
74723ION    CL-47791  44.182  41.192  12.164
74724ION    CL-47792  34.626  17.708   3.680
74725ION    CL-47793   9.458  44.178  11.644
74726ION    CL-47794  25.095  14.775   0.039
74727ION    CL-47795  10.028   2.159   3.817
74728ION    CL-47796   1.811   2.865  11.111
74729ION    CL-47797  37.167  28.978  14.110
74730ION    CL-47798  35.087  42.987   2.861
74731ION    CL-47799  31.961   3.392   9.972
74732ION    CL-47800   1.090  20.094   1.266
74733ION    CL-47801  32.049  21.535  11.532
74734ION    CL-47802  23.459  26.917   2.607
74735ION    CL-47803  22.296  16.422  13.751
74736ION    CL-47804  37.197  42.270   5.165
74737ION    CL-47805  35.060  14.213  12.540
74738ION    CL-47806   0.745  36.602   3.380
74739ION    CL-47807  22.642   9.155  12.438
74740ION    CL-47808   0.537  18.098  13.485
74741ION    CL-47809  12.665  16.193   5.481
74742ION    CL-47810  29.236  23.928  12.006
74743ION    CL-47811  36.235  39.714   2.076
74744ION    CL-47812  36.775  28.605   2.756
74745ION    CL-47813  12.854  43.708  11.912
74746ION    CL-47814   6.872  36.507  14.505
74747ION    CL-47815   1.728  12.196   3.263
74748ION    CL-47816   7.303  24.519   2.327
74749ION    CL-47817   3.042  33.220  13.148
74750ION    CL-47818  22.360  37.433   0.654
74751ION    CL-47819  35.665   1.335   3.367
74752ION    CL-47820  29.431  22.554   4.924
74753ION    CL-47821  12.867  30.706  12.016
74754ION    CL-47822  11.451  32.531  14.571
74755ION    CL-47823  12.669  32.529  10.922
74756ION    CL-47824  36.855  22.924   1.738
74757ION    CL-47825  26.025  36.321  10.392
74758ION    CL-47826   8.292  42.386  10.707
74759ION    CL-47827  27.233  25.662  11.294
74760ION    CL-47828  33.009  10.735   1.494
74761ION    CL-47829  41.260  24.282   5.028
74762ION    CL-47830  44.591  24.971   4.212
74763ION    CL-47831  18.652  16.917  10.914
74764ION    CL-47832  37.631  16.618   4.361
74765ION    CL-47833  43.368  42.255   0.563
74766ION    CL-47834  38.242   0.399   4.109
74767ION    CL-47835  37.102  14.769   2.771
74768ION    CL-47836  36.786  41.077   1.391
74769ION    CL-47837  10.736  20.183   2.030
74770ION    CL-47838  20.610  32.805  10.461
74771ION    CL-47839  36.497   7.859  11.051
74772ION    CL-47840  15.689  19.121   3.578
74773ION    CL-47841   6.351  33.143   2.237
74774ION    CL-47842  36.424   7.703   0.501
74775ION    CL-47843  12.249  12.417  12.894
74776ION    CL-47844  16.218  39.390   2.087
74777ION    CL-47845   3.972  29.793  11.044
74778ION    CL-47846  12.099  11.621   1.744
74779ION    CL-47847  18.456  21.609  14.597
74780ION    CL-47848  41.257  27.645   0.346
74781ION    CL-47849  38.865  16.700   1.184
74782ION    CL-47850  10.432  27.728  12.922
74783ION    CL-47851  14.309  29.365  10.533
74784ION    CL-47852  35.038  17.157   1.814
74785ION    CL-47853  38.612   9.672   3.668
74786ION    CL-47854  33.950  27.409   1.668
74787ION    CL-47855  25.501   1.146   3.227
74788ION    CL-47856  38.849  34.379  11.945
74789ION    CL-47857  19.594  28.756   2.492
74790ION    CL-47858  44.741  12.726   1.658
74791ION    CL-47859  13.439  20.366  10.920
74792ION    CL-47860   3.922   1.788   4.102
74793ION    CL-47861   4.990  20.295  14.295
74794ION    CL-47862  33.163  37.270   3.653
74795ION    CL-47863  36.430  31.121  14.828
74796ION    CL-47864  43.173   8.175   5.021
74797ION    CL-47865   5.898  12.023  14.439
74798ION    CL-47866  38.266  20.089   0.691
74799ION    CL-47867  13.282  27.734  12.419
74800ION    CL-47868  27.991  24.878  14.361
74801ION    CL-47869  42.995  23.769  12.804
74802ION    CL-47870  22.427  42.775   2.838
74803ION    CL-47871  36.629  42.057  12.097
74804ION    CL-47872  39.307  21.171   0.008
74805ION    CL-47873   4.956  22.415  14.280
74806ION    CL-47874  35.414  21.237   1.023
74807ION    CL-47875   0.529  29.447   2.185
74808ION    CL-47876  32.570  35.825   0.482
74809ION    CL-47877  25.021  34.344   2.409
74810ION    CL-47878  38.601   7.716  10.424
74811ION    CL-47879  27.235   8.015   2.706
74812ION    CL-47880  41.082   3.355  14.622
74813ION    CL-47881  16.368   3.628   4.298
74814ION    CL-47882  17.546  25.116  14.575
74815ION    CL-47883  32.025   6.953  13.634
74816ION    CL-47884  31.695  34.450   2.044
74817ION    CL-47885  32.243  16.761  11.485
74818ION    CL-47886  21.733  28.646  11.113
74819ION    CL-47887  40.313  31.600   0.382
74820ION    CL-47888  39.102  42.958   2.630
74821ION    CL-47889  28.664  25.653   2.822
74822ION    CL-47890  27.048  35.602  11.101
74823ION    CL-47891   6.731   4.965   2.003
74824ION    CL-47892   3.035  11.105   3.488
74825ION    CL-47893   4.829  38.586   0.673
74826ION    CL-47894  25.597  29.536  13.620
74827ION    CL-47895  42.707  24.982   1.807
74828ION    CL-47896  33.150  42.963  15.000
74829ION    CL-47897  32.932  34.209   3.952
74830ION    CL-47898  29.803  17.006  12.459
74831ION    CL-47899  32.679  19.180  10.752
74832ION    CL-47900  31.908  37.398   3.011
74833ION    CL-47901   5.153  28.636  13.322
74834ION    CL-47902   3.711  14.283   4.066
74835ION    CL-47903   2.496  21.562  14.004
74836ION    CL-47904   1.776   9.951  13.943
74837ION    CL-47905  25.976  38.198  13.631
74838ION    CL-47906   0.280  41.390  13.059
74839ION    CL-47907   7.722  13.387  14.446
74840ION    CL-47908  35.836  23.608   3.178
74841ION    CL-47909  23.691   5.192   4.181
74842ION    CL-47910   6.293  41.784  13.997
74843ION    CL-47911  44.914  38.505   0.923
74844ION    CL-47912  32.211   4.311  11.174
74845ION    CL-47913  16.560  23.218   2.873
74846ION    CL-47914  16.036   2.005  13.858
74847ION    CL-47915  44.393   7.396  11.534
74848ION    CL-47916  24.441   5.606  14.139
74849ION    CL-47917   0.966   2.073  13.251
74850ION    CL-47918  27.129   8.923  13.917
74851ION    CL-47919  44.958  33.856   2.160
74852ION    CL-47920  32.945  25.406   4.515
74853ION    CL-47921  11.278  33.515  12.756
74854ION    CL-47922  29.994  31.045   4.396
74855ION    CL-47923  11.226  12.434  11.544
74856ION    CL-47924  25.499  31.770   4.022
74857ION    CL-47925  42.607   9.623   4.026
74858ION    CL-47926  27.369  38.969   4.141
74859ION    CL-47927  31.352   8.951  10.302
74860ION    CL-47928  26.682  15.848   2.196
74861ION    CL-47929   4.893  32.788   2.445
74862ION    CL-47930  27.400  20.126   1.767
74863ION    CL-47931   1.597  38.251   3.204
74864ION    CL-47932  37.541  30.016   1.343
74865ION    CL-47933  20.579  43.656  13.225
74866ION    CL-47934  37.883   1.973   1.742
74867ION    CL-47935  30.371  12.610  11.610
74868ION    CL-47936  14.647  18.350   1.432
74869ION    CL-47937  29.251  15.424   4.485
74870ION    CL-47938   4.137  21.005  12.089
74871ION    CL-47939  19.867   0.329   0.957
74872ION    CL-47940  13.050  29.803   2.377
74873ION    CL-47941  14.328   3.011   0.753
74874ION    CL-47942  16.618   0.770   2.682
74875ION    CL-47943  37.221  26.065   0.490
74876ION    CL-47944   5.233   9.410  14.049
74877ION    CL-47945  11.942  42.327   4.145
74878ION    CL-47946  31.362  34.305   2.848
74879ION    CL-47947   8.374  29.450   1.607
74880ION    CL-47948  18.967  14.798   0.799
74881ION    CL-47949  12.101  17.915  12.522
74882ION    CL-47950  29.448   1.457  10.750
74883ION    CL-47951  21.795   7.630  11.127
74884ION    CL-47952  29.148  10.649   1.684
74885ION    CL-47953  19.521  20.256  12.972
74886ION    CL-47954  15.503  22.876  11.444
74887ION    CL-47955  33.285  31.344  13.727
74888ION    CL-47956   2.786  36.480  11.404
74889ION    CL-47957  32.048  43.927  13.562
74890ION    CL-47958  44.799  40.674   4.043
74891ION    CL-47959  12.528  27.419   1.326
74892ION    CL-47960   5.410  36.050  11.385
74893ION    CL-47961  13.496  21.262  13.848
74894ION    CL-47962   1.423   2.308  14.434
74895ION    CL-47963  15.321  10.105   3.725
74896ION    CL-47964  13.036   3.950   2.927
74897ION    CL-47965   2.878  36.564   2.598
74898ION    CL-47966   3.251  35.391  11.993
74899ION    CL-47967  32.720  37.595  11.909
74900ION    CL-47968   8.742  14.127   0.550
74901ION    CL-47969  43.777  21.695   0.781
74902ION    CL-47970  13.605  27.603   4.528
74903ION    CL-47971  34.042  37.571   2.666
74904ION    CL-47972  26.112  20.792   2.546
74905ION    CL-47973   9.844  15.646   2.223
74906ION    CL-47974  11.377  16.119   3.242
74907ION    CL-47975  34.777  10.470  14.756
74908ION    CL-47976  25.156   0.347   1.843
74909ION    CL-47977  11.737  43.462   2.818
74910ION    CL-47978  33.685  19.758  12.793
74911ION    CL-47979  17.861  10.645  12.652
74912ION    CL-47980  40.966  11.284   0.806
74913ION    CL-47981  38.404  14.608  12.186
74914ION    CL-47982  25.438  28.637   3.298
74915ION    CL-47983  17.671  24.633   4.157
74916ION    CL-47984  28.961  17.433   2.481
74917ION    CL-47985   8.176  43.718  14.055
74918ION    CL-47986  19.363  29.629   2.922
74919ION    CL-47987  33.037   5.058   0.348
74920ION    CL-47988  27.195   2.437  13.836
74921ION    CL-47989   1.674  29.029  14.857
74922ION    CL-47990  29.454   5.844   2.400
74923ION    CL-47991  19.450  23.779  11.066
74924ION    CL-47992  23.154   6.098   1.241
74925ION    CL-47993   0.602  25.714  14.182
74926ION    CL-47994   0.374   3.020   2.338
74927ION    CL-47995  20.673  35.115   3.508
74928ION    CL-47996  36.659  28.724  11.846
74929ION    CL-47997  23.962  33.626  13.495
74930ION    CL-47998  42.270   8.684  11.190
74931ION    CL-47999  13.584  29.377  12.089
74932ION    CL-48000  10.034  36.107   2.843
74933ION    CL-48001  36.651  32.102   4.985
74934ION    CL-48002  35.691  42.180  12.100
74935ION    CL-48003  10.706  18.732   2.795
74936ION    CL-48004  20.667   5.864  14.781
74937ION    CL-48005  36.963  38.137  11.903
74938ION    CL-48006   9.086  21.270  13.430
74939ION    CL-48007  38.846  36.158   2.744
74940ION    CL-48008  32.688  21.270  14.775
74941ION    CL-48009  38.582   6.849  12.877
74942ION    CL-48010   4.792  18.701   3.608
74943ION    CL-48011  36.921   8.087   1.139
74944ION    CL-48012  41.211  38.004   0.279
74945ION    CL-48013  25.642  44.843   2.623
74946ION    CL-48014  19.761  43.646   2.708
74947ION    CL-48015   4.835   8.922  13.415
74948ION    CL-48016  30.520   7.587  12.610
74949ION    CL-48017  33.256   9.217   3.189
74950ION    CL-48018   6.389  35.922   4.037
74951ION    CL-48019  44.507  33.178   4.158
74952ION    CL-48020  26.735  12.920  13.892
74953ION    CL-48021  21.325  33.785  13.215
74954ION    CL-48022  19.662  16.103   0.964
74955ION    CL-48023   2.123  32.546   4.203
74956ION    CL-48024  32.195   0.370   4.969
74957ION    CL-48025  29.996  23.818   2.224
74958ION    CL-48026  41.847  39.414  14.798
74959ION    CL-48027  31.471   6.070  13.987
74960ION    CL-48028   0.927  30.910  13.067
74961ION    CL-48029   6.754  44.107  14.990
74962ION    CL-48030  31.809  35.212   1.562
74963ION    CL-48031  40.820  14.558   3.831
74964ION    CL-48032   6.919  22.236  11.189
74965ION    CL-48033  34.793  24.968   1.478
74966ION    CL-48034  34.878   6.349  12.455
74967ION    CL-48035  37.622  33.019   0.639
74968ION    CL-48036  20.507  43.825  10.266
74969ION    CL-48037  43.587  33.748   2.133
74970ION    CL-48038  13.670  37.217   2.587
74971ION    CL-48039  26.198  29.676   0.534
74972ION    CL-48040  21.154   7.925  14.851
74973ION    CL-48041  39.728  14.722   1.349
74974ION    CL-48042  11.695  34.031   4.823
74975ION    CL-48043  34.984  24.051   4.875
74976ION    CL-48044   9.612  20.392   0.113
74977ION    CL-48045   5.233  23.179   4.160
74978ION    CL-48046  35.481  11.731   2.127
74979ION    CL-48047  13.811  33.440  13.372
74980ION    CL-48048   6.620  43.161  10.351
74981ION    CL-48049  41.950  44.765  12.380
74982ION    CL-48050  21.122  21.220  12.010
74983ION    CL-48051   2.676  26.027   0.838
74984ION    CL-48052  16.050  32.160   0.194
74985ION    CL-48053  24.360  39.539  12.294
74986ION    CL-48054  19.193  14.298  14.795
74987ION    CL-48055  19.757  31.616   1.414
74988ION    CL-48056  15.723  24.874  13.608
74989ION    CL-48057  21.326   0.237   3.823
74990ION    CL-48058  44.428  28.015   4.557
74991ION    CL-48059  16.907   0.461  13.082
74992ION    CL-48060  10.341  28.366   4.338
74993ION    CL-48061  39.595  35.174   4.730
74994ION    CL-48062  16.177  32.168   1.820
74995ION    CL-48063   5.590  32.247  14.442
74996ION    CL-48064  34.582  34.609   4.259
74997ION    CL-48065  39.639   4.389   1.039
74998ION    CL-48066   1.085  27.864   0.376
74999ION    CL-48067  20.248  19.597   0.191
75000ION    CL-48068  37.256  15.015   1.814
75001ION    CL-48069   7.353  44.597   3.429
75002ION    CL-48070  14.148  38.496  10.597
75003ION    CL-48071  37.601   4.358  11.798
75004ION    CL-48072  28.871  11.598  11.467
75005ION    CL-48073  42.200   8.414   0.270
75006ION    CL-48074  27.305  28.651   0.503
75007ION    CL-48075  42.012  40.592  11.608
75008ION    CL-48076   0.018  14.914  12.124
75009ION    CL-48077  20.589  40.618   4.767
75010ION    CL-48078  24.791   5.836   4.980
75011ION    CL-48079  31.004  31.500   1.486
75012ION    CL-48080  10.890  18.011   4.839
75013ION    CL-48081   6.627   6.476   1.117
75014ION    CL-48082   9.147  23.284   3.660
75015ION    CL-48083  19.679   3.461   0.435
75016ION    CL-48084   3.724  10.335   1.392
75017ION    CL-48085  19.822  19.112   3.322
75018ION    CL-48086  41.017   4.702   1.840
75019ION    CL-48087  34.074  34.980   0.656
75020ION    CL-48088  39.288   6.423   3.789
75021ION    CL-48089  28.451  10.642   2.402
75022ION    CL-48090   4.426   3.617  13.309
75023ION    CL-48091   3.182  15.367   2.009
75024ION    CL-48092  30.853  14.364  10.378
75025ION    CL-48093  30.696  38.548  13.125
75026ION    CL-48094  44.188   2.383  12.444
75027ION    CL-48095  12.305  10.802  10.662
75028ION    CL-48096  16.383  34.300   0.020
75029ION    CL-48097  21.631  28.576   4.057
75030ION    CL-48098  20.430  37.745   1.845
75031ION    CL-48099  21.286  13.067   4.252
75032ION    CL-48100  13.634   7.921  12.271
75033ION    CL-48101  33.111   0.711  12.091
75034ION    CL-48102  35.571  16.580   4.173
75035ION    CL-48103  23.290   0.148   0.262
75036ION    CL-48104  24.079   1.712   3.952
75037ION    CL-48105  32.139  43.730   3.361
75038ION    CL-48106   2.341  11.778   0.764
75039ION    CL-48107  40.364  12.942  14.818
75040ION    CL-48108  13.098  31.674  12.448
75041ION    CL-48109  16.863  13.827   1.702
75042ION    CL-48110  21.025  32.924  12.728
75043ION    CL-48111  35.061  27.212   2.684
75044ION    CL-48112  23.707  28.019   1.825
75045ION    CL-48113   6.295  12.898  12.412
75046ION    CL-48114  13.357   4.883  11.257
75047ION    CL-48115  19.556   3.779   2.681
75048ION    CL-48116  17.735  44.291  12.126
75049ION    CL-48117  27.752   6.239   4.046
75050ION    CL-48118  17.514  13.608   0.245
75051ION    CL-48119  41.983  15.593   0.072
75052ION    CL-48120  31.473  37.807   4.413
75053ION    CL-48121  28.755  40.284  14.352
75054ION    CL-48122  40.295  27.083   4.986
75055ION    CL-48123  41.359   6.984  14.038
75056ION    CL-48124  10.299  20.105  13.398
75057ION    CL-48125  22.824  31.947   3.100
75058ION    CL-48126  12.626  40.357   1.833
75059ION    CL-48127   5.733  39.794  12.977
75060ION    CL-48128  39.395  10.205   3.175
75061ION    CL-48129  17.836   6.368  12.113
75062ION    CL-48130  44.332   8.743  14.725
75063ION    CL-48131  14.439   4.224   1.650
75064ION    CL-48132  41.109  21.234   2.389
75065ION    CL-48133  33.985  13.346   5.032
75066ION    CL-48134  10.210  11.560   0.761
75067ION    CL-48135   6.282   8.229  11.895
75068ION    CL-48136  28.514  27.558  12.563
75069ION    CL-48137   8.714  19.534   3.832
75070ION    CL-48138  25.648   5.464   1.738
75071ION    CL-48139  30.409  39.844  12.946
75072ION    CL-48140   3.432  22.098   2.314
75073ION    CL-48141   8.793  22.215   1.356
75074ION    CL-48142   4.696  35.155   0.409
75075ION    CL-48143  11.122  13.658  10.792
75076ION    CL-48144  13.307  38.662  13.031
75077ION    CL-48145  39.017  33.588   1.813
75078ION    CL-48146  14.945  36.500  10.940
75079ION    CL-48147   8.070  35.263  13.315
75080ION    CL-48148  43.352   8.697   3.361
75081ION    CL-48149  12.631  16.615   4.077
75082ION    CL-48150   0.541  29.265   4.522
75083ION    CL-48151   2.938  29.821  11.828
75084ION    CL-48152  44.281  40.951  13.866
75085ION    CL-48153  23.112  22.013   3.624
75086ION    CL-48154   9.858  29.911  11.002
75087ION    CL-48155  10.762  44.849  13.312
75088ION    CL-48156  14.794  30.503   0.943
75089ION    CL-48157  20.109  38.825  10.727
75090ION    CL-48158  42.398   3.066  14.466
75091ION    CL-48159  32.026  42.542   1.299
75092ION    CL-48160  43.908  43.221  13.565
75093ION    CL-48161  23.056   7.422  14.023
75094ION    CL-48162  37.968  14.907   3.357
75095ION    CL-48163  29.930  12.620  10.458
75096ION    CL-48164  23.056  43.400  10.311
75097ION    CL-48165  36.991  19.109   3.729
75098ION    CL-48166  21.336  38.592   4.098
75099ION    CL-48167  30.876  18.067   4.111
75100ION    CL-48168   7.858   0.230  13.418
75101ION    CL-48169  39.430   0.183   4.857
75102ION    CL-48170  38.407   8.761   1.706
75103ION    CL-48171  29.307  32.143   4.950
75104ION    CL-48172  17.588   0.969  13.451
75105ION    CL-48173  29.485  36.459   4.432
75106ION    CL-48174  27.048  40.598   1.843
75107ION    CL-48175  20.331  28.504   1.645
75108ION    CL-48176  16.484  34.802  14.506
75109ION    CL-48177  40.724  35.863   5.077
75110ION    CL-48178   6.694  10.393   3.778
75111ION    CL-48179  16.690  18.295  11.003
75112ION    CL-48180  27.188  33.635   4.256
75113ION    CL-48181   2.013  24.170  14.384
75114ION    CL-48182  14.683  21.734  14.752
75115ION    CL-48183  38.915  11.214   2.671
75116ION    CL-48184  34.185  43.953   4.286
75117ION    CL-48185   8.676  12.537  13.029
75118ION    CL-48186  12.506  14.519   4.265
75119ION    CL-48187  31.708  41.270   3.886
75120ION    CL-48188  37.984  14.812   4.234
75121ION    CL-48189  24.257  39.229  10.996
75122ION    CL-48190   8.184  11.520   4.157
75123ION    CL-48191   8.820   9.789   2.397
75124ION    CL-48192   8.272  11.354  11.712
75125ION    CL-48193  16.079  15.220  13.553
75126ION    CL-48194   5.673  32.737  12.452
75127ION    CL-48195   5.052  21.528  14.072
75128ION    CL-48196  27.292  27.965   4.163
75129ION    CL-48197  23.249  10.302   0.631
75130ION    CL-48198  36.205  39.191  13.842
75131ION    CL-48199  42.524   1.470  14.151
75132ION    CL-48200  37.820  35.787   0.317
75133ION    CL-48201  10.774  20.047  10.904
75134ION    CL-48202  23.670  38.081   3.326
75135ION    CL-48203   6.255  40.427  14.979
75136ION    CL-48204   1.487  41.284  11.518
75137ION    CL-48205  22.686  24.809  12.527
75138ION    CL-48206   8.734  22.656   0.255
75139ION    CL-48207  20.149  32.389   0.128
75140ION    CL-48208  37.643  31.647   0.510
75141ION    CL-48209  16.987  18.483   0.152
75142ION    CL-48210  30.754  37.125  12.547
75143ION    CL-48211  13.717   4.876  10.424
75144ION    CL-48212  33.458   3.749   3.752
75145ION    CL-48213  10.901  22.724  14.246
75146ION    CL-48214  40.462  23.855   1.583
75147ION    CL-48215  37.765  16.199   0.073
75148ION    CL-48216  27.055  26.154  14.390
75149ION    CL-48217  19.752  18.259  13.766
75150ION    CL-48218  11.210  39.682   2.752
75151ION    CL-48219  39.247   2.866   4.492
75152ION    CL-48220  36.929  44.698   4.961
75153ION    CL-48221  41.883  41.194  13.422
75154ION    CL-48222  20.835  33.815   1.663
75155ION    CL-48223  41.310  27.027  13.619
75156ION    CL-48224  16.529  12.046   2.745
75157ION    CL-48225  38.755  41.494   3.584
75158ION    CL-48226  13.813  22.680  13.414
75159ION    CL-48227   4.786  31.598   2.865
75160ION    CL-48228   5.280  11.147   2.091
75161ION    CL-48229  25.989   2.561   2.624
75162ION    CL-48230   0.979  26.915   3.939
75163ION    CL-48231  37.863  36.416  11.746
75164ION    CL-48232  14.141  42.838   2.219
75165ION    CL-48233  36.243  42.055  12.837
75166ION    CL-48234   3.245  17.916   0.795
75167ION    CL-48235  15.211  27.138   0.086
75168ION    CL-48236  16.187  18.771   3.814
75169ION    CL-48237  12.341  23.962  12.075
75170ION    CL-48238  12.037  11.546   3.349
75171ION    CL-48239   5.955  22.580   1.771
75172ION    CL-48240   1.028  24.926   2.650
75173ION    CL-48241  42.752  11.645  13.174
75174ION    CL-48242  11.759  35.371   4.213
75175ION    CL-48243  19.742   1.256   3.500
75176ION    CL-48244   3.444  19.670   3.252
75177ION    CL-48245  18.069   6.063  11.255
75178ION    CL-48246  33.952  15.234  11.145
75179ION    CL-48247  38.073  12.266  12.097
75180ION    CL-48248  27.652  43.760  13.898
75181ION    CL-48249  14.680  37.349   3.256
75182ION    CL-48250  20.596   5.614  13.261
75183ION    CL-48251  27.534  14.814   1.886
75184ION    CL-48252  26.389  18.486   9.826
75185ION    CL-48253   0.539   3.725  14.910
75186ION    CL-48254   5.945  10.071   2.994
75187ION    CL-48255  43.437  34.935  14.453
75188ION    CL-48256  39.339  35.036   1.748
75189ION    CL-48257  44.759  32.368  11.353
75190ION    CL-48258  27.909  23.923  11.381
75191ION    CL-48259  20.516  34.983   0.474
75192ION    CL-48260  27.629  16.700  12.395
75193ION    CL-48261  36.100  34.827   0.323
75194ION    CL-48262   1.344  25.299   4.965
75195ION    CL-48263  37.869   7.731  13.628
75196ION    CL-48264  32.689   3.429   2.732
75197ION    CL-48265  24.517  17.098   2.425
75198ION    CL-48266  15.234   2.007   2.853
75199ION    CL-48267  24.674   0.136   3.157
75200ION    CL-48268  38.129  32.551  13.111
75201ION    CL-48269  23.199  13.628   1.947
75202ION    CL-48270  37.543  25.506  10.715
75203ION    CL-48271  26.108  35.604  11.593
75204ION    CL-48272  26.990   6.892  13.785
75205ION    CL-48273   1.412  34.101  12.599
75206ION    CL-48274   9.375  31.310   4.166
75207ION    CL-48275  12.614  19.986   0.896
75208ION    CL-48276   0.785  21.551   2.856
75209ION    CL-48277  30.621  11.473   2.937
75210ION    CL-48278   5.277   5.703   1.271
75211ION    CL-48279  27.066  38.624   0.457
75212ION    CL-48280   8.735  42.970   0.885
75213ION    CL-48281  22.225  39.540   4.051
75214ION    CL-48282  38.386  17.100   1.977
75215ION    CL-48283  30.086  36.589   3.123
75216ION    CL-48284   6.859   7.417   0.859
75217ION    CL-48285  41.762  44.502   3.423
75218ION    CL-48286  33.379  27.669  11.397
75219ION    CL-48287  43.968   0.187   4.099
75220ION    CL-48288  24.269  10.775  13.815
75221ION    CL-48289  41.748  43.101  13.476
75222ION    CL-48290  24.175  14.083   9.834
75223ION    CL-48291   8.738  32.662  11.026
75224ION    CL-48292  13.879  21.772   1.379
75225ION    CL-48293  25.639  16.834   9.571
75226ION    CL-48294  41.882   3.870  11.380
75227ION    CL-48295  36.407  20.787   1.448
75228ION    CL-48296   5.375  11.428   4.532
75229ION    CL-48297  15.848  20.694  10.977
75230ION    CL-48298  38.452  40.077   0.362
75231ION    CL-48299  27.792   9.470   3.360
75232ION    CL-48300  24.511  17.769   1.684
75233ION    CL-48301  31.190  31.961   0.618
75234ION    CL-48302  25.014  20.120  12.640
75235ION    CL-48303  42.984  41.721  10.305
75236ION    CL-48304   1.941  23.107  11.309
75237ION    CL-48305  40.534  16.351   5.263
75238ION    CL-48306   0.610  26.221   5.018
75239ION    CL-48307  21.807  11.205  10.925
75240ION    CL-48308  25.850  15.229  13.540
75241ION    CL-48309   7.479  24.922   4.274
75242ION    CL-48310  26.563  40.239   0.643
75243ION    CL-48311  15.014  33.908   2.299
75244ION    CL-48312  27.031  23.949   0.727
75245ION    CL-48313  30.765  12.808   9.941
75246ION    CL-48314  40.596  20.349  12.585
75247ION    CL-48315   0.624  21.588  14.278
75248ION    CL-48316   9.173   0.132   3.110
75249ION    CL-48317  24.905  32.058  14.781
75250ION    CL-48318   5.090  20.566   0.155
75251ION    CL-48319  39.718  24.507  10.485
75252ION    CL-48320  10.891  28.654  13.008
75253ION    CL-48321  31.357  18.316  11.119
75254ION    CL-48322  41.065  36.549   2.971
75255ION    CL-48323  42.980   4.332   2.452
75256ION    CL-48324  27.674   0.688   5.048
75257ION    CL-48325   1.967  37.869   4.091
75258ION    CL-48326  17.407  25.574   3.410
75259ION    CL-48327  35.869  40.932   0.317
75260ION    CL-48328  40.415   2.798  13.270
75261ION    CL-48329   8.540   7.148  14.095
75262ION    CL-48330  37.492  34.275  13.819
75263ION    CL-48331  14.307  28.110  14.864
75264ION    CL-48332   4.245  25.449   4.766
75265ION    CL-48333  14.676   3.199  11.579
75266ION    CL-48334  44.889  36.590  13.970
75267ION    CL-48335   9.918  32.134  12.864
75268ION    CL-48336  26.293   6.654  14.830
75269ION    CL-48337  44.254  24.518  14.969
75270ION    CL-48338   7.529   0.184   2.638
75271ION    CL-48339  32.059  13.520  13.687
75272ION    CL-48340  30.389  36.056  13.761
75273ION    CL-48341  32.549  41.560   0.859
75274ION    CL-48342  30.369   0.959   2.221
75275ION    CL-48343   8.661  33.044  14.433
75276ION    CL-48344  41.186  18.595   0.527
75277ION    CL-48345  28.764  15.526  13.758
75278ION    CL-48346  10.407  16.431  10.724
75279ION    CL-48347  14.525  39.231  12.355
75280ION    CL-48348   2.450  35.267   0.180
75281ION    CL-48349  15.069  25.703   3.546
75282ION    CL-48350  25.247   4.447   3.783
75283ION    CL-48351  36.873  27.772  10.379
75284ION    CL-48352  19.024  20.608   2.823
75285ION    CL-48353  10.763   0.573   4.198
75286ION    CL-48354  17.523  12.761  13.849
75287ION    CL-48355  10.460   4.320   0.263
75288ION    CL-48356  23.655  29.837   1.494
75289ION    CL-48357  26.584   0.326   3.817
75290ION    CL-48358   6.102  22.926   3.733
75291ION    CL-48359  40.062  40.463  13.999
75292ION    CL-48360   2.298  14.611   3.913
75293ION    CL-48361  31.975  14.746   1.751
75294ION    CL-48362  21.091   3.335  13.559
75295ION    CL-48363  26.688  14.699  13.401
75296ION    CL-48364   5.730  19.139  14.681
75297ION    CL-48365  21.189   5.389   4.048
75298ION    CL-48366  26.128  10.173  14.868
75299ION    CL-48367  10.291   8.392  13.010
75300ION    CL-48368  30.735  30.282  13.012
75301ION    CL-48369  32.784  10.410  11.773
75302ION    CL-48370  26.793   8.899   9.946
75303ION    CL-48371   0.312   5.118   3.228
75304ION    CL-48372  44.494   9.725  14.926
75305ION    CL-48373  22.762   8.570  11.215
75306ION    CL-48374  37.972  44.683   1.926
75307ION    CL-48375   9.266  23.067  14.347
75308ION    CL-48376  20.975   2.945   3.661
75309ION    CL-48377  14.346   4.816  11.200
75310ION    CL-48378  36.977  24.780   4.028
75311ION    CL-48379   1.578  36.868  11.733
75312ION    CL-48380   4.247   7.152   1.160
75313ION    CL-48381  38.936  13.859   0.901
75314ION    CL-48382   4.607  34.294  11.158
75315ION    CL-48383  42.918  10.136  10.969
75316ION    CL-48384  30.579   2.862  13.786
75317ION    CL-48385  36.557  24.869   9.816
75318ION    CL-48386  38.168  22.681  11.561
75319ION    CL-48387  25.791  19.175   3.281
75320ION    CL-48388  27.570  42.742  13.434
75321ION    CL-48389  25.657  12.897   9.931
75322ION    CL-48390   6.973  24.676   5.100
75323ION    CL-48391   9.281  37.374  10.627
75324ION    CL-48392  26.148  10.869   2.869
75325ION    CL-48393  20.696  35.586  13.280
75326ION    CL-48394  13.295  25.989  13.992
75327ION    CL-48395  16.105  19.773  12.982
75328ION    CL-48396  38.233  35.578   1.092
75329ION    CL-48397  37.289   2.664   1.331
75330ION    CL-48398  31.834  41.554   0.160
75331ION    CL-48399  40.959   4.498   5.002
75332ION    CL-48400   4.383  20.430   4.941
75333ION    CL-48401  38.145  33.012   1.910
75334ION    CL-48402   4.102  11.795   1.931
75335ION    CL-48403  21.043  18.175   2.890
75336ION    CL-48404  37.527   1.213   2.286
75337ION    CL-48405  16.546  43.985   0.999
75338ION    CL-48406  24.763  25.184  13.042
75339ION    CL-48407   3.482  26.345   0.573
75340ION    CL-48408  16.389  21.844   4.051
75341ION    CL-48409  33.048  10.911   0.458
75342ION    CL-48410  35.597  26.522  12.417
75343ION    CL-48411  25.632  19.268  10.739
75344ION    CL-48412  38.880  29.914   1.915
75345ION    CL-48413  21.708  24.474  12.460
75346ION    CL-48414  21.258   6.597  11.349
75347ION    CL-48415  13.645  23.851   3.847
75348ION    CL-48416  35.656  29.188   0.015
75349ION    CL-48417  12.582  17.267  14.045
75350ION    CL-48418  43.406  19.452  12.872
75351ION    CL-48419   6.936  40.060   9.875
75352ION    CL-48420   3.168   9.796  11.877
75353ION    CL-48421  38.214   2.028   4.000
75354ION    CL-48422   3.036  20.286  10.676
75355ION    CL-48423  27.945  36.700  14.087
75356ION    CL-48424  21.239  15.861  11.031
75357ION    CL-48425  40.554  40.760  12.928
75358ION    CL-48426  20.985  43.505  10.935
75359ION    CL-48427  36.351  21.880   3.908
75360ION    CL-48428   8.211  34.394  13.544
75361ION    CL-48429  28.655   1.067   4.320
75362ION    CL-48430  31.668  39.229  11.855
75363ION    CL-48431  36.780  16.877   4.183
75364ION    CL-48432  36.210  35.343  10.879
75365ION    CL-48433  41.012  19.900   1.273
75366ION    CL-48434  32.398  12.241  13.015
75367ION    CL-48435  21.517  33.940   4.092
75368ION    CL-48436  43.723  39.772  14.569
75369ION    CL-48437  20.949  30.288  12.621
75370ION    CL-48438   0.090  37.130   0.876
75371ION    CL-48439   8.984  14.060  12.114
75372ION    CL-48440  29.165  42.554  11.488
75373ION    CL-48441  42.732  22.109  13.378
75374ION    CL-48442  40.386  24.822   1.832
75375ION    CL-48443   5.211   8.294   2.301
75376ION    CL-48444   3.399   9.752  13.038
75377ION    CL-48445   7.818   7.822   9.818
75378ION    CL-48446  26.412   7.802   1.575
75379ION    CL-48447  23.962  24.668   5.080
75380ION    CL-48448  37.414  11.529   3.662
75381ION    CL-48449  43.605  21.970  12.910
75382ION    CL-48450  23.770   5.581   2.758
75383ION    CL-48451  14.072  24.201   5.104
75384ION    CL-48452  34.433  39.200   4.459
75385ION    CL-48453  15.351   3.314  12.340
75386ION    CL-48454  30.277  20.152  14.116
75387ION    CL-48455  40.123   8.559   0.408
75388ION    CL-48456  12.743   5.493   2.009
75389ION    CL-48457  27.996  28.271  13.035
75390ION    CL-48458   3.875  22.690  14.944
75391ION    CL-48459  13.423  21.973   3.941
75392ION    CL-48460  38.378  30.781  13.114
75393ION    CL-48461  34.568  22.813  12.022
75394ION    CL-48462  43.501   9.658   0.020
75395ION    CL-48463  36.790   3.446  10.213
75396ION    CL-48464  28.072  41.990  14.412
75397ION    CL-48465   9.557  20.068  14.144
75398ION    CL-48466  31.388  42.491   2.955
75399ION    CL-48467  44.860   3.591   0.631
75400ION    CL-48468  35.404  14.020   3.372
75401ION    CL-48469   5.437   3.369   0.011
75402ION    CL-48470   1.915  24.983  13.440
75403ION    CL-48471   5.356   8.225   1.285
75404ION    CL-48472  20.048  21.982   1.501
75405ION    CL-48473   3.307   2.262   2.011
75406ION    CL-48474  29.568  33.371  11.770
75407ION    CL-48475  15.650  27.190   4.857
75408ION    CL-48476  40.993  42.719  13.720
75409ION    CL-48477  31.681  38.894  12.797
75410ION    CL-48478  12.611  26.415   3.541
75411ION    CL-48479  33.304  26.604   3.622
75412ION    CL-48480  38.008  11.222   1.972
75413ION    CL-48481  31.824  34.270  14.401
75414ION    CL-48482  39.000   5.513   1.462
75415ION    CL-48483   6.725   1.978   1.014
75416ION    CL-48484   9.816  14.313   3.983
75417ION    CL-48485  37.312  14.716   9.925
75418ION    CL-48486  37.096  20.695  12.473
75419ION    CL-48487  17.293   8.366   1.375
75420ION    CL-48488   2.154  35.317  11.106
75421ION    CL-48489  42.064   2.395  13.284
75422ION    CL-48490   2.399   3.468  10.887
75423ION    CL-48491   6.198   1.407   9.945
75424ION    CL-48492  10.114  34.634  13.399
75425ION    CL-48493  43.762  28.790   0.518
75426ION    CL-48494  21.278  11.418  11.746
75427ION    CL-48495  30.086   1.997  13.140
75428ION    CL-48496  18.316  41.195   2.868
75429ION    CL-48497  39.040  26.290  11.051
75430ION    CL-48498  11.255  43.076   4.335
75431ION    CL-48499   1.928  33.695  11.446
75432ION    CL-48500  10.207  25.034   5.046
75433ION    CL-48501  16.068  21.469  13.603
75434ION    CL-48502  44.742  28.271  13.539
75435ION    CL-48503  22.302  38.256   4.096
75436ION    CL-48504  17.711  30.833  10.361
75437ION    CL-48505   5.323   4.708  13.294
75438ION    CL-48506  36.475  25.616   3.281
75439ION    CL-48507   0.011   2.152  12.964
75440ION    CL-48508   0.194  29.573  11.461
75441ION    CL-48509   7.752  18.119   1.403
75442ION    CL-48510   9.019  29.669   2.192
75443ION    CL-48511  12.849  30.138  14.363
75444ION    CL-48512   4.184  10.119  11.735
75445ION    CL-48513  43.714  11.366   0.541
75446ION    CL-48514  10.714  24.485  11.091
75447ION    CL-48515  35.928  43.413   0.919
75448ION    CL-48516  22.141  41.781   2.844
75449ION    CL-48517  34.486  20.150   3.292
75450ION    CL-48518   4.191   3.047  11.384
75451ION    CL-48519  39.048  13.277  12.127
75452ION    CL-48520  13.742   8.790  12.177
75453ION    CL-48521  13.768  39.721   3.789
75454ION    CL-48522  43.564  18.523   3.078
75455ION    CL-48523  37.207  20.868   4.286
75456ION    CL-48524  36.542  21.875  11.114
75457ION    CL-48525  31.424   0.680   3.845
75458ION    CL-48526  35.431  18.812   0.449
75459ION    CL-48527  43.904  10.445  13.591
75460ION    CL-48528   3.781  16.554  13.407
75461ION    CL-48529  15.978  32.265   4.371
75462ION    CL-48530  16.134  34.151  12.067
75463ION    CL-48531  36.716  40.139  11.202
75464ION    CL-48532  15.346  44.960   1.202
75465ION    CL-48533  28.916  32.981  13.978
75466ION    CL-48534  43.519  20.142   0.469
75467ION    CL-48535  17.972   6.399  14.385
75468ION    CL-48536  30.907  30.376  10.767
75469ION    CL-48537  15.551  17.558   4.104
75470ION    CL-48538  39.007  15.809  13.729
75471ION    CL-48539  44.378  11.575   2.832
75472ION    CL-48540  44.956  10.343  13.500
75473ION    CL-48541  16.555   7.319  11.662
75474ION    CL-48542  15.271   5.680  12.012
75475ION    CL-48543   2.289  24.597   4.103
75476ION    CL-48544   8.639  35.773   1.378
75477ION    CL-48545   0.232  38.053  14.929
75478ION    CL-48546  15.303  22.735   0.893
75479ION    CL-48547  35.458   8.608   1.938
75480ION    CL-48548  38.585  13.791   4.634
75481ION    CL-48549  27.881  12.279   0.778
75482ION    CL-48550  10.608   7.539  12.954
75483ION    CL-48551  13.789  14.705  13.399
75484ION    CL-48552   0.371  31.374   1.991
75485ION    CL-48553  17.726  21.323   1.454
75486ION    CL-48554  18.198   7.891   2.055
75487ION    CL-48555  44.909   6.991   4.631
75488ION    CL-48556  29.826  26.052   3.169
75489ION    CL-48557  26.386   8.887  10.418
75490ION    CL-48558   1.901  42.221  13.606
75491ION    CL-48559  38.511  18.516  13.181
75492ION    CL-48560  23.894  35.924   2.781
75493ION    CL-48561   5.266  15.897   2.303
75494ION    CL-48562  19.197  10.524  11.999
75495ION    CL-48563  19.473   3.198  12.540
75496ION    CL-48564  13.855  34.089   1.735
75497ION    CL-48565   2.254  37.397   5.054
75498ION    CL-48566   8.768  19.559  11.136
75499ION    CL-48567   5.077  24.791  14.303
75500ION    CL-48568  25.722  40.921  11.135
75501ION    CL-48569  19.602   8.778  13.912
75502ION    CL-48570  36.143  32.938  11.238
75503ION    CL-48571  39.782  37.468   3.175
75504ION    CL-48572   2.378  35.128  13.822
75505ION    CL-48573  28.122  20.369  13.133
75506ION    CL-48574   6.688   9.023  14.100
75507ION    CL-48575  37.177  40.113   2.362
75508ION    CL-48576   9.935  21.257  13.959
75509ION    CL-48577  23.273  16.599  11.096
75510ION    CL-48578  35.031  29.839  14.177
75511ION    CL-48579   2.774  36.651   1.486
75512ION    CL-48580  38.446  15.843   4.056
75513ION    CL-48581   9.419  13.384   2.352
75514ION    CL-48582  15.845  38.577  12.691
75515ION    CL-48583  39.208  20.219   0.379
75516ION    CL-48584  35.597   1.287  14.978
75517ION    CL-48585  42.103  16.594   5.028
75518ION    CL-48586  25.691  24.228  14.474
75519ION    CL-48587  25.789   6.546   2.809
75520ION    CL-48588  15.623  44.003  14.848
75521ION    CL-48589   7.700  37.678   1.485
75522ION    CL-48590  43.785  25.145   0.399
75523ION    CL-48591  19.546  38.795   3.988
75524ION    CL-48592  43.985  40.549   1.077
75525ION    CL-48593  37.129  31.488  14.656
75526ION    CL-48594  12.341  33.946   4.356
75527ION    CL-48595  38.516  14.094   1.656
75528ION    CL-48596  19.036   3.967  14.845
75529ION    CL-48597  41.514  29.309  10.386
75530ION    CL-48598   2.464  13.766   5.063
75531ION    CL-48599  36.441  36.509  14.508
75532ION    CL-48600  14.629  38.809   3.717
75533ION    CL-48601  32.995  24.628  14.080
75534ION    CL-48602  37.112  36.976   2.094
75535ION    CL-48603  28.700  37.399  12.467
75536ION    CL-48604   6.567   1.011   0.090
75537ION    CL-48605  12.934  20.916  13.300
75538ION    CL-48606  33.597  12.706   3.739
75539ION    CL-48607  20.637   3.220   2.123
75540ION    CL-48608  41.126  25.128  14.335
75541ION    CL-48609  35.898  17.730  14.578
75542ION    CL-48610  32.652  39.580  13.773
75543ION    CL-48611  37.562   1.518   4.206
75544ION    CL-48612  32.416   2.699  14.783
75545ION    CL-48613  34.333  10.315   1.195
75546ION    CL-48614  39.129  39.744  12.990
75547ION    CL-48615   9.807  34.419   1.491
75548ION    CL-48616   5.859  23.798   3.685
75549ION    CL-48617  44.765   4.550   0.363
75550ION    CL-48618  34.235  13.073  14.356
75551ION    CL-48619   6.199  41.281  12.394
75552ION    CL-48620  10.782   1.752   4.215
75553ION    CL-48621  31.543  40.352   1.410
75554ION    CL-48622  36.355   0.817  14.524
75555ION    CL-48623  16.138  10.393  13.385
75556ION    CL-48624  25.309  34.828  11.062
75557ION    CL-48625  11.963  43.027  13.811
75558ION    CL-48626  32.042  10.886   4.506
75559ION    CL-48627  17.159  39.218  12.581
75560ION    CL-48628  10.445  22.745  13.110
75561ION    CL-48629  11.390  31.474  10.329
75562ION    CL-48630  30.574  20.127  10.733
75563ION    CL-48631  23.569  23.776  12.107
75564ION    CL-48632  12.738   4.057  12.357
75565ION    CL-48633  23.281  40.891   3.270
75566ION    CL-48634  19.787  32.931  11.559
75567ION    CL-48635  13.997   0.197   1.209
75568ION    CL-48636   7.437  12.282   0.246
75569ION    CL-48637  38.730  14.789   2.778
75570ION    CL-48638  20.678  13.104  14.065
75571ION    CL-48639  13.249  30.321   0.583
75572ION    CL-48640  15.863  40.486   1.030
75573ION    CL-48641  33.388  44.834  10.826
75574ION    CL-48642  13.907  33.301   2.538
75575ION    CL-48643  36.450  43.757   1.063
75576ION    CL-48644   0.050  24.968   0.945
75577ION    CL-48645  19.169  41.865  13.127
75578ION    CL-48646   6.175   4.273   1.752
75579ION    CL-48647  32.049  16.645  13.351
75580ION    CL-48648  20.975  41.741   9.838
75581ION    CL-48649  12.745   9.671  13.787
75582ION    CL-48650  14.382  22.170   4.836
75583ION    CL-48651  31.248  17.613  11.822
75584ION    CL-48652  43.807  14.390   2.397
75585ION    CL-48653   0.021  14.700   0.726
75586ION    CL-48654  27.175  27.661  12.458
75587ION    CL-48655  42.746  36.064   2.108
75588ION    CL-48656   8.917  35.492   0.573
75589ION    CL-48657  43.501  13.652  14.925
75590ION    CL-48658  44.582  29.647  14.317
75591ION    CL-48659  19.814  16.505  11.633
75592ION    CL-48660  12.474  35.022  11.518
75593ION    CL-48661   6.678  23.649  11.566
75594ION    CL-48662  40.957   9.644  14.954
75595ION    CL-48663   1.822  31.409   2.068
75596ION    CL-48664  38.643  12.881   1.815
75597ION    CL-48665   3.052   1.428   4.930
75598ION    CL-48666   4.797  19.893  12.976
75599ION    CL-48667  32.646   6.558  12.920
75600ION    CL-48668  19.151   4.155  11.405
75601ION    CL-48669   5.894   6.400  14.989
75602ION    CL-48670  17.217  15.599   3.268
75603ION    CL-48671  26.727  44.928  14.281
75604ION    CL-48672  29.024   0.617  13.597
75605ION    CL-48673   0.524  41.871   2.006
75606ION    CL-48674   3.409  36.026   1.942
75607ION    CL-48675  16.987  41.434  14.901
75608ION    CL-48676  10.088   2.069   0.780
75609ION    CL-48677  22.047  26.484  11.488
75610ION    CL-48678  29.697  44.381   5.061
75611ION    CL-48679   5.779  27.948  10.956
75612ION    CL-48680  16.733  30.634  10.858
75613ION    CL-48681  41.129  29.138   2.575
75614ION    CL-48682  36.524  34.096   0.962
75615ION    CL-48683  12.911  18.808  11.730
75616ION    CL-48684  43.759  24.100  11.180
75617ION    CL-48685  11.226   9.222   0.896
75618ION    CL-48686  18.044  30.721  11.219
75619ION    CL-48687  43.028  12.398  12.345
75620ION    CL-48688  39.948  18.226  13.616
75621ION    CL-48689  39.194  12.663   3.414
75622ION    CL-48690  10.117  20.873  11.226
75623ION    CL-48691  12.761   8.752  11.839
75624ION    CL-48692   0.479  34.714   1.189
75625ION    CL-48693  40.372   6.275  10.064
75626ION    CL-48694  11.034  28.688  10.519
75627ION    CL-48695  33.043  23.247   3.093
75628ION    CL-48696  36.652  29.514  12.299
75629ION    CL-48697  28.118  43.023  11.710
75630ION    CL-48698  42.503  23.971   3.483
75631ION    CL-48699  20.229   7.722   1.328
75632ION    CL-48700  43.878   9.147   4.119
75633ION    CL-48701  28.128  17.248  11.724
75634ION    CL-48702   3.284  39.009  11.633
75635ION    CL-48703  21.739   8.210  13.458
75636ION    CL-48704  18.900  44.010  14.372
75637ION    CL-48705   9.465  20.230   3.227
75638ION    CL-48706  30.219  44.781  11.843
75639ION    CL-48707  39.782  15.943   5.388
75640ION    CL-48708  34.684  25.005  10.854
75641ION    CL-48709   1.201  26.683  13.619
75642ION    CL-48710  26.057   6.892   1.958
75643ION    CL-48711  11.122  33.055   4.247
75644ION    CL-48712  37.250  25.059   1.320
75645ION    CL-48713  12.669   9.871   4.107
75646ION    CL-48714  28.594  10.976   0.328
75647ION    CL-48715  30.045  17.226  10.977
75648ION    CL-48716   2.757  12.446  13.352
75649ION    CL-48717  39.810   2.751   0.637
75650ION    CL-48718  27.340   6.722   3.466
75651ION    CL-48719  37.337  22.640   4.275
75652ION    CL-48720  27.306  13.818   0.718
75653ION    CL-48721  17.264  31.392   2.627
75654ION    CL-48722  38.930  20.176  11.051
75655ION    CL-48723  44.035  28.214  14.358
75656ION    CL-48724  37.286  11.092   2.653
75657ION    CL-48725  28.605   3.269   4.926
75658ION    CL-48726  21.909  43.827  11.138
75659ION    CL-48727  17.371  35.915   4.152
75660ION    CL-48728  31.437   6.362   1.908
75661ION    CL-48729   3.714  27.686  11.182
75662ION    CL-48730  15.037  11.218  13.945
75663ION    CL-48731  16.732  12.153  13.909
75664ION    CL-48732  19.626  23.335   3.283
75665ION    CL-48733   9.694   4.220  12.098
75666ION    CL-48734  38.068  37.470   3.278
75667ION    CL-48735   7.232  18.309   0.570
75668ION    CL-48736  26.626  44.478   0.168
75669ION    CL-48737  11.802  39.842  14.804
75670ION    CL-48738  35.401  28.462   1.731
75671ION    CL-48739  19.608  22.790  12.573
75672ION    CL-48740   1.142  22.758   3.094
75673ION    CL-48741  41.057  40.315  11.501
75674ION    CL-48742  33.115  10.100  11.067
75675ION    CL-48743  18.046   0.968  14.372
75676ION    CL-48744  37.298  44.450   0.918
75677ION    CL-48745  33.933  32.441   1.418
75678ION    CL-48746  24.772  25.602  10.633
75679ION    CL-48747  13.578  12.195  10.431
75680ION    CL-48748  21.206  18.527  11.662
75681ION    CL-48749   9.600  30.469   2.670
75682ION    CL-48750   7.207   5.203  13.275
75683ION    CL-48751   9.376  11.609  12.760
75684ION    CL-48752   2.975   4.524  11.462
75685ION    CL-48753   1.974  22.511   3.216
75686ION    CL-48754   9.748   5.025  11.508
75687ION    CL-48755  17.127  38.836   2.194
75688ION    CL-48756  34.568  26.775   3.465
75689ION    CL-48757  12.512  14.611   2.968
75690ION    CL-48758  18.005  27.732   0.341
75691ION    CL-48759   7.836  15.390  11.523
75692ION    CL-48760  30.621   9.250  14.321
75693ION    CL-48761  37.079  42.000   1.639
75694ION    CL-48762  16.349   3.913   0.240
75695ION    CL-48763   3.675  16.041   4.593
75696ION    CL-48764  21.206  31.540   1.700
75697ION    CL-48765  16.248   7.990   3.639
75698ION    CL-48766  27.496  34.936  11.524
75699ION    CL-48767   8.088   7.552  14.714
75700ION    CL-48768   5.636  23.690  11.563
75701ION    CL-48769  30.845  20.244  13.299
75702ION    CL-48770   1.438   5.088   0.058
75703ION    CL-48771  22.409  28.125  10.326
75704ION    CL-48772   1.328  41.356  13.866
75705ION    CL-48773  31.062  27.192   2.200
75706ION    CL-48774  22.100  37.649   1.595
75707ION    CL-48775  17.349  42.863  13.052
75708ION    CL-48776  23.695   7.630   0.185
75709ION    CL-48777   8.403   9.453  13.530
75710ION    CL-48778  16.377   2.798  14.806
75711ION    CL-48779  39.753  14.433  11.076
75712ION    CL-48780   9.903   1.889  12.094
75713ION    CL-48781  14.521   8.717  13.445
75714ION    CL-48782  40.411  32.982  13.454
75715ION    CL-48783   3.711  42.567   4.945
75716ION    CL-48784   8.259  29.557  10.344
75717ION    CL-48785   5.124  38.127   2.313
75718ION    CL-48786  18.227  43.035   3.137
75719ION    CL-48787  37.305   9.234   0.823
75720ION    CL-48788   0.264  44.406   1.316
75721ION    CL-48789   0.023  36.408   0.589
75722ION    CL-48790   0.175   7.848   1.726
75723ION    CL-48791  11.368  33.475   1.535
75724ION    CL-48792   7.222  33.501   4.653
75725ION    CL-48793   8.770  31.092  14.703
75726ION    CL-48794   6.543  19.161  12.701
75727ION    CL-48795  43.371   2.776  13.405
75728ION    CL-48796  10.735  25.609   3.385
75729ION    CL-48797  19.322  25.417  14.888
75730ION    CL-48798  10.034  13.693  14.958
75731ION    CL-48799  38.926   7.450   4.070
75732ION    CL-48800   1.416  38.391   1.554
75733ION    CL-48801   7.971  41.975   1.160
75734ION    CL-48802  27.921  28.817  13.872
75735ION    CL-48803  39.346  32.501   4.408
75736ION    CL-48804  22.057  18.009  11.588
75737ION    CL-48805  42.310  13.711   2.881
75738ION    CL-48806  39.907  36.202  12.600
75739ION    CL-48807  18.269  31.491  14.300
75740ION    CL-48808  13.239  18.231  11.075
75741ION    CL-48809  14.114  34.031  12.620
75742ION    CL-48810  36.070  20.429   4.564
75743ION    CL-48811  42.942  23.049   1.264
75744ION    CL-48812  39.319   3.472   3.700
75745ION    CL-48813  26.132  19.965   2.946
75746ION    CL-48814  27.147   2.981   1.131
75747ION    CL-48815  26.760   7.807  13.431
75748ION    CL-48816  14.583  23.672  11.689
75749ION    CL-48817  26.608   2.207   0.760
75750ION    CL-48818  40.905  32.113  13.412
75751ION    CL-48819  42.664  34.396   2.367
75752ION    CL-48820  29.174  16.679   2.756
75753ION    CL-48821  20.549  12.214  12.521
75754ION    CL-48822  19.859   0.809   5.023
75755ION    CL-48823  39.303  41.481   0.464
75756ION    CL-48824  19.968  36.824   1.739
75757ION    CL-48825   2.335   5.959  14.602
75758ION    CL-48826   3.097  29.600  13.429
75759ION    CL-48827  24.246  34.421   3.821
75760ION    CL-48828  30.755   5.624   4.773
75761ION    CL-48829  32.544  24.714   1.853
75762ION    CL-48830   5.184   0.453   3.032
75763ION    CL-48831  28.663   5.408  12.094
75764ION    CL-48832   7.622  31.280   4.827
75765ION    CL-48833  22.972  37.970  13.875
75766ION    CL-48834  27.548  44.625   3.030
75767ION    CL-48835  26.004  27.205  13.365
75768ION    CL-48836  44.699  12.555   4.032
75769ION    CL-48837   5.277  33.705   1.211
75770ION    CL-48838  43.292  30.353   3.488
75771ION    CL-48839  36.935   0.707  11.035
75772ION    CL-48840   7.265   1.019   2.894
75773ION    CL-48841  11.657  43.061  14.762
75774ION    CL-48842  16.415   6.453   3.622
75775ION    CL-48843  26.694  15.547  12.810
75776ION    CL-48844   4.970  25.842   2.448
75777ION    CL-48845  18.896  22.914   0.258
75778ION    CL-48846  10.305  12.025  12.846
75779ION    CL-48847  33.925  18.241   2.144
75780ION    CL-48848  24.330  16.876   5.462
75781ION    CL-48849  21.245   7.313   3.093
75782ION    CL-48850  43.793  23.094   2.240
75783ION    CL-48851  29.996  20.011  13.175
75784ION    CL-48852   2.354  33.090  12.119
75785ION    CL-48853  35.951   7.223  11.596
75786ION    CL-48854  15.316   8.314   3.879
75787ION    CL-48855  24.352   3.197   3.758
75788ION    CL-48856   9.723  20.967  10.406
75789ION    CL-48857   2.766  11.667  13.809
75790ION    CL-48858  41.478  41.959   2.862
75791ION    CL-48859  29.728   8.387  13.104
75792ION    CL-48860   5.434   8.296  10.466
75793ION    CL-48861  23.328  34.998  14.123
75794ION    CL-48862   0.274   9.496  10.645
75795ION    CL-48863  41.550   6.540  14.851
75796ION    CL-48864   9.323  43.378  11.311
75797ION    CL-48865  27.482  10.312  11.439
75798ION    CL-48866  14.909  20.760   2.351
75799ION    CL-48867  25.683  16.413   2.782
75800ION    CL-48868  28.167  42.592   5.182
75801ION    CL-48869  18.622  28.748  11.179
75802ION    CL-48870  30.894  12.200   1.224
75803ION    CL-48871  32.655  34.625  11.547
75804ION    CL-48872   2.772  31.545   1.681
75805ION    CL-48873  39.884  11.044  13.893
75806ION    CL-48874  44.532   2.212  11.229
75807ION    CL-48875  35.549   2.179  10.805
75808ION    CL-48876  17.417  19.198   4.165
75809ION    CL-48877   3.529  42.406   2.891
75810ION    CL-48878  17.939   1.707  13.707
75811ION    CL-48879  20.310  17.426   0.591
75812ION    CL-48880   2.257  30.488  13.407
75813ION    CL-48881  31.834  44.853   2.642
75814ION    CL-48882  38.803  31.349  12.094
75815ION    CL-48883   9.839  43.928  14.276
75816ION    CL-48884   8.593  27.009  14.874
75817ION    CL-48885  38.331   1.414   4.112
75818ION    CL-48886  17.122   9.087   1.899
75819ION    CL-48887  13.527  26.052   2.230
75820ION    CL-48888  35.991  32.175   2.717
75821ION    CL-48889  37.346  11.007   4.756
75822ION    CL-48890   0.848  40.498   2.782
75823ION    CL-48891   6.891  25.765   3.609
75824ION    CL-48892  35.962   5.675   4.495
75825ION    CL-48893  28.178  24.079  14.613
75826ION    CL-48894  34.056  35.793  12.724
75827ION    CL-48895  20.322   2.947   3.032
75828ION    CL-48896  25.167  17.240  11.734
75829ION    CL-48897  35.526   0.746  12.557
75830ION    CL-48898  26.498  30.637   4.177
75831ION    CL-48899  14.964  16.990   0.368
75832ION    CL-48900  18.980  26.469   0.347
75833ION    CL-48901   9.311   6.058  12.217
75834ION    CL-48902   0.866  35.600   1.485
75835ION    CL-48903  31.200  11.306  13.806
75836ION    CL-48904  30.097   5.672  10.905
75837ION    CL-48905  39.348  12.333  12.817
75838ION    CL-48906  40.279   0.131   4.871
75839ION    CL-48907  33.147  44.034   3.179
75840ION    CL-48908  38.025  34.066  12.417
75841ION    CL-48909  14.729  17.326   3.187
75842ION    CL-48910  38.184  32.713  11.629
75843ION    CL-48911  42.928   0.692   3.508
75844ION    CL-48912   3.192  12.178   1.775
75845ION    CL-48913  18.857  11.242  12.833
75846ION    CL-48914  25.813  42.940  13.503
75847ION    CL-48915  35.694   7.347   0.104
75848ION    CL-48916  44.492  20.026   3.006
75849ION    CL-48917  20.330  29.882   3.334
75850ION    CL-48918  15.366   7.102   2.403
75851ION    CL-48919   2.401  29.081  11.680
75852ION    CL-48920  30.547  38.062  12.264
75853ION    CL-48921  26.438  27.465   3.588
75854ION    CL-48922  34.270  22.062   1.652
75855ION    CL-48923  42.320  28.077   4.280
75856ION    CL-48924  43.545  29.593   1.341
75857ION    CL-48925  37.855   6.163  12.100
75858ION    CL-48926  43.056  35.663   5.311
75859ION    CL-48927  24.661  37.048  13.481
75860ION    CL-48928  32.417  16.409  12.628
75861ION    CL-48929  41.627  14.820   0.392
75862ION    CL-48930  35.054  28.154   4.240
75863ION    CL-48931  32.292   4.842  14.890
75864ION    CL-48932   2.637  15.314  11.058
75865ION    CL-48933   7.190   3.551  14.581
75866ION    CL-48934   4.631  16.568  12.474
75867ION    CL-48935  20.444  38.121   2.873
75868ION    CL-48936  43.823  23.104  11.108
75869ION    CL-48937  24.010  10.852  11.563
75870ION    CL-48938  23.565  36.379   5.045
75871ION    CL-48939   8.961  43.601  10.406
75872ION    CL-48940  31.819  19.844   2.779
75873ION    CL-48941  40.953  14.842  10.332
75874ION    CL-48942   5.232  35.643   3.862
75875ION    CL-48943  25.610  27.314   4.841
75876ION    CL-48944  23.348  16.193   3.212
75877ION    CL-48945   9.744  39.410   1.390
75878ION    CL-48946  36.699  38.752  14.392
75879ION    CL-48947  27.169  13.829   2.747
75880ION    CL-48948   4.712   0.532  11.937
75881ION    CL-48949  17.233  14.069   2.928
75882ION    CL-48950  42.969  40.476  13.076
75883ION    CL-48951   8.378   1.826   0.438
75884ION    CL-48952   0.437  32.847   0.089
75885ION    CL-48953   3.237   6.131  14.641
75886ION    CL-48954  36.440  34.352   3.283
75887ION    CL-48955  24.471  31.031   4.341
75888ION    CL-48956   4.678  19.648  12.013
75889ION    CL-48957  32.270  17.654  11.935
75890ION    CL-48958  30.190  20.718  12.494
75891ION    CL-48959   8.433   8.390   3.469
75892ION    CL-48960   0.921  12.062   5.091
75893ION    CL-48961  36.525  14.112  11.025
75894ION    CL-48962  30.609  17.988  13.380
75895ION    CL-48963   8.392  27.638  10.394
75896ION    CL-48964  18.131  34.318  14.544
75897ION    CL-48965  10.861  39.084  12.979
75898ION    CL-48966  14.193  17.625   0.324
75899ION    CL-48967   8.714  26.241  14.193
75900ION    CL-48968  16.672  39.823   1.448
75901ION    CL-48969   9.315   0.146   1.436
75902ION    CL-48970  37.052  27.058  14.343
75903ION    CL-48971  13.012  33.916   2.246
75904ION    CL-48972  38.098  33.246  14.378
75905ION    CL-48973  35.822   0.365   4.935
75906ION    CL-48974  40.549   3.682  13.198
75907ION    CL-48975  42.347  27.174  12.012
75908ION    CL-48976  42.630  13.989  10.269
75909ION    CL-48977  26.869  27.586   1.289
75910ION    CL-48978  26.346  28.095  12.071
75911ION    CL-48979   6.367  41.967   3.304
75912ION    CL-48980  18.269   2.983   1.073
75913ION    CL-48981  16.050  25.774  12.470
75914ION    CL-48982  41.981  31.394   0.616
75915ION    CL-48983  14.343  43.821  14.350
75916ION    CL-48984  29.857  28.213  11.692
75917ION    CL-48985   9.629  31.444   1.370
75918ION    CL-48986  19.211  44.755  11.819
75919ION    CL-48987   7.863  42.373  12.387
75920ION    CL-48988  42.707  25.592   5.002
75921ION    CL-48989   7.276  30.873  11.902
75922ION    CL-48990   9.126  16.706   3.728
75923ION    CL-48991  13.701  35.872  12.428
75924ION    CL-48992  24.824  33.923  11.120
75925ION    CL-48993  36.827  22.766   0.338
75926ION    CL-48994  23.304   3.914  11.248
75927ION    CL-48995  19.687   1.755   2.635
75928ION    CL-48996  24.209  40.880   1.727
75929ION    CL-48997  16.851  19.032  13.024
75930ION    CL-48998   2.538  14.197  10.769
75931ION    CL-48999  14.298  27.680  13.491
75932ION    CL-49000  22.746  37.606   3.328
75933ION    CL-49001   3.994  40.063   3.210
75934ION    CL-49002  40.787  33.711  12.373
75935ION    CL-49003  41.846  34.777  11.111
75936ION    CL-49004  14.391  22.787   0.485
75937ION    CL-49005   7.152  38.699   1.738
75938ION    CL-49006  24.523  28.182   1.269
75939ION    CL-49007  39.491  42.580   3.972
75940ION    CL-49008   7.967  27.134   4.209
75941ION    CL-49009  39.977  19.586   0.476
75942ION    CL-49010  39.904   2.745  10.157
75943ION    CL-49011  13.788  44.676  11.180
75944ION    CL-49012  26.076  38.732   4.044
75945ION    CL-49013   2.995  17.850  11.956
75946ION    CL-49014  23.759  32.297   3.154
75947ION    CL-49015  41.493  37.478  10.616
75948ION    CL-49016  26.096  20.237  13.672
75949ION    CL-49017  28.018  31.971   3.259
75950ION    CL-49018   3.359   3.683   3.543
75951ION    CL-49019   5.289  24.753  12.363
75952ION    CL-49020  35.202  44.058  12.111
75953ION    CL-49021  32.348   1.226  14.276
75954ION    CL-49022   3.259  18.413   1.530
75955ION    CL-49023   7.122  18.010  11.666
75956ION    CL-49024  39.067  28.466  10.756
75957ION    CL-49025  10.888  41.058   3.613
75958ION    CL-49026   1.518   1.290  14.816
75959ION    CL-49027  44.242  12.283  13.306
75960ION    CL-49028  12.853  23.209   0.688
75961ION    CL-49029  32.493  23.145   3.923
75962ION    CL-49030  17.209  15.631  12.153
  45.00000  45.00000  15.00000
